 Entering Gaussian System, Link 0=g16
 Input=./species/COC=CO/conformers/COC=CO_26.com
 Output=./species/COC=CO/conformers/COC=CO_26.log
 Initial command:
 /shared/centos7/gaussian/g16/l1.exe "/scratch/harms.n/gauss_scrdir/Gau-45578.inp" -scrdir="/scratch/harms.n/gauss_scrdir/"
 Entering Link 1 = /shared/centos7/gaussian/g16/l1.exe PID=     45581.
  
 Copyright (c) 1988,1990,1992,1993,1995,1998,2003,2009,2016,
            Gaussian, Inc.  All Rights Reserved.
  
 This is part of the Gaussian(R) 16 program.  It is based on
 the Gaussian(R) 09 system (copyright 2009, Gaussian, Inc.),
 the Gaussian(R) 03 system (copyright 2003, Gaussian, Inc.),
 the Gaussian(R) 98 system (copyright 1998, Gaussian, Inc.),
 the Gaussian(R) 94 system (copyright 1995, Gaussian, Inc.),
 the Gaussian 92(TM) system (copyright 1992, Gaussian, Inc.),
 the Gaussian 90(TM) system (copyright 1990, Gaussian, Inc.),
 the Gaussian 88(TM) system (copyright 1988, Gaussian, Inc.),
 the Gaussian 86(TM) system (copyright 1986, Carnegie Mellon
 University), and the Gaussian 82(TM) system (copyright 1983,
 Carnegie Mellon University). Gaussian is a federally registered
 trademark of Gaussian, Inc.
  
 This software contains proprietary and confidential information,
 including trade secrets, belonging to Gaussian, Inc.
  
 This software is provided under written license and may be
 used, copied, transmitted, or stored only in accord with that
 written license.
  
 The following legend is applicable only to US Government
 contracts under FAR:
  
                    RESTRICTED RIGHTS LEGEND
  
 Use, reproduction and disclosure by the US Government is
 subject to restrictions as set forth in subparagraphs (a)
 and (c) of the Commercial Computer Software - Restricted
 Rights clause in FAR 52.227-19.
  
 Gaussian, Inc.
 340 Quinnipiac St., Bldg. 40, Wallingford CT 06492
  
  
 ---------------------------------------------------------------
 Warning -- This program may not be used in any manner that
 competes with the business of Gaussian, Inc. or will provide
 assistance to any competitor of Gaussian, Inc.  The licensee
 of this program is prohibited from giving any competitor of
 Gaussian, Inc. access to this program.  By using this program,
 the user acknowledges that Gaussian, Inc. is engaged in the
 business of creating and licensing software in the field of
 computational chemistry and represents and warrants to the
 licensee that it is not a competitor of Gaussian, Inc. and that
 it will not use this program in any manner prohibited above.
 ---------------------------------------------------------------
  

 Cite this work as:
 Gaussian 16, Revision A.03,
 M. J. Frisch, G. W. Trucks, H. B. Schlegel, G. E. Scuseria, 
 M. A. Robb, J. R. Cheeseman, G. Scalmani, V. Barone, 
 G. A. Petersson, H. Nakatsuji, X. Li, M. Caricato, A. V. Marenich, 
 J. Bloino, B. G. Janesko, R. Gomperts, B. Mennucci, H. P. Hratchian, 
 J. V. Ortiz, A. F. Izmaylov, J. L. Sonnenberg, D. Williams-Young, 
 F. Ding, F. Lipparini, F. Egidi, J. Goings, B. Peng, A. Petrone, 
 T. Henderson, D. Ranasinghe, V. G. Zakrzewski, J. Gao, N. Rega, 
 G. Zheng, W. Liang, M. Hada, M. Ehara, K. Toyota, R. Fukuda, 
 J. Hasegawa, M. Ishida, T. Nakajima, Y. Honda, O. Kitao, H. Nakai, 
 T. Vreven, K. Throssell, J. A. Montgomery, Jr., J. E. Peralta, 
 F. Ogliaro, M. J. Bearpark, J. J. Heyd, E. N. Brothers, K. N. Kudin, 
 V. N. Staroverov, T. A. Keith, R. Kobayashi, J. Normand, 
 K. Raghavachari, A. P. Rendell, J. C. Burant, S. S. Iyengar, 
 J. Tomasi, M. Cossi, J. M. Millam, M. Klene, C. Adamo, R. Cammi, 
 J. W. Ochterski, R. L. Martin, K. Morokuma, O. Farkas, 
 J. B. Foresman, and D. J. Fox, Gaussian, Inc., Wallingford CT, 2016.
 
 ******************************************
 Gaussian 16:  EM64L-G16RevA.03 25-Dec-2016
                31-Aug-2019 
 ******************************************
 %nprocshared=20
 Will use up to   20 processors via shared memory.
 %mem=5GB
 ----------------------------------------------------------------------
 #p m062x/cc-pVTZ opt=(calcfc,maxcycles=900,Tight) freq IOP(7/33=1,2/16
 =3) scf=(maxcycle=900)
 ----------------------------------------------------------------------
 1/6=900,7=10,10=4,18=20,19=15,26=3,38=1/1,3;
 2/9=110,12=2,16=3,17=6,18=5,40=1/2;
 3/5=16,6=1,11=2,25=1,30=1,71=2,74=-55,140=1/1,2,3;
 4//1;
 5/5=2,7=900,38=5/2;
 8/6=4,10=90,11=11/1;
 11/6=1,8=1,9=11,15=111,16=1/1,2,10;
 10/6=1,13=1/2;
 6/7=2,8=2,9=2,10=2,28=1/1;
 7/10=1,18=20,25=1,33=1/1,2,3,16;
 1/6=900,7=10,10=4,18=20,19=15,26=3/3(2);
 2/9=110,16=3/2;
 99//99;
 2/9=110,16=3/2;
 3/5=16,6=1,11=2,25=1,30=1,71=1,74=-55/1,2,3;
 4/5=5,16=3,69=1/1;
 5/5=2,7=900,38=5/2;
 7/33=1/1,2,3,16;
 1/6=900,7=10,18=20,19=15,26=3/3(-5);
 2/9=110,16=3/2;
 6/7=2,8=2,9=2,10=2,19=2,28=1/1;
 99/9=1/99;
 Leave Link    1 at Sat Aug 31 11:15:56 2019, MaxMem=   671088640 cpu:              28.5 elap:              14.3
 (Enter /shared/centos7/gaussian/g16/l101.exe)
 ------------------------------
 Gaussian input prepared by ASE
 ------------------------------
 Symbolic Z-matrix:
 Charge =  0 Multiplicity = 1
 O                     0.22635  -0.7828    1.09855 
 O                     0.13      0.65016  -1.39215 
 C                    -1.17757  -0.8894    0.85151 
 C                     0.67607   0.5193    0.92007 
 C                     0.64666   1.1624   -0.22297 
 H                    -1.45921  -1.97541   0.96859 
 H                    -1.7611   -0.27372   1.59388 
 H                    -1.42069  -0.55818  -0.15828 
 H                     1.12442   0.95877   1.80905 
 H                     1.01122   2.16084  -0.33734 
 H                    -0.17209  -0.29746  -1.18059 
 
 ITRead=  0  0  0  0  0  0  0  0  0  0  0
 MicOpt= -1 -1 -1 -1 -1 -1 -1 -1 -1 -1 -1
 NAtoms=     11 NQM=       11 NQMF=       0 NMMI=      0 NMMIF=      0
                NMic=       0 NMicF=      0.
                    Isotopes and Nuclear Properties:
 (Nuclear quadrupole moments (NQMom) in fm**2, nuclear magnetic moments (NMagM)
  in nuclear magnetons)

  Atom         1           2           3           4           5           6           7           8           9          10
 IAtWgt=          16          16          12          12          12           1           1           1           1           1
 AtmWgt=  15.9949146  15.9949146  12.0000000  12.0000000  12.0000000   1.0078250   1.0078250   1.0078250   1.0078250   1.0078250
 NucSpn=           0           0           0           0           0           1           1           1           1           1
 AtZEff=  -0.0000000  -0.0000000  -0.0000000  -0.0000000  -0.0000000  -0.0000000  -0.0000000  -0.0000000  -0.0000000  -0.0000000
 NQMom=    0.0000000   0.0000000   0.0000000   0.0000000   0.0000000   0.0000000   0.0000000   0.0000000   0.0000000   0.0000000
 NMagM=    0.0000000   0.0000000   0.0000000   0.0000000   0.0000000   2.7928460   2.7928460   2.7928460   2.7928460   2.7928460
 AtZNuc=   8.0000000   8.0000000   6.0000000   6.0000000   6.0000000   1.0000000   1.0000000   1.0000000   1.0000000   1.0000000

  Atom        11
 IAtWgt=           1
 AtmWgt=   1.0078250
 NucSpn=           1
 AtZEff=  -0.0000000
 NQMom=    0.0000000
 NMagM=    2.7928460
 AtZNuc=   1.0000000
 Leave Link  101 at Sat Aug 31 11:15:57 2019, MaxMem=   671088640 cpu:               2.4 elap:               1.2
 (Enter /shared/centos7/gaussian/g16/l103.exe)

 GradGradGradGradGradGradGradGradGradGradGradGradGradGradGradGradGradGrad
 Berny optimization.
 Initialization pass.
                           ----------------------------
                           !    Initial Parameters    !
                           ! (Angstroms and Degrees)  !
 --------------------------                            --------------------------
 ! Name  Definition              Value          Derivative Info.                !
 --------------------------------------------------------------------------------
 ! R1    R(1,3)                  1.4295         calculate D2E/DX2 analytically  !
 ! R2    R(1,4)                  1.3891         calculate D2E/DX2 analytically  !
 ! R3    R(2,5)                  1.3771         calculate D2E/DX2 analytically  !
 ! R4    R(2,11)                 1.0169         calculate D2E/DX2 analytically  !
 ! R5    R(3,6)                  1.128          calculate D2E/DX2 analytically  !
 ! R6    R(3,7)                  1.1272         calculate D2E/DX2 analytically  !
 ! R7    R(3,8)                  1.0902         calculate D2E/DX2 analytically  !
 ! R8    R(4,5)                  1.3119         calculate D2E/DX2 analytically  !
 ! R9    R(4,9)                  1.0883         calculate D2E/DX2 analytically  !
 ! R10   R(5,10)                 1.0691         calculate D2E/DX2 analytically  !
 ! A1    A(3,1,4)              111.4486         calculate D2E/DX2 analytically  !
 ! A2    A(5,2,11)             106.3477         calculate D2E/DX2 analytically  !
 ! A3    A(1,3,6)              107.402          calculate D2E/DX2 analytically  !
 ! A4    A(1,3,7)              110.724          calculate D2E/DX2 analytically  !
 ! A5    A(1,3,8)              110.8823         calculate D2E/DX2 analytically  !
 ! A6    A(6,3,7)              109.1617         calculate D2E/DX2 analytically  !
 ! A7    A(6,3,8)              109.4487         calculate D2E/DX2 analytically  !
 ! A8    A(7,3,8)              109.1845         calculate D2E/DX2 analytically  !
 ! A9    A(1,4,5)              124.3474         calculate D2E/DX2 analytically  !
 ! A10   A(1,4,9)              114.0125         calculate D2E/DX2 analytically  !
 ! A11   A(5,4,9)              121.5345         calculate D2E/DX2 analytically  !
 ! A12   A(2,5,4)              124.461          calculate D2E/DX2 analytically  !
 ! A13   A(2,5,10)             112.6139         calculate D2E/DX2 analytically  !
 ! A14   A(4,5,10)             122.9157         calculate D2E/DX2 analytically  !
 ! D1    D(4,1,3,6)            177.4526         calculate D2E/DX2 analytically  !
 ! D2    D(4,1,3,7)            -63.446          calculate D2E/DX2 analytically  !
 ! D3    D(4,1,3,8)             57.9123         calculate D2E/DX2 analytically  !
 ! D4    D(3,1,4,5)            -63.5437         calculate D2E/DX2 analytically  !
 ! D5    D(3,1,4,9)            120.1542         calculate D2E/DX2 analytically  !
 ! D6    D(11,2,5,4)            -1.9539         calculate D2E/DX2 analytically  !
 ! D7    D(11,2,5,10)          179.1385         calculate D2E/DX2 analytically  !
 ! D8    D(1,4,5,2)              2.0378         calculate D2E/DX2 analytically  !
 ! D9    D(1,4,5,10)          -179.1635         calculate D2E/DX2 analytically  !
 ! D10   D(9,4,5,2)            178.0743         calculate D2E/DX2 analytically  !
 ! D11   D(9,4,5,10)            -3.127          calculate D2E/DX2 analytically  !
 --------------------------------------------------------------------------------
 Trust Radius=3.00D-01 FncErr=1.00D-07 GrdErr=1.00D-06 EigMax=2.50D+02 EigMin=1.00D-04
 Number of steps in this run=    100 maximum allowed number of steps=    100.
 GradGradGradGradGradGradGradGradGradGradGradGradGradGradGradGradGradGrad

 Leave Link  103 at Sat Aug 31 11:15:58 2019, MaxMem=   671088640 cpu:               1.7 elap:               1.1
 (Enter /shared/centos7/gaussian/g16/l202.exe)
                          Input orientation:                          
 ---------------------------------------------------------------------
 Center     Atomic      Atomic             Coordinates (Angstroms)
 Number     Number       Type             X           Y           Z
 ---------------------------------------------------------------------
      1          8           0        0.226347   -0.782800    1.098551
      2          8           0        0.129998    0.650165   -1.392151
      3          6           0       -1.177567   -0.889402    0.851511
      4          6           0        0.676073    0.519303    0.920069
      5          6           0        0.646659    1.162395   -0.222970
      6          1           0       -1.459208   -1.975405    0.968587
      7          1           0       -1.761104   -0.273721    1.593880
      8          1           0       -1.420694   -0.558177   -0.158276
      9          1           0        1.124418    0.958768    1.809049
     10          1           0        1.011219    2.160839   -0.337338
     11          1           0       -0.172091   -0.297464   -1.180594
 ---------------------------------------------------------------------
                    Distance matrix (angstroms):
                    1          2          3          4          5
     1  O    0.000000
     2  O    2.875113   0.000000
     3  C    1.429464   3.018942   0.000000
     4  C    1.389094   2.379430   2.329191   0.000000
     5  C    2.388905   1.377063   2.948251   1.311858   0.000000
     6  H    2.068886   3.871986   1.128020   3.284105   3.962357
     7  H    2.110562   3.653247   1.127250   2.650045   3.340762
     8  H    2.083942   2.321031   1.090179   2.592340   2.690447
     9  H    2.084322   3.366272   3.103506   1.088314   2.097337
    10  H    3.367909   2.042380   3.938035   2.094764   1.069052
    11  H    2.364066   1.016866   2.343250   2.408168   1.928363
                    6          7          8          9         10
     6  H    0.000000
     7  H    1.837896   0.000000
     8  H    1.811032   1.807442   0.000000
     9  H    3.998859   3.145085   3.556556   0.000000
    10  H    4.991689   4.164427   3.652303   2.462675   0.000000
    11  H    3.015150   3.197378   1.634660   3.492423   2.855618
                   11
    11  H    0.000000
 Stoichiometry    C3H6O2
 Framework group  C1[X(C3H6O2)]
 Deg. of freedom    27
 Full point group                 C1      NOp   1
 Largest Abelian subgroup         C1      NOp   1
 Largest concise Abelian subgroup C1      NOp   1
                         Standard orientation:                         
 ---------------------------------------------------------------------
 Center     Atomic      Atomic             Coordinates (Angstroms)
 Number     Number       Type             X           Y           Z
 ---------------------------------------------------------------------
      1          8           0        1.042155    0.457631   -0.496525
      2          8           0       -1.456181   -0.920676   -0.143172
      3          6           0        1.516008   -0.630887    0.299690
      4          6           0       -0.101681    1.026094    0.049436
      5          6           0       -1.244697    0.398203    0.191694
      6          1           0        2.412047   -1.069154   -0.227059
      7          1           0        1.826868   -0.271654    1.321947
      8          1           0        0.747748   -1.396824    0.407431
      9          1           0        0.004269    2.079535    0.301358
     10          1           0       -2.115216    0.862452    0.603451
     11          1           0       -0.581283   -1.260454   -0.534477
 ---------------------------------------------------------------------
 Rotational constants (GHZ):           9.3266985           4.1756155           3.1924243
 Leave Link  202 at Sat Aug 31 11:16:00 2019, MaxMem=   671088640 cpu:               3.9 elap:               1.9
 (Enter /shared/centos7/gaussian/g16/l301.exe)
 Standard basis: CC-pVTZ (5D, 7F)
 Ernie: Thresh=  0.10000D-02 Tol=  0.10000D-05 Strict=F.
 Ernie:  15 primitive shells out of 178 were deleted.
 There are   265 symmetry adapted cartesian basis functions of A   symmetry.
 There are   234 symmetry adapted basis functions of A   symmetry.
   234 basis functions,   362 primitive gaussians,   265 cartesian basis functions
    20 alpha electrons       20 beta electrons
       nuclear repulsion energy       180.7437160980 Hartrees.
 IExCor= 4336 DFT=T Ex+Corr=M062X ExCW=0 ScaHFX=  0.540000
 ScaDFX=  1.000000  1.000000  1.000000  1.000000 ScalE2=  1.000000  1.000000
 IRadAn=      5 IRanWt=     -1 IRanGd=            0 ICorTp=0 IEmpDi=  4
 NAtoms=   11 NActive=   11 NUniq=   11 SFac= 1.00D+00 NAtFMM=   60 NAOKFM=F Big=F
 Integral buffers will be    131072 words long.
 Raffenetti 2 integral format.
 Two-electron integral symmetry is turned on.
 Leave Link  301 at Sat Aug 31 11:16:01 2019, MaxMem=   671088640 cpu:               1.5 elap:               0.8
 (Enter /shared/centos7/gaussian/g16/l302.exe)
 NPDir=0 NMtPBC=     1 NCelOv=     1 NCel=       1 NClECP=     1 NCelD=      1
         NCelK=      1 NCelE2=     1 NClLst=     1 CellRange=     0.0.
 One-electron integrals computed using PRISM.
 One-electron integral symmetry used in STVInt
 NBasis=   234 RedAO= T EigKep=  3.52D-04  NBF=   234
 NBsUse=   234 1.00D-06 EigRej= -1.00D+00 NBFU=   234
 Precomputing XC quadrature grid using
 IXCGrd= 4 IRadAn=           5 IRanWt=          -1 IRanGd=           0 AccXCQ= 0.00D+00.
 Generated NRdTot=       0 NPtTot=           0 NUsed=           0 NTot=          32
 NSgBfM=   265   265   265   265   265 MxSgAt=    11 MxSgA2=    11.
 Leave Link  302 at Sat Aug 31 11:16:47 2019, MaxMem=   671088640 cpu:              92.5 elap:              46.3
 (Enter /shared/centos7/gaussian/g16/l303.exe)
 DipDrv:  MaxL=1.
 Leave Link  303 at Sat Aug 31 11:16:52 2019, MaxMem=   671088640 cpu:               9.3 elap:               4.6
 (Enter /shared/centos7/gaussian/g16/l401.exe)
 ExpMin= 1.03D-01 ExpMax= 1.53D+04 ExpMxC= 5.22D+02 IAcc=3 IRadAn=         5 AccDes= 0.00D+00
 Harris functional with IExCor= 1009 and IRadAn=       5 diagonalized for initial guess.
 HarFok:  IExCor= 1009 AccDes= 0.00D+00 IRadAn=         5 IDoV= 1 UseB2=F ITyADJ=14
 ICtDFT=  3500011 ScaDFX=  1.000000  1.000000  1.000000  1.000000
 FoFCou: FMM=F IPFlag=           0 FMFlag=      100000 FMFlg1=           0
         NFxFlg=           0 DoJE=T BraDBF=F KetDBF=T FulRan=T
         wScrn=  0.000000 ICntrl=       500 IOpCl=  0 I1Cent=   200000004 NGrid=           0
         NMat0=    1 NMatS0=      1 NMatT0=    0 NMatD0=    1 NMtDS0=    0 NMtDT0=    0
 Petite list used in FoFCou.
 Harris En= -268.191372001538    
 JPrj=0 DoOrth=F DoCkMO=F.
 Leave Link  401 at Sat Aug 31 11:17:20 2019, MaxMem=   671088640 cpu:              55.8 elap:              27.9
 (Enter /shared/centos7/gaussian/g16/l502.exe)
 Keep R1 ints in memory in canonical form, NReq=399924305.
 FoFCou: FMM=F IPFlag=           0 FMFlag=           0 FMFlg1=           0
         NFxFlg=           0 DoJE=F BraDBF=F KetDBF=F FulRan=T
         wScrn=  0.000000 ICntrl=       600 IOpCl=  0 I1Cent=           0 NGrid=           0
         NMat0=    1 NMatS0=  27495 NMatT0=    0 NMatD0=    1 NMtDS0=    0 NMtDT0=    0
 Symmetry not used in FoFCou.
 Two-electron integral symmetry not used.
 Closed shell SCF:
 Using DIIS extrapolation, IDIIS=  1040.
 NGot=   671088640 LenX=   292939207 LenY=   292868541
 Requested convergence on RMS density matrix=1.00D-08 within 900 cycles.
 Requested convergence on MAX density matrix=1.00D-06.
 Requested convergence on             energy=1.00D-06.
 No special actions if energy rises.
 Integral accuracy reduced to 1.0D-05 until final iterations.

 Cycle   1  Pass 0  IDiag  1:
 E= -268.191651031802    
 DIIS: error= 1.50D-02 at cycle   1 NSaved=   1.
 NSaved= 1 IEnMin= 1 EnMin= -268.191651031802     IErMin= 1 ErrMin= 1.50D-02
 ErrMax= 1.50D-02  0.00D+00 EMaxC= 1.00D-01 BMatC= 1.66D-01 BMatP= 1.66D-01
 IDIUse=3 WtCom= 8.50D-01 WtEn= 1.50D-01
 Coeff-Com:  0.100D+01
 Coeff-En:   0.100D+01
 Coeff:      0.100D+01
 Gap=     0.364 Goal=   None    Shift=    0.000
 GapD=    0.364 DampG=1.000 DampE=0.500 DampFc=0.5000 IDamp=-1.
 Damping current iteration by 5.00D-01
 RMSDP=2.10D-03 MaxDP=7.15D-02              OVMax= 1.14D-01

 Cycle   2  Pass 0  IDiag  1:
 E= -268.253870532998     Delta-E=       -0.062219501197 Rises=F Damp=T
 DIIS: error= 5.28D-03 at cycle   2 NSaved=   2.
 NSaved= 2 IEnMin= 2 EnMin= -268.253870532998     IErMin= 2 ErrMin= 5.28D-03
 ErrMax= 5.28D-03  0.00D+00 EMaxC= 1.00D-01 BMatC= 1.64D-02 BMatP= 1.66D-01
 IDIUse=3 WtCom= 9.47D-01 WtEn= 5.28D-02
 Coeff-Com: -0.198D+00 0.120D+01
 Coeff-En:   0.000D+00 0.100D+01
 Coeff:     -0.187D+00 0.119D+01
 Gap=     0.350 Goal=   None    Shift=    0.000
 RMSDP=4.28D-04 MaxDP=9.20D-03 DE=-6.22D-02 OVMax= 4.87D-02

 Cycle   3  Pass 0  IDiag  1:
 E= -268.307394260009     Delta-E=       -0.053523727011 Rises=F Damp=F
 DIIS: error= 2.57D-03 at cycle   3 NSaved=   3.
 NSaved= 3 IEnMin= 3 EnMin= -268.307394260009     IErMin= 3 ErrMin= 2.57D-03
 ErrMax= 2.57D-03  0.00D+00 EMaxC= 1.00D-01 BMatC= 3.50D-03 BMatP= 1.64D-02
 IDIUse=3 WtCom= 9.74D-01 WtEn= 2.57D-02
 Coeff-Com: -0.123D+00 0.397D+00 0.726D+00
 Coeff-En:   0.000D+00 0.000D+00 0.100D+01
 Coeff:     -0.120D+00 0.387D+00 0.733D+00
 Gap=     0.347 Goal=   None    Shift=    0.000
 RMSDP=1.89D-04 MaxDP=5.24D-03 DE=-5.35D-02 OVMax= 1.25D-02

 Cycle   4  Pass 0  IDiag  1:
 E= -268.309128674499     Delta-E=       -0.001734414489 Rises=F Damp=F
 DIIS: error= 1.27D-03 at cycle   4 NSaved=   4.
 NSaved= 4 IEnMin= 4 EnMin= -268.309128674499     IErMin= 4 ErrMin= 1.27D-03
 ErrMax= 1.27D-03  0.00D+00 EMaxC= 1.00D-01 BMatC= 7.62D-04 BMatP= 3.50D-03
 IDIUse=3 WtCom= 9.87D-01 WtEn= 1.27D-02
 Coeff-Com: -0.383D-01 0.957D-01 0.366D+00 0.577D+00
 Coeff-En:   0.000D+00 0.000D+00 0.157D+00 0.843D+00
 Coeff:     -0.378D-01 0.945D-01 0.363D+00 0.580D+00
 Gap=     0.343 Goal=   None    Shift=    0.000
 RMSDP=6.47D-05 MaxDP=1.75D-03 DE=-1.73D-03 OVMax= 6.14D-03

 Cycle   5  Pass 0  IDiag  1:
 E= -268.309682343018     Delta-E=       -0.000553668520 Rises=F Damp=F
 DIIS: error= 1.98D-04 at cycle   5 NSaved=   5.
 NSaved= 5 IEnMin= 5 EnMin= -268.309682343018     IErMin= 5 ErrMin= 1.98D-04
 ErrMax= 1.98D-04  0.00D+00 EMaxC= 1.00D-01 BMatC= 1.96D-05 BMatP= 7.62D-04
 IDIUse=3 WtCom= 9.98D-01 WtEn= 1.98D-03
 Coeff-Com: -0.722D-02 0.139D-01 0.947D-01 0.221D+00 0.678D+00
 Coeff-En:   0.000D+00 0.000D+00 0.000D+00 0.000D+00 0.100D+01
 Coeff:     -0.720D-02 0.139D-01 0.945D-01 0.221D+00 0.678D+00
 Gap=     0.343 Goal=   None    Shift=    0.000
 RMSDP=1.36D-05 MaxDP=3.45D-04 DE=-5.54D-04 OVMax= 1.31D-03

 Cycle   6  Pass 0  IDiag  1:
 E= -268.309697582301     Delta-E=       -0.000015239283 Rises=F Damp=F
 DIIS: error= 4.08D-05 at cycle   6 NSaved=   6.
 NSaved= 6 IEnMin= 6 EnMin= -268.309697582301     IErMin= 6 ErrMin= 4.08D-05
 ErrMax= 4.08D-05  0.00D+00 EMaxC= 1.00D-01 BMatC= 9.02D-07 BMatP= 1.96D-05
 IDIUse=1 WtCom= 1.00D+00 WtEn= 0.00D+00
 Coeff-Com: -0.968D-03 0.112D-02 0.191D-01 0.609D-01 0.231D+00 0.689D+00
 Coeff:     -0.968D-03 0.112D-02 0.191D-01 0.609D-01 0.231D+00 0.689D+00
 Gap=     0.343 Goal=   None    Shift=    0.000
 RMSDP=4.02D-06 MaxDP=1.22D-04 DE=-1.52D-05 OVMax= 5.63D-04

 Initial convergence to 1.0D-05 achieved.  Increase integral accuracy.
 Cycle   7  Pass 1  IDiag  1:
 E= -268.309727863649     Delta-E=       -0.000030281348 Rises=F Damp=F
 DIIS: error= 2.72D-05 at cycle   1 NSaved=   1.
 NSaved= 1 IEnMin= 1 EnMin= -268.309727863649     IErMin= 1 ErrMin= 2.72D-05
 ErrMax= 2.72D-05  0.00D+00 EMaxC= 1.00D-01 BMatC= 4.43D-07 BMatP= 4.43D-07
 IDIUse=1 WtCom= 1.00D+00 WtEn= 0.00D+00
 Coeff-Com:  0.100D+01
 Coeff:      0.100D+01
 Gap=     0.343 Goal=   None    Shift=    0.000
 RMSDP=4.02D-06 MaxDP=1.22D-04 DE=-3.03D-05 OVMax= 4.63D-04

 Cycle   8  Pass 1  IDiag  1:
 E= -268.309727809026     Delta-E=        0.000000054623 Rises=F Damp=F
 DIIS: error= 2.91D-05 at cycle   2 NSaved=   2.
 NSaved= 2 IEnMin= 1 EnMin= -268.309727863649     IErMin= 1 ErrMin= 2.72D-05
 ErrMax= 2.91D-05  0.00D+00 EMaxC= 1.00D-01 BMatC= 4.88D-07 BMatP= 4.43D-07
 IDIUse=1 WtCom= 1.00D+00 WtEn= 0.00D+00
 Coeff-Com:  0.514D+00 0.486D+00
 Coeff:      0.514D+00 0.486D+00
 Gap=     0.343 Goal=   None    Shift=    0.000
 RMSDP=2.34D-06 MaxDP=7.09D-05 DE= 5.46D-08 OVMax= 3.26D-04

 Cycle   9  Pass 1  IDiag  1:
 E= -268.309728212429     Delta-E=       -0.000000403403 Rises=F Damp=F
 DIIS: error= 5.74D-06 at cycle   3 NSaved=   3.
 NSaved= 3 IEnMin= 3 EnMin= -268.309728212429     IErMin= 3 ErrMin= 5.74D-06
 ErrMax= 5.74D-06  0.00D+00 EMaxC= 1.00D-01 BMatC= 1.88D-08 BMatP= 4.43D-07
 IDIUse=1 WtCom= 1.00D+00 WtEn= 0.00D+00
 Coeff-Com: -0.257D-01 0.146D+00 0.880D+00
 Coeff:     -0.257D-01 0.146D+00 0.880D+00
 Gap=     0.343 Goal=   None    Shift=    0.000
 RMSDP=5.11D-07 MaxDP=1.30D-05 DE=-4.03D-07 OVMax= 4.23D-05

 Cycle  10  Pass 1  IDiag  1:
 E= -268.309728228008     Delta-E=       -0.000000015580 Rises=F Damp=F
 DIIS: error= 1.48D-06 at cycle   4 NSaved=   4.
 NSaved= 4 IEnMin= 4 EnMin= -268.309728228008     IErMin= 4 ErrMin= 1.48D-06
 ErrMax= 1.48D-06  0.00D+00 EMaxC= 1.00D-01 BMatC= 1.07D-09 BMatP= 1.88D-08
 IDIUse=1 WtCom= 1.00D+00 WtEn= 0.00D+00
 Coeff-Com: -0.211D-01 0.550D-01 0.375D+00 0.591D+00
 Coeff:     -0.211D-01 0.550D-01 0.375D+00 0.591D+00
 Gap=     0.343 Goal=   None    Shift=    0.000
 RMSDP=9.37D-08 MaxDP=3.26D-06 DE=-1.56D-08 OVMax= 9.12D-06

 Cycle  11  Pass 1  IDiag  1:
 E= -268.309728228872     Delta-E=       -0.000000000864 Rises=F Damp=F
 DIIS: error= 3.63D-07 at cycle   5 NSaved=   5.
 NSaved= 5 IEnMin= 5 EnMin= -268.309728228872     IErMin= 5 ErrMin= 3.63D-07
 ErrMax= 3.63D-07  0.00D+00 EMaxC= 1.00D-01 BMatC= 8.40D-11 BMatP= 1.07D-09
 IDIUse=1 WtCom= 1.00D+00 WtEn= 0.00D+00
 Coeff-Com: -0.257D-03-0.136D-01-0.764D-01 0.141D+00 0.950D+00
 Coeff:     -0.257D-03-0.136D-01-0.764D-01 0.141D+00 0.950D+00
 Gap=     0.343 Goal=   None    Shift=    0.000
 RMSDP=5.69D-08 MaxDP=1.11D-06 DE=-8.64D-10 OVMax= 5.74D-06

 Cycle  12  Pass 1  IDiag  1:
 E= -268.309728228986     Delta-E=       -0.000000000114 Rises=F Damp=F
 DIIS: error= 1.39D-07 at cycle   6 NSaved=   6.
 NSaved= 6 IEnMin= 6 EnMin= -268.309728228986     IErMin= 6 ErrMin= 1.39D-07
 ErrMax= 1.39D-07  0.00D+00 EMaxC= 1.00D-01 BMatC= 8.32D-12 BMatP= 8.40D-11
 IDIUse=1 WtCom= 1.00D+00 WtEn= 0.00D+00
 Coeff-Com:  0.153D-02-0.864D-02-0.553D-01 0.221D-02 0.330D+00 0.731D+00
 Coeff:      0.153D-02-0.864D-02-0.553D-01 0.221D-02 0.330D+00 0.731D+00
 Gap=     0.343 Goal=   None    Shift=    0.000
 RMSDP=1.53D-08 MaxDP=3.64D-07 DE=-1.14D-10 OVMax= 1.52D-06

 Cycle  13  Pass 1  IDiag  1:
 E= -268.309728229006     Delta-E=       -0.000000000021 Rises=F Damp=F
 DIIS: error= 4.28D-08 at cycle   7 NSaved=   7.
 NSaved= 7 IEnMin= 7 EnMin= -268.309728229006     IErMin= 7 ErrMin= 4.28D-08
 ErrMax= 4.28D-08  0.00D+00 EMaxC= 1.00D-01 BMatC= 1.08D-12 BMatP= 8.32D-12
 IDIUse=1 WtCom= 1.00D+00 WtEn= 0.00D+00
 Coeff-Com:  0.619D-03-0.203D-02-0.147D-01-0.152D-01 0.331D-01 0.285D+00
 Coeff-Com:  0.713D+00
 Coeff:      0.619D-03-0.203D-02-0.147D-01-0.152D-01 0.331D-01 0.285D+00
 Coeff:      0.713D+00
 Gap=     0.343 Goal=   None    Shift=    0.000
 RMSDP=4.84D-09 MaxDP=1.59D-07 DE=-2.06D-11 OVMax= 4.65D-07

 SCF Done:  E(RM062X) =  -268.309728229     A.U. after   13 cycles
            NFock= 13  Conv=0.48D-08     -V/T= 2.0060
 KE= 2.667077109447D+02 PE=-9.896252036304D+02 EE= 2.738640483587D+02
 Leave Link  502 at Sat Aug 31 11:21:53 2019, MaxMem=   671088640 cpu:             538.5 elap:             272.8
 (Enter /shared/centos7/gaussian/g16/l801.exe)
 DoSCS=F DFT=T ScalE2(SS,OS)=  1.000000  1.000000
 Range of M.O.s used for correlation:     1   234
 NBasis=   234 NAE=    20 NBE=    20 NFC=     0 NFV=     0
 NROrb=    234 NOA=    20 NOB=    20 NVA=   214 NVB=   214

 **** Warning!!: The largest alpha MO coefficient is  0.11495378D+02

 Leave Link  801 at Sat Aug 31 11:21:54 2019, MaxMem=   671088640 cpu:               1.5 elap:               0.8
 (Enter /shared/centos7/gaussian/g16/l1101.exe)
 Using compressed storage, NAtomX=    11.
 Will process     12 centers per pass.
 Leave Link 1101 at Sat Aug 31 11:22:15 2019, MaxMem=   671088640 cpu:              42.1 elap:              21.1
 (Enter /shared/centos7/gaussian/g16/l1102.exe)
 Symmetrizing basis deriv contribution to polar:
 IMax=3 JMax=2 DiffMx= 0.00D+00
 Leave Link 1102 at Sat Aug 31 11:22:17 2019, MaxMem=   671088640 cpu:               4.7 elap:               2.4
 (Enter /shared/centos7/gaussian/g16/l1110.exe)
 Forming Gx(P) for the SCF density, NAtomX=    11.
 Integral derivatives from FoFJK, PRISM(SPDF).
 Do as many integral derivatives as possible in FoFJK.
 G2DrvN: MDV=     671087712.
 G2DrvN: will do    12 centers at a time, making    1 passes.
 Calling FoFCou, ICntrl=  3107 FMM=F I1Cent=   0 AccDes= 0.00D+00.
 FoFJK:  IHMeth= 1 ICntrl=    3107 DoSepK=F KAlg= 0 I1Cent=           0 FoldK=F
 IRaf=         0 NMat=       1 IRICut=       1 DoRegI=T DoRafI=F ISym2E= 0 IDoP0=0 IntGTp=1.
 FoFCou: FMM=F IPFlag=           0 FMFlag=      100000 FMFlg1=           0
         NFxFlg=           0 DoJE=F BraDBF=F KetDBF=F FulRan=T
         wScrn=  0.000000 ICntrl=      3107 IOpCl=  0 I1Cent=           0 NGrid=           0
         NMat0=    1 NMatS0=      1 NMatT0=    0 NMatD0=    1 NMtDS0=    0 NMtDT0=    0
 Symmetry not used in FoFCou.
 End of G2Drv F.D. properties file   721 does not exist.
 End of G2Drv F.D. properties file   722 does not exist.
 End of G2Drv F.D. properties file   788 does not exist.
 Leave Link 1110 at Sat Aug 31 11:27:56 2019, MaxMem=   671088640 cpu:             676.5 elap:             338.3
 (Enter /shared/centos7/gaussian/g16/l1002.exe)
 Minotr:  Closed shell wavefunction.
          IDoAtm=11111111111
          Direct CPHF calculation.
          Differentiating once with respect to nuclear coordinates.
          Requested convergence is 1.0D-08 RMS, and 1.0D-07 maximum.
          Secondary convergence is 1.0D-12 RMS, and 1.0D-12 maximum.
          NewPWx=T KeepS1=F KeepF1=F KeepIn=T MapXYZ=F SortEE=F KeepMc=T.
         3265 words used for storage of precomputed grid.
 Keep R1 ints in memory in canonical form, NReq=399865264.
 FoFCou: FMM=F IPFlag=           0 FMFlag=           0 FMFlg1=           0
         NFxFlg=           0 DoJE=F BraDBF=F KetDBF=F FulRan=T
         wScrn=  0.000000 ICntrl=       600 IOpCl=  0 I1Cent=           0 NGrid=           0
         NMat0=    1 NMatS0=  27495 NMatT0=    0 NMatD0=    1 NMtDS0=    0 NMtDT0=    0
 Symmetry not used in FoFCou.
 Two-electron integral symmetry not used.
          MDV=     671088640 using IRadAn=       1.
          Solving linear equations simultaneously, MaxMat=       0.
          There are    36 degrees of freedom in the 1st order CPHF.  IDoFFX=6 NUNeed=     0.
     30 vectors produced by pass  0 Test12= 1.19D-14 2.78D-09 XBig12= 5.74D-02 6.33D-02.
 AX will form    30 AO Fock derivatives at one time.
     30 vectors produced by pass  1 Test12= 1.19D-14 2.78D-09 XBig12= 1.18D-02 2.35D-02.
     30 vectors produced by pass  2 Test12= 1.19D-14 2.78D-09 XBig12= 4.03D-04 4.38D-03.
     30 vectors produced by pass  3 Test12= 1.19D-14 2.78D-09 XBig12= 4.70D-06 2.72D-04.
     30 vectors produced by pass  4 Test12= 1.19D-14 2.78D-09 XBig12= 3.41D-08 2.67D-05.
     30 vectors produced by pass  5 Test12= 1.19D-14 2.78D-09 XBig12= 1.89D-10 1.48D-06.
     18 vectors produced by pass  6 Test12= 1.19D-14 2.78D-09 XBig12= 9.75D-13 1.38D-07.
      3 vectors produced by pass  7 Test12= 1.19D-14 2.78D-09 XBig12= 3.63D-15 8.53D-09.
 InvSVY:  IOpt=1 It=  1 EMax= 1.33D-15
 Solved reduced A of dimension   201 with    30 vectors.
 End of Minotr F.D. properties file   721 does not exist.
 End of Minotr F.D. properties file   722 does not exist.
 End of Minotr F.D. properties file   788 does not exist.
 Leave Link 1002 at Sat Aug 31 11:35:58 2019, MaxMem=   671088640 cpu:             965.1 elap:             482.6
 (Enter /shared/centos7/gaussian/g16/l601.exe)
 Copying SCF densities to generalized density rwf, IOpCl= 0 IROHF=0.

 **********************************************************************

            Population analysis using the SCF density.

 **********************************************************************

 Orbital symmetries:
       Occupied  (A) (A) (A) (A) (A) (A) (A) (A) (A) (A) (A) (A)
                 (A) (A) (A) (A) (A) (A) (A) (A)
       Virtual   (A) (A) (A) (A) (A) (A) (A) (A) (A) (A) (A) (A)
                 (A) (A) (A) (A) (A) (A) (A) (A) (A) (A) (A) (A)
                 (A) (A) (A) (A) (A) (A) (A) (A) (A) (A) (A) (A)
                 (A) (A) (A) (A) (A) (A) (A) (A) (A) (A) (A) (A)
                 (A) (A) (A) (A) (A) (A) (A) (A) (A) (A) (A) (A)
                 (A) (A) (A) (A) (A) (A) (A) (A) (A) (A) (A) (A)
                 (A) (A) (A) (A) (A) (A) (A) (A) (A) (A) (A) (A)
                 (A) (A) (A) (A) (A) (A) (A) (A) (A) (A) (A) (A)
                 (A) (A) (A) (A) (A) (A) (A) (A) (A) (A) (A) (A)
                 (A) (A) (A) (A) (A) (A) (A) (A) (A) (A) (A) (A)
                 (A) (A) (A) (A) (A) (A) (A) (A) (A) (A) (A) (A)
                 (A) (A) (A) (A) (A) (A) (A) (A) (A) (A) (A) (A)
                 (A) (A) (A) (A) (A) (A) (A) (A) (A) (A) (A) (A)
                 (A) (A) (A) (A) (A) (A) (A) (A) (A) (A) (A) (A)
                 (A) (A) (A) (A) (A) (A) (A) (A) (A) (A) (A) (A)
                 (A) (A) (A) (A) (A) (A) (A) (A) (A) (A) (A) (A)
                 (A) (A) (A) (A) (A) (A) (A) (A) (A) (A) (A) (A)
                 (A) (A) (A) (A) (A) (A) (A) (A) (A) (A)
 The electronic state is 1-A.
 Alpha  occ. eigenvalues --  -19.65644 -19.65103 -10.60251 -10.59111 -10.57893
 Alpha  occ. eigenvalues --   -1.18888  -1.16040  -0.86006  -0.78532  -0.68819
 Alpha  occ. eigenvalues --   -0.60789  -0.58603  -0.53933  -0.52385  -0.49045
 Alpha  occ. eigenvalues --   -0.46966  -0.46050  -0.42171  -0.36521  -0.28880
 Alpha virt. eigenvalues --    0.05454   0.07365   0.09419   0.11213   0.12882
 Alpha virt. eigenvalues --    0.13456   0.13747   0.17751   0.20939   0.26643
 Alpha virt. eigenvalues --    0.27814   0.30374   0.32788   0.35051   0.35609
 Alpha virt. eigenvalues --    0.37680   0.39442   0.40843   0.42618   0.44802
 Alpha virt. eigenvalues --    0.46313   0.46616   0.48108   0.50690   0.51510
 Alpha virt. eigenvalues --    0.54399   0.57098   0.58849   0.60344   0.63322
 Alpha virt. eigenvalues --    0.65374   0.69122   0.70731   0.73489   0.78050
 Alpha virt. eigenvalues --    0.80072   0.80473   0.83218   0.85220   0.85965
 Alpha virt. eigenvalues --    0.88104   0.93634   0.96654   0.99302   1.03705
 Alpha virt. eigenvalues --    1.05855   1.06460   1.09387   1.10485   1.13221
 Alpha virt. eigenvalues --    1.13505   1.15581   1.18619   1.22943   1.26619
 Alpha virt. eigenvalues --    1.27862   1.28648   1.30361   1.33335   1.34285
 Alpha virt. eigenvalues --    1.36513   1.38537   1.41077   1.44875   1.50630
 Alpha virt. eigenvalues --    1.52656   1.54056   1.55372   1.64528   1.83235
 Alpha virt. eigenvalues --    1.90629   1.93378   1.95959   1.99082   2.04393
 Alpha virt. eigenvalues --    2.05384   2.09681   2.11260   2.15221   2.16134
 Alpha virt. eigenvalues --    2.22059   2.22928   2.27561   2.32037   2.35791
 Alpha virt. eigenvalues --    2.37418   2.41768   2.49852   2.53019   2.57081
 Alpha virt. eigenvalues --    2.62075   2.66247   2.70670   2.74948   2.76701
 Alpha virt. eigenvalues --    2.77354   2.80463   2.81019   2.84723   2.86044
 Alpha virt. eigenvalues --    2.90287   2.90624   2.94079   2.96763   2.98483
 Alpha virt. eigenvalues --    3.01478   3.03007   3.06808   3.07565   3.08641
 Alpha virt. eigenvalues --    3.10138   3.14636   3.16041   3.18459   3.20949
 Alpha virt. eigenvalues --    3.23617   3.25931   3.27403   3.29498   3.30636
 Alpha virt. eigenvalues --    3.33601   3.35062   3.37089   3.39812   3.42664
 Alpha virt. eigenvalues --    3.44422   3.46237   3.49422   3.51002   3.57370
 Alpha virt. eigenvalues --    3.62826   3.63776   3.66829   3.68131   3.70621
 Alpha virt. eigenvalues --    3.73215   3.75051   3.76781   3.78784   3.80222
 Alpha virt. eigenvalues --    3.83098   3.88497   3.90497   3.92894   3.95522
 Alpha virt. eigenvalues --    3.98836   3.99609   4.02806   4.07225   4.07611
 Alpha virt. eigenvalues --    4.10477   4.11286   4.20775   4.22775   4.29766
 Alpha virt. eigenvalues --    4.32480   4.38102   4.40627   4.42069   4.50026
 Alpha virt. eigenvalues --    4.50613   4.57112   4.63186   4.63983   4.70541
 Alpha virt. eigenvalues --    4.73034   4.75911   4.80603   4.81934   4.86877
 Alpha virt. eigenvalues --    4.88563   4.96838   4.98504   5.01535   5.03089
 Alpha virt. eigenvalues --    5.05674   5.10363   5.14113   5.16425   5.29863
 Alpha virt. eigenvalues --    5.36653   5.44616   5.49269   5.51280   5.58399
 Alpha virt. eigenvalues --    5.69700   5.71725   5.74667   5.80704   5.84747
 Alpha virt. eigenvalues --    5.95873   6.14741   6.20031   6.30310   6.33407
 Alpha virt. eigenvalues --    6.33843   6.50617   6.59747   6.71947   6.72435
 Alpha virt. eigenvalues --    6.73136   6.78066   6.82096   6.96945   7.04348
 Alpha virt. eigenvalues --    7.13371   7.19796   7.26104   7.31116   9.96533
 Alpha virt. eigenvalues --   10.73535  11.87437  12.86439  14.02253
          Condensed to atoms (all electrons):
               1          2          3          4          5          6
     1  O    7.870437   0.000940   0.302442   0.338072  -0.076865  -0.027997
     2  O    0.000940   7.786317  -0.010221  -0.075118   0.342127   0.000099
     3  C    0.302442  -0.010221   4.743641  -0.063640  -0.012619   0.398142
     4  C    0.338072  -0.075118  -0.063640   5.027315   0.508979   0.006457
     5  C   -0.076865   0.342127  -0.012619   0.508979   4.963366  -0.000082
     6  H   -0.027997   0.000099   0.398142   0.006457  -0.000082   0.579363
     7  H   -0.046260   0.000100   0.401553   0.014408  -0.006877  -0.025515
     8  H   -0.051481   0.007332   0.374867  -0.053691   0.031217  -0.044416
     9  H   -0.047613   0.005009   0.003975   0.420483  -0.083396  -0.000394
    10  H    0.003878  -0.033291  -0.000529  -0.054419   0.402112   0.000059
    11  H    0.015439   0.334022   0.001407  -0.001439  -0.061200   0.000618
               7          8          9         10         11
     1  O   -0.046260  -0.051481  -0.047613   0.003878   0.015439
     2  O    0.000100   0.007332   0.005009  -0.033291   0.334022
     3  C    0.401553   0.374867   0.003975  -0.000529   0.001407
     4  C    0.014408  -0.053691   0.420483  -0.054419  -0.001439
     5  C   -0.006877   0.031217  -0.083396   0.402112  -0.061200
     6  H   -0.025515  -0.044416  -0.000394   0.000059   0.000618
     7  H    0.632739  -0.077603   0.005740  -0.000009   0.003592
     8  H   -0.077603   0.769553  -0.003844  -0.000965  -0.025245
     9  H    0.005740  -0.003844   0.572707  -0.004156   0.001536
    10  H   -0.000009  -0.000965  -0.004156   0.519589   0.006727
    11  H    0.003592  -0.025245   0.001536   0.006727   0.450081
 Mulliken charges:
               1
     1  O   -0.280992
     2  O   -0.357315
     3  C   -0.139018
     4  C   -0.067407
     5  C   -0.006762
     6  H    0.113664
     7  H    0.098133
     8  H    0.074277
     9  H    0.129953
    10  H    0.161004
    11  H    0.274463
 Sum of Mulliken charges =  -0.00000
 Mulliken charges with hydrogens summed into heavy atoms:
               1
     1  O   -0.280992
     2  O   -0.082852
     3  C    0.147056
     4  C    0.062546
     5  C    0.154242
 APT charges:
               1
     1  O   -0.191749
     2  O   -0.315845
     3  C   -0.867560
     4  C   -0.464267
     5  C   -0.361246
     6  H    0.459604
     7  H    0.326555
     8  H    0.190252
     9  H    0.423910
    10  H    0.493582
    11  H    0.306764
 Sum of APT charges =  -0.00000
 APT charges with hydrogens summed into heavy atoms:
               1
     1  O   -0.191749
     2  O   -0.009082
     3  C    0.108851
     4  C   -0.040357
     5  C    0.132336
 Electronic spatial extent (au):  <R**2>=            414.0167
 Charge=             -0.0000 electrons
 Dipole moment (field-independent basis, Debye):
    X=              0.9099    Y=             -0.3149    Z=              0.9365  Tot=              1.3432
 Quadrupole moment (field-independent basis, Debye-Ang):
   XX=            -31.0329   YY=            -28.5829   ZZ=            -31.9130
   XY=             -4.4408   XZ=              0.3557   YZ=              1.9973
 Traceless Quadrupole moment (field-independent basis, Debye-Ang):
   XX=             -0.5233   YY=              1.9267   ZZ=             -1.4034
   XY=             -4.4408   XZ=              0.3557   YZ=              1.9973
 Octapole moment (field-independent basis, Debye-Ang**2):
  XXX=              2.4977  YYY=             -0.7217  ZZZ=             -2.5455  XYY=              1.8932
  XXY=              1.8711  XXZ=              3.5637  XZZ=             -0.0317  YZZ=             -2.4284
  YYZ=             -1.0368  XYZ=             -0.2590
 Hexadecapole moment (field-independent basis, Debye-Ang**3):
 XXXX=           -303.3392 YYYY=           -144.0141 ZZZZ=            -56.5829 XXXY=            -13.3040
 XXXZ=             -8.2029 YYYX=              5.2025 YYYZ=              5.3005 ZZZX=              0.6300
 ZZZY=              0.6324 XXYY=            -82.3501 XXZZ=            -61.3625 YYZZ=            -35.7777
 XXYZ=              3.7705 YYXZ=             -1.2782 ZZXY=              1.8182
 N-N= 1.807437160980D+02 E-N=-9.896251947522D+02  KE= 2.667077109447D+02
  Exact polarizability:   0.000   0.000   0.000   0.000   0.000   0.000
 Approx polarizability:  61.581   4.143  52.744  -2.655   1.530  41.566
 No NMR shielding tensors so no spin-rotation constants.
 Leave Link  601 at Sat Aug 31 11:36:23 2019, MaxMem=   671088640 cpu:              50.1 elap:              25.1
 (Enter /shared/centos7/gaussian/g16/l701.exe)
 SCFChk:  SCF convergence  4.84D-09 required  1.00D-08
 ... and contract with generalized density number  0.
 Compute integral second derivatives.
 Entering OneElI...
 Calculate overlap and kinetic energy integrals
    NBasis = 265  MinDer = 2  MaxDer = 2
 Requested accuracy = 0.1000D-12
 PrmmSu-InSpLW:  IPartL=    0 NPrtUS=   20 NPrtUL=    1 DoSpLW=F IThBeg=    0 IThEnd=   19 NThAct=   20.
 PrsmSu:  NPrtUS=  20 ThrOK=T IAlg=1 NPAlg=1 LenDen=           0 ISkipM=0 DoSpLW=F IThBeg=    0 IThEnd=   19.
 Prism:   IPart=     0 DynPar=F LinDyn=F Incr=           1.
 PRISM was handed    33437813 working-precision words and  3740 shell-pairs
 PRISM was handed    33437813 working-precision words and  3740 shell-pairs
 PRISM was handed    33437813 working-precision words and  3740 shell-pairs
 PRISM was handed    33437813 working-precision words and  3740 shell-pairs
 PRISM was handed    33437813 working-precision words and  3740 shell-pairs
 PRISM was handed    33437813 working-precision words and  3740 shell-pairs
 PRISM was handed    33437813 working-precision words and  3740 shell-pairs
 IPart=  0 NShTot=         226 NBatch=          67 AvBLen=         3.4
 IPart=  1 NShTot=         222 NBatch=          63 AvBLen=         3.5
 PRISM was handed    33437813 working-precision words and  3740 shell-pairs
 PRISM was handed    33437813 working-precision words and  3740 shell-pairs
 PRISM was handed    33437813 working-precision words and  3740 shell-pairs
 PRISM was handed    33437813 working-precision words and  3740 shell-pairs
 PRISM was handed    33437813 working-precision words and  3740 shell-pairs
 IPart=  6 NShTot=         193 NBatch=          38 AvBLen=         5.1
 IPart=  9 NShTot=         185 NBatch=          30 AvBLen=         6.2
 PRISM was handed    33437813 working-precision words and  3740 shell-pairs
 PRISM was handed    33437813 working-precision words and  3740 shell-pairs
 PRISM was handed    33437813 working-precision words and  3740 shell-pairs
 PRISM was handed    33437813 working-precision words and  3740 shell-pairs
 PRISM was handed    33437813 working-precision words and  3740 shell-pairs
 IPart= 14 NShTot=         174 NBatch=          28 AvBLen=         6.2
 IPart=  7 NShTot=         191 NBatch=          36 AvBLen=         5.3
 PRISM was handed    33437813 working-precision words and  3740 shell-pairs
 PRISM was handed    33437813 working-precision words and  3740 shell-pairs
 IPart= 18 NShTot=         167 NBatch=          25 AvBLen=         6.7
 IPart= 17 NShTot=         167 NBatch=          25 AvBLen=         6.7
 PRISM was handed    33437813 working-precision words and  3740 shell-pairs
 IPart= 13 NShTot=         174 NBatch=          28 AvBLen=         6.2
 IPart=  3 NShTot=         208 NBatch=          49 AvBLen=         4.2
 IPart= 11 NShTot=         177 NBatch=          28 AvBLen=         6.3
 IPart= 10 NShTot=         179 NBatch=          29 AvBLen=         6.2
 IPart= 15 NShTot=         170 NBatch=          27 AvBLen=         6.3
 IPart= 12 NShTot=         175 NBatch=          28 AvBLen=         6.3
 IPart= 19 NShTot=         165 NBatch=          25 AvBLen=         6.6
 IPart=  2 NShTot=         212 NBatch=          53 AvBLen=         4.0
 IPart= 16 NShTot=         168 NBatch=          26 AvBLen=         6.5
 IPart=  8 NShTot=         185 NBatch=          30 AvBLen=         6.2
 IPart=  4 NShTot=         206 NBatch=          47 AvBLen=         4.4
 IPart=  5 NShTot=         196 NBatch=          40 AvBLen=         4.9
 PrSmSu:  NxtVal=             21.
 Entering OneElI...
 Calculate potential energy integrals
    NBasis = 265  MinDer = 2  MaxDer = 2
 Requested accuracy = 0.1000D-12
 PrmmSu-InSpLW:  IPartL=    0 NPrtUS=   20 NPrtUL=    1 DoSpLW=F IThBeg=    0 IThEnd=   19 NThAct=   20.
 PrsmSu:  NPrtUS=  20 ThrOK=T IAlg=1 NPAlg=1 LenDen=           0 ISkipM=0 DoSpLW=F IThBeg=    0 IThEnd=   19.
 Prism:   IPart=     0 DynPar=F LinDyn=F Incr=          19.
 PRISM was handed    33453804 working-precision words and  3617 shell-pairs
 PRISM was handed    33453804 working-precision words and  3617 shell-pairs
 PRISM was handed    33453804 working-precision words and  3617 shell-pairs
 PRISM was handed    33453804 working-precision words and  3617 shell-pairs
 PRISM was handed    33453804 working-precision words and  3617 shell-pairs
 PRISM was handed    33453804 working-precision words and  3617 shell-pairs
 PRISM was handed    33453804 working-precision words and  3617 shell-pairs
 PRISM was handed    33453804 working-precision words and  3617 shell-pairs
 PRISM was handed    33453804 working-precision words and  3617 shell-pairs
 PRISM was handed    33453804 working-precision words and  3617 shell-pairs
 PRISM was handed    33453804 working-precision words and  3617 shell-pairs
 PRISM was handed    33453804 working-precision words and  3617 shell-pairs
 PRISM was handed    33453804 working-precision words and  3617 shell-pairs
 PRISM was handed    33453804 working-precision words and  3617 shell-pairs
 PRISM was handed    33453804 working-precision words and  3617 shell-pairs
 PRISM was handed    33453804 working-precision words and  3617 shell-pairs
 PRISM was handed    33453804 working-precision words and  3617 shell-pairs
 PRISM was handed    33453804 working-precision words and  3617 shell-pairs
 PRISM was handed    33453804 working-precision words and  3617 shell-pairs
 PRISM was handed    33453804 working-precision words and  3617 shell-pairs
 IPart=  0 NShTot=        2475 NBatch=         225 AvBLen=        11.0
 IPart=  6 NShTot=        2013 NBatch=         183 AvBLen=        11.0
 IPart=  1 NShTot=        2387 NBatch=         217 AvBLen=        11.0
 IPart=  3 NShTot=        2211 NBatch=         201 AvBLen=        11.0
 IPart=  7 NShTot=        1958 NBatch=         178 AvBLen=        11.0
 IPart= 18 NShTot=        1793 NBatch=         163 AvBLen=        11.0
 IPart= 19 NShTot=        1782 NBatch=         162 AvBLen=        11.0
 IPart= 16 NShTot=        1826 NBatch=         166 AvBLen=        11.0
 IPart=  8 NShTot=        1947 NBatch=         177 AvBLen=        11.0
 IPart=  2 NShTot=        2288 NBatch=         208 AvBLen=        11.0
 IPart= 17 NShTot=        1815 NBatch=         165 AvBLen=        11.0
 IPart=  4 NShTot=        2156 NBatch=         196 AvBLen=        11.0
 IPart=  5 NShTot=        2046 NBatch=         186 AvBLen=        11.0
 IPart= 14 NShTot=        1848 NBatch=         168 AvBLen=        11.0
 IPart= 13 NShTot=        1859 NBatch=         169 AvBLen=        11.0
 IPart= 12 NShTot=        1859 NBatch=         169 AvBLen=        11.0
 IPart=  9 NShTot=        1936 NBatch=         176 AvBLen=        11.0
 IPart= 10 NShTot=        1892 NBatch=         172 AvBLen=        11.0
 IPart= 11 NShTot=        1859 NBatch=         169 AvBLen=        11.0
 IPart= 15 NShTot=        1837 NBatch=         167 AvBLen=        11.0
 PrSmSu:  NxtVal=            381.
 Polarizability after L701:
                1             2             3 
      1  0.000000D+00
      2  0.000000D+00  0.000000D+00
      3  0.000000D+00  0.000000D+00  0.000000D+00
 Dipole Derivatives after L701:
                 1             2             3             4             5 
      1  -0.179316D+00  0.615511D-01 -0.946800D-01  0.513665D-01  0.256914D+00
      2   0.131886D+00 -0.243951D+00 -0.533875D-01  0.657191D+00 -0.468490D+00
      3  -0.143094D+00 -0.592277D-02 -0.151981D+00  0.273317D+00 -0.150058D+00
                 6             7             8             9            10 
      1  -0.195250D-01 -0.100519D+01  0.332060D+00 -0.224602D+00 -0.481928D+00
      2  -0.219620D+00  0.610763D-01 -0.803435D+00  0.105363D-01  0.499009D-01
      3  -0.530412D+00 -0.829270D-01  0.603495D-02 -0.794054D+00  0.217884D+00
                11            12            13            14            15 
      1  -0.183297D+00  0.223755D+00 -0.636690D+00  0.139988D+00  0.245828D+00
      2  -0.736719D+00 -0.365059D+00 -0.764874D-01 -0.505155D+00  0.134778D-01
      3  -0.309962D+00 -0.174153D+00  0.168984D+00 -0.416099D-01  0.581072D-01
                16            17            18            19            20 
      1   0.893552D+00 -0.439492D+00 -0.484365D+00  0.276769D+00  0.190785D+00
      2  -0.331429D+00  0.306924D+00  0.180270D+00 -0.458960D-02  0.140788D+00
      3  -0.102610D+00  0.189146D-01  0.178336D+00  0.162134D+00  0.147347D+00
                21            22            23            24            25 
      1   0.614342D+00  0.114196D-01 -0.126631D+00  0.821471D-01  0.174954D+00
      2  -0.639827D-01  0.302982D+00  0.385132D+00 -0.256235D-01  0.705452D-01
      3   0.562108D+00 -0.164036D-01 -0.723898D-01  0.174204D+00 -0.106831D-02
                26            27            28            29            30 
      1   0.275537D-01 -0.831703D-02  0.924944D+00 -0.392607D+00 -0.393773D+00
      2   0.100757D+01  0.181879D+00 -0.287402D+00  0.340012D+00  0.170919D+00
      3   0.157726D+00  0.892046D-01 -0.225888D+00  0.135670D+00  0.215791D+00
                31            32            33 
      1  -0.298811D-01  0.133175D+00  0.591893D-01
      2  -0.573672D+00  0.577322D+00  0.170590D+00
      3  -0.250329D+00  0.114250D+00  0.372850D+00
 Hessian after L701:
                1             2             3             4             5 
      1  0.661027D+01
      2  0.424967D+01  0.923882D+01
      3  0.156162D+01  0.172705D+01  0.122045D+02
      4  0.604448D+00  0.586861D+00 -0.180276D+00  0.822765D+01
      5  0.506320D+00 -0.133482D+00 -0.771995D-01 -0.426558D+00  0.501652D+01
      6 -0.218137D+00 -0.112609D+00 -0.408661D+00  0.134010D+01 -0.279407D+01
      7 -0.625534D+01 -0.252108D+01  0.141220D+01  0.451794D+00  0.264645D-01
      8 -0.233087D+01 -0.252958D+01 -0.342172D+01  0.167117D+00 -0.248279D+00
      9  0.130770D+01 -0.334723D+01 -0.491843D+01  0.113788D+00 -0.601999D-02
     10 -0.213206D+01 -0.339210D+01 -0.282990D+01  0.279866D+00  0.263409D+00
     11 -0.362135D+01 -0.656443D+01  0.120892D+01  0.174937D+00 -0.833021D-01
     12 -0.268801D+01  0.112673D+01 -0.688530D+01  0.188611D+00 -0.103349D+00
     13  0.610352D+00  0.373647D+00  0.207898D+00 -0.794629D+01  0.105491D+01
     14  0.471806D+00 -0.113997D+00 -0.148387D+00  0.135743D+01  0.291204D+00
     15  0.142619D+00 -0.938458D-01 -0.314918D-02  0.196232D+00  0.220389D+01
     16  0.155664D+00 -0.359375D-01 -0.827300D-01  0.762970D-01 -0.392835D-02
     17 -0.250798D-01 -0.702076D-01  0.894993D-01 -0.229318D-01 -0.165576D-01
     18 -0.122123D+00  0.134967D+00 -0.479769D-02 -0.169111D-01  0.383630D-04
     19  0.100093D+00  0.134898D+00  0.102403D-01  0.506531D-01  0.141692D-01
     20  0.104069D+00 -0.789340D-01  0.260565D+00  0.149447D-01 -0.184519D-01
     21  0.353230D-01  0.257007D+00  0.195718D+00  0.678995D-01  0.996042D-02
     22  0.294368D+00  0.302526D+00 -0.838300D-01  0.513970D-01  0.318769D-01
     23  0.238401D+00  0.142394D+00  0.391938D+00 -0.368503D-01 -0.976735D-01
     24 -0.324560D-01  0.317801D+00 -0.154976D+00 -0.460100D-01  0.978289D-02
     25 -0.892768D-01  0.229349D+00  0.795357D-01 -0.128312D-01  0.671430D-01
     26  0.244430D+00  0.693025D-01 -0.356014D-02  0.107215D+00  0.145309D+00
     27  0.854782D-01 -0.219665D-01  0.123297D+00  0.248776D-01  0.320681D-01
     28  0.143918D+00 -0.310968D-01 -0.604761D-01  0.137027D+00 -0.477765D-03
     29 -0.499197D-01 -0.348752D-01  0.138979D-01  0.308833D-01 -0.189238D+00
     30 -0.729748D-01  0.864926D-02 -0.957795D-02 -0.138842D-01 -0.757577D-01
     31 -0.424331D-01  0.103270D+00 -0.342784D-01 -0.192001D+01 -0.153333D+01
     32  0.212524D+00  0.749999D-01 -0.410099D-01 -0.195305D+01 -0.466605D+01
     33  0.959665D-03  0.344012D-02 -0.138588D+00 -0.167442D+01  0.800652D+00
                6             7             8             9            10 
      6  0.133931D+02
      7  0.895151D-01  0.134675D+02
      8  0.196619D-02  0.211514D+01  0.111362D+02
      9 -0.243030D+00 -0.139495D+01  0.272330D+01  0.136659D+02
     10  0.248995D+00  0.108249D+00 -0.352424D+00  0.146598D+00  0.812399D+01
     11 -0.542077D-01 -0.285521D+00  0.219083D+00 -0.806181D-01 -0.454006D+00
     12  0.171717D+00  0.121787D+00 -0.464743D-01 -0.102016D+00  0.424909D+01
     13  0.894847D-01  0.236805D+00 -0.150420D+00  0.296981D-01 -0.253573D+01
     14  0.214104D+01 -0.140801D+00 -0.148847D+00 -0.307686D-02  0.374900D+01
     15 -0.772535D+01  0.565617D-01  0.102372D-01 -0.160027D+00 -0.205924D+01
     16 -0.941604D-02 -0.193122D+01 -0.804915D+00 -0.810902D+00  0.807189D-01
     17  0.107309D-02 -0.825942D+00 -0.290771D+01  0.471187D+00 -0.955464D-01
     18 -0.166886D-01 -0.730797D+00  0.408661D+00 -0.295134D+01 -0.298598D-01
     19  0.356324D-01 -0.324208D+01  0.255676D+00  0.793685D+00  0.766996D-01
     20  0.696060D-02  0.184770D+00 -0.333364D+01  0.499802D+00 -0.472612D-01
     21  0.179469D-02  0.688163D+00  0.623318D+00 -0.139302D+01  0.117575D+00
     22 -0.844283D-01 -0.283943D+01  0.116654D+01 -0.213042D+00  0.721506D-01
     23  0.242580D-01  0.148141D+01 -0.226138D+01 -0.285805D+00  0.110595D+00
     24 -0.141076D+00 -0.306896D+00 -0.325147D+00 -0.381299D+01  0.592406D-03
     25  0.192862D-01 -0.186913D-01 -0.491063D-01  0.207771D-02 -0.379882D+01
     26  0.343155D-01 -0.688171D-01  0.120259D+00  0.505063D-02  0.191306D+00
     27 -0.333564D-01 -0.393362D-02  0.745847D-02 -0.466537D-01  0.356882D-01
     28 -0.193559D-01  0.255188D-01 -0.133367D-01 -0.745758D-02 -0.267092D+00
     29 -0.959265D-01 -0.199539D-01 -0.593784D-02  0.540325D-02 -0.428620D-01
     30  0.301660D-01 -0.728454D-02  0.190650D-02 -0.107122D-01  0.867209D-01
     31 -0.149167D+01 -0.310266D-02 -0.340666D-02  0.328036D-01 -0.797269D-02
     32  0.847203D+00  0.543321D-01 -0.401916D-01  0.179982D-01  0.698900D-01
     33 -0.502865D+01  0.756358D-01  0.164845D-01 -0.277342D-01  0.337386D-01
               11            12            13            14            15 
     11  0.147718D+02
     12 -0.195687D+01  0.219000D+02
     13  0.414890D+01 -0.205203D+01  0.116776D+02
     14 -0.694321D+01  0.371111D+00 -0.407744D+01  0.102885D+02
     15  0.260413D+00 -0.116174D+02  0.245577D+01 -0.260148D+01  0.227063D+02
     16 -0.961938D-01 -0.302774D-01  0.337113D-01 -0.115182D-01 -0.119367D-01
     17  0.332135D-01  0.241069D-01 -0.222187D-01 -0.112986D-01  0.425728D-02
     18  0.243341D-01 -0.369016D-01 -0.167732D-01  0.393638D-02 -0.770588D-02
     19 -0.648311D-01  0.798963D-01 -0.199489D-01  0.118773D-01 -0.335948D-01
     20 -0.661777D-01 -0.141554D-01  0.177868D-01 -0.692666D-02  0.113506D-01
     21 -0.460415D-01 -0.118353D-01 -0.190614D-01  0.118534D-01 -0.182498D-01
     22  0.135290D+00  0.148704D-01  0.462452D-01 -0.215957D+00  0.941223D-01
     23 -0.125314D+00 -0.563002D-01 -0.272026D+00  0.127238D+00 -0.924280D-01
     24 -0.333779D-02  0.130775D+00  0.908388D-01 -0.789262D-01 -0.108948D+00
     25  0.146948D+00  0.250561D-01  0.506334D-01 -0.317739D+00 -0.711728D-01
     26 -0.129991D+01  0.619069D+00 -0.376528D+00 -0.227023D+00 -0.836157D-01
     27  0.612185D+00 -0.367624D+01 -0.824707D-01 -0.713913D-01  0.228878D+00
     28 -0.671771D-01  0.803838D-01 -0.226949D+01 -0.818392D+00 -0.759471D+00
     29  0.177136D+00  0.281955D-01 -0.849367D+00 -0.334352D+01  0.413228D+00
     30  0.287453D-01  0.121536D+00 -0.752946D+00  0.396798D+00 -0.341357D+01
     31 -0.169972D-01  0.106222D-01  0.116134D+00 -0.826446D-02 -0.988952D-02
     32 -0.118841D+00  0.793221D-02  0.152749D+00  0.878630D-01 -0.320112D-01
     33  0.647410D-02  0.571403D-02  0.495957D-01 -0.214747D-01  0.119195D+00
               16            17            18            19            20 
     16  0.173435D+01
     17  0.102405D+01  0.280949D+01
     18  0.730692D+00 -0.530811D+00  0.302712D+01
     19  0.622406D-01  0.347392D-01  0.701134D-01  0.292982D+01
     20  0.281240D-01  0.233082D-01 -0.816464D-01 -0.687127D-01  0.346381D+01
     21  0.644217D-01 -0.916517D-01 -0.933712D-01 -0.782895D+00 -0.481283D+00
     22 -0.218135D+00 -0.661268D-01  0.117716D+00  0.119083D-01 -0.209141D+00
     23 -0.966619D-01  0.140694D+00  0.359921D-01 -0.282345D+00 -0.740460D-02
     24  0.148185D+00  0.306839D-01  0.883697D-01 -0.210660D+00 -0.195008D+00
     25 -0.123103D-02  0.159000D-02 -0.138939D-02  0.113749D-01 -0.318166D-01
     26 -0.643230D-02  0.362725D-02  0.453599D-02 -0.482755D-01  0.312622D-01
     27 -0.139189D-02  0.417933D-03 -0.124813D-03  0.133297D-01 -0.153375D-01
     28  0.850273D-02 -0.493315D-02 -0.357302D-02  0.726173D-02  0.938819D-05
     29 -0.473918D-02  0.175599D-02  0.159545D-02 -0.368742D-02 -0.117915D-02
     30 -0.313328D-02  0.154240D-02  0.430833D-03 -0.698371D-03 -0.282281D-03
     31 -0.894885D-03  0.240034D-02  0.290572D-02  0.119827D-01  0.722668D-02
     32  0.815331D-02 -0.631460D-02 -0.160348D-02  0.164929D-01 -0.566995D-02
     33  0.648834D-02 -0.305336D-03 -0.498975D-02  0.249504D-01  0.903387D-02
               21            22            23            24            25 
     21  0.124456D+01
     22 -0.211903D+00  0.258705D+01
     23 -0.260373D+00 -0.117256D+01  0.210141D+01
     24  0.755770D-01  0.370114D+00  0.238303D+00  0.389865D+01
     25  0.184356D-01  0.471776D-02  0.108924D-01 -0.102230D-02  0.388457D+01
     26 -0.364573D-01  0.180104D-01 -0.378387D-01  0.317456D-02 -0.440954D-01
     27 -0.911528D-02  0.854424D-03 -0.861872D-03  0.707417D-02 -0.736796D-01
     28  0.699440D-02 -0.908582D-02  0.114496D-02 -0.196704D-03 -0.229748D-01
     29 -0.341804D-02  0.699472D-02 -0.358416D-03  0.872885D-04 -0.183445D-01
     30 -0.304919D-02  0.228798D-02  0.172183D-02  0.375621D-03  0.106222D-02
     31  0.150468D-01 -0.118293D-02  0.179977D-01 -0.124899D-01 -0.746372D-02
     32  0.170847D-01  0.254209D-02  0.182270D-01  0.258645D-02  0.517972D-02
     33  0.109864D-01 -0.676214D-02  0.355521D-02  0.171713D-01  0.181068D-02
               26            27            28            29            30 
     26  0.117111D+01
     27 -0.555251D+00  0.340921D+01
     28 -0.105003D-01  0.218084D-02  0.221979D+01
     29 -0.701864D-02  0.374929D-02  0.100833D+01  0.336089D+01
     30 -0.574776D-04  0.765346D-03  0.794663D+00 -0.403291D+00  0.328339D+01
     31 -0.631314D-02 -0.933046D-03  0.266169D-01 -0.573342D-01 -0.338134D-01
     32  0.309156D-01  0.892874D-02 -0.635709D-01  0.423433D-01  0.400252D-01
     33  0.127952D-01 -0.373850D-02 -0.336919D-01  0.364789D-01  0.242539D-03
               31            32            33 
     31  0.182833D+01
     32  0.149475D+01  0.458272D+01
     33  0.152170D+01 -0.867134D+00  0.505039D+01
 Leave Link  701 at Sat Aug 31 11:36:43 2019, MaxMem=   671088640 cpu:              40.2 elap:              20.1
 (Enter /shared/centos7/gaussian/g16/l702.exe)
 L702 exits ... SP integral derivatives will be done elsewhere.
 Leave Link  702 at Sat Aug 31 11:36:45 2019, MaxMem=   671088640 cpu:               2.2 elap:               1.1
 (Enter /shared/centos7/gaussian/g16/l703.exe)
 Integral derivatives from FoFJK, PRISM(SPDF).
 Compute integral second derivatives, UseDBF=F ICtDFT=           0.
 ICntrl=    100147.
 Calling FoFJK, ICntrl=    100147 FMM=F ISym2X=0 I1Cent= 0 IOpClX= 0 NMat=1 NMatS=1 NMatT=0.
 FoFJK:  IHMeth= 1 ICntrl=  100147 DoSepK=F KAlg= 0 I1Cent=           0 FoldK=F
 IRaf=         0 NMat=       1 IRICut=       1 DoRegI=T DoRafI=F ISym2E= 0 IDoP0=0 IntGTp=1.
 FoFCou: FMM=F IPFlag=           0 FMFlag=      100000 FMFlg1=         800
         NFxFlg=           0 DoJE=F BraDBF=F KetDBF=F FulRan=T
         wScrn=  0.000000 ICntrl=    100147 IOpCl=  0 I1Cent=           0 NGrid=           0
         NMat0=    1 NMatS0=      1 NMatT0=    0 NMatD0=    1 NMtDS0=    0 NMtDT0=    0
 Symmetry not used in FoFCou.
 FoFCou:  KetSym=F NOpSet=  1 NOpAb=1 NOp=  1.
 FoFCou:  CnvScl= 1.00D+00 Thresh= 1.00D-08 IAcrcy=      12.
 PrismS was handed   670737789 working-precision words and  3702 shell-pairs
 FoFCou: LinMIO=F DoNuc=F BraDBF=F KetDBF=F HaveP=T PDBF=F HaveZ=T HaveW=F
         NIJTC =      10 NIJTAt=       0 NIJTCD=       0 NIJTT =      10
         IJTBeg=       1 IJTEnd=      10 KLTBeg=       1 KLTEnd=      10
         IPTBeg=       1 IPTEnd=      10 IPTBCv=       1 IPTECv=      10
         IZTBeg=       1 IZTEnd=      10 IZTBCv=       1 IZTECv=      10
         IWTBeg=      11 IWTEnd=      10 IWTBCv=      11 IWTECv=      10
         INTBeg=       1 INTEnd=       0 IFTBCv=       1 IFTECv=      10
 NCel replicated for PrismC:     1
 CoulSu-InSpLW:  IPartL=    0 NPrtUS=   20 NPrtUL=    1 DoSpLW=F IThBeg=    0 IThEnd=   19 NThAct=   20.
 CoulSu:  IncDef=  1024 NBBP=        6854253 NTPThr=   100 NPartT=   20 Incr=        1024 LDynOK=F GPUOK=T.
 CoulSu:  NPrtUS=  20 ThrOK=T IAlg=1 NPAlg=1 LenDen=           0 LWGrdD=           0 DoCopy=F ISkipM=0
          DoSpLW=F IThBeg=    0 IThEnd=   19.
 Enter PrismC:  IPart=  0 JobTyp=22 DoJE=F Cont=F.
 PrismC:  IPart=     0 DynPar=T LinDyn=F Incr=        1024 UseFst=F UseS4=T ISplat=2.
 PrismC was handed    33454920 working-precision words and  3702 shell-pairs
 Enter PrismC:  IPart=  8 JobTyp=22 DoJE=F Cont=F.
 PrismC:  IPart=     8 DynPar=T LinDyn=F Incr=        1024 UseFst=F UseS4=T ISplat=2.
 PrismC was handed    33454920 working-precision words and  3702 shell-pairs
 Enter PrismC:  IPart=  1 JobTyp=22 DoJE=F Cont=F.
 PrismC:  IPart=     1 DynPar=T LinDyn=F Incr=        1024 UseFst=F UseS4=T ISplat=2.
 PrismC was handed    33454920 working-precision words and  3702 shell-pairs
 Enter PrismC:  IPart=  2 JobTyp=22 DoJE=F Cont=F.
 PrismC:  IPart=     2 DynPar=T LinDyn=F Incr=        1024 UseFst=F UseS4=T ISplat=2.
 PrismC was handed    33454920 working-precision words and  3702 shell-pairs
 Enter PrismC:  IPart= 12 JobTyp=22 DoJE=F Cont=F.
 PrismC:  IPart=    12 DynPar=T LinDyn=F Incr=        1024 UseFst=F UseS4=T ISplat=2.
 PrismC was handed    33454920 working-precision words and  3702 shell-pairs
 Enter PrismC:  IPart=  6 JobTyp=22 DoJE=F Cont=F.
 PrismC:  IPart=     6 DynPar=T LinDyn=F Incr=        1024 UseFst=F UseS4=T ISplat=2.
 PrismC was handed    33454920 working-precision words and  3702 shell-pairs
 Enter PrismC:  IPart= 10 JobTyp=22 DoJE=F Cont=F.
 PrismC:  IPart=    10 DynPar=T LinDyn=F Incr=        1024 UseFst=F UseS4=T ISplat=2.
 PrismC was handed    33454920 working-precision words and  3702 shell-pairs
 Enter PrismC:  IPart= 13 JobTyp=22 DoJE=F Cont=F.
 Enter PrismC:  IPart= 14 JobTyp=22 DoJE=F Cont=F.
 PrismC:  IPart=    13 DynPar=T LinDyn=F Incr=        1024 UseFst=F UseS4=T ISplat=2.
 PrismC was handed    33454920 working-precision words and  3702 shell-pairs
 PrismC:  IPart=    14 DynPar=T LinDyn=F Incr=        1024 UseFst=F UseS4=T ISplat=2.
 PrismC was handed    33454920 working-precision words and  3702 shell-pairs
 Enter PrismC:  IPart= 19 JobTyp=22 DoJE=F Cont=F.
 PrismC:  IPart=    19 DynPar=T LinDyn=F Incr=        1024 UseFst=F UseS4=T ISplat=2.
 PrismC was handed    33454920 working-precision words and  3702 shell-pairs
 Enter PrismC:  IPart= 17 JobTyp=22 DoJE=F Cont=F.
 PrismC:  IPart=    17 DynPar=T LinDyn=F Incr=        1024 UseFst=F UseS4=T ISplat=2.
 PrismC was handed    33454920 working-precision words and  3702 shell-pairs
 Enter PrismC:  IPart=  7 JobTyp=22 DoJE=F Cont=F.
 PrismC:  IPart=     7 DynPar=T LinDyn=F Incr=        1024 UseFst=F UseS4=T ISplat=2.
 PrismC was handed    33454920 working-precision words and  3702 shell-pairs
 Enter PrismC:  IPart= 16 JobTyp=22 DoJE=F Cont=F.
 PrismC:  IPart=    16 DynPar=T LinDyn=F Incr=        1024 UseFst=F UseS4=T ISplat=2.
 PrismC was handed    33454920 working-precision words and  3702 shell-pairs
 Enter PrismC:  IPart=  3 JobTyp=22 DoJE=F Cont=F.
 PrismC:  IPart=     3 DynPar=T LinDyn=F Incr=        1024 UseFst=F UseS4=T ISplat=2.
 PrismC was handed    33454920 working-precision words and  3702 shell-pairs
 Enter PrismC:  IPart= 18 JobTyp=22 DoJE=F Cont=F.
 PrismC:  IPart=    18 DynPar=T LinDyn=F Incr=        1024 UseFst=F UseS4=T ISplat=2.
 PrismC was handed    33454920 working-precision words and  3702 shell-pairs
 Enter PrismC:  IPart= 15 JobTyp=22 DoJE=F Cont=F.
 PrismC:  IPart=    15 DynPar=T LinDyn=F Incr=        1024 UseFst=F UseS4=T ISplat=2.
 PrismC was handed    33454920 working-precision words and  3702 shell-pairs
 Enter PrismC:  IPart=  4 JobTyp=22 DoJE=F Cont=F.
 PrismC:  IPart=     4 DynPar=T LinDyn=F Incr=        1024 UseFst=F UseS4=T ISplat=2.
 PrismC was handed    33454920 working-precision words and  3702 shell-pairs
 Enter PrismC:  IPart= 11 JobTyp=22 DoJE=F Cont=F.
 PrismC:  IPart=    11 DynPar=T LinDyn=F Incr=        1024 UseFst=F UseS4=T ISplat=2.
 PrismC was handed    33454920 working-precision words and  3702 shell-pairs
 Enter PrismC:  IPart=  9 JobTyp=22 DoJE=F Cont=F.
 PrismC:  IPart=     9 DynPar=T LinDyn=F Incr=        1024 UseFst=F UseS4=T ISplat=2.
 PrismC was handed    33454920 working-precision words and  3702 shell-pairs
 Enter PrismC:  IPart=  5 JobTyp=22 DoJE=F Cont=F.
 PrismC:  IPart=     5 DynPar=T LinDyn=F Incr=        1024 UseFst=F UseS4=T ISplat=2.
 PrismC was handed    33454920 working-precision words and  3702 shell-pairs
 IPart=  0 NShTot=      214785 NShNF=      214785 NShFF=           0 MinMC=       7
           NShCPU=      214785 NBCPU=        9254 AvBCPU=        23.2
           NShGPU=           0 NBGPU=           0 AvBGPU=         0.0
 IPart=  7 NShTot=      270241 NShNF=      270241 NShFF=           0 MinMC=       7
           NShCPU=      270241 NBCPU=       11253 AvBCPU=        24.0
           NShGPU=           0 NBGPU=           0 AvBGPU=         0.0
 IPart=  4 NShTot=      217810 NShNF=      217810 NShFF=           0 MinMC=       7
           NShCPU=      217810 NBCPU=        9474 AvBCPU=        23.0
           NShGPU=           0 NBGPU=           0 AvBGPU=         0.0
 IPart= 19 NShTot=      218446 NShNF=      218446 NShFF=           0 MinMC=       7
           NShCPU=      218446 NBCPU=        9424 AvBCPU=        23.2
           NShGPU=           0 NBGPU=           0 AvBGPU=         0.0
 IPart= 12 NShTot=      274174 NShNF=      274174 NShFF=           0 MinMC=       7
           NShCPU=      274174 NBCPU=       11339 AvBCPU=        24.2
           NShGPU=           0 NBGPU=           0 AvBGPU=         0.0
 IPart= 11 NShTot=      282654 NShNF=      282654 NShFF=           0 MinMC=       7
           NShCPU=      282654 NBCPU=       11489 AvBCPU=        24.6
           NShGPU=           0 NBGPU=           0 AvBGPU=         0.0
 IPart=  1 NShTot=      211498 NShNF=      211498 NShFF=           0 MinMC=       7
           NShCPU=      211498 NBCPU=        8920 AvBCPU=        23.7
           NShGPU=           0 NBGPU=           0 AvBGPU=         0.0
 IPart= 17 NShTot=      275339 NShNF=      275339 NShFF=           0 MinMC=       7
           NShCPU=      275339 NBCPU=       11517 AvBCPU=        23.9
           NShGPU=           0 NBGPU=           0 AvBGPU=         0.0
 IPart=  5 NShTot=      213961 NShNF=      213961 NShFF=           0 MinMC=       7
           NShCPU=      213961 NBCPU=        9420 AvBCPU=        22.7
           NShGPU=           0 NBGPU=           0 AvBGPU=         0.0
 IPart=  9 NShTot=      214155 NShNF=      214155 NShFF=           0 MinMC=       7
           NShCPU=      214155 NBCPU=        9231 AvBCPU=        23.2
           NShGPU=           0 NBGPU=           0 AvBGPU=         0.0
 IPart=  2 NShTot=      269244 NShNF=      269244 NShFF=           0 MinMC=       7
           NShCPU=      269244 NBCPU=       11403 AvBCPU=        23.6
           NShGPU=           0 NBGPU=           0 AvBGPU=         0.0
 IPart= 10 NShTot=      259805 NShNF=      259805 NShFF=           0 MinMC=       7
           NShCPU=      259805 NBCPU=       11053 AvBCPU=        23.5
           NShGPU=           0 NBGPU=           0 AvBGPU=         0.0
 IPart= 16 NShTot=      215946 NShNF=      215946 NShFF=           0 MinMC=       7
           NShCPU=      215946 NBCPU=        8985 AvBCPU=        24.0
           NShGPU=           0 NBGPU=           0 AvBGPU=         0.0
 IPart= 18 NShTot=      225705 NShNF=      225705 NShFF=           0 MinMC=       7
           NShCPU=      225705 NBCPU=        9309 AvBCPU=        24.2
           NShGPU=           0 NBGPU=           0 AvBGPU=         0.0
 IPart= 13 NShTot=      278630 NShNF=      278630 NShFF=           0 MinMC=       7
           NShCPU=      278630 NBCPU=       11794 AvBCPU=        23.6
           NShGPU=           0 NBGPU=           0 AvBGPU=         0.0
 IPart=  6 NShTot=      214129 NShNF=      214129 NShFF=           0 MinMC=       7
           NShCPU=      214129 NBCPU=        8935 AvBCPU=        24.0
           NShGPU=           0 NBGPU=           0 AvBGPU=         0.0
 IPart= 15 NShTot=      211847 NShNF=      211847 NShFF=           0 MinMC=       7
           NShCPU=      211847 NBCPU=        8607 AvBCPU=        24.6
           NShGPU=           0 NBGPU=           0 AvBGPU=         0.0
 IPart=  3 NShTot=      273677 NShNF=      273677 NShFF=           0 MinMC=       7
           NShCPU=      273677 NBCPU=       11160 AvBCPU=        24.5
           NShGPU=           0 NBGPU=           0 AvBGPU=         0.0
 IPart= 14 NShTot=      217682 NShNF=      217682 NShFF=           0 MinMC=       7
           NShCPU=      217682 NBCPU=        9048 AvBCPU=        24.1
           NShGPU=           0 NBGPU=           0 AvBGPU=         0.0
 IPart=  8 NShTot=      268837 NShNF=      268837 NShFF=           0 MinMC=       7
           NShCPU=      268837 NBCPU=       11298 AvBCPU=        23.8
           NShGPU=           0 NBGPU=           0 AvBGPU=         0.0
 CoulSu:  NxtVal=        7303169 LenVP=       33454921 MinMC=       7.
 ReadGW:  IGet=0 IStart=           1 Next=           1 LGW=           0.
 Remaining memory in FofDFT      639.93 Mw
 CkSvGd:  ISavGI=        -1 IRadAn=       5 IRASav=       5 ISavGd=        -1.
 CalDSu-InSpLW:  IPartL=    0 NPrtUS=   20 NPrtUL=    1 DoSpLW=F IThBeg=    0 IThEnd=   19 NThAct=   20.
 CalDSu:  NPrtUS=  20 ThrOK=T IAlg=1 NPAlg=2 DoDPD=T LenP=       35245 LenD1P=             0 GPUOK=F
          ISkipM=0 DoSpLW=F IThBeg=    0 IThEnd=   19.
 IPart=  0 IRanGd=          0 ScrnBf=T ScrnGd=T RCrit=4.00D+00 DoMicB=T.
 IPart= 10        10757 of        12540 points in      14 batches and       63 microbatches, Max-NSigAt=      11 Max-NSgAt2=      11
 IPart= 14         9134 of        10128 points in      11 batches and       77 microbatches, Max-NSigAt=      11 Max-NSgAt2=      11
 IPart= 12        11899 of        12390 points in      11 batches and       56 microbatches, Max-NSigAt=      11 Max-NSgAt2=      11
 IPart= 15        12638 of        14676 points in      16 batches and      114 microbatches, Max-NSigAt=      11 Max-NSgAt2=      11
 IPart=  1         9949 of        11286 points in      12 batches and       76 microbatches, Max-NSigAt=      11 Max-NSgAt2=      11
 IPart=  7        12879 of        14550 points in      15 batches and       70 microbatches, Max-NSigAt=      11 Max-NSgAt2=      11
 IPart= 17        12407 of        13720 points in      14 batches and       65 microbatches, Max-NSigAt=      11 Max-NSgAt2=      11
 IPart=  3        10654 of        11072 points in      10 batches and       49 microbatches, Max-NSigAt=      11 Max-NSgAt2=      11
 IPart=  2        13466 of        14290 points in      15 batches and       49 microbatches, Max-NSigAt=      11 Max-NSgAt2=      11
 IPart=  8         9835 of        10184 points in      10 batches and       48 microbatches, Max-NSigAt=      11 Max-NSgAt2=      11
 IPart=  9        10655 of        11280 points in      11 batches and       64 microbatches, Max-NSigAt=      11 Max-NSgAt2=      11
 IPart= 18         9898 of        10704 points in      11 batches and       61 microbatches, Max-NSigAt=      11 Max-NSgAt2=      11
 IPart=  4        11270 of        12496 points in      14 batches and       79 microbatches, Max-NSigAt=      11 Max-NSgAt2=      11
 IPart= 16        10178 of        10924 points in      11 batches and       65 microbatches, Max-NSigAt=      11 Max-NSgAt2=      11
 IPart=  5        11671 of        13166 points in      14 batches and       56 microbatches, Max-NSigAt=      11 Max-NSgAt2=      11
 IPart=  6         9409 of        10086 points in      11 batches and       65 microbatches, Max-NSigAt=      11 Max-NSgAt2=      11
 IPart=  0        12298 of        14284 points in      16 batches and       72 microbatches, Max-NSigAt=      11 Max-NSgAt2=      11
 IPart= 11        10171 of        10762 points in      11 batches and       47 microbatches, Max-NSigAt=      11 Max-NSgAt2=      11
 IPart= 13        12860 of        14358 points in      15 batches and      100 microbatches, Max-NSigAt=      11 Max-NSgAt2=      11
 IPart= 19        12385 of        13202 points in      13 batches and       67 microbatches, Max-NSigAt=      11 Max-NSgAt2=      11
 Polarizability after L703:
                1             2             3 
      1  0.000000D+00
      2  0.000000D+00  0.000000D+00
      3  0.000000D+00  0.000000D+00  0.000000D+00
 Dipole Derivatives after L703:
                 1             2             3             4             5 
      1  -0.179316D+00  0.615511D-01 -0.946800D-01  0.513665D-01  0.256914D+00
      2   0.131886D+00 -0.243951D+00 -0.533875D-01  0.657191D+00 -0.468490D+00
      3  -0.143094D+00 -0.592277D-02 -0.151981D+00  0.273317D+00 -0.150058D+00
                 6             7             8             9            10 
      1  -0.195250D-01 -0.100519D+01  0.332060D+00 -0.224602D+00 -0.481928D+00
      2  -0.219620D+00  0.610763D-01 -0.803435D+00  0.105363D-01  0.499009D-01
      3  -0.530412D+00 -0.829270D-01  0.603495D-02 -0.794054D+00  0.217884D+00
                11            12            13            14            15 
      1  -0.183297D+00  0.223755D+00 -0.636690D+00  0.139988D+00  0.245828D+00
      2  -0.736719D+00 -0.365059D+00 -0.764874D-01 -0.505155D+00  0.134778D-01
      3  -0.309962D+00 -0.174153D+00  0.168984D+00 -0.416099D-01  0.581072D-01
                16            17            18            19            20 
      1   0.893552D+00 -0.439492D+00 -0.484365D+00  0.276769D+00  0.190785D+00
      2  -0.331429D+00  0.306924D+00  0.180270D+00 -0.458960D-02  0.140788D+00
      3  -0.102610D+00  0.189146D-01  0.178336D+00  0.162134D+00  0.147347D+00
                21            22            23            24            25 
      1   0.614342D+00  0.114196D-01 -0.126631D+00  0.821471D-01  0.174954D+00
      2  -0.639827D-01  0.302982D+00  0.385132D+00 -0.256235D-01  0.705452D-01
      3   0.562108D+00 -0.164036D-01 -0.723898D-01  0.174204D+00 -0.106831D-02
                26            27            28            29            30 
      1   0.275537D-01 -0.831703D-02  0.924944D+00 -0.392607D+00 -0.393773D+00
      2   0.100757D+01  0.181879D+00 -0.287402D+00  0.340012D+00  0.170919D+00
      3   0.157726D+00  0.892046D-01 -0.225888D+00  0.135670D+00  0.215791D+00
                31            32            33 
      1  -0.298811D-01  0.133175D+00  0.591893D-01
      2  -0.573672D+00  0.577322D+00  0.170590D+00
      3  -0.250329D+00  0.114250D+00  0.372850D+00
 Hessian after L703:
                1             2             3             4             5 
      1  0.344471D+00
      2 -0.158934D+00  0.302602D+00
      3 -0.732946D-01 -0.813822D-01  0.234409D+00
      4  0.599518D-02 -0.181059D-02 -0.509815D-02  0.388367D+00
      5 -0.539507D-02  0.180627D-01  0.829925D-02 -0.176248D-01  0.419114D+00
      6 -0.254291D-02  0.583705D-02 -0.232911D-02 -0.108340D+00  0.118541D+00
      7 -0.839584D-01  0.250445D-01 -0.259497D-02  0.483772D-03 -0.251601D-03
      8  0.403257D-01 -0.146446D+00  0.671474D-01  0.550888D-02 -0.116119D-01
      9 -0.242716D-01  0.827828D-01 -0.125733D+00 -0.194119D-02  0.453821D-02
     10 -0.208022D+00  0.760872D-01  0.671861D-01  0.105360D-03 -0.664420D-02
     11  0.504754D-01 -0.112807D+00 -0.153985D-01 -0.404328D-01 -0.578877D-01
     12  0.870691D-01 -0.335662D-01 -0.954917D-01 -0.736593D-02 -0.233813D-01
     13 -0.471108D-01 -0.212726D-02  0.136171D-01 -0.112748D+00 -0.566194D-01
     14  0.326587D-01 -0.505403D-02 -0.111939D-01 -0.161122D-01 -0.270758D+00
     15  0.280008D-01 -0.276481D-02 -0.169346D-02  0.144042D-01 -0.490753D-01
     16 -0.100607D-01  0.826602D-02  0.255005D-02 -0.683041D-03  0.700988D-04
     17  0.261489D-01 -0.157878D-01 -0.958261D-02 -0.109252D-02  0.205590D-02
     18 -0.193462D-01  0.110637D-01  0.898497D-02 -0.763676D-04 -0.152826D-03
     19 -0.372974D-02  0.531544D-02 -0.125906D-01 -0.912150D-03  0.116926D-02
     20  0.148579D-01  0.789888D-03  0.321485D-01 -0.704455D-03  0.824805D-03
     21 -0.106612D-01  0.932583D-02 -0.206132D-01  0.516697D-03 -0.876391D-03
     22  0.121682D-01  0.137387D-01 -0.294814D-02 -0.732075D-02  0.177141D-02
     23 -0.687755D-02 -0.308567D-01  0.139282D-01 -0.287030D-02  0.396386D-02
     24  0.109442D-01  0.237166D-01 -0.488770D-02 -0.152442D-02 -0.900253D-03
     25 -0.573059D-02  0.332301D-01  0.873233D-02 -0.334510D-02 -0.352138D-02
     26  0.919227D-02 -0.108227D-01 -0.478123D-02 -0.248263D-02  0.273727D-02
     27  0.641181D-02 -0.131458D-01  0.106624D-02  0.408231D-02 -0.227352D-02
     28 -0.230275D-02 -0.394063D-02  0.235842D-02  0.913074D-02 -0.265254D-02
     29 -0.444152D-02  0.467245D-03 -0.239527D-02  0.278350D-01 -0.215872D-01
     30  0.677338D-03 -0.275984D-02  0.944936D-02  0.612620D-02 -0.665244D-02
     31 -0.171892D-02  0.513034D-02  0.208249D-02 -0.279073D+00  0.896983D-01
     32  0.198917D-02 -0.147219D-03  0.321033D-02  0.497864D-01 -0.849134D-01
     33 -0.298663D-02  0.892953D-03 -0.316159D-02  0.992170D-01 -0.480662D-01
                6             7             8             9            10 
      6  0.133330D+00
      7 -0.259621D-02  0.561274D+00
      8  0.177855D-02  0.428585D-01  0.502134D+00
      9 -0.125428D-02 -0.281668D-01  0.273920D-01  0.484646D+00
     10  0.618766D-03 -0.276983D-01  0.245899D-01 -0.767974D-03  0.778152D+00
     11 -0.901806D-02  0.325120D-01 -0.295329D-01 -0.950135D-02  0.189666D+00
     12  0.105842D-01 -0.156262D-01 -0.139924D-02  0.882146D-02 -0.128693D+00
     13  0.401612D-02 -0.416633D-03 -0.516571D-02  0.273574D-02 -0.482952D+00
     14 -0.652461D-01  0.255411D-02  0.131725D-01 -0.583599D-02 -0.225821D+00
     15 -0.694956D-01 -0.464552D-03  0.576885D-02 -0.856972D-04  0.602898D-01
     16 -0.724874D-03 -0.179237D+00  0.537608D-01  0.738534D-01  0.122417D-02
     17 -0.103308D-03  0.488342D-01 -0.805532D-01 -0.324879D-01  0.721829D-03
     18 -0.175411D-03  0.825505D-01 -0.397965D-01 -0.107540D+00 -0.212440D-03
[...]
     Eigenvalues ---    0.04680   0.08686   0.08778   0.10705   0.12082
     Eigenvalues ---    0.13475   0.16484   0.18191   0.18736   0.19826
     Eigenvalues ---    0.22138   0.23301   0.33222   0.33591   0.35088
     Eigenvalues ---    0.36355   0.37354   0.39844   0.45085   0.45698
     Eigenvalues ---    0.53342   0.66236
 Angle between quadratic step and forces=  38.74 degrees.
 Linear search not attempted -- first point.
 Iteration  1 RMS(Cart)=  0.00008356 RMS(Int)=  0.00000000
 Iteration  2 RMS(Cart)=  0.00000001 RMS(Int)=  0.00000000
 ITry= 1 IFail=0 DXMaxC= 2.06D-04 DCOld= 1.00D+10 DXMaxT= 3.00D-01 DXLimC= 3.00D+00 Rises=F
 Variable       Old X    -DE/DX   Delta X   Delta X   Delta X     New X
                                 (Linear)    (Quad)   (Total)
    R1        2.67121  -0.00000   0.00000  -0.00000  -0.00000   2.67120
    R2        2.59481  -0.00000   0.00000  -0.00000  -0.00000   2.59481
    R3        2.56333   0.00000   0.00000   0.00000   0.00000   2.56333
    R4        1.82347  -0.00000   0.00000  -0.00000  -0.00000   1.82347
    R5        2.05345  -0.00000   0.00000  -0.00000  -0.00000   2.05345
    R6        2.06653   0.00000   0.00000  -0.00000  -0.00000   2.06653
    R7        2.06457  -0.00000   0.00000   0.00000   0.00000   2.06457
    R8        2.50502  -0.00000   0.00000  -0.00000  -0.00000   2.50502
    R9        2.04478  -0.00000   0.00000  -0.00000  -0.00000   2.04478
   R10        2.03835   0.00000   0.00000  -0.00000  -0.00000   2.03835
    A1        1.98208  -0.00000   0.00000   0.00001   0.00001   1.98208
    A2        1.87243   0.00000   0.00000   0.00000   0.00000   1.87243
    A3        1.87229   0.00000   0.00000   0.00000   0.00000   1.87229
    A4        1.93109   0.00000   0.00000   0.00000   0.00000   1.93110
    A5        1.93727   0.00000   0.00000   0.00000   0.00000   1.93727
    A6        1.90554   0.00000   0.00000  -0.00000  -0.00000   1.90554
    A7        1.91450   0.00000   0.00000  -0.00000  -0.00000   1.91450
    A8        1.90277  -0.00000   0.00000  -0.00000  -0.00000   1.90277
    A9        2.08155   0.00000   0.00000   0.00000   0.00000   2.08155
   A10        2.05343   0.00000   0.00000   0.00000   0.00000   2.05343
   A11        2.14729  -0.00000   0.00000  -0.00000  -0.00000   2.14729
   A12        2.16215  -0.00000   0.00000  -0.00000  -0.00000   2.16215
   A13        1.98815  -0.00000   0.00000   0.00000   0.00000   1.98815
   A14        2.13269   0.00000   0.00000   0.00000   0.00000   2.13269
    D1       -3.10488   0.00000   0.00000   0.00005   0.00005  -3.10483
    D2       -1.02794   0.00000   0.00000   0.00005   0.00005  -1.02788
    D3        1.08696   0.00000   0.00000   0.00005   0.00005   1.08701
    D4       -2.45341  -0.00000   0.00000  -0.00017  -0.00017  -2.45358
    D5        0.73269  -0.00000   0.00000  -0.00017  -0.00017   0.73252
    D6       -0.00099   0.00000   0.00000   0.00002   0.00002  -0.00097
    D7        3.11979   0.00000   0.00000   0.00002   0.00002   3.11981
    D8        0.03797   0.00000   0.00000   0.00000   0.00000   0.03797
    D9       -3.08114   0.00000   0.00000  -0.00000  -0.00000  -3.08114
   D10        3.13253   0.00000   0.00000   0.00001   0.00001   3.13254
   D11        0.01342   0.00000   0.00000   0.00000   0.00000   0.01342
         Item               Value     Threshold  Converged?
 Maximum Force            0.000001     0.000015     YES
 RMS     Force            0.000000     0.000010     YES
 Maximum Displacement     0.000206     0.000060     NO 
 RMS     Displacement     0.000084     0.000040     NO 
 Predicted change in Energy=-1.273486D-10
                           ----------------------------
                           ! Non-Optimized Parameters !
                           ! (Angstroms and Degrees)  !
 --------------------------                            --------------------------
 ! Name  Definition              Value          Derivative Info.                !
 --------------------------------------------------------------------------------
 ! R1    R(1,3)                  1.4135         -DE/DX =    0.0                 !
 ! R2    R(1,4)                  1.3731         -DE/DX =    0.0                 !
 ! R3    R(2,5)                  1.3565         -DE/DX =    0.0                 !
 ! R4    R(2,11)                 0.9649         -DE/DX =    0.0                 !
 ! R5    R(3,6)                  1.0866         -DE/DX =    0.0                 !
 ! R6    R(3,7)                  1.0936         -DE/DX =    0.0                 !
 ! R7    R(3,8)                  1.0925         -DE/DX =    0.0                 !
 ! R8    R(4,5)                  1.3256         -DE/DX =    0.0                 !
 ! R9    R(4,9)                  1.0821         -DE/DX =    0.0                 !
 ! R10   R(5,10)                 1.0786         -DE/DX =    0.0                 !
 ! A1    A(3,1,4)              113.565          -DE/DX =    0.0                 !
 ! A2    A(5,2,11)             107.2822         -DE/DX =    0.0                 !
 ! A3    A(1,3,6)              107.2745         -DE/DX =    0.0                 !
 ! A4    A(1,3,7)              110.6436         -DE/DX =    0.0                 !
 ! A5    A(1,3,8)              110.9976         -DE/DX =    0.0                 !
 ! A6    A(6,3,7)              109.1795         -DE/DX =    0.0                 !
 ! A7    A(6,3,8)              109.6929         -DE/DX =    0.0                 !
 ! A8    A(7,3,8)              109.021          -DE/DX =    0.0                 !
 ! A9    A(1,4,5)              119.2639         -DE/DX =    0.0                 !
 ! A10   A(1,4,9)              117.6531         -DE/DX =    0.0                 !
 ! A11   A(5,4,9)              123.0306         -DE/DX =    0.0                 !
 ! A12   A(2,5,4)              123.8823         -DE/DX =    0.0                 !
 ! A13   A(2,5,10)             113.9125         -DE/DX =    0.0                 !
 ! A14   A(4,5,10)             122.1941         -DE/DX =    0.0                 !
 ! D1    D(4,1,3,6)           -177.8936         -DE/DX =    0.0                 !
 ! D2    D(4,1,3,7)            -58.8934         -DE/DX =    0.0                 !
 ! D3    D(4,1,3,8)             62.2813         -DE/DX =    0.0                 !
 ! D4    D(3,1,4,5)           -140.5798         -DE/DX =    0.0                 !
 ! D5    D(3,1,4,9)             41.9704         -DE/DX =    0.0                 !
 ! D6    D(11,2,5,4)            -0.0558         -DE/DX =    0.0                 !
 ! D7    D(11,2,5,10)          178.7521         -DE/DX =    0.0                 !
 ! D8    D(1,4,5,2)              2.1757         -DE/DX =    0.0                 !
 ! D9    D(1,4,5,10)          -176.5366         -DE/DX =    0.0                 !
 ! D10   D(9,4,5,2)            179.4812         -DE/DX =    0.0                 !
 ! D11   D(9,4,5,10)             0.769          -DE/DX =    0.0                 !
 --------------------------------------------------------------------------------
 GradGradGradGradGradGradGradGradGradGradGradGradGradGradGradGradGradGrad

 Leave Link  103 at Sat Aug 31 14:27:37 2019, MaxMem=   671088640 cpu:             106.3 elap:              53.5
 (Enter /shared/centos7/gaussian/g16/l9999.exe)

 ----------------------------------------------------------------------

 Electric dipole moment (input orientation):
 (Debye = 10**-18 statcoulomb cm , SI units = C m)
                  (au)            (Debye)         (10**-30 SI)
   Tot        0.864501D+00      0.219734D+01      0.732954D+01
   x         -0.597359D+00     -0.151834D+01     -0.506462D+01
   y         -0.131038D+00     -0.333065D+00     -0.111099D+01
   z          0.611026D+00      0.155307D+01      0.518049D+01

 Dipole polarizability, Alpha (input orientation).
 (esu units = cm**3 , SI units = C**2 m**2 J**-1)
 Alpha(0;0):
               (au)            (10**-24 esu)      (10**-40 SI)
   iso        0.445367D+02      0.659966D+01      0.734312D+01
   aniso      0.248243D+02      0.367858D+01      0.409297D+01
   xx         0.406729D+02      0.602710D+01      0.670605D+01
   yx         0.937484D+01      0.138921D+01      0.154570D+01
   yy         0.438344D+02      0.649558D+01      0.722731D+01
   zx        -0.875686D+01     -0.129763D+01     -0.144381D+01
   zy        -0.476535D+01     -0.706151D+00     -0.785699D+00
   zz         0.491030D+02      0.727631D+01      0.809599D+01

 ----------------------------------------------------------------------

 Dipole orientation:
     8          0.53043976         -1.15508965          1.03513009
     8         -0.89774186          0.60417788         -3.65063831
     6         -0.20355865         -1.26854111          3.60100466
     6          1.19785356          1.22680581          0.25142342
     6          0.51371239          2.00173464         -2.03036956
     1         -0.61790353         -3.23337767          4.03040028
     1          1.32652051         -0.61393488          4.82611607
     1         -1.88015482         -0.11322730          3.94263810
     1          2.33781052          2.35776211          1.51735214
     1          1.07698434          3.81312583         -2.77633364
     1         -1.26560929         -0.97812481         -2.82237328

 Electric dipole moment (dipole orientation):
 (Debye = 10**-18 statcoulomb cm , SI units = C m)
                  (au)            (Debye)         (10**-30 SI)
   Tot        0.864501D+00      0.219734D+01      0.732954D+01
   x          0.000000D+00      0.000000D+00      0.000000D+00
   y          0.000000D+00      0.000000D+00      0.000000D+00
   z          0.864501D+00      0.219734D+01      0.732954D+01

 Dipole polarizability, Alpha (dipole orientation).
 (esu units = cm**3 , SI units = C**2 m**2 J**-1)
 Alpha(0;0):
               (au)            (10**-24 esu)      (10**-40 SI)
   iso        0.445367D+02      0.659966D+01      0.734312D+01
   aniso      0.248243D+02      0.367858D+01      0.409297D+01
   xx         0.355689D+02      0.527077D+01      0.586452D+01
   yx         0.359940D+01      0.533377D+00      0.593461D+00
   yy         0.415461D+02      0.615650D+01      0.685003D+01
   zx         0.394957D+01      0.585265D+00      0.651195D+00
   zy        -0.778943D+01     -0.115427D+01     -0.128430D+01
   zz         0.564952D+02      0.837172D+01      0.931480D+01

 ----------------------------------------------------------------------

 Test job not archived.
 1\1\GINC-C0302\Freq\RM062X\CC-pVTZ\C3H6O2\HARMS.N\31-Aug-2019\0\\#P Ge
 om=AllCheck Guess=TCheck SCRF=Check Test GenChk RM062X/CC-pVTZ Freq\\G
 aussian input prepared by ASE\\0,1\O,-0.1388173893,-0.7032724904,0.488
 4671309\O,0.9730853544,0.6373860053,-1.64521557\C,-1.3531166246,-0.944
 4758676,1.1706666802\C,0.3247823349,0.58139414,0.6304414055\C,0.873210
 597,1.1911890491,-0.4109978042\H,-1.6042482678,-1.9912136083,1.0221612
 803\H,-1.2391612991,-0.7506892819,2.2408706853\H,-2.1545771289,-0.3142
 985364,0.7780576662\H,0.2596514964,1.0332555442,1.6114702381\H,1.30184
 24597,2.1783761313,-0.3387475553\H,0.5813978019,-0.2431512947,-1.59685
 76198\\Version=EM64L-G16RevA.03\State=1-A\HF=-268.3241864\RMSD=7.779e-
 09\RMSF=9.421e-07\ZeroPoint=0.0911285\Thermal=0.0969968\Dipole=-0.5973
 593,-0.1310378,0.611026\DipoleDeriv=-0.8170337,-0.3947574,0.371051,-0.
 5936266,-1.0289021,0.4200865,0.2283661,0.0465086,-0.5617609,-0.3406561
 ,-0.0009629,0.0388803,0.1468571,-0.3540895,-0.5105541,0.2910515,-0.020
 3808,-1.235639,0.787664,0.2211115,-0.2654088,0.0859971,0.3282195,-0.07
 87512,-0.2628447,-0.1774284,0.5319699,-0.0583459,0.3210308,-0.0356422,
 0.5469118,0.7375063,-0.2209991,0.0722913,0.0524085,-0.0609832,-0.02804
 24,0.0683,-0.1395988,-0.063965,0.1214848,0.4055238,-0.3473468,0.100930
 8,1.0887488,0.0245841,-0.0369408,0.0322043,-0.0778324,-0.1052061,0.005
 1081,0.0101713,-0.0292714,0.0552198,-0.0116837,-0.0453033,-0.0481704,0
 .0010429,0.0486241,-0.0614505,0.0354647,0.0064441,-0.1617876,-0.108509
 1,-0.0006398,0.0105923,0.1353221,-0.0022634,0.0238637,-0.0492238,0.074
 002,-0.0066137,0.1520226,-0.013883,0.0181921,-0.0793919,0.0051165,-0.0
 029027,0.0118779,-0.0716041,-0.0419331,0.1132205,-0.0744318,0.0076869,
 -0.0555774,0.002192,-0.0446816,0.021483,-0.0235372,0.0529235,0.2867798
 ,-0.0435235,0.0102133,-0.0457378,0.247318,0.0647571,-0.0112905,0.04192
 79,0.3398555\Polar=40.6728849,9.3748354,43.8343507,-8.75686,-4.7653463
 ,49.1029874\Quadrupole=-0.3791932,1.0437063,-0.664513,1.7428406,-0.076
 8727,1.5458408\PG=C01 [X(C3H6O2)]\NImag=0\\0.35248570,0.14905556,0.418
 66350,-0.14378416,0.01895337,0.20004657,-0.00550414,0.00498810,-0.0013
 6112,0.13780651,0.00499495,0.01236027,0.00472817,0.20018180,0.55776901
 ,0.00209928,0.01184637,0.00544324,-0.06500787,0.08756828,0.40519665,-0
 .19893531,-0.03431836,0.07729402,0.00005046,-0.00020384,-0.00426193,0.
 50773653,-0.00391611,-0.08296925,-0.00921927,0.00023892,0.00027166,-0.
 00100918,-0.00249350,0.62396602,0.08655374,0.01025861,-0.11341402,-0.0
 0019052,0.00396013,0.00348045,0.04087944,0.01729237,0.55105174,-0.0863
 0766,-0.05874143,0.01941522,0.01212890,-0.00334457,0.00796767,-0.02356
 318,-0.04305111,-0.00071682,0.27892464,-0.09113339,-0.27703261,-0.0249
 2915,0.00712890,0.00255515,-0.03645521,-0.01933121,-0.02257259,0.00781
 419,0.21015766,0.57573069,0.01090093,-0.04108324,-0.08729878,0.0203348
 9,-0.00205504,-0.06499418,0.00618740,0.02362352,0.00012329,-0.22412566
 ,-0.02967036,0.82129378,-0.00204566,-0.02011888,0.01497930,-0.06048999
 ,-0.00956653,0.04174216,0.00163839,-0.00168126,-0.00013948,-0.14750422
 ,-0.11164111,0.15609697,0.29505600,-0.03642604,-0.05306613,0.03311382,
 -0.02343268,-0.13776737,-0.06597478,0.00585432,-0.00263316,-0.00675093
 ,-0.10031551,-0.18791751,0.14915257,0.26706468,0.69696310,-0.00393534,
 -0.01073061,0.00522179,0.02345409,-0.11150562,-0.29739916,0.00191304,-
 0.00316941,-0.00429208,0.16525708,0.17864738,-0.37834708,-0.19353299,-
 0.04666328,0.74805270,-0.01586512,-0.03599665,-0.00118382,-0.00009835,
 0.00043326,0.00045361,-0.05934874,-0.04483755,-0.00855571,-0.00358175,
 0.00052693,0.00410776,-0.00055058,-0.00194829,-0.00110196,0.07218504,-
 0.00453973,-0.00441774,0.00134713,0.00002498,0.00038137,0.00082355,-0.
 05679987,-0.30872832,-0.03975564,-0.00100710,0.00214026,0.00148458,-0.
 00018386,-0.00026465,-0.00119852,0.06531038,0.32985374,0.00934751,0.02
 092143,0.00144797,0.00003037,-0.00030677,-0.00015826,-0.01234732,-0.04
 641116,-0.05741293,0.00246057,-0.00049932,-0.00176204,0.00019815,0.001
 06276,0.00101344,0.00371788,0.04189525,0.05679753,-0.00893794,0.000599
 69,0.04137595,0.00006453,-0.00071262,0.00013602,-0.05589784,-0.0084568
 1,-0.04385560,0.00239064,0.00535145,0.00219976,-0.00048140,-0.00028510
 ,0.00017100,-0.00015589,0.00033026,-0.00616247,0.06386143,-0.00210295,
 0.00180024,0.00660194,0.00007637,-0.00034844,-0.00020778,-0.00604455,-
 0.06243165,-0.04733108,0.00075607,0.00237050,0.00316849,-0.00003117,-0
 .00001774,0.00010899,-0.00469145,-0.00334788,-0.03048461,0.00850201,0.
 05735754,0.01450781,0.00123028,-0.01921883,0.00026699,0.00016125,0.000
 16666,-0.03825652,-0.04527055,-0.28998848,-0.00188865,-0.00381737,0.00
 056483,0.00015424,0.00094639,0.00001308,-0.00186553,-0.00065932,-0.002
 55551,0.03005896,0.04952210,0.32132759,-0.03875385,0.01047511,0.000926
 86,-0.00001082,0.00034708,0.00053506,-0.17492166,0.10398589,-0.0713273
 4,0.00294385,0.00569297,-0.00017833,-0.00014778,-0.00175823,0.00001651
 ,0.00739362,-0.00341385,0.00259715,-0.00111474,0.00343026,-0.00331389,
 0.20529137,-0.00750205,0.00676551,-0.00314208,-0.00035855,-0.00048826,
 -0.00099810,0.10948399,-0.14535652,0.05888005,-0.00036278,0.00305082,-
 0.00199866,0.00046780,0.00068144,0.00177261,0.02161105,-0.01546686,0.0
 1308996,-0.00523999,0.00442758,-0.00339244,-0.11844155,0.14644496,0.02
 240736,-0.00965780,0.00776485,0.00011475,-0.00031901,-0.00039345,-0.07
 498474,0.06064188,-0.09245640,-0.00092715,-0.00258900,0.00073327,-0.00
 041063,0.00037779,-0.00011447,0.00436396,-0.00399625,0.00261434,-0.022
 16274,0.01939263,-0.01080016,0.07149951,-0.06421010,0.09299559,-0.0003
 5751,-0.00873876,-0.00872562,0.00746854,-0.00598340,0.00295930,0.00216
 333,-0.00023561,-0.00334624,-0.03498133,-0.00138400,0.02515159,0.00081
 818,0.00961385,0.01042028,-0.00007956,0.00029476,0.00018176,0.00043787
 ,0.00021660,0.00056375,-0.00048119,-0.00009446,-0.00003985,0.02899375,
 -0.00478925,-0.02377878,-0.02867385,-0.00532669,0.00121694,0.00298794,
 0.00426480,0.00141303,-0.00362808,-0.00148042,-0.09476394,-0.10333906,
 0.00172021,0.00991172,0.01269038,-0.00006085,0.00006797,0.00047543,-0.
 00025480,0.00019676,0.00139747,-0.00046786,-0.00003953,0.00036904,0.00
 496509,0.10742246,-0.00137178,-0.00361132,0.00150051,0.00443832,0.0016
 6020,0.00008886,0.00114918,0.00101640,0.00231626,0.02686042,-0.1043671
 6,-0.29573181,-0.00248987,-0.01260281,-0.01512887,-0.00028906,0.000124
 94,0.00026087,-0.00107041,-0.00071284,0.00000444,-0.00036720,-0.000064
 43,-0.00042475,-0.02576680,0.11719181,0.30682711,0.00622478,-0.0061574
 0,0.00313788,0.00333486,0.00435636,-0.00007525,0.00183478,0.00076007,0
 .00040256,-0.00181124,-0.00838811,-0.00429764,-0.08882718,-0.11917775,
 0.00017935,0.00009520,0.00008824,-0.00008920,-0.00027356,-0.00013838,0
 .00006903,-0.00008512,0.00027831,-0.00005684,-0.00342712,0.00176898,-0
 .00077500,0.08112794,-0.00384849,0.00453728,0.00097365,-0.00444924,-0.
 01222563,-0.00591866,-0.00017836,-0.00096515,-0.00017210,-0.00301485,-
 0.00836308,-0.00396016,-0.11634121,-0.30073312,-0.01208779,-0.00023585
 ,-0.00004722,0.00014684,0.00002420,0.00002891,0.00006746,0.00001470,-0
 .00012381,-0.00000588,0.00136036,-0.00056785,0.00101718,0.12644875,0.3
 1665110,0.00495418,-0.00018851,-0.00338088,-0.01366784,-0.03476024,-0.
 00522063,-0.00033204,0.00135299,0.00028573,0.00685542,0.02114818,0.009
 27923,0.00159328,-0.00742275,-0.05570696,0.00044374,0.00007872,-0.0002
 7727,0.00006815,0.00001327,-0.00010592,0.00005824,0.00002547,0.0000053
 2,-0.00094419,0.00010478,-0.00034042,0.00007367,0.02208109,0.06084235,
 -0.00200330,-0.00104698,-0.00207451,-0.09475051,-0.19050249,0.01345197
 ,-0.00075675,-0.00031292,0.00029596,0.00136134,0.00301990,0.00362234,0
 .00253423,0.00081075,-0.00284106,0.00000612,-0.00010420,0.00006559,0.0
 0010689,0.00002718,-0.00029617,-0.00011368,0.00015822,0.00019638,-0.00
 055497,-0.00033921,-0.00031779,0.00180666,0.00022000,0.00089738,0.0923
 6396,0.00020750,-0.00286230,0.00024627,-0.17907191,-0.42372469,0.00733
 756,-0.00023343,0.00000593,-0.00056752,0.00040404,0.00480231,0.0046773
 6,-0.00968865,-0.02515658,-0.00786412,-0.00011098,-0.00017068,0.000110
 19,0.00014171,-0.00003584,-0.00018528,0.00013549,0.00010468,-0.0000033
 0,-0.00001444,-0.00107876,0.00034803,0.00016092,0.00180857,-0.00243300
 ,0.18806974,0.44630736,-0.00167952,0.00206142,0.00188757,0.03158795,0.
 05086865,-0.04621017,0.00275948,0.00115240,0.00030644,-0.00115811,-0.0
 0528219,-0.00386050,-0.01819114,-0.04523881,-0.00331239,-0.00009087,-0
 .00014444,0.00003186,-0.00075861,-0.00007111,0.00059231,-0.00044656,0.
 00003772,0.00007585,-0.00045397,0.00042415,0.00062781,0.00143144,-0.00
 214163,-0.00538054,-0.01300009,-0.00166617,0.05524177\\-0.00000011,-0.
 00000080,0.00000003,-0.00000108,0.00000125,0.00000005,-0.00000066,0.00
 000044,-0.00000039,0.00000055,-0.00000016,-0.00000021,0.00000023,-0.00
 000025,-0.00000061,-0.00000134,0.00000057,-0.00000091,0.00000085,-0.00
 000100,0.00000008,0.,0.00000140,0.00000121,0.00000217,-0.00000169,0.00
 000075,0.00000125,-0.00000071,0.00000089,-0.00000186,0.00000096,-0.000
 00088\\\@


 WHERE THERE IS MUCH DESIRE TO LEARN, THERE OF NECESSITY WILL BE
 MUCH ARGUING, MUCH WRITING, MANY OPINIONS; FOR OPINION IN GOOD MEN
 IS BUT KNOWLEDGE IN THE MAKING. -- JOHN MILTON.
 Job cpu time:       0 days  0 hours 51 minutes 49.1 seconds.
 Elapsed time:       0 days  0 hours 25 minutes 55.6 seconds.
 File lengths (MBytes):  RWF=   1312 Int=      0 D2E=      0 Chk=     32 Scr=     32
 Normal termination of Gaussian 16 at Sat Aug 31 14:27:38 2019.
