 Entering Gaussian System, Link 0=g16
 Input=./species/COC=CO/conformers/COC=CO_12.com
 Output=./species/COC=CO/conformers/COC=CO_12.log
 Initial command:
 /shared/centos7/gaussian/g16/l1.exe "/scratch/harms.n/gauss_scrdir/Gau-44351.inp" -scrdir="/scratch/harms.n/gauss_scrdir/"
 Entering Link 1 = /shared/centos7/gaussian/g16/l1.exe PID=     44352.
  
 Copyright (c) 1988,1990,1992,1993,1995,1998,2003,2009,2016,
            Gaussian, Inc.  All Rights Reserved.
  
 This is part of the Gaussian(R) 16 program.  It is based on
 the Gaussian(R) 09 system (copyright 2009, Gaussian, Inc.),
 the Gaussian(R) 03 system (copyright 2003, Gaussian, Inc.),
 the Gaussian(R) 98 system (copyright 1998, Gaussian, Inc.),
 the Gaussian(R) 94 system (copyright 1995, Gaussian, Inc.),
 the Gaussian 92(TM) system (copyright 1992, Gaussian, Inc.),
 the Gaussian 90(TM) system (copyright 1990, Gaussian, Inc.),
 the Gaussian 88(TM) system (copyright 1988, Gaussian, Inc.),
 the Gaussian 86(TM) system (copyright 1986, Carnegie Mellon
 University), and the Gaussian 82(TM) system (copyright 1983,
 Carnegie Mellon University). Gaussian is a federally registered
 trademark of Gaussian, Inc.
  
 This software contains proprietary and confidential information,
 including trade secrets, belonging to Gaussian, Inc.
  
 This software is provided under written license and may be
 used, copied, transmitted, or stored only in accord with that
 written license.
  
 The following legend is applicable only to US Government
 contracts under FAR:
  
                    RESTRICTED RIGHTS LEGEND
  
 Use, reproduction and disclosure by the US Government is
 subject to restrictions as set forth in subparagraphs (a)
 and (c) of the Commercial Computer Software - Restricted
 Rights clause in FAR 52.227-19.
  
 Gaussian, Inc.
 340 Quinnipiac St., Bldg. 40, Wallingford CT 06492
  
  
 ---------------------------------------------------------------
 Warning -- This program may not be used in any manner that
 competes with the business of Gaussian, Inc. or will provide
 assistance to any competitor of Gaussian, Inc.  The licensee
 of this program is prohibited from giving any competitor of
 Gaussian, Inc. access to this program.  By using this program,
 the user acknowledges that Gaussian, Inc. is engaged in the
 business of creating and licensing software in the field of
 computational chemistry and represents and warrants to the
 licensee that it is not a competitor of Gaussian, Inc. and that
 it will not use this program in any manner prohibited above.
 ---------------------------------------------------------------
  

 Cite this work as:
 Gaussian 16, Revision A.03,
 M. J. Frisch, G. W. Trucks, H. B. Schlegel, G. E. Scuseria, 
 M. A. Robb, J. R. Cheeseman, G. Scalmani, V. Barone, 
 G. A. Petersson, H. Nakatsuji, X. Li, M. Caricato, A. V. Marenich, 
 J. Bloino, B. G. Janesko, R. Gomperts, B. Mennucci, H. P. Hratchian, 
 J. V. Ortiz, A. F. Izmaylov, J. L. Sonnenberg, D. Williams-Young, 
 F. Ding, F. Lipparini, F. Egidi, J. Goings, B. Peng, A. Petrone, 
 T. Henderson, D. Ranasinghe, V. G. Zakrzewski, J. Gao, N. Rega, 
 G. Zheng, W. Liang, M. Hada, M. Ehara, K. Toyota, R. Fukuda, 
 J. Hasegawa, M. Ishida, T. Nakajima, Y. Honda, O. Kitao, H. Nakai, 
 T. Vreven, K. Throssell, J. A. Montgomery, Jr., J. E. Peralta, 
 F. Ogliaro, M. J. Bearpark, J. J. Heyd, E. N. Brothers, K. N. Kudin, 
 V. N. Staroverov, T. A. Keith, R. Kobayashi, J. Normand, 
 K. Raghavachari, A. P. Rendell, J. C. Burant, S. S. Iyengar, 
 J. Tomasi, M. Cossi, J. M. Millam, M. Klene, C. Adamo, R. Cammi, 
 J. W. Ochterski, R. L. Martin, K. Morokuma, O. Farkas, 
 J. B. Foresman, and D. J. Fox, Gaussian, Inc., Wallingford CT, 2016.
 
 ******************************************
 Gaussian 16:  EM64L-G16RevA.03 25-Dec-2016
                31-Aug-2019 
 ******************************************
 %nprocshared=20
 Will use up to   20 processors via shared memory.
 %mem=5GB
 ----------------------------------------------------------------------
 #p m062x/cc-pVTZ opt=(calcfc,maxcycles=900,Tight) freq IOP(7/33=1,2/16
 =3) scf=(maxcycle=900)
 ----------------------------------------------------------------------
 1/6=900,7=10,10=4,18=20,19=15,26=3,38=1/1,3;
 2/9=110,12=2,16=3,17=6,18=5,40=1/2;
 3/5=16,6=1,11=2,25=1,30=1,71=2,74=-55,140=1/1,2,3;
 4//1;
 5/5=2,7=900,38=5/2;
 8/6=4,10=90,11=11/1;
 11/6=1,8=1,9=11,15=111,16=1/1,2,10;
 10/6=1,13=1/2;
 6/7=2,8=2,9=2,10=2,28=1/1;
 7/10=1,18=20,25=1,33=1/1,2,3,16;
 1/6=900,7=10,10=4,18=20,19=15,26=3/3(2);
 2/9=110,16=3/2;
 99//99;
 2/9=110,16=3/2;
 3/5=16,6=1,11=2,25=1,30=1,71=1,74=-55/1,2,3;
 4/5=5,16=3,69=1/1;
 5/5=2,7=900,38=5/2;
 7/33=1/1,2,3,16;
 1/6=900,7=10,18=20,19=15,26=3/3(-5);
 2/9=110,16=3/2;
 6/7=2,8=2,9=2,10=2,19=2,28=1/1;
 99/9=1/99;
 Leave Link    1 at Sat Aug 31 11:27:18 2019, MaxMem=   671088640 cpu:               7.4 elap:               3.7
 (Enter /shared/centos7/gaussian/g16/l101.exe)
 ------------------------------
 Gaussian input prepared by ASE
 ------------------------------
 Symbolic Z-matrix:
 Charge =  0 Multiplicity = 1
 O                     0.22563  -0.75617   1.14563 
 O                     2.48344   2.10048   0.84963 
 C                    -1.17194  -0.86934   0.86748 
 C                     0.69577   0.52939   0.90926 
 C                     1.95416   0.85236   1.09123 
 H                    -1.33188  -1.56776  -0.00376 
 H                    -1.68482  -1.32496   1.76193 
 H                    -1.6002    0.10823   0.64513 
 H                    -0.05304   1.24239   0.56964 
 H                     2.68324   0.15693   1.44858 
 H                     1.72797   2.67783   0.48917 
 
 ITRead=  0  0  0  0  0  0  0  0  0  0  0
 MicOpt= -1 -1 -1 -1 -1 -1 -1 -1 -1 -1 -1
 NAtoms=     11 NQM=       11 NQMF=       0 NMMI=      0 NMMIF=      0
                NMic=       0 NMicF=      0.
                    Isotopes and Nuclear Properties:
 (Nuclear quadrupole moments (NQMom) in fm**2, nuclear magnetic moments (NMagM)
  in nuclear magnetons)

  Atom         1           2           3           4           5           6           7           8           9          10
 IAtWgt=          16          16          12          12          12           1           1           1           1           1
 AtmWgt=  15.9949146  15.9949146  12.0000000  12.0000000  12.0000000   1.0078250   1.0078250   1.0078250   1.0078250   1.0078250
 NucSpn=           0           0           0           0           0           1           1           1           1           1
 AtZEff=  -0.0000000  -0.0000000  -0.0000000  -0.0000000  -0.0000000  -0.0000000  -0.0000000  -0.0000000  -0.0000000  -0.0000000
 NQMom=    0.0000000   0.0000000   0.0000000   0.0000000   0.0000000   0.0000000   0.0000000   0.0000000   0.0000000   0.0000000
 NMagM=    0.0000000   0.0000000   0.0000000   0.0000000   0.0000000   2.7928460   2.7928460   2.7928460   2.7928460   2.7928460
 AtZNuc=   8.0000000   8.0000000   6.0000000   6.0000000   6.0000000   1.0000000   1.0000000   1.0000000   1.0000000   1.0000000

  Atom        11
 IAtWgt=           1
 AtmWgt=   1.0078250
 NucSpn=           1
 AtZEff=  -0.0000000
 NQMom=    0.0000000
 NMagM=    2.7928460
 AtZNuc=   1.0000000
 Leave Link  101 at Sat Aug 31 11:27:20 2019, MaxMem=   671088640 cpu:               2.3 elap:               1.2
 (Enter /shared/centos7/gaussian/g16/l103.exe)

 GradGradGradGradGradGradGradGradGradGradGradGradGradGradGradGradGradGrad
 Berny optimization.
 Initialization pass.
                           ----------------------------
                           !    Initial Parameters    !
                           ! (Angstroms and Degrees)  !
 --------------------------                            --------------------------
 ! Name  Definition              Value          Derivative Info.                !
 --------------------------------------------------------------------------------
 ! R1    R(1,3)                  1.4295         calculate D2E/DX2 analytically  !
 ! R2    R(1,4)                  1.3891         calculate D2E/DX2 analytically  !
 ! R3    R(2,5)                  1.3771         calculate D2E/DX2 analytically  !
 ! R4    R(2,11)                 1.0169         calculate D2E/DX2 analytically  !
 ! R5    R(3,6)                  1.128          calculate D2E/DX2 analytically  !
 ! R6    R(3,7)                  1.1272         calculate D2E/DX2 analytically  !
 ! R7    R(3,8)                  1.0902         calculate D2E/DX2 analytically  !
 ! R8    R(4,5)                  1.3119         calculate D2E/DX2 analytically  !
 ! R9    R(4,9)                  1.0883         calculate D2E/DX2 analytically  !
 ! R10   R(5,10)                 1.0691         calculate D2E/DX2 analytically  !
 ! A1    A(3,1,4)              111.7806         calculate D2E/DX2 analytically  !
 ! A2    A(5,2,11)             106.9329         calculate D2E/DX2 analytically  !
 ! A3    A(1,3,6)              109.7507         calculate D2E/DX2 analytically  !
 ! A4    A(1,3,7)              108.8102         calculate D2E/DX2 analytically  !
 ! A5    A(1,3,8)              110.6568         calculate D2E/DX2 analytically  !
 ! A6    A(6,3,7)              107.3429         calculate D2E/DX2 analytically  !
 ! A7    A(6,3,8)              109.9969         calculate D2E/DX2 analytically  !
 ! A8    A(7,3,8)              110.2149         calculate D2E/DX2 analytically  !
 ! A9    A(1,4,5)              121.9312         calculate D2E/DX2 analytically  !
 ! A10   A(1,4,9)              115.2484         calculate D2E/DX2 analytically  !
 ! A11   A(5,4,9)              122.8197         calculate D2E/DX2 analytically  !
 ! A12   A(2,5,4)              124.5756         calculate D2E/DX2 analytically  !
 ! A13   A(2,5,10)             112.7135         calculate D2E/DX2 analytically  !
 ! A14   A(4,5,10)             122.7109         calculate D2E/DX2 analytically  !
 ! D1    D(4,1,3,6)            114.6256         calculate D2E/DX2 analytically  !
 ! D2    D(4,1,3,7)           -128.1876         calculate D2E/DX2 analytically  !
 ! D3    D(4,1,3,8)             -6.9534         calculate D2E/DX2 analytically  !
 ! D4    D(3,1,4,5)           -179.5132         calculate D2E/DX2 analytically  !
 ! D5    D(3,1,4,9)              0.7727         calculate D2E/DX2 analytically  !
 ! D6    D(11,2,5,4)            -1.6975         calculate D2E/DX2 analytically  !
 ! D7    D(11,2,5,10)          178.2746         calculate D2E/DX2 analytically  !
 ! D8    D(1,4,5,2)            178.6818         calculate D2E/DX2 analytically  !
 ! D9    D(1,4,5,10)            -1.2876         calculate D2E/DX2 analytically  !
 ! D10   D(9,4,5,2)             -1.6259         calculate D2E/DX2 analytically  !
 ! D11   D(9,4,5,10)           178.4047         calculate D2E/DX2 analytically  !
 --------------------------------------------------------------------------------
 Trust Radius=3.00D-01 FncErr=1.00D-07 GrdErr=1.00D-06 EigMax=2.50D+02 EigMin=1.00D-04
 Number of steps in this run=    100 maximum allowed number of steps=    100.
 GradGradGradGradGradGradGradGradGradGradGradGradGradGradGradGradGradGrad

 Leave Link  103 at Sat Aug 31 11:27:21 2019, MaxMem=   671088640 cpu:               1.8 elap:               0.9
 (Enter /shared/centos7/gaussian/g16/l202.exe)
                          Input orientation:                          
 ---------------------------------------------------------------------
 Center     Atomic      Atomic             Coordinates (Angstroms)
 Number     Number       Type             X           Y           Z
 ---------------------------------------------------------------------
      1          8           0        0.225629   -0.756174    1.145634
      2          8           0        2.483443    2.100479    0.849635
      3          6           0       -1.171938   -0.869336    0.867480
      4          6           0        0.695774    0.529389    0.909256
      5          6           0        1.954164    0.852362    1.091232
      6          1           0       -1.331876   -1.567756   -0.003759
      7          1           0       -1.684825   -1.324957    1.761934
      8          1           0       -1.600198    0.108233    0.645125
      9          1           0       -0.053037    1.242392    0.569643
     10          1           0        2.683237    0.156929    1.448582
     11          1           0        1.727969    2.677832    0.489167
 ---------------------------------------------------------------------
                    Distance matrix (angstroms):
                    1          2          3          4          5
     1  O    0.000000
     2  O    3.653192   0.000000
     3  C    1.429464   4.709770   0.000000
     4  C    1.389094   2.380680   2.333779   0.000000
     5  C    2.361818   1.377063   3.575867   1.311858   0.000000
     6  H    2.098950   5.361054   1.128020   3.056629   4.225404
     7  H    2.086426   5.471779   1.127250   3.135748   4.293344
     8  H    2.081190   4.548295   1.090179   2.349175   3.658719
     9  H    2.098496   2.692293   2.408327   1.088314   2.110222
    10  H    2.639199   2.043537   4.031535   2.092751   1.069052
    11  H    3.805308   1.016866   4.597280   2.420270   1.935456
                    6          7          8          9         10
     6  H    0.000000
     7  H    1.816920   0.000000
     8  H    1.817137   1.818917   0.000000
     9  H    3.140247   3.267349   1.919822   0.000000
    10  H    4.604885   4.623217   4.358409   3.072126   0.000000
    11  H    5.256486   5.411970   4.207595   2.288875   2.861462
                   11
    11  H    0.000000
 Stoichiometry    C3H6O2
 Framework group  C1[X(C3H6O2)]
 Deg. of freedom    27
 Full point group                 C1      NOp   1
 Largest Abelian subgroup         C1      NOp   1
 Largest concise Abelian subgroup C1      NOp   1
                         Standard orientation:                         
 ---------------------------------------------------------------------
 Center     Atomic      Atomic             Coordinates (Angstroms)
 Number     Number       Type             X           Y           Z
 ---------------------------------------------------------------------
      1          8           0        1.136269   -0.561423    0.005571
      2          8           0       -2.429841    0.231466    0.004852
      3          6           0        2.279477    0.296735    0.002839
      4          6           0       -0.050279    0.160627   -0.012662
      5          6           0       -1.221845   -0.429570   -0.004181
      6          1           0        2.842732    0.184438    0.973695
      7          1           0        2.972381   -0.023535   -0.826621
      8          1           0        1.980111    1.335708   -0.136462
      9          1           0        0.065020    1.242490   -0.039216
     10          1           0       -1.333105   -1.492816   -0.003122
     11          1           0       -2.222680    1.226625    0.032370
 ---------------------------------------------------------------------
 Rotational constants (GHZ):          27.7896551           2.2499928           2.1104748
 Leave Link  202 at Sat Aug 31 11:27:23 2019, MaxMem=   671088640 cpu:               4.4 elap:               2.2
 (Enter /shared/centos7/gaussian/g16/l301.exe)
 Standard basis: CC-pVTZ (5D, 7F)
 Ernie: Thresh=  0.10000D-02 Tol=  0.10000D-05 Strict=F.
 Ernie:  15 primitive shells out of 178 were deleted.
 There are   265 symmetry adapted cartesian basis functions of A   symmetry.
 There are   234 symmetry adapted basis functions of A   symmetry.
   234 basis functions,   362 primitive gaussians,   265 cartesian basis functions
    20 alpha electrons       20 beta electrons
       nuclear repulsion energy       171.4219572442 Hartrees.
 IExCor= 4336 DFT=T Ex+Corr=M062X ExCW=0 ScaHFX=  0.540000
 ScaDFX=  1.000000  1.000000  1.000000  1.000000 ScalE2=  1.000000  1.000000
 IRadAn=      5 IRanWt=     -1 IRanGd=            0 ICorTp=0 IEmpDi=  4
 NAtoms=   11 NActive=   11 NUniq=   11 SFac= 1.00D+00 NAtFMM=   60 NAOKFM=F Big=F
 Integral buffers will be    131072 words long.
 Raffenetti 2 integral format.
 Two-electron integral symmetry is turned on.
 Leave Link  301 at Sat Aug 31 11:27:24 2019, MaxMem=   671088640 cpu:               1.5 elap:               0.7
 (Enter /shared/centos7/gaussian/g16/l302.exe)
 NPDir=0 NMtPBC=     1 NCelOv=     1 NCel=       1 NClECP=     1 NCelD=      1
         NCelK=      1 NCelE2=     1 NClLst=     1 CellRange=     0.0.
 One-electron integrals computed using PRISM.
 One-electron integral symmetry used in STVInt
 NBasis=   234 RedAO= T EigKep=  2.60D-04  NBF=   234
 NBsUse=   234 1.00D-06 EigRej= -1.00D+00 NBFU=   234
 Precomputing XC quadrature grid using
 IXCGrd= 4 IRadAn=           5 IRanWt=          -1 IRanGd=           0 AccXCQ= 0.00D+00.
 Generated NRdTot=       0 NPtTot=           0 NUsed=           0 NTot=          32
 NSgBfM=   265   265   265   265   265 MxSgAt=    11 MxSgA2=    11.
 Leave Link  302 at Sat Aug 31 11:28:14 2019, MaxMem=   671088640 cpu:             100.5 elap:              50.3
 (Enter /shared/centos7/gaussian/g16/l303.exe)
 DipDrv:  MaxL=1.
 Leave Link  303 at Sat Aug 31 11:28:20 2019, MaxMem=   671088640 cpu:              11.5 elap:               5.8
 (Enter /shared/centos7/gaussian/g16/l401.exe)
 ExpMin= 1.03D-01 ExpMax= 1.53D+04 ExpMxC= 5.22D+02 IAcc=3 IRadAn=         5 AccDes= 0.00D+00
 Harris functional with IExCor= 1009 and IRadAn=       5 diagonalized for initial guess.
 HarFok:  IExCor= 1009 AccDes= 0.00D+00 IRadAn=         5 IDoV= 1 UseB2=F ITyADJ=14
 ICtDFT=  3500011 ScaDFX=  1.000000  1.000000  1.000000  1.000000
 FoFCou: FMM=F IPFlag=           0 FMFlag=      100000 FMFlg1=           0
         NFxFlg=           0 DoJE=T BraDBF=F KetDBF=T FulRan=T
         wScrn=  0.000000 ICntrl=       500 IOpCl=  0 I1Cent=   200000004 NGrid=           0
         NMat0=    1 NMatS0=      1 NMatT0=    0 NMatD0=    1 NMtDS0=    0 NMtDT0=    0
 Petite list used in FoFCou.
 Harris En= -268.195728938001    
 JPrj=0 DoOrth=F DoCkMO=F.
 Leave Link  401 at Sat Aug 31 11:28:44 2019, MaxMem=   671088640 cpu:              47.2 elap:              23.6
 (Enter /shared/centos7/gaussian/g16/l502.exe)
 Keep R1 ints in memory in canonical form, NReq=399924305.
 FoFCou: FMM=F IPFlag=           0 FMFlag=           0 FMFlg1=           0
         NFxFlg=           0 DoJE=F BraDBF=F KetDBF=F FulRan=T
         wScrn=  0.000000 ICntrl=       600 IOpCl=  0 I1Cent=           0 NGrid=           0
         NMat0=    1 NMatS0=  27495 NMatT0=    0 NMatD0=    1 NMtDS0=    0 NMtDT0=    0
 Symmetry not used in FoFCou.
 Two-electron integral symmetry not used.
 Closed shell SCF:
 Using DIIS extrapolation, IDIIS=  1040.
 NGot=   671088640 LenX=   292939207 LenY=   292868541
 Requested convergence on RMS density matrix=1.00D-08 within 900 cycles.
 Requested convergence on MAX density matrix=1.00D-06.
 Requested convergence on             energy=1.00D-06.
 No special actions if energy rises.
 Integral accuracy reduced to 1.0D-05 until final iterations.

 Cycle   1  Pass 0  IDiag  1:
 E= -268.180290458748    
 DIIS: error= 2.00D-02 at cycle   1 NSaved=   1.
 NSaved= 1 IEnMin= 1 EnMin= -268.180290458748     IErMin= 1 ErrMin= 2.00D-02
 ErrMax= 2.00D-02  0.00D+00 EMaxC= 1.00D-01 BMatC= 1.73D-01 BMatP= 1.73D-01
 IDIUse=3 WtCom= 8.00D-01 WtEn= 2.00D-01
 Coeff-Com:  0.100D+01
 Coeff-En:   0.100D+01
 Coeff:      0.100D+01
 Gap=     0.345 Goal=   None    Shift=    0.000
 GapD=    0.345 DampG=1.000 DampE=0.500 DampFc=0.5000 IDamp=-1.
 Damping current iteration by 5.00D-01
 RMSDP=1.85D-03 MaxDP=6.28D-02              OVMax= 1.16D-01

 Cycle   2  Pass 0  IDiag  1:
 E= -268.246248609685     Delta-E=       -0.065958150937 Rises=F Damp=T
 DIIS: error= 4.94D-03 at cycle   2 NSaved=   2.
 NSaved= 2 IEnMin= 2 EnMin= -268.246248609685     IErMin= 2 ErrMin= 4.94D-03
 ErrMax= 4.94D-03  0.00D+00 EMaxC= 1.00D-01 BMatC= 1.63D-02 BMatP= 1.73D-01
 IDIUse=3 WtCom= 9.51D-01 WtEn= 4.94D-02
 Coeff-Com: -0.172D+00 0.117D+01
 Coeff-En:   0.000D+00 0.100D+01
 Coeff:     -0.164D+00 0.116D+01
 Gap=     0.324 Goal=   None    Shift=    0.000
 RMSDP=3.85D-04 MaxDP=9.50D-03 DE=-6.60D-02 OVMax= 5.41D-02

 Cycle   3  Pass 0  IDiag  1:
 E= -268.303738627460     Delta-E=       -0.057490017775 Rises=F Damp=F
 DIIS: error= 3.38D-03 at cycle   3 NSaved=   3.
 NSaved= 3 IEnMin= 3 EnMin= -268.303738627460     IErMin= 3 ErrMin= 3.38D-03
 ErrMax= 3.38D-03  0.00D+00 EMaxC= 1.00D-01 BMatC= 3.83D-03 BMatP= 1.63D-02
 IDIUse=3 WtCom= 9.66D-01 WtEn= 3.38D-02
 Coeff-Com: -0.116D+00 0.393D+00 0.723D+00
 Coeff-En:   0.000D+00 0.000D+00 0.100D+01
 Coeff:     -0.112D+00 0.379D+00 0.733D+00
 Gap=     0.325 Goal=   None    Shift=    0.000
 RMSDP=1.64D-04 MaxDP=5.88D-03 DE=-5.75D-02 OVMax= 1.90D-02

 Cycle   4  Pass 0  IDiag  1:
 E= -268.305546257657     Delta-E=       -0.001807630198 Rises=F Damp=F
 DIIS: error= 1.47D-03 at cycle   4 NSaved=   4.
 NSaved= 4 IEnMin= 4 EnMin= -268.305546257657     IErMin= 4 ErrMin= 1.47D-03
 ErrMax= 1.47D-03  0.00D+00 EMaxC= 1.00D-01 BMatC= 9.49D-04 BMatP= 3.83D-03
 IDIUse=3 WtCom= 9.85D-01 WtEn= 1.47D-02
 Coeff-Com: -0.369D-01 0.899D-01 0.377D+00 0.570D+00
 Coeff-En:   0.000D+00 0.000D+00 0.208D+00 0.792D+00
 Coeff:     -0.363D-01 0.886D-01 0.374D+00 0.574D+00
 Gap=     0.320 Goal=   None    Shift=    0.000
 RMSDP=7.04D-05 MaxDP=2.88D-03 DE=-1.81D-03 OVMax= 8.23D-03

 Cycle   5  Pass 0  IDiag  1:
 E= -268.306281132178     Delta-E=       -0.000734874520 Rises=F Damp=F
 DIIS: error= 2.05D-04 at cycle   5 NSaved=   5.
 NSaved= 5 IEnMin= 5 EnMin= -268.306281132178     IErMin= 5 ErrMin= 2.05D-04
 ErrMax= 2.05D-04  0.00D+00 EMaxC= 1.00D-01 BMatC= 1.21D-05 BMatP= 9.49D-04
 IDIUse=3 WtCom= 9.98D-01 WtEn= 2.05D-03
 Coeff-Com: -0.572D-02 0.112D-01 0.815D-01 0.177D+00 0.736D+00
 Coeff-En:   0.000D+00 0.000D+00 0.000D+00 0.000D+00 0.100D+01
 Coeff:     -0.571D-02 0.112D-01 0.814D-01 0.177D+00 0.736D+00
 Gap=     0.320 Goal=   None    Shift=    0.000
 RMSDP=1.24D-05 MaxDP=4.49D-04 DE=-7.35D-04 OVMax= 1.85D-03

 Cycle   6  Pass 0  IDiag  1:
 E= -268.306290064206     Delta-E=       -0.000008932029 Rises=F Damp=F
 DIIS: error= 8.92D-05 at cycle   6 NSaved=   6.
 NSaved= 6 IEnMin= 6 EnMin= -268.306290064206     IErMin= 6 ErrMin= 8.92D-05
 ErrMax= 8.92D-05  0.00D+00 EMaxC= 1.00D-01 BMatC= 3.03D-06 BMatP= 1.21D-05
 IDIUse=1 WtCom= 1.00D+00 WtEn= 0.00D+00
 Coeff-Com: -0.643D-03 0.264D-04 0.200D-01 0.618D-01 0.399D+00 0.520D+00
 Coeff:     -0.643D-03 0.264D-04 0.200D-01 0.618D-01 0.399D+00 0.520D+00
 Gap=     0.320 Goal=   None    Shift=    0.000
 RMSDP=4.16D-06 MaxDP=1.49D-04 DE=-8.93D-06 OVMax= 5.54D-04

 Initial convergence to 1.0D-05 achieved.  Increase integral accuracy.
 Cycle   7  Pass 1  IDiag  1:
 E= -268.306307478219     Delta-E=       -0.000017414013 Rises=F Damp=F
 DIIS: error= 2.24D-05 at cycle   1 NSaved=   1.
 NSaved= 1 IEnMin= 1 EnMin= -268.306307478219     IErMin= 1 ErrMin= 2.24D-05
 ErrMax= 2.24D-05  0.00D+00 EMaxC= 1.00D-01 BMatC= 2.44D-07 BMatP= 2.44D-07
 IDIUse=1 WtCom= 1.00D+00 WtEn= 0.00D+00
 Coeff-Com:  0.100D+01
 Coeff:      0.100D+01
 Gap=     0.320 Goal=   None    Shift=    0.000
 RMSDP=4.16D-06 MaxDP=1.49D-04 DE=-1.74D-05 OVMax= 2.03D-04

 Cycle   8  Pass 1  IDiag  1:
 E= -268.306307607066     Delta-E=       -0.000000128847 Rises=F Damp=F
 DIIS: error= 1.71D-05 at cycle   2 NSaved=   2.
 NSaved= 2 IEnMin= 2 EnMin= -268.306307607066     IErMin= 2 ErrMin= 1.71D-05
 ErrMax= 1.71D-05  0.00D+00 EMaxC= 1.00D-01 BMatC= 1.00D-07 BMatP= 2.44D-07
 IDIUse=1 WtCom= 1.00D+00 WtEn= 0.00D+00
 Coeff-Com:  0.337D+00 0.663D+00
 Coeff:      0.337D+00 0.663D+00
 Gap=     0.320 Goal=   None    Shift=    0.000
 RMSDP=1.12D-06 MaxDP=3.09D-05 DE=-1.29D-07 OVMax= 1.34D-04

 Cycle   9  Pass 1  IDiag  1:
 E= -268.306307654219     Delta-E=       -0.000000047152 Rises=F Damp=F
 DIIS: error= 1.20D-05 at cycle   3 NSaved=   3.
 NSaved= 3 IEnMin= 3 EnMin= -268.306307654219     IErMin= 3 ErrMin= 1.20D-05
 ErrMax= 1.20D-05  0.00D+00 EMaxC= 1.00D-01 BMatC= 3.43D-08 BMatP= 1.00D-07
 IDIUse=1 WtCom= 1.00D+00 WtEn= 0.00D+00
 Coeff-Com: -0.308D-01 0.366D+00 0.665D+00
 Coeff:     -0.308D-01 0.366D+00 0.665D+00
 Gap=     0.320 Goal=   None    Shift=    0.000
 RMSDP=4.80D-07 MaxDP=1.71D-05 DE=-4.72D-08 OVMax= 6.97D-05

 Cycle  10  Pass 1  IDiag  1:
 E= -268.306307680527     Delta-E=       -0.000000026309 Rises=F Damp=F
 DIIS: error= 1.25D-06 at cycle   4 NSaved=   4.
 NSaved= 4 IEnMin= 4 EnMin= -268.306307680527     IErMin= 4 ErrMin= 1.25D-06
 ErrMax= 1.25D-06  0.00D+00 EMaxC= 1.00D-01 BMatC= 3.36D-10 BMatP= 3.43D-08
 IDIUse=1 WtCom= 1.00D+00 WtEn= 0.00D+00
 Coeff-Com: -0.139D-01 0.552D-01 0.150D+00 0.809D+00
 Coeff:     -0.139D-01 0.552D-01 0.150D+00 0.809D+00
 Gap=     0.320 Goal=   None    Shift=    0.000
 RMSDP=6.51D-08 MaxDP=2.48D-06 DE=-2.63D-08 OVMax= 9.77D-06

 Cycle  11  Pass 1  IDiag  1:
 E= -268.306307680851     Delta-E=       -0.000000000324 Rises=F Damp=F
 DIIS: error= 4.63D-07 at cycle   5 NSaved=   5.
 NSaved= 5 IEnMin= 5 EnMin= -268.306307680851     IErMin= 5 ErrMin= 4.63D-07
 ErrMax= 4.63D-07  0.00D+00 EMaxC= 1.00D-01 BMatC= 9.33D-11 BMatP= 3.36D-10
 IDIUse=1 WtCom= 1.00D+00 WtEn= 0.00D+00
 Coeff-Com: -0.243D-02-0.243D-01-0.160D-01 0.343D+00 0.700D+00
 Coeff:     -0.243D-02-0.243D-01-0.160D-01 0.343D+00 0.700D+00
 Gap=     0.320 Goal=   None    Shift=    0.000
 RMSDP=3.18D-08 MaxDP=9.60D-07 DE=-3.24D-10 OVMax= 3.84D-06

 Cycle  12  Pass 1  IDiag  1:
 E= -268.306307680928     Delta-E=       -0.000000000077 Rises=F Damp=F
 DIIS: error= 1.98D-07 at cycle   6 NSaved=   6.
 NSaved= 6 IEnMin= 6 EnMin= -268.306307680928     IErMin= 6 ErrMin= 1.98D-07
 ErrMax= 1.98D-07  0.00D+00 EMaxC= 1.00D-01 BMatC= 1.34D-11 BMatP= 9.33D-11
 IDIUse=1 WtCom= 1.00D+00 WtEn= 0.00D+00
 Coeff-Com:  0.164D-02-0.212D-01-0.325D-01 0.942D-02 0.316D+00 0.727D+00
 Coeff:      0.164D-02-0.212D-01-0.325D-01 0.942D-02 0.316D+00 0.727D+00
 Gap=     0.320 Goal=   None    Shift=    0.000
 RMSDP=1.13D-08 MaxDP=3.56D-07 DE=-7.70D-11 OVMax= 1.52D-06

 Cycle  13  Pass 1  IDiag  1:
 E= -268.306307680936     Delta-E=       -0.000000000007 Rises=F Damp=F
 DIIS: error= 2.28D-08 at cycle   7 NSaved=   7.
 NSaved= 7 IEnMin= 7 EnMin= -268.306307680936     IErMin= 7 ErrMin= 2.28D-08
 ErrMax= 2.28D-08  0.00D+00 EMaxC= 1.00D-01 BMatC= 2.28D-13 BMatP= 1.34D-11
 IDIUse=1 WtCom= 1.00D+00 WtEn= 0.00D+00
 Coeff-Com:  0.487D-03-0.499D-02-0.790D-02-0.817D-02 0.666D-01 0.187D+00
 Coeff-Com:  0.767D+00
 Coeff:      0.487D-03-0.499D-02-0.790D-02-0.817D-02 0.666D-01 0.187D+00
 Coeff:      0.767D+00
 Gap=     0.320 Goal=   None    Shift=    0.000
 RMSDP=1.92D-09 MaxDP=5.42D-08 DE=-7.33D-12 OVMax= 1.54D-07

 SCF Done:  E(RM062X) =  -268.306307681     A.U. after   13 cycles
            NFock= 13  Conv=0.19D-08     -V/T= 2.0061
 KE= 2.666836229099D+02 PE=-9.711575169066D+02 EE= 2.647456290716D+02
 Leave Link  502 at Sat Aug 31 11:33:23 2019, MaxMem=   671088640 cpu:             550.2 elap:             279.1
 (Enter /shared/centos7/gaussian/g16/l801.exe)
 DoSCS=F DFT=T ScalE2(SS,OS)=  1.000000  1.000000
 Range of M.O.s used for correlation:     1   234
 NBasis=   234 NAE=    20 NBE=    20 NFC=     0 NFV=     0
 NROrb=    234 NOA=    20 NOB=    20 NVA=   214 NVB=   214

 **** Warning!!: The largest alpha MO coefficient is  0.15370914D+02

 Leave Link  801 at Sat Aug 31 11:33:23 2019, MaxMem=   671088640 cpu:               1.4 elap:               0.7
 (Enter /shared/centos7/gaussian/g16/l1101.exe)
 Using compressed storage, NAtomX=    11.
 Will process     12 centers per pass.
 Leave Link 1101 at Sat Aug 31 11:33:49 2019, MaxMem=   671088640 cpu:              50.1 elap:              25.1
 (Enter /shared/centos7/gaussian/g16/l1102.exe)
 Symmetrizing basis deriv contribution to polar:
 IMax=3 JMax=2 DiffMx= 0.00D+00
 Leave Link 1102 at Sat Aug 31 11:33:52 2019, MaxMem=   671088640 cpu:               6.2 elap:               3.1
 (Enter /shared/centos7/gaussian/g16/l1110.exe)
 Forming Gx(P) for the SCF density, NAtomX=    11.
 Integral derivatives from FoFJK, PRISM(SPDF).
 Do as many integral derivatives as possible in FoFJK.
 G2DrvN: MDV=     671087712.
 G2DrvN: will do    12 centers at a time, making    1 passes.
 Calling FoFCou, ICntrl=  3107 FMM=F I1Cent=   0 AccDes= 0.00D+00.
 FoFJK:  IHMeth= 1 ICntrl=    3107 DoSepK=F KAlg= 0 I1Cent=           0 FoldK=F
 IRaf=         0 NMat=       1 IRICut=       1 DoRegI=T DoRafI=F ISym2E= 0 IDoP0=0 IntGTp=1.
 FoFCou: FMM=F IPFlag=           0 FMFlag=      100000 FMFlg1=           0
         NFxFlg=           0 DoJE=F BraDBF=F KetDBF=F FulRan=T
         wScrn=  0.000000 ICntrl=      3107 IOpCl=  0 I1Cent=           0 NGrid=           0
         NMat0=    1 NMatS0=      1 NMatT0=    0 NMatD0=    1 NMtDS0=    0 NMtDT0=    0
 Symmetry not used in FoFCou.
 End of G2Drv F.D. properties file   721 does not exist.
 End of G2Drv F.D. properties file   722 does not exist.
 End of G2Drv F.D. properties file   788 does not exist.
 Leave Link 1110 at Sat Aug 31 11:38:45 2019, MaxMem=   671088640 cpu:             586.7 elap:             293.4
 (Enter /shared/centos7/gaussian/g16/l1002.exe)
 Minotr:  Closed shell wavefunction.
          IDoAtm=11111111111
          Direct CPHF calculation.
          Differentiating once with respect to nuclear coordinates.
          Requested convergence is 1.0D-08 RMS, and 1.0D-07 maximum.
          Secondary convergence is 1.0D-12 RMS, and 1.0D-12 maximum.
          NewPWx=T KeepS1=F KeepF1=F KeepIn=T MapXYZ=F SortEE=F KeepMc=T.
         3279 words used for storage of precomputed grid.
 Keep R1 ints in memory in canonical form, NReq=399865278.
 FoFCou: FMM=F IPFlag=           0 FMFlag=           0 FMFlg1=           0
         NFxFlg=           0 DoJE=F BraDBF=F KetDBF=F FulRan=T
         wScrn=  0.000000 ICntrl=       600 IOpCl=  0 I1Cent=           0 NGrid=           0
         NMat0=    1 NMatS0=  27495 NMatT0=    0 NMatD0=    1 NMtDS0=    0 NMtDT0=    0
 Symmetry not used in FoFCou.
 Two-electron integral symmetry not used.
          MDV=     671088640 using IRadAn=       1.
          Solving linear equations simultaneously, MaxMat=       0.
          There are    36 degrees of freedom in the 1st order CPHF.  IDoFFX=6 NUNeed=     0.
     30 vectors produced by pass  0 Test12= 1.19D-14 2.78D-09 XBig12= 6.46D-02 7.63D-02.
 AX will form    30 AO Fock derivatives at one time.
     30 vectors produced by pass  1 Test12= 1.19D-14 2.78D-09 XBig12= 1.10D-02 3.28D-02.
     30 vectors produced by pass  2 Test12= 1.19D-14 2.78D-09 XBig12= 4.32D-04 4.54D-03.
     30 vectors produced by pass  3 Test12= 1.19D-14 2.78D-09 XBig12= 4.83D-06 3.97D-04.
     30 vectors produced by pass  4 Test12= 1.19D-14 2.78D-09 XBig12= 4.09D-08 3.14D-05.
     30 vectors produced by pass  5 Test12= 1.19D-14 2.78D-09 XBig12= 1.98D-10 1.94D-06.
     19 vectors produced by pass  6 Test12= 1.19D-14 2.78D-09 XBig12= 9.51D-13 1.52D-07.
      4 vectors produced by pass  7 Test12= 1.19D-14 2.78D-09 XBig12= 3.83D-15 9.41D-09.
 InvSVY:  IOpt=1 It=  1 EMax= 1.33D-15
 Solved reduced A of dimension   203 with    30 vectors.
 End of Minotr F.D. properties file   721 does not exist.
 End of Minotr F.D. properties file   722 does not exist.
 End of Minotr F.D. properties file   788 does not exist.
 Leave Link 1002 at Sat Aug 31 11:45:38 2019, MaxMem=   671088640 cpu:             824.8 elap:             412.5
 (Enter /shared/centos7/gaussian/g16/l601.exe)
 Copying SCF densities to generalized density rwf, IOpCl= 0 IROHF=0.

 **********************************************************************

            Population analysis using the SCF density.

 **********************************************************************

 Orbital symmetries:
       Occupied  (A) (A) (A) (A) (A) (A) (A) (A) (A) (A) (A) (A)
                 (A) (A) (A) (A) (A) (A) (A) (A)
       Virtual   (A) (A) (A) (A) (A) (A) (A) (A) (A) (A) (A) (A)
                 (A) (A) (A) (A) (A) (A) (A) (A) (A) (A) (A) (A)
                 (A) (A) (A) (A) (A) (A) (A) (A) (A) (A) (A) (A)
                 (A) (A) (A) (A) (A) (A) (A) (A) (A) (A) (A) (A)
                 (A) (A) (A) (A) (A) (A) (A) (A) (A) (A) (A) (A)
                 (A) (A) (A) (A) (A) (A) (A) (A) (A) (A) (A) (A)
                 (A) (A) (A) (A) (A) (A) (A) (A) (A) (A) (A) (A)
                 (A) (A) (A) (A) (A) (A) (A) (A) (A) (A) (A) (A)
                 (A) (A) (A) (A) (A) (A) (A) (A) (A) (A) (A) (A)
                 (A) (A) (A) (A) (A) (A) (A) (A) (A) (A) (A) (A)
                 (A) (A) (A) (A) (A) (A) (A) (A) (A) (A) (A) (A)
                 (A) (A) (A) (A) (A) (A) (A) (A) (A) (A) (A) (A)
                 (A) (A) (A) (A) (A) (A) (A) (A) (A) (A) (A) (A)
                 (A) (A) (A) (A) (A) (A) (A) (A) (A) (A) (A) (A)
                 (A) (A) (A) (A) (A) (A) (A) (A) (A) (A) (A) (A)
                 (A) (A) (A) (A) (A) (A) (A) (A) (A) (A) (A) (A)
                 (A) (A) (A) (A) (A) (A) (A) (A) (A) (A) (A) (A)
                 (A) (A) (A) (A) (A) (A) (A) (A) (A) (A)
 The electronic state is 1-A.
 Alpha  occ. eigenvalues --  -19.65011 -19.64733 -10.59718 -10.58168 -10.58000
 Alpha  occ. eigenvalues --   -1.17540  -1.16133  -0.85851  -0.76916  -0.69279
 Alpha  occ. eigenvalues --   -0.60415  -0.58273  -0.53375  -0.50831  -0.48420
 Alpha  occ. eigenvalues --   -0.46899  -0.43796  -0.41947  -0.40024  -0.26306
 Alpha virt. eigenvalues --    0.05735   0.07461   0.08103   0.10357   0.12614
 Alpha virt. eigenvalues --    0.13781   0.13970   0.19226   0.23825   0.27086
 Alpha virt. eigenvalues --    0.27277   0.28984   0.31484   0.35466   0.36264
 Alpha virt. eigenvalues --    0.38679   0.42003   0.43491   0.44708   0.45849
 Alpha virt. eigenvalues --    0.47022   0.47533   0.48923   0.49576   0.53238
 Alpha virt. eigenvalues --    0.56446   0.56809   0.58481   0.61273   0.62129
 Alpha virt. eigenvalues --    0.63738   0.65354   0.70329   0.73255   0.73745
 Alpha virt. eigenvalues --    0.77511   0.78147   0.82771   0.83346   0.88290
 Alpha virt. eigenvalues --    0.90413   0.91376   0.92181   0.98867   0.99563
 Alpha virt. eigenvalues --    1.00114   1.04895   1.06910   1.07510   1.08698
 Alpha virt. eigenvalues --    1.12117   1.14874   1.19013   1.22187   1.25920
 Alpha virt. eigenvalues --    1.27254   1.28188   1.29481   1.33294   1.34692
 Alpha virt. eigenvalues --    1.35895   1.37626   1.41994   1.44918   1.46922
 Alpha virt. eigenvalues --    1.51275   1.55554   1.59101   1.72974   1.79473
 Alpha virt. eigenvalues --    1.81111   1.88428   1.90854   1.98666   1.99171
 Alpha virt. eigenvalues --    2.02064   2.11343   2.11967   2.14155   2.19911
 Alpha virt. eigenvalues --    2.22212   2.23480   2.30119   2.34100   2.35129
 Alpha virt. eigenvalues --    2.37746   2.46510   2.50223   2.55130   2.57840
 Alpha virt. eigenvalues --    2.59493   2.61756   2.67340   2.75085   2.75547
 Alpha virt. eigenvalues --    2.77617   2.80239   2.82662   2.84751   2.86801
 Alpha virt. eigenvalues --    2.87943   2.90213   2.92305   2.93211   2.96463
 Alpha virt. eigenvalues --    3.00086   3.00691   3.03226   3.07603   3.09588
 Alpha virt. eigenvalues --    3.10931   3.16944   3.17870   3.18506   3.20723
 Alpha virt. eigenvalues --    3.21243   3.24013   3.26538   3.27808   3.29194
 Alpha virt. eigenvalues --    3.29971   3.33500   3.37504   3.38381   3.39012
 Alpha virt. eigenvalues --    3.40953   3.44511   3.46150   3.47746   3.53035
 Alpha virt. eigenvalues --    3.54966   3.59626   3.61929   3.68537   3.70013
 Alpha virt. eigenvalues --    3.72057   3.72749   3.75635   3.79445   3.80874
 Alpha virt. eigenvalues --    3.80962   3.85310   3.88502   3.89601   3.91068
 Alpha virt. eigenvalues --    3.94822   3.98120   3.99835   4.02788   4.04010
 Alpha virt. eigenvalues --    4.09725   4.13510   4.17089   4.19659   4.20846
 Alpha virt. eigenvalues --    4.24878   4.30702   4.42403   4.44158   4.48188
 Alpha virt. eigenvalues --    4.53344   4.57080   4.58686   4.62520   4.71506
 Alpha virt. eigenvalues --    4.78665   4.80729   4.82737   4.83899   4.88866
 Alpha virt. eigenvalues --    4.89922   4.95098   4.99901   5.01200   5.03935
 Alpha virt. eigenvalues --    5.05016   5.09823   5.19676   5.26221   5.26876
 Alpha virt. eigenvalues --    5.40458   5.44520   5.47661   5.51119   5.55758
 Alpha virt. eigenvalues --    5.69613   5.75722   5.78443   5.80639   5.88209
 Alpha virt. eigenvalues --    5.91785   5.95288   6.11869   6.27063   6.36452
 Alpha virt. eigenvalues --    6.39614   6.47818   6.58230   6.64683   6.70970
 Alpha virt. eigenvalues --    6.75887   6.76532   6.78509   6.90462   7.03730
 Alpha virt. eigenvalues --    7.11832   7.21751   7.27272   7.35875  10.31902
 Alpha virt. eigenvalues --   10.91653  11.61923  12.91311  14.15903
          Condensed to atoms (all electrons):
               1          2          3          4          5          6
     1  O    7.863115   0.002273   0.303129   0.319540  -0.065140  -0.040273
     2  O    0.002273   7.795129  -0.000083  -0.078037   0.354575   0.000002
     3  C    0.303129  -0.000083   4.686130  -0.063884   0.004891   0.397622
     4  C    0.319540  -0.078037  -0.063884   4.929514   0.633967   0.003410
     5  C   -0.065140   0.354575   0.004891   0.633967   4.781976   0.000425
     6  H   -0.040273   0.000002   0.397622   0.003410   0.000425   0.641383
     7  H   -0.037111   0.000005   0.396369   0.004827   0.000174  -0.049012
     8  H   -0.041870  -0.000128   0.397951  -0.024138  -0.000125  -0.047740
     9  H   -0.048018  -0.001765  -0.017514   0.396357  -0.061782   0.000490
    10  H    0.005367  -0.030010  -0.000222  -0.064173   0.402145   0.000015
    11  H   -0.000029   0.324931   0.000024  -0.006252  -0.055107   0.000001
               7          8          9         10         11
     1  O   -0.037111  -0.041870  -0.048018   0.005367  -0.000029
     2  O    0.000005  -0.000128  -0.001765  -0.030010   0.324931
     3  C    0.396369   0.397951  -0.017514  -0.000222   0.000024
     4  C    0.004827  -0.024138   0.396357  -0.064173  -0.006252
     5  C    0.000174  -0.000125  -0.061782   0.402145  -0.055107
     6  H   -0.049012  -0.047740   0.000490   0.000015   0.000001
     7  H    0.623531  -0.036708  -0.000230  -0.000031  -0.000000
     8  H   -0.036708   0.663078   0.014388   0.000189  -0.000017
     9  H   -0.000230   0.014388   0.612639   0.006693   0.007710
    10  H   -0.000031   0.000189   0.006693   0.513012   0.007328
    11  H   -0.000000  -0.000017   0.007710   0.007328   0.459695
 Mulliken charges:
               1
     1  O   -0.260981
     2  O   -0.366892
     3  C   -0.104412
     4  C   -0.051131
     5  C    0.004000
     6  H    0.093675
     7  H    0.098187
     8  H    0.075121
     9  H    0.091031
    10  H    0.159687
    11  H    0.261716
 Sum of Mulliken charges =  -0.00000
 Mulliken charges with hydrogens summed into heavy atoms:
               1
     1  O   -0.260981
     2  O   -0.105177
     3  C    0.162570
     4  C    0.039900
     5  C    0.163688
 APT charges:
               1
     1  O   -0.159632
     2  O   -0.372231
     3  C   -0.958159
     4  C   -0.340693
     5  C   -0.301684
     6  H    0.417307
     7  H    0.449131
     8  H    0.212250
     9  H    0.239705
    10  H    0.379724
    11  H    0.434282
 Sum of APT charges =  -0.00000
 APT charges with hydrogens summed into heavy atoms:
               1
     1  O   -0.159632
     2  O    0.062051
     3  C    0.120528
     4  C   -0.100988
     5  C    0.078040
 Electronic spatial extent (au):  <R**2>=            562.6037
 Charge=             -0.0000 electrons
 Dipole moment (field-independent basis, Debye):
    X=              1.4865    Y=              2.2557    Z=             -0.0013  Tot=              2.7014
 Quadrupole moment (field-independent basis, Debye-Ang):
   XX=            -31.1851   YY=            -26.7875   ZZ=            -32.2586
   XY=             -0.1490   XZ=             -0.1419   YZ=              0.0555
 Traceless Quadrupole moment (field-independent basis, Debye-Ang):
   XX=             -1.1081   YY=              3.2896   ZZ=             -2.1815
   XY=             -0.1490   XZ=             -0.1419   YZ=              0.0555
 Octapole moment (field-independent basis, Debye-Ang**2):
  XXX=             21.0459  YYY=              3.1892  ZZZ=              0.2930  XYY=            -10.5895
  XXY=              6.2211  XXZ=              0.0270  XZZ=              0.9650  YZZ=             -0.3629
  YYZ=             -0.1153  XYZ=             -0.0786
 Hexadecapole moment (field-independent basis, Debye-Ang**3):
 XXXX=           -609.7979 YYYY=            -68.6984 ZZZZ=            -39.5511 XXXY=            -17.3537
 XXXZ=             -1.5763 YYYX=             -9.0105 YYYZ=             -0.1771 ZZZX=              0.4560
 ZZZY=              0.1459 XXYY=            -96.3761 XXZZ=           -103.5239 YYZZ=            -20.8229
 XXYZ=              1.0710 YYXZ=             -0.6188 ZZXY=             -2.6329
 N-N= 1.714219572442D+02 E-N=-9.711575134348D+02  KE= 2.666836229099D+02
  Exact polarizability:   0.000   0.000   0.000   0.000   0.000   0.000
 Approx polarizability:  66.943   4.497  50.953   0.070   0.101  38.407
 No NMR shielding tensors so no spin-rotation constants.
 Leave Link  601 at Sat Aug 31 11:46:02 2019, MaxMem=   671088640 cpu:              48.0 elap:              24.0
 (Enter /shared/centos7/gaussian/g16/l701.exe)
 SCFChk:  SCF convergence  1.92D-09 required  1.00D-08
 ... and contract with generalized density number  0.
 Compute integral second derivatives.
 Entering OneElI...
 Calculate overlap and kinetic energy integrals
    NBasis = 265  MinDer = 2  MaxDer = 2
 Requested accuracy = 0.1000D-12
 PrmmSu-InSpLW:  IPartL=    0 NPrtUS=   20 NPrtUL=    1 DoSpLW=F IThBeg=    0 IThEnd=   19 NThAct=   20.
 PrsmSu:  NPrtUS=  20 ThrOK=T IAlg=1 NPAlg=1 LenDen=           0 ISkipM=0 DoSpLW=F IThBeg=    0 IThEnd=   19.
 Prism:   IPart=     0 DynPar=F LinDyn=F Incr=           1.
 PRISM was handed    33440912 working-precision words and  3708 shell-pairs
 PRISM was handed    33440912 working-precision words and  3708 shell-pairs
 PRISM was handed    33440912 working-precision words and  3708 shell-pairs
 PRISM was handed    33440912 working-precision words and  3708 shell-pairs
 PRISM was handed    33440912 working-precision words and  3708 shell-pairs
 PRISM was handed    33440912 working-precision words and  3708 shell-pairs
 IPart=  0 NShTot=         228 NBatch=          68 AvBLen=         3.4
 PRISM was handed    33440912 working-precision words and  3708 shell-pairs
 PRISM was handed    33440912 working-precision words and  3708 shell-pairs
 IPart= 18 NShTot=         163 NBatch=          25 AvBLen=         6.5
 PRISM was handed    33440912 working-precision words and  3708 shell-pairs
 IPart=  4 NShTot=         202 NBatch=          48 AvBLen=         4.2
 IPart=  1 NShTot=         222 NBatch=          62 AvBLen=         3.6
 PRISM was handed    33440912 working-precision words and  3708 shell-pairs
 PRISM was handed    33440912 working-precision words and  3708 shell-pairs
 PRISM was handed    33440912 working-precision words and  3708 shell-pairs
 IPart=  6 NShTot=         192 NBatch=          38 AvBLen=         5.1
 PRISM was handed    33440912 working-precision words and  3708 shell-pairs
 PRISM was handed    33440912 working-precision words and  3708 shell-pairs
 PRISM was handed    33440912 working-precision words and  3708 shell-pairs
 PRISM was handed    33440912 working-precision words and  3708 shell-pairs
 IPart=  7 NShTot=         188 NBatch=          36 AvBLen=         5.2
 IPart= 15 NShTot=         166 NBatch=          25 AvBLen=         6.6
 PRISM was handed    33440912 working-precision words and  3708 shell-pairs
 IPart=  3 NShTot=         209 NBatch=          50 AvBLen=         4.2
 PRISM was handed    33440912 working-precision words and  3708 shell-pairs
 PRISM was handed    33440912 working-precision words and  3708 shell-pairs
 PRISM was handed    33440912 working-precision words and  3708 shell-pairs
 IPart= 11 NShTot=         177 NBatch=          27 AvBLen=         6.6
 IPart= 19 NShTot=         163 NBatch=          25 AvBLen=         6.5
 IPart= 16 NShTot=         165 NBatch=          25 AvBLen=         6.6
 IPart= 12 NShTot=         177 NBatch=          27 AvBLen=         6.6
 IPart= 13 NShTot=         176 NBatch=          27 AvBLen=         6.5
 IPart=  2 NShTot=         212 NBatch=          52 AvBLen=         4.1
 IPart= 17 NShTot=         164 NBatch=          25 AvBLen=         6.6
 IPart=  9 NShTot=         179 NBatch=          28 AvBLen=         6.4
 IPart= 10 NShTot=         177 NBatch=          27 AvBLen=         6.6
 IPart=  5 NShTot=         197 NBatch=          43 AvBLen=         4.6
 IPart=  8 NShTot=         180 NBatch=          28 AvBLen=         6.4
 IPart= 14 NShTot=         171 NBatch=          27 AvBLen=         6.3
 PrSmSu:  NxtVal=             21.
 Entering OneElI...
 Calculate potential energy integrals
    NBasis = 265  MinDer = 2  MaxDer = 2
 Requested accuracy = 0.1000D-12
 PrmmSu-InSpLW:  IPartL=    0 NPrtUS=   20 NPrtUL=    1 DoSpLW=F IThBeg=    0 IThEnd=   19 NThAct=   20.
 PrsmSu:  NPrtUS=  20 ThrOK=T IAlg=1 NPAlg=1 LenDen=           0 ISkipM=0 DoSpLW=F IThBeg=    0 IThEnd=   19.
 Prism:   IPart=     0 DynPar=F LinDyn=F Incr=          18.
 PRISM was handed    33457992 working-precision words and  3443 shell-pairs
 PRISM was handed    33457992 working-precision words and  3443 shell-pairs
 PRISM was handed    33457992 working-precision words and  3443 shell-pairs
 PRISM was handed    33457992 working-precision words and  3443 shell-pairs
 PRISM was handed    33457992 working-precision words and  3443 shell-pairs
 PRISM was handed    33457992 working-precision words and  3443 shell-pairs
 PRISM was handed    33457992 working-precision words and  3443 shell-pairs
 PRISM was handed    33457992 working-precision words and  3443 shell-pairs
 PRISM was handed    33457992 working-precision words and  3443 shell-pairs
 PRISM was handed    33457992 working-precision words and  3443 shell-pairs
 PRISM was handed    33457992 working-precision words and  3443 shell-pairs
 PRISM was handed    33457992 working-precision words and  3443 shell-pairs
 PRISM was handed    33457992 working-precision words and  3443 shell-pairs
 PRISM was handed    33457992 working-precision words and  3443 shell-pairs
 PRISM was handed    33457992 working-precision words and  3443 shell-pairs
 PRISM was handed    33457992 working-precision words and  3443 shell-pairs
 PRISM was handed    33457992 working-precision words and  3443 shell-pairs
 PRISM was handed    33457992 working-precision words and  3443 shell-pairs
 PRISM was handed    33457992 working-precision words and  3443 shell-pairs
 PRISM was handed    33457992 working-precision words and  3443 shell-pairs
 IPart= 16 NShTot=        1749 NBatch=         159 AvBLen=        11.0
 IPart= 14 NShTot=        1771 NBatch=         161 AvBLen=        11.0
 IPart= 13 NShTot=        1782 NBatch=         162 AvBLen=        11.0
 IPart=  2 NShTot=        2178 NBatch=         198 AvBLen=        11.0
 IPart= 15 NShTot=        1760 NBatch=         160 AvBLen=        11.0
 IPart=  3 NShTot=        2057 NBatch=         187 AvBLen=        11.0
 IPart= 17 NShTot=        1749 NBatch=         159 AvBLen=        11.0
 IPart=  0 NShTot=        2332 NBatch=         212 AvBLen=        11.0
 IPart= 11 NShTot=        1804 NBatch=         164 AvBLen=        11.0
 IPart= 18 NShTot=        1716 NBatch=         156 AvBLen=        11.0
 IPart= 19 NShTot=        1705 NBatch=         155 AvBLen=        11.0
 IPart=  8 NShTot=        1870 NBatch=         170 AvBLen=        11.0
 IPart=  4 NShTot=        2013 NBatch=         183 AvBLen=        11.0
 IPart=  7 NShTot=        1881 NBatch=         171 AvBLen=        11.0
 IPart=  1 NShTot=        2233 NBatch=         203 AvBLen=        11.0
 IPart=  9 NShTot=        1859 NBatch=         169 AvBLen=        11.0
 IPart= 12 NShTot=        1782 NBatch=         162 AvBLen=        11.0
 IPart=  6 NShTot=        1892 NBatch=         172 AvBLen=        11.0
 IPart=  5 NShTot=        1892 NBatch=         172 AvBLen=        11.0
 IPart= 10 NShTot=        1848 NBatch=         168 AvBLen=        11.0
 PrSmSu:  NxtVal=            361.
 Polarizability after L701:
                1             2             3 
      1  0.000000D+00
      2  0.000000D+00  0.000000D+00
      3  0.000000D+00  0.000000D+00  0.000000D+00
 Dipole Derivatives after L701:
                 1             2             3             4             5 
      1  -0.156065D+00 -0.144479D+00  0.864507D-02  0.365988D+00  0.103546D+01
      2  -0.199882D-01 -0.726289D-01 -0.452135D-02 -0.495585D-01 -0.108283D+01
      3  -0.751353D-02  0.126375D-02 -0.250202D+00  0.248438D-02 -0.214055D-01
                 6             7             8             9            10 
      1   0.244686D-01 -0.138011D+01 -0.252961D+00 -0.263169D-01 -0.406939D+00
      2  -0.193180D-01 -0.581074D-01 -0.738877D+00 -0.398733D-02  0.966206D-01
      3  -0.399854D+00 -0.483302D-02  0.112929D-04 -0.755485D+00 -0.151480D-01
                11            12            13            14            15 
      1   0.159131D-01 -0.101385D-01 -0.401594D+00 -0.399121D+00  0.449203D-02
      2  -0.646527D+00  0.183330D-01 -0.107883D+00 -0.574410D+00 -0.460468D-02
      3   0.146075D-01  0.313884D-01  0.151101D-01  0.239378D-02  0.709513D-01
                16            17            18            19            20 
      1   0.686523D+00 -0.623885D-01  0.836922D+00  0.852036D+00 -0.283755D+00
      2   0.518944D-01  0.106689D+00  0.109150D-01  0.341335D-02  0.127841D+00
      3   0.190835D+00 -0.721613D-01  0.458708D+00 -0.205267D+00  0.132329D+00
                21            22            23            24            25 
      1  -0.773882D+00 -0.111263D-01  0.581581D+00 -0.445770D-01  0.957884D-01
      2   0.559595D-01 -0.144882D+00  0.571786D+00 -0.580502D-01  0.594260D-01
      3   0.367515D+00  0.250627D-01 -0.601810D-01  0.760907D-01  0.231528D-03
                26            27            28            29            30 
      1   0.355753D-01 -0.263555D-03  0.213199D+00  0.594302D+00  0.101524D-01
      2   0.594184D+00 -0.212899D-01  0.896510D-01  0.829894D+00  0.878862D-02
      3  -0.107064D-01  0.291412D-01 -0.312365D-02 -0.353550D-02  0.960801D-01
                31            32            33 
      1   0.142304D+00 -0.112013D+01 -0.295020D-01
      2   0.794136D-01  0.884876D+00  0.177754D-01
      3   0.216079D-02  0.173846D-01  0.275666D+00
 Hessian after L701:
                1             2             3             4             5 
      1  0.197224D+01
      2  0.337215D+00  0.103247D+02
      3 -0.772787D-01  0.530866D-01  0.144423D+02
      4  0.456724D+00 -0.173483D+00  0.212574D-02  0.484642D+01
      5 -0.115553D+00 -0.202327D+00 -0.927355D-03  0.288056D+01  0.658048D+01
      6  0.624471D-04 -0.376230D-03 -0.211389D+00  0.552511D-01 -0.181943D+00
      7 -0.146545D+01  0.391366D+01 -0.175422D-01  0.135736D+00  0.135837D-01
      8  0.373398D+01 -0.430640D+01  0.310099D-01 -0.118893D-02 -0.864150D-01
      9 -0.148091D-01  0.250068D-01 -0.715718D+01 -0.241819D-03  0.139956D-03
     10 -0.999567D+00 -0.392036D+01  0.133935D+00  0.329740D+00  0.175478D+00
     11 -0.387080D+01 -0.583260D+01 -0.732047D-01  0.885605D-01 -0.198491D+00
     12  0.128424D+00 -0.676125D-01 -0.789424D+01  0.347271D-02 -0.429838D-02
     13  0.173919D+00  0.101998D+00 -0.443397D-03 -0.920175D+00 -0.362148D+01
     14  0.122978D+00 -0.170346D+00  0.808301D-02 -0.377256D+01 -0.573099D+01
     15 -0.289479D-02  0.786605D-02  0.101926D+00 -0.885721D-01  0.641643D-01
     16 -0.142589D+00 -0.150393D+00  0.145738D+00  0.238670D-01  0.528687D-02
     17 -0.156285D+00 -0.231155D-01  0.206219D-02 -0.250049D-02 -0.759817D-02
     18  0.132995D+00  0.148054D-01  0.321405D+00  0.182614D-01  0.391724D-02
     19 -0.101750D+00 -0.146104D+00 -0.160635D+00  0.249034D-01  0.433451D-02
     20 -0.168830D+00 -0.145966D-01  0.336870D-01 -0.627659D-02 -0.792633D-02
     21 -0.150963D+00  0.153464D-01  0.243612D+00 -0.152530D-01 -0.256433D-02
     22 -0.152550D-01 -0.180770D+00 -0.103782D-01  0.146273D-01  0.890930D-02
     23 -0.134396D+00  0.178241D+00 -0.665433D-01  0.284712D-01  0.817058D-03
     24 -0.590209D-02 -0.548039D-01  0.102902D+00 -0.337424D-02 -0.175415D-02
     25 -0.257908D-01  0.208499D+00 -0.112675D-01  0.462012D-01  0.592522D-01
     26  0.208828D+00  0.760963D-01  0.141045D-01  0.927642D-01  0.128927D-01
     27 -0.786669D-02  0.697796D-02  0.144351D+00  0.863454D-03 -0.731922D-03
     28  0.132117D+00  0.292390D-01 -0.400991D-02 -0.798159D-01  0.173831D+00
     29  0.105739D+00 -0.486725D-01 -0.172528D-02  0.127874D+00  0.891663D-02
     30 -0.536690D-03 -0.109108D-02 -0.768355D-01  0.418829D-02 -0.725160D-02
     31  0.153991D-01 -0.195058D-01 -0.244850D-03 -0.487823D+01  0.415799D+00
     32 -0.628734D-01  0.190237D-01  0.367487D-03  0.737782D+00 -0.369355D+00
     33 -0.122980D-02  0.794554D-03 -0.168762D-01  0.232785D-01  0.131249D+00
                6             7             8             9            10 
      6  0.131095D+02
      7  0.570101D-03  0.899053D+01
      8  0.128315D-03 -0.306972D+01  0.123476D+02
      9 -0.719274D-01 -0.425685D-01 -0.108626D-01  0.148183D+02
     10 -0.314549D-02  0.244504D+00  0.195025D-01 -0.725769D-02  0.596440D+01
     11 -0.338446D-02 -0.169745D-01 -0.175125D+00 -0.406768D-02  0.807537D+00
     12  0.183146D+00 -0.142394D-01 -0.827911D-02 -0.122863D+00 -0.972013D-01
     13 -0.804753D-01  0.310085D+00  0.100247D+00 -0.372702D-02 -0.174469D+01
     14  0.642945D-01  0.104755D+00 -0.129635D+00 -0.109440D-02  0.314954D+01
     15 -0.778132D+01 -0.380800D-02 -0.167817D-02 -0.133239D+00 -0.395195D-01
     16  0.616894D-02 -0.249188D+01 -0.970677D-01  0.115950D+01  0.907266D-01
     17 -0.408904D-03 -0.608802D-01 -0.322736D+01 -0.678878D-01  0.113254D-03
     18 -0.346457D-02  0.104621D+01 -0.110399D+00 -0.165354D+01  0.613094D-01
     19 -0.512698D-02 -0.220077D+01 -0.390287D+00 -0.113534D+01  0.116115D+00
     20  0.893530D-03 -0.328226D+00 -0.310584D+01  0.344566D+00 -0.180601D-01
     21 -0.425817D-02 -0.104048D+01  0.377280D+00 -0.210114D+01 -0.612490D-01
     22 -0.140134D-02 -0.351716D+01 -0.299162D+00  0.381966D-01 -0.698915D-01
     23 -0.103932D-02 -0.539690D+00 -0.135046D+01 -0.282836D+00 -0.103552D-01
     24 -0.121287D-01  0.652914D-01 -0.275273D+00 -0.355570D+01  0.136134D-01
     25  0.676442D-02 -0.268583D-01 -0.431705D-02  0.619497D-02 -0.392072D+01
     26  0.241673D-02 -0.221047D-01  0.301661D-01 -0.316236D-02  0.895426D-01
     27 -0.560782D-01  0.634329D-02 -0.254904D-02 -0.160124D-02 -0.991713D-02
     28  0.668437D-02  0.118901D-01  0.127845D-01  0.191758D-03  0.692992D-02
     29 -0.126386D-01  0.245792D-01  0.220344D-02 -0.139317D-03 -0.258941D+00
     30  0.345452D-01  0.731169D-03  0.351949D-03 -0.138508D-01  0.108833D-01
     31  0.146477D-01  0.936597D-02 -0.476725D-02 -0.135568D-03 -0.175457D-01
     32  0.132058D+00 -0.189802D-01  0.128856D-02  0.337037D-03 -0.340054D-01
     33 -0.518658D+01 -0.504787D-03  0.270955D-03 -0.727080D-02 -0.145140D-02
               11            12            13            14            15 
     11  0.152053D+02
     12  0.217343D+00  0.242684D+02
     13  0.321198D+01 -0.421382D-01  0.583609D+01
     14 -0.745133D+01 -0.562131D-01  0.327182D+00  0.150951D+02
     15 -0.614760D-01 -0.126076D+02  0.118586D+00 -0.380258D-01  0.240534D+02
     16 -0.687603D-02  0.341168D-01  0.400229D-01  0.779194D-02  0.338317D-02
     17 -0.406727D-01 -0.749064D-02  0.339784D-02 -0.106013D-01 -0.155579D-02
     18 -0.614440D-02 -0.143734D-01  0.234260D-01  0.907497D-03 -0.841926D-02
     19 -0.248524D-01 -0.368629D-01  0.384374D-01  0.523224D-02 -0.295413D-02
     20 -0.401299D-01  0.119064D-01 -0.313851D-02 -0.929665D-02  0.198221D-02
     21  0.122578D-01 -0.217173D-01 -0.190494D-01  0.199462D-03 -0.818115D-02
     22 -0.304308D-01  0.224386D-01  0.174215D-01  0.142948D-01  0.340016D-02
     23  0.322074D-01  0.922383D-02  0.433430D-01  0.277416D-02  0.962046D-03
     24  0.334755D-02  0.181782D-01 -0.749602D-03 -0.352832D-03 -0.171249D-01
     25  0.701360D-01 -0.100972D-01  0.861060D-02 -0.294861D+00  0.200898D-03
     26 -0.133526D+01 -0.108249D+00 -0.295146D+00 -0.194715D+00 -0.123490D-04
     27 -0.976965D-01 -0.397718D+01 -0.845922D-03 -0.201830D-03  0.175603D+00
     28 -0.287570D+00  0.108598D-01 -0.388770D+01  0.239624D+00  0.626967D-02
     29 -0.124736D+00  0.150420D-01  0.167900D+00 -0.142733D+01  0.353175D-01
     30  0.136072D-01  0.179090D+00  0.357553D-02  0.284883D-01 -0.387851D+01
     31  0.592962D-01  0.122729D-02  0.127979D+00  0.960232D-01  0.590871D-02
     32 -0.391784D-01 -0.137205D-02 -0.362790D-01  0.264178D-01 -0.754407D-02
     33 -0.581406D-03 -0.108433D-01  0.184125D-02 -0.608489D-02  0.103464D+00
               16            17            18            19            20 
     16  0.227091D+01
     17  0.103711D+00  0.320017D+01
     18 -0.122827D+01 -0.441073D-01  0.164543D+01
     19  0.149253D+00  0.619036D-03  0.459487D-01  0.195763D+01
     20 -0.433927D-02  0.128053D+00 -0.362470D-01  0.402926D+00  0.312519D+01
     21  0.119364D-01 -0.531702D-01 -0.263888D+00  0.122167D+01 -0.247118D+00
     22  0.462459D-01  0.115391D+00 -0.110048D+00  0.840618D-02  0.129030D+00
     23  0.154436D+00 -0.187060D-01  0.186434D+00  0.158842D+00 -0.780558D-01
     24 -0.139513D+00  0.174601D+00 -0.208095D-01  0.761954D-01 -0.111139D+00
     25  0.854737D-02 -0.446460D-02  0.628635D-02  0.322434D-02 -0.293568D-02
     26 -0.134759D-01 -0.272762D-03 -0.974570D-02 -0.113403D-01  0.269293D-02
     27  0.573236D-02 -0.178235D-02 -0.140478D-02 -0.194780D-02  0.920486D-03
     28  0.347226D-02  0.130706D-02  0.298264D-02  0.319837D-02  0.378222D-03
     29  0.681697D-02 -0.848976D-04  0.558055D-02  0.700706D-02 -0.141753D-02
     30  0.890751D-03 -0.150434D-03 -0.431148D-03 -0.409206D-03  0.325567D-03
     31  0.142064D-02 -0.408910D-03  0.896898D-03  0.134697D-02 -0.528375D-03
     32 -0.588993D-02  0.193708D-03 -0.500099D-02 -0.637659D-02  0.133569D-02
     33  0.310752D-03 -0.109824D-03 -0.498419D-03 -0.537198D-03  0.222093D-03
               21            22            23            24            25 
     21  0.209385D+01
     22  0.590346D-01  0.339396D+01
     23 -0.108724D+00  0.256791D+00  0.130782D+01
     24  0.647351D-01  0.534735D-02  0.263677D+00  0.348954D+01
     25 -0.249067D-02  0.118189D+00  0.346953D-01 -0.102046D-01  0.373171D+01
     26  0.690621D-02 -0.164467D-01 -0.770020D-01  0.184746D-02 -0.917680D-01
     27 -0.187477D-02 -0.641064D-02 -0.860451D-03 -0.665010D-01  0.177227D-01
     28 -0.247587D-02  0.221528D-02  0.662038D-02 -0.463352D-03 -0.620624D-02
     29 -0.466644D-02  0.458404D-02  0.949682D-02 -0.879348D-03  0.438654D-01
     30 -0.831589D-03  0.152380D-04 -0.559132D-04 -0.191264D-02 -0.376233D-03
     31 -0.682905D-03  0.124095D-02  0.124268D-02 -0.240701D-03  0.630941D-01
     32  0.425307D-02 -0.219028D-02 -0.713545D-02  0.728912D-03 -0.181014D-01
     33 -0.300257D-03 -0.194277D-03 -0.237726D-03 -0.118273D-02 -0.273313D-02
               26            27            28            29            30 
     26  0.145011D+01
     27  0.970012D-01  0.382703D+01
     28  0.449450D-01 -0.896565D-03  0.383335D+01
     29  0.791014D-01 -0.222844D-02 -0.193563D+00  0.138964D+01
     30 -0.318516D-03 -0.127785D-01 -0.186322D-01 -0.357752D-01  0.379310D+01
     31  0.142016D-01 -0.277710D-02 -0.194491D-01 -0.358625D-01 -0.329901D-03
     32 -0.438150D-01  0.115083D-02 -0.275962D-01  0.112878D+00  0.186973D-02
     33 -0.788159D-03 -0.295646D-01 -0.510354D-03  0.211258D-02 -0.215918D-01
               31            32            33 
     31  0.469537D+01
     32 -0.525490D+00  0.298346D+00
     33 -0.182696D-01 -0.126848D+00  0.517124D+01
 Leave Link  701 at Sat Aug 31 11:46:22 2019, MaxMem=   671088640 cpu:              40.3 elap:              20.2
 (Enter /shared/centos7/gaussian/g16/l702.exe)
 L702 exits ... SP integral derivatives will be done elsewhere.
 Leave Link  702 at Sat Aug 31 11:46:23 2019, MaxMem=   671088640 cpu:               1.3 elap:               0.7
 (Enter /shared/centos7/gaussian/g16/l703.exe)
 Integral derivatives from FoFJK, PRISM(SPDF).
 Compute integral second derivatives, UseDBF=F ICtDFT=           0.
 ICntrl=    100147.
 Calling FoFJK, ICntrl=    100147 FMM=F ISym2X=0 I1Cent= 0 IOpClX= 0 NMat=1 NMatS=1 NMatT=0.
 FoFJK:  IHMeth= 1 ICntrl=  100147 DoSepK=F KAlg= 0 I1Cent=           0 FoldK=F
 IRaf=         0 NMat=       1 IRICut=       1 DoRegI=T DoRafI=F ISym2E= 0 IDoP0=0 IntGTp=1.
 FoFCou: FMM=F IPFlag=           0 FMFlag=      100000 FMFlg1=         800
         NFxFlg=           0 DoJE=F BraDBF=F KetDBF=F FulRan=T
         wScrn=  0.000000 ICntrl=    100147 IOpCl=  0 I1Cent=           0 NGrid=           0
         NMat0=    1 NMatS0=      1 NMatT0=    0 NMatD0=    1 NMtDS0=    0 NMtDT0=    0
 Symmetry not used in FoFCou.
 FoFCou:  KetSym=F NOpSet=  1 NOpAb=1 NOp=  1.
 FoFCou:  CnvScl= 1.00D+00 Thresh= 1.00D-08 IAcrcy=      12.
 PrismS was handed   670746480 working-precision words and  3559 shell-pairs
 FoFCou: LinMIO=F DoNuc=F BraDBF=F KetDBF=F HaveP=T PDBF=F HaveZ=T HaveW=F
         NIJTC =      10 NIJTAt=       0 NIJTCD=       0 NIJTT =      10
         IJTBeg=       1 IJTEnd=      10 KLTBeg=       1 KLTEnd=      10
         IPTBeg=       1 IPTEnd=      10 IPTBCv=       1 IPTECv=      10
         IZTBeg=       1 IZTEnd=      10 IZTBCv=       1 IZTECv=      10
         IWTBeg=      11 IWTEnd=      10 IWTBCv=      11 IWTECv=      10
         INTBeg=       1 INTEnd=       0 IFTBCv=       1 IFTECv=      10
 NCel replicated for PrismC:     1
 CoulSu-InSpLW:  IPartL=    0 NPrtUS=   20 NPrtUL=    1 DoSpLW=F IThBeg=    0 IThEnd=   19 NThAct=   20.
 CoulSu:  IncDef=  1024 NBBP=        6335020 NTPThr=   100 NPartT=   20 Incr=        1024 LDynOK=F GPUOK=T.
 CoulSu:  NPrtUS=  20 ThrOK=T IAlg=1 NPAlg=1 LenDen=           0 LWGrdD=           0 DoCopy=F ISkipM=0
          DoSpLW=F IThBeg=    0 IThEnd=   19.
 Enter PrismC:  IPart=  0 JobTyp=22 DoJE=F Cont=F.
 PrismC:  IPart=     0 DynPar=T LinDyn=F Incr=        1024 UseFst=F UseS4=T ISplat=2.
 PrismC was handed    33459071 working-precision words and  3559 shell-pairs
 Enter PrismC:  IPart=  1 JobTyp=22 DoJE=F Cont=F.
 PrismC:  IPart=     1 DynPar=T LinDyn=F Incr=        1024 UseFst=F UseS4=T ISplat=2.
 PrismC was handed    33459071 working-precision words and  3559 shell-pairs
 Enter PrismC:  IPart=  2 JobTyp=22 DoJE=F Cont=F.
 PrismC:  IPart=     2 DynPar=T LinDyn=F Incr=        1024 UseFst=F UseS4=T ISplat=2.
 PrismC was handed    33459071 working-precision words and  3559 shell-pairs
 Enter PrismC:  IPart=  4 JobTyp=22 DoJE=F Cont=F.
 PrismC:  IPart=     4 DynPar=T LinDyn=F Incr=        1024 UseFst=F UseS4=T ISplat=2.
 PrismC was handed    33459071 working-precision words and  3559 shell-pairs
 Enter PrismC:  IPart=  6 JobTyp=22 DoJE=F Cont=F.
 Enter PrismC:  IPart=  5 JobTyp=22 DoJE=F Cont=F.
 PrismC:  IPart=     6 DynPar=T LinDyn=F Incr=        1024 UseFst=F UseS4=T ISplat=2.
 PrismC:  IPart=     5 DynPar=T LinDyn=F Incr=        1024 UseFst=F UseS4=T ISplat=2.
 PrismC was handed    33459071 working-precision words and  3559 shell-pairs
 PrismC was handed    33459071 working-precision words and  3559 shell-pairs
 Enter PrismC:  IPart= 11 JobTyp=22 DoJE=F Cont=F.
 PrismC:  IPart=    11 DynPar=T LinDyn=F Incr=        1024 UseFst=F UseS4=T ISplat=2.
 PrismC was handed    33459071 working-precision words and  3559 shell-pairs
 Enter PrismC:  IPart= 15 JobTyp=22 DoJE=F Cont=F.
 PrismC:  IPart=    15 DynPar=T LinDyn=F Incr=        1024 UseFst=F UseS4=T ISplat=2.
 PrismC was handed    33459071 working-precision words and  3559 shell-pairs
 Enter PrismC:  IPart=  3 JobTyp=22 DoJE=F Cont=F.
 PrismC:  IPart=     3 DynPar=T LinDyn=F Incr=        1024 UseFst=F UseS4=T ISplat=2.
 PrismC was handed    33459071 working-precision words and  3559 shell-pairs
 Enter PrismC:  IPart=  8 JobTyp=22 DoJE=F Cont=F.
 PrismC:  IPart=     8 DynPar=T LinDyn=F Incr=        1024 UseFst=F UseS4=T ISplat=2.
 PrismC was handed    33459071 working-precision words and  3559 shell-pairs
 Enter PrismC:  IPart= 16 JobTyp=22 DoJE=F Cont=F.
 PrismC:  IPart=    16 DynPar=T LinDyn=F Incr=        1024 UseFst=F UseS4=T ISplat=2.
 PrismC was handed    33459071 working-precision words and  3559 shell-pairs
 Enter PrismC:  IPart= 18 JobTyp=22 DoJE=F Cont=F.
 PrismC:  IPart=    18 DynPar=T LinDyn=F Incr=        1024 UseFst=F UseS4=T ISplat=2.
 PrismC was handed    33459071 working-precision words and  3559 shell-pairs
 Enter PrismC:  IPart= 12 JobTyp=22 DoJE=F Cont=F.
 PrismC:  IPart=    12 DynPar=T LinDyn=F Incr=        1024 UseFst=F UseS4=T ISplat=2.
 PrismC was handed    33459071 working-precision words and  3559 shell-pairs
 Enter PrismC:  IPart= 13 JobTyp=22 DoJE=F Cont=F.
 PrismC:  IPart=    13 DynPar=T LinDyn=F Incr=        1024 UseFst=F UseS4=T ISplat=2.
 PrismC was handed    33459071 working-precision words and  3559 shell-pairs
 Enter PrismC:  IPart=  7 JobTyp=22 DoJE=F Cont=F.
 PrismC:  IPart=     7 DynPar=T LinDyn=F Incr=        1024 UseFst=F UseS4=T ISplat=2.
 PrismC was handed    33459071 working-precision words and  3559 shell-pairs
 Enter PrismC:  IPart=  9 JobTyp=22 DoJE=F Cont=F.
 PrismC:  IPart=     9 DynPar=T LinDyn=F Incr=        1024 UseFst=F UseS4=T ISplat=2.
 PrismC was handed    33459071 working-precision words and  3559 shell-pairs
 Enter PrismC:  IPart= 19 JobTyp=22 DoJE=F Cont=F.
 PrismC:  IPart=    19 DynPar=T LinDyn=F Incr=        1024 UseFst=F UseS4=T ISplat=2.
 PrismC was handed    33459071 working-precision words and  3559 shell-pairs
 Enter PrismC:  IPart= 10 JobTyp=22 DoJE=F Cont=F.
 PrismC:  IPart=    10 DynPar=T LinDyn=F Incr=        1024 UseFst=F UseS4=T ISplat=2.
 PrismC was handed    33459071 working-precision words and  3559 shell-pairs
 Enter PrismC:  IPart= 17 JobTyp=22 DoJE=F Cont=F.
 PrismC:  IPart=    17 DynPar=T LinDyn=F Incr=        1024 UseFst=F UseS4=T ISplat=2.
 PrismC was handed    33459071 working-precision words and  3559 shell-pairs
 Enter PrismC:  IPart= 14 JobTyp=22 DoJE=F Cont=F.
 PrismC:  IPart=    14 DynPar=T LinDyn=F Incr=        1024 UseFst=F UseS4=T ISplat=2.
 PrismC was handed    33459071 working-precision words and  3559 shell-pairs
 IPart=  4 NShTot=      166817 NShNF=      166817 NShFF=           0 MinMC=       7
           NShCPU=      166817 NBCPU=        6871 AvBCPU=        24.3
           NShGPU=           0 NBGPU=           0 AvBGPU=         0.0
 IPart=  9 NShTot=      288276 NShNF=      288276 NShFF=           0 MinMC=       7
           NShCPU=      288276 NBCPU=       11664 AvBCPU=        24.7
           NShGPU=           0 NBGPU=           0 AvBGPU=         0.0
 IPart= 11 NShTot=      158979 NShNF=      158979 NShFF=           0 MinMC=       7
           NShCPU=      158979 NBCPU=        6754 AvBCPU=        23.5
           NShGPU=           0 NBGPU=           0 AvBGPU=         0.0
 IPart=  2 NShTot=      153990 NShNF=      153990 NShFF=           0 MinMC=       7
           NShCPU=      153990 NBCPU=        6477 AvBCPU=        23.8
           NShGPU=           0 NBGPU=           0 AvBGPU=         0.0
 IPart=  3 NShTot=      320480 NShNF=      320480 NShFF=           0 MinMC=       7
           NShCPU=      320480 NBCPU=       13347 AvBCPU=        24.0
           NShGPU=           0 NBGPU=           0 AvBGPU=         0.0
 IPart= 17 NShTot=      151901 NShNF=      151901 NShFF=           0 MinMC=       7
           NShCPU=      151901 NBCPU=        6269 AvBCPU=        24.2
           NShGPU=           0 NBGPU=           0 AvBGPU=         0.0
 IPart= 14 NShTot=      160238 NShNF=      160238 NShFF=           0 MinMC=       7
           NShCPU=      160238 NBCPU=        6935 AvBCPU=        23.1
           NShGPU=           0 NBGPU=           0 AvBGPU=         0.0
 IPart= 16 NShTot=      150339 NShNF=      150339 NShFF=           0 MinMC=       7
           NShCPU=      150339 NBCPU=        6087 AvBCPU=        24.7
           NShGPU=           0 NBGPU=           0 AvBGPU=         0.0
 IPart= 10 NShTot=      304390 NShNF=      304390 NShFF=           0 MinMC=       7
           NShCPU=      304390 NBCPU=       12354 AvBCPU=        24.6
           NShGPU=           0 NBGPU=           0 AvBGPU=         0.0
 IPart=  5 NShTot=      302848 NShNF=      302848 NShFF=           0 MinMC=       7
           NShCPU=      302848 NBCPU=       12954 AvBCPU=        23.4
           NShGPU=           0 NBGPU=           0 AvBGPU=         0.0
 IPart=  7 NShTot=      145439 NShNF=      145439 NShFF=           0 MinMC=       7
           NShCPU=      145439 NBCPU=        6696 AvBCPU=        21.7
           NShGPU=           0 NBGPU=           0 AvBGPU=         0.0
 IPart= 15 NShTot=      292113 NShNF=      292113 NShFF=           0 MinMC=       7
           NShCPU=      292113 NBCPU=       12130 AvBCPU=        24.1
           NShGPU=           0 NBGPU=           0 AvBGPU=         0.0
 IPart= 18 NShTot=      155503 NShNF=      155503 NShFF=           0 MinMC=       7
           NShCPU=      155503 NBCPU=        6288 AvBCPU=        24.7
           NShGPU=           0 NBGPU=           0 AvBGPU=         0.0
 IPart= 19 NShTot=      318930 NShNF=      318930 NShFF=           0 MinMC=       7
           NShCPU=      318930 NBCPU=       13246 AvBCPU=        24.1
           NShGPU=           0 NBGPU=           0 AvBGPU=         0.0
 IPart= 12 NShTot=      156044 NShNF=      156044 NShFF=           0 MinMC=       7
           NShCPU=      156044 NBCPU=        7108 AvBCPU=        22.0
           NShGPU=           0 NBGPU=           0 AvBGPU=         0.0
 IPart=  1 NShTot=      148012 NShNF=      148012 NShFF=           0 MinMC=       7
           NShCPU=      148012 NBCPU=        6083 AvBCPU=        24.3
           NShGPU=           0 NBGPU=           0 AvBGPU=         0.0
 IPart= 13 NShTot=      143957 NShNF=      143957 NShFF=           0 MinMC=       7
           NShCPU=      143957 NBCPU=        6033 AvBCPU=        23.9
           NShGPU=           0 NBGPU=           0 AvBGPU=         0.0
 IPart=  6 NShTot=      313397 NShNF=      313397 NShFF=           0 MinMC=       7
           NShCPU=      313397 NBCPU=       12686 AvBCPU=        24.7
           NShGPU=           0 NBGPU=           0 AvBGPU=         0.0
 IPart=  0 NShTot=      144154 NShNF=      144154 NShFF=           0 MinMC=       7
           NShCPU=      144154 NBCPU=        6545 AvBCPU=        22.0
           NShGPU=           0 NBGPU=           0 AvBGPU=         0.0
 IPart=  8 NShTot=      150761 NShNF=      150761 NShFF=           0 MinMC=       7
           NShCPU=      150761 NBCPU=        6401 AvBCPU=        23.6
           NShGPU=           0 NBGPU=           0 AvBGPU=         0.0
 CoulSu:  NxtVal=        6764545 LenVP=       33459072 MinMC=       7.
 ReadGW:  IGet=0 IStart=           1 Next=           1 LGW=           0.
 Remaining memory in FofDFT      639.93 Mw
 CkSvGd:  ISavGI=        -1 IRadAn=       5 IRASav=       5 ISavGd=        -1.
 CalDSu-InSpLW:  IPartL=    0 NPrtUS=   20 NPrtUL=    1 DoSpLW=F IThBeg=    0 IThEnd=   19 NThAct=   20.
 CalDSu:  NPrtUS=  20 ThrOK=T IAlg=1 NPAlg=2 DoDPD=T LenP=       35245 LenD1P=             0 GPUOK=F
          ISkipM=0 DoSpLW=F IThBeg=    0 IThEnd=   19.
 IPart=  0 IRanGd=          0 ScrnBf=T ScrnGd=T RCrit=4.00D+00 DoMicB=T.
 IPart= 17        11877 of        12270 points in      12 batches and       45 microbatches, Max-NSigAt=      11 Max-NSgAt2=      11
 IPart= 13        11278 of        12268 points in      13 batches and       68 microbatches, Max-NSigAt=      11 Max-NSgAt2=      11
 IPart= 10        13576 of        15062 points in      16 batches and       47 microbatches, Max-NSigAt=      11 Max-NSgAt2=      11
 IPart=  6        10925 of        11486 points in      11 batches and       61 microbatches, Max-NSigAt=      11 Max-NSgAt2=      11
 IPart= 11        10359 of        11084 points in      11 batches and       78 microbatches, Max-NSigAt=      11 Max-NSgAt2=      11
 IPart=  0         9080 of        10124 points in      11 batches and       77 microbatches, Max-NSigAt=      11 Max-NSgAt2=      11
 IPart=  4        10115 of        10746 points in      10 batches and       58 microbatches, Max-NSigAt=      11 Max-NSgAt2=      11
 IPart=  9        10700 of        11280 points in      11 batches and       64 microbatches, Max-NSigAt=      11 Max-NSgAt2=      11
 IPart=  2         9992 of        11254 points in      12 batches and       90 microbatches, Max-NSigAt=      11 Max-NSgAt2=      11
 IPart=  5        11738 of        12488 points in      12 batches and       72 microbatches, Max-NSigAt=      11 Max-NSgAt2=      11
 IPart=  1        13560 of        15668 points in      17 batches and       77 microbatches, Max-NSigAt=      11 Max-NSgAt2=      11
 IPart= 18        11150 of        11666 points in      11 batches and       60 microbatches, Max-NSigAt=      11 Max-NSgAt2=      11
 IPart= 14        10587 of        11546 points in      12 batches and       61 microbatches, Max-NSigAt=      11 Max-NSgAt2=      11
 IPart=  8         9353 of        10156 points in      11 batches and       77 microbatches, Max-NSigAt=      11 Max-NSgAt2=      11
 IPart= 15        14406 of        17080 points in      20 batches and       99 microbatches, Max-NSigAt=      11 Max-NSgAt2=      11
 IPart= 12        11562 of        13394 points in      15 batches and       48 microbatches, Max-NSigAt=      11 Max-NSgAt2=      11
 IPart=  3        11510 of        12114 points in      12 batches and       55 microbatches, Max-NSigAt=      11 Max-NSgAt2=      11
 IPart= 19        11263 of        12172 points in      13 batches and       78 microbatches, Max-NSigAt=      11 Max-NSgAt2=      11
 IPart= 16        11474 of        12740 points in      13 batches and       58 microbatches, Max-NSigAt=      11 Max-NSgAt2=      11
 IPart=  7        10872 of        12104 points in      13 batches and       81 microbatches, Max-NSigAt=      11 Max-NSgAt2=      11
 Polarizability after L703:
                1             2             3 
      1  0.000000D+00
      2  0.000000D+00  0.000000D+00
      3  0.000000D+00  0.000000D+00  0.000000D+00
 Dipole Derivatives after L703:
                 1             2             3             4             5 
      1  -0.156065D+00 -0.144479D+00  0.864507D-02  0.365988D+00  0.103546D+01
      2  -0.199882D-01 -0.726289D-01 -0.452135D-02 -0.495585D-01 -0.108283D+01
      3  -0.751353D-02  0.126375D-02 -0.250202D+00  0.248438D-02 -0.214055D-01
                 6             7             8             9            10 
      1   0.244686D-01 -0.138011D+01 -0.252961D+00 -0.263169D-01 -0.406939D+00
      2  -0.193180D-01 -0.581074D-01 -0.738877D+00 -0.398733D-02  0.966206D-01
      3  -0.399854D+00 -0.483302D-02  0.112929D-04 -0.755485D+00 -0.151480D-01
                11            12            13            14            15 
      1   0.159131D-01 -0.101385D-01 -0.401594D+00 -0.399121D+00  0.449203D-02
      2  -0.646527D+00  0.183330D-01 -0.107883D+00 -0.574410D+00 -0.460468D-02
      3   0.146075D-01  0.313884D-01  0.151101D-01  0.239378D-02  0.709513D-01
                16            17            18            19            20 
      1   0.686523D+00 -0.623885D-01  0.836922D+00  0.852036D+00 -0.283755D+00
      2   0.518944D-01  0.106689D+00  0.109150D-01  0.341335D-02  0.127841D+00
      3   0.190835D+00 -0.721613D-01  0.458708D+00 -0.205267D+00  0.132329D+00
                21            22            23            24            25 
      1  -0.773882D+00 -0.111263D-01  0.581581D+00 -0.445770D-01  0.957884D-01
      2   0.559595D-01 -0.144882D+00  0.571786D+00 -0.580502D-01  0.594260D-01
      3   0.367515D+00  0.250627D-01 -0.601810D-01  0.760907D-01  0.231528D-03
                26            27            28            29            30 
      1   0.355753D-01 -0.263555D-03  0.213199D+00  0.594302D+00  0.101524D-01
      2   0.594184D+00 -0.212899D-01  0.896510D-01  0.829894D+00  0.878862D-02
      3  -0.107064D-01  0.291412D-01 -0.312365D-02 -0.353550D-02  0.960801D-01
                31            32            33 
      1   0.142304D+00 -0.112013D+01 -0.295020D-01
      2   0.794136D-01  0.884876D+00  0.177754D-01
      3   0.216079D-02  0.173846D-01  0.275666D+00
 Hessian after L703:
                1             2             3             4             5 
      1  0.513440D+00
      2  0.372089D-02  0.311162D+00
      3  0.483647D-02 -0.373455D-02  0.508106D-01
      4 -0.226695D-01  0.279182D-02  0.199840D-03  0.400062D+00
      5  0.889223D-02 -0.577220D-02 -0.138267D-03 -0.435283D-01  0.483889D+00
      6  0.103626D-03  0.279893D-03  0.814673D-02  0.257682D-03  0.109426D-01
      7 -0.167295D+00 -0.418750D-01 -0.217119D-02  0.633241D-02 -0.383503D-02
      8 -0.887236D-01 -0.138769D+00 -0.197889D-03  0.573537D-02 -0.158178D-02
      9 -0.543135D-03  0.582841D-03 -0.540190D-01  0.135098D-05  0.645272D-04
     10 -0.223822D+00  0.545506D-01 -0.178975D-02 -0.378796D-01 -0.930090D-02
     11  0.998129D-01 -0.150665D+00  0.240899D-02  0.215465D-01  0.183318D-01
     12 -0.333491D-02  0.282050D-02 -0.267355D-01  0.112385D-03  0.397310D-04
     13 -0.310087D-01 -0.124384D-01  0.263320D-03 -0.267051D+00  0.104412D+00
     14  0.211262D-01  0.240405D-01  0.236116D-03  0.576943D-01 -0.148413D+00
     15 -0.721808D-03 -0.599394D-04  0.623613D-02  0.359779D-03 -0.108441D-02
     16 -0.259669D-01 -0.507410D-02 -0.205405D-01 -0.117214D-02  0.382239D-03
     17 -0.202020D-01  0.589827D-03 -0.151087D-01 -0.730900D-03  0.295215D-03
     18 -0.338625D-02 -0.405742D-02  0.949349D-02 -0.575126D-03  0.335846D-03
     19 -0.287839D-01  0.889718D-03  0.160820D-01 -0.129642D-02  0.378136D-03
     20 -0.212838D-01  0.509545D-02  0.132083D-01 -0.517078D-03  0.779139D-04
     21  0.236152D-02  0.403528D-02  0.785454D-02  0.337304D-03 -0.203597D-03
     22 -0.556143D-02 -0.300760D-01  0.355293D-02  0.320012D-04  0.232939D-03
     23 -0.872932D-02 -0.256688D-01  0.254671D-02 -0.630419D-03  0.269058D-03
     24  0.820989D-03 -0.332174D-03  0.940793D-03  0.137833D-03 -0.801413D-04
     25 -0.109615D-01  0.274740D-01 -0.387556D-03  0.335597D-02 -0.175598D-02
     26  0.765811D-02 -0.202605D-01  0.664466D-03  0.180647D-03  0.306583D-02
     27 -0.198687D-03  0.754775D-03  0.238247D-02 -0.649549D-04  0.302329D-04
     28  0.241705D-02  0.578903D-03 -0.209748D-04  0.423887D-03  0.361147D-01
     29  0.647878D-03  0.164456D-03  0.698141D-05  0.391705D-02 -0.164664D-01
     30 -0.145829D-05 -0.259952D-03 -0.442015D-02  0.425275D-03 -0.460779D-03
     31  0.212624D-03 -0.542322D-03 -0.245672D-04 -0.801376D-01 -0.919922D-01
     32 -0.291950D-02  0.826954D-04  0.107855D-03 -0.464589D-01 -0.333695D+00
     33  0.636410D-04 -0.292522D-04 -0.690009D-03 -0.119137D-02 -0.944570D-02
                6             7             8             9            10 
      6  0.541298D-01
      7 -0.111583D-03  0.505511D+00
      8 -0.650347D-04 -0.712899D-01  0.558895D+00
      9  0.312679D-02  0.373926D-02 -0.978256D-02  0.488760D+00
     10  0.146998D-03 -0.564260D-01  0.590835D-02  0.138295D-02  0.862251D+00
     11 -0.573350D-03 -0.126858D-01  0.106864D-01 -0.447325D-03  0.182931D+00
     12  0.496061D-02  0.700248D-03  0.388683D-04 -0.649854D-02 -0.296141D-02
     13  0.216319D-02 -0.479989D-02  0.881607D-03  0.119425D-05 -0.490603D+00
     14 -0.138306D-02  0.290839D-02 -0.416737D-02  0.259484D-03 -0.208405D+00
     15 -0.361865D-01  0.102049D-03  0.285991D-03 -0.851556D-03  0.322600D-02
     16  0.523192D-03 -0.924447D-01  0.148284D-01 -0.732229D-01  0.874535D-03
     17  0.505979D-03  0.175800D-01 -0.618803D-01  0.245777D-01  0.178515D-02
     18 -0.455955D-05 -0.783351D-01  0.237819D-01 -0.206661D+00  0.134809D-02
[...]
 ITU=  0
     Eigenvalues ---    0.00481   0.00521   0.00580   0.02433   0.02896
     Eigenvalues ---    0.04506   0.08689   0.08753   0.10040   0.12730
     Eigenvalues ---    0.13604   0.15635   0.17816   0.18082   0.18948
     Eigenvalues ---    0.21695   0.23493   0.32984   0.33421   0.34683
     Eigenvalues ---    0.35055   0.36978   0.39795   0.43896   0.46229
     Eigenvalues ---    0.54047   0.65356
 Angle between quadratic step and forces=  18.03 degrees.
 Linear search not attempted -- first point.
 Iteration  1 RMS(Cart)=  0.00007867 RMS(Int)=  0.00000000
 Iteration  2 RMS(Cart)=  0.00000000 RMS(Int)=  0.00000000
 ITry= 1 IFail=0 DXMaxC= 2.20D-04 DCOld= 1.00D+10 DXMaxT= 3.00D-01 DXLimC= 3.00D+00 Rises=F
 Variable       Old X    -DE/DX   Delta X   Delta X   Delta X     New X
                                 (Linear)    (Quad)   (Total)
    R1        2.66968  -0.00000   0.00000  -0.00000  -0.00000   2.66967
    R2        2.58409  -0.00000   0.00000  -0.00000  -0.00000   2.58409
    R3        2.57255  -0.00000   0.00000  -0.00000  -0.00000   2.57255
    R4        1.81729   0.00000   0.00000   0.00000   0.00000   1.81729
    R5        2.06548   0.00000   0.00000   0.00000   0.00000   2.06548
    R6        2.05367   0.00000   0.00000   0.00000   0.00000   2.05367
    R7        2.06849   0.00000   0.00000   0.00000   0.00000   2.06849
    R8        2.50350  -0.00000   0.00000  -0.00000  -0.00000   2.50350
    R9        2.05853   0.00000   0.00000   0.00000   0.00000   2.05854
   R10        2.04186  -0.00000   0.00000  -0.00000  -0.00000   2.04186
    A1        1.97247  -0.00000   0.00000  -0.00000  -0.00000   1.97247
    A2        1.91328   0.00000   0.00000   0.00000   0.00000   1.91328
    A3        1.93602   0.00000   0.00000   0.00000   0.00000   1.93602
    A4        1.87134   0.00000   0.00000  -0.00000  -0.00000   1.87134
    A5        1.93549   0.00000   0.00000   0.00000   0.00000   1.93549
    A6        1.91438  -0.00000   0.00000  -0.00000  -0.00000   1.91438
    A7        1.90058  -0.00000   0.00000   0.00000   0.00000   1.90058
    A8        1.90571  -0.00000   0.00000  -0.00000  -0.00000   1.90571
    A9        2.11249  -0.00000   0.00000  -0.00000  -0.00000   2.11248
   A10        2.03047   0.00000   0.00000   0.00000   0.00000   2.03047
   A11        2.13941  -0.00000   0.00000  -0.00000  -0.00000   2.13941
   A12        2.19770   0.00000   0.00000   0.00000   0.00000   2.19770
   A13        1.96888  -0.00000   0.00000  -0.00000  -0.00000   1.96888
   A14        2.11635  -0.00000   0.00000  -0.00000  -0.00000   2.11635
    D1        1.10545  -0.00000   0.00000  -0.00014  -0.00014   1.10531
    D2       -3.08784  -0.00000   0.00000  -0.00014  -0.00014  -3.08799
    D3       -1.00879  -0.00000   0.00000  -0.00014  -0.00014  -1.00893
    D4       -2.27480  -0.00000   0.00000  -0.00002  -0.00002  -2.27482
    D5        0.90920  -0.00000   0.00000  -0.00002  -0.00002   0.90917
    D6        0.00006  -0.00000   0.00000  -0.00004  -0.00004   0.00002
    D7       -3.11723  -0.00000   0.00000  -0.00004  -0.00004  -3.11727
    D8       -3.06124  -0.00000   0.00000  -0.00000  -0.00000  -3.06125
    D9        0.05414  -0.00000   0.00000  -0.00000  -0.00000   0.05414
   D10        0.03525   0.00000   0.00000  -0.00000  -0.00000   0.03525
   D11       -3.13255   0.00000   0.00000  -0.00000  -0.00000  -3.13255
         Item               Value     Threshold  Converged?
 Maximum Force            0.000001     0.000015     YES
 RMS     Force            0.000000     0.000010     YES
 Maximum Displacement     0.000220     0.000060     NO 
 RMS     Displacement     0.000079     0.000040     NO 
 Predicted change in Energy=-1.673105D-10
                           ----------------------------
                           ! Non-Optimized Parameters !
                           ! (Angstroms and Degrees)  !
 --------------------------                            --------------------------
 ! Name  Definition              Value          Derivative Info.                !
 --------------------------------------------------------------------------------
 ! R1    R(1,3)                  1.4127         -DE/DX =    0.0                 !
 ! R2    R(1,4)                  1.3674         -DE/DX =    0.0                 !
 ! R3    R(2,5)                  1.3613         -DE/DX =    0.0                 !
 ! R4    R(2,11)                 0.9617         -DE/DX =    0.0                 !
 ! R5    R(3,6)                  1.093          -DE/DX =    0.0                 !
 ! R6    R(3,7)                  1.0868         -DE/DX =    0.0                 !
 ! R7    R(3,8)                  1.0946         -DE/DX =    0.0                 !
 ! R8    R(4,5)                  1.3248         -DE/DX =    0.0                 !
 ! R9    R(4,9)                  1.0893         -DE/DX =    0.0                 !
 ! R10   R(5,10)                 1.0805         -DE/DX =    0.0                 !
 ! A1    A(3,1,4)              113.0141         -DE/DX =    0.0                 !
 ! A2    A(5,2,11)             109.6227         -DE/DX =    0.0                 !
 ! A3    A(1,3,6)              110.9258         -DE/DX =    0.0                 !
 ! A4    A(1,3,7)              107.22           -DE/DX =    0.0                 !
 ! A5    A(1,3,8)              110.8952         -DE/DX =    0.0                 !
 ! A6    A(6,3,7)              109.686          -DE/DX =    0.0                 !
 ! A7    A(6,3,8)              108.8952         -DE/DX =    0.0                 !
 ! A8    A(7,3,8)              109.189          -DE/DX =    0.0                 !
 ! A9    A(1,4,5)              121.0364         -DE/DX =    0.0                 !
 ! A10   A(1,4,9)              116.3376         -DE/DX =    0.0                 !
 ! A11   A(5,4,9)              122.579          -DE/DX =    0.0                 !
 ! A12   A(2,5,4)              125.9188         -DE/DX =    0.0                 !
 ! A13   A(2,5,10)             112.8087         -DE/DX =    0.0                 !
 ! A14   A(4,5,10)             121.2577         -DE/DX =    0.0                 !
 ! D1    D(4,1,3,6)             63.3298         -DE/DX =    0.0                 !
 ! D2    D(4,1,3,7)           -176.9286         -DE/DX =    0.0                 !
 ! D3    D(4,1,3,8)            -57.8076         -DE/DX =    0.0                 !
 ! D4    D(3,1,4,5)           -130.3375         -DE/DX =    0.0                 !
 ! D5    D(3,1,4,9)             52.0919         -DE/DX =    0.0                 !
 ! D6    D(11,2,5,4)             0.0009         -DE/DX =    0.0                 !
 ! D7    D(11,2,5,10)         -178.6066         -DE/DX =    0.0                 !
 ! D8    D(1,4,5,2)           -175.3965         -DE/DX =    0.0                 !
 ! D9    D(1,4,5,10)             3.1018         -DE/DX =    0.0                 !
 ! D10   D(9,4,5,2)              2.0197         -DE/DX =    0.0                 !
 ! D11   D(9,4,5,10)          -179.482          -DE/DX =    0.0                 !
 --------------------------------------------------------------------------------
 GradGradGradGradGradGradGradGradGradGradGradGradGradGradGradGradGradGrad

 Leave Link  103 at Sat Aug 31 13:55:20 2019, MaxMem=   671088640 cpu:             100.8 elap:              50.6
 (Enter /shared/centos7/gaussian/g16/l9999.exe)

 ----------------------------------------------------------------------

 Electric dipole moment (input orientation):
 (Debye = 10**-18 statcoulomb cm , SI units = C m)
                  (au)            (Debye)         (10**-30 SI)
   Tot        0.850842D+00      0.216263D+01      0.721374D+01
   x         -0.681520D+00     -0.173225D+01     -0.577817D+01
   y          0.205853D+00      0.523225D+00      0.174529D+01
   z         -0.465927D+00     -0.118427D+01     -0.395029D+01

 Dipole polarizability, Alpha (input orientation).
 (esu units = cm**3 , SI units = C**2 m**2 J**-1)
 Alpha(0;0):
               (au)            (10**-24 esu)      (10**-40 SI)
   iso        0.451719D+02      0.669379D+01      0.744785D+01
   aniso      0.264872D+02      0.392499D+01      0.436714D+01
   xx         0.576380D+02      0.854107D+01      0.950322D+01
   yx         0.836536D+01      0.123962D+01      0.137926D+01
   yy         0.450683D+02      0.667843D+01      0.743076D+01
   zx        -0.817654D+00     -0.121164D+00     -0.134813D+00
   zy        -0.301445D+01     -0.446695D+00     -0.497015D+00
   zz         0.328095D+02      0.486187D+01      0.540956D+01

 ----------------------------------------------------------------------

 Dipole orientation:
     8         -2.70778614         -0.08924648         -1.79287362
     8          2.42138179         -4.25537829         -3.62115417
     6         -2.77445547          1.46798876          0.37455316
     6         -0.93147953         -1.95968230         -1.63876038
     6          0.69382355         -2.35293029         -3.50188516
     1         -0.98955451          2.48016277          0.61088615
     1         -4.30302833          2.81365230          0.10956690
     1         -3.14056495          0.34949101          2.07560094
     1         -0.98787122         -3.13586129          0.04972644
     1          0.72469676         -1.15108519         -5.15228210
     1          2.29160512         -5.29171102         -2.13397079

 Electric dipole moment (dipole orientation):
 (Debye = 10**-18 statcoulomb cm , SI units = C m)
                  (au)            (Debye)         (10**-30 SI)
   Tot        0.850842D+00      0.216263D+01      0.721374D+01
   x          0.000000D+00      0.000000D+00      0.000000D+00
   y          0.000000D+00      0.000000D+00      0.000000D+00
   z          0.850842D+00      0.216263D+01      0.721374D+01

 Dipole polarizability, Alpha (dipole orientation).
 (esu units = cm**3 , SI units = C**2 m**2 J**-1)
 Alpha(0;0):
               (au)            (10**-24 esu)      (10**-40 SI)
   iso        0.451719D+02      0.669379D+01      0.744785D+01
   aniso      0.264872D+02      0.392499D+01      0.436714D+01
   xx         0.441092D+02      0.653630D+01      0.727262D+01
   yx        -0.103385D+02     -0.153201D+01     -0.170459D+01
   yy         0.451106D+02      0.668470D+01      0.743773D+01
   zx        -0.103971D+02     -0.154069D+01     -0.171425D+01
   zy         0.420399D+01      0.622967D+00      0.693144D+00
   zz         0.462960D+02      0.686036D+01      0.763318D+01

 ----------------------------------------------------------------------

 Test job not archived.
 1\1\GINC-C0178\Freq\RM062X\CC-pVTZ\C3H6O2\HARMS.N\31-Aug-2019\0\\#P Ge
 om=AllCheck Guess=TCheck SCRF=Check Test GenChk RM062X/CC-pVTZ Freq\\G
 aussian input prepared by ASE\\0,1\O,-0.073004807,-0.3635274814,1.6787
 107275\O,2.5670039125,1.8635156474,0.5678060152\C,-1.1155504252,-0.883
 3372096,0.8795198751\C,0.5359062344,0.7262638894,1.1206018797\C,1.8551
 956293,0.7956559912,1.0219325783\H,-0.7298403796,-1.250165915,-0.07511
 514\H,-1.5659455685,-1.7037134968,1.4319372067\H,-1.8758734498,-0.1203
 168514,0.6849711842\H,-0.1193211552,1.5375683269,0.8057984835\H,2.4846
 716767,-0.0255310053,1.333228724\H,1.9651015176,2.5729801936,0.3245376
 682\\Version=EM64L-G16RevA.03\State=1-A\HF=-268.3171465\RMSD=7.321e-09
 \RMSF=2.025e-06\ZeroPoint=0.0903548\Thermal=0.0964586\Dipole=-0.681520
 3,0.2058526,-0.4659267\DipoleDeriv=-1.0623651,-0.388551,-0.0685211,-0.
 6823507,-0.8791029,0.0682828,0.1001813,0.1204833,-0.4842784,-0.708986,
 -0.3490332,0.1030404,-0.8133252,-0.9125441,0.1979748,0.3232685,0.21954
 92,-0.4393721,0.7584062,0.2167527,0.1334965,0.1235253,0.419522,0.10661
 92,0.2942144,0.2172588,0.4270912,0.2786523,0.0285305,-0.078965,0.54602
 92,0.5915355,-0.2467037,-0.3780776,-0.395164,-0.0793357,0.6387097,0.30
 96032,-0.1055571,0.6663103,0.6476265,-0.3175847,-0.2963005,-0.2954255,
 0.0493516,-0.0267901,0.0246391,0.0964636,0.0006067,0.0153971,-0.042931
 9,-0.0423267,-0.1174613,-0.1064298,-0.0034994,-0.0708284,0.0082471,-0.
 0984312,-0.0446762,0.0477061,0.0352701,0.0767375,0.0154187,-0.0824792,
 0.0334698,-0.0369206,0.1380203,-0.0826867,0.0295485,-0.0571435,-0.0302
 51,0.0299872,-0.0098611,0.0784453,-0.0219525,0.0210004,-0.0773122,0.08
 34707,0.0526862,0.130866,0.1227957,0.0562718,0.031191,-0.0054827,0.012
 6941,0.0072768,0.0642689,-0.0058225,0.0714702,0.1435823,0.161941,0.085
 7811,-0.0238485,0.0859208,0.314964,0.0093493,-0.0259498,0.0019368,0.32
 11894\Polar=57.6380149,8.3653595,45.0682785,-0.817654,-3.0144479,32.80
 95007\Quadrupole=-0.8057936,2.8774457,-2.0716521,-0.5074306,1.2195278,
 -0.6045378\PG=C01 [X(C3H6O2)]\NImag=0\\0.35220505,0.19802291,0.3581983
 8,0.07487801,-0.07561739,0.26601933,-0.01219119,-0.00654008,0.00210374
 ,0.43206155,-0.01235050,-0.00809608,0.00937001,-0.09634941,0.55945155,
 0.00340335,0.00544240,0.01189661,0.01512558,-0.20075790,0.10625015,-0.
 16059490,-0.05259352,-0.07018742,0.00340316,0.00624442,-0.00067792,0.5
 2729269,-0.03776791,-0.09343149,-0.01328735,0.00030668,0.00146580,0.00
 196878,-0.00593076,0.59201826,-0.09372589,-0.03628050,-0.13999000,0.00
 381370,0.00309048,-0.00174534,-0.05118452,-0.04242865,0.55826344,-0.12
 981099,-0.07557695,0.01949507,-0.01703915,-0.01206391,0.00797792,-0.03
 060967,-0.03687288,0.01364268,0.91474176,-0.09022626,-0.22033938,0.083
 35682,-0.04159127,-0.00251316,0.00535442,-0.02430062,-0.02851919,0.001
 58944,0.00332274,0.53694106,0.04394885,0.10959090,-0.10523191,0.016219
 14,0.00076769,0.00186006,-0.00459032,-0.01488392,0.00970826,-0.0178518
 3,-0.17701699,0.20580602,-0.01550519,-0.01153660,0.00692492,-0.1761028
 8,-0.11498053,0.05001125,0.00025387,0.00207899,-0.00034241,-0.56646377
 ,0.00311230,0.02366445,0.92277001,-0.03810558,-0.00181668,0.00043247,-
 0.06942132,-0.23792000,0.08140692,-0.00426618,-0.00163886,0.00368577,0
 .00116561,-0.11341451,0.02746866,-0.02994707,0.59960276,0.02264020,0.0
 0588780,-0.00357444,0.03478713,0.08387807,-0.07271723,-0.00175593,-0.0
 0127359,-0.00088542,0.01954229,0.02339259,-0.06268680,-0.02390342,-0.1
 9060191,0.20286369,0.00312039,-0.01759559,-0.03251870,0.00006402,0.000
 09573,0.00008804,-0.09197358,0.03496323,0.09332211,0.00442658,0.002985
 51,-0.00292082,-0.00078238,0.00070419,0.00065826,0.09623970,-0.0050270
 3,-0.00585263,-0.01548547,0.00004562,0.00010573,0.00005132,0.03300811,
 -0.08018316,-0.06790110,0.00303517,0.00233670,-0.00193322,-0.00083244,
 -0.00001922,0.00053919,-0.03229126,0.08081567,-0.00697757,-0.01346719,
 -0.02242176,-0.00090388,-0.00131424,0.00020640,0.08745176,-0.06999231,
 -0.23817731,0.00111675,0.00391171,0.00025734,0.00008584,0.00009589,0.0
 0040437,-0.08695037,0.08411559,0.26587576,-0.01764045,-0.02637406,0.01
 038206,-0.00087974,-0.00059095,0.00077319,-0.08995892,-0.07506189,0.05
 486169,-0.00348143,0.00037779,-0.00373185,0.00086671,-0.00094204,-0.00
 011420,-0.00377720,-0.00903334,0.00720576,0.10376122,-0.00918437,-0.01
 178155,0.00390290,-0.00054402,-0.00050981,0.00044551,-0.08090130,-0.20
 429596,0.10664494,-0.00215482,0.00106194,-0.00212960,0.00028191,-0.000
 16417,-0.00023543,0.00534836,0.01034848,-0.00550053,0.09566334,0.22052
 466,-0.01326068,-0.02102012,0.01074614,-0.00033346,0.00006614,0.000292
 57,0.06351835,0.11627726,-0.13082832,-0.00293711,-0.00102517,-0.000844
 91,-0.00044528,-0.00096089,0.00050814,0.00916907,0.02109815,-0.0121016
 9,-0.05777166,-0.11569012,0.13409311,-0.03061960,0.00706125,-0.0152426
 2,-0.00038445,-0.00052066,0.00003826,-0.16158569,0.12045637,-0.0222197
 6,0.00226904,0.00626517,-0.00234463,-0.00013638,-0.00073337,0.00058920
 ,-0.00684539,0.01077744,-0.00089660,0.01106324,-0.00865647,0.00199357,
 0.18604419,-0.01377941,0.01202774,-0.00258100,0.00013017,0.00006715,-0
 .00029427,0.12481732,-0.18729641,0.02924799,-0.00162422,0.00432954,-0.
 00170552,-0.00017017,-0.00018524,0.00017092,0.00612002,-0.00699282,0.0
 0256387,0.01632745,-0.01555419,0.00162189,-0.13339488,0.19338159,-0.02
 527621,0.01011422,-0.00772547,-0.00030426,-0.00033243,0.00004255,-0.02
 164556,0.02565376,-0.05647886,0.00217159,0.00248566,-0.00092174,-0.000
 07157,-0.00037612,0.00008702,0.01906969,-0.02027685,0.00603253,-0.0116
 0643,0.01257836,-0.00159505,0.03750716,-0.02931864,0.06013821,0.009595
 83,-0.01555077,0.00470222,0.00269771,0.00089632,-0.00047723,0.00418292
 ,-0.00164534,0.00198247,-0.16456360,0.12014489,-0.04489759,-0.01229859
 ,0.02520000,-0.00919273,-0.00049552,0.00027794,-0.00012622,0.00007925,
 0.00016162,0.00009803,-0.00000923,0.00163939,0.00002376,0.16638797,0.0
 0617353,-0.03016551,0.01311174,0.00031875,0.00294760,-0.00312275,0.004
 88028,0.00211237,0.00307162,0.12133261,-0.18799100,0.05891477,-0.00260
 318,0.00173442,0.00206706,-0.00029668,-0.00049225,-0.00053340,-0.00047
 271,0.00026782,-0.00037660,-0.00129062,0.00034928,-0.00059024,-0.12872
 767,0.20984958,-0.00518109,0.01905080,-0.00351040,0.00003153,-0.001857
 62,-0.00441125,-0.00097395,-0.00156671,-0.00050299,-0.04512519,0.05754
 510,-0.05724675,0.00285340,-0.00043360,0.00692966,0.00031131,-0.000064
 36,0.00000416,0.00023742,0.00006506,-0.00007350,0.00064858,-0.00000146
 ,0.00045669,0.04673342,-0.07573614,0.05127045,0.00306799,0.00008186,-0
 .00068581,0.01363789,-0.01831795,0.00686418,-0.00055055,-0.00023631,-0
 .00003781,-0.01113510,0.02465301,-0.00936865,-0.16708443,0.13649518,-0
 .05015790,-0.00000192,0.00002013,0.00003849,0.00000237,-0.00003728,-0.
 00002718,0.00027989,-0.00002352,0.00010985,-0.00472475,-0.00092230,0.0
 0095454,0.16737214,0.00043487,-0.00035894,-0.00241818,0.01185966,-0.02
 617299,0.01065983,-0.00021584,-0.00007204,-0.00014106,-0.00100849,0.00
 520018,0.00213576,0.13091873,-0.21132840,0.06383731,-0.00005694,-0.000
 02379,-0.00000739,-0.00003983,0.00000385,-0.00001955,-0.00002970,-0.00
 006713,-0.00000906,-0.00116935,0.00156069,0.00287765,-0.13748419,0.232
 91238,0.00036251,-0.00309645,-0.00514818,-0.00538991,0.01111713,-0.002
 51684,-0.00019869,-0.00037448,0.00009396,0.00245018,0.00165212,0.00886
 210,-0.04909261,0.06435589,-0.06507041,-0.00025672,-0.00007446,0.00001
 509,-0.00012676,-0.00000732,-0.00013228,-0.00005013,0.00026415,-0.0000
 3232,0.00063549,0.00323275,0.00693041,0.05046342,-0.07913756,0.0549756
 0,-0.00162695,0.00060158,0.00014854,-0.24526692,0.24793746,-0.08312662
 ,0.00014067,-0.00029017,-0.00011226,0.00166633,-0.00474326,0.00187325,
 0.01448303,-0.02014942,0.00690710,0.00002529,0.00001967,-0.00004398,-0
 .00003504,0.00002304,-0.00000365,-0.00007561,-0.00004215,0.00002196,-0
 .00085199,0.00160799,-0.00048995,-0.00086351,-0.00320893,0.00120322,0.
 23240469,0.00180976,0.00161613,-0.00078455,0.20178523,-0.28882579,0.09
 884574,-0.00074191,-0.00015932,-0.00057894,0.00044515,0.00290780,-0.00
 120853,0.02367808,-0.03485010,0.01233798,0.00002343,-0.00004272,0.0001
 2799,0.00014625,0.00009893,0.00002900,0.00006548,-0.00005951,0.0000713
 5,-0.00122702,-0.00017299,0.00012128,-0.00422863,-0.00165381,0.0020682
 4,-0.22175581,0.32114139,-0.00081149,-0.00060446,-0.00105992,-0.065149
 32,0.09597267,-0.03915766,0.00024420,-0.00009280,0.00054258,-0.0004823
 5,-0.00124570,0.00043832,-0.00968457,0.01492692,-0.00585858,0.00002813
 ,-0.00006878,-0.00009488,-0.00010922,-0.00007377,-0.00006421,-0.000023
 01,0.00003208,-0.00000358,0.00051839,-0.00003882,0.00015352,0.00184687
 ,0.00222224,0.00202288,0.07362237,-0.11102958,0.04308153\\0.00000216,-
 0.00000259,-0.00000123,0.00000031,-0.00000051,-0.00000085,-0.00000129,
 0.00000091,-0.00000008,0.00000026,-0.00000006,0.00000092,0.00000054,-0
 .00000132,-0.00000188,-0.00000306,0.00000311,-0.00000169,-0.00000025,0
 .,-0.00000114,-0.00000044,0.00000210,0.00000360,0.00000068,0.00000044,
 0.00000476,0.00000088,-0.00000268,-0.00000550,0.00000021,0.00000059,0.
 00000311\\\@


 THE PROGRESS OF RIVERS TO THE SEA IS NOT AS RAPID
 AS THAT OF MAN TO ERROR.
                                              -- VOLTAIRE
 Job cpu time:       0 days  0 hours 49 minutes 39.9 seconds.
 Elapsed time:       0 days  0 hours 24 minutes 50.9 seconds.
 File lengths (MBytes):  RWF=    576 Int=      0 D2E=      0 Chk=     48 Scr=     32
 Normal termination of Gaussian 16 at Sat Aug 31 13:55:21 2019.
