 Entering Gaussian System, Link 0=g16
 Input=./species/COC=CO/conformers/COC=CO_4.com
 Output=./species/COC=CO/conformers/COC=CO_4.log
 Initial command:
 /shared/centos7/gaussian/g16/l1.exe "/scratch/harms.n/gauss_scrdir/Gau-34096.inp" -scrdir="/scratch/harms.n/gauss_scrdir/"
 Entering Link 1 = /shared/centos7/gaussian/g16/l1.exe PID=     34097.
  
 Copyright (c) 1988,1990,1992,1993,1995,1998,2003,2009,2016,
            Gaussian, Inc.  All Rights Reserved.
  
 This is part of the Gaussian(R) 16 program.  It is based on
 the Gaussian(R) 09 system (copyright 2009, Gaussian, Inc.),
 the Gaussian(R) 03 system (copyright 2003, Gaussian, Inc.),
 the Gaussian(R) 98 system (copyright 1998, Gaussian, Inc.),
 the Gaussian(R) 94 system (copyright 1995, Gaussian, Inc.),
 the Gaussian 92(TM) system (copyright 1992, Gaussian, Inc.),
 the Gaussian 90(TM) system (copyright 1990, Gaussian, Inc.),
 the Gaussian 88(TM) system (copyright 1988, Gaussian, Inc.),
 the Gaussian 86(TM) system (copyright 1986, Carnegie Mellon
 University), and the Gaussian 82(TM) system (copyright 1983,
 Carnegie Mellon University). Gaussian is a federally registered
 trademark of Gaussian, Inc.
  
 This software contains proprietary and confidential information,
 including trade secrets, belonging to Gaussian, Inc.
  
 This software is provided under written license and may be
 used, copied, transmitted, or stored only in accord with that
 written license.
  
 The following legend is applicable only to US Government
 contracts under FAR:
  
                    RESTRICTED RIGHTS LEGEND
  
 Use, reproduction and disclosure by the US Government is
 subject to restrictions as set forth in subparagraphs (a)
 and (c) of the Commercial Computer Software - Restricted
 Rights clause in FAR 52.227-19.
  
 Gaussian, Inc.
 340 Quinnipiac St., Bldg. 40, Wallingford CT 06492
  
  
 ---------------------------------------------------------------
 Warning -- This program may not be used in any manner that
 competes with the business of Gaussian, Inc. or will provide
 assistance to any competitor of Gaussian, Inc.  The licensee
 of this program is prohibited from giving any competitor of
 Gaussian, Inc. access to this program.  By using this program,
 the user acknowledges that Gaussian, Inc. is engaged in the
 business of creating and licensing software in the field of
 computational chemistry and represents and warrants to the
 licensee that it is not a competitor of Gaussian, Inc. and that
 it will not use this program in any manner prohibited above.
 ---------------------------------------------------------------
  

 Cite this work as:
 Gaussian 16, Revision A.03,
 M. J. Frisch, G. W. Trucks, H. B. Schlegel, G. E. Scuseria, 
 M. A. Robb, J. R. Cheeseman, G. Scalmani, V. Barone, 
 G. A. Petersson, H. Nakatsuji, X. Li, M. Caricato, A. V. Marenich, 
 J. Bloino, B. G. Janesko, R. Gomperts, B. Mennucci, H. P. Hratchian, 
 J. V. Ortiz, A. F. Izmaylov, J. L. Sonnenberg, D. Williams-Young, 
 F. Ding, F. Lipparini, F. Egidi, J. Goings, B. Peng, A. Petrone, 
 T. Henderson, D. Ranasinghe, V. G. Zakrzewski, J. Gao, N. Rega, 
 G. Zheng, W. Liang, M. Hada, M. Ehara, K. Toyota, R. Fukuda, 
 J. Hasegawa, M. Ishida, T. Nakajima, Y. Honda, O. Kitao, H. Nakai, 
 T. Vreven, K. Throssell, J. A. Montgomery, Jr., J. E. Peralta, 
 F. Ogliaro, M. J. Bearpark, J. J. Heyd, E. N. Brothers, K. N. Kudin, 
 V. N. Staroverov, T. A. Keith, R. Kobayashi, J. Normand, 
 K. Raghavachari, A. P. Rendell, J. C. Burant, S. S. Iyengar, 
 J. Tomasi, M. Cossi, J. M. Millam, M. Klene, C. Adamo, R. Cammi, 
 J. W. Ochterski, R. L. Martin, K. Morokuma, O. Farkas, 
 J. B. Foresman, and D. J. Fox, Gaussian, Inc., Wallingford CT, 2016.
 
 ******************************************
 Gaussian 16:  EM64L-G16RevA.03 25-Dec-2016
                31-Aug-2019 
 ******************************************
 %nprocshared=20
 Will use up to   20 processors via shared memory.
 %mem=5GB
 ----------------------------------------------------------------------
 #p m062x/cc-pVTZ opt=(calcfc,maxcycles=900,Tight) freq IOP(7/33=1,2/16
 =3) scf=(maxcycle=900)
 ----------------------------------------------------------------------
 1/6=900,7=10,10=4,18=20,19=15,26=3,38=1/1,3;
 2/9=110,12=2,16=3,17=6,18=5,40=1/2;
 3/5=16,6=1,11=2,25=1,30=1,71=2,74=-55,140=1/1,2,3;
 4//1;
 5/5=2,7=900,38=5/2;
 8/6=4,10=90,11=11/1;
 11/6=1,8=1,9=11,15=111,16=1/1,2,10;
 10/6=1,13=1/2;
 6/7=2,8=2,9=2,10=2,28=1/1;
 7/10=1,18=20,25=1,33=1/1,2,3,16;
 1/6=900,7=10,10=4,18=20,19=15,26=3/3(2);
 2/9=110,16=3/2;
 99//99;
 2/9=110,16=3/2;
 3/5=16,6=1,11=2,25=1,30=1,71=1,74=-55/1,2,3;
 4/5=5,16=3,69=1/1;
 5/5=2,7=900,38=5/2;
 7/33=1/1,2,3,16;
 1/6=900,7=10,18=20,19=15,26=3/3(-5);
 2/9=110,16=3/2;
 6/7=2,8=2,9=2,10=2,19=2,28=1/1;
 99/9=1/99;
 Leave Link    1 at Sat Aug 31 11:30:45 2019, MaxMem=   671088640 cpu:               4.3 elap:               2.1
 (Enter /shared/centos7/gaussian/g16/l101.exe)
 ------------------------------
 Gaussian input prepared by ASE
 ------------------------------
 Symbolic Z-matrix:
 Charge =  0 Multiplicity = 1
 O                     0.23012  -0.75101   1.11376 
 O                     0.3891    2.85171   0.42895 
 C                    -1.16507  -0.88556   0.83321 
 C                     0.67198   0.55254   0.92646 
 C                    -0.0791    1.56316   0.55835 
 H                    -1.39663  -0.5417   -0.21588 
 H                    -1.4268   -1.97704   0.93743 
 H                    -1.76119  -0.29998   1.53337 
 H                     1.73418   0.65973   1.1378 
 H                    -1.12144   1.48206   0.33516 
 H                     1.33721   2.85826   0.79645 
 
 ITRead=  0  0  0  0  0  0  0  0  0  0  0
 MicOpt= -1 -1 -1 -1 -1 -1 -1 -1 -1 -1 -1
 NAtoms=     11 NQM=       11 NQMF=       0 NMMI=      0 NMMIF=      0
                NMic=       0 NMicF=      0.
                    Isotopes and Nuclear Properties:
 (Nuclear quadrupole moments (NQMom) in fm**2, nuclear magnetic moments (NMagM)
  in nuclear magnetons)

  Atom         1           2           3           4           5           6           7           8           9          10
 IAtWgt=          16          16          12          12          12           1           1           1           1           1
 AtmWgt=  15.9949146  15.9949146  12.0000000  12.0000000  12.0000000   1.0078250   1.0078250   1.0078250   1.0078250   1.0078250
 NucSpn=           0           0           0           0           0           1           1           1           1           1
 AtZEff=  -0.0000000  -0.0000000  -0.0000000  -0.0000000  -0.0000000  -0.0000000  -0.0000000  -0.0000000  -0.0000000  -0.0000000
 NQMom=    0.0000000   0.0000000   0.0000000   0.0000000   0.0000000   0.0000000   0.0000000   0.0000000   0.0000000   0.0000000
 NMagM=    0.0000000   0.0000000   0.0000000   0.0000000   0.0000000   2.7928460   2.7928460   2.7928460   2.7928460   2.7928460
 AtZNuc=   8.0000000   8.0000000   6.0000000   6.0000000   6.0000000   1.0000000   1.0000000   1.0000000   1.0000000   1.0000000

  Atom        11
 IAtWgt=           1
 AtmWgt=   1.0078250
 NucSpn=           1
 AtZEff=  -0.0000000
 NQMom=    0.0000000
 NMagM=    2.7928460
 AtZNuc=   1.0000000
 Leave Link  101 at Sat Aug 31 11:30:47 2019, MaxMem=   671088640 cpu:               2.2 elap:               1.1
 (Enter /shared/centos7/gaussian/g16/l103.exe)

 GradGradGradGradGradGradGradGradGradGradGradGradGradGradGradGradGradGrad
 Berny optimization.
 Initialization pass.
                           ----------------------------
                           !    Initial Parameters    !
                           ! (Angstroms and Degrees)  !
 --------------------------                            --------------------------
 ! Name  Definition              Value          Derivative Info.                !
 --------------------------------------------------------------------------------
 ! R1    R(1,3)                  1.4295         calculate D2E/DX2 analytically  !
 ! R2    R(1,4)                  1.3891         calculate D2E/DX2 analytically  !
 ! R3    R(2,5)                  1.3771         calculate D2E/DX2 analytically  !
 ! R4    R(2,11)                 1.0169         calculate D2E/DX2 analytically  !
 ! R5    R(3,6)                  1.128          calculate D2E/DX2 analytically  !
 ! R6    R(3,7)                  1.1272         calculate D2E/DX2 analytically  !
 ! R7    R(3,8)                  1.0902         calculate D2E/DX2 analytically  !
 ! R8    R(4,5)                  1.3119         calculate D2E/DX2 analytically  !
 ! R9    R(4,9)                  1.0883         calculate D2E/DX2 analytically  !
 ! R10   R(5,10)                 1.0691         calculate D2E/DX2 analytically  !
 ! A1    A(3,1,4)              111.8592         calculate D2E/DX2 analytically  !
 ! A2    A(5,2,11)             106.8031         calculate D2E/DX2 analytically  !
 ! A3    A(1,3,6)              110.7441         calculate D2E/DX2 analytically  !
 ! A4    A(1,3,7)              107.434          calculate D2E/DX2 analytically  !
 ! A5    A(1,3,8)              110.9216         calculate D2E/DX2 analytically  !
 ! A6    A(6,3,7)              109.4806         calculate D2E/DX2 analytically  !
 ! A7    A(6,3,8)              108.7424         calculate D2E/DX2 analytically  !
 ! A8    A(7,3,8)              109.4968         calculate D2E/DX2 analytically  !
 ! A9    A(1,4,5)              125.3559         calculate D2E/DX2 analytically  !
 ! A10   A(1,4,9)              112.1292         calculate D2E/DX2 analytically  !
 ! A11   A(5,4,9)              122.5077         calculate D2E/DX2 analytically  !
 ! A12   A(2,5,4)              123.5428         calculate D2E/DX2 analytically  !
 ! A13   A(2,5,10)             112.5118         calculate D2E/DX2 analytically  !
 ! A14   A(4,5,10)             123.9428         calculate D2E/DX2 analytically  !
 ! D1    D(4,1,3,6)             56.5791         calculate D2E/DX2 analytically  !
 ! D2    D(4,1,3,7)            176.0983         calculate D2E/DX2 analytically  !
 ! D3    D(4,1,3,8)            -64.2604         calculate D2E/DX2 analytically  !
 ! D4    D(3,1,4,5)              1.0287         calculate D2E/DX2 analytically  !
 ! D5    D(3,1,4,9)           -179.9339         calculate D2E/DX2 analytically  !
 ! D6    D(11,2,5,4)            -8.0643         calculate D2E/DX2 analytically  !
 ! D7    D(11,2,5,10)          171.3725         calculate D2E/DX2 analytically  !
 ! D8    D(1,4,5,2)            177.6369         calculate D2E/DX2 analytically  !
 ! D9    D(1,4,5,10)            -1.736          calculate D2E/DX2 analytically  !
 ! D10   D(9,4,5,2)             -1.3058         calculate D2E/DX2 analytically  !
 ! D11   D(9,4,5,10)           179.3213         calculate D2E/DX2 analytically  !
 --------------------------------------------------------------------------------
 Trust Radius=3.00D-01 FncErr=1.00D-07 GrdErr=1.00D-06 EigMax=2.50D+02 EigMin=1.00D-04
 Number of steps in this run=    100 maximum allowed number of steps=    100.
 GradGradGradGradGradGradGradGradGradGradGradGradGradGradGradGradGradGrad

 Leave Link  103 at Sat Aug 31 11:30:47 2019, MaxMem=   671088640 cpu:               1.5 elap:               0.8
 (Enter /shared/centos7/gaussian/g16/l202.exe)
                          Input orientation:                          
 ---------------------------------------------------------------------
 Center     Atomic      Atomic             Coordinates (Angstroms)
 Number     Number       Type             X           Y           Z
 ---------------------------------------------------------------------
      1          8           0        0.230120   -0.751014    1.113763
      2          8           0        0.389103    2.851706    0.428947
      3          6           0       -1.165069   -0.885559    0.833206
      4          6           0        0.671979    0.552543    0.926459
      5          6           0       -0.079099    1.563163    0.558352
      6          1           0       -1.396626   -0.541700   -0.215875
      7          1           0       -1.426801   -1.977037    0.937431
      8          1           0       -1.761189   -0.299978    1.533368
      9          1           0        1.734182    0.659726    1.137796
     10          1           0       -1.121443    1.482061    0.335158
     11          1           0        1.337213    2.858264    0.796453
 ---------------------------------------------------------------------
                    Distance matrix (angstroms):
                    1          2          3          4          5
     1  O    0.000000
     2  O    3.670672   0.000000
     3  C    1.429464   4.067680   0.000000
     4  C    1.389094   2.369321   2.334862   0.000000
     5  C    2.399898   1.377063   2.692789   1.311858   0.000000
     6  H    2.111410   3.888422   1.128020   2.604116   2.601105
     7  H    2.068722   5.183900   1.127250   3.286909   3.806969
     8  H    2.084422   3.971979   1.090179   2.648667   2.692838
     9  H    2.062272   2.667674   3.299445   1.088314   2.107118
    10  H    2.723888   2.041194   2.419830   2.104756   1.069052
    11  H    3.788565   1.016866   4.503218   2.403287   1.933887
                    6          7          8          9         10
     6  H    0.000000
     7  H    1.841526   0.000000
     8  H    1.803105   1.810935   0.000000
     9  H    3.616326   4.121223   3.646249   0.000000
    10  H    2.115412   3.524391   2.240679   3.078158   0.000000
    11  H    4.478665   5.571336   4.485269   2.260016   2.855121
                   11
    11  H    0.000000
 Stoichiometry    C3H6O2
 Framework group  C1[X(C3H6O2)]
 Deg. of freedom    27
 Full point group                 C1      NOp   1
 Largest Abelian subgroup         C1      NOp   1
 Largest concise Abelian subgroup C1      NOp   1
                         Standard orientation:                         
 ---------------------------------------------------------------------
 Center     Atomic      Atomic             Coordinates (Angstroms)
 Number     Number       Type             X           Y           Z
 ---------------------------------------------------------------------
      1          8           0        1.294643    0.705499    0.004740
      2          8           0       -2.239298   -0.287013    0.001212
      3          6           0        1.814197   -0.626169    0.014366
      4          6           0       -0.094125    0.718651   -0.022338
      5          6           0       -0.863551   -0.343865   -0.018534
      6          1           0        1.435416   -1.209253   -0.873872
      7          1           0        2.937750   -0.550718   -0.036888
      8          1           0        1.525908   -1.149937    0.925984
      9          1           0       -0.494433    1.730633   -0.030925
     10          1           0       -0.495353   -1.347508   -0.020651
     11          1           0       -2.491177    0.687199    0.147780
 ---------------------------------------------------------------------
 Rotational constants (GHZ):          16.1328807           2.8493700           2.4610607
 Leave Link  202 at Sat Aug 31 11:30:49 2019, MaxMem=   671088640 cpu:               3.4 elap:               1.7
 (Enter /shared/centos7/gaussian/g16/l301.exe)
 Standard basis: CC-pVTZ (5D, 7F)
 Ernie: Thresh=  0.10000D-02 Tol=  0.10000D-05 Strict=F.
 Ernie:  15 primitive shells out of 178 were deleted.
 There are   265 symmetry adapted cartesian basis functions of A   symmetry.
 There are   234 symmetry adapted basis functions of A   symmetry.
   234 basis functions,   362 primitive gaussians,   265 cartesian basis functions
    20 alpha electrons       20 beta electrons
       nuclear repulsion energy       175.4918787150 Hartrees.
 IExCor= 4336 DFT=T Ex+Corr=M062X ExCW=0 ScaHFX=  0.540000
 ScaDFX=  1.000000  1.000000  1.000000  1.000000 ScalE2=  1.000000  1.000000
 IRadAn=      5 IRanWt=     -1 IRanGd=            0 ICorTp=0 IEmpDi=  4
 NAtoms=   11 NActive=   11 NUniq=   11 SFac= 1.00D+00 NAtFMM=   60 NAOKFM=F Big=F
 Integral buffers will be    131072 words long.
 Raffenetti 2 integral format.
 Two-electron integral symmetry is turned on.
 Leave Link  301 at Sat Aug 31 11:30:50 2019, MaxMem=   671088640 cpu:               1.6 elap:               0.8
 (Enter /shared/centos7/gaussian/g16/l302.exe)
 NPDir=0 NMtPBC=     1 NCelOv=     1 NCel=       1 NClECP=     1 NCelD=      1
         NCelK=      1 NCelE2=     1 NClLst=     1 CellRange=     0.0.
 One-electron integrals computed using PRISM.
 One-electron integral symmetry used in STVInt
 NBasis=   234 RedAO= T EigKep=  3.67D-04  NBF=   234
 NBsUse=   234 1.00D-06 EigRej= -1.00D+00 NBFU=   234
 Precomputing XC quadrature grid using
 IXCGrd= 4 IRadAn=           5 IRanWt=          -1 IRanGd=           0 AccXCQ= 0.00D+00.
 Generated NRdTot=       0 NPtTot=           0 NUsed=           0 NTot=          32
 NSgBfM=   265   265   265   265   265 MxSgAt=    11 MxSgA2=    11.
 Leave Link  302 at Sat Aug 31 11:31:41 2019, MaxMem=   671088640 cpu:             101.6 elap:              50.8
 (Enter /shared/centos7/gaussian/g16/l303.exe)
 DipDrv:  MaxL=1.
 Leave Link  303 at Sat Aug 31 11:31:46 2019, MaxMem=   671088640 cpu:              11.1 elap:               5.6
 (Enter /shared/centos7/gaussian/g16/l401.exe)
 ExpMin= 1.03D-01 ExpMax= 1.53D+04 ExpMxC= 5.22D+02 IAcc=3 IRadAn=         5 AccDes= 0.00D+00
 Harris functional with IExCor= 1009 and IRadAn=       5 diagonalized for initial guess.
 HarFok:  IExCor= 1009 AccDes= 0.00D+00 IRadAn=         5 IDoV= 1 UseB2=F ITyADJ=14
 ICtDFT=  3500011 ScaDFX=  1.000000  1.000000  1.000000  1.000000
 FoFCou: FMM=F IPFlag=           0 FMFlag=      100000 FMFlg1=           0
         NFxFlg=           0 DoJE=T BraDBF=F KetDBF=T FulRan=T
         wScrn=  0.000000 ICntrl=       500 IOpCl=  0 I1Cent=   200000004 NGrid=           0
         NMat0=    1 NMatS0=      1 NMatT0=    0 NMatD0=    1 NMtDS0=    0 NMtDT0=    0
 Petite list used in FoFCou.
 Harris En= -268.197746402059    
 JPrj=0 DoOrth=F DoCkMO=F.
 Leave Link  401 at Sat Aug 31 11:32:07 2019, MaxMem=   671088640 cpu:              42.1 elap:              21.0
 (Enter /shared/centos7/gaussian/g16/l502.exe)
 Keep R1 ints in memory in canonical form, NReq=399924305.
 FoFCou: FMM=F IPFlag=           0 FMFlag=           0 FMFlg1=           0
         NFxFlg=           0 DoJE=F BraDBF=F KetDBF=F FulRan=T
         wScrn=  0.000000 ICntrl=       600 IOpCl=  0 I1Cent=           0 NGrid=           0
         NMat0=    1 NMatS0=  27495 NMatT0=    0 NMatD0=    1 NMtDS0=    0 NMtDT0=    0
 Symmetry not used in FoFCou.
 Two-electron integral symmetry not used.
 Closed shell SCF:
 Using DIIS extrapolation, IDIIS=  1040.
 NGot=   671088640 LenX=   292939207 LenY=   292868541
 Requested convergence on RMS density matrix=1.00D-08 within 900 cycles.
 Requested convergence on MAX density matrix=1.00D-06.
 Requested convergence on             energy=1.00D-06.
 No special actions if energy rises.
 Integral accuracy reduced to 1.0D-05 until final iterations.

 Cycle   1  Pass 0  IDiag  1:
 E= -268.188904617023    
 DIIS: error= 2.22D-02 at cycle   1 NSaved=   1.
 NSaved= 1 IEnMin= 1 EnMin= -268.188904617023     IErMin= 1 ErrMin= 2.22D-02
 ErrMax= 2.22D-02  0.00D+00 EMaxC= 1.00D-01 BMatC= 1.71D-01 BMatP= 1.71D-01
 IDIUse=3 WtCom= 7.78D-01 WtEn= 2.22D-01
 Coeff-Com:  0.100D+01
 Coeff-En:   0.100D+01
 Coeff:      0.100D+01
 Gap=     0.356 Goal=   None    Shift=    0.000
 GapD=    0.356 DampG=1.000 DampE=0.500 DampFc=0.5000 IDamp=-1.
 Damping current iteration by 5.00D-01
 RMSDP=1.96D-03 MaxDP=6.31D-02              OVMax= 1.16D-01

 Cycle   2  Pass 0  IDiag  1:
 E= -268.253394585589     Delta-E=       -0.064489968566 Rises=F Damp=T
 DIIS: error= 6.96D-03 at cycle   2 NSaved=   2.
 NSaved= 2 IEnMin= 2 EnMin= -268.253394585589     IErMin= 2 ErrMin= 6.96D-03
 ErrMax= 6.96D-03  0.00D+00 EMaxC= 1.00D-01 BMatC= 1.65D-02 BMatP= 1.71D-01
 IDIUse=3 WtCom= 9.30D-01 WtEn= 6.96D-02
 Coeff-Com: -0.174D+00 0.117D+01
 Coeff-En:   0.000D+00 0.100D+01
 Coeff:     -0.162D+00 0.116D+01
 Gap=     0.332 Goal=   None    Shift=    0.000
 RMSDP=3.91D-04 MaxDP=9.38D-03 DE=-6.45D-02 OVMax= 5.33D-02

 Cycle   3  Pass 0  IDiag  1:
 E= -268.309971706949     Delta-E=       -0.056577121361 Rises=F Damp=F
 DIIS: error= 3.41D-03 at cycle   3 NSaved=   3.
 NSaved= 3 IEnMin= 3 EnMin= -268.309971706949     IErMin= 3 ErrMin= 3.41D-03
 ErrMax= 3.41D-03  0.00D+00 EMaxC= 1.00D-01 BMatC= 3.42D-03 BMatP= 1.65D-02
 IDIUse=3 WtCom= 9.66D-01 WtEn= 3.41D-02
 Coeff-Com: -0.112D+00 0.375D+00 0.738D+00
 Coeff-En:   0.000D+00 0.000D+00 0.100D+01
 Coeff:     -0.108D+00 0.362D+00 0.747D+00
 Gap=     0.333 Goal=   None    Shift=    0.000
 RMSDP=1.65D-04 MaxDP=5.77D-03 DE=-5.66D-02 OVMax= 1.94D-02

 Cycle   4  Pass 0  IDiag  1:
 E= -268.311539639049     Delta-E=       -0.001567932100 Rises=F Damp=F
 DIIS: error= 1.56D-03 at cycle   4 NSaved=   4.
 NSaved= 4 IEnMin= 4 EnMin= -268.311539639049     IErMin= 4 ErrMin= 1.56D-03
 ErrMax= 1.56D-03  0.00D+00 EMaxC= 1.00D-01 BMatC= 8.95D-04 BMatP= 3.42D-03
 IDIUse=3 WtCom= 9.84D-01 WtEn= 1.56D-02
 Coeff-Com: -0.381D-01 0.968D-01 0.387D+00 0.555D+00
 Coeff-En:   0.000D+00 0.000D+00 0.215D+00 0.785D+00
 Coeff:     -0.375D-01 0.953D-01 0.384D+00 0.558D+00
 Gap=     0.328 Goal=   None    Shift=    0.000
 RMSDP=7.85D-05 MaxDP=2.96D-03 DE=-1.57D-03 OVMax= 9.42D-03

 Cycle   5  Pass 0  IDiag  1:
 E= -268.312228527002     Delta-E=       -0.000688887953 Rises=F Damp=F
 DIIS: error= 2.52D-04 at cycle   5 NSaved=   5.
 NSaved= 5 IEnMin= 5 EnMin= -268.312228527002     IErMin= 5 ErrMin= 2.52D-04
 ErrMax= 2.52D-04  0.00D+00 EMaxC= 1.00D-01 BMatC= 1.76D-05 BMatP= 8.95D-04
 IDIUse=3 WtCom= 9.97D-01 WtEn= 2.52D-03
 Coeff-Com: -0.583D-02 0.115D-01 0.851D-01 0.192D+00 0.717D+00
 Coeff-En:   0.000D+00 0.000D+00 0.000D+00 0.000D+00 0.100D+01
 Coeff:     -0.582D-02 0.114D-01 0.849D-01 0.192D+00 0.718D+00
 Gap=     0.329 Goal=   None    Shift=    0.000
 RMSDP=1.43D-05 MaxDP=4.31D-04 DE=-6.89D-04 OVMax= 1.81D-03

 Cycle   6  Pass 0  IDiag  1:
 E= -268.312241886275     Delta-E=       -0.000013359273 Rises=F Damp=F
 DIIS: error= 7.37D-05 at cycle   6 NSaved=   6.
 NSaved= 6 IEnMin= 6 EnMin= -268.312241886275     IErMin= 6 ErrMin= 7.37D-05
 ErrMax= 7.37D-05  0.00D+00 EMaxC= 1.00D-01 BMatC= 2.80D-06 BMatP= 1.76D-05
 IDIUse=1 WtCom= 1.00D+00 WtEn= 0.00D+00
 Coeff-Com: -0.122D-02 0.124D-02 0.265D-01 0.771D-01 0.379D+00 0.517D+00
 Coeff:     -0.122D-02 0.124D-02 0.265D-01 0.771D-01 0.379D+00 0.517D+00
 Gap=     0.329 Goal=   None    Shift=    0.000
 RMSDP=4.42D-06 MaxDP=1.35D-04 DE=-1.34D-05 OVMax= 4.94D-04

 Initial convergence to 1.0D-05 achieved.  Increase integral accuracy.
 Cycle   7  Pass 1  IDiag  1:
 E= -268.312269631052     Delta-E=       -0.000027744777 Rises=F Damp=F
 DIIS: error= 1.92D-05 at cycle   1 NSaved=   1.
 NSaved= 1 IEnMin= 1 EnMin= -268.312269631052     IErMin= 1 ErrMin= 1.92D-05
 ErrMax= 1.92D-05  0.00D+00 EMaxC= 1.00D-01 BMatC= 2.54D-07 BMatP= 2.54D-07
 IDIUse=1 WtCom= 1.00D+00 WtEn= 0.00D+00
 Coeff-Com:  0.100D+01
 Coeff:      0.100D+01
 Gap=     0.329 Goal=   None    Shift=    0.000
 RMSDP=4.42D-06 MaxDP=1.35D-04 DE=-2.77D-05 OVMax= 1.90D-04

 Cycle   8  Pass 1  IDiag  1:
 E= -268.312269751113     Delta-E=       -0.000000120061 Rises=F Damp=F
 DIIS: error= 1.83D-05 at cycle   2 NSaved=   2.
 NSaved= 2 IEnMin= 2 EnMin= -268.312269751113     IErMin= 2 ErrMin= 1.83D-05
 ErrMax= 1.83D-05  0.00D+00 EMaxC= 1.00D-01 BMatC= 1.34D-07 BMatP= 2.54D-07
 IDIUse=1 WtCom= 1.00D+00 WtEn= 0.00D+00
 Coeff-Com:  0.386D+00 0.614D+00
 Coeff:      0.386D+00 0.614D+00
 Gap=     0.329 Goal=   None    Shift=    0.000
 RMSDP=1.31D-06 MaxDP=3.44D-05 DE=-1.20D-07 OVMax= 1.43D-04

 Cycle   9  Pass 1  IDiag  1:
 E= -268.312269824931     Delta-E=       -0.000000073818 Rises=F Damp=F
 DIIS: error= 9.15D-06 at cycle   3 NSaved=   3.
 NSaved= 3 IEnMin= 3 EnMin= -268.312269824931     IErMin= 3 ErrMin= 9.15D-06
 ErrMax= 9.15D-06  0.00D+00 EMaxC= 1.00D-01 BMatC= 3.17D-08 BMatP= 1.34D-07
 IDIUse=1 WtCom= 1.00D+00 WtEn= 0.00D+00
 Coeff-Com: -0.390D-01 0.319D+00 0.720D+00
 Coeff:     -0.390D-01 0.319D+00 0.720D+00
 Gap=     0.329 Goal=   None    Shift=    0.000
 RMSDP=5.12D-07 MaxDP=1.48D-05 DE=-7.38D-08 OVMax= 5.73D-05

 Cycle  10  Pass 1  IDiag  1:
 E= -268.312269849088     Delta-E=       -0.000000024157 Rises=F Damp=F
 DIIS: error= 1.22D-06 at cycle   4 NSaved=   4.
 NSaved= 4 IEnMin= 4 EnMin= -268.312269849088     IErMin= 4 ErrMin= 1.22D-06
 ErrMax= 1.22D-06  0.00D+00 EMaxC= 1.00D-01 BMatC= 4.67D-10 BMatP= 3.17D-08
 IDIUse=1 WtCom= 1.00D+00 WtEn= 0.00D+00
 Coeff-Com: -0.195D-01 0.816D-01 0.226D+00 0.712D+00
 Coeff:     -0.195D-01 0.816D-01 0.226D+00 0.712D+00
 Gap=     0.329 Goal=   None    Shift=    0.000
 RMSDP=8.00D-08 MaxDP=3.08D-06 DE=-2.42D-08 OVMax= 8.63D-06

 Cycle  11  Pass 1  IDiag  1:
 E= -268.312269849485     Delta-E=       -0.000000000397 Rises=F Damp=F
 DIIS: error= 5.40D-07 at cycle   5 NSaved=   5.
 NSaved= 5 IEnMin= 5 EnMin= -268.312269849485     IErMin= 5 ErrMin= 5.40D-07
 ErrMax= 5.40D-07  0.00D+00 EMaxC= 1.00D-01 BMatC= 1.23D-10 BMatP= 4.67D-10
 IDIUse=1 WtCom= 1.00D+00 WtEn= 0.00D+00
 Coeff-Com: -0.309D-02-0.167D-01-0.112D-01 0.325D+00 0.706D+00
 Coeff:     -0.309D-02-0.167D-01-0.112D-01 0.325D+00 0.706D+00
 Gap=     0.329 Goal=   None    Shift=    0.000
 RMSDP=3.65D-08 MaxDP=9.61D-07 DE=-3.97D-10 OVMax= 3.04D-06

 Cycle  12  Pass 1  IDiag  1:
 E= -268.312269849583     Delta-E=       -0.000000000099 Rises=F Damp=F
 DIIS: error= 2.13D-07 at cycle   6 NSaved=   6.
 NSaved= 6 IEnMin= 6 EnMin= -268.312269849583     IErMin= 6 ErrMin= 2.13D-07
 ErrMax= 2.13D-07  0.00D+00 EMaxC= 1.00D-01 BMatC= 1.11D-11 BMatP= 1.23D-10
 IDIUse=1 WtCom= 1.00D+00 WtEn= 0.00D+00
 Coeff-Com:  0.168D-02-0.192D-01-0.362D-01 0.334D-01 0.284D+00 0.736D+00
 Coeff:      0.168D-02-0.192D-01-0.362D-01 0.334D-01 0.284D+00 0.736D+00
 Gap=     0.329 Goal=   None    Shift=    0.000
 RMSDP=1.25D-08 MaxDP=4.25D-07 DE=-9.86D-11 OVMax= 1.40D-06

 Cycle  13  Pass 1  IDiag  1:
 E= -268.312269849600     Delta-E=       -0.000000000017 Rises=F Damp=F
 DIIS: error= 3.48D-08 at cycle   7 NSaved=   7.
 NSaved= 7 IEnMin= 7 EnMin= -268.312269849600     IErMin= 7 ErrMin= 3.48D-08
 ErrMax= 3.48D-08  0.00D+00 EMaxC= 1.00D-01 BMatC= 3.67D-13 BMatP= 1.11D-11
 IDIUse=1 WtCom= 1.00D+00 WtEn= 0.00D+00
 Coeff-Com:  0.620D-03-0.417D-02-0.869D-02-0.910D-02 0.385D-01 0.198D+00
 Coeff-Com:  0.784D+00
 Coeff:      0.620D-03-0.417D-02-0.869D-02-0.910D-02 0.385D-01 0.198D+00
 Coeff:      0.784D+00
 Gap=     0.329 Goal=   None    Shift=    0.000
 RMSDP=2.80D-09 MaxDP=8.04D-08 DE=-1.71D-11 OVMax= 2.03D-07

 SCF Done:  E(RM062X) =  -268.312269850     A.U. after   13 cycles
            NFock= 13  Conv=0.28D-08     -V/T= 2.0061
 KE= 2.666770548837D+02 PE=-9.792089463670D+02 EE= 2.687277429186D+02
 Leave Link  502 at Sat Aug 31 11:37:32 2019, MaxMem=   671088640 cpu:             642.4 elap:             324.8
 (Enter /shared/centos7/gaussian/g16/l801.exe)
 DoSCS=F DFT=T ScalE2(SS,OS)=  1.000000  1.000000
 Range of M.O.s used for correlation:     1   234
 NBasis=   234 NAE=    20 NBE=    20 NFC=     0 NFV=     0
 NROrb=    234 NOA=    20 NOB=    20 NVA=   214 NVB=   214

 **** Warning!!: The largest alpha MO coefficient is  0.11966727D+02

 Leave Link  801 at Sat Aug 31 11:37:33 2019, MaxMem=   671088640 cpu:               1.4 elap:               0.7
 (Enter /shared/centos7/gaussian/g16/l1101.exe)
 Using compressed storage, NAtomX=    11.
 Will process     12 centers per pass.
 Leave Link 1101 at Sat Aug 31 11:37:54 2019, MaxMem=   671088640 cpu:              41.8 elap:              20.9
 (Enter /shared/centos7/gaussian/g16/l1102.exe)
 Symmetrizing basis deriv contribution to polar:
 IMax=3 JMax=2 DiffMx= 0.00D+00
 Leave Link 1102 at Sat Aug 31 11:37:56 2019, MaxMem=   671088640 cpu:               4.3 elap:               2.2
 (Enter /shared/centos7/gaussian/g16/l1110.exe)
 Forming Gx(P) for the SCF density, NAtomX=    11.
 Integral derivatives from FoFJK, PRISM(SPDF).
 Do as many integral derivatives as possible in FoFJK.
 G2DrvN: MDV=     671087712.
 G2DrvN: will do    12 centers at a time, making    1 passes.
 Calling FoFCou, ICntrl=  3107 FMM=F I1Cent=   0 AccDes= 0.00D+00.
 FoFJK:  IHMeth= 1 ICntrl=    3107 DoSepK=F KAlg= 0 I1Cent=           0 FoldK=F
 IRaf=         0 NMat=       1 IRICut=       1 DoRegI=T DoRafI=F ISym2E= 0 IDoP0=0 IntGTp=1.
 FoFCou: FMM=F IPFlag=           0 FMFlag=      100000 FMFlg1=           0
         NFxFlg=           0 DoJE=F BraDBF=F KetDBF=F FulRan=T
         wScrn=  0.000000 ICntrl=      3107 IOpCl=  0 I1Cent=           0 NGrid=           0
         NMat0=    1 NMatS0=      1 NMatT0=    0 NMatD0=    1 NMtDS0=    0 NMtDT0=    0
 Symmetry not used in FoFCou.
 End of G2Drv F.D. properties file   721 does not exist.
 End of G2Drv F.D. properties file   722 does not exist.
 End of G2Drv F.D. properties file   788 does not exist.
 Leave Link 1110 at Sat Aug 31 11:43:02 2019, MaxMem=   671088640 cpu:             611.8 elap:             306.0
 (Enter /shared/centos7/gaussian/g16/l1002.exe)
 Minotr:  Closed shell wavefunction.
          IDoAtm=11111111111
          Direct CPHF calculation.
          Differentiating once with respect to nuclear coordinates.
          Requested convergence is 1.0D-08 RMS, and 1.0D-07 maximum.
          Secondary convergence is 1.0D-12 RMS, and 1.0D-12 maximum.
          NewPWx=T KeepS1=F KeepF1=F KeepIn=T MapXYZ=F SortEE=F KeepMc=T.
         3293 words used for storage of precomputed grid.
 Keep R1 ints in memory in canonical form, NReq=399865292.
 FoFCou: FMM=F IPFlag=           0 FMFlag=           0 FMFlg1=           0
         NFxFlg=           0 DoJE=F BraDBF=F KetDBF=F FulRan=T
         wScrn=  0.000000 ICntrl=       600 IOpCl=  0 I1Cent=           0 NGrid=           0
         NMat0=    1 NMatS0=  27495 NMatT0=    0 NMatD0=    1 NMtDS0=    0 NMtDT0=    0
 Symmetry not used in FoFCou.
 Two-electron integral symmetry not used.
          MDV=     671088640 using IRadAn=       1.
          Solving linear equations simultaneously, MaxMat=       0.
          There are    36 degrees of freedom in the 1st order CPHF.  IDoFFX=6 NUNeed=     0.
     30 vectors produced by pass  0 Test12= 1.19D-14 2.78D-09 XBig12= 6.54D-02 6.73D-02.
 AX will form    30 AO Fock derivatives at one time.
     30 vectors produced by pass  1 Test12= 1.19D-14 2.78D-09 XBig12= 7.86D-03 4.12D-02.
     30 vectors produced by pass  2 Test12= 1.19D-14 2.78D-09 XBig12= 2.44D-04 3.48D-03.
     30 vectors produced by pass  3 Test12= 1.19D-14 2.78D-09 XBig12= 4.07D-06 3.46D-04.
     30 vectors produced by pass  4 Test12= 1.19D-14 2.78D-09 XBig12= 2.68D-08 2.39D-05.
     30 vectors produced by pass  5 Test12= 1.19D-14 2.78D-09 XBig12= 1.13D-10 1.52D-06.
     17 vectors produced by pass  6 Test12= 1.19D-14 2.78D-09 XBig12= 4.49D-13 9.81D-08.
      6 vectors produced by pass  7 Test12= 1.19D-14 2.78D-09 XBig12= 1.99D-15 4.98D-09.
 InvSVY:  IOpt=1 It=  1 EMax= 1.55D-15
 Solved reduced A of dimension   203 with    30 vectors.
 End of Minotr F.D. properties file   721 does not exist.
 End of Minotr F.D. properties file   722 does not exist.
 End of Minotr F.D. properties file   788 does not exist.
 Leave Link 1002 at Sat Aug 31 11:50:19 2019, MaxMem=   671088640 cpu:             874.6 elap:             437.4
 (Enter /shared/centos7/gaussian/g16/l601.exe)
 Copying SCF densities to generalized density rwf, IOpCl= 0 IROHF=0.

 **********************************************************************

            Population analysis using the SCF density.

 **********************************************************************

 Orbital symmetries:
       Occupied  (A) (A) (A) (A) (A) (A) (A) (A) (A) (A) (A) (A)
                 (A) (A) (A) (A) (A) (A) (A) (A)
       Virtual   (A) (A) (A) (A) (A) (A) (A) (A) (A) (A) (A) (A)
                 (A) (A) (A) (A) (A) (A) (A) (A) (A) (A) (A) (A)
                 (A) (A) (A) (A) (A) (A) (A) (A) (A) (A) (A) (A)
                 (A) (A) (A) (A) (A) (A) (A) (A) (A) (A) (A) (A)
                 (A) (A) (A) (A) (A) (A) (A) (A) (A) (A) (A) (A)
                 (A) (A) (A) (A) (A) (A) (A) (A) (A) (A) (A) (A)
                 (A) (A) (A) (A) (A) (A) (A) (A) (A) (A) (A) (A)
                 (A) (A) (A) (A) (A) (A) (A) (A) (A) (A) (A) (A)
                 (A) (A) (A) (A) (A) (A) (A) (A) (A) (A) (A) (A)
                 (A) (A) (A) (A) (A) (A) (A) (A) (A) (A) (A) (A)
                 (A) (A) (A) (A) (A) (A) (A) (A) (A) (A) (A) (A)
                 (A) (A) (A) (A) (A) (A) (A) (A) (A) (A) (A) (A)
                 (A) (A) (A) (A) (A) (A) (A) (A) (A) (A) (A) (A)
                 (A) (A) (A) (A) (A) (A) (A) (A) (A) (A) (A) (A)
                 (A) (A) (A) (A) (A) (A) (A) (A) (A) (A) (A) (A)
                 (A) (A) (A) (A) (A) (A) (A) (A) (A) (A) (A) (A)
                 (A) (A) (A) (A) (A) (A) (A) (A) (A) (A) (A) (A)
                 (A) (A) (A) (A) (A) (A) (A) (A) (A) (A)
 The electronic state is 1-A.
 Alpha  occ. eigenvalues --  -19.65352 -19.65094 -10.59512 -10.58513 -10.58385
 Alpha  occ. eigenvalues --   -1.17915  -1.16310  -0.85151  -0.79222  -0.68150
 Alpha  occ. eigenvalues --   -0.59936  -0.59365  -0.54257  -0.50331  -0.47929
 Alpha  occ. eigenvalues --   -0.46757  -0.45862  -0.40634  -0.40173  -0.27290
 Alpha virt. eigenvalues --    0.05621   0.07676   0.08341   0.09949   0.13148
 Alpha virt. eigenvalues --    0.14253   0.14565   0.16499   0.23446   0.26578
 Alpha virt. eigenvalues --    0.29312   0.30239   0.33906   0.34606   0.38182
 Alpha virt. eigenvalues --    0.39176   0.41347   0.42304   0.43391   0.44617
 Alpha virt. eigenvalues --    0.46813   0.48265   0.49394   0.51325   0.52622
 Alpha virt. eigenvalues --    0.53638   0.55867   0.57288   0.61742   0.63453
 Alpha virt. eigenvalues --    0.63930   0.69088   0.70627   0.71462   0.74631
 Alpha virt. eigenvalues --    0.74768   0.78826   0.80752   0.82046   0.86881
 Alpha virt. eigenvalues --    0.88228   0.91776   0.98492   0.98515   1.00737
 Alpha virt. eigenvalues --    1.01768   1.03691   1.04229   1.10057   1.12146
 Alpha virt. eigenvalues --    1.14196   1.16666   1.19702   1.20922   1.23920
 Alpha virt. eigenvalues --    1.25199   1.31015   1.31477   1.34579   1.35777
 Alpha virt. eigenvalues --    1.37874   1.40311   1.41367   1.47276   1.48664
 Alpha virt. eigenvalues --    1.49493   1.57620   1.58835   1.74327   1.76275
 Alpha virt. eigenvalues --    1.80346   1.87617   1.92506   1.92990   1.97412
 Alpha virt. eigenvalues --    2.03673   2.09350   2.14425   2.15729   2.21855
 Alpha virt. eigenvalues --    2.23579   2.30074   2.30930   2.33003   2.35652
 Alpha virt. eigenvalues --    2.43251   2.50826   2.53252   2.54203   2.55531
 Alpha virt. eigenvalues --    2.61856   2.63841   2.66795   2.73777   2.75578
 Alpha virt. eigenvalues --    2.77122   2.78366   2.82165   2.83828   2.85145
 Alpha virt. eigenvalues --    2.86614   2.89246   2.92664   2.95228   2.96532
 Alpha virt. eigenvalues --    3.00025   3.03204   3.04382   3.07285   3.09763
 Alpha virt. eigenvalues --    3.10692   3.14392   3.17562   3.19953   3.21883
 Alpha virt. eigenvalues --    3.23197   3.23383   3.26417   3.30065   3.30880
 Alpha virt. eigenvalues --    3.34560   3.35531   3.36781   3.37068   3.41606
 Alpha virt. eigenvalues --    3.43772   3.45458   3.50477   3.52511   3.54681
 Alpha virt. eigenvalues --    3.58132   3.60663   3.63155   3.69030   3.72521
 Alpha virt. eigenvalues --    3.73064   3.74221   3.78106   3.78839   3.81150
 Alpha virt. eigenvalues --    3.82227   3.83932   3.87426   3.89227   3.94653
 Alpha virt. eigenvalues --    3.96217   3.98744   4.00454   4.03307   4.04385
 Alpha virt. eigenvalues --    4.08017   4.13310   4.14469   4.22526   4.24235
 Alpha virt. eigenvalues --    4.27402   4.29635   4.39129   4.45681   4.46293
 Alpha virt. eigenvalues --    4.55343   4.57828   4.58811   4.63762   4.70757
 Alpha virt. eigenvalues --    4.74489   4.78711   4.82388   4.86143   4.90013
 Alpha virt. eigenvalues --    4.90332   4.93961   4.99032   5.00560   5.03164
 Alpha virt. eigenvalues --    5.04673   5.09606   5.20731   5.26187   5.28451
 Alpha virt. eigenvalues --    5.35677   5.42688   5.48310   5.51426   5.61376
 Alpha virt. eigenvalues --    5.70869   5.72071   5.78730   5.79667   5.87078
 Alpha virt. eigenvalues --    5.96997   6.02223   6.16687   6.26949   6.31576
 Alpha virt. eigenvalues --    6.39212   6.47299   6.58564   6.69232   6.70252
 Alpha virt. eigenvalues --    6.75693   6.77309   6.82329   6.87597   7.03334
 Alpha virt. eigenvalues --    7.12094   7.23779   7.27900   7.32225  10.45792
 Alpha virt. eigenvalues --   10.92664  11.65320  12.95589  13.96673
          Condensed to atoms (all electrons):
               1          2          3          4          5          6
     1  O    7.813722   0.003273   0.305763   0.362007  -0.072821  -0.046560
     2  O    0.003273   7.799575  -0.000091  -0.069675   0.342136  -0.000336
     3  C    0.305763  -0.000091   4.767456  -0.085019  -0.025511   0.385928
     4  C    0.362007  -0.069675  -0.085019   4.992929   0.517974  -0.001074
     5  C   -0.072821   0.342136  -0.025511   0.517974   4.964189   0.003739
     6  H   -0.046560  -0.000336   0.385928  -0.001074   0.003739   0.690094
     7  H   -0.028553  -0.000003   0.394077   0.005519   0.001081  -0.027626
     8  H   -0.046087  -0.000483   0.394819  -0.005568   0.007422  -0.083773
     9  H   -0.032352  -0.003057   0.007370   0.427668  -0.076355  -0.000206
    10  H   -0.005483  -0.033207   0.004188  -0.076254   0.426509  -0.002734
    11  H    0.000182   0.326667   0.000099  -0.006626  -0.052219  -0.000070
               7          8          9         10         11
     1  O   -0.028553  -0.046087  -0.032352  -0.005483   0.000182
     2  O   -0.000003  -0.000483  -0.003057  -0.033207   0.326667
     3  C    0.394077   0.394819   0.007370   0.004188   0.000099
     4  C    0.005519  -0.005568   0.427668  -0.076254  -0.006626
     5  C    0.001081   0.007422  -0.076355   0.426509  -0.052219
     6  H   -0.027626  -0.083773  -0.000206  -0.002734  -0.000070
     7  H    0.572065  -0.031291  -0.000258  -0.000199   0.000008
     8  H   -0.031291   0.662223   0.000020   0.001360  -0.000079
     9  H   -0.000258   0.000020   0.534562   0.002564   0.004373
    10  H   -0.000199   0.001360   0.002564   0.509886   0.006927
    11  H    0.000008  -0.000079   0.004373   0.006927   0.457092
 Mulliken charges:
               1
     1  O   -0.253091
     2  O   -0.364798
     3  C   -0.149078
     4  C   -0.061881
     5  C   -0.036143
     6  H    0.082618
     7  H    0.115180
     8  H    0.101435
     9  H    0.135670
    10  H    0.166443
    11  H    0.263647
 Sum of Mulliken charges =  -0.00000
 Mulliken charges with hydrogens summed into heavy atoms:
               1
     1  O   -0.253091
     2  O   -0.101152
     3  C    0.150155
     4  C    0.073789
     5  C    0.130300
 APT charges:
               1
     1  O   -0.149319
     2  O   -0.470215
     3  C   -0.882073
     4  C   -0.398263
     5  C   -0.326543
     6  H    0.217787
     7  H    0.521445
     8  H    0.255579
     9  H    0.387914
    10  H    0.316925
    11  H    0.526762
 Sum of APT charges =  -0.00000
 APT charges with hydrogens summed into heavy atoms:
               1
     1  O   -0.149319
     2  O    0.056547
     3  C    0.112739
     4  C   -0.010349
     5  C   -0.009617
 Electronic spatial extent (au):  <R**2>=            490.1768
 Charge=             -0.0000 electrons
 Dipole moment (field-independent basis, Debye):
    X=              0.2631    Y=              0.0605    Z=              0.2336  Tot=              0.3571
 Quadrupole moment (field-independent basis, Debye-Ang):
   XX=            -30.4690   YY=            -28.0946   ZZ=            -32.3318
   XY=             -7.2131   XZ=             -0.5769   YZ=              0.2098
 Traceless Quadrupole moment (field-independent basis, Debye-Ang):
   XX=             -0.1705   YY=              2.2039   ZZ=             -2.0334
   XY=             -7.2131   XZ=             -0.5769   YZ=              0.2098
 Octapole moment (field-independent basis, Debye-Ang**2):
  XXX=              3.5724  YYY=              3.0229  ZZZ=              0.4547  XYY=             -6.0044
  XXY=              7.7924  XXZ=              1.8312  XZZ=             -0.2638  YZZ=             -0.2058
  YYZ=              0.0770  XYZ=             -0.7437
 Hexadecapole moment (field-independent basis, Debye-Ang**3):
 XXXX=           -428.4573 YYYY=           -107.2986 ZZZZ=            -39.9794 XXXY=            -34.1612
 XXXZ=             -5.0296 YYYX=             -0.6078 YYYZ=              0.1051 ZZZX=             -0.0533
 ZZZY=             -0.0388 XXYY=            -92.4312 XXZZ=            -85.4203 YYZZ=            -26.0496
 XXYZ=              1.4665 YYXZ=             -0.2512 ZZXY=              0.3244
 N-N= 1.754918787150D+02 E-N=-9.792089368589D+02  KE= 2.666770548837D+02
  Exact polarizability:   0.000   0.000   0.000   0.000   0.000   0.000
 Approx polarizability:  60.538   5.426  57.730  -0.086   0.668  39.047
 No NMR shielding tensors so no spin-rotation constants.
 Leave Link  601 at Sat Aug 31 11:50:45 2019, MaxMem=   671088640 cpu:              51.5 elap:              25.8
 (Enter /shared/centos7/gaussian/g16/l701.exe)
 SCFChk:  SCF convergence  2.80D-09 required  1.00D-08
 ... and contract with generalized density number  0.
 Compute integral second derivatives.
 Entering OneElI...
 Calculate overlap and kinetic energy integrals
    NBasis = 265  MinDer = 2  MaxDer = 2
 Requested accuracy = 0.1000D-12
 PrmmSu-InSpLW:  IPartL=    0 NPrtUS=   20 NPrtUL=    1 DoSpLW=F IThBeg=    0 IThEnd=   19 NThAct=   20.
 PrsmSu:  NPrtUS=  20 ThrOK=T IAlg=1 NPAlg=1 LenDen=           0 ISkipM=0 DoSpLW=F IThBeg=    0 IThEnd=   19.
 Prism:   IPart=     0 DynPar=F LinDyn=F Incr=           1.
 PRISM was handed    33439216 working-precision words and  3726 shell-pairs
 PRISM was handed    33439216 working-precision words and  3726 shell-pairs
 PRISM was handed    33439216 working-precision words and  3726 shell-pairs
 PRISM was handed    33439216 working-precision words and  3726 shell-pairs
 PRISM was handed    33439216 working-precision words and  3726 shell-pairs
 PRISM was handed    33439216 working-precision words and  3726 shell-pairs
 PRISM was handed    33439216 working-precision words and  3726 shell-pairs
 PRISM was handed    33439216 working-precision words and  3726 shell-pairs
 PRISM was handed    33439216 working-precision words and  3726 shell-pairs
 PRISM was handed    33439216 working-precision words and  3726 shell-pairs
 PRISM was handed    33439216 working-precision words and  3726 shell-pairs
 PRISM was handed    33439216 working-precision words and  3726 shell-pairs
 IPart=  8 NShTot=         185 NBatch=          29 AvBLen=         6.4
 PRISM was handed    33439216 working-precision words and  3726 shell-pairs
 PRISM was handed    33439216 working-precision words and  3726 shell-pairs
 IPart=  0 NShTot=         224 NBatch=          64 AvBLen=         3.5
 PRISM was handed    33439216 working-precision words and  3726 shell-pairs
 PRISM was handed    33439216 working-precision words and  3726 shell-pairs
 IPart= 13 NShTot=         173 NBatch=          27 AvBLen=         6.4
 IPart= 12 NShTot=         176 NBatch=          28 AvBLen=         6.3
 PRISM was handed    33439216 working-precision words and  3726 shell-pairs
 IPart=  4 NShTot=         204 NBatch=          46 AvBLen=         4.4
 IPart=  7 NShTot=         191 NBatch=          35 AvBLen=         5.5
 PRISM was handed    33439216 working-precision words and  3726 shell-pairs
 IPart=  9 NShTot=         183 NBatch=          28 AvBLen=         6.5
 PRISM was handed    33439216 working-precision words and  3726 shell-pairs
 PRISM was handed    33439216 working-precision words and  3726 shell-pairs
 IPart=  5 NShTot=         195 NBatch=          39 AvBLen=         5.0
 IPart= 18 NShTot=         164 NBatch=          25 AvBLen=         6.6
 IPart= 16 NShTot=         164 NBatch=          25 AvBLen=         6.6
 IPart= 19 NShTot=         163 NBatch=          25 AvBLen=         6.5
 IPart=  2 NShTot=         214 NBatch=          55 AvBLen=         3.9
 IPart= 15 NShTot=         170 NBatch=          25 AvBLen=         6.8
 IPart=  3 NShTot=         212 NBatch=          53 AvBLen=         4.0
 IPart=  6 NShTot=         194 NBatch=          38 AvBLen=         5.1
 IPart= 17 NShTot=         164 NBatch=          25 AvBLen=         6.6
 IPart=  1 NShTot=         220 NBatch=          60 AvBLen=         3.7
 IPart= 11 NShTot=         178 NBatch=          28 AvBLen=         6.4
 IPart= 10 NShTot=         180 NBatch=          28 AvBLen=         6.4
 IPart= 14 NShTot=         172 NBatch=          26 AvBLen=         6.6
 PrSmSu:  NxtVal=             21.
 Entering OneElI...
 Calculate potential energy integrals
    NBasis = 265  MinDer = 2  MaxDer = 2
 Requested accuracy = 0.1000D-12
 PrmmSu-InSpLW:  IPartL=    0 NPrtUS=   20 NPrtUL=    1 DoSpLW=F IThBeg=    0 IThEnd=   19 NThAct=   20.
 PrsmSu:  NPrtUS=  20 ThrOK=T IAlg=1 NPAlg=1 LenDen=           0 ISkipM=0 DoSpLW=F IThBeg=    0 IThEnd=   19.
 Prism:   IPart=     0 DynPar=F LinDyn=F Incr=          19.
 PRISM was handed    33455414 working-precision words and  3534 shell-pairs
 PRISM was handed    33455414 working-precision words and  3534 shell-pairs
 PRISM was handed    33455414 working-precision words and  3534 shell-pairs
 PRISM was handed    33455414 working-precision words and  3534 shell-pairs
 PRISM was handed    33455414 working-precision words and  3534 shell-pairs
 PRISM was handed    33455414 working-precision words and  3534 shell-pairs
 PRISM was handed    33455414 working-precision words and  3534 shell-pairs
 PRISM was handed    33455414 working-precision words and  3534 shell-pairs
 PRISM was handed    33455414 working-precision words and  3534 shell-pairs
 PRISM was handed    33455414 working-precision words and  3534 shell-pairs
 PRISM was handed    33455414 working-precision words and  3534 shell-pairs
 PRISM was handed    33455414 working-precision words and  3534 shell-pairs
 PRISM was handed    33455414 working-precision words and  3534 shell-pairs
 PRISM was handed    33455414 working-precision words and  3534 shell-pairs
 PRISM was handed    33455414 working-precision words and  3534 shell-pairs
 PRISM was handed    33455414 working-precision words and  3534 shell-pairs
 PRISM was handed    33455414 working-precision words and  3534 shell-pairs
 PRISM was handed    33455414 working-precision words and  3534 shell-pairs
 PRISM was handed    33455414 working-precision words and  3534 shell-pairs
 PRISM was handed    33455414 working-precision words and  3534 shell-pairs
 IPart=  7 NShTot=        1914 NBatch=         174 AvBLen=        11.0
 IPart= 19 NShTot=        1749 NBatch=         159 AvBLen=        11.0
 IPart=  0 NShTot=        2409 NBatch=         219 AvBLen=        11.0
 IPart=  4 NShTot=        2112 NBatch=         192 AvBLen=        11.0
 IPart= 16 NShTot=        1771 NBatch=         161 AvBLen=        11.0
 IPart=  2 NShTot=        2244 NBatch=         204 AvBLen=        11.0
 IPart= 13 NShTot=        1826 NBatch=         166 AvBLen=        11.0
 IPart= 12 NShTot=        1826 NBatch=         166 AvBLen=        11.0
 IPart= 17 NShTot=        1760 NBatch=         160 AvBLen=        11.0
 IPart= 18 NShTot=        1760 NBatch=         160 AvBLen=        11.0
 IPart= 14 NShTot=        1804 NBatch=         164 AvBLen=        11.0
 IPart=  9 NShTot=        1870 NBatch=         170 AvBLen=        11.0
 IPart= 15 NShTot=        1771 NBatch=         161 AvBLen=        11.0
 IPart=  1 NShTot=        2310 NBatch=         210 AvBLen=        11.0
 IPart=  6 NShTot=        1958 NBatch=         178 AvBLen=        11.0
 IPart=  8 NShTot=        1903 NBatch=         173 AvBLen=        11.0
 IPart=  3 NShTot=        2189 NBatch=         199 AvBLen=        11.0
 IPart=  5 NShTot=        1991 NBatch=         181 AvBLen=        11.0
 IPart= 10 NShTot=        1859 NBatch=         169 AvBLen=        11.0
 IPart= 11 NShTot=        1848 NBatch=         168 AvBLen=        11.0
 PrSmSu:  NxtVal=            381.
 Polarizability after L701:
                1             2             3 
      1  0.000000D+00
      2  0.000000D+00  0.000000D+00
      3  0.000000D+00  0.000000D+00  0.000000D+00
 Dipole Derivatives after L701:
                 1             2             3             4             5 
      1  -0.876423D-01  0.157800D+00  0.785868D-02 -0.284910D+00  0.140109D+01
      2   0.243368D+00 -0.107060D+00  0.667406D-02  0.308530D+00 -0.718405D+00
      3  -0.797844D-02 -0.842455D-03 -0.253254D+00  0.500810D-01 -0.815406D-01
                 6             7             8             9            10 
      1   0.184217D+00 -0.992708D+00  0.485006D+00 -0.672506D-02 -0.502710D+00
      2  -0.571636D-01  0.621164D-01 -0.853673D+00  0.229292D-02  0.122831D-01
      3  -0.407328D+00  0.826319D-02  0.900953D-03 -0.799838D+00 -0.328429D-01
                11            12            13            14            15 
      1  -0.485161D-01 -0.386640D-01 -0.371575D+00 -0.287210D+00  0.254766D-01
      2  -0.724598D+00  0.953353D-02 -0.815526D-01 -0.645009D+00 -0.695191D-02
      3  -0.234386D-02  0.325172D-01  0.441311D-02  0.254364D-01  0.369560D-01
                16            17            18            19            20 
      1  -0.859829D-01 -0.291596D+00 -0.283594D+00  0.133040D+01  0.575829D-01
      2   0.146785D+00  0.352315D+00  0.238441D+00 -0.201565D+00  0.135512D+00
      3   0.105879D+00  0.167938D+00  0.387030D+00 -0.199933D-01 -0.564802D-02
                21            22            23            24            25 
      1  -0.445760D-01 -0.264208D-01 -0.301074D+00  0.332931D+00  0.225079D+00
      2   0.222223D-02  0.875307D-01  0.348698D+00 -0.247614D+00 -0.266121D+00
      3   0.984230D-01 -0.813485D-01 -0.162581D+00  0.444460D+00  0.519441D-02
                26            27            28            29            30 
      1  -0.195308D+00  0.557632D-02  0.106578D+00  0.210258D+00  0.569626D-02
      2   0.864280D+00 -0.162644D-01 -0.208504D+00  0.745903D+00  0.141147D-01
      3  -0.965547D-02  0.743845D-01 -0.919751D-02 -0.431034D-02  0.982945D-01
                31            32            33 
      1   0.689892D+00 -0.118803D+01 -0.188196D+00
      2  -0.102871D+00  0.602037D+00  0.547147D-01
      3  -0.224704D-01  0.726459D-01  0.288355D+00
 Hessian after L701:
                1             2             3             4             5 
      1  0.371487D+01
      2  0.246839D+01  0.869833D+01
      3 -0.212604D+00  0.530933D-01  0.151805D+02
      4  0.457632D+00  0.198645D+00  0.451064D-02  0.288723D+01
      5  0.237115D+00 -0.166013D+00 -0.836551D-03  0.119484D+01  0.877019D+01
      6  0.527726D-02 -0.240382D-03 -0.207684D+00  0.408324D+00 -0.712215D+00
      7 -0.561224D+01 -0.311525D+01  0.152982D-01  0.207297D+00 -0.110287D-01
      8 -0.285882D+01 -0.437651D-01 -0.722088D-01 -0.537602D-02 -0.122512D+00
      9  0.167606D-01 -0.674220D-01 -0.761656D+01  0.352822D-02 -0.244029D-02
     10  0.110266D+01 -0.357682D+00  0.262080D+00  0.348136D-01  0.332654D+00
     11 -0.562882D+00 -0.822467D+01  0.318854D-02  0.216556D+00 -0.617015D-02
     12  0.242078D+00  0.196225D-02 -0.836091D+01  0.277830D-02 -0.192192D-01
     13  0.921695D-01  0.373536D+00 -0.317607D-01  0.104874D+01 -0.311710D+00
     14  0.382008D+00  0.157900D+00 -0.169142D-02 -0.438566D+00 -0.773395D+01
     15 -0.174052D-01  0.335923D-03  0.201901D+00 -0.259921D+00  0.712931D-01
     16  0.102028D+00  0.139628D+00  0.394512D-01  0.186099D-01 -0.489550D-02
     17  0.743798D-01 -0.225713D+00  0.203487D+00 -0.255509D-01 -0.167311D-01
     18  0.358172D-01  0.151773D+00  0.378292D+00 -0.300158D-01  0.320721D-02
     19  0.201420D+00  0.439316D-01 -0.238798D-01  0.328746D-01  0.667416D-02
     20  0.101770D+00 -0.150961D+00  0.937119D-02 -0.574061D-03 -0.699048D-02
     21 -0.196955D-01  0.923293D-02  0.155176D-01 -0.531415D-03 -0.214096D-03
     22  0.835475D-01  0.148286D+00 -0.286988D-01  0.185225D-01 -0.437857D-02
     23  0.923842D-01 -0.237559D+00 -0.195182D+00 -0.219829D-01 -0.156756D-01
     24 -0.304800D-01 -0.150987D+00  0.402770D+00  0.293891D-01 -0.212024D-02
     25 -0.184201D+00  0.766548D-01 -0.150045D-01 -0.243755D-01  0.244207D-01
     26  0.343147D-01  0.137306D+00  0.725789D-02  0.702306D-01  0.789139D-01
     27 -0.113540D-01  0.458192D-02  0.557294D-01  0.235472D-02  0.158466D-02
     28 -0.107323D-01  0.237549D-01 -0.719576D-02 -0.182322D+00  0.103413D+00
     29  0.780782D-01  0.754663D-01 -0.825977D-02  0.602866D-01  0.108415D+00
     30  0.211379D-03 -0.202473D-02 -0.316399D-01  0.280297D-01 -0.168380D-01
     31  0.528545D-01  0.101919D-03 -0.219646D-02 -0.449902D+01 -0.156711D+01
     32 -0.467309D-01 -0.203143D-01  0.178049D-02 -0.124851D+01 -0.889469D+00
     33 -0.860537D-02 -0.304921D-03 -0.178932D-01 -0.188446D+00  0.677798D+00
                6             7             8             9            10 
      6  0.131282D+02
      7  0.844791D-02  0.127833D+02
      8 -0.141871D-02  0.254445D+01  0.901352D+01
      9 -0.126129D+00 -0.679169D-01  0.100100D-01  0.151732D+02
     10 -0.137650D-01  0.264873D+00 -0.232540D+00 -0.110968D-01  0.711438D+01
     11 -0.218946D-01 -0.127002D+00  0.590495D-03  0.182128D-01 -0.265710D+01
     12  0.169061D+00 -0.211607D-01  0.231777D-01  0.634071D-01 -0.293402D+00
     13 -0.212922D+00  0.194928D+00  0.197871D-01 -0.168125D-01 -0.524169D+01
     14  0.838570D-01 -0.831919D-01 -0.192995D+00  0.624661D-02  0.408493D+01
     15 -0.782504D+01 -0.189770D-01  0.780772D-02 -0.130234D+00  0.546151D-01
     16 -0.206681D-01 -0.329087D+01  0.362849D+00  0.462264D+00 -0.202396D-01
     17  0.888668D-02  0.529767D+00 -0.258003D+01  0.121662D+01 -0.473058D-01
     18 -0.601322D-02  0.627615D+00  0.111564D+01 -0.195355D+01 -0.446800D-02
     19  0.541269D-03 -0.110306D+01  0.656207D-02 -0.836849D-01  0.156406D+00
     20 -0.755406D-04 -0.688063D-01 -0.326202D+01  0.398015D-02 -0.610163D-01
     21 -0.786837D-02 -0.787598D-01  0.169710D-02 -0.326781D+01 -0.395162D-02
     22  0.176650D-01 -0.355440D+01  0.225789D+00 -0.299909D+00 -0.233201D-01
     23 -0.811588D-02  0.364241D+00 -0.286934D+01 -0.118336D+01 -0.247703D-01
     24 -0.388703D-02 -0.463861D+00 -0.108309D+01 -0.201224D+01 -0.158145D-03
     25  0.584765D-02  0.519448D-01 -0.108510D+00  0.117780D-02 -0.358388D+01
     26  0.794859D-02 -0.121469D+00  0.789034D-01 -0.105806D-02 -0.892645D+00
     27 -0.484214D-01  0.248970D-02 -0.233885D-02 -0.464485D-01  0.134672D-01
     28  0.376328D-01  0.380836D-01  0.493171D-01 -0.343186D-02  0.249506D+00
     29 -0.261481D-01  0.112651D+00 -0.154475D-01 -0.213224D-02 -0.129415D+00
     30  0.531529D-01  0.103432D-03  0.281803D-03 -0.759974D-01  0.696558D-02
     31 -0.236381D+00  0.201591D-01 -0.350117D-02 -0.878943D-03 -0.535158D-01
     32  0.669416D+00 -0.243627D-01 -0.690695D-02  0.134478D-02 -0.151075D-01
     33 -0.512533D+01 -0.327836D-02  0.445604D-03 -0.768442D-02 -0.102860D-01
               11            12            13            14            15 
     11  0.137175D+02
     12 -0.949770D-02  0.243934D+02
     13  0.421992D+01  0.500103D-01  0.710978D+01
     14 -0.346770D+01  0.182263D-01 -0.298941D+01  0.133266D+02
     15  0.252596D-01 -0.124222D+02  0.189457D+00 -0.122501D+00  0.242259D+02
     16 -0.247823D-01  0.244299D-01  0.924240D-01 -0.944620D-01  0.652311D-01
     17  0.285237D-01 -0.161086D-01 -0.122723D+00 -0.143981D-02 -0.135953D-01
     18  0.896670D-02 -0.425881D-01  0.464278D-02  0.167165D-01 -0.103892D+00
     19 -0.601241D-01 -0.396397D-02  0.685801D-01  0.357123D-02  0.667201D-03
     20 -0.247035D-01  0.427033D-03  0.728352D-03 -0.206669D-01 -0.243357D-03
     21  0.772023D-03 -0.388082D-01 -0.709324D-03 -0.122314D-03 -0.167855D-01
     22 -0.933795D-02 -0.253420D-01  0.113067D+00 -0.945761D-01 -0.316344D-01
     23  0.207029D-01  0.143172D-01 -0.121118D+00 -0.138580D-01 -0.229094D-02
     24 -0.877794D-02 -0.251943D-01  0.267542D-01 -0.259020D-01 -0.904292D-01
     25 -0.887650D+00  0.160290D-01  0.240921D+00 -0.109888D+00 -0.141712D-02
     26 -0.164647D+01 -0.585505D-01 -0.117701D+00 -0.351471D+00 -0.477821D-02
     27 -0.501674D-01 -0.395645D+01 -0.874849D-03 -0.582194D-02  0.215612D+00
     28 -0.176014D+00  0.749780D-02 -0.385905D+01 -0.776696D+00 -0.127808D-01
     29 -0.383284D+00  0.464807D-01 -0.923076D+00 -0.174582D+01  0.529344D-01
     30  0.380758D-01  0.226929D+00 -0.161632D-01  0.471022D-01 -0.414087D+01
     31  0.684176D-01  0.104602D-02  0.140132D+00  0.116279D+00  0.321648D-01
     32 -0.143055D-01 -0.121530D-02 -0.282389D-01  0.434129D-01 -0.142220D-01
     33 -0.413784D-02 -0.658355D-02  0.837775D-02 -0.161099D-01  0.860678D-01
               16            17            18            19            20 
     16  0.289858D+01
     17 -0.316398D+00  0.245142D+01
     18 -0.456591D+00 -0.128563D+01  0.221399D+01
     19 -0.745953D-01 -0.799290D-01 -0.990671D-01  0.785578D+00
     20 -0.709618D-01  0.427020D-01 -0.332076D-01  0.174283D+00  0.336192D+01
     21 -0.105801D+00 -0.429091D-01  0.264810D-01  0.710684D-01 -0.271195D-01
     22  0.280467D+00 -0.102721D-02 -0.723380D-01 -0.748465D-01 -0.759876D-01
     23  0.585309D-02  0.297200D+00  0.189628D-01 -0.900352D-01  0.600508D-01
     24 -0.119384D-01 -0.754852D-01 -0.505966D+00  0.138915D+00  0.468571D-01
     25 -0.120925D-02 -0.529089D-02 -0.306131D-02  0.351428D-02  0.159016D-02
     26 -0.134889D-02  0.903640D-02  0.621050D-02 -0.918215D-02  0.422030D-03
     27 -0.732227D-03  0.134255D-02 -0.151458D-02  0.232950D-03  0.227762D-04
     28 -0.544434D-02 -0.257863D-02  0.331887D-03 -0.947619D-03 -0.205400D-03
     29  0.599356D-02 -0.965547D-02 -0.731242D-02  0.120925D-01  0.219230D-03
     30  0.515607D-02  0.219395D-02 -0.530884D-02  0.421518D-03 -0.826054D-04
     31  0.253393D-03 -0.334415D-02 -0.286590D-02  0.507477D-02 -0.819583D-03
     32 -0.147451D-02  0.468610D-02  0.467679D-02 -0.784406D-02  0.313237D-04
     33 -0.802070D-03  0.119989D-02  0.728463D-04 -0.125057D-02  0.703169D-04
               21            22            23            24            25 
     21  0.328638D+01
     22  0.138718D+00  0.315169D+01
     23  0.583339D-01 -0.192671D+00  0.276055D+01
     24  0.695546D-02  0.296548D+00  0.130215D+01  0.223792D+01
     25 -0.179181D-03  0.729544D-04 -0.689124D-02  0.425386D-02  0.348541D+01
     26  0.239772D-03 -0.436142D-02  0.104541D-01 -0.792924D-02  0.100811D+01
     27 -0.806112D-03  0.154782D-02 -0.265011D-02 -0.124022D-02 -0.313879D-02
     28  0.434380D-04  0.436742D-02 -0.187776D-02  0.758159D-02 -0.126294D-01
     29 -0.131140D-03  0.106551D-01 -0.169403D-01  0.102223D-01 -0.843092D-02
     30 -0.274035D-02  0.320077D-02 -0.252835D-02 -0.751868D-02 -0.388067D-03
     31 -0.202011D-03  0.835042D-03 -0.313176D-02  0.299631D-02  0.244322D-01
     32  0.220368D-03 -0.239039D-02  0.440819D-02 -0.493268D-02  0.158812D-01
     33 -0.518533D-03  0.242539D-03  0.367766D-03 -0.116932D-02 -0.411937D-02
               26            27            28            29            30 
     26  0.164833D+01
     27  0.555381D-01  0.380656D+01
     28 -0.850418D-02  0.171943D-03  0.374821D+01
     29  0.561938D-01 -0.103823D-02  0.855428D+00  0.187081D+01
     30  0.107216D-02 -0.317217D-02 -0.228392D-01 -0.729249D-01  0.400828D+01
     31  0.425522D-01 -0.416450D-02  0.309578D-01 -0.742628D-01 -0.469800D-02
     32 -0.216215D-01 -0.105344D-02 -0.660364D-01  0.600468D-01  0.567261D-02
     33 -0.595101D-02 -0.198472D-01 -0.701194D-02  0.830942D-02 -0.211140D-01
               31            32            33 
     31  0.427784D+01
     32  0.142481D+01  0.840032D+00
     33  0.215179D+00 -0.661687D+00  0.511400D+01
 Leave Link  701 at Sat Aug 31 11:51:05 2019, MaxMem=   671088640 cpu:              40.4 elap:              20.2
 (Enter /shared/centos7/gaussian/g16/l702.exe)
 L702 exits ... SP integral derivatives will be done elsewhere.
 Leave Link  702 at Sat Aug 31 11:51:06 2019, MaxMem=   671088640 cpu:               1.3 elap:               0.7
 (Enter /shared/centos7/gaussian/g16/l703.exe)
 Integral derivatives from FoFJK, PRISM(SPDF).
 Compute integral second derivatives, UseDBF=F ICtDFT=           0.
 ICntrl=    100147.
 Calling FoFJK, ICntrl=    100147 FMM=F ISym2X=0 I1Cent= 0 IOpClX= 0 NMat=1 NMatS=1 NMatT=0.
 FoFJK:  IHMeth= 1 ICntrl=  100147 DoSepK=F KAlg= 0 I1Cent=           0 FoldK=F
 IRaf=         0 NMat=       1 IRICut=       1 DoRegI=T DoRafI=F ISym2E= 0 IDoP0=0 IntGTp=1.
 FoFCou: FMM=F IPFlag=           0 FMFlag=      100000 FMFlg1=         800
         NFxFlg=           0 DoJE=F BraDBF=F KetDBF=F FulRan=T
         wScrn=  0.000000 ICntrl=    100147 IOpCl=  0 I1Cent=           0 NGrid=           0
         NMat0=    1 NMatS0=      1 NMatT0=    0 NMatD0=    1 NMtDS0=    0 NMtDT0=    0
 Symmetry not used in FoFCou.
 FoFCou:  KetSym=F NOpSet=  1 NOpAb=1 NOp=  1.
 FoFCou:  CnvScl= 1.00D+00 Thresh= 1.00D-08 IAcrcy=      12.
 PrismS was handed   670741469 working-precision words and  3630 shell-pairs
 FoFCou: LinMIO=F DoNuc=F BraDBF=F KetDBF=F HaveP=T PDBF=F HaveZ=T HaveW=F
         NIJTC =      10 NIJTAt=       0 NIJTCD=       0 NIJTT =      10
         IJTBeg=       1 IJTEnd=      10 KLTBeg=       1 KLTEnd=      10
         IPTBeg=       1 IPTEnd=      10 IPTBCv=       1 IPTECv=      10
         IZTBeg=       1 IZTEnd=      10 IZTBCv=       1 IZTECv=      10
         IWTBeg=      11 IWTEnd=      10 IWTBCv=      11 IWTECv=      10
         INTBeg=       1 INTEnd=       0 IFTBCv=       1 IFTECv=      10
 NCel replicated for PrismC:     1
 CoulSu-InSpLW:  IPartL=    0 NPrtUS=   20 NPrtUL=    1 DoSpLW=F IThBeg=    0 IThEnd=   19 NThAct=   20.
 CoulSu:  IncDef=  1024 NBBP=        6590265 NTPThr=   100 NPartT=   20 Incr=        1024 LDynOK=F GPUOK=T.
 CoulSu:  NPrtUS=  20 ThrOK=T IAlg=1 NPAlg=1 LenDen=           0 LWGrdD=           0 DoCopy=F ISkipM=0
          DoSpLW=F IThBeg=    0 IThEnd=   19.
 Enter PrismC:  IPart=  0 JobTyp=22 DoJE=F Cont=F.
 PrismC:  IPart=     0 DynPar=T LinDyn=F Incr=        1024 UseFst=F UseS4=T ISplat=2.
 PrismC was handed    33456597 working-precision words and  3630 shell-pairs
 Enter PrismC:  IPart=  4 JobTyp=22 DoJE=F Cont=F.
 PrismC:  IPart=     4 DynPar=T LinDyn=F Incr=        1024 UseFst=F UseS4=T ISplat=2.
 PrismC was handed    33456597 working-precision words and  3630 shell-pairs
 Enter PrismC:  IPart= 16 JobTyp=22 DoJE=F Cont=F.
 PrismC:  IPart=    16 DynPar=T LinDyn=F Incr=        1024 UseFst=F UseS4=T ISplat=2.
 PrismC was handed    33456597 working-precision words and  3630 shell-pairs
 Enter PrismC:  IPart= 10 JobTyp=22 DoJE=F Cont=F.
 PrismC:  IPart=    10 DynPar=T LinDyn=F Incr=        1024 UseFst=F UseS4=T ISplat=2.
 PrismC was handed    33456597 working-precision words and  3630 shell-pairs
 Enter PrismC:  IPart=  5 JobTyp=22 DoJE=F Cont=F.
 PrismC:  IPart=     5 DynPar=T LinDyn=F Incr=        1024 UseFst=F UseS4=T ISplat=2.
 PrismC was handed    33456597 working-precision words and  3630 shell-pairs
 Enter PrismC:  IPart= 14 JobTyp=22 DoJE=F Cont=F.
 PrismC:  IPart=    14 DynPar=T LinDyn=F Incr=        1024 UseFst=F UseS4=T ISplat=2.
 PrismC was handed    33456597 working-precision words and  3630 shell-pairs
 Enter PrismC:  IPart=  8 JobTyp=22 DoJE=F Cont=F.
 PrismC:  IPart=     8 DynPar=T LinDyn=F Incr=        1024 UseFst=F UseS4=T ISplat=2.
 PrismC was handed    33456597 working-precision words and  3630 shell-pairs
 Enter PrismC:  IPart=  2 JobTyp=22 DoJE=F Cont=F.
 PrismC:  IPart=     2 DynPar=T LinDyn=F Incr=        1024 UseFst=F UseS4=T ISplat=2.
 PrismC was handed    33456597 working-precision words and  3630 shell-pairs
 Enter PrismC:  IPart= 18 JobTyp=22 DoJE=F Cont=F.
 PrismC:  IPart=    18 DynPar=T LinDyn=F Incr=        1024 UseFst=F UseS4=T ISplat=2.
 PrismC was handed    33456597 working-precision words and  3630 shell-pairs
 Enter PrismC:  IPart= 12 JobTyp=22 DoJE=F Cont=F.
 PrismC:  IPart=    12 DynPar=T LinDyn=F Incr=        1024 UseFst=F UseS4=T ISplat=2.
 PrismC was handed    33456597 working-precision words and  3630 shell-pairs
 Enter PrismC:  IPart= 15 JobTyp=22 DoJE=F Cont=F.
 Enter PrismC:  IPart= 19 JobTyp=22 DoJE=F Cont=F.
 PrismC:  IPart=    15 DynPar=T LinDyn=F Incr=        1024 UseFst=F UseS4=T ISplat=2.
 PrismC:  IPart=    19 DynPar=T LinDyn=F Incr=        1024 UseFst=F UseS4=T ISplat=2.
 PrismC was handed    33456597 working-precision words and  3630 shell-pairs
 PrismC was handed    33456597 working-precision words and  3630 shell-pairs
 Enter PrismC:  IPart=  1 JobTyp=22 DoJE=F Cont=F.
 PrismC:  IPart=     1 DynPar=T LinDyn=F Incr=        1024 UseFst=F UseS4=T ISplat=2.
 PrismC was handed    33456597 working-precision words and  3630 shell-pairs
 Enter PrismC:  IPart= 11 JobTyp=22 DoJE=F Cont=F.
 PrismC:  IPart=    11 DynPar=T LinDyn=F Incr=        1024 UseFst=F UseS4=T ISplat=2.
 PrismC was handed    33456597 working-precision words and  3630 shell-pairs
 Enter PrismC:  IPart=  9 JobTyp=22 DoJE=F Cont=F.
 PrismC:  IPart=     9 DynPar=T LinDyn=F Incr=        1024 UseFst=F UseS4=T ISplat=2.
 PrismC was handed    33456597 working-precision words and  3630 shell-pairs
 Enter PrismC:  IPart=  6 JobTyp=22 DoJE=F Cont=F.
 PrismC:  IPart=     6 DynPar=T LinDyn=F Incr=        1024 UseFst=F UseS4=T ISplat=2.
 PrismC was handed    33456597 working-precision words and  3630 shell-pairs
 Enter PrismC:  IPart= 17 JobTyp=22 DoJE=F Cont=F.
 PrismC:  IPart=    17 DynPar=T LinDyn=F Incr=        1024 UseFst=F UseS4=T ISplat=2.
 PrismC was handed    33456597 working-precision words and  3630 shell-pairs
 Enter PrismC:  IPart=  3 JobTyp=22 DoJE=F Cont=F.
 PrismC:  IPart=     3 DynPar=T LinDyn=F Incr=        1024 UseFst=F UseS4=T ISplat=2.
 PrismC was handed    33456597 working-precision words and  3630 shell-pairs
 Enter PrismC:  IPart= 13 JobTyp=22 DoJE=F Cont=F.
 PrismC:  IPart=    13 DynPar=T LinDyn=F Incr=        1024 UseFst=F UseS4=T ISplat=2.
 PrismC was handed    33456597 working-precision words and  3630 shell-pairs
 Enter PrismC:  IPart=  7 JobTyp=22 DoJE=F Cont=F.
 PrismC:  IPart=     7 DynPar=T LinDyn=F Incr=        1024 UseFst=F UseS4=T ISplat=2.
 PrismC was handed    33456597 working-precision words and  3630 shell-pairs
 IPart= 11 NShTot=      333826 NShNF=      333826 NShFF=           0 MinMC=       7
           NShCPU=      333826 NBCPU=       13658 AvBCPU=        24.4
           NShGPU=           0 NBGPU=           0 AvBGPU=         0.0
 IPart= 17 NShTot=      171068 NShNF=      171068 NShFF=           0 MinMC=       7
           NShCPU=      171068 NBCPU=        6934 AvBCPU=        24.7
           NShGPU=           0 NBGPU=           0 AvBGPU=         0.0
 IPart=  1 NShTot=      178539 NShNF=      178539 NShFF=           0 MinMC=       7
           NShCPU=      178539 NBCPU=        7440 AvBCPU=        24.0
           NShGPU=           0 NBGPU=           0 AvBGPU=         0.0
 IPart= 14 NShTot=      332174 NShNF=      332174 NShFF=           0 MinMC=       7
           NShCPU=      332174 NBCPU=       13624 AvBCPU=        24.4
           NShGPU=           0 NBGPU=           0 AvBGPU=         0.0
 IPart=  8 NShTot=      177532 NShNF=      177532 NShFF=           0 MinMC=       7
           NShCPU=      177532 NBCPU=        7414 AvBCPU=        23.9
           NShGPU=           0 NBGPU=           0 AvBGPU=         0.0
 IPart= 15 NShTot=      156079 NShNF=      156079 NShFF=           0 MinMC=       7
           NShCPU=      156079 NBCPU=        7315 AvBCPU=        21.3
           NShGPU=           0 NBGPU=           0 AvBGPU=         0.0
 IPart= 18 NShTot=      338476 NShNF=      338476 NShFF=           0 MinMC=       7
           NShCPU=      338476 NBCPU=       14316 AvBCPU=        23.6
           NShGPU=           0 NBGPU=           0 AvBGPU=         0.0
 IPart=  4 NShTot=      167009 NShNF=      167009 NShFF=           0 MinMC=       7
           NShCPU=      167009 NBCPU=        6703 AvBCPU=        24.9
           NShGPU=           0 NBGPU=           0 AvBGPU=         0.0
 IPart=  6 NShTot=      170682 NShNF=      170682 NShFF=           0 MinMC=       7
           NShCPU=      170682 NBCPU=        6844 AvBCPU=        24.9
           NShGPU=           0 NBGPU=           0 AvBGPU=         0.0
 IPart=  5 NShTot=      336272 NShNF=      336272 NShFF=           0 MinMC=       7
           NShCPU=      336272 NBCPU=       13944 AvBCPU=        24.1
           NShGPU=           0 NBGPU=           0 AvBGPU=         0.0
 IPart= 10 NShTot=      171328 NShNF=      171328 NShFF=           0 MinMC=       7
           NShCPU=      171328 NBCPU=        7513 AvBCPU=        22.8
           NShGPU=           0 NBGPU=           0 AvBGPU=         0.0
 IPart=  7 NShTot=      165149 NShNF=      165149 NShFF=           0 MinMC=       7
           NShCPU=      165149 NBCPU=        7210 AvBCPU=        22.9
           NShGPU=           0 NBGPU=           0 AvBGPU=         0.0
 IPart=  2 NShTot=      334915 NShNF=      334915 NShFF=           0 MinMC=       7
           NShCPU=      334915 NBCPU=       14134 AvBCPU=        23.7
           NShGPU=           0 NBGPU=           0 AvBGPU=         0.0
 IPart=  9 NShTot=      172512 NShNF=      172512 NShFF=           0 MinMC=       7
           NShCPU=      172512 NBCPU=        7514 AvBCPU=        23.0
           NShGPU=           0 NBGPU=           0 AvBGPU=         0.0
 IPart= 13 NShTot=      345091 NShNF=      345091 NShFF=           0 MinMC=       7
           NShCPU=      345091 NBCPU=       13714 AvBCPU=        25.2
           NShGPU=           0 NBGPU=           0 AvBGPU=         0.0
 IPart= 12 NShTot=      173320 NShNF=      173320 NShFF=           0 MinMC=       7
           NShCPU=      173320 NBCPU=        7383 AvBCPU=        23.5
           NShGPU=           0 NBGPU=           0 AvBGPU=         0.0
 IPart= 19 NShTot=      171363 NShNF=      171363 NShFF=           0 MinMC=       7
           NShCPU=      171363 NBCPU=        7527 AvBCPU=        22.8
           NShGPU=           0 NBGPU=           0 AvBGPU=         0.0
 IPart= 16 NShTot=      331606 NShNF=      331606 NShFF=           0 MinMC=       7
           NShCPU=      331606 NBCPU=       13519 AvBCPU=        24.5
           NShGPU=           0 NBGPU=           0 AvBGPU=         0.0
 IPart=  0 NShTot=      163566 NShNF=      163566 NShFF=           0 MinMC=       7
           NShCPU=      163566 NBCPU=        7205 AvBCPU=        22.7
           NShGPU=           0 NBGPU=           0 AvBGPU=         0.0
 IPart=  3 NShTot=      181324 NShNF=      181324 NShFF=           0 MinMC=       7
           NShCPU=      181324 NBCPU=        7865 AvBCPU=        23.1
           NShGPU=           0 NBGPU=           0 AvBGPU=         0.0
 CoulSu:  NxtVal=        7028737 LenVP=       33456598 MinMC=       7.
 ReadGW:  IGet=0 IStart=           1 Next=           1 LGW=           0.
 Remaining memory in FofDFT      639.93 Mw
 CkSvGd:  ISavGI=        -1 IRadAn=       5 IRASav=       5 ISavGd=        -1.
 CalDSu-InSpLW:  IPartL=    0 NPrtUS=   20 NPrtUL=    1 DoSpLW=F IThBeg=    0 IThEnd=   19 NThAct=   20.
 CalDSu:  NPrtUS=  20 ThrOK=T IAlg=1 NPAlg=2 DoDPD=T LenP=       35245 LenD1P=             0 GPUOK=F
          ISkipM=0 DoSpLW=F IThBeg=    0 IThEnd=   19.
 IPart=  0 IRanGd=          0 ScrnBf=T ScrnGd=T RCrit=4.00D+00 DoMicB=T.
 IPart=  9        11054 of        12366 points in      14 batches and       69 microbatches, Max-NSigAt=      11 Max-NSgAt2=      11
 IPart= 10        11782 of        13394 points in      15 batches and       38 microbatches, Max-NSigAt=      11 Max-NSgAt2=      11
 IPart= 19        10100 of        10868 points in      11 batches and       73 microbatches, Max-NSigAt=      11 Max-NSgAt2=      11
 IPart= 18        10669 of        11378 points in      11 batches and       58 microbatches, Max-NSigAt=      11 Max-NSgAt2=      11
 IPart=  4        11899 of        13350 points in      14 batches and       61 microbatches, Max-NSigAt=      11 Max-NSgAt2=      11
 IPart=  2        11239 of        11714 points in      11 batches and       52 microbatches, Max-NSigAt=      11 Max-NSgAt2=      11
 IPart=  1        11628 of        12962 points in      13 batches and       61 microbatches, Max-NSigAt=      11 Max-NSgAt2=      11
 IPart=  5        11715 of        12212 points in      11 batches and       52 microbatches, Max-NSigAt=      11 Max-NSgAt2=      11
 IPart=  7        13549 of        15932 points in      18 batches and      110 microbatches, Max-NSigAt=      11 Max-NSgAt2=      11
 IPart=  0        11645 of        12794 points in      13 batches and       59 microbatches, Max-NSigAt=      11 Max-NSgAt2=      11
 IPart= 15         9886 of        11100 points in      12 batches and      101 microbatches, Max-NSigAt=      11 Max-NSgAt2=      11
 IPart= 14        10554 of        11720 points in      13 batches and       86 microbatches, Max-NSigAt=      11 Max-NSgAt2=      11
 IPart=  3         9828 of        10426 points in      11 batches and       58 microbatches, Max-NSigAt=      11 Max-NSgAt2=      11
 IPart= 13        10878 of        12718 points in      14 batches and       88 microbatches, Max-NSigAt=      11 Max-NSgAt2=      11
 IPart=  6        10747 of        11462 points in      11 batches and       59 microbatches, Max-NSigAt=      11 Max-NSgAt2=      11
 IPart= 16        12604 of        13684 points in      13 batches and       63 microbatches, Max-NSigAt=      11 Max-NSgAt2=      11
 IPart= 12        11281 of        11830 points in      11 batches and       54 microbatches, Max-NSigAt=      11 Max-NSgAt2=      11
 IPart= 11        10543 of        11280 points in      11 batches and       60 microbatches, Max-NSigAt=      11 Max-NSgAt2=      11
 IPart=  8        10077 of        10660 points in      11 batches and       59 microbatches, Max-NSigAt=      11 Max-NSgAt2=      11
 IPart= 17        12527 of        14550 points in      17 batches and       69 microbatches, Max-NSigAt=      11 Max-NSgAt2=      11
 Polarizability after L703:
                1             2             3 
      1  0.000000D+00
      2  0.000000D+00  0.000000D+00
      3  0.000000D+00  0.000000D+00  0.000000D+00
 Dipole Derivatives after L703:
                 1             2             3             4             5 
      1  -0.876423D-01  0.157800D+00  0.785868D-02 -0.284910D+00  0.140109D+01
      2   0.243368D+00 -0.107060D+00  0.667406D-02  0.308530D+00 -0.718405D+00
      3  -0.797844D-02 -0.842455D-03 -0.253254D+00  0.500810D-01 -0.815406D-01
                 6             7             8             9            10 
      1   0.184217D+00 -0.992708D+00  0.485006D+00 -0.672506D-02 -0.502710D+00
      2  -0.571636D-01  0.621164D-01 -0.853673D+00  0.229292D-02  0.122831D-01
      3  -0.407328D+00  0.826319D-02  0.900953D-03 -0.799838D+00 -0.328429D-01
                11            12            13            14            15 
      1  -0.485161D-01 -0.386640D-01 -0.371575D+00 -0.287210D+00  0.254766D-01
      2  -0.724598D+00  0.953353D-02 -0.815526D-01 -0.645009D+00 -0.695191D-02
      3  -0.234386D-02  0.325172D-01  0.441311D-02  0.254364D-01  0.369560D-01
                16            17            18            19            20 
      1  -0.859829D-01 -0.291596D+00 -0.283594D+00  0.133040D+01  0.575829D-01
      2   0.146785D+00  0.352315D+00  0.238441D+00 -0.201565D+00  0.135512D+00
      3   0.105879D+00  0.167938D+00  0.387030D+00 -0.199933D-01 -0.564802D-02
                21            22            23            24            25 
      1  -0.445760D-01 -0.264208D-01 -0.301074D+00  0.332931D+00  0.225079D+00
      2   0.222223D-02  0.875307D-01  0.348698D+00 -0.247614D+00 -0.266121D+00
      3   0.984230D-01 -0.813485D-01 -0.162581D+00  0.444460D+00  0.519441D-02
                26            27            28            29            30 
      1  -0.195308D+00  0.557632D-02  0.106578D+00  0.210258D+00  0.569626D-02
      2   0.864280D+00 -0.162644D-01 -0.208504D+00  0.745903D+00  0.141147D-01
      3  -0.965547D-02  0.743845D-01 -0.919751D-02 -0.431034D-02  0.982945D-01
                31            32            33 
      1   0.689892D+00 -0.118803D+01 -0.188196D+00
      2  -0.102871D+00  0.602037D+00  0.547147D-01
      3  -0.224704D-01  0.726459D-01  0.288355D+00
 Hessian after L703:
                1             2             3             4             5 
      1  0.443347D+00
      2 -0.582220D-01  0.370953D+00
      3  0.662974D-02 -0.304598D-02  0.869463D-01
      4 -0.230275D-01  0.141609D-02 -0.453373D-03  0.452468D+00
      5 -0.103398D-02 -0.283910D-02 -0.242973D-03 -0.576082D-01  0.426044D+00
      6 -0.904859D-03 -0.387019D-04  0.124046D-01 -0.165905D-01  0.522208D-01
      7 -0.975721D-01  0.125876D-01 -0.383679D-03  0.306113D-02  0.157586D-02
      8  0.537175D-01 -0.202914D+00  0.213058D-02 -0.998493D-02 -0.224616D-02
      9 -0.164937D-02  0.253919D-02 -0.672267D-01  0.234920D-03 -0.351737D-03
     10 -0.266164D+00  0.139798D-01 -0.428014D-02 -0.363345D-01 -0.362479D-01
     11 -0.316233D-01 -0.104832D+00 -0.118214D-02  0.512078D-03  0.988845D-02
     12 -0.397288D-02  0.875957D-03 -0.434675D-01  0.129050D-02  0.472001D-03
     13 -0.271812D-01 -0.310916D-01  0.110535D-02 -0.307161D+00  0.256222D-01
     14 -0.771187D-02  0.917278D-02  0.407193D-03 -0.204666D-01 -0.104834D+00
     15 -0.835835D-03  0.201800D-03  0.357419D-02  0.275830D-04 -0.481606D-02
     16  0.219655D-02  0.929353D-02  0.107957D-01  0.501567D-03  0.461967D-03
     17 -0.115501D-04 -0.343379D-01 -0.253971D-01  0.103645D-02  0.202321D-03
     18  0.420090D-02 -0.456140D-02  0.608719D-02  0.754383D-03  0.829455D-03
     19 -0.136590D-01  0.503835D-02 -0.490121D-04 -0.694630D-03  0.162271D-03
     20  0.407283D-01 -0.374645D-02 -0.107875D-02  0.661079D-03  0.802986D-03
     21 -0.411614D-03 -0.101121D-03 -0.471701D-03 -0.134763D-04  0.100861D-03
     22  0.136609D-02  0.991183D-02 -0.125328D-01  0.584912D-03  0.195092D-03
     23  0.168187D-02 -0.339820D-01  0.278793D-01  0.113047D-02  0.662493D-04
     24 -0.371497D-02  0.389984D-02  0.702315D-02 -0.706676D-03 -0.652962D-03
     25 -0.203972D-01  0.348245D-01 -0.365845D-03  0.374237D-02 -0.154609D-02
     26  0.285127D-02  0.265387D-02  0.492153D-04  0.875335D-03  0.271135D-02
     27 -0.626052D-03  0.309186D-03  0.275769D-03 -0.693403D-03  0.470130D-03
     28 -0.307868D-03  0.332182D-02 -0.700396D-04 -0.191895D-01  0.342215D-01
     29  0.165629D-02  0.656359D-03  0.114059D-03  0.293190D-02  0.296047D-02
     30  0.801621D-03  0.354581D-04 -0.395214D-02  0.146516D-02 -0.852771D-03
     31  0.139843D-02 -0.105984D-02 -0.395829D-03 -0.739510D-01  0.341972D-01
     32 -0.203245D-02 -0.784739D-03  0.366637D-03  0.794963D-01 -0.332756D+00
     33  0.483316D-03 -0.114230D-03 -0.119312D-02  0.146849D-01 -0.471767D-01
                6             7             8             9            10 
      6  0.612798D-01
      7  0.259345D-03  0.554115D+00
      8  0.219624D-04  0.324245D-01  0.459550D+00
      9 -0.133401D-03 -0.173014D-01 -0.327435D-01  0.550015D+00
     10  0.140656D-02 -0.372342D-01  0.197760D-01  0.291392D-03  0.665188D+00
     11 -0.652358D-03  0.461331D-01 -0.130420D-01  0.916036D-03  0.134779D+00
     12  0.431939D-02 -0.434296D-03 -0.257605D-03  0.316913D-05  0.390847D-02
     13  0.793278D-02 -0.739624D-02 -0.143437D-02  0.241495D-03 -0.267469D+00
     14 -0.471096D-02  0.376263D-03  0.748312D-02  0.492407D-03 -0.210424D+00
     15 -0.378714D-01 -0.229602D-03 -0.657417D-03 -0.562555D-03  0.117859D-02
     16 -0.414164D-03 -0.821524D-01 -0.350687D-01 -0.586173D-01  0.479561D-02
     17  0.198752D-03 -0.302847D-01 -0.946736D-01 -0.684948D-01 -0.678020D-02
     18  0.191403D-03 -0.530129D-01 -0.711603D-01 -0.182202D+00 -0.116333D-02
[...]
 ITU=  0
     Eigenvalues ---    0.00406   0.00640   0.01933   0.02460   0.02992
     Eigenvalues ---    0.04427   0.08806   0.08811   0.10931   0.13133
     Eigenvalues ---    0.13659   0.16238   0.17950   0.18678   0.20377
     Eigenvalues ---    0.22501   0.31078   0.33039   0.33499   0.35245
     Eigenvalues ---    0.36308   0.37434   0.40546   0.44209   0.51139
     Eigenvalues ---    0.54165   0.65553
 Angle between quadratic step and forces=  71.62 degrees.
 Linear search not attempted -- first point.
 Iteration  1 RMS(Cart)=  0.00000681 RMS(Int)=  0.00000000
 Iteration  2 RMS(Cart)=  0.00000000 RMS(Int)=  0.00000000
 ITry= 1 IFail=0 DXMaxC= 2.20D-05 DCOld= 1.00D+10 DXMaxT= 3.00D-01 DXLimC= 3.00D+00 Rises=F
 Variable       Old X    -DE/DX   Delta X   Delta X   Delta X     New X
                                 (Linear)    (Quad)   (Total)
    R1        2.65861   0.00000   0.00000   0.00000   0.00000   2.65861
    R2        2.56838  -0.00000   0.00000  -0.00000  -0.00000   2.56838
    R3        2.58763   0.00000   0.00000   0.00000   0.00000   2.58763
    R4        1.81657   0.00000   0.00000   0.00000   0.00000   1.81657
    R5        2.06764  -0.00000   0.00000  -0.00000  -0.00000   2.06763
    R6        2.05178  -0.00000   0.00000  -0.00000  -0.00000   2.05178
    R7        2.06763   0.00000   0.00000   0.00000   0.00000   2.06763
    R8        2.51125   0.00000   0.00000   0.00000   0.00000   2.51125
    R9        2.04733  -0.00000   0.00000  -0.00000  -0.00000   2.04733
   R10        2.03836   0.00000   0.00000   0.00000   0.00000   2.03837
    A1        2.01872  -0.00000   0.00000  -0.00000  -0.00000   2.01872
    A2        1.91222   0.00000   0.00000   0.00000   0.00000   1.91222
    A3        1.93529  -0.00000   0.00000  -0.00000  -0.00000   1.93529
    A4        1.86506   0.00000   0.00000   0.00000   0.00000   1.86506
    A5        1.93529  -0.00000   0.00000  -0.00000  -0.00000   1.93529
    A6        1.91340   0.00000   0.00000   0.00000   0.00000   1.91341
    A7        1.90113  -0.00000   0.00000  -0.00000  -0.00000   1.90113
    A8        1.91341  -0.00000   0.00000  -0.00000  -0.00000   1.91341
    A9        2.21963  -0.00000   0.00000  -0.00000  -0.00000   2.21963
   A10        1.94478   0.00000   0.00000   0.00000   0.00000   1.94478
   A11        2.11878   0.00000   0.00000   0.00000   0.00000   2.11878
   A12        2.17288   0.00000   0.00000   0.00000   0.00000   2.17288
   A13        1.94814  -0.00000   0.00000   0.00000   0.00000   1.94814
   A14        2.16216  -0.00000   0.00000  -0.00000  -0.00000   2.16216
    D1        1.05716  -0.00000   0.00000  -0.00001  -0.00001   1.05716
    D2       -3.14159   0.00000   0.00000  -0.00001  -0.00001   3.14159
    D3       -1.05715   0.00000   0.00000  -0.00001  -0.00001  -1.05716
    D4       -0.00002   0.00000   0.00000   0.00002   0.00002   0.00000
    D5        3.14158   0.00000   0.00000   0.00001   0.00001  -3.14159
    D6        0.00001  -0.00000   0.00000  -0.00001  -0.00001   0.00000
    D7       -3.14159  -0.00000   0.00000  -0.00000  -0.00000  -3.14159
    D8       -3.14159   0.00000   0.00000  -0.00000  -0.00000  -3.14159
    D9        0.00000   0.00000   0.00000  -0.00000  -0.00000   0.00000
   D10       -0.00000   0.00000   0.00000   0.00000   0.00000   0.00000
   D11        3.14159   0.00000   0.00000   0.00000   0.00000  -3.14159
         Item               Value     Threshold  Converged?
 Maximum Force            0.000001     0.000015     YES
 RMS     Force            0.000000     0.000010     YES
 Maximum Displacement     0.000022     0.000060     YES
 RMS     Displacement     0.000007     0.000040     YES
 Predicted change in Energy=-6.224988D-12
 Optimization completed.
    -- Stationary point found.
                           ----------------------------
                           !   Optimized Parameters   !
                           ! (Angstroms and Degrees)  !
 --------------------------                            --------------------------
 ! Name  Definition              Value          Derivative Info.                !
 --------------------------------------------------------------------------------
 ! R1    R(1,3)                  1.4069         -DE/DX =    0.0                 !
 ! R2    R(1,4)                  1.3591         -DE/DX =    0.0                 !
 ! R3    R(2,5)                  1.3693         -DE/DX =    0.0                 !
 ! R4    R(2,11)                 0.9613         -DE/DX =    0.0                 !
 ! R5    R(3,6)                  1.0941         -DE/DX =    0.0                 !
 ! R6    R(3,7)                  1.0858         -DE/DX =    0.0                 !
 ! R7    R(3,8)                  1.0941         -DE/DX =    0.0                 !
 ! R8    R(4,5)                  1.3289         -DE/DX =    0.0                 !
 ! R9    R(4,9)                  1.0834         -DE/DX =    0.0                 !
 ! R10   R(5,10)                 1.0787         -DE/DX =    0.0                 !
 ! A1    A(3,1,4)              115.664          -DE/DX =    0.0                 !
 ! A2    A(5,2,11)             109.5621         -DE/DX =    0.0                 !
 ! A3    A(1,3,6)              110.8841         -DE/DX =    0.0                 !
 ! A4    A(1,3,7)              106.86           -DE/DX =    0.0                 !
 ! A5    A(1,3,8)              110.8841         -DE/DX =    0.0                 !
 ! A6    A(6,3,7)              109.63           -DE/DX =    0.0                 !
 ! A7    A(6,3,8)              108.9266         -DE/DX =    0.0                 !
 ! A8    A(7,3,8)              109.6301         -DE/DX =    0.0                 !
 ! A9    A(1,4,5)              127.1757         -DE/DX =    0.0                 !
 ! A10   A(1,4,9)              111.4274         -DE/DX =    0.0                 !
 ! A11   A(5,4,9)              121.3969         -DE/DX =    0.0                 !
 ! A12   A(2,5,4)              124.4968         -DE/DX =    0.0                 !
 ! A13   A(2,5,10)             111.6203         -DE/DX =    0.0                 !
 ! A14   A(4,5,10)             123.8828         -DE/DX =    0.0                 !
 ! D1    D(4,1,3,6)             60.5711         -DE/DX =    0.0                 !
 ! D2    D(4,1,3,7)            180.0003         -DE/DX =    0.0                 !
 ! D3    D(4,1,3,8)            -60.5703         -DE/DX =    0.0                 !
 ! D4    D(3,1,4,5)             -0.0009         -DE/DX =    0.0                 !
 ! D5    D(3,1,4,9)           -180.0008         -DE/DX =    0.0                 !
 ! D6    D(11,2,5,4)             0.0003         -DE/DX =    0.0                 !
 ! D7    D(11,2,5,10)         -179.9997         -DE/DX =    0.0                 !
 ! D8    D(1,4,5,2)           -180.0            -DE/DX =    0.0                 !
 ! D9    D(1,4,5,10)             0.0001         -DE/DX =    0.0                 !
 ! D10   D(9,4,5,2)             -0.0001         -DE/DX =    0.0                 !
 ! D11   D(9,4,5,10)          -180.0            -DE/DX =    0.0                 !
 --------------------------------------------------------------------------------
 GradGradGradGradGradGradGradGradGradGradGradGradGradGradGradGradGradGrad

 Leave Link  103 at Sat Aug 31 13:07:48 2019, MaxMem=   671088640 cpu:             104.8 elap:              52.5
 (Enter /shared/centos7/gaussian/g16/l9999.exe)

 ----------------------------------------------------------------------

 Electric dipole moment (input orientation):
 (Debye = 10**-18 statcoulomb cm , SI units = C m)
                  (au)            (Debye)         (10**-30 SI)
   Tot        0.167483D+00      0.425698D+00      0.141998D+01
   x         -0.925893D-02     -0.235338D-01     -0.785004D-01
   y         -0.164914D+00     -0.419169D+00     -0.139820D+01
   z          0.277155D-01      0.704459D-01      0.234982D+00

 Dipole polarizability, Alpha (input orientation).
 (esu units = cm**3 , SI units = C**2 m**2 J**-1)
 Alpha(0;0):
               (au)            (10**-24 esu)      (10**-40 SI)
   iso        0.437928D+02      0.648943D+01      0.722046D+01
   aniso      0.213475D+02      0.316337D+01      0.351973D+01
   xx         0.441602D+02      0.654386D+01      0.728103D+01
   yx         0.324004D+01      0.480124D+00      0.534210D+00
   yy         0.547424D+02      0.811199D+01      0.902581D+01
   zx         0.225149D+01      0.333637D+00      0.371221D+00
   zy        -0.350520D+01     -0.519418D+00     -0.577930D+00
   zz         0.324759D+02      0.481242D+01      0.535454D+01

 ----------------------------------------------------------------------

 Dipole orientation:
     8          0.54826646          1.76043362          1.67013461
     8          0.61665361          1.77223787         -5.26001288
     6         -2.03808978          1.32184317          2.10209728
     6          1.25952888          1.88112883         -0.79484764
     6         -0.21358986          1.63136599         -2.81324741
     1         -2.62588692         -0.48435246          1.28523320
     1         -2.30244679          1.27695658          4.13628180
     1         -3.18847842          2.83333188          1.28532588
     1          3.27000232          2.22208360         -0.97734733
     1         -2.22114585          1.29090803         -2.71977642
     1          2.40756451          2.07594489         -5.27808646

 Electric dipole moment (dipole orientation):
 (Debye = 10**-18 statcoulomb cm , SI units = C m)
                  (au)            (Debye)         (10**-30 SI)
   Tot        0.167483D+00      0.425698D+00      0.141998D+01
   x          0.000000D+00      0.000000D+00      0.000000D+00
   y          0.000000D+00      0.000000D+00      0.000000D+00
   z          0.167483D+00      0.425698D+00      0.141998D+01

 Dipole polarizability, Alpha (dipole orientation).
 (esu units = cm**3 , SI units = C**2 m**2 J**-1)
 Alpha(0;0):
               (au)            (10**-24 esu)      (10**-40 SI)
   iso        0.437928D+02      0.648943D+01      0.722046D+01
   aniso      0.213475D+02      0.316337D+01      0.351973D+01
   xx         0.441121D+02      0.653673D+01      0.727310D+01
   yx         0.216515D+01      0.320842D+00      0.356985D+00
   yy         0.317122D+02      0.469926D+01      0.522864D+01
   zx        -0.221121D+01     -0.327667D+00     -0.364579D+00
   zy        -0.375625D+00     -0.556619D-01     -0.619322D-01
   zz         0.555542D+02      0.823228D+01      0.915965D+01

 ----------------------------------------------------------------------

 Test job not archived.
 1\1\GINC-C0211\Freq\RM062X\CC-pVTZ\C3H6O2\HARMS.N\31-Aug-2019\0\\#P Ge
 om=AllCheck Guess=TCheck SCRF=Check Test GenChk RM062X/CC-pVTZ Freq\\G
 aussian input prepared by ASE\\0,1\O,0.1970000612,-0.7271883734,1.0795
 854731\O,0.4355400365,2.8831986706,0.4808644433\C,-1.1698485443,-0.927
 3594112,0.8132177272\C,0.6415255974,0.5503742891,0.947424322\C,-0.0707
 50853,1.6162738906,0.597436361\H,-1.4115434099,-0.6478705876,-0.216648
 1499\H,-1.3677729741,-1.9847521654,0.9602288268\H,-1.7904749899,-0.338
 8809625,1.4956164352\H,1.6995444961,0.6261079077,1.1679162629\H,-1.124
 6377466,1.5869017129,0.369492395\H,1.3737865254,2.8753694866,0.6899236
 472\\Version=EM64L-G16RevA.03\State=1-A\HF=-268.3193098\RMSD=1.485e-09
 \RMSF=3.437e-07\ZeroPoint=0.0911027\Thermal=0.0968972\Dipole=-0.009258
 9,-0.1649137,0.0277155\DipoleDeriv=-0.8272178,-0.5798863,-0.0197153,-0
 .2153286,-1.275622,0.1346667,-0.0855011,0.0539791,-0.2939533,-0.337326
 1,-0.537488,0.1015431,-0.1801774,-1.2946208,0.1291651,0.0370635,0.0500
 825,-0.3587211,0.7019249,0.3572164,0.0137793,0.0410616,0.3055321,0.016
 8203,0.07083,0.0867886,0.3483991,0.2502351,0.4257353,0.0110722,0.17028
 92,0.9585241,-0.1617987,0.0571696,-0.1052592,-0.1152784,0.129466,0.507
 4843,-0.0286627,0.1021332,0.9804128,-0.1822561,0.0444865,-0.0925441,-0
 .1282688,-0.0136241,-0.0554658,0.0122851,0.0378605,0.0503538,0.07764,-
 0.0640974,-0.0005732,-0.1250661,0.0436581,-0.0317744,-0.003047,-0.0668
 02,-0.1049106,0.0191867,0.0032738,0.0269383,0.0791988,-0.0500745,-0.03
 53387,0.0301158,0.1014127,0.0063578,-0.0897602,0.0649794,-0.0624639,-0
 .0446171,-0.069958,-0.0755513,-0.0404315,-0.0705381,0.0164444,0.012880
 7,-0.0413367,0.011772,0.1630586,-0.0175441,-0.0552266,-0.0328704,-0.01
 9034,0.0621837,0.0163277,-0.0394016,0.008318,0.1657869,0.1904606,0.080
 2951,-0.0440684,0.0991229,0.2953448,0.0271279,-0.047466,0.022962,0.309
 4615\Polar=44.1601685,3.2400394,54.742446,2.2514948,-3.5052043,32.4758
 509\Quadrupole=4.1650045,-2.4404175,-1.724587,3.8022615,0.6080245,0.97
 8215\PG=C01 [X(C3H6O2)]\NImag=0\\0.45323314,0.12402284,0.45310278,0.06
 122305,-0.04069941,0.09635335,-0.00515003,-0.00723366,-0.00279095,0.62
 765862,-0.00860078,-0.02238363,0.00454626,0.08545572,0.39736790,-0.002
 54421,0.00484882,0.01192023,0.11783793,-0.04818680,0.06030655,-0.24443
 327,-0.03302910,-0.03394286,0.00168337,0.01086346,-0.00157690,0.492547
 98,0.00503756,-0.08889833,0.00558509,-0.00029155,0.00092371,-0.0002401
 0,-0.00041670,0.63555747,-0.04081174,-0.00283901,-0.07264484,0.0004360
 5,0.00222867,-0.00035481,-0.01678861,-0.01214732,0.56722332,-0.1208448
 2,-0.04438958,-0.01070929,0.01630265,-0.01812227,0.00644839,-0.0317047
 8,-0.04719904,0.00185430,0.73687800,-0.08840660,-0.30491124,0.02891386
 ,0.01893262,-0.03628420,0.01108852,-0.01837529,-0.01889692,-0.00094506
 ,-0.09159984,0.77134620,-0.00276647,0.03865490,-0.04384741,-0.00023831
 ,0.00288759,0.00136887,-0.00334694,-0.00732376,-0.00101723,0.15455713,
 -0.13903642,0.17251009,0.01816937,-0.00615252,0.00464061,-0.13076255,-
 0.05144922,-0.01241207,0.00624851,-0.00356666,0.00208842,-0.27160755,0
 .17218918,-0.08006618,0.74764343,0.01768016,-0.03169593,0.01003325,-0.
 09981976,-0.29403611,0.02506239,-0.00199616,-0.00286422,0.00002449,0.1
 8706727,-0.37778485,0.10050936,-0.09771243,0.76211855,0.00033972,0.004
 75845,0.00143553,-0.00368353,0.03576747,-0.03999863,0.00180499,-0.0003
 2296,0.00017775,-0.08275093,0.09721670,-0.08609327,0.15840858,-0.13902
 175,0.17170987,-0.02706929,0.00348532,-0.03945189,-0.00045636,-0.00069
 419,0.00025990,-0.05640040,0.00985690,-0.03650966,0.00253013,0.0070235
 8,-0.00130461,0.00171357,-0.00066194,0.00099602,0.07229739,-0.00158694
 ,0.00151217,-0.00543375,0.00004319,0.00080063,0.00028671,0.01192451,-0
 .07101838,0.06463296,-0.00056539,0.00380976,-0.00194496,0.00157555,-0.
 00124749,0.00004987,-0.01351279,0.06851972,-0.01310411,-0.00146316,-0.
 00147996,0.00018596,-0.00134506,0.00028660,-0.04202253,0.06203727,-0.2
 7938457,0.00184295,0.00169356,0.00079279,-0.00135344,0.00132164,-0.000
 94525,0.05558480,-0.06870246,0.30139555,-0.01889202,-0.04323818,0.0036
 5001,0.00034179,-0.00094726,0.00021726,-0.05193891,-0.03024299,0.00542
 322,-0.00527776,0.00162602,-0.00164035,-0.00100036,0.00114706,-0.00050
 620,0.00209066,0.00551415,0.00078315,0.06969313,-0.00521953,-0.0030451
 6,-0.00062879,-0.00039633,-0.00037607,0.00000406,-0.04416732,-0.317241
 39,0.03812897,0.00005499,0.00243072,-0.00028050,0.00050657,0.00031145,
 0.00011935,0.00014550,-0.00559328,0.00046180,0.05120128,0.33796270,-0.
 00321060,-0.00904247,0.00079297,0.00011785,-0.00011787,0.00017981,0.00
 793595,0.04121051,-0.05746401,-0.00135691,0.00006711,0.00049630,-0.000
 39063,0.00026111,0.00021797,0.00463331,0.02965108,-0.00207019,-0.00428
 695,-0.04111820,0.05378533,-0.04226884,0.01260716,0.01811158,-0.000234
 85,-0.00120492,-0.00008109,-0.11776209,0.07000368,0.08385737,0.0028726
 5,0.00747676,-0.00036940,0.00122194,-0.00023566,0.00006602,0.00560190,
 -0.00300330,-0.00256279,0.00465799,-0.00174623,-0.00361195,0.14605292,
 -0.00211752,0.00461276,0.00602931,0.00011376,0.00101227,-0.00057020,0.
 07466154,-0.13042006,-0.09090886,-0.00150742,0.00398072,0.00028683,0.0
 0192799,-0.00155557,0.00102710,-0.00496196,0.00473248,0.00637659,0.016
 04314,-0.01434327,-0.02066212,-0.08309077,0.13294915,-0.00466375,0.006
 43993,0.01061874,-0.00037814,0.00060652,-0.00014655,0.08815674,-0.0898
 0158,-0.15862278,-0.00052631,0.00031595,0.00027943,0.00162116,-0.00121
 859,-0.00014547,0.01585775,-0.01749447,-0.01871404,-0.00394078,0.00340
 217,0.00411260,-0.09576229,0.09734695,0.16321206,-0.01258014,-0.007920
 28,-0.00152343,0.00256954,-0.00008514,0.00189355,0.00358547,-0.0011657
 5,0.00039951,-0.32288484,-0.00996824,-0.06164538,-0.01439659,-0.005061
 36,-0.00392233,-0.00029707,0.00004120,-0.00012217,-0.00057846,-0.00009
 504,-0.00018819,-0.00010912,0.00016754,0.00003636,0.34472067,-0.039836
 13,-0.01002971,-0.00686888,0.00161821,0.00323341,-0.00129308,0.0006575
 3,-0.00451141,0.00145222,-0.00400039,-0.05311112,0.00216277,0.02276527
 ,0.00476313,0.00552376,-0.00013093,0.00001799,-0.00024477,-0.00149288,
 -0.00021384,-0.00022875,-0.00038747,-0.00000074,0.00009289,0.02040188,
 0.06417024,0.00423585,0.00019451,0.00166411,0.00158618,-0.00167005,-0.
 00526444,0.00007068,0.00104884,0.00255675,-0.06272231,0.00084194,-0.05
 025289,-0.00894389,-0.00063474,0.00558800,0.00050782,0.00024057,-0.000
 00555,0.00006406,0.00008061,0.00034901,-0.00046241,-0.00023151,-0.0001
 7471,0.06767878,-0.00304287,0.03781421,-0.00053323,-0.00081736,0.00086
 263,-0.01251372,-0.00632614,-0.00199511,-0.00074026,-0.00199861,0.0004
 0921,-0.01107129,-0.00183061,-0.00356769,-0.33565384,0.00141257,-0.066
 57714,-0.00000919,-0.00031235,0.00057522,0.00073712,-0.00033163,0.0003
 4169,-0.00010883,-0.00112554,-0.00029759,0.00030734,0.00139691,-0.0020
 5498,0.35784954,-0.00226907,0.00131197,-0.00141824,-0.03766593,-0.0068
 7286,-0.00679644,0.00069594,-0.00256736,0.00044416,0.02326256,0.008750
 42,0.00474979,0.00626785,-0.05315610,0.00448593,-0.00060389,-0.0015135
 0,-0.00027594,0.00016467,0.00009040,-0.00007667,-0.00051881,-0.0008534
 1,0.00041849,0.00174689,-0.00371061,0.00258171,0.01156130,0.06384902,0
 .00112461,-0.00109697,-0.00331767,0.00366031,0.00013958,0.00244412,-0.
 00007709,-0.00015218,-0.00094917,-0.00809592,-0.00080367,0.00489478,-0
 .06745325,0.00341128,-0.05152876,-0.00061310,-0.00139452,0.00019808,0.
 00025213,-0.00018651,-0.00044691,0.00083382,0.00146730,-0.00036236,-0.
 00211812,0.00250426,0.00753287,0.07214927,-0.00491656,0.03927990,0.000
 36912,0.00266537,-0.00006947,-0.49943846,-0.00888928,-0.10804765,-0.00
 108562,-0.00001683,-0.00035807,0.00480761,0.00293243,0.00038820,-0.021
 57593,-0.00181975,-0.00417520,-0.00000134,-0.00011784,0.00019298,0.000
 16682,0.00004775,0.00001643,0.00007634,-0.00011077,-0.00010316,-0.0003
 3681,-0.00099200,0.00004022,0.00173636,-0.00264151,0.00033735,0.515281
 92,0.00129601,0.00042432,-0.00005870,0.03924372,-0.04338505,0.01579613
 ,-0.00081839,-0.00006310,-0.00007120,-0.00300090,0.00067051,-0.0006655
 9,-0.04635158,-0.00485286,-0.00960391,0.00005440,-0.00002011,0.0001405
 4,0.00022499,0.00001774,0.00005627,0.00009956,-0.00011434,-0.00010826,
 0.00193829,-0.00060734,0.00059099,-0.00162854,-0.00532798,0.00102800,0
 .00894243,0.05325821,0.00017766,0.00024442,-0.00149505,-0.11673335,0.0
 0514369,-0.03074176,-0.00021342,0.00010619,0.00047959,0.00145890,0.000
 64750,0.00086853,0.00386069,0.00025158,-0.00041774,0.00003965,0.000108
 99,-0.00007346,-0.00001555,0.00001705,0.00004712,-0.00001886,-0.000161
 38,-0.00005692,-0.00048859,-0.00005754,0.00019263,0.00015450,0.0008037
 7,0.00225513,0.11177838,-0.00710427,0.02894192\\-0.00000040,-0.0000004
 0,-0.00000026,0.00000064,-0.00000021,0.00000022,0.00000028,0.00000093,
 0.00000059,-0.00000010,0.00000038,0.00000007,0.00000009,0.,-0.00000012
 ,-0.00000020,0.00000025,-0.00000051,-0.00000039,-0.00000076,0.,-0.0000
 0008,0.00000009,-0.00000009,0.00000003,-0.00000019,0.00000009,0.000000
 37,0.00000025,0.,-0.00000024,-0.00000034,0.\\\@


 EDUCATION WITHOUT COMMON SENSE IS A LOAD OF BOOKS ON THE BACK OF AN ASS.
 Job cpu time:       0 days  0 hours 51 minutes 35.0 seconds.
 Elapsed time:       0 days  0 hours 25 minutes 48.5 seconds.
 File lengths (MBytes):  RWF=   1312 Int=      0 D2E=      0 Chk=     32 Scr=     32
 Normal termination of Gaussian 16 at Sat Aug 31 13:07:49 2019.
