 Entering Gaussian System, Link 0=g16
 Input=./species/COC=CO/conformers/COC=CO_21.com
 Output=./species/COC=CO/conformers/COC=CO_21.log
 Initial command:
 /shared/centos7/gaussian/g16/l1.exe "/scratch/harms.n/gauss_scrdir/Gau-15028.inp" -scrdir="/scratch/harms.n/gauss_scrdir/"
 Entering Link 1 = /shared/centos7/gaussian/g16/l1.exe PID=     15029.
  
 Copyright (c) 1988,1990,1992,1993,1995,1998,2003,2009,2016,
            Gaussian, Inc.  All Rights Reserved.
  
 This is part of the Gaussian(R) 16 program.  It is based on
 the Gaussian(R) 09 system (copyright 2009, Gaussian, Inc.),
 the Gaussian(R) 03 system (copyright 2003, Gaussian, Inc.),
 the Gaussian(R) 98 system (copyright 1998, Gaussian, Inc.),
 the Gaussian(R) 94 system (copyright 1995, Gaussian, Inc.),
 the Gaussian 92(TM) system (copyright 1992, Gaussian, Inc.),
 the Gaussian 90(TM) system (copyright 1990, Gaussian, Inc.),
 the Gaussian 88(TM) system (copyright 1988, Gaussian, Inc.),
 the Gaussian 86(TM) system (copyright 1986, Carnegie Mellon
 University), and the Gaussian 82(TM) system (copyright 1983,
 Carnegie Mellon University). Gaussian is a federally registered
 trademark of Gaussian, Inc.
  
 This software contains proprietary and confidential information,
 including trade secrets, belonging to Gaussian, Inc.
  
 This software is provided under written license and may be
 used, copied, transmitted, or stored only in accord with that
 written license.
  
 The following legend is applicable only to US Government
 contracts under FAR:
  
                    RESTRICTED RIGHTS LEGEND
  
 Use, reproduction and disclosure by the US Government is
 subject to restrictions as set forth in subparagraphs (a)
 and (c) of the Commercial Computer Software - Restricted
 Rights clause in FAR 52.227-19.
  
 Gaussian, Inc.
 340 Quinnipiac St., Bldg. 40, Wallingford CT 06492
  
  
 ---------------------------------------------------------------
 Warning -- This program may not be used in any manner that
 competes with the business of Gaussian, Inc. or will provide
 assistance to any competitor of Gaussian, Inc.  The licensee
 of this program is prohibited from giving any competitor of
 Gaussian, Inc. access to this program.  By using this program,
 the user acknowledges that Gaussian, Inc. is engaged in the
 business of creating and licensing software in the field of
 computational chemistry and represents and warrants to the
 licensee that it is not a competitor of Gaussian, Inc. and that
 it will not use this program in any manner prohibited above.
 ---------------------------------------------------------------
  

 Cite this work as:
 Gaussian 16, Revision A.03,
 M. J. Frisch, G. W. Trucks, H. B. Schlegel, G. E. Scuseria, 
 M. A. Robb, J. R. Cheeseman, G. Scalmani, V. Barone, 
 G. A. Petersson, H. Nakatsuji, X. Li, M. Caricato, A. V. Marenich, 
 J. Bloino, B. G. Janesko, R. Gomperts, B. Mennucci, H. P. Hratchian, 
 J. V. Ortiz, A. F. Izmaylov, J. L. Sonnenberg, D. Williams-Young, 
 F. Ding, F. Lipparini, F. Egidi, J. Goings, B. Peng, A. Petrone, 
 T. Henderson, D. Ranasinghe, V. G. Zakrzewski, J. Gao, N. Rega, 
 G. Zheng, W. Liang, M. Hada, M. Ehara, K. Toyota, R. Fukuda, 
 J. Hasegawa, M. Ishida, T. Nakajima, Y. Honda, O. Kitao, H. Nakai, 
 T. Vreven, K. Throssell, J. A. Montgomery, Jr., J. E. Peralta, 
 F. Ogliaro, M. J. Bearpark, J. J. Heyd, E. N. Brothers, K. N. Kudin, 
 V. N. Staroverov, T. A. Keith, R. Kobayashi, J. Normand, 
 K. Raghavachari, A. P. Rendell, J. C. Burant, S. S. Iyengar, 
 J. Tomasi, M. Cossi, J. M. Millam, M. Klene, C. Adamo, R. Cammi, 
 J. W. Ochterski, R. L. Martin, K. Morokuma, O. Farkas, 
 J. B. Foresman, and D. J. Fox, Gaussian, Inc., Wallingford CT, 2016.
 
 ******************************************
 Gaussian 16:  EM64L-G16RevA.03 25-Dec-2016
                31-Aug-2019 
 ******************************************
 %nprocshared=20
 Will use up to   20 processors via shared memory.
 %mem=5GB
 ----------------------------------------------------------------------
 #p m062x/cc-pVTZ opt=(calcfc,maxcycles=900,Tight) freq IOP(7/33=1,2/16
 =3) scf=(maxcycle=900)
 ----------------------------------------------------------------------
 1/6=900,7=10,10=4,18=20,19=15,26=3,38=1/1,3;
 2/9=110,12=2,16=3,17=6,18=5,40=1/2;
 3/5=16,6=1,11=2,25=1,30=1,71=2,74=-55,140=1/1,2,3;
 4//1;
 5/5=2,7=900,38=5/2;
 8/6=4,10=90,11=11/1;
 11/6=1,8=1,9=11,15=111,16=1/1,2,10;
 10/6=1,13=1/2;
 6/7=2,8=2,9=2,10=2,28=1/1;
 7/10=1,18=20,25=1,33=1/1,2,3,16;
 1/6=900,7=10,10=4,18=20,19=15,26=3/3(2);
 2/9=110,16=3/2;
 99//99;
 2/9=110,16=3/2;
 3/5=16,6=1,11=2,25=1,30=1,71=1,74=-55/1,2,3;
 4/5=5,16=3,69=1/1;
 5/5=2,7=900,38=5/2;
 7/33=1/1,2,3,16;
 1/6=900,7=10,18=20,19=15,26=3/3(-5);
 2/9=110,16=3/2;
 6/7=2,8=2,9=2,10=2,19=2,28=1/1;
 99/9=1/99;
 Leave Link    1 at Sat Aug 31 11:02:09 2019, MaxMem=   671088640 cpu:               4.6 elap:               2.3
 (Enter /shared/centos7/gaussian/g16/l101.exe)
 ------------------------------
 Gaussian input prepared by ASE
 ------------------------------
 Symbolic Z-matrix:
 Charge =  0 Multiplicity = 1
 O                     0.2473   -0.791     1.01279 
 O                     2.36596  -0.09725  -0.67062 
 C                    -1.17432  -0.87068   0.88622 
 C                     0.68367   0.52052   0.87474 
 C                     1.68765   0.82969   0.08898 
 H                    -1.61698  -1.29368   1.83361 
 H                    -1.62102   0.14658   0.69564 
 H                    -1.43381  -1.52161   0.05109 
 H                     0.14432   1.25716   1.46711 
 H                     2.04796   1.8287   -0.03357 
 H                     1.92045  -0.9925   -0.48606 
 
 ITRead=  0  0  0  0  0  0  0  0  0  0  0
 MicOpt= -1 -1 -1 -1 -1 -1 -1 -1 -1 -1 -1
 NAtoms=     11 NQM=       11 NQMF=       0 NMMI=      0 NMMIF=      0
                NMic=       0 NMicF=      0.
                    Isotopes and Nuclear Properties:
 (Nuclear quadrupole moments (NQMom) in fm**2, nuclear magnetic moments (NMagM)
  in nuclear magnetons)

  Atom         1           2           3           4           5           6           7           8           9          10
 IAtWgt=          16          16          12          12          12           1           1           1           1           1
 AtmWgt=  15.9949146  15.9949146  12.0000000  12.0000000  12.0000000   1.0078250   1.0078250   1.0078250   1.0078250   1.0078250
 NucSpn=           0           0           0           0           0           1           1           1           1           1
 AtZEff=  -0.0000000  -0.0000000  -0.0000000  -0.0000000  -0.0000000  -0.0000000  -0.0000000  -0.0000000  -0.0000000  -0.0000000
 NQMom=    0.0000000   0.0000000   0.0000000   0.0000000   0.0000000   0.0000000   0.0000000   0.0000000   0.0000000   0.0000000
 NMagM=    0.0000000   0.0000000   0.0000000   0.0000000   0.0000000   2.7928460   2.7928460   2.7928460   2.7928460   2.7928460
 AtZNuc=   8.0000000   8.0000000   6.0000000   6.0000000   6.0000000   1.0000000   1.0000000   1.0000000   1.0000000   1.0000000

  Atom        11
 IAtWgt=           1
 AtmWgt=   1.0078250
 NucSpn=           1
 AtZEff=  -0.0000000
 NQMom=    0.0000000
 NMagM=    2.7928460
 AtZNuc=   1.0000000
 Leave Link  101 at Sat Aug 31 11:02:12 2019, MaxMem=   671088640 cpu:               6.3 elap:               3.2
 (Enter /shared/centos7/gaussian/g16/l103.exe)

 GradGradGradGradGradGradGradGradGradGradGradGradGradGradGradGradGradGrad
 Berny optimization.
 Initialization pass.
                           ----------------------------
                           !    Initial Parameters    !
                           ! (Angstroms and Degrees)  !
 --------------------------                            --------------------------
 ! Name  Definition              Value          Derivative Info.                !
 --------------------------------------------------------------------------------
 ! R1    R(1,3)                  1.4295         calculate D2E/DX2 analytically  !
 ! R2    R(1,4)                  1.3891         calculate D2E/DX2 analytically  !
 ! R3    R(2,5)                  1.3771         calculate D2E/DX2 analytically  !
 ! R4    R(2,11)                 1.0169         calculate D2E/DX2 analytically  !
 ! R5    R(3,6)                  1.128          calculate D2E/DX2 analytically  !
 ! R6    R(3,7)                  1.1272         calculate D2E/DX2 analytically  !
 ! R7    R(3,8)                  1.0902         calculate D2E/DX2 analytically  !
 ! R8    R(4,5)                  1.3119         calculate D2E/DX2 analytically  !
 ! R9    R(4,9)                  1.0883         calculate D2E/DX2 analytically  !
 ! R10   R(5,10)                 1.0691         calculate D2E/DX2 analytically  !
 ! A1    A(3,1,4)              110.8697         calculate D2E/DX2 analytically  !
 ! A2    A(5,2,11)             106.0629         calculate D2E/DX2 analytically  !
 ! A3    A(1,3,6)              109.6822         calculate D2E/DX2 analytically  !
 ! A4    A(1,3,7)              111.0246         calculate D2E/DX2 analytically  !
 ! A5    A(1,3,8)              109.7449         calculate D2E/DX2 analytically  !
 ! A6    A(6,3,7)              108.959          calculate D2E/DX2 analytically  !
 ! A7    A(6,3,8)              109.0308         calculate D2E/DX2 analytically  !
 ! A8    A(7,3,8)              108.36           calculate D2E/DX2 analytically  !
 ! A9    A(1,4,5)              121.4968         calculate D2E/DX2 analytically  !
 ! A10   A(1,4,9)              115.4219         calculate D2E/DX2 analytically  !
 ! A11   A(5,4,9)              123.0781         calculate D2E/DX2 analytically  !
 ! A12   A(2,5,4)              123.2804         calculate D2E/DX2 analytically  !
 ! A13   A(2,5,10)             113.5641         calculate D2E/DX2 analytically  !
 ! A14   A(4,5,10)             123.1496         calculate D2E/DX2 analytically  !
 ! D1    D(4,1,3,6)           -120.0689         calculate D2E/DX2 analytically  !
 ! D2    D(4,1,3,7)              0.4051         calculate D2E/DX2 analytically  !
 ! D3    D(4,1,3,8)            120.1733         calculate D2E/DX2 analytically  !
 ! D4    D(3,1,4,5)           -132.1915         calculate D2E/DX2 analytically  !
 ! D5    D(3,1,4,9)             48.439          calculate D2E/DX2 analytically  !
 ! D6    D(11,2,5,4)             0.5069         calculate D2E/DX2 analytically  !
 ! D7    D(11,2,5,10)         -178.6366         calculate D2E/DX2 analytically  !
 ! D8    D(1,4,5,2)              1.227          calculate D2E/DX2 analytically  !
 ! D9    D(1,4,5,10)          -179.7107         calculate D2E/DX2 analytically  !
 ! D10   D(9,4,5,2)           -179.4525         calculate D2E/DX2 analytically  !
 ! D11   D(9,4,5,10)            -0.3902         calculate D2E/DX2 analytically  !
 --------------------------------------------------------------------------------
 Trust Radius=3.00D-01 FncErr=1.00D-07 GrdErr=1.00D-06 EigMax=2.50D+02 EigMin=1.00D-04
 Number of steps in this run=    100 maximum allowed number of steps=    100.
 GradGradGradGradGradGradGradGradGradGradGradGradGradGradGradGradGradGrad

 Leave Link  103 at Sat Aug 31 11:02:13 2019, MaxMem=   671088640 cpu:               1.7 elap:               1.1
 (Enter /shared/centos7/gaussian/g16/l202.exe)
                          Input orientation:                          
 ---------------------------------------------------------------------
 Center     Atomic      Atomic             Coordinates (Angstroms)
 Number     Number       Type             X           Y           Z
 ---------------------------------------------------------------------
      1          8           0        0.247297   -0.791003    1.012793
      2          8           0        2.365957   -0.097246   -0.670623
      3          6           0       -1.174321   -0.870681    0.886219
      4          6           0        0.683668    0.520525    0.874737
      5          6           0        1.687648    0.829686    0.088979
      6          1           0       -1.616982   -1.293680    1.833612
      7          1           0       -1.621022    0.146584    0.695638
      8          1           0       -1.433813   -1.521609    0.051086
      9          1           0        0.144316    1.257156    1.467106
     10          1           0        2.047956    1.828702   -0.033572
     11          1           0        1.920450   -0.992498   -0.486059
 ---------------------------------------------------------------------
                    Distance matrix (angstroms):
                    1          2          3          4          5
     1  O    0.000000
     2  O    2.793548   0.000000
     3  C    1.429464   3.944049   0.000000
     4  C    1.389094   2.366405   2.321144   0.000000
     5  C    2.356836   1.377063   3.423114   1.311858   0.000000
     6  H    2.098086   4.854529   1.128020   3.082819   4.298024
     7  H    2.114302   4.221626   1.127250   2.341689   3.432487
     8  H    2.069975   4.121641   1.090179   3.054904   3.908138
     9  H    2.100467   3.367489   2.569810   1.088314   2.112780
    10  H    3.346656   2.053347   4.302993   2.097054   1.069052
    11  H    2.255348   1.016866   3.387564   2.381308   1.924894
                    6          7          8          9         10
     6  H    0.000000
     7  H    1.835582   0.000000
     8  H    1.806350   1.798155   0.000000
     9  H    3.121420   2.223725   3.495302   0.000000
    10  H    5.164050   4.101545   4.832646   2.490491   0.000000
    11  H    4.240873   3.903324   3.437959   3.468493   2.860099
                   11
    11  H    0.000000
 Stoichiometry    C3H6O2
 Framework group  C1[X(C3H6O2)]
 Deg. of freedom    27
 Full point group                 C1      NOp   1
 Largest Abelian subgroup         C1      NOp   1
 Largest concise Abelian subgroup C1      NOp   1
                         Standard orientation:                         
 ---------------------------------------------------------------------
 Center     Atomic      Atomic             Coordinates (Angstroms)
 Number     Number       Type             X           Y           Z
 ---------------------------------------------------------------------
      1          8           0        0.820393   -0.279802   -0.477545
      2          8           0       -1.880116   -0.700602    0.100456
      3          6           0        2.028448   -0.205289    0.282993
      4          6           0       -0.036838    0.762413   -0.148115
      5          6           0       -1.305605    0.550859    0.109661
      6          1           0        2.910047   -0.103223   -0.413279
      7          1           0        2.011259    0.677355    0.983948
      8          1           0        2.146915   -1.112419    0.875928
      9          1           0        0.415688    1.752045   -0.131466
     10          1           0       -1.989356    1.333174    0.361335
     11          1           0       -1.132798   -1.351601   -0.126988
 ---------------------------------------------------------------------
 Rotational constants (GHZ):          14.1025473           3.0287036           2.6839753
 Leave Link  202 at Sat Aug 31 11:02:15 2019, MaxMem=   671088640 cpu:               3.4 elap:               1.7
 (Enter /shared/centos7/gaussian/g16/l301.exe)
 Standard basis: CC-pVTZ (5D, 7F)
 Ernie: Thresh=  0.10000D-02 Tol=  0.10000D-05 Strict=F.
 Ernie:  15 primitive shells out of 178 were deleted.
 There are   265 symmetry adapted cartesian basis functions of A   symmetry.
 There are   234 symmetry adapted basis functions of A   symmetry.
   234 basis functions,   362 primitive gaussians,   265 cartesian basis functions
    20 alpha electrons       20 beta electrons
       nuclear repulsion energy       176.4586137864 Hartrees.
 IExCor= 4336 DFT=T Ex+Corr=M062X ExCW=0 ScaHFX=  0.540000
 ScaDFX=  1.000000  1.000000  1.000000  1.000000 ScalE2=  1.000000  1.000000
 IRadAn=      5 IRanWt=     -1 IRanGd=            0 ICorTp=0 IEmpDi=  4
 NAtoms=   11 NActive=   11 NUniq=   11 SFac= 1.00D+00 NAtFMM=   60 NAOKFM=F Big=F
 Integral buffers will be    131072 words long.
 Raffenetti 2 integral format.
 Two-electron integral symmetry is turned on.
 Leave Link  301 at Sat Aug 31 11:02:16 2019, MaxMem=   671088640 cpu:               1.5 elap:               0.8
 (Enter /shared/centos7/gaussian/g16/l302.exe)
 NPDir=0 NMtPBC=     1 NCelOv=     1 NCel=       1 NClECP=     1 NCelD=      1
         NCelK=      1 NCelE2=     1 NClLst=     1 CellRange=     0.0.
 One-electron integrals computed using PRISM.
 One-electron integral symmetry used in STVInt
 NBasis=   234 RedAO= T EigKep=  3.18D-04  NBF=   234
 NBsUse=   234 1.00D-06 EigRej= -1.00D+00 NBFU=   234
 Precomputing XC quadrature grid using
 IXCGrd= 4 IRadAn=           5 IRanWt=          -1 IRanGd=           0 AccXCQ= 0.00D+00.
 Generated NRdTot=       0 NPtTot=           0 NUsed=           0 NTot=          32
 NSgBfM=   265   265   265   265   265 MxSgAt=    11 MxSgA2=    11.
 Leave Link  302 at Sat Aug 31 11:03:10 2019, MaxMem=   671088640 cpu:             109.8 elap:              54.9
 (Enter /shared/centos7/gaussian/g16/l303.exe)
 DipDrv:  MaxL=1.
 Leave Link  303 at Sat Aug 31 11:03:16 2019, MaxMem=   671088640 cpu:              10.2 elap:               5.1
 (Enter /shared/centos7/gaussian/g16/l401.exe)
 ExpMin= 1.03D-01 ExpMax= 1.53D+04 ExpMxC= 5.22D+02 IAcc=3 IRadAn=         5 AccDes= 0.00D+00
 Harris functional with IExCor= 1009 and IRadAn=       5 diagonalized for initial guess.
 HarFok:  IExCor= 1009 AccDes= 0.00D+00 IRadAn=         5 IDoV= 1 UseB2=F ITyADJ=14
 ICtDFT=  3500011 ScaDFX=  1.000000  1.000000  1.000000  1.000000
 FoFCou: FMM=F IPFlag=           0 FMFlag=      100000 FMFlg1=           0
         NFxFlg=           0 DoJE=T BraDBF=F KetDBF=T FulRan=T
         wScrn=  0.000000 ICntrl=       500 IOpCl=  0 I1Cent=   200000004 NGrid=           0
         NMat0=    1 NMatS0=      1 NMatT0=    0 NMatD0=    1 NMtDS0=    0 NMtDT0=    0
 Petite list used in FoFCou.
 Harris En= -268.199603021575    
 JPrj=0 DoOrth=F DoCkMO=F.
 Leave Link  401 at Sat Aug 31 11:03:39 2019, MaxMem=   671088640 cpu:              47.2 elap:              23.6
 (Enter /shared/centos7/gaussian/g16/l502.exe)
 Keep R1 ints in memory in canonical form, NReq=399924305.
 FoFCou: FMM=F IPFlag=           0 FMFlag=           0 FMFlg1=           0
         NFxFlg=           0 DoJE=F BraDBF=F KetDBF=F FulRan=T
         wScrn=  0.000000 ICntrl=       600 IOpCl=  0 I1Cent=           0 NGrid=           0
         NMat0=    1 NMatS0=  27495 NMatT0=    0 NMatD0=    1 NMtDS0=    0 NMtDT0=    0
 Symmetry not used in FoFCou.
 Two-electron integral symmetry not used.
 Closed shell SCF:
 Using DIIS extrapolation, IDIIS=  1040.
 NGot=   671088640 LenX=   292939207 LenY=   292868541
 Requested convergence on RMS density matrix=1.00D-08 within 900 cycles.
 Requested convergence on MAX density matrix=1.00D-06.
 Requested convergence on             energy=1.00D-06.
 No special actions if energy rises.
 Integral accuracy reduced to 1.0D-05 until final iterations.

 Cycle   1  Pass 0  IDiag  1:
 E= -268.193686318909    
 DIIS: error= 1.66D-02 at cycle   1 NSaved=   1.
 NSaved= 1 IEnMin= 1 EnMin= -268.193686318909     IErMin= 1 ErrMin= 1.66D-02
 ErrMax= 1.66D-02  0.00D+00 EMaxC= 1.00D-01 BMatC= 1.69D-01 BMatP= 1.69D-01
 IDIUse=3 WtCom= 8.34D-01 WtEn= 1.66D-01
 Coeff-Com:  0.100D+01
 Coeff-En:   0.100D+01
 Coeff:      0.100D+01
 Gap=     0.361 Goal=   None    Shift=    0.000
 GapD=    0.361 DampG=1.000 DampE=0.500 DampFc=0.5000 IDamp=-1.
 Damping current iteration by 5.00D-01
 RMSDP=1.99D-03 MaxDP=5.85D-02              OVMax= 1.14D-01

 Cycle   2  Pass 0  IDiag  1:
 E= -268.257476761848     Delta-E=       -0.063790442939 Rises=F Damp=T
 DIIS: error= 5.41D-03 at cycle   2 NSaved=   2.
 NSaved= 2 IEnMin= 2 EnMin= -268.257476761848     IErMin= 2 ErrMin= 5.41D-03
 ErrMax= 5.41D-03  0.00D+00 EMaxC= 1.00D-01 BMatC= 1.64D-02 BMatP= 1.69D-01
 IDIUse=3 WtCom= 9.46D-01 WtEn= 5.41D-02
 Coeff-Com: -0.184D+00 0.118D+01
 Coeff-En:   0.000D+00 0.100D+01
 Coeff:     -0.174D+00 0.117D+01
 Gap=     0.350 Goal=   None    Shift=    0.000
 RMSDP=4.07D-04 MaxDP=9.89D-03 DE=-6.38D-02 OVMax= 5.35D-02

 Cycle   3  Pass 0  IDiag  1:
 E= -268.312574588771     Delta-E=       -0.055097826924 Rises=F Damp=F
 DIIS: error= 3.16D-03 at cycle   3 NSaved=   3.
 NSaved= 3 IEnMin= 3 EnMin= -268.312574588771     IErMin= 3 ErrMin= 3.16D-03
 ErrMax= 3.16D-03  0.00D+00 EMaxC= 1.00D-01 BMatC= 3.79D-03 BMatP= 1.64D-02
 IDIUse=3 WtCom= 9.68D-01 WtEn= 3.16D-02
 Coeff-Com: -0.120D+00 0.401D+00 0.719D+00
 Coeff-En:   0.000D+00 0.000D+00 0.100D+01
 Coeff:     -0.116D+00 0.388D+00 0.728D+00
 Gap=     0.345 Goal=   None    Shift=    0.000
 RMSDP=1.78D-04 MaxDP=5.92D-03 DE=-5.51D-02 OVMax= 1.64D-02

 Cycle   4  Pass 0  IDiag  1:
 E= -268.314420776332     Delta-E=       -0.001846187560 Rises=F Damp=F
 DIIS: error= 1.41D-03 at cycle   4 NSaved=   4.
 NSaved= 4 IEnMin= 4 EnMin= -268.314420776332     IErMin= 4 ErrMin= 1.41D-03
 ErrMax= 1.41D-03  0.00D+00 EMaxC= 1.00D-01 BMatC= 8.62D-04 BMatP= 3.79D-03
 IDIUse=3 WtCom= 9.86D-01 WtEn= 1.41D-02
 Coeff-Com: -0.369D-01 0.919D-01 0.367D+00 0.578D+00
 Coeff-En:   0.000D+00 0.000D+00 0.180D+00 0.820D+00
 Coeff:     -0.364D-01 0.906D-01 0.365D+00 0.581D+00
 Gap=     0.341 Goal=   None    Shift=    0.000
 RMSDP=6.89D-05 MaxDP=2.26D-03 DE=-1.85D-03 OVMax= 7.38D-03

 Cycle   5  Pass 0  IDiag  1:
 E= -268.315065999684     Delta-E=       -0.000645223352 Rises=F Damp=F
 DIIS: error= 2.40D-04 at cycle   5 NSaved=   5.
 NSaved= 5 IEnMin= 5 EnMin= -268.315065999684     IErMin= 5 ErrMin= 2.40D-04
 ErrMax= 2.40D-04  0.00D+00 EMaxC= 1.00D-01 BMatC= 1.54D-05 BMatP= 8.62D-04
 IDIUse=3 WtCom= 9.98D-01 WtEn= 2.40D-03
 Coeff-Com: -0.613D-02 0.117D-01 0.867D-01 0.200D+00 0.708D+00
 Coeff-En:   0.000D+00 0.000D+00 0.000D+00 0.000D+00 0.100D+01
 Coeff:     -0.612D-02 0.117D-01 0.865D-01 0.200D+00 0.708D+00
 Gap=     0.341 Goal=   None    Shift=    0.000
 RMSDP=1.31D-05 MaxDP=4.29D-04 DE=-6.45D-04 OVMax= 1.58D-03

 Cycle   6  Pass 0  IDiag  1:
 E= -268.315078178607     Delta-E=       -0.000012178923 Rises=F Damp=F
 DIIS: error= 7.15D-05 at cycle   6 NSaved=   6.
 NSaved= 6 IEnMin= 6 EnMin= -268.315078178607     IErMin= 6 ErrMin= 7.15D-05
 ErrMax= 7.15D-05  0.00D+00 EMaxC= 1.00D-01 BMatC= 1.51D-06 BMatP= 1.54D-05
 IDIUse=1 WtCom= 1.00D+00 WtEn= 0.00D+00
 Coeff-Com: -0.121D-02 0.143D-02 0.241D-01 0.709D-01 0.317D+00 0.587D+00
 Coeff:     -0.121D-02 0.143D-02 0.241D-01 0.709D-01 0.317D+00 0.587D+00
 Gap=     0.341 Goal=   None    Shift=    0.000
 RMSDP=3.89D-06 MaxDP=1.44D-04 DE=-1.22D-05 OVMax= 5.57D-04

 Initial convergence to 1.0D-05 achieved.  Increase integral accuracy.
 Cycle   7  Pass 1  IDiag  1:
 E= -268.315114186868     Delta-E=       -0.000036008260 Rises=F Damp=F
 DIIS: error= 2.80D-05 at cycle   1 NSaved=   1.
 NSaved= 1 IEnMin= 1 EnMin= -268.315114186868     IErMin= 1 ErrMin= 2.80D-05
 ErrMax= 2.80D-05  0.00D+00 EMaxC= 1.00D-01 BMatC= 3.69D-07 BMatP= 3.69D-07
 IDIUse=1 WtCom= 1.00D+00 WtEn= 0.00D+00
 Coeff-Com:  0.100D+01
 Coeff:      0.100D+01
 Gap=     0.341 Goal=   None    Shift=    0.000
 RMSDP=3.89D-06 MaxDP=1.44D-04 DE=-3.60D-05 OVMax= 3.62D-04

 Cycle   8  Pass 1  IDiag  1:
 E= -268.315114260844     Delta-E=       -0.000000073977 Rises=F Damp=F
 DIIS: error= 3.62D-05 at cycle   2 NSaved=   2.
 NSaved= 2 IEnMin= 2 EnMin= -268.315114260844     IErMin= 1 ErrMin= 2.80D-05
 ErrMax= 3.62D-05  0.00D+00 EMaxC= 1.00D-01 BMatC= 2.78D-07 BMatP= 3.69D-07
 IDIUse=1 WtCom= 1.00D+00 WtEn= 0.00D+00
 Coeff-Com:  0.455D+00 0.545D+00
 Coeff:      0.455D+00 0.545D+00
 Gap=     0.341 Goal=   None    Shift=    0.000
 RMSDP=1.74D-06 MaxDP=6.04D-05 DE=-7.40D-08 OVMax= 2.52D-04

 Cycle   9  Pass 1  IDiag  1:
 E= -268.315114463981     Delta-E=       -0.000000203136 Rises=F Damp=F
 DIIS: error= 1.13D-05 at cycle   3 NSaved=   3.
 NSaved= 3 IEnMin= 3 EnMin= -268.315114463981     IErMin= 3 ErrMin= 1.13D-05
 ErrMax= 1.13D-05  0.00D+00 EMaxC= 1.00D-01 BMatC= 2.91D-08 BMatP= 2.78D-07
 IDIUse=1 WtCom= 1.00D+00 WtEn= 0.00D+00
 Coeff-Com: -0.325D-01 0.230D+00 0.802D+00
 Coeff:     -0.325D-01 0.230D+00 0.802D+00
 Gap=     0.341 Goal=   None    Shift=    0.000
 RMSDP=5.47D-07 MaxDP=1.37D-05 DE=-2.03D-07 OVMax= 6.46D-05

 Cycle  10  Pass 1  IDiag  1:
 E= -268.315114488561     Delta-E=       -0.000000024580 Rises=F Damp=F
 DIIS: error= 1.46D-06 at cycle   4 NSaved=   4.
 NSaved= 4 IEnMin= 4 EnMin= -268.315114488561     IErMin= 4 ErrMin= 1.46D-06
 ErrMax= 1.46D-06  0.00D+00 EMaxC= 1.00D-01 BMatC= 5.85D-10 BMatP= 2.91D-08
 IDIUse=1 WtCom= 1.00D+00 WtEn= 0.00D+00
 Coeff-Com: -0.183D-01 0.662D-01 0.271D+00 0.681D+00
 Coeff:     -0.183D-01 0.662D-01 0.271D+00 0.681D+00
 Gap=     0.341 Goal=   None    Shift=    0.000
 RMSDP=8.35D-08 MaxDP=2.28D-06 DE=-2.46D-08 OVMax= 9.13D-06

 Cycle  11  Pass 1  IDiag  1:
 E= -268.315114489052     Delta-E=       -0.000000000491 Rises=F Damp=F
 DIIS: error= 4.73D-07 at cycle   5 NSaved=   5.
 NSaved= 5 IEnMin= 5 EnMin= -268.315114489052     IErMin= 5 ErrMin= 4.73D-07
 ErrMax= 4.73D-07  0.00D+00 EMaxC= 1.00D-01 BMatC= 1.14D-10 BMatP= 5.85D-10
 IDIUse=1 WtCom= 1.00D+00 WtEn= 0.00D+00
 Coeff-Com: -0.178D-02-0.162D-01-0.348D-01 0.265D+00 0.788D+00
 Coeff:     -0.178D-02-0.162D-01-0.348D-01 0.265D+00 0.788D+00
 Gap=     0.341 Goal=   None    Shift=    0.000
 RMSDP=4.86D-08 MaxDP=1.13D-06 DE=-4.91D-10 OVMax= 4.36D-06

 Cycle  12  Pass 1  IDiag  1:
 E= -268.315114489172     Delta-E=       -0.000000000120 Rises=F Damp=F
 DIIS: error= 1.65D-07 at cycle   6 NSaved=   6.
 NSaved= 6 IEnMin= 6 EnMin= -268.315114489172     IErMin= 6 ErrMin= 1.65D-07
 ErrMax= 1.65D-07  0.00D+00 EMaxC= 1.00D-01 BMatC= 9.03D-12 BMatP= 1.14D-10
 IDIUse=1 WtCom= 1.00D+00 WtEn= 0.00D+00
 Coeff-Com:  0.154D-02-0.130D-01-0.429D-01 0.126D-01 0.273D+00 0.769D+00
 Coeff:      0.154D-02-0.130D-01-0.429D-01 0.126D-01 0.273D+00 0.769D+00
 Gap=     0.341 Goal=   None    Shift=    0.000
 RMSDP=1.67D-08 MaxDP=3.26D-07 DE=-1.20D-10 OVMax= 1.84D-06

 Cycle  13  Pass 1  IDiag  1:
 E= -268.315114489181     Delta-E=       -0.000000000009 Rises=F Damp=F
 DIIS: error= 3.96D-08 at cycle   7 NSaved=   7.
 NSaved= 7 IEnMin= 7 EnMin= -268.315114489181     IErMin= 7 ErrMin= 3.96D-08
 ErrMax= 3.96D-08  0.00D+00 EMaxC= 1.00D-01 BMatC= 8.88D-13 BMatP= 9.03D-12
 IDIUse=1 WtCom= 1.00D+00 WtEn= 0.00D+00
 Coeff-Com:  0.723D-03-0.380D-02-0.141D-01-0.150D-01 0.479D-01 0.282D+00
 Coeff-Com:  0.702D+00
 Coeff:      0.723D-03-0.380D-02-0.141D-01-0.150D-01 0.479D-01 0.282D+00
 Coeff:      0.702D+00
 Gap=     0.341 Goal=   None    Shift=    0.000
 RMSDP=4.63D-09 MaxDP=1.03D-07 DE=-8.98D-12 OVMax= 4.86D-07

 SCF Done:  E(RM062X) =  -268.315114489     A.U. after   13 cycles
            NFock= 13  Conv=0.46D-08     -V/T= 2.0061
 KE= 2.666833806796D+02 PE=-9.812265614079D+02 EE= 2.697694524526D+02
 Leave Link  502 at Sat Aug 31 11:08:01 2019, MaxMem=   671088640 cpu:             516.8 elap:             261.9
 (Enter /shared/centos7/gaussian/g16/l801.exe)
 DoSCS=F DFT=T ScalE2(SS,OS)=  1.000000  1.000000
 Range of M.O.s used for correlation:     1   234
 NBasis=   234 NAE=    20 NBE=    20 NFC=     0 NFV=     0
 NROrb=    234 NOA=    20 NOB=    20 NVA=   214 NVB=   214

 **** Warning!!: The largest alpha MO coefficient is  0.11913106D+02

 Leave Link  801 at Sat Aug 31 11:08:02 2019, MaxMem=   671088640 cpu:               1.4 elap:               0.7
 (Enter /shared/centos7/gaussian/g16/l1101.exe)
 Using compressed storage, NAtomX=    11.
 Will process     12 centers per pass.
 Leave Link 1101 at Sat Aug 31 11:08:23 2019, MaxMem=   671088640 cpu:              41.1 elap:              20.6
 (Enter /shared/centos7/gaussian/g16/l1102.exe)
 Symmetrizing basis deriv contribution to polar:
 IMax=3 JMax=2 DiffMx= 0.00D+00
 Leave Link 1102 at Sat Aug 31 11:08:25 2019, MaxMem=   671088640 cpu:               5.5 elap:               2.8
 (Enter /shared/centos7/gaussian/g16/l1110.exe)
 Forming Gx(P) for the SCF density, NAtomX=    11.
 Integral derivatives from FoFJK, PRISM(SPDF).
 Do as many integral derivatives as possible in FoFJK.
 G2DrvN: MDV=     671087712.
 G2DrvN: will do    12 centers at a time, making    1 passes.
 Calling FoFCou, ICntrl=  3107 FMM=F I1Cent=   0 AccDes= 0.00D+00.
 FoFJK:  IHMeth= 1 ICntrl=    3107 DoSepK=F KAlg= 0 I1Cent=           0 FoldK=F
 IRaf=         0 NMat=       1 IRICut=       1 DoRegI=T DoRafI=F ISym2E= 0 IDoP0=0 IntGTp=1.
 FoFCou: FMM=F IPFlag=           0 FMFlag=      100000 FMFlg1=           0
         NFxFlg=           0 DoJE=F BraDBF=F KetDBF=F FulRan=T
         wScrn=  0.000000 ICntrl=      3107 IOpCl=  0 I1Cent=           0 NGrid=           0
         NMat0=    1 NMatS0=      1 NMatT0=    0 NMatD0=    1 NMtDS0=    0 NMtDT0=    0
 Symmetry not used in FoFCou.
 End of G2Drv F.D. properties file   721 does not exist.
 End of G2Drv F.D. properties file   722 does not exist.
 End of G2Drv F.D. properties file   788 does not exist.
 Leave Link 1110 at Sat Aug 31 11:13:37 2019, MaxMem=   671088640 cpu:             623.3 elap:             311.7
 (Enter /shared/centos7/gaussian/g16/l1002.exe)
 Minotr:  Closed shell wavefunction.
          IDoAtm=11111111111
          Direct CPHF calculation.
          Differentiating once with respect to nuclear coordinates.
          Requested convergence is 1.0D-08 RMS, and 1.0D-07 maximum.
          Secondary convergence is 1.0D-12 RMS, and 1.0D-12 maximum.
          NewPWx=T KeepS1=F KeepF1=F KeepIn=T MapXYZ=F SortEE=F KeepMc=T.
         3265 words used for storage of precomputed grid.
 Keep R1 ints in memory in canonical form, NReq=399865264.
 FoFCou: FMM=F IPFlag=           0 FMFlag=           0 FMFlg1=           0
         NFxFlg=           0 DoJE=F BraDBF=F KetDBF=F FulRan=T
         wScrn=  0.000000 ICntrl=       600 IOpCl=  0 I1Cent=           0 NGrid=           0
         NMat0=    1 NMatS0=  27495 NMatT0=    0 NMatD0=    1 NMtDS0=    0 NMtDT0=    0
 Symmetry not used in FoFCou.
 Two-electron integral symmetry not used.
          MDV=     671088640 using IRadAn=       1.
          Solving linear equations simultaneously, MaxMat=       0.
          There are    36 degrees of freedom in the 1st order CPHF.  IDoFFX=6 NUNeed=     0.
     30 vectors produced by pass  0 Test12= 1.19D-14 2.78D-09 XBig12= 6.41D-02 6.30D-02.
 AX will form    30 AO Fock derivatives at one time.
     30 vectors produced by pass  1 Test12= 1.19D-14 2.78D-09 XBig12= 1.30D-02 2.58D-02.
     30 vectors produced by pass  2 Test12= 1.19D-14 2.78D-09 XBig12= 5.12D-04 5.21D-03.
     30 vectors produced by pass  3 Test12= 1.19D-14 2.78D-09 XBig12= 6.47D-06 3.06D-04.
     30 vectors produced by pass  4 Test12= 1.19D-14 2.78D-09 XBig12= 5.13D-08 3.27D-05.
     30 vectors produced by pass  5 Test12= 1.19D-14 2.78D-09 XBig12= 2.10D-10 2.36D-06.
     19 vectors produced by pass  6 Test12= 1.19D-14 2.78D-09 XBig12= 8.58D-13 1.44D-07.
      3 vectors produced by pass  7 Test12= 1.19D-14 2.78D-09 XBig12= 3.27D-15 6.16D-09.
 InvSVY:  IOpt=1 It=  1 EMax= 1.33D-15
 Solved reduced A of dimension   202 with    30 vectors.
 End of Minotr F.D. properties file   721 does not exist.
 End of Minotr F.D. properties file   722 does not exist.
 End of Minotr F.D. properties file   788 does not exist.
 Leave Link 1002 at Sat Aug 31 11:21:07 2019, MaxMem=   671088640 cpu:             899.9 elap:             450.1
 (Enter /shared/centos7/gaussian/g16/l601.exe)
 Copying SCF densities to generalized density rwf, IOpCl= 0 IROHF=0.

 **********************************************************************

            Population analysis using the SCF density.

 **********************************************************************

 Orbital symmetries:
       Occupied  (A) (A) (A) (A) (A) (A) (A) (A) (A) (A) (A) (A)
                 (A) (A) (A) (A) (A) (A) (A) (A)
       Virtual   (A) (A) (A) (A) (A) (A) (A) (A) (A) (A) (A) (A)
                 (A) (A) (A) (A) (A) (A) (A) (A) (A) (A) (A) (A)
                 (A) (A) (A) (A) (A) (A) (A) (A) (A) (A) (A) (A)
                 (A) (A) (A) (A) (A) (A) (A) (A) (A) (A) (A) (A)
                 (A) (A) (A) (A) (A) (A) (A) (A) (A) (A) (A) (A)
                 (A) (A) (A) (A) (A) (A) (A) (A) (A) (A) (A) (A)
                 (A) (A) (A) (A) (A) (A) (A) (A) (A) (A) (A) (A)
                 (A) (A) (A) (A) (A) (A) (A) (A) (A) (A) (A) (A)
                 (A) (A) (A) (A) (A) (A) (A) (A) (A) (A) (A) (A)
                 (A) (A) (A) (A) (A) (A) (A) (A) (A) (A) (A) (A)
                 (A) (A) (A) (A) (A) (A) (A) (A) (A) (A) (A) (A)
                 (A) (A) (A) (A) (A) (A) (A) (A) (A) (A) (A) (A)
                 (A) (A) (A) (A) (A) (A) (A) (A) (A) (A) (A) (A)
                 (A) (A) (A) (A) (A) (A) (A) (A) (A) (A) (A) (A)
                 (A) (A) (A) (A) (A) (A) (A) (A) (A) (A) (A) (A)
                 (A) (A) (A) (A) (A) (A) (A) (A) (A) (A) (A) (A)
                 (A) (A) (A) (A) (A) (A) (A) (A) (A) (A) (A) (A)
                 (A) (A) (A) (A) (A) (A) (A) (A) (A) (A)
 The electronic state is 1-A.
 Alpha  occ. eigenvalues --  -19.65249 -19.64415 -10.59854 -10.58527 -10.57773
 Alpha  occ. eigenvalues --   -1.18484  -1.15262  -0.85764  -0.77833  -0.67693
 Alpha  occ. eigenvalues --   -0.60931  -0.58260  -0.53902  -0.51184  -0.49314
 Alpha  occ. eigenvalues --   -0.46229  -0.44218  -0.42108  -0.37883  -0.27734
 Alpha virt. eigenvalues --    0.06373   0.07802   0.08830   0.10208   0.13026
 Alpha virt. eigenvalues --    0.13652   0.14801   0.16104   0.20656   0.26066
 Alpha virt. eigenvalues --    0.28911   0.30468   0.33636   0.34236   0.36922
 Alpha virt. eigenvalues --    0.38746   0.41456   0.42314   0.44984   0.45162
 Alpha virt. eigenvalues --    0.46476   0.47796   0.48960   0.49774   0.52754
 Alpha virt. eigenvalues --    0.55124   0.56190   0.57054   0.57630   0.61143
 Alpha virt. eigenvalues --    0.65152   0.68309   0.70749   0.71437   0.74678
 Alpha virt. eigenvalues --    0.76023   0.79686   0.84266   0.86066   0.86628
 Alpha virt. eigenvalues --    0.89854   0.91656   0.97184   0.99482   1.01156
 Alpha virt. eigenvalues --    1.04589   1.05077   1.07714   1.09052   1.10965
 Alpha virt. eigenvalues --    1.12812   1.16167   1.19694   1.23057   1.24492
 Alpha virt. eigenvalues --    1.27048   1.27928   1.30545   1.33603   1.34733
 Alpha virt. eigenvalues --    1.35923   1.36301   1.38071   1.43383   1.49736
 Alpha virt. eigenvalues --    1.51838   1.53547   1.55652   1.59076   1.83218
 Alpha virt. eigenvalues --    1.85716   1.92039   1.98357   1.99250   2.03813
 Alpha virt. eigenvalues --    2.06568   2.09648   2.10563   2.13186   2.17291
 Alpha virt. eigenvalues --    2.21018   2.23510   2.27603   2.31064   2.33664
 Alpha virt. eigenvalues --    2.36498   2.40726   2.48455   2.53644   2.56842
 Alpha virt. eigenvalues --    2.63714   2.65290   2.71846   2.75666   2.77050
 Alpha virt. eigenvalues --    2.79026   2.80486   2.82126   2.83758   2.87777
 Alpha virt. eigenvalues --    2.90155   2.90924   2.94541   2.95432   2.98569
 Alpha virt. eigenvalues --    3.01007   3.02465   3.04429   3.04563   3.07193
 Alpha virt. eigenvalues --    3.08991   3.13499   3.14303   3.17692   3.20822
 Alpha virt. eigenvalues --    3.23913   3.26689   3.27569   3.28958   3.30861
 Alpha virt. eigenvalues --    3.32067   3.32708   3.34340   3.37772   3.40945
 Alpha virt. eigenvalues --    3.41926   3.47663   3.49454   3.51669   3.56167
 Alpha virt. eigenvalues --    3.56531   3.63119   3.65741   3.66975   3.68286
 Alpha virt. eigenvalues --    3.71163   3.72953   3.75430   3.77802   3.79491
 Alpha virt. eigenvalues --    3.80177   3.85476   3.87936   3.90868   3.92361
 Alpha virt. eigenvalues --    3.93150   3.97349   4.01154   4.06545   4.06884
 Alpha virt. eigenvalues --    4.10285   4.12281   4.13163   4.19035   4.22026
 Alpha virt. eigenvalues --    4.26865   4.31554   4.36345   4.41666   4.49588
 Alpha virt. eigenvalues --    4.52104   4.56018   4.60611   4.64629   4.69637
 Alpha virt. eigenvalues --    4.71724   4.73153   4.81683   4.84522   4.88233
 Alpha virt. eigenvalues --    4.92250   4.95928   4.97584   5.00655   5.01916
 Alpha virt. eigenvalues --    5.04772   5.09419   5.11866   5.16940   5.29189
 Alpha virt. eigenvalues --    5.36612   5.41221   5.49609   5.55279   5.56229
 Alpha virt. eigenvalues --    5.70165   5.70829   5.72310   5.81654   5.86053
 Alpha virt. eigenvalues --    5.98010   6.07231   6.14965   6.27346   6.32464
 Alpha virt. eigenvalues --    6.35018   6.48322   6.59192   6.68545   6.69159
 Alpha virt. eigenvalues --    6.75770   6.78648   6.79644   6.96801   7.04965
 Alpha virt. eigenvalues --    7.13229   7.20919   7.23662   7.33370   9.92821
 Alpha virt. eigenvalues --   10.81279  11.76870  12.80070  14.07715
          Condensed to atoms (all electrons):
               1          2          3          4          5          6
     1  O    7.915597  -0.005037   0.295938   0.317150  -0.078362  -0.036709
     2  O   -0.005037   7.795314   0.000860  -0.083807   0.364087  -0.000001
     3  C    0.295938   0.000860   4.739238  -0.099455  -0.002541   0.405898
     4  C    0.317150  -0.083807  -0.099455   5.018273   0.578435  -0.002201
     5  C   -0.078362   0.364087  -0.002541   0.578435   4.835204  -0.001479
     6  H   -0.036709  -0.000001   0.405898  -0.002201  -0.001479   0.619059
     7  H   -0.044531  -0.000094   0.384099   0.001057  -0.001331  -0.043891
     8  H   -0.040302  -0.000045   0.386788   0.008373   0.004177  -0.045883
     9  H   -0.051729   0.005261  -0.003672   0.396334  -0.070448   0.003135
    10  H    0.003456  -0.034140  -0.000281  -0.066929   0.419917   0.000038
    11  H    0.023288   0.328288  -0.001131  -0.016678  -0.050632   0.000263
               7          8          9         10         11
     1  O   -0.044531  -0.040302  -0.051729   0.003456   0.023288
     2  O   -0.000094  -0.000045   0.005261  -0.034140   0.328288
     3  C    0.384099   0.386788  -0.003672  -0.000281  -0.001131
     4  C    0.001057   0.008373   0.396334  -0.066929  -0.016678
     5  C   -0.001331   0.004177  -0.070448   0.419917  -0.050632
     6  H   -0.043891  -0.045883   0.003135   0.000038   0.000263
     7  H    0.659864  -0.035565   0.005357  -0.000459   0.000368
     8  H   -0.035565   0.619238  -0.001946   0.000026  -0.001092
     9  H    0.005357  -0.001946   0.614410  -0.004534   0.001825
    10  H   -0.000459   0.000026  -0.004534   0.521666   0.006254
    11  H    0.000368  -0.001092   0.001825   0.006254   0.430597
 Mulliken charges:
               1
     1  O   -0.298759
     2  O   -0.370688
     3  C   -0.105742
     4  C   -0.050554
     5  C    0.002972
     6  H    0.101772
     7  H    0.075126
     8  H    0.106231
     9  H    0.106007
    10  H    0.154985
    11  H    0.278649
 Sum of Mulliken charges =  -0.00000
 Mulliken charges with hydrogens summed into heavy atoms:
               1
     1  O   -0.298759
     2  O   -0.092039
     3  C    0.177387
     4  C    0.055453
     5  C    0.157957
 APT charges:
               1
     1  O   -0.217486
     2  O   -0.301957
     3  C   -0.936913
     4  C   -0.385096
     5  C   -0.372651
     6  H    0.461966
     7  H    0.250642
     8  H    0.349350
     9  H    0.334560
    10  H    0.495154
    11  H    0.322432
 Sum of APT charges =  -0.00000
 APT charges with hydrogens summed into heavy atoms:
               1
     1  O   -0.217486
     2  O    0.020476
     3  C    0.125044
     4  C   -0.050536
     5  C    0.122503
 Electronic spatial extent (au):  <R**2>=            475.1021
 Charge=             -0.0000 electrons
 Dipole moment (field-independent basis, Debye):
    X=              2.0267    Y=              0.6906    Z=              0.8119  Tot=              2.2899
 Quadrupole moment (field-independent basis, Debye-Ang):
   XX=            -30.4470   YY=            -27.1736   ZZ=            -32.5104
   XY=             -1.7905   XZ=              1.0843   YZ=              0.3615
 Traceless Quadrupole moment (field-independent basis, Debye-Ang):
   XX=             -0.4034   YY=              2.8701   ZZ=             -2.4667
   XY=             -1.7905   XZ=              1.0843   YZ=              0.3615
 Octapole moment (field-independent basis, Debye-Ang**2):
  XXX=             12.7986  YYY=             -6.2535  ZZZ=             -0.8048  XYY=             -2.6821
  XXY=              4.9124  XXZ=              0.7881  XZZ=              0.1649  YZZ=             -2.3772
  YYZ=              0.2400  XYZ=             -2.4134
 Hexadecapole moment (field-independent basis, Debye-Ang**3):
 XXXX=           -445.2344 YYYY=            -98.5974 ZZZZ=            -53.5123 XXXY=            -16.3241
 XXXZ=             -4.9279 YYYX=              6.1308 YYYZ=              1.6361 ZZZX=             -1.2829
 ZZZY=              0.6583 XXYY=            -89.1768 XXZZ=            -82.8546 YYZZ=            -28.1375
 XXYZ=              2.6198 YYXZ=              0.3157 ZZXY=              1.5368
 N-N= 1.764586137864D+02 E-N=-9.812265507399D+02  KE= 2.666833806796D+02
  Exact polarizability:   0.000   0.000   0.000   0.000   0.000   0.000
 Approx polarizability:  65.092   1.719  50.167  -3.502   0.953  40.169
 No NMR shielding tensors so no spin-rotation constants.
 Leave Link  601 at Sat Aug 31 11:21:32 2019, MaxMem=   671088640 cpu:              49.6 elap:              24.8
 (Enter /shared/centos7/gaussian/g16/l701.exe)
 SCFChk:  SCF convergence  4.63D-09 required  1.00D-08
 ... and contract with generalized density number  0.
 Compute integral second derivatives.
 Entering OneElI...
 Calculate overlap and kinetic energy integrals
    NBasis = 265  MinDer = 2  MaxDer = 2
 Requested accuracy = 0.1000D-12
 PrmmSu-InSpLW:  IPartL=    0 NPrtUS=   20 NPrtUL=    1 DoSpLW=F IThBeg=    0 IThEnd=   19 NThAct=   20.
 PrsmSu:  NPrtUS=  20 ThrOK=T IAlg=1 NPAlg=1 LenDen=           0 ISkipM=0 DoSpLW=F IThBeg=    0 IThEnd=   19.
 Prism:   IPart=     0 DynPar=F LinDyn=F Incr=           1.
 PRISM was handed    33439101 working-precision words and  3737 shell-pairs
 PRISM was handed    33439101 working-precision words and  3737 shell-pairs
 PRISM was handed    33439101 working-precision words and  3737 shell-pairs
 PRISM was handed    33439101 working-precision words and  3737 shell-pairs
 PRISM was handed    33439101 working-precision words and  3737 shell-pairs
 PRISM was handed    33439101 working-precision words and  3737 shell-pairs
 PRISM was handed    33439101 working-precision words and  3737 shell-pairs
 PRISM was handed    33439101 working-precision words and  3737 shell-pairs
 PRISM was handed    33439101 working-precision words and  3737 shell-pairs
 PRISM was handed    33439101 working-precision words and  3737 shell-pairs
 PRISM was handed    33439101 working-precision words and  3737 shell-pairs
 PRISM was handed    33439101 working-precision words and  3737 shell-pairs
 PRISM was handed    33439101 working-precision words and  3737 shell-pairs
 PRISM was handed    33439101 working-precision words and  3737 shell-pairs
 PRISM was handed    33439101 working-precision words and  3737 shell-pairs
 PRISM was handed    33439101 working-precision words and  3737 shell-pairs
 PRISM was handed    33439101 working-precision words and  3737 shell-pairs
 IPart= 15 NShTot=         171 NBatch=          26 AvBLen=         6.6
 IPart=  7 NShTot=         188 NBatch=          36 AvBLen=         5.2
 IPart=  9 NShTot=         180 NBatch=          28 AvBLen=         6.4
 IPart=  0 NShTot=         228 NBatch=          68 AvBLen=         3.4
 PRISM was handed    33439101 working-precision words and  3737 shell-pairs
 IPart= 10 NShTot=         178 NBatch=          28 AvBLen=         6.4
 PRISM was handed    33439101 working-precision words and  3737 shell-pairs
 IPart= 19 NShTot=         164 NBatch=          25 AvBLen=         6.6
 IPart=  8 NShTot=         181 NBatch=          29 AvBLen=         6.2
 PRISM was handed    33439101 working-precision words and  3737 shell-pairs
 IPart=  1 NShTot=         224 NBatch=          64 AvBLen=         3.5
 IPart= 11 NShTot=         174 NBatch=          27 AvBLen=         6.4
 IPart= 16 NShTot=         169 NBatch=          26 AvBLen=         6.5
 IPart= 12 NShTot=         174 NBatch=          27 AvBLen=         6.4
 IPart= 18 NShTot=         165 NBatch=          26 AvBLen=         6.3
 IPart=  3 NShTot=         211 NBatch=          52 AvBLen=         4.1
 IPart=  6 NShTot=         195 NBatch=          39 AvBLen=         5.0
 IPart=  4 NShTot=         207 NBatch=          48 AvBLen=         4.3
 IPart= 13 NShTot=         174 NBatch=          27 AvBLen=         6.4
 IPart=  2 NShTot=         214 NBatch=          55 AvBLen=         3.9
 IPart=  5 NShTot=         199 NBatch=          43 AvBLen=         4.6
 IPart= 14 NShTot=         172 NBatch=          27 AvBLen=         6.4
 IPart= 17 NShTot=         169 NBatch=          26 AvBLen=         6.5
 PrSmSu:  NxtVal=             21.
 Entering OneElI...
 Calculate potential energy integrals
    NBasis = 265  MinDer = 2  MaxDer = 2
 Requested accuracy = 0.1000D-12
 PrmmSu-InSpLW:  IPartL=    0 NPrtUS=   20 NPrtUL=    1 DoSpLW=F IThBeg=    0 IThEnd=   19 NThAct=   20.
 PrsmSu:  NPrtUS=  20 ThrOK=T IAlg=1 NPAlg=1 LenDen=           0 ISkipM=0 DoSpLW=F IThBeg=    0 IThEnd=   19.
 Prism:   IPart=     0 DynPar=F LinDyn=F Incr=          19.
 PRISM was handed    33456503 working-precision words and  3531 shell-pairs
 PRISM was handed    33456503 working-precision words and  3531 shell-pairs
 PRISM was handed    33456503 working-precision words and  3531 shell-pairs
 PRISM was handed    33456503 working-precision words and  3531 shell-pairs
 PRISM was handed    33456503 working-precision words and  3531 shell-pairs
 PRISM was handed    33456503 working-precision words and  3531 shell-pairs
 PRISM was handed    33456503 working-precision words and  3531 shell-pairs
 PRISM was handed    33456503 working-precision words and  3531 shell-pairs
 PRISM was handed    33456503 working-precision words and  3531 shell-pairs
 PRISM was handed    33456503 working-precision words and  3531 shell-pairs
 PRISM was handed    33456503 working-precision words and  3531 shell-pairs
 PRISM was handed    33456503 working-precision words and  3531 shell-pairs
 PRISM was handed    33456503 working-precision words and  3531 shell-pairs
 PRISM was handed    33456503 working-precision words and  3531 shell-pairs
 PRISM was handed    33456503 working-precision words and  3531 shell-pairs
 PRISM was handed    33456503 working-precision words and  3531 shell-pairs
 PRISM was handed    33456503 working-precision words and  3531 shell-pairs
 PRISM was handed    33456503 working-precision words and  3531 shell-pairs
 PRISM was handed    33456503 working-precision words and  3531 shell-pairs
 PRISM was handed    33456503 working-precision words and  3531 shell-pairs
 IPart=  1 NShTot=        2299 NBatch=         209 AvBLen=        11.0
 IPart=  8 NShTot=        1914 NBatch=         174 AvBLen=        11.0
 IPart= 10 NShTot=        1859 NBatch=         169 AvBLen=        11.0
 IPart=  4 NShTot=        2079 NBatch=         189 AvBLen=        11.0
 IPart= 19 NShTot=        1749 NBatch=         159 AvBLen=        11.0
 IPart= 15 NShTot=        1804 NBatch=         164 AvBLen=        11.0
 IPart= 11 NShTot=        1848 NBatch=         168 AvBLen=        11.0
 IPart=  9 NShTot=        1892 NBatch=         172 AvBLen=        11.0
 IPart= 16 NShTot=        1782 NBatch=         162 AvBLen=        11.0
 IPart= 17 NShTot=        1760 NBatch=         160 AvBLen=        11.0
 IPart=  3 NShTot=        2112 NBatch=         192 AvBLen=        11.0
 IPart=  5 NShTot=        1947 NBatch=         177 AvBLen=        11.0
 IPart= 18 NShTot=        1760 NBatch=         160 AvBLen=        11.0
 IPart=  0 NShTot=        2409 NBatch=         219 AvBLen=        11.0
 IPart= 12 NShTot=        1848 NBatch=         168 AvBLen=        11.0
 IPart=  6 NShTot=        1947 NBatch=         177 AvBLen=        11.0
 IPart= 13 NShTot=        1837 NBatch=         167 AvBLen=        11.0
 IPart=  7 NShTot=        1936 NBatch=         176 AvBLen=        11.0
 IPart= 14 NShTot=        1837 NBatch=         167 AvBLen=        11.0
 IPart=  2 NShTot=        2222 NBatch=         202 AvBLen=        11.0
 PrSmSu:  NxtVal=            381.
 Polarizability after L701:
                1             2             3 
      1  0.000000D+00
      2  0.000000D+00  0.000000D+00
      3  0.000000D+00  0.000000D+00  0.000000D+00
 Dipole Derivatives after L701:
                 1             2             3             4             5 
      1  -0.208266D+00 -0.270317D-01 -0.452142D-01  0.331287D+00  0.502342D-01
      2   0.257975D-01 -0.235643D+00  0.680867D-01  0.600050D+00 -0.815600D+00
      3  -0.587987D-01  0.118763D+00 -0.208550D+00  0.798905D-02 -0.979591D-01
                 6             7             8             9            10 
      1  -0.169890D+00 -0.135480D+01 -0.205518D-01 -0.281746D+00 -0.397143D+00
      2  -0.179915D+00 -0.451991D-02 -0.710867D+00  0.411727D-01  0.750684D-01
      3  -0.421556D+00 -0.438950D-01  0.294280D-01 -0.745075D+00  0.168842D+00
                11            12            13            14            15 
      1  -0.150782D+00  0.143653D+00 -0.619037D+00  0.216267D+00  0.265961D+00
      2  -0.762037D+00 -0.201648D+00 -0.852204D-01 -0.506602D+00 -0.700255D-01
      3  -0.109377D+00  0.389196D-02  0.208059D+00 -0.400174D-01  0.768692D-02
                16            17            18            19            20 
      1   0.102284D+01  0.104704D+00 -0.616895D+00  0.134528D+00  0.487571D+00
      2  -0.386945D-01  0.831868D-01  0.145764D-01 -0.170025D-01  0.311264D+00
      3  -0.136501D+00 -0.225931D-01  0.279872D+00  0.163093D-01  0.293981D+00
                21            22            23            24            25 
      1   0.420707D+00  0.270139D+00 -0.583629D+00  0.424456D+00  0.200586D+00
      2   0.184196D+00 -0.263055D-01  0.500839D+00 -0.251830D+00  0.282747D+00
      3   0.306133D+00  0.522082D-01 -0.286941D+00  0.277071D+00 -0.702576D-01
                26            27            28            29            30 
      1   0.160326D+00 -0.268665D-01  0.740859D+00 -0.647094D+00 -0.248227D+00
      2   0.748036D+00  0.888499D-01 -0.367938D+00  0.606180D+00  0.161428D+00
      3  -0.543693D-01  0.550569D-01 -0.114086D+00  0.123495D+00  0.138424D+00
                31            32            33 
      1  -0.120991D+00  0.409986D+00  0.134062D+00
      2  -0.443983D+00  0.781242D+00  0.145108D+00
      3  -0.298689D-01  0.455907D-01  0.307045D+00
 Hessian after L701:
                1             2             3             4             5 
      1  0.413920D+01
      2  0.371106D+01  0.105837D+02
      3 -0.153101D+01 -0.128507D+01  0.125331D+02
      4  0.799838D+00  0.168827D+00 -0.316149D+00  0.790305D+01
      5  0.634989D-01 -0.415922D+00 -0.112524D-01 -0.142205D+01  0.412210D+01
      6 -0.338336D+00 -0.355899D-01 -0.389503D+00  0.109676D+01 -0.818178D+00
      7 -0.106280D+01  0.150414D+00  0.357620D+01  0.253391D+00  0.346663D-01
      8  0.668663D-01 -0.699458D+01  0.110793D+00  0.696730D-01 -0.128607D+00
      9  0.348969D+01  0.163471D+00 -0.504001D+01 -0.199571D-02 -0.183982D-02
     10 -0.431623D+01 -0.442620D+01 -0.104504D+01  0.443330D+00  0.203596D+00
     11 -0.448754D+01 -0.322299D+01  0.157443D+01  0.112707D+00 -0.223028D+00
     12 -0.962153D+00  0.144260D+01 -0.748468D+01  0.395841D-01 -0.705568D-01
     13  0.450833D+00  0.106897D+00 -0.969573D-01 -0.667552D+01  0.322144D+01
     14  0.214920D+00 -0.341696D+00 -0.785118D-01  0.351812D+01 -0.343400D+00
     15 -0.799755D-01 -0.676331D-01  0.135813D+00 -0.683844D-02  0.175398D+00
     16  0.230918D-02  0.623945D-01 -0.281862D+00  0.429020D-01  0.130215D-02
     17  0.551117D-01  0.593740D-01 -0.188425D-01  0.759853D-02 -0.101781D-01
     18 -0.287247D+00 -0.260075D-01  0.702572D-01 -0.173014D-01 -0.567319D-04
     19 -0.651519D-01 -0.527508D-01 -0.125635D+00  0.279646D-01  0.116556D-01
     20 -0.272862D-01  0.220880D+00  0.868860D-01  0.365803D-01 -0.706547D-02
     21 -0.105039D+00  0.685288D-01  0.128280D+00  0.274833D-01  0.618433D-02
     22 -0.253468D+00  0.128358D-01 -0.152087D+00  0.346011D-01 -0.721664D-02
     23  0.110154D-01  0.250910D+00 -0.147680D+00 -0.311825D-01 -0.944694D-02
     24 -0.149739D+00 -0.130006D+00  0.139283D+00  0.273243D-01 -0.569406D-02
     25  0.106321D+00  0.239750D+00  0.543843D-01  0.525760D-01  0.107077D+00
     26  0.247961D+00 -0.741206D-01 -0.213839D+00  0.137071D+00  0.834412D-01
     27  0.416474D-01 -0.145799D+00  0.101827D+00 -0.138910D-03 -0.457163D-02
     28  0.992810D-01 -0.804222D-01 -0.343025D-01  0.114485D+00 -0.890498D-01
     29 -0.986426D-01  0.150393D-01  0.239851D-01 -0.535416D-01 -0.187715D+00
     30 -0.424233D-01  0.271370D-01 -0.216377D-01 -0.187771D-01 -0.904361D-02
     31  0.998646D-01  0.107188D+00 -0.475443D-01 -0.299661D+01 -0.212492D+01
     32  0.243027D+00 -0.805684D-01 -0.408951D-01 -0.254380D+01 -0.288017D+01
     33 -0.354132D-01 -0.116315D-01 -0.172738D+00 -0.829955D+00  0.739611D+00
                6             7             8             9            10 
      6  0.138248D+02
      7 -0.751270D-02  0.876882D+01
      8 -0.260513D-03  0.154669D+00  0.145597D+02
      9 -0.133982D+00 -0.306068D+01 -0.107922D+00  0.129937D+02
     10  0.842450D-01  0.230927D+00 -0.139616D+00  0.175644D+00  0.805574D+01
     11 -0.604834D-01 -0.120111D+00 -0.340480D-02 -0.834061D-01  0.210028D+01
     12  0.263677D+00  0.199638D+00 -0.813200D-01  0.581758D-01  0.315188D+01
     13 -0.334365D-01  0.243139D+00 -0.123701D+00  0.864260D-01 -0.896641D+00
     14  0.140507D+00 -0.883209D-01 -0.118289D+00 -0.253148D-01  0.129004D+01
     15 -0.827970D+01  0.876398D-01 -0.167897D-01 -0.122530D+00 -0.263117D+01
     16 -0.740714D-02 -0.162198D+01  0.199553D+00 -0.114513D+01  0.864719D-01
     17 -0.133335D-02  0.169813D+00 -0.324842D+01 -0.121914D+00 -0.139264D-01
     18 -0.536963D-02 -0.103479D+01 -0.127377D+00 -0.259786D+01 -0.292394D-01
     19  0.100791D-01 -0.341471D+01  0.209517D+00  0.176511D+00  0.463080D-01
     20  0.589269D-02  0.369455D-01 -0.203465D+01  0.117124D+01  0.308439D-01
     21 -0.107235D-01  0.295507D-01  0.123544D+01 -0.236959D+01  0.312815D-01
     22  0.940580D-02 -0.339819D+01 -0.403164D+00  0.289429D+00  0.732514D-02
     23 -0.460733D-02 -0.288806D+00 -0.208227D+01 -0.100180D+01 -0.848728D-01
     24 -0.126901D-01  0.208090D+00 -0.101556D+01 -0.272373D+01  0.482863D-01
     25 -0.155929D-01 -0.533758D-02 -0.269374D-01 -0.897066D-02 -0.342910D+01
     26 -0.229510D-01 -0.581748D-01  0.486302D-01  0.467825D-02  0.921079D+00
     27 -0.382166D-01 -0.437920D-02 -0.196670D-03 -0.422609D-01  0.104099D+00
     28 -0.211715D-01  0.163245D-01 -0.119043D-01 -0.125402D-02 -0.242025D+00
     29 -0.258912D-01 -0.166323D-01 -0.146981D-03  0.288550D-02  0.123286D+00
     30  0.572207D-01 -0.165749D-02  0.437226D-03 -0.919771D-02  0.106066D+00
     31 -0.777036D+00 -0.958722D-02  0.504581D-02  0.336701D-03  0.138914D-01
     32  0.822896D+00  0.255370D-01  0.199253D-02 -0.844112D-04 -0.450649D-02
     33 -0.527554D+01  0.789394D-02  0.275467D-02 -0.126944D-01  0.395216D-02
               11            12            13            14            15 
     11  0.136358D+02
     12 -0.159953D+01  0.227295D+02
     13  0.166316D+01 -0.265597D+01  0.960942D+01
     14 -0.861928D+01  0.108601D+00 -0.340459D+01  0.119289D+02
     15  0.489193D-01 -0.118019D+02  0.292004D+01 -0.650364D+00  0.234896D+02
     16 -0.243645D-01 -0.164058D-01  0.970984D-02  0.400813D-02 -0.757855D-03
     17 -0.268157D-01  0.340761D-02  0.924741D-03 -0.729345D-02 -0.792759D-04
     18  0.237951D-02 -0.138306D-01 -0.995945D-02  0.330987D-03 -0.297651D-02
     19  0.774098D-03 -0.156178D-01  0.229946D-01 -0.332291D-02 -0.329869D-02
     20 -0.538831D-01  0.224051D-01  0.156742D-01 -0.141096D-01  0.362945D-02
     21  0.121920D-01 -0.698098D-01  0.143677D-01  0.261734D-02 -0.170781D-01
     22 -0.824158D-01  0.322914D-01  0.725044D-01 -0.408639D-01  0.135794D-01
     23  0.571062D-01 -0.521026D-01 -0.677627D-01  0.420879D-02 -0.912231D-02
     24 -0.602452D-01 -0.284649D-01  0.312918D-01 -0.109499D-01 -0.203183D-01
     25  0.825111D+00  0.125579D+00 -0.157117D+00 -0.332250D+00  0.117799D+00
     26 -0.160355D+01  0.277273D+00 -0.386168D+00 -0.250672D-01  0.109802D+00
     27  0.194301D+00 -0.382634D+01  0.128816D+00  0.939484D-01  0.181268D+00
     28  0.996532D-01  0.104514D+00 -0.279966D+01 -0.113878D+01 -0.414820D+00
     29  0.194336D+00 -0.248404D-01 -0.116647D+01 -0.252473D+01  0.460585D+00
     30 -0.219914D-01  0.135424D+00 -0.400415D+00  0.434909D+00 -0.365571D+01
     31 -0.872541D-01 -0.333659D-02  0.120334D+00 -0.189564D-01 -0.219811D-02
     32 -0.134292D+00 -0.259382D-01  0.140590D+00  0.607055D-01 -0.543457D-01
     33 -0.656310D-02  0.382860D-01  0.158004D-01 -0.157731D-01  0.935791D-01
               16            17            18            19            20 
     16  0.133131D+01
     17 -0.183665D+00  0.314082D+01
     18  0.114379D+01  0.101353D+00  0.274922D+01
     19  0.466234D-01  0.840193D-01  0.128530D+00  0.321206D+01
     20  0.969888D-01  0.673041D-01 -0.120710D+00 -0.218095D+00  0.206822D+01
     21  0.167628D+00 -0.133726D+00 -0.107092D+00 -0.205306D+00 -0.113831D+01
     22  0.709360D-01 -0.999018D-01  0.112763D+00  0.105160D+00  0.446182D-01
     23 -0.120645D+00  0.164553D-01  0.161514D+00  0.677776D-02 -0.237382D+00
     24  0.145827D+00  0.168641D+00 -0.804003D-01  0.351119D-02 -0.216128D-01
     25  0.218876D-01 -0.207176D-01 -0.408194D-02  0.179514D-01 -0.218470D-01
     26 -0.395408D-01  0.905162D-02  0.921895D-02 -0.441308D-01 -0.120349D-01
     27 -0.453468D-02  0.228422D-02 -0.977285D-02  0.289941D-01 -0.121665D-01
     28  0.687934D-02 -0.838037D-03 -0.339940D-02 -0.154581D-02  0.416268D-02
     29 -0.591173D-02 -0.578721D-03  0.247324D-02 -0.196508D-02 -0.371810D-02
     30 -0.218516D-02 -0.306082D-05  0.165800D-03 -0.720396D-03 -0.660688D-03
     31  0.294937D-02  0.158152D-02  0.931094D-03  0.234369D-02  0.141444D-02
     32  0.988006D-02  0.284053D-03 -0.311831D-02  0.752080D-02  0.643311D-02
     33  0.103944D-02  0.212492D-03 -0.234738D-02  0.295195D-02  0.340402D-02
               21            22            23            24            25 
     21  0.233090D+01
     22  0.602700D-02  0.337405D+01
     23 -0.220152D-01  0.568199D+00  0.200506D+01
     24  0.124616D+00 -0.307142D+00  0.107178D+01  0.260249D+01
     25  0.304806D-01 -0.509310D-02  0.114838D-01 -0.553317D-02  0.343884D+01
     26 -0.343728D-01  0.896195D-02 -0.520730D-02  0.293395D-02 -0.790022D+00
     27 -0.758618D-02 -0.348459D-02  0.505462D-02 -0.353575D-03 -0.301952D+00
     28  0.261295D-02  0.371352D-02 -0.608052D-02  0.290101D-02 -0.369023D-01
     29 -0.281245D-02 -0.395327D-02  0.463217D-02 -0.289779D-02 -0.117503D-01
     30 -0.169489D-02  0.726724D-04  0.901188D-03 -0.150140D-02  0.686103D-02
     31  0.913782D-03 -0.115375D-01  0.187323D-02 -0.481767D-02 -0.402457D-02
     32  0.627624D-02  0.290092D-02 -0.406786D-02  0.361174D-02  0.201019D-01
     33 -0.222845D-03 -0.855148D-03 -0.192147D-02  0.106346D-02  0.102717D-02
               26            27            28            29            30 
     26  0.154172D+01
     27 -0.135734D+00  0.364923D+01
     28 -0.652241D-02  0.113396D-01  0.284455D+01
     29  0.284696D-02  0.126758D-02  0.127928D+01  0.241419D+01
     30  0.706460D-03 -0.309772D-03  0.362202D+00 -0.455726D+00  0.351262D+01
     31  0.948571D-02 -0.406693D-03 -0.510926D-02 -0.436989D-01 -0.902209D-02
     32  0.342955D-01  0.161270D-02 -0.494907D-01  0.858481D-01  0.233338D-01
     33  0.228452D-02 -0.748261D-02 -0.862227D-02  0.209710D-01 -0.153810D-01
               31            32            33 
     31  0.278749D+01
     32  0.214824D+01  0.290954D+01
     33  0.842180D+00 -0.733349D+00  0.535348D+01
 Leave Link  701 at Sat Aug 31 11:21:53 2019, MaxMem=   671088640 cpu:              41.7 elap:              20.9
 (Enter /shared/centos7/gaussian/g16/l702.exe)
 L702 exits ... SP integral derivatives will be done elsewhere.
 Leave Link  702 at Sat Aug 31 11:21:54 2019, MaxMem=   671088640 cpu:               1.4 elap:               0.7
 (Enter /shared/centos7/gaussian/g16/l703.exe)
 Integral derivatives from FoFJK, PRISM(SPDF).
 Compute integral second derivatives, UseDBF=F ICtDFT=           0.
 ICntrl=    100147.
 Calling FoFJK, ICntrl=    100147 FMM=F ISym2X=0 I1Cent= 0 IOpClX= 0 NMat=1 NMatS=1 NMatT=0.
 FoFJK:  IHMeth= 1 ICntrl=  100147 DoSepK=F KAlg= 0 I1Cent=           0 FoldK=F
 IRaf=         0 NMat=       1 IRICut=       1 DoRegI=T DoRafI=F ISym2E= 0 IDoP0=0 IntGTp=1.
 FoFCou: FMM=F IPFlag=           0 FMFlag=      100000 FMFlg1=         800
         NFxFlg=           0 DoJE=F BraDBF=F KetDBF=F FulRan=T
         wScrn=  0.000000 ICntrl=    100147 IOpCl=  0 I1Cent=           0 NGrid=           0
         NMat0=    1 NMatS0=      1 NMatT0=    0 NMatD0=    1 NMtDS0=    0 NMtDT0=    0
 Symmetry not used in FoFCou.
 FoFCou:  KetSym=F NOpSet=  1 NOpAb=1 NOp=  1.
 FoFCou:  CnvScl= 1.00D+00 Thresh= 1.00D-08 IAcrcy=      12.
 PrismS was handed   670742395 working-precision words and  3646 shell-pairs
 FoFCou: LinMIO=F DoNuc=F BraDBF=F KetDBF=F HaveP=T PDBF=F HaveZ=T HaveW=F
         NIJTC =      10 NIJTAt=       0 NIJTCD=       0 NIJTT =      10
         IJTBeg=       1 IJTEnd=      10 KLTBeg=       1 KLTEnd=      10
         IPTBeg=       1 IPTEnd=      10 IPTBCv=       1 IPTECv=      10
         IZTBeg=       1 IZTEnd=      10 IZTBCv=       1 IZTECv=      10
         IWTBeg=      11 IWTEnd=      10 IWTBCv=      11 IWTECv=      10
         INTBeg=       1 INTEnd=       0 IFTBCv=       1 IFTECv=      10
 NCel replicated for PrismC:     1
 CoulSu-InSpLW:  IPartL=    0 NPrtUS=   20 NPrtUL=    1 DoSpLW=F IThBeg=    0 IThEnd=   19 NThAct=   20.
 CoulSu:  IncDef=  1024 NBBP=        6648481 NTPThr=   100 NPartT=   20 Incr=        1024 LDynOK=F GPUOK=T.
 CoulSu:  NPrtUS=  20 ThrOK=T IAlg=1 NPAlg=1 LenDen=           0 LWGrdD=           0 DoCopy=F ISkipM=0
          DoSpLW=F IThBeg=    0 IThEnd=   19.
 Enter PrismC:  IPart=  0 JobTyp=22 DoJE=F Cont=F.
 PrismC:  IPart=     0 DynPar=T LinDyn=F Incr=        1024 UseFst=F UseS4=T ISplat=2.
 PrismC was handed    33457259 working-precision words and  3646 shell-pairs
 Enter PrismC:  IPart=  1 JobTyp=22 DoJE=F Cont=F.
 PrismC:  IPart=     1 DynPar=T LinDyn=F Incr=        1024 UseFst=F UseS4=T ISplat=2.
 PrismC was handed    33457259 working-precision words and  3646 shell-pairs
 Enter PrismC:  IPart=  2 JobTyp=22 DoJE=F Cont=F.
 PrismC:  IPart=     2 DynPar=T LinDyn=F Incr=        1024 UseFst=F UseS4=T ISplat=2.
 PrismC was handed    33457259 working-precision words and  3646 shell-pairs
 Enter PrismC:  IPart=  5 JobTyp=22 DoJE=F Cont=F.
 Enter PrismC:  IPart=  6 JobTyp=22 DoJE=F Cont=F.
 PrismC:  IPart=     5 DynPar=T LinDyn=F Incr=        1024 UseFst=F UseS4=T ISplat=2.
 PrismC:  IPart=     6 DynPar=T LinDyn=F Incr=        1024 UseFst=F UseS4=T ISplat=2.
 PrismC was handed    33457259 working-precision words and  3646 shell-pairs
 PrismC was handed    33457259 working-precision words and  3646 shell-pairs
 Enter PrismC:  IPart= 19 JobTyp=22 DoJE=F Cont=F.
 PrismC:  IPart=    19 DynPar=T LinDyn=F Incr=        1024 UseFst=F UseS4=T ISplat=2.
 PrismC was handed    33457259 working-precision words and  3646 shell-pairs
 Enter PrismC:  IPart= 11 JobTyp=22 DoJE=F Cont=F.
 PrismC:  IPart=    11 DynPar=T LinDyn=F Incr=        1024 UseFst=F UseS4=T ISplat=2.
 PrismC was handed    33457259 working-precision words and  3646 shell-pairs
 Enter PrismC:  IPart=  3 JobTyp=22 DoJE=F Cont=F.
 PrismC:  IPart=     3 DynPar=T LinDyn=F Incr=        1024 UseFst=F UseS4=T ISplat=2.
 PrismC was handed    33457259 working-precision words and  3646 shell-pairs
 Enter PrismC:  IPart= 14 JobTyp=22 DoJE=F Cont=F.
 PrismC:  IPart=    14 DynPar=T LinDyn=F Incr=        1024 UseFst=F UseS4=T ISplat=2.
 PrismC was handed    33457259 working-precision words and  3646 shell-pairs
 Enter PrismC:  IPart= 13 JobTyp=22 DoJE=F Cont=F.
 PrismC:  IPart=    13 DynPar=T LinDyn=F Incr=        1024 UseFst=F UseS4=T ISplat=2.
 PrismC was handed    33457259 working-precision words and  3646 shell-pairs
 Enter PrismC:  IPart= 17 JobTyp=22 DoJE=F Cont=F.
 PrismC:  IPart=    17 DynPar=T LinDyn=F Incr=        1024 UseFst=F UseS4=T ISplat=2.
 PrismC was handed    33457259 working-precision words and  3646 shell-pairs
 Enter PrismC:  IPart= 18 JobTyp=22 DoJE=F Cont=F.
 PrismC:  IPart=    18 DynPar=T LinDyn=F Incr=        1024 UseFst=F UseS4=T ISplat=2.
 PrismC was handed    33457259 working-precision words and  3646 shell-pairs
 Enter PrismC:  IPart= 12 JobTyp=22 DoJE=F Cont=F.
 PrismC:  IPart=    12 DynPar=T LinDyn=F Incr=        1024 UseFst=F UseS4=T ISplat=2.
 PrismC was handed    33457259 working-precision words and  3646 shell-pairs
 Enter PrismC:  IPart=  7 JobTyp=22 DoJE=F Cont=F.
 PrismC:  IPart=     7 DynPar=T LinDyn=F Incr=        1024 UseFst=F UseS4=T ISplat=2.
 PrismC was handed    33457259 working-precision words and  3646 shell-pairs
 Enter PrismC:  IPart=  4 JobTyp=22 DoJE=F Cont=F.
 PrismC:  IPart=     4 DynPar=T LinDyn=F Incr=        1024 UseFst=F UseS4=T ISplat=2.
 PrismC was handed    33457259 working-precision words and  3646 shell-pairs
 Enter PrismC:  IPart= 10 JobTyp=22 DoJE=F Cont=F.
 PrismC:  IPart=    10 DynPar=T LinDyn=F Incr=        1024 UseFst=F UseS4=T ISplat=2.
 PrismC was handed    33457259 working-precision words and  3646 shell-pairs
 Enter PrismC:  IPart= 16 JobTyp=22 DoJE=F Cont=F.
 PrismC:  IPart=    16 DynPar=T LinDyn=F Incr=        1024 UseFst=F UseS4=T ISplat=2.
 PrismC was handed    33457259 working-precision words and  3646 shell-pairs
 Enter PrismC:  IPart=  8 JobTyp=22 DoJE=F Cont=F.
 PrismC:  IPart=     8 DynPar=T LinDyn=F Incr=        1024 UseFst=F UseS4=T ISplat=2.
 PrismC was handed    33457259 working-precision words and  3646 shell-pairs
 Enter PrismC:  IPart= 15 JobTyp=22 DoJE=F Cont=F.
 PrismC:  IPart=    15 DynPar=T LinDyn=F Incr=        1024 UseFst=F UseS4=T ISplat=2.
 PrismC was handed    33457259 working-precision words and  3646 shell-pairs
 Enter PrismC:  IPart=  9 JobTyp=22 DoJE=F Cont=F.
 PrismC:  IPart=     9 DynPar=T LinDyn=F Incr=        1024 UseFst=F UseS4=T ISplat=2.
 PrismC was handed    33457259 working-precision words and  3646 shell-pairs
 IPart=  5 NShTot=      204031 NShNF=      204031 NShFF=           0 MinMC=       7
           NShCPU=      204031 NBCPU=        8276 AvBCPU=        24.7
           NShGPU=           0 NBGPU=           0 AvBGPU=         0.0
 IPart= 19 NShTot=      240642 NShNF=      240642 NShFF=           0 MinMC=       7
           NShCPU=      240642 NBCPU=       10211 AvBCPU=        23.6
           NShGPU=           0 NBGPU=           0 AvBGPU=         0.0
 IPart=  7 NShTot=      208779 NShNF=      208779 NShFF=           0 MinMC=       7
           NShCPU=      208779 NBCPU=        8374 AvBCPU=        24.9
           NShGPU=           0 NBGPU=           0 AvBGPU=         0.0
 IPart= 11 NShTot=      251282 NShNF=      251282 NShFF=           0 MinMC=       7
           NShCPU=      251282 NBCPU=       10630 AvBCPU=        23.6
           NShGPU=           0 NBGPU=           0 AvBGPU=         0.0
 IPart= 17 NShTot=      192394 NShNF=      192394 NShFF=           0 MinMC=       7
           NShCPU=      192394 NBCPU=        8115 AvBCPU=        23.7
           NShGPU=           0 NBGPU=           0 AvBGPU=         0.0
 IPart= 13 NShTot=      188795 NShNF=      188795 NShFF=           0 MinMC=       7
           NShCPU=      188795 NBCPU=        8028 AvBCPU=        23.5
           NShGPU=           0 NBGPU=           0 AvBGPU=         0.0
 IPart=  9 NShTot=      236234 NShNF=      236234 NShFF=           0 MinMC=       7
           NShCPU=      236234 NBCPU=        9877 AvBCPU=        23.9
           NShGPU=           0 NBGPU=           0 AvBGPU=         0.0
 IPart= 15 NShTot=      210603 NShNF=      210603 NShFF=           0 MinMC=       7
           NShCPU=      210603 NBCPU=        8848 AvBCPU=        23.8
           NShGPU=           0 NBGPU=           0 AvBGPU=         0.0
 IPart=  4 NShTot=      239161 NShNF=      239161 NShFF=           0 MinMC=       7
           NShCPU=      239161 NBCPU=        9758 AvBCPU=        24.5
           NShGPU=           0 NBGPU=           0 AvBGPU=         0.0
 IPart=  8 NShTot=      207782 NShNF=      207782 NShFF=           0 MinMC=       7
           NShCPU=      207782 NBCPU=        8506 AvBCPU=        24.4
           NShGPU=           0 NBGPU=           0 AvBGPU=         0.0
 IPart=  6 NShTot=      248725 NShNF=      248725 NShFF=           0 MinMC=       7
           NShCPU=      248725 NBCPU=       10722 AvBCPU=        23.2
           NShGPU=           0 NBGPU=           0 AvBGPU=         0.0
 IPart= 18 NShTot=      198597 NShNF=      198597 NShFF=           0 MinMC=       7
           NShCPU=      198597 NBCPU=        8400 AvBCPU=        23.6
           NShGPU=           0 NBGPU=           0 AvBGPU=         0.0
 IPart=  0 NShTot=      245680 NShNF=      245680 NShFF=           0 MinMC=       7
           NShCPU=      245680 NBCPU=        9853 AvBCPU=        24.9
           NShGPU=           0 NBGPU=           0 AvBGPU=         0.0
 IPart= 16 NShTot=      198585 NShNF=      198585 NShFF=           0 MinMC=       7
           NShCPU=      198585 NBCPU=        8392 AvBCPU=        23.7
           NShGPU=           0 NBGPU=           0 AvBGPU=         0.0
 IPart= 12 NShTot=      246208 NShNF=      246208 NShFF=           0 MinMC=       7
           NShCPU=      246208 NBCPU=       10713 AvBCPU=        23.0
           NShGPU=           0 NBGPU=           0 AvBGPU=         0.0
 IPart=  2 NShTot=      243991 NShNF=      243991 NShFF=           0 MinMC=       7
           NShCPU=      243991 NBCPU=       10605 AvBCPU=        23.0
           NShGPU=           0 NBGPU=           0 AvBGPU=         0.0
 IPart= 14 NShTot=      192081 NShNF=      192081 NShFF=           0 MinMC=       7
           NShCPU=      192081 NBCPU=        7957 AvBCPU=        24.1
           NShGPU=           0 NBGPU=           0 AvBGPU=         0.0
 IPart=  1 NShTot=      202389 NShNF=      202389 NShFF=           0 MinMC=       7
           NShCPU=      202389 NBCPU=        8606 AvBCPU=        23.5
           NShGPU=           0 NBGPU=           0 AvBGPU=         0.0
 IPart=  3 NShTot=      237719 NShNF=      237719 NShFF=           0 MinMC=       7
           NShCPU=      237719 NBCPU=        9683 AvBCPU=        24.6
           NShGPU=           0 NBGPU=           0 AvBGPU=         0.0
 IPart= 10 NShTot=      203155 NShNF=      203155 NShFF=           0 MinMC=       7
           NShCPU=      203155 NBCPU=        8896 AvBCPU=        22.8
           NShGPU=           0 NBGPU=           0 AvBGPU=         0.0
 CoulSu:  NxtVal=        7095297 LenVP=       33457260 MinMC=       7.
 ReadGW:  IGet=0 IStart=           1 Next=           1 LGW=           0.
 Remaining memory in FofDFT      639.93 Mw
 CkSvGd:  ISavGI=        -1 IRadAn=       5 IRASav=       5 ISavGd=        -1.
 CalDSu-InSpLW:  IPartL=    0 NPrtUS=   20 NPrtUL=    1 DoSpLW=F IThBeg=    0 IThEnd=   19 NThAct=   20.
 CalDSu:  NPrtUS=  20 ThrOK=T IAlg=1 NPAlg=2 DoDPD=T LenP=       35245 LenD1P=             0 GPUOK=F
          ISkipM=0 DoSpLW=F IThBeg=    0 IThEnd=   19.
 IPart=  0 IRanGd=          0 ScrnBf=T ScrnGd=T RCrit=4.00D+00 DoMicB=T.
 IPart= 13        13326 of        15818 points in      18 batches and       77 microbatches, Max-NSigAt=      11 Max-NSgAt2=      11
 IPart=  1        12116 of        12884 points in      13 batches and       55 microbatches, Max-NSigAt=      11 Max-NSgAt2=      11
 IPart=  9        10754 of        11600 points in      13 batches and       55 microbatches, Max-NSigAt=      11 Max-NSgAt2=      11
 IPart= 18         9934 of        10688 points in      11 batches and       68 microbatches, Max-NSigAt=      11 Max-NSgAt2=      11
 IPart=  2        11438 of        11992 points in      11 batches and       50 microbatches, Max-NSigAt=      11 Max-NSgAt2=      11
 IPart=  8        10086 of        10660 points in      11 batches and       58 microbatches, Max-NSigAt=      11 Max-NSgAt2=      11
 IPart= 15        10818 of        12842 points in      15 batches and      101 microbatches, Max-NSigAt=      11 Max-NSgAt2=      11
 IPart= 17        10388 of        10924 points in      11 batches and       65 microbatches, Max-NSigAt=      11 Max-NSgAt2=      11
 IPart=  5        10133 of        10910 points in      11 batches and       66 microbatches, Max-NSigAt=      11 Max-NSgAt2=      11
 IPart= 19        10759 of        11308 points in      11 batches and       57 microbatches, Max-NSigAt=      11 Max-NSgAt2=      11
 IPart= 16        13107 of        14434 points in      15 batches and       59 microbatches, Max-NSigAt=      11 Max-NSgAt2=      11
 IPart=  4        10851 of        11416 points in      11 batches and       59 microbatches, Max-NSigAt=      11 Max-NSgAt2=      11
 IPart=  6        12380 of        13702 points in      14 batches and       81 microbatches, Max-NSigAt=      11 Max-NSgAt2=      11
 IPart= 11        12661 of        15104 points in      17 batches and       97 microbatches, Max-NSigAt=      11 Max-NSgAt2=      11
 IPart=  0        12993 of        14128 points in      14 batches and       46 microbatches, Max-NSigAt=      11 Max-NSgAt2=      11
 IPart=  7        12384 of        14244 points in      16 batches and       64 microbatches, Max-NSigAt=      11 Max-NSgAt2=      11
 IPart= 12         9944 of        10676 points in      11 batches and       76 microbatches, Max-NSigAt=      11 Max-NSgAt2=      11
 IPart= 10        10276 of        11076 points in      11 batches and       78 microbatches, Max-NSigAt=      11 Max-NSgAt2=      11
 IPart= 14        11075 of        11620 points in      11 batches and       62 microbatches, Max-NSigAt=      11 Max-NSgAt2=      11
 IPart=  3         9927 of        10676 points in      11 batches and       66 microbatches, Max-NSigAt=      11 Max-NSgAt2=      11
 Polarizability after L703:
                1             2             3 
      1  0.000000D+00
      2  0.000000D+00  0.000000D+00
      3  0.000000D+00  0.000000D+00  0.000000D+00
 Dipole Derivatives after L703:
                 1             2             3             4             5 
      1  -0.208266D+00 -0.270317D-01 -0.452142D-01  0.331287D+00  0.502342D-01
      2   0.257975D-01 -0.235643D+00  0.680867D-01  0.600050D+00 -0.815600D+00
      3  -0.587987D-01  0.118763D+00 -0.208550D+00  0.798905D-02 -0.979591D-01
                 6             7             8             9            10 
      1  -0.169890D+00 -0.135480D+01 -0.205518D-01 -0.281746D+00 -0.397143D+00
      2  -0.179915D+00 -0.451991D-02 -0.710867D+00  0.411727D-01  0.750684D-01
      3  -0.421556D+00 -0.438950D-01  0.294280D-01 -0.745075D+00  0.168842D+00
                11            12            13            14            15 
      1  -0.150782D+00  0.143653D+00 -0.619037D+00  0.216267D+00  0.265961D+00
      2  -0.762037D+00 -0.201648D+00 -0.852204D-01 -0.506602D+00 -0.700255D-01
      3  -0.109377D+00  0.389196D-02  0.208059D+00 -0.400174D-01  0.768692D-02
                16            17            18            19            20 
      1   0.102284D+01  0.104704D+00 -0.616895D+00  0.134528D+00  0.487571D+00
      2  -0.386945D-01  0.831868D-01  0.145764D-01 -0.170025D-01  0.311264D+00
      3  -0.136501D+00 -0.225931D-01  0.279872D+00  0.163093D-01  0.293981D+00
                21            22            23            24            25 
      1   0.420707D+00  0.270139D+00 -0.583629D+00  0.424456D+00  0.200586D+00
      2   0.184196D+00 -0.263055D-01  0.500839D+00 -0.251830D+00  0.282747D+00
      3   0.306133D+00  0.522082D-01 -0.286941D+00  0.277071D+00 -0.702576D-01
                26            27            28            29            30 
      1   0.160326D+00 -0.268665D-01  0.740859D+00 -0.647094D+00 -0.248227D+00
      2   0.748036D+00  0.888499D-01 -0.367938D+00  0.606180D+00  0.161428D+00
      3  -0.543693D-01  0.550569D-01 -0.114086D+00  0.123495D+00  0.138424D+00
                31            32            33 
      1  -0.120991D+00  0.409986D+00  0.134062D+00
      2  -0.443983D+00  0.781242D+00  0.145108D+00
      3  -0.298689D-01  0.455907D-01  0.307045D+00
 Hessian after L703:
                1             2             3             4             5 
      1  0.424187D+00
      2 -0.122369D+00  0.288802D+00
      3  0.795329D-01  0.859702D-01  0.175893D+00
      4  0.195488D-03 -0.959741D-04 -0.372274D-02  0.381469D+00
      5 -0.538208D-02  0.148503D-01  0.249878D-02 -0.219697D-01  0.476608D+00
      6 -0.149066D-02  0.218611D-02 -0.526146D-02 -0.718871D-01  0.502341D-01
      7 -0.173132D+00  0.637596D-02 -0.608707D-01  0.190220D-02  0.375323D-02
      8 -0.171501D-01 -0.791266D-01 -0.238520D-01 -0.458055D-03  0.227956D-02
      9 -0.829163D-01 -0.774880D-02 -0.109879D+00  0.116401D-02 -0.942049D-04
     10 -0.152466D+00  0.712401D-01  0.114277D-01 -0.180513D-01 -0.193553D-01
     11  0.949045D-01 -0.194218D+00 -0.447416D-01 -0.558872D-01 -0.446394D-01
     12  0.353239D-01 -0.651946D-01 -0.646834D-01  0.131024D-02 -0.104778D-02
     13 -0.354178D-01  0.731062D-02  0.111859D-01 -0.145875D+00 -0.953129D-01
     14  0.527124D-01 -0.138092D-01 -0.105711D-01 -0.508065D-01 -0.256305D+00
     15  0.173398D-01 -0.556242D-02  0.531761D-02  0.159946D-01 -0.358540D-02
     16 -0.337686D-01  0.156026D-02  0.534250D-02 -0.437440D-03 -0.202825D-03
     17 -0.137406D-02  0.367297D-02 -0.205342D-02 -0.354787D-04  0.117405D-03
     18 -0.212629D-01 -0.825158D-03  0.137990D-01 -0.112290D-03  0.274357D-03
     19 -0.131160D-01 -0.202825D-01 -0.240460D-01 -0.573352D-04  0.785499D-03
     20 -0.449378D-02 -0.277848D-03 -0.152394D-02  0.708250D-04  0.139801D-03
     21 -0.102463D-01 -0.114318D-01 -0.148393D-01  0.188777D-03  0.521970D-03
     22 -0.156136D-01  0.273766D-01 -0.221150D-01 -0.360966D-03 -0.153857D-02
     23  0.165983D-02  0.781230D-02 -0.246231D-02  0.326009D-03  0.764498D-03
     24 -0.149452D-01  0.120479D-01 -0.913478D-02 -0.151693D-03 -0.610251D-03
     25  0.267148D-02  0.260038D-01  0.776672D-03 -0.430348D-02  0.437570D-03
     26  0.240651D-02 -0.291092D-01 -0.316725D-02  0.437124D-03  0.269373D-02
     27 -0.225284D-02 -0.126402D-01  0.122277D-02  0.364537D-02  0.491240D-03
     28 -0.380636D-02 -0.132301D-02  0.169768D-02  0.134128D-01 -0.141805D-01
     29 -0.297776D-02  0.852462D-03 -0.778402D-03  0.175862D-01 -0.282678D-01
     30  0.647175D-03  0.285254D-02  0.105903D-01 -0.876564D-03 -0.929574D-03
     31  0.266206D-03  0.420276D-02  0.791224D-03 -0.227893D+00  0.152966D+00
     32  0.206323D-02  0.550619D-03  0.681032D-03  0.110833D+00 -0.168241D+00
     33  0.270387D-03  0.346360D-03 -0.302548D-02  0.544473D-01 -0.477533D-01
                6             7             8             9            10 
      6  0.802712D-01
      7 -0.164238D-03  0.477926D+00
      8  0.125328D-02 -0.289089D-01  0.569661D+00
      9 -0.819977D-03 -0.233497D-01 -0.315931D-01  0.502744D+00
     10  0.641111D-02 -0.483042D-01  0.276831D-01 -0.116841D-03  0.912988D+00
     11  0.502951D-02  0.156752D-01 -0.267352D-02  0.966391D-02  0.120469D+00
     12  0.136013D-01 -0.118704D-01  0.163257D-01  0.151504D-02 -0.130512D+00
     13  0.947893D-02  0.273745D-02  0.834228D-03  0.226689D-02 -0.577173D+00
     14 -0.114974D-01 -0.395130D-02 -0.561988D-02 -0.503790D-02 -0.926379D-01
     15 -0.518532D-01 -0.270102D-02 -0.115730D-02 -0.916982D-03  0.102511D+00
     16  0.793891D-04 -0.158428D+00 -0.132901D-01  0.943752D-01 -0.165730D-02
     17 -0.260464D-04 -0.120977D-01 -0.615316D-01  0.118948D-01  0.108015D-02
     18  0.108536D-03  0.100899D+00  0.119108D-01 -0.143354D+00 -0.154741D-02
[...]
     Eigenvalues ---    0.04680   0.08686   0.08778   0.10705   0.12082
     Eigenvalues ---    0.13475   0.16484   0.18191   0.18736   0.19826
     Eigenvalues ---    0.22138   0.23301   0.33222   0.33591   0.35088
     Eigenvalues ---    0.36355   0.37354   0.39844   0.45086   0.45698
     Eigenvalues ---    0.53342   0.66236
 Angle between quadratic step and forces=  74.71 degrees.
 Linear search not attempted -- first point.
 Iteration  1 RMS(Cart)=  0.00000299 RMS(Int)=  0.00000000
 Iteration  2 RMS(Cart)=  0.00000000 RMS(Int)=  0.00000000
 ITry= 1 IFail=0 DXMaxC= 7.35D-06 DCOld= 1.00D+10 DXMaxT= 3.00D-01 DXLimC= 3.00D+00 Rises=F
 Variable       Old X    -DE/DX   Delta X   Delta X   Delta X     New X
                                 (Linear)    (Quad)   (Total)
    R1        2.67120  -0.00000   0.00000  -0.00000  -0.00000   2.67120
    R2        2.59481  -0.00000   0.00000  -0.00000  -0.00000   2.59481
    R3        2.56333   0.00000   0.00000   0.00000   0.00000   2.56333
    R4        1.82347   0.00000   0.00000   0.00000   0.00000   1.82347
    R5        2.05345  -0.00000   0.00000  -0.00000  -0.00000   2.05345
    R6        2.06653   0.00000   0.00000   0.00000   0.00000   2.06653
    R7        2.06457  -0.00000   0.00000   0.00000   0.00000   2.06457
    R8        2.50502  -0.00000   0.00000  -0.00000  -0.00000   2.50502
    R9        2.04478  -0.00000   0.00000  -0.00000  -0.00000   2.04478
   R10        2.03835   0.00000   0.00000   0.00000   0.00000   2.03835
    A1        1.98208  -0.00000   0.00000  -0.00000  -0.00000   1.98208
    A2        1.87243  -0.00000   0.00000  -0.00000  -0.00000   1.87243
    A3        1.87229   0.00000   0.00000   0.00000   0.00000   1.87229
    A4        1.93110  -0.00000   0.00000   0.00000   0.00000   1.93110
    A5        1.93727   0.00000   0.00000   0.00000   0.00000   1.93727
    A6        1.90554  -0.00000   0.00000  -0.00000  -0.00000   1.90554
    A7        1.91450  -0.00000   0.00000  -0.00000  -0.00000   1.91450
    A8        1.90277  -0.00000   0.00000  -0.00000  -0.00000   1.90277
    A9        2.08155   0.00000   0.00000   0.00000   0.00000   2.08155
   A10        2.05343  -0.00000   0.00000   0.00000   0.00000   2.05343
   A11        2.14729  -0.00000   0.00000  -0.00000  -0.00000   2.14729
   A12        2.16215   0.00000   0.00000   0.00000   0.00000   2.16215
   A13        1.98815  -0.00000   0.00000  -0.00000  -0.00000   1.98815
   A14        2.13269   0.00000   0.00000   0.00000   0.00000   2.13269
    D1       -3.10483  -0.00000   0.00000  -0.00000  -0.00000  -3.10483
    D2       -1.02788  -0.00000   0.00000  -0.00000  -0.00000  -1.02788
    D3        1.08701   0.00000   0.00000  -0.00000  -0.00000   1.08701
    D4       -2.45356  -0.00000   0.00000  -0.00000  -0.00000  -2.45356
    D5        0.73254  -0.00000   0.00000  -0.00000  -0.00000   0.73254
    D6       -0.00098  -0.00000   0.00000  -0.00000  -0.00000  -0.00098
    D7        3.11981  -0.00000   0.00000  -0.00000  -0.00000   3.11981
    D8        0.03797  -0.00000   0.00000  -0.00000  -0.00000   0.03797
    D9       -3.08114  -0.00000   0.00000  -0.00000  -0.00000  -3.08114
   D10        3.13254  -0.00000   0.00000  -0.00000  -0.00000   3.13254
   D11        0.01342  -0.00000   0.00000  -0.00000  -0.00000   0.01342
         Item               Value     Threshold  Converged?
 Maximum Force            0.000000     0.000015     YES
 RMS     Force            0.000000     0.000010     YES
 Maximum Displacement     0.000007     0.000060     YES
 RMS     Displacement     0.000003     0.000040     YES
 Predicted change in Energy=-3.317507D-13
 Optimization completed.
    -- Stationary point found.
                           ----------------------------
                           !   Optimized Parameters   !
                           ! (Angstroms and Degrees)  !
 --------------------------                            --------------------------
 ! Name  Definition              Value          Derivative Info.                !
 --------------------------------------------------------------------------------
 ! R1    R(1,3)                  1.4135         -DE/DX =    0.0                 !
 ! R2    R(1,4)                  1.3731         -DE/DX =    0.0                 !
 ! R3    R(2,5)                  1.3565         -DE/DX =    0.0                 !
 ! R4    R(2,11)                 0.9649         -DE/DX =    0.0                 !
 ! R5    R(3,6)                  1.0866         -DE/DX =    0.0                 !
 ! R6    R(3,7)                  1.0936         -DE/DX =    0.0                 !
 ! R7    R(3,8)                  1.0925         -DE/DX =    0.0                 !
 ! R8    R(4,5)                  1.3256         -DE/DX =    0.0                 !
 ! R9    R(4,9)                  1.0821         -DE/DX =    0.0                 !
 ! R10   R(5,10)                 1.0786         -DE/DX =    0.0                 !
 ! A1    A(3,1,4)              113.5649         -DE/DX =    0.0                 !
 ! A2    A(5,2,11)             107.2822         -DE/DX =    0.0                 !
 ! A3    A(1,3,6)              107.2744         -DE/DX =    0.0                 !
 ! A4    A(1,3,7)              110.6436         -DE/DX =    0.0                 !
 ! A5    A(1,3,8)              110.9976         -DE/DX =    0.0                 !
 ! A6    A(6,3,7)              109.1795         -DE/DX =    0.0                 !
 ! A7    A(6,3,8)              109.6929         -DE/DX =    0.0                 !
 ! A8    A(7,3,8)              109.021          -DE/DX =    0.0                 !
 ! A9    A(1,4,5)              119.2639         -DE/DX =    0.0                 !
 ! A10   A(1,4,9)              117.6531         -DE/DX =    0.0                 !
 ! A11   A(5,4,9)              123.0307         -DE/DX =    0.0                 !
 ! A12   A(2,5,4)              123.8823         -DE/DX =    0.0                 !
 ! A13   A(2,5,10)             113.9126         -DE/DX =    0.0                 !
 ! A14   A(4,5,10)             122.194          -DE/DX =    0.0                 !
 ! D1    D(4,1,3,6)           -177.8936         -DE/DX =    0.0                 !
 ! D2    D(4,1,3,7)            -58.8934         -DE/DX =    0.0                 !
 ! D3    D(4,1,3,8)             62.2813         -DE/DX =    0.0                 !
 ! D4    D(3,1,4,5)           -140.5786         -DE/DX =    0.0                 !
 ! D5    D(3,1,4,9)             41.9715         -DE/DX =    0.0                 !
 ! D6    D(11,2,5,4)            -0.0559         -DE/DX =    0.0                 !
 ! D7    D(11,2,5,10)          178.752          -DE/DX =    0.0                 !
 ! D8    D(1,4,5,2)              2.1756         -DE/DX =    0.0                 !
 ! D9    D(1,4,5,10)          -176.5365         -DE/DX =    0.0                 !
 ! D10   D(9,4,5,2)            179.4813         -DE/DX =    0.0                 !
 ! D11   D(9,4,5,10)             0.7691         -DE/DX =    0.0                 !
 --------------------------------------------------------------------------------
 GradGradGradGradGradGradGradGradGradGradGradGradGradGradGradGradGradGrad

 Leave Link  103 at Sat Aug 31 13:05:51 2019, MaxMem=   671088640 cpu:             102.3 elap:              51.3
 (Enter /shared/centos7/gaussian/g16/l9999.exe)

 ----------------------------------------------------------------------

 Electric dipole moment (input orientation):
 (Debye = 10**-18 statcoulomb cm , SI units = C m)
                  (au)            (Debye)         (10**-30 SI)
   Tot        0.864541D+00      0.219744D+01      0.732988D+01
   x         -0.854330D+00     -0.217149D+01     -0.724331D+01
   y          0.212612D-01      0.540406D-01      0.180260D+00
   z          0.130763D+00      0.332366D+00      0.110865D+01

 Dipole polarizability, Alpha (input orientation).
 (esu units = cm**3 , SI units = C**2 m**2 J**-1)
 Alpha(0;0):
               (au)            (10**-24 esu)      (10**-40 SI)
   iso        0.445369D+02      0.659968D+01      0.734314D+01
   aniso      0.248252D+02      0.367871D+01      0.409312D+01
   xx         0.540293D+02      0.800631D+01      0.890823D+01
   yx         0.439016D+01      0.650554D+00      0.723839D+00
   yy         0.429547D+02      0.636522D+01      0.708227D+01
   zx        -0.103519D+02     -0.153399D+01     -0.170679D+01
   zy        -0.118519D+01     -0.175627D+00     -0.195411D+00
   zz         0.366267D+02      0.542751D+01      0.603892D+01

 ----------------------------------------------------------------------

 Dipole orientation:
     8          2.00828708         -1.25208729         -0.09270148
     8         -0.08063453         -0.37481860         -4.77863067
     6          1.41479412         -1.69839423          2.47320955
     6          1.47289709          1.16290527         -0.87642298
     6          0.50424444          1.52335689         -3.15829271
     1          1.97661785         -3.62624284          2.90262499
     1          2.45500439         -0.39923696          3.69824066
     1         -0.60854570         -1.47088898          2.81493461
     1          1.94421661          2.69792010          0.38956450
     1          0.14622305          3.38620994         -3.90426416
     1          0.34153576         -1.94349025         -3.95033893

 Electric dipole moment (dipole orientation):
 (Debye = 10**-18 statcoulomb cm , SI units = C m)
                  (au)            (Debye)         (10**-30 SI)
   Tot        0.864541D+00      0.219744D+01      0.732988D+01
   x          0.000000D+00      0.000000D+00      0.000000D+00
   y          0.000000D+00      0.000000D+00      0.000000D+00
   z          0.864541D+00      0.219744D+01      0.732988D+01

 Dipole polarizability, Alpha (dipole orientation).
 (esu units = cm**3 , SI units = C**2 m**2 J**-1)
 Alpha(0;0):
               (au)            (10**-24 esu)      (10**-40 SI)
   iso        0.445369D+02      0.659968D+01      0.734314D+01
   aniso      0.248252D+02      0.367871D+01      0.409312D+01
   xx         0.339038D+02      0.502403D+01      0.558999D+01
   yx        -0.490068D+00     -0.726206D-01     -0.808013D-01
   yy         0.432100D+02      0.640306D+01      0.712437D+01
   zx         0.715653D+01      0.106049D+01      0.117995D+01
   zy        -0.500430D+01     -0.741561D+00     -0.825098D+00
   zz         0.564968D+02      0.837195D+01      0.931506D+01

 ----------------------------------------------------------------------

 Test job not archived.
 1\1\GINC-C0181\Freq\RM062X\CC-pVTZ\C3H6O2\HARMS.N\31-Aug-2019\0\\#P Ge
 om=AllCheck Guess=TCheck SCRF=Check Test GenChk RM062X/CC-pVTZ Freq\\G
 aussian input prepared by ASE\\0,1\O,0.1957884514,-0.6410007427,1.0590
 628876\O,2.4882133174,-0.261330098,-0.4197631462\C,-1.198649358,-0.850
 2895339,0.9598893003\C,0.5895938883,0.6201071496,0.6849366449\C,1.7090
 734588,0.7702335812,-0.0089268135\H,-1.3996137497,-1.8580629589,1.3131
 407176\H,-1.7411931519,-0.1356042652,1.5849864961\H,-1.5373131549,-0.7
 48116836,-0.0737798745\H,-0.0174238278,1.4537154792,1.0127540109\H,2.0
 91216313,1.7417878926,-0.2800952811\H,2.0714613199,-1.0755042191,-0.11
 22890825\\Version=EM64L-G16RevA.03\State=1-A\HF=-268.3241864\RMSD=2.97
 6e-09\RMSF=8.949e-07\ZeroPoint=0.0911284\Thermal=0.0969967\Dipole=-0.8
 543303,0.0212612,0.1307627\DipoleDeriv=-1.1063397,-0.2647236,0.2055466
 ,-0.6724027,-0.8605361,0.3020783,0.2904218,0.1404757,-0.4408453,-0.790
 0844,0.2205026,0.236568,0.7206365,-0.6975434,-0.3759936,0.2340811,-0.1
 01075,-0.4427591,0.9783789,0.2168009,-0.0819638,0.0797749,0.3089931,0.
 027507,0.0139805,0.0313878,0.3605166,-0.0007506,0.2201118,-0.1892151,0
 .5707955,0.6232984,-0.2872514,-0.2876432,-0.2180484,-0.0043531,0.59133
 66,-0.304404,-0.3631649,-0.6689575,0.4780186,0.2988767,-0.3840455,0.15
 70961,0.1128062,0.0078067,-0.0190548,0.0102034,-0.0756881,-0.0872795,0
 .0589096,0.0216921,0.0585436,0.0540757,-0.0605796,-0.0111568,0.0373221
 ,0.1014696,-0.0405947,-0.0987573,0.0645699,-0.080695,-0.023674,-0.0474
 431,-0.0429849,0.0106503,0.0362462,0.0537642,0.0242877,-0.1192861,-0.0
 13361,-0.1237174,0.0624224,0.076434,0.064055,-0.0055679,-0.042005,-0.0
 009491,0.1102343,-0.0148652,0.0947966,0.0707022,-0.0310363,0.0447466,-
 0.0000153,-0.0306625,0.0096852,0.0409607,0.0137097,0.1282985,0.2945506
 ,-0.0604889,0.0252518,-0.0862912,0.2945468,0.0416069,0.0150346,0.02683
 17,0.2848552\Polar=54.0292889,4.390157,42.9546539,-10.3518546,-1.18518
 97,36.6266567\Quadrupole=-0.3218963,2.5613442,-2.239448,0.644219,-0.04
 80918,0.1132785\PG=C01 [X(C3H6O2)]\NImag=0\\0.45352557,0.11151195,0.40
 645504,-0.01980242,-0.09257696,0.11121931,-0.00187483,-0.00517953,-0.0
 0410063,0.32063898,0.00063057,0.01839862,-0.00386378,0.03302980,0.6339
 5806,-0.00325883,0.00144690,-0.00422334,-0.17710094,-0.06011099,0.1461
 7412,-0.24778866,-0.02992719,-0.01076272,0.00329513,-0.00476686,-0.001
 97873,0.48321060,0.00490231,-0.08538572,0.00561916,0.00048578,0.001601
 86,-0.00131763,-0.00518955,0.62136512,-0.02346163,0.00172277,-0.062147
 13,-0.00023768,0.00197671,-0.00109416,-0.00771661,-0.01857262,0.578181
 04,-0.10965165,-0.02912624,0.02196490,-0.02761016,0.01918985,0.0261415
 9,-0.02350758,-0.04834529,0.01496194,0.72876586,-0.06297747,-0.2739888
 5,0.06029657,0.05138271,-0.02351354,-0.02695976,-0.02101671,-0.0183723
 4,0.00401799,-0.03107494,0.62286961,0.03531086,0.06795809,-0.06700070,
 0.02151810,-0.00725337,0.00081244,0.00461571,0.00148928,-0.00413252,-0
 .35191480,-0.01570904,0.32431773,-0.01022855,-0.00665796,0.01377230,-0
 .17245037,0.12285058,0.06859517,-0.00060578,0.00140990,0.00134160,-0.4
 1949966,-0.06114092,0.22546094,0.69323998,-0.05129954,-0.03775029,0.03
 414650,0.07916944,-0.23988133,-0.03618625,0.00922884,-0.00546802,0.000
 89702,-0.03287219,-0.10306436,0.02062897,0.05597256,0.71066160,0.01850
 686,0.01110448,-0.00191059,0.07313108,-0.06209494,-0.08332233,-0.00165
 381,-0.00103045,0.00078606,0.21915959,0.03622939,-0.19120462,-0.347032
 09,-0.06538741,0.33616713,-0.01734492,-0.04036769,0.01193428,-0.000344
 33,0.00069499,-0.00003374,-0.05305294,-0.02912614,0.01050302,-0.006101
 66,0.00167412,-0.00012148,0.00031942,-0.00276106,-0.00007949,0.0696102
 4,-0.00411831,-0.00329042,0.00094211,-0.00041224,0.00059638,0.00030218
 ,-0.04236305,-0.29024986,0.08406533,-0.00128569,0.00194450,-0.00032439
 ,0.00030092,-0.00065975,-0.00048068,0.04925420,0.30947902,-0.00025823,
 -0.00363160,0.00180036,0.00013558,-0.00030486,-0.00012727,0.01509302,0
 .08640818,-0.08218759,-0.00017262,-0.00081395,0.00095363,-0.00050645,0
 .00011831,0.00053851,-0.01533783,-0.09220742,0.07974767,-0.03996030,0.
 01730218,0.01948958,-0.00013635,-0.00060641,0.00032076,-0.09889171,0.0
 7353688,0.06584692,0.00203096,0.00727100,-0.00102287,-0.00053040,-0.00
 072953,0.00027247,0.00415430,-0.00246941,-0.00365280,0.12574055,-0.002
 28508,0.00644929,0.00514511,0.00016217,-0.00030438,0.00031148,0.079291
 03,-0.16818564,-0.10016652,-0.00169258,0.00314823,0.00151412,-0.000123
 72,0.00034922,-0.00016072,0.01301776,-0.01758366,-0.01861828,-0.087277
 12,0.17297825,0.00014188,0.00492657,0.00715404,-0.00006062,0.00011213,
 0.00032336,0.06871030,-0.10050028,-0.14123975,-0.00018110,-0.00085027,
 0.00014670,-0.00010191,0.00034806,-0.00030471,-0.00608210,0.00760139,0
 .00737018,-0.07656272,0.10977060,0.14382722,-0.03154021,-0.00259416,-0
 .03531554,-0.00039701,0.00059903,0.00006272,-0.06564032,0.00578713,-0.
 06004980,0.00327986,0.00566758,-0.00245384,-0.00014632,-0.00111988,0.0
 0111261,0.00289993,0.00088075,0.00471285,0.00658474,-0.00196139,0.0137
 0718,0.08521347,-0.00544735,0.00212184,-0.00460116,0.00029243,-0.00087
 146,-0.00041799,0.00815609,-0.05730241,0.02591697,0.00113230,0.0017320
 0,-0.00239352,-0.00072169,0.00093671,0.00082450,0.00825046,-0.00045916
 ,0.02879173,-0.00548983,0.00286813,-0.02191995,-0.00651748,0.05109078,
 -0.00696118,-0.00073703,0.00519572,-0.00013176,0.00058398,0.00037597,-
 0.06625142,0.02429486,-0.28979123,0.00005031,0.00088263,0.00171567,0.0
 0006764,-0.00159033,-0.00037159,-0.00121657,-0.00004991,-0.00789983,-0
 .00406295,0.00300760,-0.01694026,0.07851167,-0.02601569,0.30842697,0.0
 0577511,-0.01064280,-0.00261842,0.00010939,-0.00262905,0.00621714,0.00
 368965,-0.00230127,-0.00160617,-0.14553566,0.12490923,0.06526446,-0.00
 800237,0.02301599,0.00389957,0.00008262,0.00017810,-0.00001524,0.00047
 964,0.00106433,0.00053889,-0.00031749,0.00003822,0.00007610,0.14482218
 ,0.00958062,-0.03344700,-0.00520790,-0.00211665,0.00170223,0.00196330,
 0.00555476,0.00127250,-0.00009538,0.12523944,-0.21509827,-0.06625992,-
 0.00290069,0.00699260,0.00137745,-0.00049789,0.00038401,0.00013008,-0.
 00129068,0.00036733,0.00056230,-0.00061433,-0.00023121,-0.00027752,-0.
 13243870,0.23836245,-0.00555805,0.01153028,0.00503559,0.00749307,0.000
 38503,0.00696271,-0.00140372,0.00044147,0.00093040,0.06701309,-0.06716
 498,-0.06484415,0.00424182,-0.01265560,-0.00338878,-0.00013133,0.00011
 094,-0.00021727,0.00001616,-0.00067299,-0.00020786,0.00011050,-0.00036
 413,-0.00039667,-0.06965329,0.06777993,0.06005973,-0.00195267,-0.00089
 078,0.00616700,0.00883167,0.02361273,-0.00570912,0.00118492,0.00027120
 ,0.00114228,-0.00072473,-0.02291937,0.00218465,-0.09457851,-0.10296290
 ,0.04104278,-0.00023580,0.00000794,-0.00005747,-0.00028749,-0.00010598
 ,0.00000318,-0.00003326,0.00010723,-0.00019330,-0.00128364,0.00033673,
 -0.00200800,0.09076609,0.00093491,0.00188306,-0.00049639,-0.00518864,-
 0.02762840,0.00459353,0.00010464,0.00017808,0.00013999,0.00033811,0.00
 098458,-0.00036715,-0.09785622,-0.28799888,0.07026482,0.00006455,0.000
 01472,-0.00001167,-0.00003405,-0.00000256,0.00000651,0.00002318,-0.000
 01348,0.00000371,-0.00051061,0.00020332,0.00007241,0.09877743,0.313718
 13,0.00686852,-0.00297690,0.00745025,-0.00448263,-0.01162690,0.0046852
 4,0.00056260,0.00197905,-0.00020733,0.00167419,0.01520608,-0.00115501,
 0.03950724,0.07210070,-0.06268916,0.00055996,0.00008403,-0.00000838,-0
 .00006168,-0.00013496,-0.00006052,0.00002157,0.00017833,-0.00015685,-0
 .00169034,-0.00038492,-0.00325518,-0.04471722,-0.07212433,0.05413718,0
 .00104112,-0.00342779,-0.00072833,-0.13006210,-0.19260523,0.08674399,-
 0.00189332,-0.00143095,-0.00072385,-0.00144558,0.00822476,0.00115828,0
 .01248257,0.02435827,-0.00835957,0.00001314,0.00002678,0.00005919,0.00
 081606,-0.00008943,-0.00011298,0.00009662,0.00019963,0.00011147,0.0001
 8057,-0.00085261,-0.00012024,-0.00168658,0.00334671,0.00175778,0.12045
 749,-0.00143261,-0.00144556,0.00059676,-0.15162525,-0.36405804,0.11637
 524,0.00092800,0.00054644,0.00009774,-0.00150276,0.00335843,0.00071692
 ,-0.01113276,-0.04411750,0.00935357,-0.00020330,-0.00017578,0.00013947
 ,-0.00021304,-0.00008420,-0.00005706,-0.00015044,0.00012826,-0.0001023
 0,-0.00068344,-0.00050798,0.00053763,0.00376575,-0.00133856,-0.0023001
 9,0.16224985,0.40769447,-0.00152778,0.00123340,-0.00257351,0.08383644,
 0.14219698,-0.07056674,0.00078537,0.00118899,0.00090221,0.00130291,-0.
 00513467,0.00039084,-0.00534626,-0.01241996,0.00570008,0.00000529,-0.0
 0004357,0.00003000,-0.00058287,0.00000455,-0.00006841,-0.00041990,0.00
 000090,-0.00015791,-0.00041270,0.00041258,-0.00067852,0.00214523,-0.00
 208142,0.00125977,-0.07978574,-0.12535778,0.06576219\\0.00000003,-0.00
 000071,-0.00000068,-0.00000075,0.00000011,-0.00000119,-0.00000026,0.00
 000015,-0.00000026,0.00000045,-0.00000029,0.00000082,0.00000027,-0.000
 00007,0.00000036,-0.00000045,-0.00000032,-0.00000150,0.00000054,-0.000
 00049,0.00000092,-0.00000057,0.00000171,0.00000001,0.00000095,-0.00000
 049,0.00000224,0.00000048,0.00000021,0.00000161,-0.00000069,0.00000021
 ,-0.00000232\\\@


 YOU KNOW YOU'VE SPOKEN TOO LONG WHEN THE AUDIENCE STOPS LOOKING AT
 THEIR WATCHES AND STARTS SHAKING THEM.
 Job cpu time:       0 days  0 hours 51 minutes 54.4 seconds.
 Elapsed time:       0 days  0 hours 25 minutes 58.0 seconds.
 File lengths (MBytes):  RWF=   1312 Int=      0 D2E=      0 Chk=     32 Scr=     32
 Normal termination of Gaussian 16 at Sat Aug 31 13:05:52 2019.
