 Entering Gaussian System, Link 0=g16
 Input=./species/COC=CO/conformers/COC=CO_25.com
 Output=./species/COC=CO/conformers/COC=CO_25.log
 Initial command:
 /shared/centos7/gaussian/g16/l1.exe "/scratch/harms.n/gauss_scrdir/Gau-10743.inp" -scrdir="/scratch/harms.n/gauss_scrdir/"
 Entering Link 1 = /shared/centos7/gaussian/g16/l1.exe PID=     10744.
  
 Copyright (c) 1988,1990,1992,1993,1995,1998,2003,2009,2016,
            Gaussian, Inc.  All Rights Reserved.
  
 This is part of the Gaussian(R) 16 program.  It is based on
 the Gaussian(R) 09 system (copyright 2009, Gaussian, Inc.),
 the Gaussian(R) 03 system (copyright 2003, Gaussian, Inc.),
 the Gaussian(R) 98 system (copyright 1998, Gaussian, Inc.),
 the Gaussian(R) 94 system (copyright 1995, Gaussian, Inc.),
 the Gaussian 92(TM) system (copyright 1992, Gaussian, Inc.),
 the Gaussian 90(TM) system (copyright 1990, Gaussian, Inc.),
 the Gaussian 88(TM) system (copyright 1988, Gaussian, Inc.),
 the Gaussian 86(TM) system (copyright 1986, Carnegie Mellon
 University), and the Gaussian 82(TM) system (copyright 1983,
 Carnegie Mellon University). Gaussian is a federally registered
 trademark of Gaussian, Inc.
  
 This software contains proprietary and confidential information,
 including trade secrets, belonging to Gaussian, Inc.
  
 This software is provided under written license and may be
 used, copied, transmitted, or stored only in accord with that
 written license.
  
 The following legend is applicable only to US Government
 contracts under FAR:
  
                    RESTRICTED RIGHTS LEGEND
  
 Use, reproduction and disclosure by the US Government is
 subject to restrictions as set forth in subparagraphs (a)
 and (c) of the Commercial Computer Software - Restricted
 Rights clause in FAR 52.227-19.
  
 Gaussian, Inc.
 340 Quinnipiac St., Bldg. 40, Wallingford CT 06492
  
  
 ---------------------------------------------------------------
 Warning -- This program may not be used in any manner that
 competes with the business of Gaussian, Inc. or will provide
 assistance to any competitor of Gaussian, Inc.  The licensee
 of this program is prohibited from giving any competitor of
 Gaussian, Inc. access to this program.  By using this program,
 the user acknowledges that Gaussian, Inc. is engaged in the
 business of creating and licensing software in the field of
 computational chemistry and represents and warrants to the
 licensee that it is not a competitor of Gaussian, Inc. and that
 it will not use this program in any manner prohibited above.
 ---------------------------------------------------------------
  

 Cite this work as:
 Gaussian 16, Revision A.03,
 M. J. Frisch, G. W. Trucks, H. B. Schlegel, G. E. Scuseria, 
 M. A. Robb, J. R. Cheeseman, G. Scalmani, V. Barone, 
 G. A. Petersson, H. Nakatsuji, X. Li, M. Caricato, A. V. Marenich, 
 J. Bloino, B. G. Janesko, R. Gomperts, B. Mennucci, H. P. Hratchian, 
 J. V. Ortiz, A. F. Izmaylov, J. L. Sonnenberg, D. Williams-Young, 
 F. Ding, F. Lipparini, F. Egidi, J. Goings, B. Peng, A. Petrone, 
 T. Henderson, D. Ranasinghe, V. G. Zakrzewski, J. Gao, N. Rega, 
 G. Zheng, W. Liang, M. Hada, M. Ehara, K. Toyota, R. Fukuda, 
 J. Hasegawa, M. Ishida, T. Nakajima, Y. Honda, O. Kitao, H. Nakai, 
 T. Vreven, K. Throssell, J. A. Montgomery, Jr., J. E. Peralta, 
 F. Ogliaro, M. J. Bearpark, J. J. Heyd, E. N. Brothers, K. N. Kudin, 
 V. N. Staroverov, T. A. Keith, R. Kobayashi, J. Normand, 
 K. Raghavachari, A. P. Rendell, J. C. Burant, S. S. Iyengar, 
 J. Tomasi, M. Cossi, J. M. Millam, M. Klene, C. Adamo, R. Cammi, 
 J. W. Ochterski, R. L. Martin, K. Morokuma, O. Farkas, 
 J. B. Foresman, and D. J. Fox, Gaussian, Inc., Wallingford CT, 2016.
 
 ******************************************
 Gaussian 16:  EM64L-G16RevA.03 25-Dec-2016
                31-Aug-2019 
 ******************************************
 %nprocshared=20
 Will use up to   20 processors via shared memory.
 %mem=5GB
 ----------------------------------------------------------------------
 #p m062x/cc-pVTZ opt=(calcfc,maxcycles=900,Tight) freq IOP(7/33=1,2/16
 =3) scf=(maxcycle=900)
 ----------------------------------------------------------------------
 1/6=900,7=10,10=4,18=20,19=15,26=3,38=1/1,3;
 2/9=110,12=2,16=3,17=6,18=5,40=1/2;
 3/5=16,6=1,11=2,25=1,30=1,71=2,74=-55,140=1/1,2,3;
 4//1;
 5/5=2,7=900,38=5/2;
 8/6=4,10=90,11=11/1;
 11/6=1,8=1,9=11,15=111,16=1/1,2,10;
 10/6=1,13=1/2;
 6/7=2,8=2,9=2,10=2,28=1/1;
 7/10=1,18=20,25=1,33=1/1,2,3,16;
 1/6=900,7=10,10=4,18=20,19=15,26=3/3(2);
 2/9=110,16=3/2;
 99//99;
 2/9=110,16=3/2;
 3/5=16,6=1,11=2,25=1,30=1,71=1,74=-55/1,2,3;
 4/5=5,16=3,69=1/1;
 5/5=2,7=900,38=5/2;
 7/33=1/1,2,3,16;
 1/6=900,7=10,18=20,19=15,26=3/3(-5);
 2/9=110,16=3/2;
 6/7=2,8=2,9=2,10=2,19=2,28=1/1;
 99/9=1/99;
 Leave Link    1 at Sat Aug 31 13:33:59 2019, MaxMem=   671088640 cpu:               4.4 elap:               2.2
 (Enter /shared/centos7/gaussian/g16/l101.exe)
 ------------------------------
 Gaussian input prepared by ASE
 ------------------------------
 Symbolic Z-matrix:
 Charge =  0 Multiplicity = 1
 O                     0.21293  -0.78051   1.10978 
 O                     0.14742   0.67072  -1.40792 
 C                    -1.17832  -0.91514   0.81035 
 C                     0.66725   0.51796   0.91703 
 C                     0.64649   1.16551  -0.22368 
 H                    -1.40002  -0.58229  -0.2444 
 H                    -1.45003  -2.00362   0.92024 
 H                    -1.78059  -0.3275    1.50349 
 H                     1.14859   0.94963   1.79248 
 H                     0.99385   2.1721   -0.31851 
 H                    -0.11594  -0.29503  -1.22907 
 
 ITRead=  0  0  0  0  0  0  0  0  0  0  0
 MicOpt= -1 -1 -1 -1 -1 -1 -1 -1 -1 -1 -1
 NAtoms=     11 NQM=       11 NQMF=       0 NMMI=      0 NMMIF=      0
                NMic=       0 NMicF=      0.
                    Isotopes and Nuclear Properties:
 (Nuclear quadrupole moments (NQMom) in fm**2, nuclear magnetic moments (NMagM)
  in nuclear magnetons)

  Atom         1           2           3           4           5           6           7           8           9          10
 IAtWgt=          16          16          12          12          12           1           1           1           1           1
 AtmWgt=  15.9949146  15.9949146  12.0000000  12.0000000  12.0000000   1.0078250   1.0078250   1.0078250   1.0078250   1.0078250
 NucSpn=           0           0           0           0           0           1           1           1           1           1
 AtZEff=  -0.0000000  -0.0000000  -0.0000000  -0.0000000  -0.0000000  -0.0000000  -0.0000000  -0.0000000  -0.0000000  -0.0000000
 NQMom=    0.0000000   0.0000000   0.0000000   0.0000000   0.0000000   0.0000000   0.0000000   0.0000000   0.0000000   0.0000000
 NMagM=    0.0000000   0.0000000   0.0000000   0.0000000   0.0000000   2.7928460   2.7928460   2.7928460   2.7928460   2.7928460
 AtZNuc=   8.0000000   8.0000000   6.0000000   6.0000000   6.0000000   1.0000000   1.0000000   1.0000000   1.0000000   1.0000000

  Atom        11
 IAtWgt=           1
 AtmWgt=   1.0078250
 NucSpn=           1
 AtZEff=  -0.0000000
 NQMom=    0.0000000
 NMagM=    2.7928460
 AtZNuc=   1.0000000
 Leave Link  101 at Sat Aug 31 13:34:00 2019, MaxMem=   671088640 cpu:               2.5 elap:               1.3
 (Enter /shared/centos7/gaussian/g16/l103.exe)

 GradGradGradGradGradGradGradGradGradGradGradGradGradGradGradGradGradGrad
 Berny optimization.
 Initialization pass.
                           ----------------------------
                           !    Initial Parameters    !
                           ! (Angstroms and Degrees)  !
 --------------------------                            --------------------------
 ! Name  Definition              Value          Derivative Info.                !
 --------------------------------------------------------------------------------
 ! R1    R(1,3)                  1.4295         calculate D2E/DX2 analytically  !
 ! R2    R(1,4)                  1.3891         calculate D2E/DX2 analytically  !
 ! R3    R(2,5)                  1.3771         calculate D2E/DX2 analytically  !
 ! R4    R(2,11)                 1.0169         calculate D2E/DX2 analytically  !
 ! R5    R(3,6)                  1.128          calculate D2E/DX2 analytically  !
 ! R6    R(3,7)                  1.1272         calculate D2E/DX2 analytically  !
 ! R7    R(3,8)                  1.0902         calculate D2E/DX2 analytically  !
 ! R8    R(4,5)                  1.3119         calculate D2E/DX2 analytically  !
 ! R9    R(4,9)                  1.0883         calculate D2E/DX2 analytically  !
 ! R10   R(5,10)                 1.0691         calculate D2E/DX2 analytically  !
 ! A1    A(3,1,4)              112.1659         calculate D2E/DX2 analytically  !
 ! A2    A(5,2,11)             106.4909         calculate D2E/DX2 analytically  !
 ! A3    A(1,3,6)              111.0604         calculate D2E/DX2 analytically  !
 ! A4    A(1,3,7)              107.7651         calculate D2E/DX2 analytically  !
 ! A5    A(1,3,8)              110.7161         calculate D2E/DX2 analytically  !
 ! A6    A(6,3,7)              109.1905         calculate D2E/DX2 analytically  !
 ! A7    A(6,3,8)              109.0788         calculate D2E/DX2 analytically  !
 ! A8    A(7,3,8)              108.9868         calculate D2E/DX2 analytically  !
 ! A9    A(1,4,5)              125.2319         calculate D2E/DX2 analytically  !
 ! A10   A(1,4,9)              113.816          calculate D2E/DX2 analytically  !
 ! A11   A(5,4,9)              120.7086         calculate D2E/DX2 analytically  !
 ! A12   A(2,5,4)              125.1804         calculate D2E/DX2 analytically  !
 ! A13   A(2,5,10)             112.3209         calculate D2E/DX2 analytically  !
 ! A14   A(4,5,10)             122.4632         calculate D2E/DX2 analytically  !
 ! D1    D(4,1,3,6)             56.5106         calculate D2E/DX2 analytically  !
 ! D2    D(4,1,3,7)            176.0651         calculate D2E/DX2 analytically  !
 ! D3    D(4,1,3,8)            -64.8289         calculate D2E/DX2 analytically  !
 ! D4    D(3,1,4,5)            -60.8297         calculate D2E/DX2 analytically  !
 ! D5    D(3,1,4,9)            124.8352         calculate D2E/DX2 analytically  !
 ! D6    D(11,2,5,4)            -4.6144         calculate D2E/DX2 analytically  !
 ! D7    D(11,2,5,10)          177.5155         calculate D2E/DX2 analytically  !
 ! D8    D(1,4,5,2)              1.307          calculate D2E/DX2 analytically  !
 ! D9    D(1,4,5,10)           178.9717         calculate D2E/DX2 analytically  !
 ! D10   D(9,4,5,2)            175.2779         calculate D2E/DX2 analytically  !
 ! D11   D(9,4,5,10)            -7.0574         calculate D2E/DX2 analytically  !
 --------------------------------------------------------------------------------
 Trust Radius=3.00D-01 FncErr=1.00D-07 GrdErr=1.00D-06 EigMax=2.50D+02 EigMin=1.00D-04
 Number of steps in this run=    100 maximum allowed number of steps=    100.
 GradGradGradGradGradGradGradGradGradGradGradGradGradGradGradGradGradGrad

 Leave Link  103 at Sat Aug 31 13:34:01 2019, MaxMem=   671088640 cpu:               1.4 elap:               0.7
 (Enter /shared/centos7/gaussian/g16/l202.exe)
                          Input orientation:                          
 ---------------------------------------------------------------------
 Center     Atomic      Atomic             Coordinates (Angstroms)
 Number     Number       Type             X           Y           Z
 ---------------------------------------------------------------------
      1          8           0        0.212934   -0.780509    1.109775
      2          8           0        0.147424    0.670718   -1.407916
      3          6           0       -1.178320   -0.915138    0.810351
      4          6           0        0.667250    0.517963    0.917030
      5          6           0        0.646494    1.165511   -0.223681
      6          1           0       -1.400018   -0.582286   -0.244395
      7          1           0       -1.450028   -2.003619    0.920243
      8          1           0       -1.780590   -0.327498    1.503488
      9          1           0        1.148585    0.949634    1.792475
     10          1           0        0.993847    2.172103   -0.318506
     11          1           0       -0.115937   -0.295031   -1.229072
 ---------------------------------------------------------------------
                    Distance matrix (angstroms):
                    1          2          3          4          5
     1  O    0.000000
     2  O    2.906737   0.000000
     3  C    1.429464   3.032036   0.000000
     4  C    1.389094   2.387242   2.339078   0.000000
     5  C    2.398557   1.377063   2.954364   1.311858   0.000000
     6  H    2.115344   2.306160   1.128020   2.614010   2.691362
     7  H    2.073008   3.888991   1.127250   3.292605   3.968293
     8  H    2.081914   3.631796   1.090179   2.655307   3.332105
     9  H    2.082047   3.364910   3.139496   1.088314   2.088920
    10  H    3.371606   2.038971   3.940011   2.090309   1.069052
    11  H    2.411235   1.016866   2.381688   2.424891   1.930102
                    6          7          8          9         10
     6  H    0.000000
     7  H    1.838225   0.000000
     8  H    1.806889   1.805223   0.000000
     9  H    3.604303   4.029303   3.208527   0.000000
    10  H    3.650032   4.994364   4.155137   2.444302   0.000000
    11  H    1.643462   3.052643   3.199845   3.503992   2.854383
                   11
    11  H    0.000000
 Stoichiometry    C3H6O2
 Framework group  C1[X(C3H6O2)]
 Deg. of freedom    27
 Full point group                 C1      NOp   1
 Largest Abelian subgroup         C1      NOp   1
 Largest concise Abelian subgroup C1      NOp   1
                         Standard orientation:                         
 ---------------------------------------------------------------------
 Center     Atomic      Atomic             Coordinates (Angstroms)
 Number     Number       Type             X           Y           Z
 ---------------------------------------------------------------------
      1          8           0        1.061640    0.473119   -0.472661
      2          8           0       -1.469768   -0.917073   -0.143330
      3          6           0        1.518468   -0.644848    0.292079
      4          6           0       -0.099019    1.027648    0.051697
      5          6           0       -1.242957    0.400132    0.188078
      6          1           0        0.717259   -1.434673    0.373753
      7          1           0        2.414735   -1.079410   -0.235701
      8          1           0        1.813896   -0.332024    1.293755
      9          1           0       -0.019899    2.091786    0.265654
     10          1           0       -2.106048    0.866279    0.613113
     11          1           0       -0.613873   -1.257917   -0.573776
 ---------------------------------------------------------------------
 Rotational constants (GHZ):           9.3085067           4.1490187           3.1554494
 Leave Link  202 at Sat Aug 31 13:34:03 2019, MaxMem=   671088640 cpu:               4.1 elap:               2.0
 (Enter /shared/centos7/gaussian/g16/l301.exe)
 Standard basis: CC-pVTZ (5D, 7F)
 Ernie: Thresh=  0.10000D-02 Tol=  0.10000D-05 Strict=F.
 Ernie:  15 primitive shells out of 178 were deleted.
 There are   265 symmetry adapted cartesian basis functions of A   symmetry.
 There are   234 symmetry adapted basis functions of A   symmetry.
   234 basis functions,   362 primitive gaussians,   265 cartesian basis functions
    20 alpha electrons       20 beta electrons
       nuclear repulsion energy       180.3733208079 Hartrees.
 IExCor= 4336 DFT=T Ex+Corr=M062X ExCW=0 ScaHFX=  0.540000
 ScaDFX=  1.000000  1.000000  1.000000  1.000000 ScalE2=  1.000000  1.000000
 IRadAn=      5 IRanWt=     -1 IRanGd=            0 ICorTp=0 IEmpDi=  4
 NAtoms=   11 NActive=   11 NUniq=   11 SFac= 1.00D+00 NAtFMM=   60 NAOKFM=F Big=F
 Integral buffers will be    131072 words long.
 Raffenetti 2 integral format.
 Two-electron integral symmetry is turned on.
 Leave Link  301 at Sat Aug 31 13:34:04 2019, MaxMem=   671088640 cpu:               1.6 elap:               0.8
 (Enter /shared/centos7/gaussian/g16/l302.exe)
 NPDir=0 NMtPBC=     1 NCelOv=     1 NCel=       1 NClECP=     1 NCelD=      1
         NCelK=      1 NCelE2=     1 NClLst=     1 CellRange=     0.0.
 One-electron integrals computed using PRISM.
 One-electron integral symmetry used in STVInt
 NBasis=   234 RedAO= T EigKep=  3.58D-04  NBF=   234
 NBsUse=   234 1.00D-06 EigRej= -1.00D+00 NBFU=   234
 Precomputing XC quadrature grid using
 IXCGrd= 4 IRadAn=           5 IRanWt=          -1 IRanGd=           0 AccXCQ= 0.00D+00.
 Generated NRdTot=       0 NPtTot=           0 NUsed=           0 NTot=          32
 NSgBfM=   265   265   265   265   265 MxSgAt=    11 MxSgA2=    11.
 Leave Link  302 at Sat Aug 31 13:34:55 2019, MaxMem=   671088640 cpu:             101.4 elap:              50.7
 (Enter /shared/centos7/gaussian/g16/l303.exe)
 DipDrv:  MaxL=1.
 Leave Link  303 at Sat Aug 31 13:34:59 2019, MaxMem=   671088640 cpu:               7.5 elap:               3.8
 (Enter /shared/centos7/gaussian/g16/l401.exe)
 ExpMin= 1.03D-01 ExpMax= 1.53D+04 ExpMxC= 5.22D+02 IAcc=3 IRadAn=         5 AccDes= 0.00D+00
 Harris functional with IExCor= 1009 and IRadAn=       5 diagonalized for initial guess.
 HarFok:  IExCor= 1009 AccDes= 0.00D+00 IRadAn=         5 IDoV= 1 UseB2=F ITyADJ=14
 ICtDFT=  3500011 ScaDFX=  1.000000  1.000000  1.000000  1.000000
 FoFCou: FMM=F IPFlag=           0 FMFlag=      100000 FMFlg1=           0
         NFxFlg=           0 DoJE=T BraDBF=F KetDBF=T FulRan=T
         wScrn=  0.000000 ICntrl=       500 IOpCl=  0 I1Cent=   200000004 NGrid=           0
         NMat0=    1 NMatS0=      1 NMatT0=    0 NMatD0=    1 NMtDS0=    0 NMtDT0=    0
 Petite list used in FoFCou.
 Harris En= -268.191918576260    
 JPrj=0 DoOrth=F DoCkMO=F.
 Leave Link  401 at Sat Aug 31 13:35:22 2019, MaxMem=   671088640 cpu:              46.5 elap:              23.3
 (Enter /shared/centos7/gaussian/g16/l502.exe)
 Keep R1 ints in memory in canonical form, NReq=399924305.
 FoFCou: FMM=F IPFlag=           0 FMFlag=           0 FMFlg1=           0
         NFxFlg=           0 DoJE=F BraDBF=F KetDBF=F FulRan=T
         wScrn=  0.000000 ICntrl=       600 IOpCl=  0 I1Cent=           0 NGrid=           0
         NMat0=    1 NMatS0=  27495 NMatT0=    0 NMatD0=    1 NMtDS0=    0 NMtDT0=    0
 Symmetry not used in FoFCou.
 Two-electron integral symmetry not used.
 Closed shell SCF:
 Using DIIS extrapolation, IDIIS=  1040.
 NGot=   671088640 LenX=   292939207 LenY=   292868541
 Requested convergence on RMS density matrix=1.00D-08 within 900 cycles.
 Requested convergence on MAX density matrix=1.00D-06.
 Requested convergence on             energy=1.00D-06.
 No special actions if energy rises.
 Integral accuracy reduced to 1.0D-05 until final iterations.

 Cycle   1  Pass 0  IDiag  1:
 E= -268.191189966325    
 DIIS: error= 1.47D-02 at cycle   1 NSaved=   1.
 NSaved= 1 IEnMin= 1 EnMin= -268.191189966325     IErMin= 1 ErrMin= 1.47D-02
 ErrMax= 1.47D-02  0.00D+00 EMaxC= 1.00D-01 BMatC= 1.67D-01 BMatP= 1.67D-01
 IDIUse=3 WtCom= 8.53D-01 WtEn= 1.47D-01
 Coeff-Com:  0.100D+01
 Coeff-En:   0.100D+01
 Coeff:      0.100D+01
 Gap=     0.364 Goal=   None    Shift=    0.000
 GapD=    0.364 DampG=1.000 DampE=0.500 DampFc=0.5000 IDamp=-1.
 Damping current iteration by 5.00D-01
 RMSDP=2.07D-03 MaxDP=7.07D-02              OVMax= 1.14D-01

 Cycle   2  Pass 0  IDiag  1:
 E= -268.253661930517     Delta-E=       -0.062471964192 Rises=F Damp=T
 DIIS: error= 5.71D-03 at cycle   2 NSaved=   2.
 NSaved= 2 IEnMin= 2 EnMin= -268.253661930517     IErMin= 2 ErrMin= 5.71D-03
 ErrMax= 5.71D-03  0.00D+00 EMaxC= 1.00D-01 BMatC= 1.64D-02 BMatP= 1.67D-01
 IDIUse=3 WtCom= 9.43D-01 WtEn= 5.71D-02
 Coeff-Com: -0.198D+00 0.120D+01
 Coeff-En:   0.000D+00 0.100D+01
 Coeff:     -0.187D+00 0.119D+01
 Gap=     0.348 Goal=   None    Shift=    0.000
 RMSDP=4.24D-04 MaxDP=9.41D-03 DE=-6.25D-02 OVMax= 4.85D-02

 Cycle   3  Pass 0  IDiag  1:
 E= -268.307382978361     Delta-E=       -0.053721047844 Rises=F Damp=F
 DIIS: error= 2.53D-03 at cycle   3 NSaved=   3.
 NSaved= 3 IEnMin= 3 EnMin= -268.307382978361     IErMin= 3 ErrMin= 2.53D-03
 ErrMax= 2.53D-03  0.00D+00 EMaxC= 1.00D-01 BMatC= 3.47D-03 BMatP= 1.64D-02
 IDIUse=3 WtCom= 9.75D-01 WtEn= 2.53D-02
 Coeff-Com: -0.122D+00 0.396D+00 0.726D+00
 Coeff-En:   0.000D+00 0.000D+00 0.100D+01
 Coeff:     -0.119D+00 0.386D+00 0.733D+00
 Gap=     0.346 Goal=   None    Shift=    0.000
 RMSDP=1.89D-04 MaxDP=5.26D-03 DE=-5.37D-02 OVMax= 1.26D-02

 Cycle   4  Pass 0  IDiag  1:
 E= -268.309092155720     Delta-E=       -0.001709177359 Rises=F Damp=F
 DIIS: error= 1.32D-03 at cycle   4 NSaved=   4.
 NSaved= 4 IEnMin= 4 EnMin= -268.309092155720     IErMin= 4 ErrMin= 1.32D-03
 ErrMax= 1.32D-03  0.00D+00 EMaxC= 1.00D-01 BMatC= 7.68D-04 BMatP= 3.47D-03
 IDIUse=3 WtCom= 9.87D-01 WtEn= 1.32D-02
 Coeff-Com: -0.379D-01 0.949D-01 0.366D+00 0.577D+00
 Coeff-En:   0.000D+00 0.000D+00 0.162D+00 0.838D+00
 Coeff:     -0.374D-01 0.936D-01 0.364D+00 0.580D+00
 Gap=     0.342 Goal=   None    Shift=    0.000
 RMSDP=6.54D-05 MaxDP=1.77D-03 DE=-1.71D-03 OVMax= 6.15D-03

 Cycle   5  Pass 0  IDiag  1:
 E= -268.309651133972     Delta-E=       -0.000558978252 Rises=F Damp=F
 DIIS: error= 2.03D-04 at cycle   5 NSaved=   5.
 NSaved= 5 IEnMin= 5 EnMin= -268.309651133972     IErMin= 5 ErrMin= 2.03D-04
 ErrMax= 2.03D-04  0.00D+00 EMaxC= 1.00D-01 BMatC= 1.97D-05 BMatP= 7.68D-04
 IDIUse=3 WtCom= 9.98D-01 WtEn= 2.03D-03
 Coeff-Com: -0.709D-02 0.136D-01 0.947D-01 0.221D+00 0.678D+00
 Coeff-En:   0.000D+00 0.000D+00 0.000D+00 0.000D+00 0.100D+01
 Coeff:     -0.708D-02 0.136D-01 0.945D-01 0.220D+00 0.679D+00
 Gap=     0.342 Goal=   None    Shift=    0.000
 RMSDP=1.36D-05 MaxDP=3.50D-04 DE=-5.59D-04 OVMax= 1.34D-03

 Cycle   6  Pass 0  IDiag  1:
 E= -268.309666515347     Delta-E=       -0.000015381375 Rises=F Damp=F
 DIIS: error= 4.13D-05 at cycle   6 NSaved=   6.
 NSaved= 6 IEnMin= 6 EnMin= -268.309666515347     IErMin= 6 ErrMin= 4.13D-05
 ErrMax= 4.13D-05  0.00D+00 EMaxC= 1.00D-01 BMatC= 9.27D-07 BMatP= 1.97D-05
 IDIUse=1 WtCom= 1.00D+00 WtEn= 0.00D+00
 Coeff-Com: -0.947D-03 0.106D-02 0.192D-01 0.612D-01 0.234D+00 0.686D+00
 Coeff:     -0.947D-03 0.106D-02 0.192D-01 0.612D-01 0.234D+00 0.686D+00
 Gap=     0.342 Goal=   None    Shift=    0.000
 RMSDP=4.11D-06 MaxDP=1.22D-04 DE=-1.54D-05 OVMax= 5.54D-04

 Initial convergence to 1.0D-05 achieved.  Increase integral accuracy.
 Cycle   7  Pass 1  IDiag  1:
 E= -268.309691209131     Delta-E=       -0.000024693785 Rises=F Damp=F
 DIIS: error= 2.67D-05 at cycle   1 NSaved=   1.
 NSaved= 1 IEnMin= 1 EnMin= -268.309691209131     IErMin= 1 ErrMin= 2.67D-05
 ErrMax= 2.67D-05  0.00D+00 EMaxC= 1.00D-01 BMatC= 4.40D-07 BMatP= 4.40D-07
 IDIUse=1 WtCom= 1.00D+00 WtEn= 0.00D+00
 Coeff-Com:  0.100D+01
 Coeff:      0.100D+01
 Gap=     0.343 Goal=   None    Shift=    0.000
 RMSDP=4.11D-06 MaxDP=1.22D-04 DE=-2.47D-05 OVMax= 4.72D-04

 Cycle   8  Pass 1  IDiag  1:
 E= -268.309691158726     Delta-E=        0.000000050406 Rises=F Damp=F
 DIIS: error= 3.05D-05 at cycle   2 NSaved=   2.
 NSaved= 2 IEnMin= 1 EnMin= -268.309691209131     IErMin= 1 ErrMin= 2.67D-05
 ErrMax= 3.05D-05  0.00D+00 EMaxC= 1.00D-01 BMatC= 4.86D-07 BMatP= 4.40D-07
 IDIUse=1 WtCom= 1.00D+00 WtEn= 0.00D+00
 Coeff-Com:  0.515D+00 0.485D+00
 Coeff:      0.515D+00 0.485D+00
 Gap=     0.343 Goal=   None    Shift=    0.000
 RMSDP=2.33D-06 MaxDP=7.12D-05 DE= 5.04D-08 OVMax= 3.23D-04

 Cycle   9  Pass 1  IDiag  1:
 E= -268.309691559415     Delta-E=       -0.000000400689 Rises=F Damp=F
 DIIS: error= 5.84D-06 at cycle   3 NSaved=   3.
 NSaved= 3 IEnMin= 3 EnMin= -268.309691559415     IErMin= 3 ErrMin= 5.84D-06
 ErrMax= 5.84D-06  0.00D+00 EMaxC= 1.00D-01 BMatC= 1.87D-08 BMatP= 4.40D-07
 IDIUse=1 WtCom= 1.00D+00 WtEn= 0.00D+00
 Coeff-Com: -0.295D-01 0.144D+00 0.885D+00
 Coeff:     -0.295D-01 0.144D+00 0.885D+00
 Gap=     0.343 Goal=   None    Shift=    0.000
 RMSDP=4.97D-07 MaxDP=1.24D-05 DE=-4.01D-07 OVMax= 4.54D-05

 Cycle  10  Pass 1  IDiag  1:
 E= -268.309691575146     Delta-E=       -0.000000015731 Rises=F Damp=F
 DIIS: error= 1.47D-06 at cycle   4 NSaved=   4.
 NSaved= 4 IEnMin= 4 EnMin= -268.309691575146     IErMin= 4 ErrMin= 1.47D-06
 ErrMax= 1.47D-06  0.00D+00 EMaxC= 1.00D-01 BMatC= 1.07D-09 BMatP= 1.87D-08
 IDIUse=1 WtCom= 1.00D+00 WtEn= 0.00D+00
 Coeff-Com: -0.227D-01 0.538D-01 0.377D+00 0.591D+00
 Coeff:     -0.227D-01 0.538D-01 0.377D+00 0.591D+00
 Gap=     0.343 Goal=   None    Shift=    0.000
 RMSDP=9.58D-08 MaxDP=3.24D-06 DE=-1.57D-08 OVMax= 9.30D-06

 Cycle  11  Pass 1  IDiag  1:
 E= -268.309691576012     Delta-E=       -0.000000000866 Rises=F Damp=F
 DIIS: error= 3.60D-07 at cycle   5 NSaved=   5.
 NSaved= 5 IEnMin= 5 EnMin= -268.309691576012     IErMin= 5 ErrMin= 3.60D-07
 ErrMax= 3.60D-07  0.00D+00 EMaxC= 1.00D-01 BMatC= 8.50D-11 BMatP= 1.07D-09
 IDIUse=1 WtCom= 1.00D+00 WtEn= 0.00D+00
 Coeff-Com:  0.718D-04-0.142D-01-0.772D-01 0.140D+00 0.951D+00
 Coeff:      0.718D-04-0.142D-01-0.772D-01 0.140D+00 0.951D+00
 Gap=     0.343 Goal=   None    Shift=    0.000
 RMSDP=5.85D-08 MaxDP=1.08D-06 DE=-8.66D-10 OVMax= 6.22D-06

 Cycle  12  Pass 1  IDiag  1:
 E= -268.309691576133     Delta-E=       -0.000000000121 Rises=F Damp=F
 DIIS: error= 1.50D-07 at cycle   6 NSaved=   6.
 NSaved= 6 IEnMin= 6 EnMin= -268.309691576133     IErMin= 6 ErrMin= 1.50D-07
 ErrMax= 1.50D-07  0.00D+00 EMaxC= 1.00D-01 BMatC= 8.54D-12 BMatP= 8.50D-11
 IDIUse=1 WtCom= 1.00D+00 WtEn= 0.00D+00
 Coeff-Com:  0.177D-02-0.890D-02-0.559D-01 0.844D-03 0.332D+00 0.730D+00
 Coeff:      0.177D-02-0.890D-02-0.559D-01 0.844D-03 0.332D+00 0.730D+00
 Gap=     0.343 Goal=   None    Shift=    0.000
 RMSDP=1.55D-08 MaxDP=3.71D-07 DE=-1.21D-10 OVMax= 1.68D-06

 Cycle  13  Pass 1  IDiag  1:
 E= -268.309691576140     Delta-E=       -0.000000000006 Rises=F Damp=F
 DIIS: error= 4.25D-08 at cycle   7 NSaved=   7.
 NSaved= 7 IEnMin= 7 EnMin= -268.309691576140     IErMin= 7 ErrMin= 4.25D-08
 ErrMax= 4.25D-08  0.00D+00 EMaxC= 1.00D-01 BMatC= 1.10D-12 BMatP= 8.54D-12
 IDIUse=1 WtCom= 1.00D+00 WtEn= 0.00D+00
 Coeff-Com:  0.728D-03-0.228D-02-0.160D-01-0.149D-01 0.436D-01 0.287D+00
 Coeff-Com:  0.702D+00
 Coeff:      0.728D-03-0.228D-02-0.160D-01-0.149D-01 0.436D-01 0.287D+00
 Coeff:      0.702D+00
 Gap=     0.343 Goal=   None    Shift=    0.000
 RMSDP=5.15D-09 MaxDP=1.66D-07 DE=-6.20D-12 OVMax= 5.20D-07

 SCF Done:  E(RM062X) =  -268.309691576     A.U. after   13 cycles
            NFock= 13  Conv=0.51D-08     -V/T= 2.0060
 KE= 2.667005675945D+02 PE=-9.888856843972D+02 EE= 2.735021044187D+02
 Leave Link  502 at Sat Aug 31 13:39:52 2019, MaxMem=   671088640 cpu:             533.4 elap:             270.4
 (Enter /shared/centos7/gaussian/g16/l801.exe)
 DoSCS=F DFT=T ScalE2(SS,OS)=  1.000000  1.000000
 Range of M.O.s used for correlation:     1   234
 NBasis=   234 NAE=    20 NBE=    20 NFC=     0 NFV=     0
 NROrb=    234 NOA=    20 NOB=    20 NVA=   214 NVB=   214

 **** Warning!!: The largest alpha MO coefficient is  0.11460016D+02

 Leave Link  801 at Sat Aug 31 13:39:53 2019, MaxMem=   671088640 cpu:               1.6 elap:               0.8
 (Enter /shared/centos7/gaussian/g16/l1101.exe)
 Using compressed storage, NAtomX=    11.
 Will process     12 centers per pass.
 Leave Link 1101 at Sat Aug 31 13:40:14 2019, MaxMem=   671088640 cpu:              41.1 elap:              20.6
 (Enter /shared/centos7/gaussian/g16/l1102.exe)
 Symmetrizing basis deriv contribution to polar:
 IMax=3 JMax=2 DiffMx= 0.00D+00
 Leave Link 1102 at Sat Aug 31 13:40:16 2019, MaxMem=   671088640 cpu:               5.0 elap:               2.5
 (Enter /shared/centos7/gaussian/g16/l1110.exe)
 Forming Gx(P) for the SCF density, NAtomX=    11.
 Integral derivatives from FoFJK, PRISM(SPDF).
 Do as many integral derivatives as possible in FoFJK.
 G2DrvN: MDV=     671087712.
 G2DrvN: will do    12 centers at a time, making    1 passes.
 Calling FoFCou, ICntrl=  3107 FMM=F I1Cent=   0 AccDes= 0.00D+00.
 FoFJK:  IHMeth= 1 ICntrl=    3107 DoSepK=F KAlg= 0 I1Cent=           0 FoldK=F
 IRaf=         0 NMat=       1 IRICut=       1 DoRegI=T DoRafI=F ISym2E= 0 IDoP0=0 IntGTp=1.
 FoFCou: FMM=F IPFlag=           0 FMFlag=      100000 FMFlg1=           0
         NFxFlg=           0 DoJE=F BraDBF=F KetDBF=F FulRan=T
         wScrn=  0.000000 ICntrl=      3107 IOpCl=  0 I1Cent=           0 NGrid=           0
         NMat0=    1 NMatS0=      1 NMatT0=    0 NMatD0=    1 NMtDS0=    0 NMtDT0=    0
 Symmetry not used in FoFCou.
 End of G2Drv F.D. properties file   721 does not exist.
 End of G2Drv F.D. properties file   722 does not exist.
 End of G2Drv F.D. properties file   788 does not exist.
 Leave Link 1110 at Sat Aug 31 13:45:44 2019, MaxMem=   671088640 cpu:             655.7 elap:             327.9
 (Enter /shared/centos7/gaussian/g16/l1002.exe)
 Minotr:  Closed shell wavefunction.
          IDoAtm=11111111111
          Direct CPHF calculation.
          Differentiating once with respect to nuclear coordinates.
          Requested convergence is 1.0D-08 RMS, and 1.0D-07 maximum.
          Secondary convergence is 1.0D-12 RMS, and 1.0D-12 maximum.
          NewPWx=T KeepS1=F KeepF1=F KeepIn=T MapXYZ=F SortEE=F KeepMc=T.
         3265 words used for storage of precomputed grid.
 Keep R1 ints in memory in canonical form, NReq=399865264.
 FoFCou: FMM=F IPFlag=           0 FMFlag=           0 FMFlg1=           0
         NFxFlg=           0 DoJE=F BraDBF=F KetDBF=F FulRan=T
         wScrn=  0.000000 ICntrl=       600 IOpCl=  0 I1Cent=           0 NGrid=           0
         NMat0=    1 NMatS0=  27495 NMatT0=    0 NMatD0=    1 NMtDS0=    0 NMtDT0=    0
 Symmetry not used in FoFCou.
 Two-electron integral symmetry not used.
          MDV=     671088640 using IRadAn=       1.
          Solving linear equations simultaneously, MaxMat=       0.
          There are    36 degrees of freedom in the 1st order CPHF.  IDoFFX=6 NUNeed=     0.
     30 vectors produced by pass  0 Test12= 1.19D-14 2.78D-09 XBig12= 5.75D-02 6.43D-02.
 AX will form    30 AO Fock derivatives at one time.
     30 vectors produced by pass  1 Test12= 1.19D-14 2.78D-09 XBig12= 1.17D-02 2.45D-02.
     30 vectors produced by pass  2 Test12= 1.19D-14 2.78D-09 XBig12= 4.01D-04 4.39D-03.
     30 vectors produced by pass  3 Test12= 1.19D-14 2.78D-09 XBig12= 4.58D-06 2.79D-04.
     30 vectors produced by pass  4 Test12= 1.19D-14 2.78D-09 XBig12= 3.27D-08 2.40D-05.
     30 vectors produced by pass  5 Test12= 1.19D-14 2.78D-09 XBig12= 1.82D-10 1.42D-06.
     19 vectors produced by pass  6 Test12= 1.19D-14 2.78D-09 XBig12= 9.42D-13 1.40D-07.
      3 vectors produced by pass  7 Test12= 1.19D-14 2.78D-09 XBig12= 3.55D-15 8.67D-09.
 InvSVY:  IOpt=1 It=  1 EMax= 1.11D-15
 Solved reduced A of dimension   202 with    30 vectors.
 End of Minotr F.D. properties file   721 does not exist.
 End of Minotr F.D. properties file   722 does not exist.
 End of Minotr F.D. properties file   788 does not exist.
 Leave Link 1002 at Sat Aug 31 13:53:52 2019, MaxMem=   671088640 cpu:             975.1 elap:             487.7
 (Enter /shared/centos7/gaussian/g16/l601.exe)
 Copying SCF densities to generalized density rwf, IOpCl= 0 IROHF=0.

 **********************************************************************

            Population analysis using the SCF density.

 **********************************************************************

 Orbital symmetries:
       Occupied  (A) (A) (A) (A) (A) (A) (A) (A) (A) (A) (A) (A)
                 (A) (A) (A) (A) (A) (A) (A) (A)
       Virtual   (A) (A) (A) (A) (A) (A) (A) (A) (A) (A) (A) (A)
                 (A) (A) (A) (A) (A) (A) (A) (A) (A) (A) (A) (A)
                 (A) (A) (A) (A) (A) (A) (A) (A) (A) (A) (A) (A)
                 (A) (A) (A) (A) (A) (A) (A) (A) (A) (A) (A) (A)
                 (A) (A) (A) (A) (A) (A) (A) (A) (A) (A) (A) (A)
                 (A) (A) (A) (A) (A) (A) (A) (A) (A) (A) (A) (A)
                 (A) (A) (A) (A) (A) (A) (A) (A) (A) (A) (A) (A)
                 (A) (A) (A) (A) (A) (A) (A) (A) (A) (A) (A) (A)
                 (A) (A) (A) (A) (A) (A) (A) (A) (A) (A) (A) (A)
                 (A) (A) (A) (A) (A) (A) (A) (A) (A) (A) (A) (A)
                 (A) (A) (A) (A) (A) (A) (A) (A) (A) (A) (A) (A)
                 (A) (A) (A) (A) (A) (A) (A) (A) (A) (A) (A) (A)
                 (A) (A) (A) (A) (A) (A) (A) (A) (A) (A) (A) (A)
                 (A) (A) (A) (A) (A) (A) (A) (A) (A) (A) (A) (A)
                 (A) (A) (A) (A) (A) (A) (A) (A) (A) (A) (A) (A)
                 (A) (A) (A) (A) (A) (A) (A) (A) (A) (A) (A) (A)
                 (A) (A) (A) (A) (A) (A) (A) (A) (A) (A) (A) (A)
                 (A) (A) (A) (A) (A) (A) (A) (A) (A) (A)
 The electronic state is 1-A.
 Alpha  occ. eigenvalues --  -19.65668 -19.65120 -10.60211 -10.59054 -10.57938
 Alpha  occ. eigenvalues --   -1.18776  -1.16075  -0.86034  -0.78534  -0.68745
 Alpha  occ. eigenvalues --   -0.60822  -0.58565  -0.53919  -0.52102  -0.49112
 Alpha  occ. eigenvalues --   -0.46871  -0.46148  -0.42205  -0.36608  -0.28733
 Alpha virt. eigenvalues --    0.05521   0.07207   0.09387   0.11187   0.12961
 Alpha virt. eigenvalues --    0.13569   0.13884   0.17649   0.20786   0.26719
 Alpha virt. eigenvalues --    0.27998   0.30510   0.32653   0.34974   0.35538
 Alpha virt. eigenvalues --    0.38016   0.39462   0.40785   0.42544   0.44955
 Alpha virt. eigenvalues --    0.46455   0.46646   0.48629   0.49800   0.51630
 Alpha virt. eigenvalues --    0.54563   0.56811   0.58957   0.60192   0.63313
 Alpha virt. eigenvalues --    0.65245   0.68849   0.70601   0.73654   0.77735
 Alpha virt. eigenvalues --    0.79829   0.80353   0.82996   0.85089   0.86458
 Alpha virt. eigenvalues --    0.88448   0.93627   0.96922   0.99074   1.03418
 Alpha virt. eigenvalues --    1.06223   1.06699   1.08787   1.10449   1.13515
 Alpha virt. eigenvalues --    1.13833   1.15093   1.18814   1.22994   1.26254
 Alpha virt. eigenvalues --    1.27324   1.28513   1.30631   1.32919   1.34577
 Alpha virt. eigenvalues --    1.36259   1.38741   1.41669   1.44776   1.50937
 Alpha virt. eigenvalues --    1.52440   1.53989   1.55760   1.62938   1.82938
 Alpha virt. eigenvalues --    1.90713   1.93245   1.96138   1.99095   2.04573
 Alpha virt. eigenvalues --    2.05512   2.09142   2.11432   2.14227   2.16797
 Alpha virt. eigenvalues --    2.21462   2.23307   2.27313   2.31901   2.34993
 Alpha virt. eigenvalues --    2.37866   2.41069   2.49542   2.53442   2.56785
 Alpha virt. eigenvalues --    2.62113   2.65502   2.69185   2.75419   2.76394
 Alpha virt. eigenvalues --    2.77481   2.80304   2.81957   2.84532   2.87075
 Alpha virt. eigenvalues --    2.89119   2.90670   2.93904   2.96641   2.99095
 Alpha virt. eigenvalues --    3.02227   3.02452   3.06153   3.07171   3.08689
 Alpha virt. eigenvalues --    3.10627   3.14857   3.16411   3.18723   3.20512
 Alpha virt. eigenvalues --    3.23371   3.25663   3.27353   3.29752   3.30912
 Alpha virt. eigenvalues --    3.33663   3.35038   3.36099   3.39640   3.42513
 Alpha virt. eigenvalues --    3.44373   3.47976   3.49291   3.50665   3.57109
 Alpha virt. eigenvalues --    3.62986   3.63652   3.65725   3.68402   3.70628
 Alpha virt. eigenvalues --    3.73310   3.75675   3.76360   3.78813   3.80348
 Alpha virt. eigenvalues --    3.83048   3.88600   3.90989   3.92723   3.95597
 Alpha virt. eigenvalues --    3.98775   3.99699   4.02486   4.07825   4.08265
 Alpha virt. eigenvalues --    4.10574   4.11476   4.21023   4.22271   4.29047
 Alpha virt. eigenvalues --    4.33067   4.36738   4.40165   4.41465   4.48689
 Alpha virt. eigenvalues --    4.50624   4.57094   4.62456   4.64991   4.70211
 Alpha virt. eigenvalues --    4.72332   4.76394   4.80669   4.82993   4.87159
 Alpha virt. eigenvalues --    4.88617   4.97179   4.97793   5.00760   5.03723
 Alpha virt. eigenvalues --    5.04548   5.06119   5.16455   5.17766   5.30056
 Alpha virt. eigenvalues --    5.35886   5.44061   5.49616   5.50939   5.58403
 Alpha virt. eigenvalues --    5.68955   5.72343   5.73784   5.80909   5.85011
 Alpha virt. eigenvalues --    5.96527   6.14283   6.19714   6.30445   6.32784
 Alpha virt. eigenvalues --    6.33888   6.50866   6.59647   6.71567   6.71871
 Alpha virt. eigenvalues --    6.73208   6.77848   6.82146   6.96255   7.03399
 Alpha virt. eigenvalues --    7.13200   7.19963   7.26840   7.30954   9.95883
 Alpha virt. eigenvalues --   10.71268  11.88286  12.83717  14.00828
          Condensed to atoms (all electrons):
               1          2          3          4          5          6
     1  O    7.865578   0.001528   0.303085   0.337720  -0.075618  -0.049956
     2  O    0.001528   7.786354  -0.010422  -0.073845   0.341424   0.006564
     3  C    0.303085  -0.010422   4.743488  -0.063424  -0.012227   0.375673
     4  C    0.337720  -0.073845  -0.063424   5.026278   0.506791  -0.050854
     5  C   -0.075618   0.341424  -0.012227   0.506791   4.969109   0.029743
     6  H   -0.049956   0.006564   0.375673  -0.050854   0.029743   0.771009
     7  H   -0.027701   0.000130   0.397381   0.005697   0.000003  -0.039863
     8  H   -0.047072   0.000012   0.401617   0.015139  -0.006019  -0.076649
     9  H   -0.046477   0.005031   0.004075   0.420255  -0.083768  -0.003494
    10  H    0.003843  -0.033686  -0.000510  -0.055518   0.402865  -0.000964
    11  H    0.014117   0.332935   0.001161  -0.002376  -0.060968  -0.024681
               7          8          9         10         11
     1  O   -0.027701  -0.047072  -0.046477   0.003843   0.014117
     2  O    0.000130   0.000012   0.005031  -0.033686   0.332935
     3  C    0.397381   0.401617   0.004075  -0.000510   0.001161
     4  C    0.005697   0.015139   0.420255  -0.055518  -0.002376
     5  C    0.000003  -0.006019  -0.083768   0.402865  -0.060968
     6  H   -0.039863  -0.076649  -0.003494  -0.000964  -0.024681
     7  H    0.580519  -0.029460  -0.000428   0.000057   0.000387
     8  H   -0.029460   0.624191   0.005120  -0.000002   0.003511
     9  H   -0.000428   0.005120   0.571927  -0.004185   0.001433
    10  H    0.000057  -0.000002  -0.004185   0.520820   0.006799
    11  H    0.000387   0.003511   0.001433   0.006799   0.452873
 Mulliken charges:
               1
     1  O   -0.279046
     2  O   -0.356025
     3  C   -0.139898
     4  C   -0.065862
     5  C   -0.011335
     6  H    0.063472
     7  H    0.113278
     8  H    0.109613
     9  H    0.130511
    10  H    0.160483
    11  H    0.274808
 Sum of Mulliken charges =  -0.00000
 Mulliken charges with hydrogens summed into heavy atoms:
               1
     1  O   -0.279046
     2  O   -0.081216
     3  C    0.146466
     4  C    0.064649
     5  C    0.149148
 APT charges:
               1
     1  O   -0.193742
     2  O   -0.315546
     3  C   -0.863840
     4  C   -0.462715
     5  C   -0.370277
     6  H    0.174973
     7  H    0.464893
     8  H    0.335502
     9  H    0.427318
    10  H    0.491096
    11  H    0.312338
 Sum of APT charges =  -0.00000
 APT charges with hydrogens summed into heavy atoms:
               1
     1  O   -0.193742
     2  O   -0.003208
     3  C    0.111528
     4  C   -0.035397
     5  C    0.120818
 Electronic spatial extent (au):  <R**2>=            416.5536
 Charge=             -0.0000 electrons
 Dipole moment (field-independent basis, Debye):
    X=              0.8949    Y=             -0.3427    Z=              0.8326  Tot=              1.2694
 Quadrupole moment (field-independent basis, Debye-Ang):
   XX=            -31.1281   YY=            -28.5895   ZZ=            -31.7732
   XY=             -4.4678   XZ=              0.3961   YZ=              2.0120
 Traceless Quadrupole moment (field-independent basis, Debye-Ang):
   XX=             -0.6312   YY=              1.9074   ZZ=             -1.2763
   XY=             -4.4678   XZ=              0.3961   YZ=              2.0120
 Octapole moment (field-independent basis, Debye-Ang**2):
  XXX=              3.1453  YYY=             -0.3310  ZZZ=             -2.5228  XYY=              1.6656
  XXY=              1.6768  XXZ=              3.7313  XZZ=             -0.0272  YZZ=             -2.5675
  YYZ=             -1.2688  XYZ=             -0.4365
 Hexadecapole moment (field-independent basis, Debye-Ang**3):
 XXXX=           -305.7074 YYYY=           -145.9108 ZZZZ=            -54.8944 XXXY=            -13.4907
 XXXZ=             -7.8723 YYYX=              5.3699 YYYZ=              5.1703 ZZZX=              0.8645
 ZZZY=              0.6986 XXYY=            -83.0624 XXZZ=            -61.2449 YYZZ=            -35.8632
 XXYZ=              3.7302 YYXZ=             -1.0610 ZZXY=              1.8817
 N-N= 1.803733208079D+02 E-N=-9.888856750569D+02  KE= 2.667005675945D+02
  Exact polarizability:   0.000   0.000   0.000   0.000   0.000   0.000
 Approx polarizability:  62.009   4.401  53.033  -2.725   1.411  40.999
 No NMR shielding tensors so no spin-rotation constants.
 Leave Link  601 at Sat Aug 31 13:54:21 2019, MaxMem=   671088640 cpu:              57.9 elap:              29.0
 (Enter /shared/centos7/gaussian/g16/l701.exe)
 SCFChk:  SCF convergence  5.15D-09 required  1.00D-08
 ... and contract with generalized density number  0.
 Compute integral second derivatives.
 Entering OneElI...
 Calculate overlap and kinetic energy integrals
    NBasis = 265  MinDer = 2  MaxDer = 2
 Requested accuracy = 0.1000D-12
 PrmmSu-InSpLW:  IPartL=    0 NPrtUS=   20 NPrtUL=    1 DoSpLW=F IThBeg=    0 IThEnd=   19 NThAct=   20.
 PrsmSu:  NPrtUS=  20 ThrOK=T IAlg=1 NPAlg=1 LenDen=           0 ISkipM=0 DoSpLW=F IThBeg=    0 IThEnd=   19.
 Prism:   IPart=     0 DynPar=F LinDyn=F Incr=           1.
 PRISM was handed    33437830 working-precision words and  3740 shell-pairs
 PRISM was handed    33437830 working-precision words and  3740 shell-pairs
 PRISM was handed    33437830 working-precision words and  3740 shell-pairs
 PRISM was handed    33437830 working-precision words and  3740 shell-pairs
 PRISM was handed    33437830 working-precision words and  3740 shell-pairs
 PRISM was handed    33437830 working-precision words and  3740 shell-pairs
 PRISM was handed    33437830 working-precision words and  3740 shell-pairs
 PRISM was handed    33437830 working-precision words and  3740 shell-pairs
 PRISM was handed    33437830 working-precision words and  3740 shell-pairs
 PRISM was handed    33437830 working-precision words and  3740 shell-pairs
 PRISM was handed    33437830 working-precision words and  3740 shell-pairs
 PRISM was handed    33437830 working-precision words and  3740 shell-pairs
 PRISM was handed    33437830 working-precision words and  3740 shell-pairs
 IPart=  4 NShTot=         206 NBatch=          47 AvBLen=         4.4
 IPart= 14 NShTot=         173 NBatch=          27 AvBLen=         6.4
 IPart=  3 NShTot=         208 NBatch=          49 AvBLen=         4.2
 IPart=  0 NShTot=         226 NBatch=          67 AvBLen=         3.4
 IPart= 16 NShTot=         168 NBatch=          26 AvBLen=         6.5
 IPart= 12 NShTot=         175 NBatch=          28 AvBLen=         6.3
 PRISM was handed    33437830 working-precision words and  3740 shell-pairs
 PRISM was handed    33437830 working-precision words and  3740 shell-pairs
 IPart= 10 NShTot=         179 NBatch=          29 AvBLen=         6.2
 PRISM was handed    33437830 working-precision words and  3740 shell-pairs
 PRISM was handed    33437830 working-precision words and  3740 shell-pairs
 IPart= 19 NShTot=         166 NBatch=          25 AvBLen=         6.6
 IPart=  7 NShTot=         191 NBatch=          36 AvBLen=         5.3
 IPart=  5 NShTot=         197 NBatch=          41 AvBLen=         4.8
 PRISM was handed    33437830 working-precision words and  3740 shell-pairs
 IPart=  6 NShTot=         193 NBatch=          38 AvBLen=         5.1
 PRISM was handed    33437830 working-precision words and  3740 shell-pairs
 PRISM was handed    33437830 working-precision words and  3740 shell-pairs
 IPart=  8 NShTot=         185 NBatch=          30 AvBLen=         6.2
 IPart= 15 NShTot=         169 NBatch=          26 AvBLen=         6.5
 IPart= 18 NShTot=         167 NBatch=          25 AvBLen=         6.7
 IPart=  9 NShTot=         184 NBatch=          29 AvBLen=         6.3
 IPart= 13 NShTot=         174 NBatch=          28 AvBLen=         6.2
 IPart= 17 NShTot=         168 NBatch=          26 AvBLen=         6.5
 IPart=  2 NShTot=         212 NBatch=          53 AvBLen=         4.0
 IPart= 11 NShTot=         178 NBatch=          28 AvBLen=         6.4
 IPart=  1 NShTot=         221 NBatch=          62 AvBLen=         3.6
 PrSmSu:  NxtVal=             21.
 Entering OneElI...
 Calculate potential energy integrals
    NBasis = 265  MinDer = 2  MaxDer = 2
 Requested accuracy = 0.1000D-12
 PrmmSu-InSpLW:  IPartL=    0 NPrtUS=   20 NPrtUL=    1 DoSpLW=F IThBeg=    0 IThEnd=   19 NThAct=   20.
 PrsmSu:  NPrtUS=  20 ThrOK=T IAlg=1 NPAlg=1 LenDen=           0 ISkipM=0 DoSpLW=F IThBeg=    0 IThEnd=   19.
 Prism:   IPart=     0 DynPar=F LinDyn=F Incr=          19.
 PRISM was handed    33453897 working-precision words and  3614 shell-pairs
 PRISM was handed    33453897 working-precision words and  3614 shell-pairs
 PRISM was handed    33453897 working-precision words and  3614 shell-pairs
 PRISM was handed    33453897 working-precision words and  3614 shell-pairs
 PRISM was handed    33453897 working-precision words and  3614 shell-pairs
 PRISM was handed    33453897 working-precision words and  3614 shell-pairs
 PRISM was handed    33453897 working-precision words and  3614 shell-pairs
 PRISM was handed    33453897 working-precision words and  3614 shell-pairs
 PRISM was handed    33453897 working-precision words and  3614 shell-pairs
 PRISM was handed    33453897 working-precision words and  3614 shell-pairs
 PRISM was handed    33453897 working-precision words and  3614 shell-pairs
 PRISM was handed    33453897 working-precision words and  3614 shell-pairs
 PRISM was handed    33453897 working-precision words and  3614 shell-pairs
 PRISM was handed    33453897 working-precision words and  3614 shell-pairs
 PRISM was handed    33453897 working-precision words and  3614 shell-pairs
 PRISM was handed    33453897 working-precision words and  3614 shell-pairs
 PRISM was handed    33453897 working-precision words and  3614 shell-pairs
 PRISM was handed    33453897 working-precision words and  3614 shell-pairs
 PRISM was handed    33453897 working-precision words and  3614 shell-pairs
 PRISM was handed    33453897 working-precision words and  3614 shell-pairs
 IPart=  0 NShTot=        2453 NBatch=         223 AvBLen=        11.0
 IPart=  3 NShTot=        2211 NBatch=         201 AvBLen=        11.0
 IPart= 16 NShTot=        1826 NBatch=         166 AvBLen=        11.0
 IPart=  4 NShTot=        2156 NBatch=         196 AvBLen=        11.0
 IPart= 12 NShTot=        1859 NBatch=         169 AvBLen=        11.0
 IPart=  6 NShTot=        2024 NBatch=         184 AvBLen=        11.0
 IPart= 19 NShTot=        1771 NBatch=         161 AvBLen=        11.0
 IPart=  7 NShTot=        1991 NBatch=         181 AvBLen=        11.0
 IPart=  5 NShTot=        2046 NBatch=         186 AvBLen=        11.0
 IPart=  8 NShTot=        1947 NBatch=         177 AvBLen=        11.0
 IPart=  9 NShTot=        1925 NBatch=         175 AvBLen=        11.0
 IPart=  1 NShTot=        2387 NBatch=         217 AvBLen=        11.0
 IPart= 14 NShTot=        1848 NBatch=         168 AvBLen=        11.0
 IPart= 10 NShTot=        1881 NBatch=         171 AvBLen=        11.0
 IPart= 13 NShTot=        1859 NBatch=         169 AvBLen=        11.0
 IPart= 18 NShTot=        1782 NBatch=         162 AvBLen=        11.0
 IPart=  2 NShTot=        2288 NBatch=         208 AvBLen=        11.0
 IPart= 17 NShTot=        1804 NBatch=         164 AvBLen=        11.0
 IPart= 15 NShTot=        1837 NBatch=         167 AvBLen=        11.0
 IPart= 11 NShTot=        1859 NBatch=         169 AvBLen=        11.0
 PrSmSu:  NxtVal=            381.
 Polarizability after L701:
                1             2             3 
      1  0.000000D+00
      2  0.000000D+00  0.000000D+00
      3  0.000000D+00  0.000000D+00  0.000000D+00
 Dipole Derivatives after L701:
                 1             2             3             4             5 
      1  -0.178519D+00  0.620710D-01 -0.928599D-01  0.713438D-01  0.240961D+00
      2   0.135940D+00 -0.242193D+00 -0.544766D-01  0.638650D+00 -0.465840D+00
      3  -0.141548D+00 -0.915030D-02 -0.160513D+00  0.283052D+00 -0.165363D+00
                 6             7             8             9            10 
      1  -0.362292D-01 -0.984719D+00  0.360935D+00 -0.221458D+00 -0.480516D+00
      2  -0.246343D+00  0.555770D-01 -0.822719D+00  0.158465D-01  0.663266D-01
      3  -0.552142D+00 -0.734525D-01  0.146234D-01 -0.784082D+00  0.214088D+00
                11            12            13            14            15 
      1  -0.165926D+00  0.228710D+00 -0.652462D+00  0.136254D+00  0.252763D+00
      2  -0.756474D+00 -0.321375D+00 -0.703411D-01 -0.502613D+00  0.811706D-02
      3  -0.267907D+00 -0.151155D+00  0.171920D+00 -0.549995D-01  0.442422D-01
                16            17            18            19            20 
      1  -0.168873D-01 -0.131967D+00  0.769718D-01  0.903624D+00 -0.432127D+00
      2   0.326312D+00  0.387276D+00 -0.192458D-01 -0.341156D+00  0.305768D+00
      3  -0.154491D-01 -0.686004D-01  0.154530D+00 -0.107399D+00  0.229037D-01
                21            22            23            24            25 
      1  -0.465099D+00  0.284084D+00  0.154452D+00  0.598216D+00  0.177947D+00
      2   0.175735D+00 -0.902705D-02  0.155354D+00 -0.726419D-01  0.405390D-01
      3   0.185285D+00  0.160342D+00  0.127457D+00  0.567068D+00 -0.359437D-02
                26            27            28            29            30 
      1   0.197258D-01 -0.828880D-02  0.911786D+00 -0.387266D+00 -0.409213D+00
      2   0.102289D+01  0.141065D+00 -0.284464D+00  0.340258D+00  0.178459D+00
      3   0.143402D+00  0.811194D-01 -0.225416D+00  0.136529D+00  0.221243D+00
                31            32            33 
      1  -0.356833D-01  0.142887D+00  0.764869D-01
      2  -0.558358D+00  0.578294D+00  0.194860D+00
      3  -0.262543D+00  0.121106D+00  0.394404D+00
 Hessian after L701:
                1             2             3             4             5 
      1  0.646757D+01
      2  0.427096D+01  0.905990D+01
      3  0.153489D+01  0.173644D+01  0.124259D+02
      4  0.601409D+00  0.575386D+00 -0.161969D+00  0.836489D+01
      5  0.498565D+00 -0.125434D+00 -0.692400D-01 -0.567038D+00  0.502791D+01
      6 -0.203037D+00 -0.106475D+00 -0.404286D+00  0.144304D+01 -0.287973D+01
      7 -0.628584D+01 -0.250799D+01  0.130899D+01  0.448677D+00  0.216280D-01
      8 -0.231533D+01 -0.224646D+01 -0.336979D+01  0.163743D+00 -0.247221D+00
      9  0.120802D+01 -0.329805D+01 -0.512494D+01  0.111006D+00 -0.669263D-02
     10 -0.192081D+01 -0.336532D+01 -0.274542D+01  0.280933D+00  0.266826D+00
     11 -0.359068D+01 -0.661709D+01  0.111112D+01  0.180014D+00 -0.771988D-01
     12 -0.260639D+01  0.103758D+01 -0.699666D+01  0.184365D+00 -0.104862D+00
     13  0.593586D+00  0.361297D+00  0.215616D+00 -0.790692D+01  0.117889D+01
     14  0.457293D+00 -0.113363D+00 -0.135763D+00  0.146972D+01  0.235930D+00
     15  0.149390D+00 -0.803605D-01  0.612492D-02  0.219773D+00  0.221544D+01
     16  0.284191D+00  0.277410D+00 -0.552783D-01  0.423567D-01  0.305269D-01
     17  0.207215D+00  0.101747D+00  0.379291D+00 -0.400247D-01 -0.965788D-01
     18 -0.786145D-02  0.307499D+00 -0.120650D+00 -0.502535D-01  0.114353D-01
     19  0.149244D+00 -0.435476D-01 -0.908827D-01  0.767298D-01 -0.389934D-02
     20 -0.248828D-01 -0.648626D-01  0.981003D-01 -0.224612D-01 -0.163379D-01
     21 -0.124502D+00  0.138268D+00 -0.220044D-02 -0.162773D-01  0.991303D-04
     22  0.102990D+00  0.138305D+00  0.174949D-01  0.500562D-01  0.126725D-01
     23  0.105083D+00 -0.108659D+00  0.257586D+00  0.106528D-01 -0.189009D-01
     24  0.377896D-01  0.258867D+00  0.231445D+00  0.666047D-01  0.867268D-02
     25 -0.102726D+00  0.223738D+00  0.652141D-01 -0.149376D-01  0.647350D-01
     26  0.237747D+00  0.778739D-01  0.108878D-01  0.106613D+00  0.146918D+00
     27  0.744423D-01 -0.146431D-01  0.123583D+00  0.219349D-01  0.275496D-01
     28  0.142186D+00 -0.305669D-01 -0.592095D-01  0.138748D+00 -0.395194D-02
     29 -0.491850D-01 -0.347346D-01  0.133662D-01  0.271787D-01 -0.190487D+00
     30 -0.728875D-01  0.867838D-02 -0.962899D-02 -0.159424D-01 -0.770194D-01
     31 -0.318023D-01  0.100335D+00 -0.294441D-01 -0.208194D+01 -0.149895D+01
     32  0.203220D+00  0.710826D-01 -0.319959D-01 -0.190378D+01 -0.463859D+01
     33  0.101451D-01  0.122002D-01 -0.128705D+00 -0.180229D+01  0.874343D+00
                6             7             8             9            10 
      6  0.131760D+02
      7  0.846557D-01  0.133756D+02
      8  0.707421D-03  0.207057D+01  0.108593D+02
      9 -0.242607D+00 -0.130374D+01  0.273202D+01  0.139327D+02
     10  0.236833D+00  0.106157D+00 -0.342415D+00  0.136018D+00  0.789448D+01
     11 -0.537840D-01 -0.275594D+00  0.209558D+00 -0.692630D-01 -0.388931D+00
     12  0.163654D+00  0.111683D+00 -0.377412D-01 -0.967514D-01  0.414393D+01
     13  0.113016D+00  0.230191D+00 -0.148761D+00  0.279171D-01 -0.249290D+01
     14  0.214423D+01 -0.141540D+00 -0.145963D+00 -0.436042D-02  0.373597D+01
     15 -0.768256D+01  0.531431D-01  0.951887D-02 -0.157925D+00 -0.199176D+01
     16 -0.869030D-01 -0.254794D+01  0.124099D+01 -0.172425D+00  0.682505D-01
     17  0.271798D-01  0.155747D+01 -0.203476D+01 -0.225156D+00  0.102506D+00
     18 -0.139198D+00 -0.256975D+00 -0.266288D+00 -0.364000D+01  0.326815D-02
     19 -0.104356D-01 -0.190879D+01 -0.807992D+00 -0.797221D+00  0.769030D-01
     20  0.125931D-02 -0.828790D+00 -0.291194D+01  0.457163D+00 -0.914655D-01
     21 -0.163471D-01 -0.721113D+00  0.399295D+00 -0.297071D+01 -0.277901D-01
     22  0.356299D-01 -0.342437D+01  0.209131D+00  0.765637D+00  0.735380D-01
     23  0.574028D-02  0.144938D+00 -0.355765D+01  0.388806D+00 -0.551984D-01
     24  0.165648D-02  0.659543D+00  0.508746D+00 -0.161843D+01  0.112923D+00
     25  0.177231D-01 -0.157989D-01 -0.515918D-01  0.251025D-02 -0.380951D+01
     26  0.315319D-01 -0.711059D-01  0.118977D+00  0.376094D-02  0.111684D+00
     27 -0.344754D-01 -0.313988D-02  0.561258D-02 -0.464146D-01  0.757505D-02
     28 -0.201546D-01  0.256030D-01 -0.130743D-01 -0.751570D-02 -0.272273D+00
     29 -0.996477D-01 -0.200612D-01 -0.620317D-02  0.545929D-02 -0.402910D-01
     30  0.300543D-01 -0.801973D-02  0.195018D-02 -0.105062D-01  0.892927D-01
     31 -0.161037D+01 -0.352028D-02 -0.527169D-02  0.297954D-01 -0.476525D-02
     32  0.928984D+00  0.504782D-01 -0.376553D-01  0.163133D-01  0.666362D-01
     33 -0.485186D+01  0.749790D-01  0.159742D-01 -0.243915D-01  0.351231D-01
               11            12            13            14            15 
     11  0.147444D+02
     12 -0.174206D+01  0.220972D+02
     13  0.412090D+01 -0.199153D+01  0.116489D+02
     14 -0.691746D+01  0.368187D+00 -0.417532D+01  0.103167D+02
     15  0.249075D+00 -0.116397D+02  0.238713D+01 -0.263449D+01  0.226476D+02
     16  0.128531D+00  0.159243D-01  0.364151D-01 -0.208187D+00  0.906356D-01
     17 -0.127958D+00 -0.595824D-01 -0.264001D+00  0.134468D+00 -0.916385D-01
     18 -0.914924D-02  0.120724D+00  0.849344D-01 -0.761908D-01 -0.106967D+00
     19 -0.918701D-01 -0.280532D-01  0.353840D-01 -0.128510D-01 -0.112820D-01
     20  0.321507D-01  0.225839D-01 -0.228130D-01 -0.109895D-01  0.395693D-02
     21  0.229609D-01 -0.342834D-01 -0.155480D-01  0.363033D-02 -0.809924D-02
     22 -0.716318D-01  0.755525D-01 -0.131999D-01  0.102856D-01 -0.319548D-01
     23 -0.599690D-01 -0.162565D-01  0.152014D-01 -0.925460D-02  0.114799D-01
     24 -0.488775D-01 -0.174353D-01 -0.166201D-01  0.119271D-01 -0.197915D-01
     25  0.732835D-01 -0.142864D-02  0.550267D-01 -0.317316D+00 -0.646410D-01
     26 -0.125180D+01  0.497861D+00 -0.373090D+00 -0.230999D+00 -0.759069D-01
     27  0.504275D+00 -0.372802D+01 -0.765402D-01 -0.663920D-01  0.230989D+00
     28 -0.660030D-01  0.860610D-01 -0.230418D+01 -0.807081D+00 -0.790153D+00
     29  0.180193D+00  0.273685D-01 -0.839741D+00 -0.334799D+01  0.431645D+00
     30  0.290931D-01  0.122633D+00 -0.778831D+00  0.412062D+00 -0.338507D+01
     31 -0.180185D-01  0.988557D-02  0.117701D+00 -0.109634D-01 -0.102852D-01
     32 -0.114872D+00  0.692774D-02  0.147447D+00  0.889362D-01 -0.387216D-01
     33  0.661053D-02  0.869247D-02  0.504568D-01 -0.228423D-01  0.115454D+00
               16            17            18            19            20 
     16  0.231643D+01
     17 -0.122367D+01  0.192012D+01
     18  0.327977D+00  0.186610D+00  0.370649D+01
     19 -0.194951D+00 -0.882192D-01  0.123771D+00  0.168781D+01
     20 -0.652251D-01  0.119003D+00  0.295901D-01  0.101660D+01  0.281831D+01
     21  0.965291D-01  0.320452D-01  0.802101D-01  0.726437D+00 -0.506319D+00
     22  0.184276D-02 -0.279800D+00 -0.212392D+00  0.724433D-01  0.396032D-01
     23 -0.206719D+00  0.205330D-02 -0.189063D+00  0.349565D-01  0.355391D-01
     24 -0.213044D+00 -0.252662D+00  0.750992D-01  0.851390D-01 -0.107581D+00
     25  0.401409D-02  0.971387D-02 -0.891900D-03 -0.114133D-02  0.191886D-02
     26  0.171242D-01 -0.347547D-01  0.290051D-02 -0.618994D-02  0.307212D-02
     27  0.583461D-03 -0.871897D-03  0.619568D-02 -0.100989D-02  0.770477D-04
     28 -0.905302D-02  0.108105D-02 -0.191821D-03  0.844808D-02 -0.478830D-02
     29  0.714283D-02 -0.429645D-03  0.917531D-04 -0.474046D-02  0.171852D-02
     30  0.251668D-02  0.181702D-02  0.393184D-03 -0.330693D-02  0.162143D-02
     31 -0.155858D-02  0.177315D-01 -0.113853D-01 -0.208642D-02  0.230765D-02
     32  0.207710D-02  0.170927D-01  0.256429D-02  0.775611D-02 -0.567270D-02
     33 -0.651617D-02  0.296764D-02  0.176959D-01  0.684391D-02 -0.452292D-03
               21            22            23            24            25 
     21  0.306972D+01
     22  0.844985D-01  0.310638D+01
     23 -0.941820D-01 -0.253981D-01  0.369293D+01
     24 -0.114137D+00 -0.771466D+00 -0.357709D+00  0.146111D+01
     25 -0.138512D-02  0.106155D-01 -0.298606D-01  0.171765D-01  0.390431D+01
     26  0.416517D-02 -0.450117D-01  0.313076D-01 -0.341951D-01  0.389805D-01
     27 -0.163029D-03  0.124332D-01 -0.144412D-01 -0.783920D-02 -0.376993D-01
     28 -0.338555D-02  0.731546D-02 -0.518857D-03  0.678239D-02 -0.230387D-01
     29  0.152605D-02 -0.377267D-02 -0.910973D-03 -0.334537D-02 -0.183666D-01
     30  0.438663D-03 -0.766143D-03 -0.190995D-03 -0.312959D-02  0.172428D-02
     31  0.253615D-02  0.123902D-01  0.686270D-02  0.151712D-01 -0.681280D-02
     32 -0.148860D-02  0.156159D-01 -0.648149D-02  0.161566D-01  0.476475D-02
     33 -0.443093D-02  0.253327D-01  0.823071D-02  0.114520D-01  0.169773D-02
               26            27            28            29            30 
     26  0.111665D+01
     27 -0.453752D+00  0.345895D+01
     28 -0.104668D-01  0.203739D-02  0.226192D+01
     29 -0.704605D-02  0.438853D-02  0.998098D+00  0.336297D+01
     30 -0.320315D-03  0.731893D-03  0.820843D+00 -0.419956D+00  0.325150D+01
     31 -0.628375D-02 -0.617022D-03  0.243277D-01 -0.562624D-01 -0.346229D-01
     32  0.297948D-01  0.819701D-02 -0.627280D-01  0.429134D-01  0.422647D-01
     33  0.130660D-01 -0.353538D-02 -0.351139D-01  0.391034D-01  0.258373D-02
               31            32            33 
     31  0.197807D+01
     32  0.146851D+01  0.455346D+01
     33  0.163934D+01 -0.949201D+00  0.485705D+01
 Leave Link  701 at Sat Aug 31 13:54:40 2019, MaxMem=   671088640 cpu:              38.3 elap:              19.2
 (Enter /shared/centos7/gaussian/g16/l702.exe)
 L702 exits ... SP integral derivatives will be done elsewhere.
 Leave Link  702 at Sat Aug 31 13:54:41 2019, MaxMem=   671088640 cpu:               1.5 elap:               0.8
 (Enter /shared/centos7/gaussian/g16/l703.exe)
 Integral derivatives from FoFJK, PRISM(SPDF).
 Compute integral second derivatives, UseDBF=F ICtDFT=           0.
 ICntrl=    100147.
 Calling FoFJK, ICntrl=    100147 FMM=F ISym2X=0 I1Cent= 0 IOpClX= 0 NMat=1 NMatS=1 NMatT=0.
 FoFJK:  IHMeth= 1 ICntrl=  100147 DoSepK=F KAlg= 0 I1Cent=           0 FoldK=F
 IRaf=         0 NMat=       1 IRICut=       1 DoRegI=T DoRafI=F ISym2E= 0 IDoP0=0 IntGTp=1.
 FoFCou: FMM=F IPFlag=           0 FMFlag=      100000 FMFlg1=         800
         NFxFlg=           0 DoJE=F BraDBF=F KetDBF=F FulRan=T
         wScrn=  0.000000 ICntrl=    100147 IOpCl=  0 I1Cent=           0 NGrid=           0
         NMat0=    1 NMatS0=      1 NMatT0=    0 NMatD0=    1 NMtDS0=    0 NMtDT0=    0
 Symmetry not used in FoFCou.
 FoFCou:  KetSym=F NOpSet=  1 NOpAb=1 NOp=  1.
 FoFCou:  CnvScl= 1.00D+00 Thresh= 1.00D-08 IAcrcy=      12.
 PrismS was handed   670738094 working-precision words and  3699 shell-pairs
 FoFCou: LinMIO=F DoNuc=F BraDBF=F KetDBF=F HaveP=T PDBF=F HaveZ=T HaveW=F
         NIJTC =      10 NIJTAt=       0 NIJTCD=       0 NIJTT =      10
         IJTBeg=       1 IJTEnd=      10 KLTBeg=       1 KLTEnd=      10
         IPTBeg=       1 IPTEnd=      10 IPTBCv=       1 IPTECv=      10
         IZTBeg=       1 IZTEnd=      10 IZTBCv=       1 IZTECv=      10
         IWTBeg=      11 IWTEnd=      10 IWTBCv=      11 IWTECv=      10
         INTBeg=       1 INTEnd=       0 IFTBCv=       1 IFTECv=      10
 NCel replicated for PrismC:     1
 CoulSu-InSpLW:  IPartL=    0 NPrtUS=   20 NPrtUL=    1 DoSpLW=F IThBeg=    0 IThEnd=   19 NThAct=   20.
 CoulSu:  IncDef=  1024 NBBP=        6843150 NTPThr=   100 NPartT=   20 Incr=        1024 LDynOK=F GPUOK=T.
 CoulSu:  NPrtUS=  20 ThrOK=T IAlg=1 NPAlg=1 LenDen=           0 LWGrdD=           0 DoCopy=F ISkipM=0
          DoSpLW=F IThBeg=    0 IThEnd=   19.
 Enter PrismC:  IPart=  0 JobTyp=22 DoJE=F Cont=F.
 PrismC:  IPart=     0 DynPar=T LinDyn=F Incr=        1024 UseFst=F UseS4=T ISplat=2.
 PrismC was handed    33455080 working-precision words and  3699 shell-pairs
 Enter PrismC:  IPart=  1 JobTyp=22 DoJE=F Cont=F.
 PrismC:  IPart=     1 DynPar=T LinDyn=F Incr=        1024 UseFst=F UseS4=T ISplat=2.
 PrismC was handed    33455080 working-precision words and  3699 shell-pairs
 Enter PrismC:  IPart=  8 JobTyp=22 DoJE=F Cont=F.
 PrismC:  IPart=     8 DynPar=T LinDyn=F Incr=        1024 UseFst=F UseS4=T ISplat=2.
 PrismC was handed    33455080 working-precision words and  3699 shell-pairs
 Enter PrismC:  IPart= 16 JobTyp=22 DoJE=F Cont=F.
 PrismC:  IPart=    16 DynPar=T LinDyn=F Incr=        1024 UseFst=F UseS4=T ISplat=2.
 PrismC was handed    33455080 working-precision words and  3699 shell-pairs
 Enter PrismC:  IPart=  6 JobTyp=22 DoJE=F Cont=F.
 PrismC:  IPart=     6 DynPar=T LinDyn=F Incr=        1024 UseFst=F UseS4=T ISplat=2.
 PrismC was handed    33455080 working-precision words and  3699 shell-pairs
 Enter PrismC:  IPart= 17 JobTyp=22 DoJE=F Cont=F.
 Enter PrismC:  IPart= 15 JobTyp=22 DoJE=F Cont=F.
 PrismC:  IPart=    17 DynPar=T LinDyn=F Incr=        1024 UseFst=F UseS4=T ISplat=2.
 PrismC was handed    33455080 working-precision words and  3699 shell-pairs
 PrismC:  IPart=    15 DynPar=T LinDyn=F Incr=        1024 UseFst=F UseS4=T ISplat=2.
 PrismC was handed    33455080 working-precision words and  3699 shell-pairs
 Enter PrismC:  IPart=  7 JobTyp=22 DoJE=F Cont=F.
 Enter PrismC:  IPart= 19 JobTyp=22 DoJE=F Cont=F.
 PrismC:  IPart=     7 DynPar=T LinDyn=F Incr=        1024 UseFst=F UseS4=T ISplat=2.
 PrismC was handed    33455080 working-precision words and  3699 shell-pairs
 PrismC:  IPart=    19 DynPar=T LinDyn=F Incr=        1024 UseFst=F UseS4=T ISplat=2.
 PrismC was handed    33455080 working-precision words and  3699 shell-pairs
 Enter PrismC:  IPart= 12 JobTyp=22 DoJE=F Cont=F.
 PrismC:  IPart=    12 DynPar=T LinDyn=F Incr=        1024 UseFst=F UseS4=T ISplat=2.
 PrismC was handed    33455080 working-precision words and  3699 shell-pairs
 Enter PrismC:  IPart= 18 JobTyp=22 DoJE=F Cont=F.
 PrismC:  IPart=    18 DynPar=T LinDyn=F Incr=        1024 UseFst=F UseS4=T ISplat=2.
 PrismC was handed    33455080 working-precision words and  3699 shell-pairs
 Enter PrismC:  IPart=  2 JobTyp=22 DoJE=F Cont=F.
 PrismC:  IPart=     2 DynPar=T LinDyn=F Incr=        1024 UseFst=F UseS4=T ISplat=2.
 PrismC was handed    33455080 working-precision words and  3699 shell-pairs
 Enter PrismC:  IPart=  9 JobTyp=22 DoJE=F Cont=F.
 PrismC:  IPart=     9 DynPar=T LinDyn=F Incr=        1024 UseFst=F UseS4=T ISplat=2.
 PrismC was handed    33455080 working-precision words and  3699 shell-pairs
 Enter PrismC:  IPart= 14 JobTyp=22 DoJE=F Cont=F.
 PrismC:  IPart=    14 DynPar=T LinDyn=F Incr=        1024 UseFst=F UseS4=T ISplat=2.
 PrismC was handed    33455080 working-precision words and  3699 shell-pairs
 Enter PrismC:  IPart=  4 JobTyp=22 DoJE=F Cont=F.
 PrismC:  IPart=     4 DynPar=T LinDyn=F Incr=        1024 UseFst=F UseS4=T ISplat=2.
 PrismC was handed    33455080 working-precision words and  3699 shell-pairs
 Enter PrismC:  IPart=  5 JobTyp=22 DoJE=F Cont=F.
 PrismC:  IPart=     5 DynPar=T LinDyn=F Incr=        1024 UseFst=F UseS4=T ISplat=2.
 PrismC was handed    33455080 working-precision words and  3699 shell-pairs
 Enter PrismC:  IPart= 10 JobTyp=22 DoJE=F Cont=F.
 PrismC:  IPart=    10 DynPar=T LinDyn=F Incr=        1024 UseFst=F UseS4=T ISplat=2.
 PrismC was handed    33455080 working-precision words and  3699 shell-pairs
 Enter PrismC:  IPart=  3 JobTyp=22 DoJE=F Cont=F.
 PrismC:  IPart=     3 DynPar=T LinDyn=F Incr=        1024 UseFst=F UseS4=T ISplat=2.
 PrismC was handed    33455080 working-precision words and  3699 shell-pairs
 Enter PrismC:  IPart= 11 JobTyp=22 DoJE=F Cont=F.
 PrismC:  IPart=    11 DynPar=T LinDyn=F Incr=        1024 UseFst=F UseS4=T ISplat=2.
 PrismC was handed    33455080 working-precision words and  3699 shell-pairs
 Enter PrismC:  IPart= 13 JobTyp=22 DoJE=F Cont=F.
 PrismC:  IPart=    13 DynPar=T LinDyn=F Incr=        1024 UseFst=F UseS4=T ISplat=2.
 PrismC was handed    33455080 working-precision words and  3699 shell-pairs
 IPart=  5 NShTot=      203800 NShNF=      203800 NShFF=           0 MinMC=       7
           NShCPU=      203800 NBCPU=        8691 AvBCPU=        23.4
           NShGPU=           0 NBGPU=           0 AvBGPU=         0.0
 IPart= 15 NShTot=      279951 NShNF=      279951 NShFF=           0 MinMC=       7
           NShCPU=      279951 NBCPU=       10872 AvBCPU=        25.7
           NShGPU=           0 NBGPU=           0 AvBGPU=         0.0
 IPart=  9 NShTot=      297104 NShNF=      297104 NShFF=           0 MinMC=       7
           NShCPU=      297104 NBCPU=       12298 AvBCPU=        24.2
           NShGPU=           0 NBGPU=           0 AvBGPU=         0.0
 IPart= 13 NShTot=      206901 NShNF=      206901 NShFF=           0 MinMC=       7
           NShCPU=      206901 NBCPU=        8480 AvBCPU=        24.4
           NShGPU=           0 NBGPU=           0 AvBGPU=         0.0
 IPart= 19 NShTot=      269801 NShNF=      269801 NShFF=           0 MinMC=       7
           NShCPU=      269801 NBCPU=       10174 AvBCPU=        26.5
           NShGPU=           0 NBGPU=           0 AvBGPU=         0.0
 IPart=  8 NShTot=      210961 NShNF=      210961 NShFF=           0 MinMC=       7
           NShCPU=      210961 NBCPU=        9442 AvBCPU=        22.3
           NShGPU=           0 NBGPU=           0 AvBGPU=         0.0
 IPart=  4 NShTot=      201393 NShNF=      201393 NShFF=           0 MinMC=       7
           NShCPU=      201393 NBCPU=        8926 AvBCPU=        22.6
           NShGPU=           0 NBGPU=           0 AvBGPU=         0.0
 IPart=  7 NShTot=      216087 NShNF=      216087 NShFF=           0 MinMC=       7
           NShCPU=      216087 NBCPU=        9027 AvBCPU=        23.9
           NShGPU=           0 NBGPU=           0 AvBGPU=         0.0
 IPart= 17 NShTot=      222709 NShNF=      222709 NShFF=           0 MinMC=       7
           NShCPU=      222709 NBCPU=        9271 AvBCPU=        24.0
           NShGPU=           0 NBGPU=           0 AvBGPU=         0.0
 IPart=  3 NShTot=      293037 NShNF=      293037 NShFF=           0 MinMC=       7
           NShCPU=      293037 NBCPU=       11917 AvBCPU=        24.6
           NShGPU=           0 NBGPU=           0 AvBGPU=         0.0
 IPart= 12 NShTot=      210572 NShNF=      210572 NShFF=           0 MinMC=       7
           NShCPU=      210572 NBCPU=        9197 AvBCPU=        22.9
           NShGPU=           0 NBGPU=           0 AvBGPU=         0.0
 IPart= 10 NShTot=      258437 NShNF=      258437 NShFF=           0 MinMC=       7
           NShCPU=      258437 NBCPU=       10893 AvBCPU=        23.7
           NShGPU=           0 NBGPU=           0 AvBGPU=         0.0
 IPart= 18 NShTot=      278732 NShNF=      278732 NShFF=           0 MinMC=       7
           NShCPU=      278732 NBCPU=       11891 AvBCPU=        23.4
           NShGPU=           0 NBGPU=           0 AvBGPU=         0.0
 IPart= 11 NShTot=      278231 NShNF=      278231 NShFF=           0 MinMC=       7
           NShCPU=      278231 NBCPU=       11397 AvBCPU=        24.4
           NShGPU=           0 NBGPU=           0 AvBGPU=         0.0
 IPart= 14 NShTot=      206783 NShNF=      206783 NShFF=           0 MinMC=       7
           NShCPU=      206783 NBCPU=        8643 AvBCPU=        23.9
           NShGPU=           0 NBGPU=           0 AvBGPU=         0.0
 IPart=  0 NShTot=      270426 NShNF=      270426 NShFF=           0 MinMC=       7
           NShCPU=      270426 NBCPU=       11729 AvBCPU=        23.1
           NShGPU=           0 NBGPU=           0 AvBGPU=         0.0
 IPart= 16 NShTot=      204770 NShNF=      204770 NShFF=           0 MinMC=       7
           NShCPU=      204770 NBCPU=        9314 AvBCPU=        22.0
           NShGPU=           0 NBGPU=           0 AvBGPU=         0.0
 IPart=  6 NShTot=      278207 NShNF=      278207 NShFF=           0 MinMC=       7
           NShCPU=      278207 NBCPU=       11713 AvBCPU=        23.8
           NShGPU=           0 NBGPU=           0 AvBGPU=         0.0
 IPart=  2 NShTot=      215037 NShNF=      215037 NShFF=           0 MinMC=       7
           NShCPU=      215037 NBCPU=        9281 AvBCPU=        23.2
           NShGPU=           0 NBGPU=           0 AvBGPU=         0.0
 IPart=  1 NShTot=      207395 NShNF=      207395 NShFF=           0 MinMC=       7
           NShCPU=      207395 NBCPU=        8888 AvBCPU=        23.3
           NShGPU=           0 NBGPU=           0 AvBGPU=         0.0
 CoulSu:  NxtVal=        7293953 LenVP=       33455081 MinMC=       7.
 ReadGW:  IGet=0 IStart=           1 Next=           1 LGW=           0.
 Remaining memory in FofDFT      639.93 Mw
 CkSvGd:  ISavGI=        -1 IRadAn=       5 IRASav=       5 ISavGd=        -1.
 CalDSu-InSpLW:  IPartL=    0 NPrtUS=   20 NPrtUL=    1 DoSpLW=F IThBeg=    0 IThEnd=   19 NThAct=   20.
 CalDSu:  NPrtUS=  20 ThrOK=T IAlg=1 NPAlg=2 DoDPD=T LenP=       35245 LenD1P=             0 GPUOK=F
          ISkipM=0 DoSpLW=F IThBeg=    0 IThEnd=   19.
 IPart=  0 IRanGd=          0 ScrnBf=T ScrnGd=T RCrit=4.00D+00 DoMicB=T.
 IPart= 16         9500 of        10728 points in      12 batches and       58 microbatches, Max-NSigAt=      11 Max-NSgAt2=      11
 IPart=  2         8850 of         9508 points in      10 batches and       53 microbatches, Max-NSigAt=      11 Max-NSgAt2=      11
 IPart= 12         9184 of         9538 points in       9 batches and       44 microbatches, Max-NSigAt=      11 Max-NSgAt2=      11
 IPart= 15        12582 of        14326 points in      15 batches and      113 microbatches, Max-NSigAt=      11 Max-NSgAt2=      11
 IPart= 11         9878 of        10454 points in      11 batches and       61 microbatches, Max-NSigAt=      11 Max-NSgAt2=      11
 IPart=  8        10814 of        11936 points in      12 batches and       42 microbatches, Max-NSigAt=      11 Max-NSgAt2=      11
 IPart=  6        15177 of        16222 points in      16 batches and       90 microbatches, Max-NSigAt=      11 Max-NSgAt2=      11
 IPart=  3        15789 of        17076 points in      16 batches and       72 microbatches, Max-NSigAt=      11 Max-NSgAt2=      11
 IPart= 14        12455 of        14448 points in      17 batches and       67 microbatches, Max-NSigAt=      11 Max-NSgAt2=      11
 IPart=  7         9574 of        10128 points in      10 batches and       54 microbatches, Max-NSigAt=      11 Max-NSgAt2=      11
 IPart= 17         9464 of         9798 points in      10 batches and       44 microbatches, Max-NSigAt=      11 Max-NSgAt2=      11
 IPart=  1         8899 of         9492 points in       9 batches and       61 microbatches, Max-NSigAt=      11 Max-NSgAt2=      11
 IPart=  0        10620 of        11304 points in      11 batches and       63 microbatches, Max-NSigAt=      11 Max-NSgAt2=      11
 IPart=  4         9254 of        10114 points in      11 batches and       75 microbatches, Max-NSigAt=      11 Max-NSgAt2=      11
 IPart=  5         8910 of         9510 points in      10 batches and       54 microbatches, Max-NSigAt=      11 Max-NSgAt2=      11
 IPart= 13        12341 of        14252 points in      16 batches and       70 microbatches, Max-NSigAt=      11 Max-NSgAt2=      11
 IPart= 10        15618 of        17182 points in      18 batches and       79 microbatches, Max-NSigAt=      11 Max-NSgAt2=      11
 IPart= 18        16507 of        19138 points in      21 batches and      106 microbatches, Max-NSigAt=      11 Max-NSgAt2=      11
 IPart= 19         9358 of        10732 points in      12 batches and       85 microbatches, Max-NSigAt=      11 Max-NSgAt2=      11
 IPart=  9         9656 of        10212 points in       9 batches and       48 microbatches, Max-NSigAt=      11 Max-NSgAt2=      11
 Polarizability after L703:
                1             2             3 
      1  0.000000D+00
      2  0.000000D+00  0.000000D+00
      3  0.000000D+00  0.000000D+00  0.000000D+00
 Dipole Derivatives after L703:
                 1             2             3             4             5 
      1  -0.178519D+00  0.620710D-01 -0.928599D-01  0.713438D-01  0.240961D+00
      2   0.135940D+00 -0.242193D+00 -0.544766D-01  0.638650D+00 -0.465840D+00
      3  -0.141548D+00 -0.915030D-02 -0.160513D+00  0.283052D+00 -0.165363D+00
                 6             7             8             9            10 
      1  -0.362292D-01 -0.984719D+00  0.360935D+00 -0.221458D+00 -0.480516D+00
      2  -0.246343D+00  0.555770D-01 -0.822719D+00  0.158465D-01  0.663266D-01
      3  -0.552142D+00 -0.734525D-01  0.146234D-01 -0.784082D+00  0.214088D+00
                11            12            13            14            15 
      1  -0.165926D+00  0.228710D+00 -0.652462D+00  0.136254D+00  0.252763D+00
      2  -0.756474D+00 -0.321375D+00 -0.703411D-01 -0.502613D+00  0.811706D-02
      3  -0.267907D+00 -0.151155D+00  0.171920D+00 -0.549995D-01  0.442422D-01
                16            17            18            19            20 
      1  -0.168873D-01 -0.131967D+00  0.769718D-01  0.903624D+00 -0.432127D+00
      2   0.326312D+00  0.387276D+00 -0.192458D-01 -0.341156D+00  0.305768D+00
      3  -0.154491D-01 -0.686004D-01  0.154530D+00 -0.107399D+00  0.229037D-01
                21            22            23            24            25 
      1  -0.465099D+00  0.284084D+00  0.154452D+00  0.598216D+00  0.177947D+00
      2   0.175735D+00 -0.902705D-02  0.155354D+00 -0.726419D-01  0.405390D-01
      3   0.185285D+00  0.160342D+00  0.127457D+00  0.567068D+00 -0.359437D-02
                26            27            28            29            30 
      1   0.197258D-01 -0.828880D-02  0.911786D+00 -0.387266D+00 -0.409213D+00
      2   0.102289D+01  0.141065D+00 -0.284464D+00  0.340258D+00  0.178459D+00
      3   0.143402D+00  0.811194D-01 -0.225416D+00  0.136529D+00  0.221243D+00
                31            32            33 
      1  -0.356833D-01  0.142887D+00  0.764869D-01
      2  -0.558358D+00  0.578294D+00  0.194860D+00
      3  -0.262543D+00  0.121106D+00  0.394404D+00
 Hessian after L703:
                1             2             3             4             5 
      1  0.348678D+00
      2 -0.156491D+00  0.307453D+00
      3 -0.732241D-01 -0.860922D-01  0.222206D+00
      4  0.660571D-02 -0.126384D-02 -0.464743D-02  0.377708D+00
      5 -0.663703D-02  0.189777D-01  0.951774D-02 -0.136995D-01  0.417866D+00
      6 -0.258913D-02  0.499065D-02 -0.219390D-02 -0.117825D+00  0.122753D+00
      7 -0.847559D-01  0.256888D-01 -0.189990D-02  0.177421D-03 -0.344737D-03
      8  0.389776D-01 -0.149403D+00  0.655984D-01  0.595785D-02 -0.127688D-01
      9 -0.227905D-01  0.844252D-01 -0.122766D+00 -0.202596D-02  0.425386D-02
     10 -0.212810D+00  0.753870D-01  0.661040D-01  0.335267D-03 -0.509112D-02
     11  0.486089D-01 -0.112106D+00 -0.119789D-01 -0.405605D-01 -0.564382D-01
     12  0.852303D-01 -0.291694D-01 -0.908241D-01 -0.714405D-02 -0.240249D-01
     13 -0.464561D-01 -0.272790D-02  0.130179D-01 -0.112086D+00 -0.585314D-01
     14  0.336207D-01 -0.493979D-02 -0.115961D-01 -0.189107D-01 -0.271112D+00
     15  0.271812D-01 -0.179812D-02 -0.122082D-02  0.150562D-01 -0.479622D-01
     16  0.118092D-01  0.114386D-01 -0.147703D-02 -0.772482D-02  0.195723D-02
     17 -0.729627D-02 -0.317550D-01  0.126378D-01 -0.283386D-02  0.422145D-02
     18  0.109793D-01  0.215547D-01 -0.321318D-02 -0.192116D-02 -0.704608D-03
     19 -0.958807D-02  0.777434D-02  0.236888D-02 -0.768084D-03  0.166329D-03
     20  0.265969D-01 -0.159273D-01 -0.988714D-02 -0.116320D-02  0.206350D-02
     21 -0.187796D-01  0.104550D-01  0.902897D-02 -0.102869D-03 -0.126101D-03
     22 -0.316275D-02  0.542441D-02 -0.123381D-01 -0.958258D-03  0.127819D-02
     23  0.158782D-01 -0.173994D-02  0.351640D-01 -0.758238D-03  0.100081D-02
     24 -0.962627D-02  0.981319D-02 -0.190415D-01  0.565459D-03 -0.102968D-02
     25 -0.656440D-02  0.333330D-01  0.735420D-02 -0.342454D-02 -0.349456D-02
     26  0.936157D-02 -0.104173D-01 -0.383287D-02 -0.237098D-02  0.256112D-02
     27  0.599821D-02 -0.128732D-01  0.177025D-02  0.398419D-02 -0.238931D-02
     28 -0.215347D-02 -0.402649D-02  0.244197D-02  0.923595D-02 -0.300078D-02
     29 -0.439480D-02  0.465225D-03 -0.251076D-02  0.275034D-01 -0.219961D-01
     30  0.684731D-03 -0.250082D-02  0.932584D-02  0.571504D-02 -0.713629D-02
     31 -0.160189D-02  0.546316D-02  0.229959D-02 -0.269100D+00  0.873973D-01
     32  0.177528D-02 -0.606463D-03  0.298007D-02  0.480995D-01 -0.843763D-01
     33 -0.306423D-02  0.119507D-02 -0.307156D-02  0.108345D+00 -0.531510D-01
                6             7             8             9            10 
      6  0.144455D+00
      7 -0.264140D-02  0.528424D+00
      8  0.165080D-02  0.821600D-02  0.466860D+00
      9 -0.126449D-02 -0.261998D-02  0.522968D-01  0.552190D+00
     10  0.323450D-03 -0.255152D-01  0.236667D-01 -0.566308D-04  0.778713D+00
     11 -0.824148D-02  0.329914D-01 -0.300337D-01 -0.101569D-01  0.184718D+00
     12  0.102713D-01 -0.155394D-01 -0.248759D-02  0.776058D-02 -0.130278D+00
     13  0.480964D-02 -0.254523D-03 -0.512482D-02  0.227539D-02 -0.482755D+00
     14 -0.661286D-01  0.225989D-02  0.145738D-01 -0.567870D-02 -0.225690D+00
     15 -0.699342D-01 -0.291060D-03  0.590781D-02  0.243876D-03  0.605240D-01
     16 -0.240584D-02 -0.163194D+00 -0.982885D-01  0.577827D-02  0.271202D-02
     17 -0.872041D-03 -0.901566D-01 -0.136011D+00  0.301421D-03 -0.501505D-02
     18 -0.114177D-02  0.365768D-02  0.349649D-02 -0.597620D-01  0.133717D-02
[...]
 ITU=  0
     Eigenvalues ---    0.00376   0.00514   0.01217   0.02056   0.03747
     Eigenvalues ---    0.04680   0.08686   0.08778   0.10705   0.12082
     Eigenvalues ---    0.13475   0.16484   0.18191   0.18736   0.19826
     Eigenvalues ---    0.22138   0.23301   0.33222   0.33591   0.35088
     Eigenvalues ---    0.36355   0.37354   0.39844   0.45085   0.45698
     Eigenvalues ---    0.53342   0.66236
 Angle between quadratic step and forces=  56.16 degrees.
 Linear search not attempted -- first point.
 Iteration  1 RMS(Cart)=  0.00010123 RMS(Int)=  0.00000000
 Iteration  2 RMS(Cart)=  0.00000001 RMS(Int)=  0.00000000
 ITry= 1 IFail=0 DXMaxC= 2.94D-04 DCOld= 1.00D+10 DXMaxT= 3.00D-01 DXLimC= 3.00D+00 Rises=F
 Variable       Old X    -DE/DX   Delta X   Delta X   Delta X     New X
                                 (Linear)    (Quad)   (Total)
    R1        2.67120   0.00000   0.00000  -0.00000  -0.00000   2.67120
    R2        2.59481  -0.00000   0.00000  -0.00000  -0.00000   2.59481
    R3        2.56332   0.00000   0.00000   0.00000   0.00000   2.56333
    R4        1.82347   0.00000   0.00000   0.00000   0.00000   1.82347
    R5        2.06457  -0.00000   0.00000  -0.00000  -0.00000   2.06457
    R6        2.05345   0.00000   0.00000   0.00000   0.00000   2.05345
    R7        2.06653  -0.00000   0.00000  -0.00000  -0.00000   2.06653
    R8        2.50502  -0.00000   0.00000  -0.00000  -0.00000   2.50502
    R9        2.04478   0.00000   0.00000  -0.00000  -0.00000   2.04478
   R10        2.03835  -0.00000   0.00000  -0.00000  -0.00000   2.03835
    A1        1.98208  -0.00000   0.00000   0.00000   0.00000   1.98208
    A2        1.87242   0.00000   0.00000   0.00000   0.00000   1.87243
    A3        1.93727   0.00000   0.00000   0.00000   0.00000   1.93727
    A4        1.87229   0.00000   0.00000   0.00000   0.00000   1.87229
    A5        1.93110  -0.00000   0.00000  -0.00000  -0.00000   1.93110
    A6        1.91450   0.00000   0.00000  -0.00000  -0.00000   1.91450
    A7        1.90277  -0.00000   0.00000   0.00000   0.00000   1.90277
    A8        1.90554  -0.00000   0.00000  -0.00000  -0.00000   1.90554
    A9        2.08155  -0.00000   0.00000  -0.00000  -0.00000   2.08155
   A10        2.05343   0.00000   0.00000   0.00000   0.00000   2.05343
   A11        2.14729   0.00000   0.00000   0.00000   0.00000   2.14729
   A12        2.16216  -0.00000   0.00000  -0.00000  -0.00000   2.16215
   A13        1.98815   0.00000   0.00000   0.00000   0.00000   1.98815
   A14        2.13269  -0.00000   0.00000   0.00000   0.00000   2.13269
    D1        1.08708  -0.00000   0.00000  -0.00006  -0.00006   1.08701
    D2       -3.10476  -0.00000   0.00000  -0.00007  -0.00007  -3.10483
    D3       -1.02782  -0.00000   0.00000  -0.00007  -0.00007  -1.02789
    D4       -2.45342  -0.00000   0.00000  -0.00015  -0.00015  -2.45357
    D5        0.73268  -0.00000   0.00000  -0.00015  -0.00015   0.73253
    D6       -0.00101   0.00000   0.00000   0.00004   0.00004  -0.00098
    D7        3.11977   0.00000   0.00000   0.00004   0.00004   3.11981
    D8        0.03797   0.00000   0.00000  -0.00000  -0.00000   0.03797
    D9       -3.08114   0.00000   0.00000  -0.00000  -0.00000  -3.08114
   D10        3.13254  -0.00000   0.00000   0.00000   0.00000   3.13254
   D11        0.01342  -0.00000   0.00000  -0.00000  -0.00000   0.01342
         Item               Value     Threshold  Converged?
 Maximum Force            0.000001     0.000015     YES
 RMS     Force            0.000000     0.000010     YES
 Maximum Displacement     0.000294     0.000060     NO 
 RMS     Displacement     0.000101     0.000040     NO 
 Predicted change in Energy=-1.457605D-10
                           ----------------------------
                           ! Non-Optimized Parameters !
                           ! (Angstroms and Degrees)  !
 --------------------------                            --------------------------
 ! Name  Definition              Value          Derivative Info.                !
 --------------------------------------------------------------------------------
 ! R1    R(1,3)                  1.4135         -DE/DX =    0.0                 !
 ! R2    R(1,4)                  1.3731         -DE/DX =    0.0                 !
 ! R3    R(2,5)                  1.3565         -DE/DX =    0.0                 !
 ! R4    R(2,11)                 0.9649         -DE/DX =    0.0                 !
 ! R5    R(3,6)                  1.0925         -DE/DX =    0.0                 !
 ! R6    R(3,7)                  1.0866         -DE/DX =    0.0                 !
 ! R7    R(3,8)                  1.0936         -DE/DX =    0.0                 !
 ! R8    R(4,5)                  1.3256         -DE/DX =    0.0                 !
 ! R9    R(4,9)                  1.0821         -DE/DX =    0.0                 !
 ! R10   R(5,10)                 1.0786         -DE/DX =    0.0                 !
 ! A1    A(3,1,4)              113.5649         -DE/DX =    0.0                 !
 ! A2    A(5,2,11)             107.2822         -DE/DX =    0.0                 !
 ! A3    A(1,3,6)              110.9976         -DE/DX =    0.0                 !
 ! A4    A(1,3,7)              107.2744         -DE/DX =    0.0                 !
 ! A5    A(1,3,8)              110.6436         -DE/DX =    0.0                 !
 ! A6    A(6,3,7)              109.6929         -DE/DX =    0.0                 !
 ! A7    A(6,3,8)              109.021          -DE/DX =    0.0                 !
 ! A8    A(7,3,8)              109.1795         -DE/DX =    0.0                 !
 ! A9    A(1,4,5)              119.2639         -DE/DX =    0.0                 !
 ! A10   A(1,4,9)              117.6531         -DE/DX =    0.0                 !
 ! A11   A(5,4,9)              123.0307         -DE/DX =    0.0                 !
 ! A12   A(2,5,4)              123.8823         -DE/DX =    0.0                 !
 ! A13   A(2,5,10)             113.9126         -DE/DX =    0.0                 !
 ! A14   A(4,5,10)             122.194          -DE/DX =    0.0                 !
 ! D1    D(4,1,3,6)             62.2812         -DE/DX =    0.0                 !
 ! D2    D(4,1,3,7)           -177.8937         -DE/DX =    0.0                 !
 ! D3    D(4,1,3,8)            -58.8935         -DE/DX =    0.0                 !
 ! D4    D(3,1,4,5)           -140.5794         -DE/DX =    0.0                 !
 ! D5    D(3,1,4,9)             41.9707         -DE/DX =    0.0                 !
 ! D6    D(11,2,5,4)            -0.0559         -DE/DX =    0.0                 !
 ! D7    D(11,2,5,10)          178.752          -DE/DX =    0.0                 !
 ! D8    D(1,4,5,2)              2.1756         -DE/DX =    0.0                 !
 ! D9    D(1,4,5,10)          -176.5366         -DE/DX =    0.0                 !
 ! D10   D(9,4,5,2)            179.4812         -DE/DX =    0.0                 !
 ! D11   D(9,4,5,10)             0.769          -DE/DX =    0.0                 !
 --------------------------------------------------------------------------------
 GradGradGradGradGradGradGradGradGradGradGradGradGradGradGradGradGradGrad

 Leave Link  103 at Sat Aug 31 17:30:50 2019, MaxMem=   671088640 cpu:             112.8 elap:             105.2
 (Enter /shared/centos7/gaussian/g16/l9999.exe)

 ----------------------------------------------------------------------

 Electric dipole moment (input orientation):
 (Debye = 10**-18 statcoulomb cm , SI units = C m)
                  (au)            (Debye)         (10**-30 SI)
   Tot        0.864497D+00      0.219733D+01      0.732951D+01
   x         -0.606952D+00     -0.154272D+01     -0.514596D+01
   y         -0.142240D+00     -0.361539D+00     -0.120596D+01
   z          0.598941D+00      0.152236D+01      0.507804D+01

 Dipole polarizability, Alpha (input orientation).
 (esu units = cm**3 , SI units = C**2 m**2 J**-1)
 Alpha(0;0):
               (au)            (10**-24 esu)      (10**-40 SI)
   iso        0.445367D+02      0.659966D+01      0.734312D+01
   aniso      0.248243D+02      0.367859D+01      0.409298D+01
   xx         0.407745D+02      0.604216D+01      0.672281D+01
   yx         0.948287D+01      0.140522D+01      0.156351D+01
   yy         0.441219D+02      0.653818D+01      0.727471D+01
   zx        -0.878944D+01     -0.130246D+01     -0.144918D+01
   zy        -0.472753D+01     -0.700547D+00     -0.779464D+00
   zz         0.487139D+02      0.721865D+01      0.803183D+01

 ----------------------------------------------------------------------

 Dipole orientation:
     8          0.52737105         -1.16746179          0.98491303
     8         -0.91979510          0.57613376         -3.70090097
     6         -0.20536731         -1.28887499          3.55078165
     6          1.16884124          1.22154614          0.20119128
     6          0.47634829          1.98896930         -2.08061958
     1         -1.89456283         -0.15204173          3.89235200
     1         -0.59809933         -3.25812937          3.98024741
     1          1.31740951         -0.61744639          4.77588721
     1          2.29640405          2.36484942          1.46712909
     1          1.01989607          3.80637494         -2.82658921
     1         -1.27041582         -1.01008204         -2.87264370

 Electric dipole moment (dipole orientation):
 (Debye = 10**-18 statcoulomb cm , SI units = C m)
                  (au)            (Debye)         (10**-30 SI)
   Tot        0.864497D+00      0.219733D+01      0.732951D+01
   x          0.000000D+00      0.000000D+00      0.000000D+00
   y          0.000000D+00      0.000000D+00      0.000000D+00
   z          0.864497D+00      0.219733D+01      0.732951D+01

 Dipole polarizability, Alpha (dipole orientation).
 (esu units = cm**3 , SI units = C**2 m**2 J**-1)
 Alpha(0;0):
               (au)            (10**-24 esu)      (10**-40 SI)
   iso        0.445367D+02      0.659966D+01      0.734312D+01
   aniso      0.248243D+02      0.367859D+01      0.409298D+01
   xx         0.354911D+02      0.525924D+01      0.585170D+01
   yx         0.353368D+01      0.523637D+00      0.582625D+00
   yy         0.416236D+02      0.616798D+01      0.686281D+01
   zx         0.403370D+01      0.597732D+00      0.665067D+00
   zy        -0.774585D+01     -0.114782D+01     -0.127712D+01
   zz         0.564955D+02      0.837176D+01      0.931484D+01

 ----------------------------------------------------------------------

 Test job not archived.
 1\1\GINC-C0224\Freq\RM062X\CC-pVTZ\C3H6O2\HARMS.N\31-Aug-2019\0\\#P Ge
 om=AllCheck Guess=TCheck SCRF=Check Test GenChk RM062X/CC-pVTZ Freq\\G
 aussian input prepared by ASE\\0,1\O,-0.1259548248,-0.7127130065,0.455
 3783955\O,1.0091826941,0.6554473713,-1.6484105019\C,-1.3497058303,-0.9
 728805913,1.1132855169\C,0.319558327,0.5763512775,0.614377997\C,0.8798
 587168,1.1996398559,-0.4126539218\H,-2.1512579446,-0.3496562683,0.7099
 111338\H,-1.5854617876,-2.0215108338,0.9533674327\H,-1.2579389241,-0.7
 849150322,2.1866556159\H,0.2308750194,1.0207452481,1.5969701765\H,1.29
 52575527,2.1913116011,-0.3259629125\H,0.6272276818,-0.229971922,-1.613
 1255132\\Version=EM64L-G16RevA.03\State=1-A\HF=-268.3241864\RMSD=2.059
 e-09\RMSF=9.429e-07\ZeroPoint=0.0911285\Thermal=0.0969967\Dipole=-0.60
 69525,-0.1422402,0.5989414\DipoleDeriv=-0.8161651,-0.3953699,0.3586067
 ,-0.6002266,-1.0437518,0.4101349,0.2190239,0.0386178,-0.5477844,-0.348
 933,-0.000925,0.061395,0.1543258,-0.3488247,-0.5012697,0.3087563,-0.01
 09406,-1.2326245,0.7935755,0.2316153,-0.2580281,0.0946857,0.3337086,-0
 .0814878,-0.2552232,-0.1776068,0.520575,-0.0693118,0.3105797,-0.031047
 2,0.5407952,0.7487588,-0.2059361,0.0751738,0.0645184,-0.0612647,-0.018
 5639,0.065827,-0.1645008,-0.0707132,0.1181604,0.3960194,-0.3695287,0.0
 914659,1.0825924,-0.109346,-0.0033522,0.0083774,0.1339055,-0.0013334,0
 .0265118,-0.0511146,0.0733998,-0.0067173,0.0251586,-0.0350302,0.031347
 4,-0.0764112,-0.1063853,0.0029901,0.0094512,-0.0308835,0.0558253,-0.01
 0972,-0.0458372,-0.0449482,0.001219,0.0484501,-0.060598,0.0381881,0.00
 74232,-0.1623185,0.1524739,-0.0109368,0.0217542,-0.0776687,0.0045362,-
 0.0038109,0.0158076,-0.0713579,-0.041805,0.1141808,-0.0727061,0.008862
 5,-0.0535511,0.0011338,-0.0459395,0.0225341,-0.0249842,0.0530209,0.287
 9029,-0.0438647,0.008181,-0.0463603,0.2455473,0.0633858,-0.0130684,0.0
 40348,0.3405007\Polar=40.7745027,9.4828675,44.1218538,-8.7894387,-4.72
 75283,48.7138518\Quadrupole=-0.417197,1.0636708,-0.6464738,1.6969855,-
 0.0792976,1.5882323\PG=C01 [X(C3H6O2)]\NImag=0\\0.35421582,0.14883363,
 0.42193308,-0.14013851,0.02151813,0.19504713,-0.00562706,0.00456351,-0
 .00159174,0.13561583,0.00467994,0.01236312,0.00484597,0.19393973,0.561
 26629,0.00178413,0.01200442,0.00556346,-0.06972850,0.09145910,0.403892
 69,-0.20146706,-0.03641503,0.07552230,0.00013430,-0.00025053,-0.004313
 36,0.50632290,-0.00571786,-0.08345897,-0.00820897,0.00025788,0.0002524
 4,-0.00107704,-0.00448032,0.62364712,0.08475833,0.01081211,-0.11039341
 ,-0.00029810,0.00393165,0.00341555,0.03981131,0.01818626,0.55278520,-0
 .08512112,-0.05580737,0.01937411,0.01152323,-0.00326314,0.00979798,-0.
 02290339,-0.04347577,-0.00153081,0.28241965,-0.08843679,-0.27832337,-0
 .02763607,0.00776692,0.00285718,-0.03576049,-0.01951171,-0.02352327,0.
 00728561,0.20869731,0.58110829,0.01083076,-0.04328908,-0.08719427,0.02
 182856,-0.00141447,-0.06469051,0.00534637,0.02273361,0.00041375,-0.232
 32686,-0.03008741,0.81242073,-0.00157464,-0.01939576,0.01432541,-0.061
 43378,-0.00689530,0.04685261,0.00155089,-0.00157255,0.00003879,-0.1509
 3593,-0.11552738,0.15773587,0.29603604,-0.03639085,-0.05387684,0.03221
 920,-0.02148526,-0.13695514,-0.06479696,0.00601450,-0.00251608,-0.0066
 2981,-0.10371542,-0.19267618,0.15035155,0.26440894,0.70388602,-0.00417
 960,-0.01153922,0.00556225,0.02901091,-0.11027901,-0.29726848,0.002100
 08,-0.00316396,-0.00432144,0.16662322,0.17973917,-0.37015636,-0.199545
 08,-0.04435687,0.74014911,-0.03920221,0.01009964,0.00016162,-0.0000231
 7,0.00035499,0.00055648,-0.17471172,0.10296493,-0.07286663,0.00289862,
 0.00573851,-0.00007541,-0.00012448,-0.00177459,-0.00001720,0.20540738,
 -0.00813414,0.00687889,-0.00328868,-0.00033526,-0.00047941,-0.00099863
 ,0.10851768,-0.14361020,0.05970809,-0.00032141,0.00314480,-0.00199055,
 0.00042798,0.00065131,0.00178607,-0.11700124,0.14448399,0.02159718,-0.
 00921141,0.00810072,0.00012316,-0.00031174,-0.00038983,-0.07650752,0.0
 6132331,-0.09441098,-0.00085806,-0.00247766,0.00068407,-0.00041241,0.0
 0034539,-0.00010780,0.07356750,-0.06519145,0.09483867,-0.01551821,-0.0
 3650064,-0.00175957,-0.00011259,0.00042997,0.00044747,-0.05779601,-0.0
 4090484,-0.00835845,-0.00369577,0.00043928,0.00405755,-0.00050790,-0.0
 0196319,-0.00112905,0.00704334,0.02160535,0.00463823,0.07053092,-0.004
 75425,-0.00504986,0.00120111,0.00000358,0.00038310,0.00083267,-0.05296
 434,-0.30931167,-0.04252844,-0.00111976,0.00212642,0.00153910,-0.00016
 559,-0.00028885,-0.00122343,-0.00308518,-0.01530821,-0.00412185,0.0613
 8661,0.33079602,0.00874999,0.02031413,0.00173304,0.00003491,-0.0002947
 5,-0.00014572,-0.01215097,-0.04900583,-0.05838255,0.00242252,-0.000436
 13,-0.00163418,0.00015615,0.00102000,0.00099487,0.00250128,0.01340286,
 0.00280581,0.00388011,0.04491485,0.05750966,-0.00995566,0.00016734,0.0
 4146686,0.00006466,-0.00071142,0.00013175,-0.05430483,-0.00726698,-0.0
 3896502,0.00231118,0.00540615,0.00223087,-0.00048315,-0.00030912,0.000
 15841,-0.00061992,-0.00509313,-0.02223976,0.00003691,0.00042025,-0.005
 74532,0.06265332,-0.00246110,0.00172277,0.00718808,0.00008344,-0.00035
 560,-0.00020811,-0.00485281,-0.06198721,-0.04642252,0.00070811,0.00244
 697,0.00322125,-0.00003965,-0.00002867,0.00011002,0.00302951,0.0042996
 5,0.01928839,-0.00407306,-0.00319019,-0.03064057,0.00748676,0.05690547
 ,0.01464713,0.00154584,-0.01812455,0.00026373,0.00014773,0.00017381,-0
 .03337415,-0.04433960,-0.29202672,-0.00180604,-0.00372747,0.00056800,0
 .00013343,0.00094229,0.00002579,-0.00306402,-0.00342557,-0.01116710,-0
 .00183664,-0.00067797,-0.00290576,0.02471800,0.04825490,0.32298885,-0.
 00001902,-0.00833109,-0.00846700,0.00746422,-0.00595846,0.00301958,0.0
 0215528,-0.00022405,-0.00330750,-0.03605407,0.00104617,0.03120280,0.00
 053181,0.00966400,0.01062388,-0.00046674,-0.00009803,-0.00004563,-0.00
 008008,0.00028948,0.00017170,0.00044762,0.00022909,0.00055683,0.029987
 88,-0.00396471,-0.02371454,-0.02902416,-0.00533629,0.00105192,0.002930
 90,0.00433269,0.00147853,-0.00359369,0.00091927,-0.09339376,-0.1016622
 8,0.00138625,0.01004205,0.01301137,-0.00047728,-0.00004829,0.00036239,
 -0.00006942,0.00006668,0.00047500,-0.00027081,0.00019182,0.00140056,0.
 00208049,0.10595227,-0.00138345,-0.00395345,0.00109715,0.00451873,0.00
 160898,0.00025820,0.00116332,0.00102068,0.00225863,0.03292280,-0.10266
 810,-0.29602887,-0.00203967,-0.01228361,-0.01497282,-0.00037037,-0.000
 06813,-0.00043039,-0.00029730,0.00012557,0.00026279,-0.00105541,-0.000
 72003,-0.00000025,-0.03228025,0.11557451,0.30730331,0.00619112,-0.0061
 5450,0.00326165,0.00357630,0.00518707,0.00019367,0.00182580,0.00076531
 ,0.00043831,-0.00171580,-0.00866954,-0.00451265,-0.08607075,-0.1164512
 0,-0.00102925,-0.00008860,0.00027856,-0.00005664,0.00009024,0.00008894
 ,-0.00008350,-0.00027461,-0.00014266,0.00006413,-0.00343096,0.00173805
 ,-0.00083259,0.07814171,-0.00387974,0.00441291,0.00099187,-0.00406396,
 -0.01194727,-0.00604123,-0.00013967,-0.00096586,-0.00017844,-0.0029035
 1,-0.00861294,-0.00418665,-0.11353765,-0.30334292,-0.01587104,0.000014
 86,-0.00012046,-0.00000713,-0.00023983,-0.00005051,0.00014289,0.000018
 90,0.00002697,0.00006954,0.00131365,-0.00053873,0.00103113,0.12316503,
 0.31929518,0.00510718,-0.00019112,-0.00322279,-0.01311638,-0.03487516,
 -0.00574067,-0.00032063,0.00135491,0.00029535,0.00637906,0.02094929,0.
 00943361,0.00034867,-0.01124273,-0.05585291,0.00005630,0.00003048,0.00
 000547,0.00044796,0.00008716,-0.00026909,0.00006497,0.00001231,-0.0001
 0291,-0.00099373,0.00012448,-0.00036574,0.00096639,0.02612034,0.061184
 12,-0.00192195,-0.00105972,-0.00215513,-0.09118194,-0.18751285,0.01125
 820,-0.00080617,-0.00034576,0.00027976,0.00127341,0.00305107,0.0036821
 3,0.00301188,0.00200219,-0.00261632,-0.00011249,0.00015363,0.00019396,
 0.00000914,-0.00009974,0.00006314,0.00012448,0.00003238,-0.00030240,-0
 .00053594,-0.00033825,-0.00034581,0.00175555,0.00025192,0.00106020,0.0
 8838401,0.00022587,-0.00288719,0.00019351,-0.17539430,-0.42843664,0.00
 165537,-0.00025046,-0.00000484,-0.00057082,0.00028169,0.00484586,0.004
 78493,-0.00908929,-0.02489470,-0.00821310,0.00013585,0.00010793,0.0000
 0176,-0.00011023,-0.00017294,0.00010754,0.00015206,-0.00003198,-0.0001
 9024,-0.00001126,-0.00108795,0.00033245,0.00019494,0.00184362,-0.00236
 996,0.18386513,0.45071884,-0.00177313,0.00198965,0.00183126,0.02895472
 ,0.04518170,-0.04506851,0.00272324,0.00117663,0.00036662,-0.00099791,-
 0.00518075,-0.00381597,-0.01759378,-0.04556846,-0.00405222,-0.00044954
 ,0.00003551,0.00007136,-0.00009032,-0.00014877,0.00003114,-0.00076534,
 -0.00008371,0.00057082,-0.00048069,0.00040091,0.00061798,0.00159048,-0
 .00207128,-0.00536446,-0.01111774,0.00426855,0.05481196\\-0.00000111,-
 0.00000068,-0.00000040,-0.00000157,0.00000129,0.00000012,-0.00000001,0
 .00000015,-0.00000017,0.00000082,-0.00000069,0.00000025,0.00000037,-0.
 00000062,-0.00000077,-0.00000026,0.00000124,0.00000092,-0.00000112,0.0
 0000075,-0.00000072,0.00000073,-0.00000070,0.00000007,0.00000207,-0.00
 000171,0.00000064,0.00000147,-0.00000054,0.00000070,-0.00000139,0.0000
 0151,-0.00000065\\\@


 NATURE GIVES TO EVERY TIME AND SEASON SOME BEAUTY OF ITS OWN.

                                                    --DICKENS
 Job cpu time:       0 days  1 hours 11 minutes 28.0 seconds.
 Elapsed time:       0 days  0 hours 42 minutes 10.3 seconds.
 File lengths (MBytes):  RWF=   1312 Int=      0 D2E=      0 Chk=     32 Scr=     32
 Normal termination of Gaussian 16 at Sat Aug 31 17:30:52 2019.
