 Entering Gaussian System, Link 0=g16
 Input=loose/ts/CCC+[O]O_[CH2]CC+OO/conformers/CCC+[O]O_[CH2]CC+OO_forward_shell_1.com
 Output=loose/ts/CCC+[O]O_[CH2]CC+OO/conformers/CCC+[O]O_[CH2]CC+OO_forward_shell_1.log
 Initial command:
 /shared/centos7/gaussian/g16/l1.exe "/scratch/harms.n/gauss_scrdir/Gau-47282.inp" -scrdir="/scratch/harms.n/gauss_scrdir/"
 Entering Link 1 = /shared/centos7/gaussian/g16/l1.exe PID=     47290.
  
 Copyright (c) 1988,1990,1992,1993,1995,1998,2003,2009,2016,
            Gaussian, Inc.  All Rights Reserved.
  
 This is part of the Gaussian(R) 16 program.  It is based on
 the Gaussian(R) 09 system (copyright 2009, Gaussian, Inc.),
 the Gaussian(R) 03 system (copyright 2003, Gaussian, Inc.),
 the Gaussian(R) 98 system (copyright 1998, Gaussian, Inc.),
 the Gaussian(R) 94 system (copyright 1995, Gaussian, Inc.),
 the Gaussian 92(TM) system (copyright 1992, Gaussian, Inc.),
 the Gaussian 90(TM) system (copyright 1990, Gaussian, Inc.),
 the Gaussian 88(TM) system (copyright 1988, Gaussian, Inc.),
 the Gaussian 86(TM) system (copyright 1986, Carnegie Mellon
 University), and the Gaussian 82(TM) system (copyright 1983,
 Carnegie Mellon University). Gaussian is a federally registered
 trademark of Gaussian, Inc.
  
 This software contains proprietary and confidential information,
 including trade secrets, belonging to Gaussian, Inc.
  
 This software is provided under written license and may be
 used, copied, transmitted, or stored only in accord with that
 written license.
  
 The following legend is applicable only to US Government
 contracts under FAR:
  
                    RESTRICTED RIGHTS LEGEND
  
 Use, reproduction and disclosure by the US Government is
 subject to restrictions as set forth in subparagraphs (a)
 and (c) of the Commercial Computer Software - Restricted
 Rights clause in FAR 52.227-19.
  
 Gaussian, Inc.
 340 Quinnipiac St., Bldg. 40, Wallingford CT 06492
  
  
 ---------------------------------------------------------------
 Warning -- This program may not be used in any manner that
 competes with the business of Gaussian, Inc. or will provide
 assistance to any competitor of Gaussian, Inc.  The licensee
 of this program is prohibited from giving any competitor of
 Gaussian, Inc. access to this program.  By using this program,
 the user acknowledges that Gaussian, Inc. is engaged in the
 business of creating and licensing software in the field of
 computational chemistry and represents and warrants to the
 licensee that it is not a competitor of Gaussian, Inc. and that
 it will not use this program in any manner prohibited above.
 ---------------------------------------------------------------
  

 Cite this work as:
 Gaussian 16, Revision A.03,
 M. J. Frisch, G. W. Trucks, H. B. Schlegel, G. E. Scuseria, 
 M. A. Robb, J. R. Cheeseman, G. Scalmani, V. Barone, 
 G. A. Petersson, H. Nakatsuji, X. Li, M. Caricato, A. V. Marenich, 
 J. Bloino, B. G. Janesko, R. Gomperts, B. Mennucci, H. P. Hratchian, 
 J. V. Ortiz, A. F. Izmaylov, J. L. Sonnenberg, D. Williams-Young, 
 F. Ding, F. Lipparini, F. Egidi, J. Goings, B. Peng, A. Petrone, 
 T. Henderson, D. Ranasinghe, V. G. Zakrzewski, J. Gao, N. Rega, 
 G. Zheng, W. Liang, M. Hada, M. Ehara, K. Toyota, R. Fukuda, 
 J. Hasegawa, M. Ishida, T. Nakajima, Y. Honda, O. Kitao, H. Nakai, 
 T. Vreven, K. Throssell, J. A. Montgomery, Jr., J. E. Peralta, 
 F. Ogliaro, M. J. Bearpark, J. J. Heyd, E. N. Brothers, K. N. Kudin, 
 V. N. Staroverov, T. A. Keith, R. Kobayashi, J. Normand, 
 K. Raghavachari, A. P. Rendell, J. C. Burant, S. S. Iyengar, 
 J. Tomasi, M. Cossi, J. M. Millam, M. Klene, C. Adamo, R. Cammi, 
 J. W. Ochterski, R. L. Martin, K. Morokuma, O. Farkas, 
 J. B. Foresman, and D. J. Fox, Gaussian, Inc., Wallingford CT, 2016.
 
 ******************************************
 Gaussian 16:  EM64L-G16RevA.03 25-Dec-2016
                 5-Sep-2019 
 ******************************************
 %nprocshared=20
 Will use up to   20 processors via shared memory.
 %mem=5GB
 ----------------------------------------------------------------------
 #p m062x/cc-pVTZ Opt=(ModRedun,Loose,maxcycles=900) Int(Grid=SG1) scf=
 (maxcycle=900)
 ----------------------------------------------------------------------
 1/6=900,7=-1,18=120,19=15,26=2,38=1/1,3;
 2/9=110,12=2,17=6,18=5,40=1/2;
 3/5=16,6=1,11=2,25=1,30=1,71=1,74=-55,75=1/1,2,3;
 4//1;
 5/5=2,7=900,38=5/2;
 6/7=2,8=2,9=2,10=2,28=1/1;
 7//1,2,3,16;
 1/6=900,7=-1,18=20,19=15,26=2/3(2);
 2/9=110/2;
 99//99;
 2/9=110/2;
 3/5=16,6=1,11=2,25=1,30=1,71=1,74=-55,75=1/1,2,3;
 4/5=5,16=3,69=1/1;
 5/5=2,7=900,38=5/2;
 7//1,2,3,16;
 1/6=900,7=-1,18=20,19=15,26=2/3(-5);
 2/9=110/2;
 6/7=2,8=2,9=2,10=2,19=2,28=1/1;
 99/9=1/99;
 Leave Link    1 at Thu Sep  5 10:06:56 2019, MaxMem=   671088640 cpu:               3.4 elap:               1.7
 (Enter /shared/centos7/gaussian/g16/l101.exe)
 ------------------------------
 Gaussian input prepared by ASE
 ------------------------------
 Symbolic Z-matrix:
 Charge =  0 Multiplicity = 2
 O                     0.3456   -2.93212  -1.25855 
 O                     0.33796  -3.04577   0.05254 
 C                    -0.32304  -0.18333   1.90214 
 C                     0.79754  -1.01686   1.29114 
 C                    -1.30207  -0.96857   2.76943 
 H                    -0.88422   0.32817   1.09101 
 H                     0.12621   0.61945   2.52504 
 H                     0.28672  -1.94214   0.42149 
 H                     1.51958  -0.39807   0.71673 
 H                     1.32864  -1.6487    2.03469 
 H                    -1.81468  -1.76745   2.19212 
 H                    -2.08673  -0.28947   3.16451 
 H                    -0.78146  -1.44583   3.62693 
 H                    -0.61329  -2.8427   -1.489 
 
 Add virtual bond connecting atoms H8         and O2         Dist= 2.20D+00.
 Add virtual bond connecting atoms H8         and C4         Dist= 2.59D+00.
 The following ModRedundant input section has been read:
 B       4       8 F                                                           
 B       2       8 F                                                           
 A       2       8       4 F                                                   
 
 ITRead=  0  0  0  0  0  0  0  0  0  0  0  0  0  0
 MicOpt= -1 -1 -1 -1 -1 -1 -1 -1 -1 -1 -1 -1 -1 -1
 NAtoms=     14 NQM=       14 NQMF=       0 NMMI=      0 NMMIF=      0
                NMic=       0 NMicF=      0.
                    Isotopes and Nuclear Properties:
 (Nuclear quadrupole moments (NQMom) in fm**2, nuclear magnetic moments (NMagM)
  in nuclear magnetons)

  Atom         1           2           3           4           5           6           7           8           9          10
 IAtWgt=          16          16          12          12          12           1           1           1           1           1
 AtmWgt=  15.9949146  15.9949146  12.0000000  12.0000000  12.0000000   1.0078250   1.0078250   1.0078250   1.0078250   1.0078250
 NucSpn=           0           0           0           0           0           1           1           1           1           1
 AtZEff=  -0.0000000  -0.0000000  -0.0000000  -0.0000000  -0.0000000  -0.0000000  -0.0000000  -0.0000000  -0.0000000  -0.0000000
 NQMom=    0.0000000   0.0000000   0.0000000   0.0000000   0.0000000   0.0000000   0.0000000   0.0000000   0.0000000   0.0000000
 NMagM=    0.0000000   0.0000000   0.0000000   0.0000000   0.0000000   2.7928460   2.7928460   2.7928460   2.7928460   2.7928460
 AtZNuc=   8.0000000   8.0000000   6.0000000   6.0000000   6.0000000   1.0000000   1.0000000   1.0000000   1.0000000   1.0000000

  Atom        11          12          13          14
 IAtWgt=           1           1           1           1
 AtmWgt=   1.0078250   1.0078250   1.0078250   1.0078250
 NucSpn=           1           1           1           1
 AtZEff=  -0.0000000  -0.0000000  -0.0000000  -0.0000000
 NQMom=    0.0000000   0.0000000   0.0000000   0.0000000
 NMagM=    2.7928460   2.7928460   2.7928460   2.7928460
 AtZNuc=   1.0000000   1.0000000   1.0000000   1.0000000
 Leave Link  101 at Thu Sep  5 10:07:00 2019, MaxMem=   671088640 cpu:               5.9 elap:               3.6
 (Enter /shared/centos7/gaussian/g16/l103.exe)

 GradGradGradGradGradGradGradGradGradGradGradGradGradGradGradGradGradGrad
 Berny optimization.
 Initialization pass.
                           ----------------------------
                           !    Initial Parameters    !
                           ! (Angstroms and Degrees)  !
 --------------------------                            --------------------------
 ! Name  Definition              Value          Derivative Info.                !
 --------------------------------------------------------------------------------
 ! R1    R(1,2)                  1.316          estimate D2E/DX2                !
 ! R2    R(1,14)                 0.9902         estimate D2E/DX2                !
 ! R3    R(2,8)                  1.1648         Frozen                          !
 ! R4    R(3,4)                  1.5244         estimate D2E/DX2                !
 ! R5    R(3,5)                  1.5255         estimate D2E/DX2                !
 ! R6    R(3,6)                  1.1111         estimate D2E/DX2                !
 ! R7    R(3,7)                  1.111          estimate D2E/DX2                !
 ! R8    R(4,8)                  1.3687         Frozen                          !
 ! R9    R(4,9)                  1.1109         estimate D2E/DX2                !
 ! R10   R(4,10)                 1.1109         estimate D2E/DX2                !
 ! R11   R(5,11)                 1.111          estimate D2E/DX2                !
 ! R12   R(5,12)                 1.1104         estimate D2E/DX2                !
 ! R13   R(5,13)                 1.1109         estimate D2E/DX2                !
 ! A1    A(2,1,14)             103.5341         estimate D2E/DX2                !
 ! A2    A(1,2,8)              103.5319         estimate D2E/DX2                !
 ! A3    A(4,3,5)              114.719          estimate D2E/DX2                !
 ! A4    A(4,3,6)              109.2929         estimate D2E/DX2                !
 ! A5    A(4,3,7)              108.8191         estimate D2E/DX2                !
 ! A6    A(5,3,6)              109.1388         estimate D2E/DX2                !
 ! A7    A(5,3,7)              108.2217         estimate D2E/DX2                !
 ! A8    A(6,3,7)              106.3139         estimate D2E/DX2                !
 ! A9    A(3,4,8)              110.4852         estimate D2E/DX2                !
 ! A10   A(3,4,9)              112.3607         estimate D2E/DX2                !
 ! A11   A(3,4,10)             113.2128         estimate D2E/DX2                !
 ! A12   A(8,4,9)              106.8932         estimate D2E/DX2                !
 ! A13   A(8,4,10)             102.6622         estimate D2E/DX2                !
 ! A14   A(9,4,10)             110.6185         estimate D2E/DX2                !
 ! A15   A(3,5,11)             111.7659         estimate D2E/DX2                !
 ! A16   A(3,5,12)             109.9366         estimate D2E/DX2                !
 ! A17   A(3,5,13)             111.0518         estimate D2E/DX2                !
 ! A18   A(11,5,12)            107.3744         estimate D2E/DX2                !
 ! A19   A(11,5,13)            107.9637         estimate D2E/DX2                !
 ! A20   A(12,5,13)            108.6188         estimate D2E/DX2                !
 ! A21   A(2,8,4)              145.6251         Frozen                          !
 ! D1    D(14,1,2,8)           -83.3661         estimate D2E/DX2                !
 ! D2    D(1,2,8,4)           -133.7109         estimate D2E/DX2                !
 ! D3    D(5,3,4,8)             64.0313         estimate D2E/DX2                !
 ! D4    D(5,3,4,9)           -176.6866         estimate D2E/DX2                !
 ! D5    D(5,3,4,10)           -50.4774         estimate D2E/DX2                !
 ! D6    D(6,3,4,8)            -58.8946         estimate D2E/DX2                !
 ! D7    D(6,3,4,9)             60.3874         estimate D2E/DX2                !
 ! D8    D(6,3,4,10)          -173.4033         estimate D2E/DX2                !
 ! D9    D(7,3,4,8)           -174.5985         estimate D2E/DX2                !
 ! D10   D(7,3,4,9)            -55.3164         estimate D2E/DX2                !
 ! D11   D(7,3,4,10)            70.8928         estimate D2E/DX2                !
 ! D12   D(4,3,5,11)           -60.3482         estimate D2E/DX2                !
 ! D13   D(4,3,5,12)          -179.4827         estimate D2E/DX2                !
 ! D14   D(4,3,5,13)            60.284          estimate D2E/DX2                !
 ! D15   D(6,3,5,11)            62.6605         estimate D2E/DX2                !
 ! D16   D(6,3,5,12)           -56.474          estimate D2E/DX2                !
 ! D17   D(6,3,5,13)          -176.7073         estimate D2E/DX2                !
 ! D18   D(7,3,5,11)           177.9554         estimate D2E/DX2                !
 ! D19   D(7,3,5,12)            58.8209         estimate D2E/DX2                !
 ! D20   D(7,3,5,13)           -61.4124         estimate D2E/DX2                !
 ! D21   D(3,4,8,2)           -137.2727         estimate D2E/DX2                !
 ! D22   D(9,4,8,2)            100.1872         estimate D2E/DX2                !
 ! D23   D(10,4,8,2)           -16.2635         estimate D2E/DX2                !
 --------------------------------------------------------------------------------
 Trust Radius=3.00D-01 FncErr=1.00D-05 GrdErr=1.00D-04 EigMax=2.50D+02 EigMin=1.00D-04
 Number of steps in this run=    100 maximum allowed number of steps=    100.
 GradGradGradGradGradGradGradGradGradGradGradGradGradGradGradGradGradGrad

 Leave Link  103 at Thu Sep  5 10:07:00 2019, MaxMem=   671088640 cpu:               1.6 elap:               0.8
 (Enter /shared/centos7/gaussian/g16/l202.exe)
                          Input orientation:                          
 ---------------------------------------------------------------------
 Center     Atomic      Atomic             Coordinates (Angstroms)
 Number     Number       Type             X           Y           Z
 ---------------------------------------------------------------------
      1          8           0        0.345598   -2.932118   -1.258554
      2          8           0        0.337963   -3.045774    0.052541
      3          6           0       -0.323038   -0.183327    1.902139
      4          6           0        0.797544   -1.016862    1.291138
      5          6           0       -1.302069   -0.968568    2.769430
      6          1           0       -0.884223    0.328174    1.091007
      7          1           0        0.126209    0.619455    2.525036
      8          1           0        0.286725   -1.942140    0.421488
      9          1           0        1.519581   -0.398066    0.716730
     10          1           0        1.328644   -1.648697    2.034689
     11          1           0       -1.814679   -1.767450    2.192117
     12          1           0       -2.086734   -0.289472    3.164507
     13          1           0       -0.781458   -1.445828    3.626932
     14          1           0       -0.613293   -2.842702   -1.488999
 ---------------------------------------------------------------------
                    Distance matrix (angstroms):
                    1          2          3          4          5
     1  O    0.000000
     2  O    1.316034   0.000000
     3  C    4.241805   3.471532   0.000000
     4  C    3.220775   2.421119   1.524404   0.000000
     5  C    4.774410   3.792885   1.525549   2.568279   0.000000
     6  H    4.202666   3.735729   1.111080   2.162757   2.161768
     7  H    5.193973   4.426282   1.110983   2.156555   2.149773
     8  H    1.950914   1.164798   2.378563   1.368709   2.997489
     9  H    3.420732   2.974512   2.201488   1.110941   3.535641
    10  H    3.668651   2.619577   2.211997   1.110923   2.814795
    11  H    4.234428   3.293291   2.195113   2.863364   1.110977
    12  H    5.697656   4.812555   2.171511   3.515347   1.110386
    13  H    5.229463   4.072984   2.186085   2.851875   1.110910
    14  H    0.990238   1.822765   4.319299   3.612937   4.703298
                    6          7          8          9         10
     6  H    0.000000
     7  H    1.778274   0.000000
     8  H    2.640776   3.318501   0.000000
     9  H    2.538855   2.499361   1.997815   0.000000
    10  H    3.113734   2.613580   1.942710   1.826896   0.000000
    11  H    2.543586   3.094381   2.753459   3.894774   3.149502
    12  H    2.475262   2.476325   3.986071   4.359920   3.845619
    13  H    3.096540   2.510663   3.414997   3.855108   2.651212
    14  H    4.096864   5.352184   2.295867   3.923090   4.196802
                   11         12         13         14
    11  H    0.000000
    12  H    1.789965   0.000000
    13  H    1.797130   1.804090   0.000000
    14  H    4.018721   5.508642   5.305873   0.000000
 Stoichiometry    C3H9O2(2)
 Framework group  C1[X(C3H9O2)]
 Deg. of freedom    36
 Full point group                 C1      NOp   1
 Largest Abelian subgroup         C1      NOp   1
 Largest concise Abelian subgroup C1      NOp   1
                         Standard orientation:                         
 ---------------------------------------------------------------------
 Center     Atomic      Atomic             Coordinates (Angstroms)
 Number     Number       Type             X           Y           Z
 ---------------------------------------------------------------------
      1          8           0       -2.557766   -0.091216    0.362264
      2          8           0       -1.600321   -0.354983   -0.501259
      3          6           0        1.646742    0.468003    0.410232
      4          6           0        0.403002    0.989677   -0.300244
      5          6           0        2.128246   -0.898530   -0.067302
      6          1           0        1.453923    0.424653    1.503594
      7          1           0        2.473085    1.196791    0.267725
      8          1           0       -0.669319    0.177647   -0.047061
      9          1           0        0.121320    2.010494    0.035581
     10          1           0        0.482317    0.950125   -1.407626
     11          1           0        1.356120   -1.683051    0.083085
     12          1           0        3.028170   -1.204668    0.506608
     13          1           0        2.387288   -0.875324   -1.147339
     14          1           0       -2.436152   -0.781981    1.061280
 ---------------------------------------------------------------------
 Rotational constants (GHZ):           9.2081794           1.7938137           1.6623452
 Leave Link  202 at Thu Sep  5 10:07:03 2019, MaxMem=   671088640 cpu:               2.7 elap:               1.4
 (Enter /shared/centos7/gaussian/g16/l301.exe)
 Standard basis: CC-pVTZ (5D, 7F)
 Ernie: Thresh=  0.10000D-02 Tol=  0.10000D-05 Strict=F.
 Ernie:  15 primitive shells out of 202 were deleted.
 There are   310 symmetry adapted cartesian basis functions of A   symmetry.
 There are   276 symmetry adapted basis functions of A   symmetry.
   276 basis functions,   413 primitive gaussians,   310 cartesian basis functions
    22 alpha electrons       21 beta electrons
       nuclear repulsion energy       181.3988004142 Hartrees.
 IExCor= 4336 DFT=T Ex+Corr=M062X ExCW=0 ScaHFX=  0.540000
 ScaDFX=  1.000000  1.000000  1.000000  1.000000 ScalE2=  1.000000  1.000000
 IRadAn=      1 IRanWt=     -1 IRanGd=            0 ICorTp=0 IEmpDi=  4
 NAtoms=   14 NActive=   14 NUniq=   14 SFac= 1.00D+00 NAtFMM=   60 NAOKFM=F Big=F
 Integral buffers will be    131072 words long.
 Raffenetti 2 integral format.
 Two-electron integral symmetry is turned on.
 Leave Link  301 at Thu Sep  5 10:07:05 2019, MaxMem=   671088640 cpu:               2.6 elap:               1.3
 (Enter /shared/centos7/gaussian/g16/l302.exe)
 NPDir=0 NMtPBC=     1 NCelOv=     1 NCel=       1 NClECP=     1 NCelD=      1
         NCelK=      1 NCelE2=     1 NClLst=     1 CellRange=     0.0.
 One-electron integrals computed using PRISM.
 One-electron integral symmetry used in STVInt
 NBasis=   276 RedAO= T EigKep=  8.85D-04  NBF=   276
 NBsUse=   276 1.00D-06 EigRej= -1.00D+00 NBFU=   276
 Precomputing XC quadrature grid using
 IXCGrd= 4 IRadAn=           1 IRanWt=          -1 IRanGd=           0 AccXCQ= 0.00D+00.
 Generated NRdTot=       0 NPtTot=           0 NUsed=           0 NTot=          32
 NSgBfM=   310   310   310   310   310 MxSgAt=    14 MxSgA2=    14.
 Leave Link  302 at Thu Sep  5 10:07:58 2019, MaxMem=   671088640 cpu:             106.4 elap:              53.2
 (Enter /shared/centos7/gaussian/g16/l303.exe)
 DipDrv:  MaxL=1.
 Leave Link  303 at Thu Sep  5 10:08:04 2019, MaxMem=   671088640 cpu:              11.9 elap:               6.0
 (Enter /shared/centos7/gaussian/g16/l401.exe)
 ExpMin= 1.03D-01 ExpMax= 1.53D+04 ExpMxC= 5.22D+02 IAcc=1 IRadAn=         1 AccDes= 0.00D+00
 Harris functional with IExCor= 1009 and IRadAn=       1 diagonalized for initial guess.
 HarFok:  IExCor= 1009 AccDes= 0.00D+00 IRadAn=         1 IDoV= 1 UseB2=F ITyADJ=14
 ICtDFT=  3500011 ScaDFX=  1.000000  1.000000  1.000000  1.000000
 FoFCou: FMM=F IPFlag=           0 FMFlag=      100000 FMFlg1=           0
         NFxFlg=           0 DoJE=T BraDBF=F KetDBF=T FulRan=T
         wScrn=  0.000000 ICntrl=       500 IOpCl=  0 I1Cent=   200000004 NGrid=           0
         NMat0=    1 NMatS0=      1 NMatT0=    0 NMatD0=    1 NMtDS0=    0 NMtDT0=    0
 Petite list used in FoFCou.
 Harris En= -269.901735018653    
 JPrj=0 DoOrth=F DoCkMO=F.
 Initial guess <Sx>= 0.0000 <Sy>= 0.0000 <Sz>= 0.5000 <S**2>= 0.7500 S= 0.5000
 Leave Link  401 at Thu Sep  5 10:08:48 2019, MaxMem=   671088640 cpu:              72.1 elap:              43.8
 (Enter /shared/centos7/gaussian/g16/l502.exe)
 Integral symmetry usage will be decided dynamically.
 UHF open shell SCF:
 Using DIIS extrapolation, IDIIS=  1040.
 NGot=   671088640 LenX=   670887394 LenY=   670790853
 Requested convergence on RMS density matrix=1.00D-08 within 900 cycles.
 Requested convergence on MAX density matrix=1.00D-06.
 Requested convergence on             energy=1.00D-06.
 No special actions if energy rises.
 Fock matrices will be formed incrementally for  20 cycles.

 Cycle   1  Pass 1  IDiag  1:
 FoFJK:  IHMeth= 1 ICntrl=       0 DoSepK=F KAlg= 0 I1Cent=           0 FoldK=F
 IRaf= 950000000 NMat=       1 IRICut=       1 DoRegI=T DoRafI=F ISym2E= 0 IDoP0=0 IntGTp=1.
 FoFCou: FMM=F IPFlag=           0 FMFlag=      100000 FMFlg1=           0
         NFxFlg=           0 DoJE=F BraDBF=F KetDBF=F FulRan=T
         wScrn=  0.000000 ICntrl=         0 IOpCl=  1 I1Cent=           0 NGrid=           0
         NMat0=    1 NMatS0=      1 NMatT0=    0 NMatD0=    1 NMtDS0=    0 NMtDT0=    0
 Symmetry not used in FoFCou.
 E= -269.766215848933    
 DIIS: error= 2.78D-02 at cycle   1 NSaved=   1.
 NSaved= 1 IEnMin= 1 EnMin= -269.766215848933     IErMin= 1 ErrMin= 2.78D-02
 ErrMax= 2.78D-02  0.00D+00 EMaxC= 1.00D-01 BMatC= 8.89D-01 BMatP= 8.89D-01
 IDIUse=3 WtCom= 7.22D-01 WtEn= 2.78D-01
 Coeff-Com:  0.100D+01
 Coeff-En:   0.100D+01
 Coeff:      0.100D+01
 Gap=     0.336 Goal=   None    Shift=    0.000
 Gap=     0.333 Goal=   None    Shift=    0.000
 GapD=    0.333 DampG=1.000 DampE=0.500 DampFc=0.5000 IDamp=-1.
 Damping current iteration by 5.00D-01
 RMSDP=2.13D-03 MaxDP=8.95D-02              OVMax= 2.36D-01

 Cycle   2  Pass 1  IDiag  1:
 RMSU=  1.06D-03    CP:  9.98D-01
 E= -269.864887716598     Delta-E=       -0.098671867664 Rises=F Damp=T
 DIIS: error= 5.08D-03 at cycle   2 NSaved=   2.
 NSaved= 2 IEnMin= 2 EnMin= -269.864887716598     IErMin= 2 ErrMin= 5.08D-03
 ErrMax= 5.08D-03  0.00D+00 EMaxC= 1.00D-01 BMatC= 7.29D-02 BMatP= 8.89D-01
 IDIUse=3 WtCom= 9.49D-01 WtEn= 5.08D-02
 Coeff-Com: -0.871D-01 0.109D+01
 Coeff-En:   0.000D+00 0.100D+01
 Coeff:     -0.827D-01 0.108D+01
 Gap=     0.347 Goal=   None    Shift=    0.000
 Gap=     0.344 Goal=   None    Shift=    0.000
 RMSDP=5.16D-04 MaxDP=1.93D-02 DE=-9.87D-02 OVMax= 1.29D-01

 Cycle   3  Pass 1  IDiag  1:
 RMSU=  5.11D-04    CP:  1.00D+00  9.59D-01
 E= -269.961857086646     Delta-E=       -0.096969370048 Rises=F Damp=F
 DIIS: error= 3.99D-03 at cycle   3 NSaved=   3.
 NSaved= 3 IEnMin= 3 EnMin= -269.961857086646     IErMin= 3 ErrMin= 3.99D-03
 ErrMax= 3.99D-03  0.00D+00 EMaxC= 1.00D-01 BMatC= 2.10D-02 BMatP= 7.29D-02
 IDIUse=3 WtCom= 9.60D-01 WtEn= 3.99D-02
 Coeff-Com: -0.786D-01 0.366D+00 0.712D+00
 Coeff-En:   0.000D+00 0.000D+00 0.100D+01
 Coeff:     -0.755D-01 0.352D+00 0.724D+00
 Gap=     0.334 Goal=   None    Shift=    0.000
 Gap=     0.264 Goal=   None    Shift=    0.000
 RMSDP=2.32D-04 MaxDP=7.39D-03 DE=-9.70D-02 OVMax= 6.77D-02

 Cycle   4  Pass 1  IDiag  1:
 RMSU=  2.00D-04    CP:  1.00D+00  1.03D+00  8.31D-01
 E= -269.966159781830     Delta-E=       -0.004302695184 Rises=F Damp=F
 DIIS: error= 2.14D-03 at cycle   4 NSaved=   4.
 NSaved= 4 IEnMin= 4 EnMin= -269.966159781830     IErMin= 4 ErrMin= 2.14D-03
 ErrMax= 2.14D-03  0.00D+00 EMaxC= 1.00D-01 BMatC= 6.55D-03 BMatP= 2.10D-02
 IDIUse=3 WtCom= 9.79D-01 WtEn= 2.14D-02
 Coeff-Com: -0.274D-01 0.644D-01 0.379D+00 0.584D+00
 Coeff-En:   0.000D+00 0.000D+00 0.653D-01 0.935D+00
 Coeff:     -0.268D-01 0.630D-01 0.373D+00 0.591D+00
 Gap=     0.336 Goal=   None    Shift=    0.000
 Gap=     0.266 Goal=   None    Shift=    0.000
 RMSDP=9.70D-05 MaxDP=3.10D-03 DE=-4.30D-03 OVMax= 9.39D-03

 Cycle   5  Pass 1  IDiag  1:
 RMSU=  6.63D-05    CP:  1.00D+00  1.02D+00  9.49D-01  8.25D-01
 E= -269.967505327898     Delta-E=       -0.001345546068 Rises=F Damp=F
 DIIS: error= 4.67D-04 at cycle   5 NSaved=   5.
 NSaved= 5 IEnMin= 5 EnMin= -269.967505327898     IErMin= 5 ErrMin= 4.67D-04
 ErrMax= 4.67D-04  0.00D+00 EMaxC= 1.00D-01 BMatC= 2.37D-04 BMatP= 6.55D-03
 IDIUse=3 WtCom= 9.95D-01 WtEn= 4.67D-03
 Coeff-Com:  0.599D-02-0.263D-01-0.101D-02 0.489D-01 0.972D+00
 Coeff-En:   0.000D+00 0.000D+00 0.000D+00 0.000D+00 0.100D+01
 Coeff:      0.596D-02-0.262D-01-0.100D-02 0.486D-01 0.973D+00
 Gap=     0.336 Goal=   None    Shift=    0.000
 Gap=     0.270 Goal=   None    Shift=    0.000
 RMSDP=5.08D-05 MaxDP=1.59D-03 DE=-1.35D-03 OVMax= 1.51D-02

 Cycle   6  Pass 1  IDiag  1:
 RMSU=  2.56D-05    CP:  1.00D+00  1.02D+00  9.79D-01  9.79D-01  1.40D+00
 E= -269.967707625004     Delta-E=       -0.000202297106 Rises=F Damp=F
 DIIS: error= 2.47D-04 at cycle   6 NSaved=   6.
 NSaved= 6 IEnMin= 6 EnMin= -269.967707625004     IErMin= 6 ErrMin= 2.47D-04
 ErrMax= 2.47D-04  0.00D+00 EMaxC= 1.00D-01 BMatC= 8.96D-05 BMatP= 2.37D-04
 IDIUse=3 WtCom= 9.98D-01 WtEn= 2.47D-03
 Coeff-Com:  0.725D-02-0.170D-01-0.797D-01-0.180D+00 0.959D-01 0.117D+01
 Coeff-En:   0.000D+00 0.000D+00 0.000D+00 0.000D+00 0.000D+00 0.100D+01
 Coeff:      0.723D-02-0.169D-01-0.795D-01-0.179D+00 0.956D-01 0.117D+01
 Gap=     0.339 Goal=   None    Shift=    0.000
 Gap=     0.272 Goal=   None    Shift=    0.000
 RMSDP=4.37D-05 MaxDP=1.61D-03 DE=-2.02D-04 OVMax= 1.13D-02

 Cycle   7  Pass 1  IDiag  1:
 RMSU=  1.21D-05    CP:  1.00D+00  1.01D+00  1.00D+00  1.07D+00  1.89D+00
                    CP:  1.49D+00
 E= -269.967785851892     Delta-E=       -0.000078226888 Rises=F Damp=F
 DIIS: error= 9.70D-05 at cycle   7 NSaved=   7.
 NSaved= 7 IEnMin= 7 EnMin= -269.967785851892     IErMin= 7 ErrMin= 9.70D-05
 ErrMax= 9.70D-05  0.00D+00 EMaxC= 1.00D-01 BMatC= 1.57D-05 BMatP= 8.96D-05
 IDIUse=1 WtCom= 1.00D+00 WtEn= 0.00D+00
 Coeff-Com:  0.139D-02-0.872D-03-0.218D-01-0.729D-01-0.846D-01 0.430D+00
 Coeff-Com:  0.748D+00
 Coeff:      0.139D-02-0.872D-03-0.218D-01-0.729D-01-0.846D-01 0.430D+00
 Coeff:      0.748D+00
 Gap=     0.338 Goal=   None    Shift=    0.000
 Gap=     0.272 Goal=   None    Shift=    0.000
 RMSDP=1.16D-05 MaxDP=4.46D-04 DE=-7.82D-05 OVMax= 3.51D-03

 Cycle   8  Pass 1  IDiag  1:
 RMSU=  5.52D-06    CP:  1.00D+00  1.01D+00  1.01D+00  1.09D+00  2.00D+00
                    CP:  1.71D+00  1.15D+00
 E= -269.967795490519     Delta-E=       -0.000009638627 Rises=F Damp=F
 DIIS: error= 4.64D-05 at cycle   8 NSaved=   8.
 NSaved= 8 IEnMin= 8 EnMin= -269.967795490519     IErMin= 8 ErrMin= 4.64D-05
 ErrMax= 4.64D-05  0.00D+00 EMaxC= 1.00D-01 BMatC= 3.10D-06 BMatP= 1.57D-05
 IDIUse=1 WtCom= 1.00D+00 WtEn= 0.00D+00
 Coeff-Com: -0.135D-02 0.326D-02 0.171D-01 0.282D-01-0.224D-01-0.234D+00
 Coeff-Com:  0.752D-01 0.113D+01
 Coeff:     -0.135D-02 0.326D-02 0.171D-01 0.282D-01-0.224D-01-0.234D+00
 Coeff:      0.752D-01 0.113D+01
 Gap=     0.338 Goal=   None    Shift=    0.000
 Gap=     0.272 Goal=   None    Shift=    0.000
 RMSDP=8.96D-06 MaxDP=4.78D-04 DE=-9.64D-06 OVMax= 2.94D-03

 Cycle   9  Pass 1  IDiag  1:
 RMSU=  2.99D-06    CP:  1.00D+00  1.01D+00  1.01D+00  1.10D+00  2.08D+00
                    CP:  1.85D+00  1.50D+00  1.50D+00
 E= -269.967799247597     Delta-E=       -0.000003757078 Rises=F Damp=F
 DIIS: error= 2.82D-05 at cycle   9 NSaved=   9.
 NSaved= 9 IEnMin= 9 EnMin= -269.967799247597     IErMin= 9 ErrMin= 2.82D-05
 ErrMax= 2.82D-05  0.00D+00 EMaxC= 1.00D-01 BMatC= 1.41D-06 BMatP= 3.10D-06
 IDIUse=1 WtCom= 1.00D+00 WtEn= 0.00D+00
 Coeff-Com: -0.943D-03 0.194D-02 0.140D-01 0.280D-01 0.757D-02-0.208D+00
 Coeff-Com: -0.109D+00 0.593D+00 0.674D+00
 Coeff:     -0.943D-03 0.194D-02 0.140D-01 0.280D-01 0.757D-02-0.208D+00
 Coeff:     -0.109D+00 0.593D+00 0.674D+00
 Gap=     0.338 Goal=   None    Shift=    0.000
 Gap=     0.272 Goal=   None    Shift=    0.000
 RMSDP=3.72D-06 MaxDP=1.65D-04 DE=-3.76D-06 OVMax= 1.05D-03

 Cycle  10  Pass 1  IDiag  1:
 RMSU=  1.29D-06    CP:  1.00D+00  1.01D+00  1.01D+00  1.10D+00  2.10D+00
                    CP:  1.90D+00  1.64D+00  1.86D+00  1.20D+00
 E= -269.967800176585     Delta-E=       -0.000000928989 Rises=F Damp=F
 DIIS: error= 1.67D-05 at cycle  10 NSaved=  10.
 NSaved=10 IEnMin=10 EnMin= -269.967800176585     IErMin=10 ErrMin= 1.67D-05
 ErrMax= 1.67D-05  0.00D+00 EMaxC= 1.00D-01 BMatC= 2.59D-07 BMatP= 1.41D-06
 IDIUse=1 WtCom= 1.00D+00 WtEn= 0.00D+00
 Coeff-Com:  0.292D-03-0.788D-03-0.207D-02-0.293D-02 0.117D-01 0.187D-01
 Coeff-Com: -0.628D-01-0.231D+00 0.191D+00 0.108D+01
 Coeff:      0.292D-03-0.788D-03-0.207D-02-0.293D-02 0.117D-01 0.187D-01
 Coeff:     -0.628D-01-0.231D+00 0.191D+00 0.108D+01
 Gap=     0.339 Goal=   None    Shift=    0.000
 Gap=     0.272 Goal=   None    Shift=    0.000
 RMSDP=3.21D-06 MaxDP=2.03D-04 DE=-9.29D-07 OVMax= 9.76D-04

 Cycle  11  Pass 1  IDiag  1:
 RMSU=  7.69D-07    CP:  1.00D+00  1.01D+00  1.02D+00  1.10D+00  2.12D+00
                    CP:  1.94D+00  1.74D+00  2.15D+00  1.69D+00  1.53D+00
 E= -269.967800605770     Delta-E=       -0.000000429185 Rises=F Damp=F
 DIIS: error= 7.29D-06 at cycle  11 NSaved=  11.
 NSaved=11 IEnMin=11 EnMin= -269.967800605770     IErMin=11 ErrMin= 7.29D-06
 ErrMax= 7.29D-06  0.00D+00 EMaxC= 1.00D-01 BMatC= 4.91D-08 BMatP= 2.59D-07
 IDIUse=1 WtCom= 1.00D+00 WtEn= 0.00D+00
 Coeff-Com:  0.239D-03-0.511D-03-0.350D-02-0.657D-02-0.866D-04 0.502D-01
 Coeff-Com:  0.155D-01-0.173D+00-0.134D+00 0.153D+00 0.110D+01
 Coeff:      0.239D-03-0.511D-03-0.350D-02-0.657D-02-0.866D-04 0.502D-01
 Coeff:      0.155D-01-0.173D+00-0.134D+00 0.153D+00 0.110D+01
 Gap=     0.339 Goal=   None    Shift=    0.000
 Gap=     0.272 Goal=   None    Shift=    0.000
 RMSDP=1.60D-06 MaxDP=1.03D-04 DE=-4.29D-07 OVMax= 4.83D-04

 Cycle  12  Pass 1  IDiag  1:
 RMSU=  3.74D-07    CP:  1.00D+00  1.01D+00  1.02D+00  1.10D+00  2.13D+00
                    CP:  1.95D+00  1.78D+00  2.28D+00  1.98D+00  1.99D+00
                    CP:  1.52D+00
 E= -269.967800705136     Delta-E=       -0.000000099366 Rises=F Damp=F
 DIIS: error= 2.77D-06 at cycle  12 NSaved=  12.
 NSaved=12 IEnMin=12 EnMin= -269.967800705136     IErMin=12 ErrMin= 2.77D-06
 ErrMax= 2.77D-06  0.00D+00 EMaxC= 1.00D-01 BMatC= 1.01D-08 BMatP= 4.91D-08
 IDIUse=1 WtCom= 1.00D+00 WtEn= 0.00D+00
 Coeff-Com: -0.122D-03 0.289D-03 0.889D-03 0.188D-02-0.270D-02-0.102D-01
 Coeff-Com:  0.904D-02 0.799D-01-0.193D-01-0.260D+00-0.211D+00 0.141D+01
 Coeff:     -0.122D-03 0.289D-03 0.889D-03 0.188D-02-0.270D-02-0.102D-01
 Coeff:      0.904D-02 0.799D-01-0.193D-01-0.260D+00-0.211D+00 0.141D+01
 Gap=     0.339 Goal=   None    Shift=    0.000
 Gap=     0.272 Goal=   None    Shift=    0.000
 RMSDP=8.18D-07 MaxDP=4.90D-05 DE=-9.94D-08 OVMax= 2.90D-04

 Cycle  13  Pass 1  IDiag  1:
 RMSU=  1.35D-07    CP:  1.00D+00  1.01D+00  1.02D+00  1.10D+00  2.13D+00
                    CP:  1.95D+00  1.80D+00  2.34D+00  2.12D+00  2.24D+00
                    CP:  2.02D+00  1.75D+00
 E= -269.967800726013     Delta-E=       -0.000000020878 Rises=F Damp=F
 DIIS: error= 8.88D-07 at cycle  13 NSaved=  13.
 NSaved=13 IEnMin=13 EnMin= -269.967800726013     IErMin=13 ErrMin= 8.88D-07
 ErrMax= 8.88D-07  0.00D+00 EMaxC= 1.00D-01 BMatC= 1.08D-09 BMatP= 1.01D-08
 IDIUse=1 WtCom= 1.00D+00 WtEn= 0.00D+00
 Coeff-Com: -0.336D-04 0.778D-04 0.459D-03 0.918D-03-0.385D-03-0.695D-02
 Coeff-Com: -0.144D-02 0.261D-01 0.222D-01-0.374D-01-0.166D+00 0.463D-01
 Coeff-Com:  0.112D+01
 Coeff:     -0.336D-04 0.778D-04 0.459D-03 0.918D-03-0.385D-03-0.695D-02
 Coeff:     -0.144D-02 0.261D-01 0.222D-01-0.374D-01-0.166D+00 0.463D-01
 Coeff:      0.112D+01
 Gap=     0.339 Goal=   None    Shift=    0.000
 Gap=     0.272 Goal=   None    Shift=    0.000
 RMSDP=2.48D-07 MaxDP=1.22D-05 DE=-2.09D-08 OVMax= 8.76D-05

 Cycle  14  Pass 1  IDiag  1:
 RMSU=  5.15D-08    CP:  1.00D+00  1.01D+00  1.02D+00  1.10D+00  2.13D+00
                    CP:  1.96D+00  1.80D+00  2.35D+00  2.16D+00  2.31D+00
                    CP:  2.18D+00  2.07D+00  1.40D+00
 E= -269.967800727833     Delta-E=       -0.000000001819 Rises=F Damp=F
 DIIS: error= 3.57D-07 at cycle  14 NSaved=  14.
 NSaved=14 IEnMin=14 EnMin= -269.967800727833     IErMin=14 ErrMin= 3.57D-07
 ErrMax= 3.57D-07  0.00D+00 EMaxC= 1.00D-01 BMatC= 1.97D-10 BMatP= 1.08D-09
 IDIUse=1 WtCom= 1.00D+00 WtEn= 0.00D+00
 Coeff-Com:  0.879D-05-0.195D-04-0.160D-04-0.108D-04 0.172D-03-0.199D-03
 Coeff-Com: -0.128D-02-0.448D-02 0.898D-02 0.239D-01-0.112D-01-0.176D+00
 Coeff-Com:  0.265D+00 0.895D+00
 Coeff:      0.879D-05-0.195D-04-0.160D-04-0.108D-04 0.172D-03-0.199D-03
 Coeff:     -0.128D-02-0.448D-02 0.898D-02 0.239D-01-0.112D-01-0.176D+00
 Coeff:      0.265D+00 0.895D+00
 Gap=     0.339 Goal=   None    Shift=    0.000
 Gap=     0.272 Goal=   None    Shift=    0.000
 RMSDP=5.97D-08 MaxDP=2.04D-06 DE=-1.82D-09 OVMax= 1.93D-05

 Cycle  15  Pass 1  IDiag  1:
 RMSU=  1.85D-08    CP:  1.00D+00  1.01D+00  1.02D+00  1.10D+00  2.13D+00
                    CP:  1.96D+00  1.80D+00  2.35D+00  2.16D+00  2.32D+00
                    CP:  2.22D+00  2.15D+00  1.60D+00  1.20D+00
 E= -269.967800727966     Delta-E=       -0.000000000134 Rises=F Damp=F
 DIIS: error= 1.64D-07 at cycle  15 NSaved=  15.
 NSaved=15 IEnMin=15 EnMin= -269.967800727966     IErMin=15 ErrMin= 1.64D-07
 ErrMax= 1.64D-07  0.00D+00 EMaxC= 1.00D-01 BMatC= 3.48D-11 BMatP= 1.97D-10
 IDIUse=1 WtCom= 1.00D+00 WtEn= 0.00D+00
 Coeff-Com:  0.729D-05-0.165D-04-0.749D-04-0.121D-03 0.903D-04 0.102D-02
 Coeff-Com: -0.222D-03-0.543D-02-0.139D-03 0.133D-01 0.209D-01-0.650D-01
 Coeff-Com: -0.781D-01 0.245D+00 0.869D+00
 Coeff:      0.729D-05-0.165D-04-0.749D-04-0.121D-03 0.903D-04 0.102D-02
 Coeff:     -0.222D-03-0.543D-02-0.139D-03 0.133D-01 0.209D-01-0.650D-01
 Coeff:     -0.781D-01 0.245D+00 0.869D+00
 Gap=     0.339 Goal=   None    Shift=    0.000
 Gap=     0.272 Goal=   None    Shift=    0.000
 RMSDP=2.12D-08 MaxDP=6.96D-07 DE=-1.34D-10 OVMax= 5.61D-06

 Cycle  16  Pass 1  IDiag  1:
 RMSU=  6.99D-09    CP:  1.00D+00  1.01D+00  1.02D+00  1.10D+00  2.13D+00
                    CP:  1.96D+00  1.80D+00  2.35D+00  2.16D+00  2.32D+00
                    CP:  2.23D+00  2.18D+00  1.66D+00  1.37D+00  1.19D+00
 E= -269.967800727988     Delta-E=       -0.000000000022 Rises=F Damp=F
 DIIS: error= 4.70D-08 at cycle  16 NSaved=  16.
 NSaved=16 IEnMin=16 EnMin= -269.967800727988     IErMin=16 ErrMin= 4.70D-08
 ErrMax= 4.70D-08  0.00D+00 EMaxC= 1.00D-01 BMatC= 3.62D-12 BMatP= 3.48D-11
 IDIUse=1 WtCom= 1.00D+00 WtEn= 0.00D+00
 Coeff-Com: -0.666D-06 0.117D-05-0.793D-05-0.719D-05-0.133D-04 0.161D-03
 Coeff-Com:  0.837D-04-0.140D-03-0.104D-02-0.125D-02 0.417D-02 0.128D-01
 Coeff-Com: -0.399D-01-0.932D-01 0.115D+00 0.100D+01
 Coeff:     -0.666D-06 0.117D-05-0.793D-05-0.719D-05-0.133D-04 0.161D-03
 Coeff:      0.837D-04-0.140D-03-0.104D-02-0.125D-02 0.417D-02 0.128D-01
 Coeff:     -0.399D-01-0.932D-01 0.115D+00 0.100D+01
 Gap=     0.339 Goal=   None    Shift=    0.000
 Gap=     0.272 Goal=   None    Shift=    0.000
 RMSDP=7.28D-09 MaxDP=2.58D-07 DE=-2.18D-11 OVMax= 1.47D-06

 SCF Done:  E(UM062X) =  -269.967800728     A.U. after   16 cycles
            NFock= 16  Conv=0.73D-08     -V/T= 2.0058
 <Sx>= 0.0000 <Sy>= 0.0000 <Sz>= 0.5000 <S**2>= 0.7602 S= 0.5051
 <L.S>= 0.000000000000E+00
 KE= 2.684009345824D+02 PE=-9.946851010820D+02 EE= 2.749175653574D+02
 Annihilation of the first spin contaminant:
 S**2 before annihilation     0.7602,   after     0.7500
 Leave Link  502 at Thu Sep  5 10:21:11 2019, MaxMem=   671088640 cpu:            1484.0 elap:             742.9
 (Enter /shared/centos7/gaussian/g16/l601.exe)
 Copying SCF densities to generalized density rwf, IOpCl= 1 IROHF=0.

 **********************************************************************

            Population analysis using the SCF density.

 **********************************************************************

 Orbital symmetries:
 Alpha Orbitals:
       Occupied  (A) (A) (A) (A) (A) (A) (A) (A) (A) (A) (A) (A)
                 (A) (A) (A) (A) (A) (A) (A) (A) (A) (A)
       Virtual   (A) (A) (A) (A) (A) (A) (A) (A) (A) (A) (A) (A)
                 (A) (A) (A) (A) (A) (A) (A) (A) (A) (A) (A) (A)
                 (A) (A) (A) (A) (A) (A) (A) (A) (A) (A) (A) (A)
                 (A) (A) (A) (A) (A) (A) (A) (A) (A) (A) (A) (A)
                 (A) (A) (A) (A) (A) (A) (A) (A) (A) (A) (A) (A)
                 (A) (A) (A) (A) (A) (A) (A) (A) (A) (A) (A) (A)
                 (A) (A) (A) (A) (A) (A) (A) (A) (A) (A) (A) (A)
                 (A) (A) (A) (A) (A) (A) (A) (A) (A) (A) (A) (A)
                 (A) (A) (A) (A) (A) (A) (A) (A) (A) (A) (A) (A)
                 (A) (A) (A) (A) (A) (A) (A) (A) (A) (A) (A) (A)
                 (A) (A) (A) (A) (A) (A) (A) (A) (A) (A) (A) (A)
                 (A) (A) (A) (A) (A) (A) (A) (A) (A) (A) (A) (A)
                 (A) (A) (A) (A) (A) (A) (A) (A) (A) (A) (A) (A)
                 (A) (A) (A) (A) (A) (A) (A) (A) (A) (A) (A) (A)
                 (A) (A) (A) (A) (A) (A) (A) (A) (A) (A) (A) (A)
                 (A) (A) (A) (A) (A) (A) (A) (A) (A) (A) (A) (A)
                 (A) (A) (A) (A) (A) (A) (A) (A) (A) (A) (A) (A)
                 (A) (A) (A) (A) (A) (A) (A) (A) (A) (A) (A) (A)
                 (A) (A) (A) (A) (A) (A) (A) (A) (A) (A) (A) (A)
                 (A) (A) (A) (A) (A) (A) (A) (A) (A) (A) (A) (A)
                 (A) (A) (A) (A) (A) (A) (A) (A) (A) (A) (A) (A)
                 (A) (A)
 Beta  Orbitals:
       Occupied  (A) (A) (A) (A) (A) (A) (A) (A) (A) (A) (A) (A)
                 (A) (A) (A) (A) (A) (A) (A) (A) (A)
       Virtual   (A) (A) (A) (A) (A) (A) (A) (A) (A) (A) (A) (A)
                 (A) (A) (A) (A) (A) (A) (A) (A) (A) (A) (A) (A)
                 (A) (A) (A) (A) (A) (A) (A) (A) (A) (A) (A) (A)
                 (A) (A) (A) (A) (A) (A) (A) (A) (A) (A) (A) (A)
                 (A) (A) (A) (A) (A) (A) (A) (A) (A) (A) (A) (A)
                 (A) (A) (A) (A) (A) (A) (A) (A) (A) (A) (A) (A)
                 (A) (A) (A) (A) (A) (A) (A) (A) (A) (A) (A) (A)
                 (A) (A) (A) (A) (A) (A) (A) (A) (A) (A) (A) (A)
                 (A) (A) (A) (A) (A) (A) (A) (A) (A) (A) (A) (A)
                 (A) (A) (A) (A) (A) (A) (A) (A) (A) (A) (A) (A)
                 (A) (A) (A) (A) (A) (A) (A) (A) (A) (A) (A) (A)
                 (A) (A) (A) (A) (A) (A) (A) (A) (A) (A) (A) (A)
                 (A) (A) (A) (A) (A) (A) (A) (A) (A) (A) (A) (A)
                 (A) (A) (A) (A) (A) (A) (A) (A) (A) (A) (A) (A)
                 (A) (A) (A) (A) (A) (A) (A) (A) (A) (A) (A) (A)
                 (A) (A) (A) (A) (A) (A) (A) (A) (A) (A) (A) (A)
                 (A) (A) (A) (A) (A) (A) (A) (A) (A) (A) (A) (A)
                 (A) (A) (A) (A) (A) (A) (A) (A) (A) (A) (A) (A)
                 (A) (A) (A) (A) (A) (A) (A) (A) (A) (A) (A) (A)
                 (A) (A) (A) (A) (A) (A) (A) (A) (A) (A) (A) (A)
                 (A) (A) (A) (A) (A) (A) (A) (A) (A) (A) (A) (A)
                 (A) (A) (A)
 The electronic state is 2-A.
 Alpha  occ. eigenvalues --  -19.69518 -19.68511 -10.55280 -10.54811 -10.53514
 Alpha  occ. eigenvalues --   -1.31393  -0.97809  -0.88653  -0.77560  -0.67936
 Alpha  occ. eigenvalues --   -0.63824  -0.59301  -0.54423  -0.52670  -0.51363
 Alpha  occ. eigenvalues --   -0.47050  -0.42923  -0.40984  -0.40348  -0.39316
 Alpha  occ. eigenvalues --   -0.36790  -0.28913
 Alpha virt. eigenvalues --    0.04938   0.07666   0.10624   0.11112   0.12926
 Alpha virt. eigenvalues --    0.13616   0.15157   0.16479   0.18877   0.20933
 Alpha virt. eigenvalues --    0.23457   0.25912   0.28691   0.29572   0.30876
 Alpha virt. eigenvalues --    0.31733   0.33544   0.37277   0.41560   0.43267
 Alpha virt. eigenvalues --    0.44915   0.45969   0.47867   0.48689   0.49585
 Alpha virt. eigenvalues --    0.50345   0.51057   0.51907   0.52777   0.54056
 Alpha virt. eigenvalues --    0.56637   0.57109   0.59078   0.61512   0.64838
 Alpha virt. eigenvalues --    0.65917   0.69302   0.70478   0.72330   0.75744
 Alpha virt. eigenvalues --    0.76690   0.79428   0.81652   0.82528   0.84247
 Alpha virt. eigenvalues --    0.87232   0.92171   0.93573   0.95255   0.97874
 Alpha virt. eigenvalues --    1.01395   1.03974   1.05645   1.08265   1.08812
 Alpha virt. eigenvalues --    1.11131   1.12378   1.13208   1.15361   1.16466
 Alpha virt. eigenvalues --    1.17822   1.20409   1.20975   1.22201   1.25946
 Alpha virt. eigenvalues --    1.27639   1.30971   1.31292   1.32932   1.35427
 Alpha virt. eigenvalues --    1.36360   1.39375   1.40973   1.42726   1.44529
 Alpha virt. eigenvalues --    1.46440   1.49808   1.50952   1.52949   1.56944
 Alpha virt. eigenvalues --    1.58022   1.59086   1.64913   1.70150   1.74819
 Alpha virt. eigenvalues --    1.79072   1.95234   1.97296   2.02260   2.12324
 Alpha virt. eigenvalues --    2.20253   2.21497   2.25156   2.25464   2.28762
 Alpha virt. eigenvalues --    2.30570   2.34207   2.36922   2.41464   2.45383
 Alpha virt. eigenvalues --    2.48369   2.50832   2.52823   2.55061   2.56682
 Alpha virt. eigenvalues --    2.62275   2.63875   2.66213   2.67773   2.73393
 Alpha virt. eigenvalues --    2.78146   2.78420   2.79758   2.83337   2.84106
 Alpha virt. eigenvalues --    2.88607   2.90000   2.91936   2.92468   2.99541
 Alpha virt. eigenvalues --    3.02571   3.03004   3.04266   3.04318   3.09209
 Alpha virt. eigenvalues --    3.09566   3.11342   3.12594   3.14777   3.15883
 Alpha virt. eigenvalues --    3.19285   3.20526   3.23560   3.25792   3.27053
 Alpha virt. eigenvalues --    3.28095   3.28702   3.30884   3.34619   3.35144
 Alpha virt. eigenvalues --    3.38184   3.39340   3.42350   3.43545   3.44989
 Alpha virt. eigenvalues --    3.47193   3.50075   3.52687   3.54817   3.58729
 Alpha virt. eigenvalues --    3.64346   3.65391   3.68442   3.69112   3.70813
 Alpha virt. eigenvalues --    3.72717   3.73620   3.73803   3.75552   3.75873
 Alpha virt. eigenvalues --    3.77204   3.77476   3.80307   3.82776   3.85052
 Alpha virt. eigenvalues --    3.86069   3.89584   3.90026   3.92797   3.93551
 Alpha virt. eigenvalues --    3.96414   3.97753   4.00327   4.01736   4.03831
 Alpha virt. eigenvalues --    4.04650   4.05952   4.07784   4.09199   4.13540
 Alpha virt. eigenvalues --    4.14655   4.17215   4.20077   4.20676   4.22158
 Alpha virt. eigenvalues --    4.25732   4.27049   4.32584   4.37310   4.38807
 Alpha virt. eigenvalues --    4.41671   4.45855   4.50526   4.54425   4.59492
 Alpha virt. eigenvalues --    4.65682   4.68763   4.72618   4.73856   4.76045
 Alpha virt. eigenvalues --    4.77441   4.81277   4.82597   4.86064   4.88295
 Alpha virt. eigenvalues --    4.89644   4.93833   4.97067   4.98646   5.04158
 Alpha virt. eigenvalues --    5.05768   5.11108   5.12356   5.14055   5.18966
 Alpha virt. eigenvalues --    5.20906   5.22183   5.23445   5.25391   5.30298
 Alpha virt. eigenvalues --    5.32332   5.36547   5.39525   5.42446   5.50356
 Alpha virt. eigenvalues --    5.68439   5.74953   5.77427   5.79440   5.83242
 Alpha virt. eigenvalues --    5.88802   6.00903   6.16859   6.25863   6.30334
 Alpha virt. eigenvalues --    6.34139   6.42658   6.43759   6.50292   6.54430
 Alpha virt. eigenvalues --    6.57311   6.62837   6.77670   6.84027   6.88699
 Alpha virt. eigenvalues --    7.22122   7.28162   7.50526   7.66672   9.96569
 Alpha virt. eigenvalues --   11.62206  11.87164  12.39307  13.08092
  Beta  occ. eigenvalues --  -19.69269 -19.67540 -10.54827 -10.54739 -10.53509
  Beta  occ. eigenvalues --   -1.29555  -0.95241  -0.87962  -0.76386  -0.66690
  Beta  occ. eigenvalues --   -0.62516  -0.55867  -0.52775  -0.51511  -0.50719
  Beta  occ. eigenvalues --   -0.46517  -0.41880  -0.40478  -0.39987  -0.36059
  Beta  occ. eigenvalues --   -0.34325
  Beta virt. eigenvalues --   -0.07093   0.04853   0.07617   0.10580   0.11199
  Beta virt. eigenvalues --    0.12746   0.13719   0.15245   0.16675   0.19121
  Beta virt. eigenvalues --    0.21744   0.24165   0.26202   0.28661   0.29612
  Beta virt. eigenvalues --    0.31218   0.31909   0.33968   0.37413   0.41660
  Beta virt. eigenvalues --    0.43611   0.45119   0.45976   0.48186   0.49023
  Beta virt. eigenvalues --    0.50589   0.50744   0.51319   0.52245   0.52875
  Beta virt. eigenvalues --    0.54839   0.56858   0.57837   0.59532   0.61884
  Beta virt. eigenvalues --    0.65096   0.66451   0.69488   0.70645   0.72586
  Beta virt. eigenvalues --    0.75817   0.76819   0.79568   0.81921   0.82624
  Beta virt. eigenvalues --    0.84585   0.87355   0.92333   0.93586   0.95261
  Beta virt. eigenvalues --    0.97933   1.01434   1.04034   1.05648   1.08329
  Beta virt. eigenvalues --    1.08881   1.11477   1.12780   1.13379   1.15809
  Beta virt. eigenvalues --    1.16733   1.17903   1.20576   1.21097   1.23040
  Beta virt. eigenvalues --    1.26029   1.27981   1.31001   1.31838   1.33480
  Beta virt. eigenvalues --    1.35500   1.36467   1.39589   1.41142   1.43005
  Beta virt. eigenvalues --    1.44760   1.46690   1.50407   1.51101   1.53388
  Beta virt. eigenvalues --    1.57016   1.58652   1.59392   1.65457   1.70551
  Beta virt. eigenvalues --    1.75430   1.80585   1.95855   1.97835   2.02750
  Beta virt. eigenvalues --    2.13309   2.20041   2.21629   2.25312   2.25896
  Beta virt. eigenvalues --    2.29242   2.31291   2.34783   2.37455   2.42143
  Beta virt. eigenvalues --    2.45506   2.48708   2.51446   2.52950   2.55187
  Beta virt. eigenvalues --    2.57577   2.63152   2.64359   2.67371   2.67830
  Beta virt. eigenvalues --    2.73268   2.78302   2.78965   2.80716   2.83693
  Beta virt. eigenvalues --    2.84525   2.89819   2.91436   2.92566   2.93786
  Beta virt. eigenvalues --    3.01189   3.03591   3.03694   3.05029   3.05613
  Beta virt. eigenvalues --    3.09607   3.10657   3.12012   3.14092   3.15856
  Beta virt. eigenvalues --    3.16094   3.19671   3.21055   3.23772   3.26087
  Beta virt. eigenvalues --    3.27716   3.28735   3.29196   3.31400   3.35179
  Beta virt. eigenvalues --    3.35818   3.38963   3.39765   3.42904   3.43960
  Beta virt. eigenvalues --    3.45172   3.47477   3.50339   3.53249   3.55588
  Beta virt. eigenvalues --    3.59192   3.64752   3.65785   3.68697   3.69374
  Beta virt. eigenvalues --    3.71097   3.72967   3.74014   3.74113   3.75712
  Beta virt. eigenvalues --    3.76138   3.77642   3.77841   3.80662   3.82949
  Beta virt. eigenvalues --    3.85120   3.86491   3.89928   3.90323   3.93174
  Beta virt. eigenvalues --    3.93718   3.96598   3.97967   4.00735   4.01799
  Beta virt. eigenvalues --    4.04430   4.04929   4.06504   4.08159   4.09949
  Beta virt. eigenvalues --    4.13922   4.14964   4.17990   4.20511   4.20730
  Beta virt. eigenvalues --    4.22367   4.25979   4.27538   4.32985   4.37880
  Beta virt. eigenvalues --    4.39440   4.42207   4.46259   4.51316   4.55489
  Beta virt. eigenvalues --    4.60306   4.66029   4.69049   4.73018   4.74209
  Beta virt. eigenvalues --    4.76322   4.77757   4.81802   4.83675   4.86445
  Beta virt. eigenvalues --    4.89181   4.90494   4.94658   4.98023   4.99528
  Beta virt. eigenvalues --    5.05208   5.06409   5.11812   5.13002   5.14651
  Beta virt. eigenvalues --    5.19455   5.21151   5.22272   5.24429   5.25847
  Beta virt. eigenvalues --    5.31271   5.32553   5.38024   5.40838   5.42912
  Beta virt. eigenvalues --    5.52613   5.68958   5.76887   5.78622   5.81210
  Beta virt. eigenvalues --    5.83913   5.89190   6.01532   6.18606   6.26338
  Beta virt. eigenvalues --    6.31066   6.34302   6.43283   6.44610   6.51545
  Beta virt. eigenvalues --    6.55600   6.59576   6.65429   6.78927   6.84453
  Beta virt. eigenvalues --    6.89965   7.22010   7.29322   7.50831   7.66795
  Beta virt. eigenvalues --    9.97252  11.62571  11.88137  12.39972  13.08094
          Condensed to atoms (all electrons):
               1          2          3          4          5          6
     1  O    7.894636   0.026459  -0.000232  -0.001103  -0.000125   0.000350
     2  O    0.026459   8.123663   0.004185  -0.090479  -0.000015  -0.000071
     3  C   -0.000232   0.004185   5.035486   0.289553   0.317206   0.401982
     4  C   -0.001103  -0.090479   0.289553   5.288219  -0.059711  -0.044486
     5  C   -0.000125  -0.000015   0.317206  -0.059711   4.950467  -0.039660
     6  H    0.000350  -0.000071   0.401982  -0.044486  -0.039660   0.606778
     7  H   -0.000020  -0.000238   0.391071  -0.033013  -0.043088  -0.040348
     8  H   -0.016472   0.180066  -0.024644   0.235539  -0.002078  -0.004195
     9  H    0.000940   0.000145  -0.036851   0.379711   0.007393  -0.003345
    10  H    0.000943  -0.000318  -0.041988   0.393052  -0.003989   0.007381
    11  H   -0.000111   0.002104  -0.040025  -0.000591   0.396014  -0.006312
    12  H   -0.000001   0.000004  -0.038238   0.007440   0.404423  -0.005731
    13  H   -0.000003   0.000033  -0.038026  -0.004681   0.401004   0.007907
    14  H    0.310987  -0.045312   0.000388   0.000888   0.000086   0.000037
               7          8          9         10         11         12
     1  O   -0.000020  -0.016472   0.000940   0.000943  -0.000111  -0.000001
     2  O   -0.000238   0.180066   0.000145  -0.000318   0.002104   0.000004
     3  C    0.391071  -0.024644  -0.036851  -0.041988  -0.040025  -0.038238
     4  C   -0.033013   0.235539   0.379711   0.393052  -0.000591   0.007440
     5  C   -0.043088  -0.002078   0.007393  -0.003989   0.396014   0.404423
     6  H   -0.040348  -0.004195  -0.003345   0.007381  -0.006312  -0.005731
     7  H    0.613459   0.003374  -0.007472  -0.004347   0.008020  -0.005793
     8  H    0.003374   0.447497  -0.006048  -0.017129   0.003300   0.000091
     9  H   -0.007472  -0.006048   0.559512  -0.029000   0.000004  -0.000363
    10  H   -0.004347  -0.017129  -0.029000   0.553846  -0.000591  -0.000129
    11  H    0.008020   0.003300   0.000004  -0.000591   0.596881  -0.032128
    12  H   -0.005793   0.000091  -0.000363  -0.000129  -0.032128   0.588725
    13  H   -0.006734  -0.000560  -0.000091   0.003977  -0.035946  -0.030500
    14  H   -0.000007  -0.010040  -0.000100   0.000048  -0.000217  -0.000003
              13         14
     1  O   -0.000003   0.310987
     2  O    0.000033  -0.045312
     3  C   -0.038026   0.000388
     4  C   -0.004681   0.000888
     5  C    0.401004   0.000086
     6  H    0.007907   0.000037
     7  H   -0.006734  -0.000007
     8  H   -0.000560  -0.010040
     9  H   -0.000091  -0.000100
    10  H    0.003977   0.000048
    11  H   -0.035946  -0.000217
    12  H   -0.030500  -0.000003
    13  H    0.591543   0.000002
    14  H    0.000002   0.482459
          Atomic-Atomic Spin Densities.
               1          2          3          4          5          6
     1  O    0.126278  -0.067104  -0.000883   0.015454  -0.000044  -0.000143
     2  O   -0.067104   0.583807   0.007181  -0.104515   0.000674   0.000603
     3  C   -0.000883   0.007181  -0.022895  -0.039389   0.007295   0.005313
     4  C    0.015454  -0.104515  -0.039389   0.694416  -0.005384  -0.007166
     5  C   -0.000044   0.000674   0.007295  -0.005384   0.002348   0.002641
     6  H   -0.000143   0.000603   0.005313  -0.007166   0.002641   0.010811
     7  H    0.000049  -0.000508   0.006858  -0.013137  -0.003992  -0.005231
     8  H    0.013439  -0.039279  -0.005730   0.066423  -0.000546  -0.000545
     9  H   -0.000963   0.003735   0.007524  -0.009924  -0.000055   0.000860
    10  H   -0.000316   0.001959   0.005308  -0.007478   0.000176  -0.000147
    11  H    0.000088  -0.000976  -0.000917   0.003066  -0.001977  -0.000649
    12  H   -0.000000   0.000001   0.000414   0.000040  -0.000145   0.000075
    13  H   -0.000003   0.000086   0.000345  -0.000194   0.000492   0.000145
    14  H    0.000928  -0.000112  -0.000033  -0.000105  -0.000010  -0.000006
               7          8          9         10         11         12
     1  O    0.000049   0.013439  -0.000963  -0.000316   0.000088  -0.000000
     2  O   -0.000508  -0.039279   0.003735   0.001959  -0.000976   0.000001
     3  C    0.006858  -0.005730   0.007524   0.005308  -0.000917   0.000414
     4  C   -0.013137   0.066423  -0.009924  -0.007478   0.003066   0.000040
     5  C   -0.003992  -0.000546  -0.000055   0.000176  -0.001977  -0.000145
     6  H   -0.005231  -0.000545   0.000860  -0.000147  -0.000649   0.000075
     7  H    0.056788   0.000716  -0.002334  -0.000685   0.000827   0.000147
     8  H    0.000716  -0.063719  -0.001439   0.002067   0.000596   0.000032
     9  H   -0.002334  -0.001439  -0.024406   0.002901  -0.000104   0.000012
    10  H   -0.000685   0.002067   0.002901  -0.031592  -0.000167  -0.000005
    11  H    0.000827   0.000596  -0.000104  -0.000167   0.002987  -0.000107
    12  H    0.000147   0.000032   0.000012  -0.000005  -0.000107  -0.000680
    13  H   -0.001059  -0.000195   0.000067   0.000107  -0.000735   0.000158
    14  H    0.000002   0.000772  -0.000008  -0.000003   0.000023  -0.000000
              13         14
     1  O   -0.000003   0.000928
     2  O    0.000086  -0.000112
     3  C    0.000345  -0.000033
     4  C   -0.000194  -0.000105
     5  C    0.000492  -0.000010
     6  H    0.000145  -0.000006
     7  H   -0.001059   0.000002
     8  H   -0.000195   0.000772
     9  H    0.000067  -0.000008
    10  H    0.000107  -0.000003
    11  H   -0.000735   0.000023
    12  H    0.000158  -0.000000
    13  H    0.001141  -0.000000
    14  H   -0.000000  -0.005596
 Mulliken charges and spin densities:
               1          2
     1  O   -0.216250   0.086780
     2  O   -0.200226   0.385552
     3  C   -0.219868  -0.029609
     4  C   -0.360338   0.592109
     5  C   -0.327928   0.001475
     6  H    0.119713   0.006562
     7  H    0.125134   0.038442
     8  H    0.211298  -0.027409
     9  H    0.135565  -0.024132
    10  H    0.138242  -0.027876
    11  H    0.109596   0.001956
    12  H    0.112202  -0.000057
    13  H    0.112074   0.000355
    14  H    0.260784  -0.004148
 Sum of Mulliken charges =  -0.00000   1.00000
 Mulliken charges and spin densities with hydrogens summed into heavy atoms:
               1          2
     1  O    0.044534   0.082631
     2  O    0.011072   0.358143
     3  C    0.024980   0.015395
     4  C   -0.086530   0.540101
     5  C    0.005945   0.003730
 Electronic spatial extent (au):  <R**2>=            737.0680
 Charge=             -0.0000 electrons
 Dipole moment (field-independent basis, Debye):
    X=              1.4356    Y=             -0.3805    Z=              1.6893  Tot=              2.2494
 Quadrupole moment (field-independent basis, Debye-Ang):
   XX=            -35.3069   YY=            -32.0773   ZZ=            -31.3840
   XY=              2.7627   XZ=             -3.8486   YZ=             -2.0822
 Traceless Quadrupole moment (field-independent basis, Debye-Ang):
   XX=             -2.3841   YY=              0.8454   ZZ=              1.5387
   XY=              2.7627   XZ=             -3.8486   YZ=             -2.0822
 Octapole moment (field-independent basis, Debye-Ang**2):
  XXX=             -9.3342  YYY=             -1.2853  ZZZ=              2.1821  XYY=             -8.9125
  XXY=             -6.8994  XXZ=              8.4893  XZZ=             -9.1719  YZZ=             -2.5464
  YYZ=              2.1187  XYZ=              3.8978
 Hexadecapole moment (field-independent basis, Debye-Ang**3):
 XXXX=           -717.0905 YYYY=           -153.8396 ZZZZ=            -77.8284 XXXY=             24.2758
 XXXZ=            -17.6886 YYYX=              9.5779 YYYZ=             -1.1422 ZZZX=            -11.0976
 ZZZY=             -2.9958 XXYY=           -137.8054 XXZZ=           -119.3904 YYZZ=            -39.9674
 XXYZ=            -11.6092 YYXZ=             -3.7748 ZZXY=              5.6351
 N-N= 1.813988004142D+02 E-N=-9.946851031701D+02  KE= 2.684009345824D+02
                          Isotropic Fermi Contact Couplings
        Atom                 a.u.       MegaHertz       Gauss      10(-4) cm-1
     1  O(17)              0.00636      -3.85550      -1.37574      -1.28605
     2  O(17)              0.12555     -76.10730     -27.15698     -25.38666
     3  C(13)             -0.00637      -7.16569      -2.55690      -2.39022
     4  C(13)              0.21121     237.44418      84.72599      79.20285
     5  C(13)              0.00360       4.04963       1.44501       1.35081
     6  H(1)               0.00370      16.52631       5.89700       5.51258
     7  H(1)               0.01854      82.84958      29.56279      27.63564
     8  H(1)              -0.03564    -159.30504     -56.84400     -53.13844
     9  H(1)              -0.00364     -16.26200      -5.80269      -5.42442
    10  H(1)              -0.00665     -29.71801     -10.60413      -9.91286
    11  H(1)               0.00001       0.06629       0.02365       0.02211
    12  H(1)              -0.00034      -1.53280      -0.54694      -0.51129
    13  H(1)              -0.00012      -0.54624      -0.19491      -0.18221
    14  H(1)              -0.00212      -9.48854      -3.38575      -3.16504
 --------------------------------------------------------
       Center         ----  Spin Dipole Couplings  ----
                      3XX-RR        3YY-RR        3ZZ-RR
 --------------------------------------------------------
     1   Atom        0.203133     -0.019229     -0.183905
     2   Atom        0.275629      0.106196     -0.381825
     3   Atom        0.035083     -0.017410     -0.017673
     4   Atom        0.242108      0.030322     -0.272430
     5   Atom        0.003103      0.002332     -0.005436
     6   Atom       -0.000503     -0.006747      0.007250
     7   Atom        0.008304     -0.001613     -0.006691
     8   Atom        0.123568     -0.027979     -0.095589
     9   Atom       -0.010356      0.038958     -0.028602
    10   Atom       -0.017957     -0.025875      0.043832
    11   Atom        0.000655      0.004178     -0.004833
    12   Atom        0.002091      0.000420     -0.002512
    13   Atom        0.002778     -0.000075     -0.002703
    14   Atom       -0.007699     -0.003252      0.010951
 --------------------------------------------------------
                        XY            XZ            YZ
 --------------------------------------------------------
     1   Atom        0.341610      0.212051      0.110806
     2   Atom        1.178192      0.886575      0.812903
     3   Atom        0.005958      0.007759     -0.000688
     4   Atom        0.444610     -0.161320     -0.123575
     5   Atom       -0.007584      0.000258      0.001492
     6   Atom       -0.001043      0.009186     -0.002980
     7   Atom        0.004290      0.003150     -0.001843
     8   Atom        0.150079      0.041156      0.020995
     9   Atom       -0.008230     -0.014389      0.019499
    10   Atom        0.016268     -0.010772     -0.000375
    11   Atom       -0.005136      0.001179     -0.001085
    12   Atom       -0.002903      0.001024     -0.000768
    13   Atom       -0.003913     -0.002474      0.002282
    14   Atom        0.005354     -0.003800     -0.019049
 --------------------------------------------------------


 ---------------------------------------------------------------------------------
              Anisotropic Spin Dipole Couplings in Principal Axis System
 ---------------------------------------------------------------------------------

       Atom             a.u.   MegaHertz   Gauss  10(-4) cm-1        Axes

              Baa    -0.2982    21.576     7.699     7.197 -0.5966  0.4731  0.6483
     1 O(17)  Bbb    -0.2317    16.764     5.982     5.592  0.2050 -0.6912  0.6930
              Bcc     0.5299   -38.340   -13.681   -12.789  0.7759  0.5464  0.3153
 
              Baa    -1.0000    72.358    25.819    24.136  0.6889 -0.2282 -0.6880
     2 O(17)  Bbb    -0.9838    71.184    25.400    23.744 -0.3137  0.7618 -0.5668
              Bcc     1.9837  -143.542   -51.219   -47.880  0.6534  0.6063  0.4532
 
              Baa    -0.0200    -2.681    -0.957    -0.894 -0.1749  0.6121  0.7712
     3 C(13)  Bbb    -0.0168    -2.260    -0.806    -0.754  0.0029  0.7836 -0.6213
              Bcc     0.0368     4.941     1.763     1.648  0.9846  0.1064  0.1389
 
              Baa    -0.3226   -43.291   -15.447   -14.440  0.6183 -0.6021  0.5051
     4 C(13)  Bbb    -0.3160   -42.401   -15.130   -14.143 -0.1742  0.5217  0.8351
              Bcc     0.6386    85.691    30.577    28.584  0.7664  0.6044 -0.2177
 
              Baa    -0.0065    -0.868    -0.310    -0.290 -0.3980 -0.4757  0.7844
     5 C(13)  Bbb    -0.0039    -0.521    -0.186    -0.174  0.5676  0.5441  0.6179
              Bcc     0.0104     1.390     0.496     0.464  0.7208 -0.6911 -0.0535
 
              Baa    -0.0077    -4.123    -1.471    -1.375 -0.4035  0.8178  0.4102
     6 H(1)   Bbb    -0.0061    -3.240    -1.156    -1.081  0.7371  0.5562 -0.3838
              Bcc     0.0138     7.363     2.627     2.456  0.5421 -0.1475  0.8273
 
              Baa    -0.0085    -4.532    -1.617    -1.512 -0.2668  0.4011  0.8763
     7 H(1)   Bbb    -0.0017    -0.926    -0.330    -0.309 -0.2225  0.8591 -0.4609
              Bcc     0.0102     5.458     1.947     1.821  0.9377  0.3179  0.1399
 
              Baa    -0.1210   -64.580   -23.044   -21.542 -0.5364  0.8225  0.1890
     8 H(1)   Bbb    -0.1015   -54.180   -19.333   -18.073 -0.0201 -0.2363  0.9715
              Bcc     0.2226   118.761    42.377    39.614  0.8437  0.5174  0.1433
 
              Baa    -0.0390   -20.789    -7.418    -6.934  0.3994 -0.1826  0.8984
     9 H(1)   Bbb    -0.0077    -4.100    -1.463    -1.368  0.8932  0.2983 -0.3364
              Bcc     0.0466    24.888     8.881     8.302 -0.2065  0.9369  0.2822
 
              Baa    -0.0392   -20.894    -7.455    -6.969 -0.6316  0.7713 -0.0785
    10 H(1)   Bbb    -0.0066    -3.541    -1.263    -1.181  0.7546  0.6349  0.1658
              Bcc     0.0458    24.435     8.719     8.151 -0.1777 -0.0455  0.9830
 
              Baa    -0.0051    -2.708    -0.966    -0.903 -0.1964  0.0059  0.9805
    11 H(1)   Bbb    -0.0030    -1.580    -0.564    -0.527  0.7907  0.5923  0.1548
              Bcc     0.0080     4.288     1.530     1.430 -0.5798  0.8057 -0.1210
 
              Baa    -0.0027    -1.465    -0.523    -0.489 -0.1446  0.1062  0.9838
    12 H(1)   Bbb    -0.0018    -0.942    -0.336    -0.314  0.6011  0.7992  0.0021
              Bcc     0.0045     2.406     0.859     0.803  0.7860 -0.5916  0.1794
 
              Baa    -0.0040    -2.153    -0.768    -0.718  0.0662 -0.4483  0.8914
    13 H(1)   Bbb    -0.0027    -1.423    -0.508    -0.475  0.6432  0.7021  0.3054
              Bcc     0.0067     3.576     1.276     1.193  0.7628 -0.5532 -0.3349
 
              Baa    -0.0171    -9.107    -3.250    -3.038 -0.2552  0.8154  0.5197
    14 H(1)   Bbb    -0.0083    -4.412    -1.574    -1.472  0.9492  0.1087  0.2954
              Bcc     0.0253    13.519     4.824     4.509 -0.1844 -0.5687  0.8016
 

 ---------------------------------------------------------------------------------

 No NMR shielding tensors so no spin-rotation constants.
 Leave Link  601 at Thu Sep  5 10:22:08 2019, MaxMem=   671088640 cpu:             114.6 elap:              57.4
 (Enter /shared/centos7/gaussian/g16/l701.exe)
 ... and contract with generalized density number  0.
 Compute integral first derivatives.
 Leave Link  701 at Thu Sep  5 10:22:39 2019, MaxMem=   671088640 cpu:              55.7 elap:              30.6
 (Enter /shared/centos7/gaussian/g16/l702.exe)
 L702 exits ... SP integral derivatives will be done elsewhere.
 Leave Link  702 at Thu Sep  5 10:22:40 2019, MaxMem=   671088640 cpu:               2.2 elap:               1.1
 (Enter /shared/centos7/gaussian/g16/l703.exe)
 Integral derivatives from FoFJK, PRISM(SPDF).
 Compute integral first derivatives, UseDBF=F ICtDFT=           0.
 Calling FoFJK, ICntrl=      2127 FMM=F ISym2X=0 I1Cent= 0 IOpClX= 1 NMat=1 NMatS=1 NMatT=0.
 FoFJK:  IHMeth= 1 ICntrl=    2127 DoSepK=F KAlg= 0 I1Cent=           0 FoldK=F
 IRaf=         0 NMat=       1 IRICut=       1 DoRegI=T DoRafI=F ISym2E= 0 IDoP0=0 IntGTp=1.
 FoFCou: FMM=F IPFlag=           0 FMFlag=      100000 FMFlg1=         800
         NFxFlg=           0 DoJE=F BraDBF=F KetDBF=F FulRan=T
         wScrn=  0.000000 ICntrl=      2127 IOpCl=  1 I1Cent=           0 NGrid=           0
         NMat0=    1 NMatS0=      1 NMatT0=    0 NMatD0=    1 NMtDS0=    0 NMtDT0=    0
 Symmetry not used in FoFCou.
 Leave Link  703 at Thu Sep  5 10:24:12 2019, MaxMem=   671088640 cpu:             181.3 elap:              92.6
 (Enter /shared/centos7/gaussian/g16/l716.exe)
 Dipole        = 5.64817502D-01-1.49711593D-01 6.64633335D-01
 ***** Axes restored to original set *****
 -------------------------------------------------------------------
 Center     Atomic                   Forces (Hartrees/Bohr)
 Number     Number              X              Y              Z
 -------------------------------------------------------------------
      1        8          -0.025083965    0.004703705   -0.062836514
      2        8          -0.004564076   -0.008685171    0.048392934
      3        6          -0.001739993    0.004290100   -0.007554881
      4        6           0.005372568    0.015850152    0.010436186
      5        6          -0.007650980   -0.005287817    0.005129845
      6        1           0.006556212   -0.003513181    0.008690721
      7        1          -0.002145601   -0.006312501   -0.006850516
      8        1           0.014078472    0.004701286    0.021525916
      9        1          -0.009092177   -0.011560867    0.002345846
     10        1          -0.007501106    0.004409638   -0.011566978
     11        1           0.007025794    0.008620486    0.006102034
     12        1           0.009155147   -0.009015142   -0.002797662
     13        1          -0.006509960    0.005318952   -0.009798890
     14        1           0.022099666   -0.003519641   -0.001218040
 -------------------------------------------------------------------
 Cartesian Forces:  Max     0.062836514 RMS     0.015398086
 Leave Link  716 at Thu Sep  5 10:24:14 2019, MaxMem=   671088640 cpu:               1.3 elap:               1.3
 (Enter /shared/centos7/gaussian/g16/l103.exe)

 GradGradGradGradGradGradGradGradGradGradGradGradGradGradGradGradGradGrad
 Berny optimization.
 FormGI is forming the generalized inverse of G from B-inverse, IUseBI=4.
 Internal  Forces:  Max     0.063892528 RMS     0.010879730
 Search for a local minimum.
 Step number   1 out of a maximum of  100
 All quantities printed in internal units (Hartrees-Bohrs-Radians)
 RMS Force = .10712D-01 SwitMx=.10000D-02 MixMth= 1
 Mixed Optimization -- RFO/linear search
 Second derivative matrix not updated -- first step.
 ITU=  0
     Eigenvalues ---    0.00230   0.00230   0.00428   0.00443   0.02406
     Eigenvalues ---    0.03398   0.04843   0.04870   0.05046   0.05495
     Eigenvalues ---    0.05662   0.08713   0.11505   0.12470   0.13658
     Eigenvalues ---    0.16000   0.16000   0.16000   0.16000   0.16000
     Eigenvalues ---    0.16000   0.21946   0.29838   0.29946   0.32486
     Eigenvalues ---    0.32496   0.32497   0.32501   0.32502   0.32504
     Eigenvalues ---    0.32559   0.49447   0.629301000.000001000.00000
     Eigenvalues --- 1000.000001000.000001000.000001000.000001000.00000
     Eigenvalues --- 1000.000001000.000001000.000001000.000001000.00000
     Eigenvalues --- 1000.000001000.000001000.000001000.000001000.00000
     Eigenvalues --- 1000.000001000.000001000.000001000.000001000.00000
     Eigenvalues --- 1000.000001000.00000
 RFO step:  Lambda=-1.43695647D-02 EMin= 2.30000000D-03
 Linear search not attempted -- first point.
 Iteration  1 RMS(Cart)=  0.07506506 RMS(Int)=  0.00495657
 Iteration  2 RMS(Cart)=  0.00640592 RMS(Int)=  0.00033375
 Iteration  3 RMS(Cart)=  0.00004328 RMS(Int)=  0.00033287
 Iteration  4 RMS(Cart)=  0.00000000 RMS(Int)=  0.00033287
 Iteration  1 RMS(Cart)=  0.00000000 RMS(Int)=  0.00000000
 ITry= 1 IFail=0 DXMaxC= 3.09D-01 DCOld= 1.00D+10 DXMaxT= 3.00D-01 DXLimC= 3.00D+00 Rises=F
 Variable       Old X    -DE/DX   Delta X   Delta X   Delta X     New X
                                 (Linear)    (Quad)   (Total)
    R1        2.48694   0.06389   0.00000   0.09926   0.09926   2.58621
    R2        1.87128  -0.02145   0.00000  -0.04215  -0.04215   1.82913
    R3        2.20115   0.01173   0.00000   0.00000   0.00000   2.20115
    R4        2.88071  -0.00953   0.00000  -0.03037  -0.03037   2.85033
    R5        2.88287  -0.00182   0.00000  -0.00583  -0.00583   2.87704
    R6        2.09964  -0.01126   0.00000  -0.03320  -0.03320   2.06644
    R7        2.09945  -0.00928   0.00000  -0.02735  -0.02735   2.07210
    R8        2.58649  -0.00430   0.00000   0.00000   0.00000   2.58649
    R9        2.09937  -0.01354   0.00000  -0.03991  -0.03991   2.05947
   R10        2.09934  -0.01387   0.00000  -0.04085  -0.04085   2.05849
   R11        2.09944  -0.01260   0.00000  -0.03714  -0.03714   2.06230
   R12        2.09832  -0.01300   0.00000  -0.03823  -0.03823   2.06009
   R13        2.09932  -0.01287   0.00000  -0.03793  -0.03793   2.06139
    A1        1.80701   0.01164   0.00000   0.06673   0.06673   1.87374
    A2        1.80697   0.01270   0.00000   0.07283   0.07283   1.87980
    A3        2.00223  -0.00587   0.00000  -0.02480  -0.02475   1.97748
    A4        1.90752   0.00230   0.00000   0.01148   0.01161   1.91913
    A5        1.89925  -0.00011   0.00000  -0.01097  -0.01085   1.88840
    A6        1.90483   0.00199   0.00000   0.01347   0.01347   1.91830
    A7        1.88882   0.00349   0.00000   0.01927   0.01903   1.90785
    A8        1.85553  -0.00154   0.00000  -0.00750  -0.00762   1.84790
    A9        1.92833  -0.00151   0.00000  -0.02071  -0.02038   1.90795
   A10        1.96106   0.00474   0.00000   0.03920   0.03830   1.99937
   A11        1.97594   0.00215   0.00000   0.02136   0.02038   1.99631
   A12        1.86564  -0.00355   0.00000  -0.03520  -0.03479   1.83085
   A13        1.79179  -0.00206   0.00000  -0.02744  -0.02726   1.76453
   A14        1.93066  -0.00080   0.00000   0.01255   0.01088   1.94154
   A15        1.95068  -0.00172   0.00000  -0.01015  -0.01018   1.94050
   A16        1.91876   0.00292   0.00000   0.01987   0.01987   1.93863
   A17        1.93822   0.00023   0.00000  -0.00159  -0.00164   1.93658
   A18        1.87404   0.00016   0.00000   0.00642   0.00643   1.88046
   A19        1.88432  -0.00006   0.00000  -0.00606  -0.00613   1.87819
   A20        1.89575  -0.00160   0.00000  -0.00873  -0.00874   1.88701
   A21        2.54164   0.01987   0.00000   0.00000   0.00000   2.54164
    D1       -1.45501  -0.00370   0.00000  -0.09620  -0.09620  -1.55121
    D2       -2.33370   0.00176   0.00000   0.10533   0.10533  -2.22837
    D3        1.11756  -0.00019   0.00000  -0.00640  -0.00642   1.11113
    D4       -3.08376  -0.00259   0.00000  -0.03924  -0.03981  -3.12357
    D5       -0.88100   0.00204   0.00000   0.02812   0.02846  -0.85254
    D6       -1.02791  -0.00039   0.00000  -0.01524  -0.01519  -1.04309
    D7        1.05396  -0.00279   0.00000  -0.04808  -0.04857   1.00539
    D8       -3.02646   0.00184   0.00000   0.01928   0.01969  -3.00677
    D9       -3.04732   0.00025   0.00000  -0.00652  -0.00636  -3.05368
   D10       -0.96545  -0.00215   0.00000  -0.03936  -0.03975  -1.00520
   D11        1.23731   0.00248   0.00000   0.02800   0.02852   1.26583
   D12       -1.05327   0.00005   0.00000  -0.00022  -0.00028  -1.05356
   D13       -3.13256  -0.00098   0.00000  -0.01488  -0.01492   3.13570
   D14        1.05215  -0.00105   0.00000  -0.01600  -0.01603   1.03613
   D15        1.09363   0.00042   0.00000   0.00759   0.00749   1.10112
   D16       -0.98566  -0.00061   0.00000  -0.00708  -0.00714  -0.99280
   D17       -3.08412  -0.00068   0.00000  -0.00819  -0.00825  -3.09238
   D18        3.10591   0.00153   0.00000   0.01622   0.01632   3.12223
   D19        1.02662   0.00050   0.00000   0.00156   0.00168   1.02830
   D20       -1.07185   0.00044   0.00000   0.00044   0.00057  -1.07128
   D21       -2.39586   0.00087   0.00000   0.01623   0.01626  -2.37960
   D22        1.74860  -0.00177   0.00000   0.00307   0.00308   1.75168
   D23       -0.28385   0.00148   0.00000   0.01555   0.01551  -0.26834
         Item               Value     Threshold  Converged?
 Maximum Force            0.063893     0.002500     NO 
 RMS     Force            0.010712     0.001667     NO 
 Maximum Displacement     0.309276     0.010000     NO 
 RMS     Displacement     0.076248     0.006667     NO 
 Predicted change in Energy=-7.687671D-03
 Lowest energy point so far.  Saving SCF results.
 GradGradGradGradGradGradGradGradGradGradGradGradGradGradGradGradGradGrad

 Leave Link  103 at Thu Sep  5 10:27:11 2019, MaxMem=   671088640 cpu:             313.8 elap:             177.4
 (Enter /shared/centos7/gaussian/g16/l202.exe)
                          Input orientation:                          
 ---------------------------------------------------------------------
 Center     Atomic      Atomic             Coordinates (Angstroms)
 Number     Number       Type             X           Y           Z
 ---------------------------------------------------------------------
      1          8           0        0.377459   -2.994222   -1.272500
      2          8           0        0.239313   -3.004893    0.089030
      3          6           0       -0.323236   -0.152898    1.923767
      4          6           0        0.775824   -0.985978    1.312940
      5          6           0       -1.286446   -0.962045    2.781320
      6          1           0       -0.874450    0.371566    1.138355
      7          1           0        0.140302    0.628393    2.537811
      8          1           0        0.227461   -1.898338    0.452555
      9          1           0        1.487755   -0.423844    0.708892
     10          1           0        1.286727   -1.642027    2.016619
     11          1           0       -1.780700   -1.737913    2.194187
     12          1           0       -2.060876   -0.324823    3.208685
     13          1           0       -0.760617   -1.453201    3.601201
     14          1           0       -0.511748   -2.953151   -1.652661
 ---------------------------------------------------------------------
                    Distance matrix (angstroms):
                    1          2          3          4          5
     1  O    0.000000
     2  O    1.368562   0.000000
     3  C    4.333615   3.437528   0.000000
     4  C    3.297915   2.421119   1.508332   0.000000
     5  C    4.830298   3.708045   1.522462   2.531733   0.000000
     6  H    4.325278   3.707024   1.093513   2.144017   2.155827
     7  H    5.262894   4.382590   1.096509   2.123768   2.150441
     8  H    2.049214   1.164798   2.348253   1.368709   2.931161
     9  H    3.430090   2.933368   2.197503   1.089823   3.504399
    10  H    3.670627   2.582649   2.195018   1.089304   2.769181
    11  H    4.272456   3.180782   2.170161   2.806745   1.091322
    12  H    5.757794   4.712313   2.167941   3.475319   1.090153
    13  H    5.236690   3.967739   2.166997   2.795547   1.090841
    14  H    0.967935   1.897435   4.546184   3.784495   4.921875
                    6          7          8          9         10
     6  H    0.000000
     7  H    1.747614   0.000000
     8  H    2.614765   3.277233   0.000000
     9  H    2.529255   2.503553   1.956574   0.000000
    10  H    3.081653   2.596293   1.906314   1.798480   0.000000
    11  H    2.527047   3.067201   2.663029   3.823045   3.074058
    12  H    2.485725   2.490758   3.912632   4.341838   3.789788
    13  H    3.067301   2.505091   3.329927   3.805286   2.595799
    14  H    4.356038   5.550917   2.467994   3.996541   4.291523
                   11         12         13         14
    11  H    0.000000
    12  H    1.761967   0.000000
    13  H    1.761056   1.765779   0.000000
    14  H    4.229099   5.739390   5.469447   0.000000
 Stoichiometry    C3H9O2(2)
 Framework group  C1[X(C3H9O2)]
 Deg. of freedom    36
 Full point group                 C1      NOp   1
 RotChk:  IX=0 Diff= 5.51D-02
 Largest Abelian subgroup         C1      NOp   1
 Largest concise Abelian subgroup C1      NOp   1
                         Standard orientation:                         
 ---------------------------------------------------------------------
 Center     Atomic      Atomic             Coordinates (Angstroms)
 Number     Number       Type             X           Y           Z
 ---------------------------------------------------------------------
      1          8           0       -2.627875   -0.046317    0.307042
      2          8           0       -1.539619   -0.405745   -0.440937
      3          6           0        1.672078    0.484504    0.401115
      4          6           0        0.443301    0.978253   -0.320953
      5          6           0        2.112905   -0.904171   -0.040637
      6          1           0        1.499771    0.494587    1.480920
      7          1           0        2.485156    1.197656    0.220417
      8          1           0       -0.616016    0.165531   -0.019798
      9          1           0        0.119969    1.978356   -0.032918
     10          1           0        0.486169    0.874085   -1.404418
     11          1           0        1.331538   -1.643306    0.144104
     12          1           0        3.005301   -1.222235    0.498713
     13          1           0        2.337551   -0.921095   -1.107961
     14          1           0       -2.679196   -0.658603    1.054952
 ---------------------------------------------------------------------
 Rotational constants (GHZ):           9.4675036           1.7765889           1.6378166
 Leave Link  202 at Thu Sep  5 10:27:14 2019, MaxMem=   671088640 cpu:               2.5 elap:               2.5
 (Enter /shared/centos7/gaussian/g16/l301.exe)
 Standard basis: CC-pVTZ (5D, 7F)
 Ernie: Thresh=  0.10000D-02 Tol=  0.10000D-05 Strict=F.
 Ernie:  15 primitive shells out of 202 were deleted.
 There are   310 symmetry adapted cartesian basis functions of A   symmetry.
 There are   276 symmetry adapted basis functions of A   symmetry.
   276 basis functions,   413 primitive gaussians,   310 cartesian basis functions
    22 alpha electrons       21 beta electrons
[...]
  Beta virt. eigenvalues --    1.26535   1.29510   1.31702   1.32703   1.35327
  Beta virt. eigenvalues --    1.36899   1.37443   1.41234   1.42543   1.44914
  Beta virt. eigenvalues --    1.45837   1.48528   1.52249   1.54355   1.55682
  Beta virt. eigenvalues --    1.58662   1.60779   1.60936   1.66172   1.72469
  Beta virt. eigenvalues --    1.75966   1.80144   1.92660   1.97188   2.00498
  Beta virt. eigenvalues --    2.11133   2.17730   2.22480   2.23984   2.25578
  Beta virt. eigenvalues --    2.31391   2.34466   2.37724   2.40050   2.42122
  Beta virt. eigenvalues --    2.45984   2.48137   2.51998   2.53801   2.57205
  Beta virt. eigenvalues --    2.58331   2.62767   2.66265   2.66607   2.69080
  Beta virt. eigenvalues --    2.71833   2.79288   2.81476   2.82491   2.85330
  Beta virt. eigenvalues --    2.88800   2.89378   2.91000   2.94542   2.96106
  Beta virt. eigenvalues --    3.01042   3.03848   3.04423   3.06683   3.06828
  Beta virt. eigenvalues --    3.10178   3.11789   3.13144   3.15444   3.16926
  Beta virt. eigenvalues --    3.20065   3.22238   3.22686   3.25462   3.25870
  Beta virt. eigenvalues --    3.28223   3.31329   3.33789   3.34497   3.36256
  Beta virt. eigenvalues --    3.38819   3.40949   3.43442   3.44221   3.45185
  Beta virt. eigenvalues --    3.49325   3.50610   3.53168   3.55585   3.56373
  Beta virt. eigenvalues --    3.59250   3.63766   3.66252   3.70803   3.71158
  Beta virt. eigenvalues --    3.74161   3.74360   3.75814   3.77694   3.78157
  Beta virt. eigenvalues --    3.80176   3.81677   3.82112   3.84497   3.86447
  Beta virt. eigenvalues --    3.89724   3.90308   3.91925   3.93392   3.96285
  Beta virt. eigenvalues --    3.98014   3.98841   3.99899   4.05952   4.06713
  Beta virt. eigenvalues --    4.08029   4.08399   4.10708   4.12366   4.13256
  Beta virt. eigenvalues --    4.15956   4.21332   4.22131   4.23104   4.24441
  Beta virt. eigenvalues --    4.26402   4.31064   4.33954   4.35910   4.40582
  Beta virt. eigenvalues --    4.44051   4.47222   4.51319   4.53039   4.58004
  Beta virt. eigenvalues --    4.61602   4.71461   4.73398   4.75411   4.79812
  Beta virt. eigenvalues --    4.81381   4.85088   4.87251   4.87646   4.91063
  Beta virt. eigenvalues --    4.92700   4.96182   5.01774   5.04600   5.06385
  Beta virt. eigenvalues --    5.09305   5.12333   5.13012   5.14486   5.18522
  Beta virt. eigenvalues --    5.27830   5.29765   5.30607   5.33075   5.34984
  Beta virt. eigenvalues --    5.38198   5.41248   5.45594   5.46670   5.49152
  Beta virt. eigenvalues --    5.57720   5.59848   5.76605   5.81518   5.82677
  Beta virt. eigenvalues --    5.84654   5.87679   5.95293   6.13803   6.19263
  Beta virt. eigenvalues --    6.33818   6.36321   6.38603   6.49231   6.54456
  Beta virt. eigenvalues --    6.59671   6.65131   6.70436   6.72326   6.84740
  Beta virt. eigenvalues --    6.89474   7.14346   7.21944   7.44157   7.60975
  Beta virt. eigenvalues --    9.93381  11.16372  12.19568  12.80253  13.46704
          Condensed to atoms (all electrons):
               1          2          3          4          5          6
     1  O    7.897323   0.058206   0.002883  -0.003006  -0.000063  -0.000018
     2  O    0.058206   8.104036  -0.006666  -0.083351   0.004547  -0.000125
     3  C    0.002883  -0.006666   5.023865   0.267168   0.312165   0.404526
     4  C   -0.003006  -0.083351   0.267168   5.346216  -0.057125  -0.039470
     5  C   -0.000063   0.004547   0.312165  -0.057125   4.953136  -0.036327
     6  H   -0.000018  -0.000125   0.404526  -0.039470  -0.036327   0.590997
     7  H   -0.000076  -0.000080   0.398044  -0.039852  -0.041162  -0.040855
     8  H   -0.027409   0.188842  -0.007983   0.206576  -0.006022  -0.002490
     9  H    0.000224   0.001386  -0.035488   0.389940   0.008006  -0.003937
    10  H    0.009764  -0.008272  -0.034544   0.387089  -0.005747   0.006161
    11  H   -0.000444   0.007675  -0.034680  -0.001967   0.402525  -0.005968
    12  H   -0.000006   0.000441  -0.038804   0.008461   0.403063  -0.005306
    13  H    0.000000  -0.000505  -0.040856  -0.003898   0.403867   0.007688
    14  H    0.308154  -0.032493  -0.000175   0.001087   0.000064  -0.000004
               7          8          9         10         11         12
     1  O   -0.000076  -0.027409   0.000224   0.009764  -0.000444  -0.000006
     2  O   -0.000080   0.188842   0.001386  -0.008272   0.007675   0.000441
     3  C    0.398044  -0.007983  -0.035488  -0.034544  -0.034680  -0.038804
     4  C   -0.039852   0.206576   0.389940   0.387089  -0.001967   0.008461
     5  C   -0.041162  -0.006022   0.008006  -0.005747   0.402525   0.403063
     6  H   -0.040855  -0.002490  -0.003937   0.006161  -0.005968  -0.005306
     7  H    0.609180   0.003172  -0.005044  -0.004615   0.007139  -0.005742
     8  H    0.003172   0.439004  -0.013456  -0.006493  -0.001183  -0.000360
     9  H   -0.005044  -0.013456   0.548559  -0.028513   0.000069  -0.000299
    10  H   -0.004615  -0.006493  -0.028513   0.518049  -0.000340  -0.000198
    11  H    0.007139  -0.001183   0.000069  -0.000340   0.564583  -0.030009
    12  H   -0.005742  -0.000360  -0.000299  -0.000198  -0.030009   0.592050
    13  H   -0.005795  -0.000077   0.000031   0.003112  -0.036672  -0.033893
    14  H    0.000003  -0.006571   0.000394  -0.001316   0.000115   0.000003
              13         14
     1  O    0.000000   0.308154
     2  O   -0.000505  -0.032493
     3  C   -0.040856  -0.000175
     4  C   -0.003898   0.001087
     5  C    0.403867   0.000064
     6  H    0.007688  -0.000004
     7  H   -0.005795   0.000003
     8  H   -0.000077  -0.006571
     9  H    0.000031   0.000394
    10  H    0.003112  -0.001316
    11  H   -0.036672   0.000115
    12  H   -0.033893   0.000003
    13  H    0.593079  -0.000007
    14  H   -0.000007   0.466257
          Atomic-Atomic Spin Densities.
               1          2          3          4          5          6
     1  O    0.046767  -0.038267  -0.000341   0.016046  -0.000105  -0.000041
     2  O   -0.038267   0.539435   0.004454  -0.111902   0.001884   0.001003
     3  C   -0.000341   0.004454  -0.047929  -0.032235   0.006393   0.002038
     4  C    0.016046  -0.111902  -0.032235   0.778600  -0.007243  -0.005446
     5  C   -0.000105   0.001884   0.006393  -0.007243   0.007949   0.003907
     6  H   -0.000041   0.001003   0.002038  -0.005446   0.003907   0.014794
     7  H    0.000068  -0.000797   0.021572  -0.023509  -0.006450  -0.006724
     8  H    0.008656  -0.038552   0.000364   0.071797  -0.001141  -0.000985
     9  H   -0.001029   0.004398   0.002169  -0.008216   0.000282   0.001590
    10  H   -0.001831   0.004687   0.002465  -0.008019   0.001001  -0.000017
    11  H    0.000149  -0.003050  -0.000553   0.004382  -0.003999  -0.001079
    12  H    0.000001  -0.000056   0.000733  -0.000029  -0.000049  -0.000007
    13  H   -0.000023   0.000328  -0.000158   0.000035   0.000841   0.000171
    14  H    0.001009  -0.001008   0.000008  -0.000093  -0.000008  -0.000000
               7          8          9         10         11         12
     1  O    0.000068   0.008656  -0.001029  -0.001831   0.000149   0.000001
     2  O   -0.000797  -0.038552   0.004398   0.004687  -0.003050  -0.000056
     3  C    0.021572   0.000364   0.002169   0.002465  -0.000553   0.000733
     4  C   -0.023509   0.071797  -0.008216  -0.008019   0.004382  -0.000029
     5  C   -0.006450  -0.001141   0.000282   0.001001  -0.003999  -0.000049
     6  H   -0.006724  -0.000985   0.001590  -0.000017  -0.001079  -0.000007
     7  H    0.059623   0.000581  -0.003092  -0.000914   0.001310   0.000401
     8  H    0.000581  -0.062869  -0.001963   0.001108   0.002197   0.000131
     9  H   -0.003092  -0.001963  -0.026179   0.004909  -0.000287  -0.000001
    10  H   -0.000914   0.001108   0.004909  -0.037656  -0.000380  -0.000017
    11  H    0.001310   0.002197  -0.000287  -0.000380   0.005179  -0.000157
    12  H    0.000401   0.000131  -0.000001  -0.000017  -0.000157  -0.001505
    13  H   -0.001052  -0.000349   0.000096   0.000251  -0.000657   0.000290
    14  H    0.000002   0.000799  -0.000070  -0.000058  -0.000016  -0.000000
              13         14
     1  O   -0.000023   0.001009
     2  O    0.000328  -0.001008
     3  C   -0.000158   0.000008
     4  C    0.000035  -0.000093
     5  C    0.000841  -0.000008
     6  H    0.000171  -0.000000
     7  H   -0.001052   0.000002
     8  H   -0.000349   0.000799
     9  H    0.000096  -0.000070
    10  H    0.000251  -0.000058
    11  H   -0.000657  -0.000016
    12  H    0.000290  -0.000000
    13  H    0.000789   0.000002
    14  H    0.000002  -0.002059
 Mulliken charges and spin densities:
               1          2
     1  O   -0.245532   0.031058
     2  O   -0.233642   0.362557
     3  C   -0.209456  -0.041021
     4  C   -0.377869   0.674167
     5  C   -0.340927   0.003262
     6  H    0.125129   0.009205
     7  H    0.125683   0.041020
     8  H    0.234451  -0.020228
     9  H    0.138129  -0.027394
    10  H    0.165864  -0.034471
    11  H    0.129154   0.003038
    12  H    0.110599  -0.000266
    13  H    0.113924   0.000565
    14  H    0.264492  -0.001492
 Sum of Mulliken charges =  -0.00000   1.00000
 Mulliken charges and spin densities with hydrogens summed into heavy atoms:
               1          2
     1  O    0.018960   0.029566
     2  O    0.000809   0.342329
     3  C    0.041356   0.009204
     4  C   -0.073876   0.612301
     5  C    0.012751   0.006600
 Electronic spatial extent (au):  <R**2>=            647.5169
 Charge=             -0.0000 electrons
 Dipole moment (field-independent basis, Debye):
    X=              0.3147    Y=              1.9042    Z=              0.4536  Tot=              1.9826
 Quadrupole moment (field-independent basis, Debye-Ang):
   XX=            -27.8121   YY=            -32.9666   ZZ=            -33.4950
   XY=             -3.0931   XZ=             -1.4292   YZ=              0.5485
 Traceless Quadrupole moment (field-independent basis, Debye-Ang):
   XX=              3.6125   YY=             -1.5421   ZZ=             -2.0704
   XY=             -3.0931   XZ=             -1.4292   YZ=              0.5485
 Octapole moment (field-independent basis, Debye-Ang**2):
  XXX=            -37.6751  YYY=              0.1775  ZZZ=             -0.0583  XYY=             -5.2969
  XXY=              7.5237  XXZ=              5.3151  XZZ=             -3.1673  YZZ=             -0.2071
  YYZ=              1.0429  XYZ=             -0.8307
 Hexadecapole moment (field-independent basis, Debye-Ang**3):
 XXXX=           -478.6832 YYYY=           -172.6314 ZZZZ=            -72.3215 XXXY=            -20.8210
 XXXZ=            -13.4197 YYYX=              2.9120 YYYZ=              0.4540 ZZZX=              2.0158
 ZZZY=              0.0419 XXYY=           -125.1054 XXZZ=           -112.2914 YYZZ=            -42.1273
 XXYZ=             -0.7152 YYXZ=             -0.1098 ZZXY=              0.4758
 N-N= 1.862208675356D+02 E-N=-1.004612684368D+03  KE= 2.685175581310D+02
                          Isotropic Fermi Contact Couplings
        Atom                 a.u.       MegaHertz       Gauss      10(-4) cm-1
     1  O(17)              0.00103      -0.62454      -0.22285      -0.20832
     2  O(17)              0.11768     -71.33713     -25.45486     -23.79550
     3  C(13)             -0.01559     -17.52336      -6.25277      -5.84516
     4  C(13)              0.17687     198.83244      70.94836      66.32336
     5  C(13)              0.00581       6.52701       2.32900       2.17718
     6  H(1)               0.00418      18.69051       6.66924       6.23448
     7  H(1)               0.02125      95.00319      33.89950      31.68965
     8  H(1)              -0.02888    -129.08061     -46.05917     -43.05666
     9  H(1)              -0.00340     -15.18625      -5.41883      -5.06559
    10  H(1)              -0.00822     -36.76183     -13.11753     -12.26243
    11  H(1)               0.00005       0.21285       0.07595       0.07100
    12  H(1)              -0.00043      -1.91615      -0.68373      -0.63916
    13  H(1)              -0.00017      -0.77616      -0.27695      -0.25890
    14  H(1)              -0.00064      -2.84654      -1.01572      -0.94950
 --------------------------------------------------------
       Center         ----  Spin Dipole Couplings  ----
                      3XX-RR        3YY-RR        3ZZ-RR
 --------------------------------------------------------
     1   Atom        0.060618      0.099484     -0.160101
     2   Atom        0.028842      0.753159     -0.782001
     3   Atom        0.022209     -0.012355     -0.009853
     4   Atom        0.065535     -0.045344     -0.020190
     5   Atom       -0.000570      0.008946     -0.008376
     6   Atom        0.006684     -0.006700      0.000016
     7   Atom        0.011006     -0.004385     -0.006620
     8   Atom        0.049894      0.031582     -0.081476
     9   Atom       -0.026247      0.046244     -0.019997
    10   Atom       -0.015618     -0.030159      0.045776
    11   Atom        0.001455      0.005122     -0.006578
    12   Atom        0.002067      0.001094     -0.003161
    13   Atom       -0.000423      0.002020     -0.001597
    14   Atom        0.014077     -0.003178     -0.010900
 --------------------------------------------------------
                        XY            XZ            YZ
 --------------------------------------------------------
     1   Atom        0.211989     -0.035044      0.025064
     2   Atom        1.249320     -0.338503     -0.466859
     3   Atom        0.004972     -0.013681     -0.005111
     4   Atom        0.375007     -0.387595     -0.332789
     5   Atom       -0.007136     -0.001409      0.004478
     6   Atom       -0.001358      0.010232     -0.002120
     7   Atom        0.001752     -0.003890     -0.003618
     8   Atom        0.157089     -0.053452     -0.041974
     9   Atom       -0.004611     -0.022941      0.021584
    10   Atom        0.023216      0.016616      0.005178
    11   Atom       -0.005883     -0.000344     -0.001212
    12   Atom       -0.003593     -0.000351     -0.000051
    13   Atom       -0.003682     -0.003488      0.004246
    14   Atom       -0.008017     -0.000007      0.002449
 --------------------------------------------------------


 ---------------------------------------------------------------------------------
              Anisotropic Spin Dipole Couplings in Principal Axis System
 ---------------------------------------------------------------------------------

       Atom             a.u.   MegaHertz   Gauss  10(-4) cm-1        Axes

              Baa    -0.1914    13.850     4.942     4.620  0.4414 -0.3913  0.8075
     1 O(17)  Bbb    -0.1016     7.351     2.623     2.452  0.5914 -0.5500 -0.5897
              Bcc     0.2930   -21.200    -7.565    -7.072  0.6749  0.7379 -0.0114
 
              Baa    -0.9193    66.522    23.737    22.189 -0.4731  0.5464  0.6911
     2 O(17)  Bbb    -0.9002    65.139    23.243    21.728  0.6580 -0.3025  0.6896
              Bcc     1.8195  -131.661   -46.980   -43.917  0.5858  0.7810 -0.2164
 
              Baa    -0.0173    -2.318    -0.827    -0.773  0.1903  0.6086  0.7703
     3 C(13)  Bbb    -0.0110    -1.477    -0.527    -0.493 -0.3354  0.7778 -0.5316
              Bcc     0.0283     3.794     1.354     1.266  0.9227  0.1572 -0.3521
 
              Baa    -0.3693   -49.559   -17.684   -16.531  0.7493 -0.6151  0.2455
     4 C(13)  Bbb    -0.3655   -49.048   -17.502   -16.361  0.2120  0.5739  0.7910
              Bcc     0.7348    98.607    35.186    32.892  0.6274  0.5406 -0.5604
 
              Baa    -0.0095    -1.272    -0.454    -0.424 -0.0511 -0.2545  0.9657
     5 C(13)  Bbb    -0.0042    -0.570    -0.203    -0.190  0.8900  0.4272  0.1596
              Bcc     0.0137     1.842     0.657     0.615 -0.4532  0.8676  0.2047
 
              Baa    -0.0081    -4.336    -1.547    -1.446 -0.4103  0.6129  0.6753
     6 H(1)   Bbb    -0.0062    -3.333    -1.189    -1.112  0.4349  0.7824 -0.4458
              Bcc     0.0144     7.669     2.736     2.558  0.8015 -0.1108  0.5876
 
              Baa    -0.0095    -5.081    -1.813    -1.695  0.1106  0.5468  0.8299
     7 H(1)   Bbb    -0.0027    -1.430    -0.510    -0.477 -0.2502  0.8235 -0.5092
              Bcc     0.0122     6.511     2.323     2.172  0.9619  0.1513 -0.2279
 
              Baa    -0.1183   -63.124   -22.524   -21.056  0.7018 -0.6613  0.2648
     8 H(1)   Bbb    -0.0953   -50.856   -18.147   -16.964 -0.0284  0.3454  0.9380
              Bcc     0.2136   113.980    40.671    38.020  0.7118  0.6658 -0.2236
 
              Baa    -0.0476   -25.403    -9.064    -8.473  0.7137 -0.1235  0.6895
     9 H(1)   Bbb    -0.0066    -3.543    -1.264    -1.182  0.6855  0.3256 -0.6513
              Bcc     0.0543    28.946    10.329     9.655 -0.1440  0.9374  0.3170
 
              Baa    -0.0476   -25.387    -9.059    -8.468 -0.6081  0.7912  0.0643
    10 H(1)   Bbb    -0.0039    -2.096    -0.748    -0.699  0.7415  0.5951 -0.3099
              Bcc     0.0515    27.483     9.807     9.167  0.2835  0.1407  0.9486
 
              Baa    -0.0069    -3.661    -1.307    -1.221  0.1676  0.1803  0.9692
    11 H(1)   Bbb    -0.0026    -1.401    -0.500    -0.467  0.7907  0.5626 -0.2414
              Bcc     0.0095     5.063     1.806     1.689 -0.5888  0.8068 -0.0483
 
              Baa    -0.0032    -1.723    -0.615    -0.575  0.1660  0.1496  0.9747
    12 H(1)   Bbb    -0.0020    -1.059    -0.378    -0.353  0.6362  0.7389 -0.2218
              Bcc     0.0052     2.781     0.992     0.928  0.7534 -0.6570 -0.0275
 
              Baa    -0.0048    -2.576    -0.919    -0.859  0.4242 -0.3013  0.8540
    13 H(1)   Bbb    -0.0030    -1.618    -0.577    -0.540  0.7422  0.6560 -0.1372
              Bcc     0.0079     4.194     1.497     1.399 -0.5189  0.6920  0.5019
 
              Baa    -0.0119    -6.330    -2.259    -2.112 -0.1123 -0.3644  0.9244
    14 H(1)   Bbb    -0.0054    -2.877    -1.027    -0.960  0.3523  0.8553  0.3799
              Bcc     0.0173     9.207     3.285     3.071  0.9291 -0.3684 -0.0323
 

 ---------------------------------------------------------------------------------

 No NMR shielding tensors so no spin-rotation constants.
 Leave Link  601 at Thu Sep  5 20:47:48 2019, MaxMem=   671088640 cpu:             135.5 elap:              67.9
 (Enter /shared/centos7/gaussian/g16/l9999.exe)
 1\1\GINC-C0111\FOpt\UM062X\CC-pVTZ\C3H9O2(2)\HARMS.N\05-Sep-2019\0\\#p
  m062x/cc-pVTZ Opt=(ModRedun,Loose,maxcycles=900) Int(Grid=SG1) scf=(m
 axcycle=900)\\Gaussian input prepared by ASE\\0,2\O,0.4783073985,-3.38
 94529802,-0.2793510071\O,-0.6164547433,-2.5429415859,-0.1106341589\C,-
 0.3243679146,-0.11488165,1.9780526566\C,0.6139938825,-0.7921461234,1.0
 218540561\C,-1.1924720982,-1.098194799,2.7561553247\H,-0.9492261055,0.
 6040944656,1.4448923524\H,0.275159796,0.4765184813,2.6807834449\H,-0.1
 443395831,-1.5066636915,0.1342953427\H,1.1857300172,-0.1412517339,0.36
 38163416\H,1.1939838345,-1.6171299643,1.4239637095\H,-1.8323722199,-1.
 6646261637,2.0830532696\H,-1.8191293286,-0.5814074164,3.4804798931\H,-
 0.5683870386,-1.8128966101,3.2929753952\H,0.636343739,-3.3523945145,-1
 .2301362225\\Version=EM64L-G16RevA.03\State=2-A\HF=-269.9788401\S2=0.7
 59834\S2-1=0.\S2A=0.750049\RMSD=9.411e-09\RMSF=2.927e-03\Dipole=0.4123
 284,0.6066244,-0.2653344\Quadrupole=-1.0425788,-1.7614304,2.8040092,-0
 .7442914,-1.9085203,1.3452743\PG=C01 [X(C3H9O2)]\\@


 ALMOST ANYTHING IS EASIER TO GET INTO THAN OUT OF.

                         -- AGNES ALLEN'S LAW FROM
                PAUL DICKSON'S "THE OFFICIAL RULES"
 Job cpu time:       0 days 21 hours  2 minutes 53.2 seconds.
 Elapsed time:       0 days 10 hours 40 minutes 51.4 seconds.
 File lengths (MBytes):  RWF=    304 Int=      0 D2E=      0 Chk=     32 Scr=     32
 Normal termination of Gaussian 16 at Thu Sep  5 20:47:49 2019.
