 Entering Gaussian System, Link 0=g16
 Input=loose/ts/CCC+[O]O_[CH2]CC+OO/conformers/CCC+[O]O_[CH2]CC+OO_forward_3.com
 Output=loose/ts/CCC+[O]O_[CH2]CC+OO/conformers/CCC+[O]O_[CH2]CC+OO_forward_3.log
 Initial command:
 /shared/centos7/gaussian/g16/l1.exe "/scratch/harms.n/gauss_scrdir/Gau-27708.inp" -scrdir="/scratch/harms.n/gauss_scrdir/"
 Entering Link 1 = /shared/centos7/gaussian/g16/l1.exe PID=     27709.
  
 Copyright (c) 1988,1990,1992,1993,1995,1998,2003,2009,2016,
            Gaussian, Inc.  All Rights Reserved.
  
 This is part of the Gaussian(R) 16 program.  It is based on
 the Gaussian(R) 09 system (copyright 2009, Gaussian, Inc.),
 the Gaussian(R) 03 system (copyright 2003, Gaussian, Inc.),
 the Gaussian(R) 98 system (copyright 1998, Gaussian, Inc.),
 the Gaussian(R) 94 system (copyright 1995, Gaussian, Inc.),
 the Gaussian 92(TM) system (copyright 1992, Gaussian, Inc.),
 the Gaussian 90(TM) system (copyright 1990, Gaussian, Inc.),
 the Gaussian 88(TM) system (copyright 1988, Gaussian, Inc.),
 the Gaussian 86(TM) system (copyright 1986, Carnegie Mellon
 University), and the Gaussian 82(TM) system (copyright 1983,
 Carnegie Mellon University). Gaussian is a federally registered
 trademark of Gaussian, Inc.
  
 This software contains proprietary and confidential information,
 including trade secrets, belonging to Gaussian, Inc.
  
 This software is provided under written license and may be
 used, copied, transmitted, or stored only in accord with that
 written license.
  
 The following legend is applicable only to US Government
 contracts under FAR:
  
                    RESTRICTED RIGHTS LEGEND
  
 Use, reproduction and disclosure by the US Government is
 subject to restrictions as set forth in subparagraphs (a)
 and (c) of the Commercial Computer Software - Restricted
 Rights clause in FAR 52.227-19.
  
 Gaussian, Inc.
 340 Quinnipiac St., Bldg. 40, Wallingford CT 06492
  
  
 ---------------------------------------------------------------
 Warning -- This program may not be used in any manner that
 competes with the business of Gaussian, Inc. or will provide
 assistance to any competitor of Gaussian, Inc.  The licensee
 of this program is prohibited from giving any competitor of
 Gaussian, Inc. access to this program.  By using this program,
 the user acknowledges that Gaussian, Inc. is engaged in the
 business of creating and licensing software in the field of
 computational chemistry and represents and warrants to the
 licensee that it is not a competitor of Gaussian, Inc. and that
 it will not use this program in any manner prohibited above.
 ---------------------------------------------------------------
  

 Cite this work as:
 Gaussian 16, Revision A.03,
 M. J. Frisch, G. W. Trucks, H. B. Schlegel, G. E. Scuseria, 
 M. A. Robb, J. R. Cheeseman, G. Scalmani, V. Barone, 
 G. A. Petersson, H. Nakatsuji, X. Li, M. Caricato, A. V. Marenich, 
 J. Bloino, B. G. Janesko, R. Gomperts, B. Mennucci, H. P. Hratchian, 
 J. V. Ortiz, A. F. Izmaylov, J. L. Sonnenberg, D. Williams-Young, 
 F. Ding, F. Lipparini, F. Egidi, J. Goings, B. Peng, A. Petrone, 
 T. Henderson, D. Ranasinghe, V. G. Zakrzewski, J. Gao, N. Rega, 
 G. Zheng, W. Liang, M. Hada, M. Ehara, K. Toyota, R. Fukuda, 
 J. Hasegawa, M. Ishida, T. Nakajima, Y. Honda, O. Kitao, H. Nakai, 
 T. Vreven, K. Throssell, J. A. Montgomery, Jr., J. E. Peralta, 
 F. Ogliaro, M. J. Bearpark, J. J. Heyd, E. N. Brothers, K. N. Kudin, 
 V. N. Staroverov, T. A. Keith, R. Kobayashi, J. Normand, 
 K. Raghavachari, A. P. Rendell, J. C. Burant, S. S. Iyengar, 
 J. Tomasi, M. Cossi, J. M. Millam, M. Klene, C. Adamo, R. Cammi, 
 J. W. Ochterski, R. L. Martin, K. Morokuma, O. Farkas, 
 J. B. Foresman, and D. J. Fox, Gaussian, Inc., Wallingford CT, 2016.
 
 ******************************************
 Gaussian 16:  EM64L-G16RevA.03 25-Dec-2016
                 6-Sep-2019 
 ******************************************
 %nprocshared=20
 Will use up to   20 processors via shared memory.
 %mem=5GB
 ----------------------------------------------------------------------
 #p m062x/cc-pVTZ opt=(ts,calcfc,noeigentest,maxcycles=900) freq scf=(m
 axcycle=900) IOP(7/33=1,2/16=3)
 ----------------------------------------------------------------------
 1/5=1,6=900,10=4,11=1,18=20,26=3,38=1/1,3;
 2/9=110,12=2,16=3,17=6,18=5,40=1/2;
 3/5=16,6=1,11=2,25=1,30=1,71=2,74=-55,140=1/1,2,3;
 4//1;
 5/5=2,7=900,38=5/2;
 8/6=4,10=90,11=11/1;
 11/6=1,8=1,9=11,15=111,16=1/1,2,10;
 10/6=1,13=1/2;
 6/7=2,8=2,9=2,10=2,28=1/1;
 7/10=1,18=20,25=1,33=1/1,2,3,16;
 1/5=1,6=900,10=4,11=1,18=20,26=3/3(2);
 2/9=110,16=3/2;
 99//99;
 2/9=110,16=3/2;
 3/5=16,6=1,11=2,25=1,30=1,71=1,74=-55/1,2,3;
 4/5=5,16=3,69=1/1;
 5/5=2,7=900,38=5/2;
 7/33=1/1,2,3,16;
 1/5=1,6=900,11=1,18=20,26=3/3(-5);
 2/9=110,16=3/2;
 6/7=2,8=2,9=2,10=2,19=2,28=1/1;
 99/9=1/99;
 Leave Link    1 at Fri Sep  6 01:44:02 2019, MaxMem=   671088640 cpu:               5.1 elap:               2.5
 (Enter /shared/centos7/gaussian/g16/l101.exe)
 ------------------------------
 Gaussian input prepared by ASE
 ------------------------------
 Symbolic Z-matrix:
 Charge =  0 Multiplicity = 2
 O                     1.95537  -0.76605  -0.28316 
 O                     1.83836   0.37308   0.50823 
 C                    -1.03533  -0.13944   0.41996 
 C                    -0.34126   0.90308  -0.4029 
 C                    -2.46444  -0.37479  -0.08015 
 H                    -1.05678   0.17011   1.46544 
 H                    -0.47077  -1.06982   0.37261 
 H                     0.94939   0.9686    0.04797 
 H                    -0.14071   0.62686  -1.4368 
 H                    -0.70883   1.9214   -0.29305 
 H                    -3.04896   0.54363  -0.03775 
 H                    -2.96807  -1.12668   0.52545 
 H                    -2.45969  -0.71917  -1.11445 
 H                     2.60084  -0.50418  -0.95143 
 
 Add virtual bond connecting atoms H8         and O2         Dist= 2.20D+00.
 Add virtual bond connecting atoms H8         and C4         Dist= 2.59D+00.
 ITRead=  0  0  0  0  0  0  0  0  0  0  0  0  0  0
 MicOpt= -1 -1 -1 -1 -1 -1 -1 -1 -1 -1 -1 -1 -1 -1
 NAtoms=     14 NQM=       14 NQMF=       0 NMMI=      0 NMMIF=      0
                NMic=       0 NMicF=      0.
                    Isotopes and Nuclear Properties:
 (Nuclear quadrupole moments (NQMom) in fm**2, nuclear magnetic moments (NMagM)
  in nuclear magnetons)

  Atom         1           2           3           4           5           6           7           8           9          10
 IAtWgt=          16          16          12          12          12           1           1           1           1           1
 AtmWgt=  15.9949146  15.9949146  12.0000000  12.0000000  12.0000000   1.0078250   1.0078250   1.0078250   1.0078250   1.0078250
 NucSpn=           0           0           0           0           0           1           1           1           1           1
 AtZEff=  -0.0000000  -0.0000000  -0.0000000  -0.0000000  -0.0000000  -0.0000000  -0.0000000  -0.0000000  -0.0000000  -0.0000000
 NQMom=    0.0000000   0.0000000   0.0000000   0.0000000   0.0000000   0.0000000   0.0000000   0.0000000   0.0000000   0.0000000
 NMagM=    0.0000000   0.0000000   0.0000000   0.0000000   0.0000000   2.7928460   2.7928460   2.7928460   2.7928460   2.7928460
 AtZNuc=   8.0000000   8.0000000   6.0000000   6.0000000   6.0000000   1.0000000   1.0000000   1.0000000   1.0000000   1.0000000

  Atom        11          12          13          14
 IAtWgt=           1           1           1           1
 AtmWgt=   1.0078250   1.0078250   1.0078250   1.0078250
 NucSpn=           1           1           1           1
 AtZEff=  -0.0000000  -0.0000000  -0.0000000  -0.0000000
 NQMom=    0.0000000   0.0000000   0.0000000   0.0000000
 NMagM=    2.7928460   2.7928460   2.7928460   2.7928460
 AtZNuc=   1.0000000   1.0000000   1.0000000   1.0000000
 Leave Link  101 at Fri Sep  6 01:44:07 2019, MaxMem=   671088640 cpu:               8.7 elap:               4.4
 (Enter /shared/centos7/gaussian/g16/l103.exe)

 GradGradGradGradGradGradGradGradGradGradGradGradGradGradGradGradGradGrad
 Berny optimization.
 Initialization pass.
                           ----------------------------
                           !    Initial Parameters    !
                           ! (Angstroms and Degrees)  !
 --------------------------                            --------------------------
 ! Name  Definition              Value          Derivative Info.                !
 --------------------------------------------------------------------------------
 ! R1    R(1,2)                  1.392          calculate D2E/DX2 analytically  !
 ! R2    R(1,14)                 0.9653         calculate D2E/DX2 analytically  !
 ! R3    R(2,8)                  1.1648         calculate D2E/DX2 analytically  !
 ! R4    R(3,4)                  1.4986         calculate D2E/DX2 analytically  !
 ! R5    R(3,5)                  1.5323         calculate D2E/DX2 analytically  !
 ! R6    R(3,6)                  1.0906         calculate D2E/DX2 analytically  !
 ! R7    R(3,7)                  1.0893         calculate D2E/DX2 analytically  !
 ! R8    R(4,8)                  1.3687         calculate D2E/DX2 analytically  !
 ! R9    R(4,9)                  1.0888         calculate D2E/DX2 analytically  !
 ! R10   R(4,10)                 1.0882         calculate D2E/DX2 analytically  !
 ! R11   R(5,11)                 1.0895         calculate D2E/DX2 analytically  !
 ! R12   R(5,12)                 1.0889         calculate D2E/DX2 analytically  !
 ! R13   R(5,13)                 1.0901         calculate D2E/DX2 analytically  !
 ! A1    A(2,1,14)             103.1673         calculate D2E/DX2 analytically  !
 ! A2    A(1,2,8)              104.9453         calculate D2E/DX2 analytically  !
 ! A3    A(4,3,5)              111.0764         calculate D2E/DX2 analytically  !
 ! A4    A(4,3,6)              109.7578         calculate D2E/DX2 analytically  !
 ! A5    A(4,3,7)              109.2854         calculate D2E/DX2 analytically  !
 ! A6    A(5,3,6)              109.7643         calculate D2E/DX2 analytically  !
 ! A7    A(5,3,7)              109.756          calculate D2E/DX2 analytically  !
 ! A8    A(6,3,7)              107.1152         calculate D2E/DX2 analytically  !
 ! A9    A(3,4,8)              106.8081         calculate D2E/DX2 analytically  !
 ! A10   A(3,4,9)              115.4827         calculate D2E/DX2 analytically  !
 ! A11   A(3,4,10)             116.0488         calculate D2E/DX2 analytically  !
 ! A12   A(8,4,9)               98.6996         calculate D2E/DX2 analytically  !
 ! A13   A(8,4,10)             103.9139         calculate D2E/DX2 analytically  !
 ! A14   A(9,4,10)             113.2966         calculate D2E/DX2 analytically  !
 ! A15   A(3,5,11)             110.9905         calculate D2E/DX2 analytically  !
 ! A16   A(3,5,12)             110.849          calculate D2E/DX2 analytically  !
 ! A17   A(3,5,13)             110.7399         calculate D2E/DX2 analytically  !
 ! A18   A(11,5,12)            108.1972         calculate D2E/DX2 analytically  !
 ! A19   A(11,5,13)            107.7922         calculate D2E/DX2 analytically  !
 ! A20   A(12,5,13)            108.1531         calculate D2E/DX2 analytically  !
 ! A21   A(2,8,4)              145.6252         calculate D2E/DX2 analytically  !
 ! D1    D(14,1,2,8)            92.3959         calculate D2E/DX2 analytically  !
 ! D2    D(1,2,8,4)             48.6977         calculate D2E/DX2 analytically  !
 ! D3    D(5,3,4,8)           -175.4033         calculate D2E/DX2 analytically  !
 ! D4    D(5,3,4,9)            -66.8007         calculate D2E/DX2 analytically  !
 ! D5    D(5,3,4,10)            69.3038         calculate D2E/DX2 analytically  !
 ! D6    D(6,3,4,8)             63.0297         calculate D2E/DX2 analytically  !
 ! D7    D(6,3,4,9)            171.6324         calculate D2E/DX2 analytically  !
 ! D8    D(6,3,4,10)           -52.2631         calculate D2E/DX2 analytically  !
 ! D9    D(7,3,4,8)            -54.1625         calculate D2E/DX2 analytically  !
 ! D10   D(7,3,4,9)             54.4401         calculate D2E/DX2 analytically  !
 ! D11   D(7,3,4,10)          -169.4553         calculate D2E/DX2 analytically  !
 ! D12   D(4,3,5,11)           -59.2515         calculate D2E/DX2 analytically  !
 ! D13   D(4,3,5,12)          -179.5192         calculate D2E/DX2 analytically  !
 ! D14   D(4,3,5,13)            60.4345         calculate D2E/DX2 analytically  !
 ! D15   D(6,3,5,11)            62.3115         calculate D2E/DX2 analytically  !
 ! D16   D(6,3,5,12)           -57.9561         calculate D2E/DX2 analytically  !
 ! D17   D(6,3,5,13)          -178.0025         calculate D2E/DX2 analytically  !
 ! D18   D(7,3,5,11)           179.7842         calculate D2E/DX2 analytically  !
 ! D19   D(7,3,5,12)            59.5165         calculate D2E/DX2 analytically  !
 ! D20   D(7,3,5,13)           -60.5299         calculate D2E/DX2 analytically  !
 ! D21   D(3,4,8,2)             32.1028         calculate D2E/DX2 analytically  !
 ! D22   D(9,4,8,2)            -87.9563         calculate D2E/DX2 analytically  !
 ! D23   D(10,4,8,2)           155.294          calculate D2E/DX2 analytically  !
 --------------------------------------------------------------------------------
 Trust Radius=3.00D-01 FncErr=1.00D-07 GrdErr=1.00D-06 EigMax=2.50D+02 EigMin=1.00D-04
 Number of steps in this run=    100 maximum allowed number of steps=    100.
 Search for a saddle point of order  1.
 GradGradGradGradGradGradGradGradGradGradGradGradGradGradGradGradGradGrad

 Leave Link  103 at Fri Sep  6 01:44:07 2019, MaxMem=   671088640 cpu:               1.5 elap:               0.8
 (Enter /shared/centos7/gaussian/g16/l202.exe)
                          Input orientation:                          
 ---------------------------------------------------------------------
 Center     Atomic      Atomic             Coordinates (Angstroms)
 Number     Number       Type             X           Y           Z
 ---------------------------------------------------------------------
      1          8           0        1.955368   -0.766052   -0.283160
      2          8           0        1.838358    0.373078    0.508232
      3          6           0       -1.035333   -0.139442    0.419958
      4          6           0       -0.341264    0.903078   -0.402902
      5          6           0       -2.464440   -0.374794   -0.080151
      6          1           0       -1.056778    0.170111    1.465437
      7          1           0       -0.470765   -1.069823    0.372614
      8          1           0        0.949390    0.968601    0.047968
      9          1           0       -0.140709    0.626856   -1.436801
     10          1           0       -0.708833    1.921402   -0.293045
     11          1           0       -3.048965    0.543628   -0.037751
     12          1           0       -2.968070   -1.126675    0.525453
     13          1           0       -2.459691   -0.719172   -1.114454
     14          1           0        2.600839   -0.504180   -0.951426
 ---------------------------------------------------------------------
                    Distance matrix (angstroms):
                    1          2          3          4          5
     1  O    0.000000
     2  O    1.391981   0.000000
     3  C    3.135492   2.920371   0.000000
     4  C    2.841628   2.421119   1.498559   0.000000
     5  C    4.441734   4.406765   1.532268   2.499000   0.000000
     6  H    3.606524   3.056019   1.090555   2.130702   2.160388
     7  H    2.531489   2.726244   1.089306   2.123802   2.159352
     8  H    2.032402   1.164798   2.303315   1.368709   3.670880
     9  H    2.768505   2.786443   2.198890   1.088792   2.871154
    10  H    3.784240   3.086670   2.205006   1.088191   2.898275
    11  H    5.178691   4.920682   2.175039   2.755755   1.089480
    12  H    5.002414   5.035008   2.172839   3.447006   1.088910
    13  H    4.492883   4.722218   2.172396   2.761473   1.090138
    14  H    0.965292   1.865894   3.903265   3.307147   5.141295
                    6          7          8          9         10
     6  H    0.000000
     7  H    1.753599   0.000000
     8  H    2.582928   2.505476   0.000000
     9  H    3.077464   2.502327   1.873405   0.000000
    10  H    2.506062   3.073631   1.942633   1.818459   0.000000
    11  H    2.523469   3.068996   4.021790   3.228346   2.727573
    12  H    2.493644   2.502623   4.468184   3.862549   3.881348
    13  H    3.068359   2.508018   3.977642   2.700625   3.273049
    14  H    4.435545   3.392313   2.427994   3.005148   4.155820
                   11         12         13         14
    11  H    0.000000
    12  H    1.764555   0.000000
    13  H    1.761022   1.764597   0.000000
    14  H    5.818332   5.794948   5.067718   0.000000
 Stoichiometry    C3H9O2(2)
 Framework group  C1[X(C3H9O2)]
 Deg. of freedom    36
 Full point group                 C1      NOp   1
 Largest Abelian subgroup         C1      NOp   1
 Largest concise Abelian subgroup C1      NOp   1
                         Standard orientation:                         
 ---------------------------------------------------------------------
 Center     Atomic      Atomic             Coordinates (Angstroms)
 Number     Number       Type             X           Y           Z
 ---------------------------------------------------------------------
      1          8           0       -1.955368   -0.766052    0.283160
      2          8           0       -1.838358    0.373078   -0.508232
      3          6           0        1.035333   -0.139442   -0.419958
      4          6           0        0.341264    0.903078    0.402902
      5          6           0        2.464440   -0.374794    0.080151
      6          1           0        1.056778    0.170111   -1.465437
      7          1           0        0.470765   -1.069823   -0.372614
      8          1           0       -0.949390    0.968601   -0.047968
      9          1           0        0.140709    0.626856    1.436801
     10          1           0        0.708833    1.921402    0.293045
     11          1           0        3.048965    0.543628    0.037751
     12          1           0        2.968070   -1.126675   -0.525453
     13          1           0        2.459691   -0.719172    1.114454
     14          1           0       -2.600839   -0.504181    0.951426
 ---------------------------------------------------------------------
 Rotational constants (GHZ):          10.4599011           2.0052315           1.8884917
 Leave Link  202 at Fri Sep  6 01:44:09 2019, MaxMem=   671088640 cpu:               3.1 elap:               1.5
 (Enter /shared/centos7/gaussian/g16/l301.exe)
 Standard basis: CC-pVTZ (5D, 7F)
 Ernie: Thresh=  0.10000D-02 Tol=  0.10000D-05 Strict=F.
 Ernie:  15 primitive shells out of 202 were deleted.
 There are   310 symmetry adapted cartesian basis functions of A   symmetry.
 There are   276 symmetry adapted basis functions of A   symmetry.
   276 basis functions,   413 primitive gaussians,   310 cartesian basis functions
    22 alpha electrons       21 beta electrons
       nuclear repulsion energy       186.5565943386 Hartrees.
 IExCor= 4336 DFT=T Ex+Corr=M062X ExCW=0 ScaHFX=  0.540000
 ScaDFX=  1.000000  1.000000  1.000000  1.000000 ScalE2=  1.000000  1.000000
 IRadAn=      5 IRanWt=     -1 IRanGd=            0 ICorTp=0 IEmpDi=  4
 NAtoms=   14 NActive=   14 NUniq=   14 SFac= 1.00D+00 NAtFMM=   60 NAOKFM=F Big=F
 Integral buffers will be    131072 words long.
 Raffenetti 2 integral format.
 Two-electron integral symmetry is turned on.
 Leave Link  301 at Fri Sep  6 01:44:10 2019, MaxMem=   671088640 cpu:               2.1 elap:               1.0
 (Enter /shared/centos7/gaussian/g16/l302.exe)
 NPDir=0 NMtPBC=     1 NCelOv=     1 NCel=       1 NClECP=     1 NCelD=      1
         NCelK=      1 NCelE2=     1 NClLst=     1 CellRange=     0.0.
 One-electron integrals computed using PRISM.
 One-electron integral symmetry used in STVInt
 NBasis=   276 RedAO= T EigKep=  7.30D-04  NBF=   276
 NBsUse=   276 1.00D-06 EigRej= -1.00D+00 NBFU=   276
 Precomputing XC quadrature grid using
 IXCGrd= 4 IRadAn=           5 IRanWt=          -1 IRanGd=           0 AccXCQ= 0.00D+00.
 Generated NRdTot=       0 NPtTot=           0 NUsed=           0 NTot=          32
 NSgBfM=   310   310   310   310   310 MxSgAt=    14 MxSgA2=    14.
 Leave Link  302 at Fri Sep  6 01:45:20 2019, MaxMem=   671088640 cpu:             139.4 elap:              69.7
 (Enter /shared/centos7/gaussian/g16/l303.exe)
 DipDrv:  MaxL=1.
 Leave Link  303 at Fri Sep  6 01:45:25 2019, MaxMem=   671088640 cpu:               9.7 elap:               4.8
 (Enter /shared/centos7/gaussian/g16/l401.exe)
 ExpMin= 1.03D-01 ExpMax= 1.53D+04 ExpMxC= 5.22D+02 IAcc=3 IRadAn=         5 AccDes= 0.00D+00
 Harris functional with IExCor= 1009 and IRadAn=       5 diagonalized for initial guess.
 HarFok:  IExCor= 1009 AccDes= 0.00D+00 IRadAn=         5 IDoV= 1 UseB2=F ITyADJ=14
 ICtDFT=  3500011 ScaDFX=  1.000000  1.000000  1.000000  1.000000
 FoFCou: FMM=F IPFlag=           0 FMFlag=      100000 FMFlg1=           0
         NFxFlg=           0 DoJE=T BraDBF=F KetDBF=T FulRan=T
         wScrn=  0.000000 ICntrl=       500 IOpCl=  0 I1Cent=   200000004 NGrid=           0
         NMat0=    1 NMatS0=      1 NMatT0=    0 NMatD0=    1 NMtDS0=    0 NMtDT0=    0
 Petite list used in FoFCou.
 Harris En= -269.914294182390    
 JPrj=0 DoOrth=F DoCkMO=F.
 Initial guess <Sx>= 0.0000 <Sy>= 0.0000 <Sz>= 0.5000 <S**2>= 0.7500 S= 0.5000
 Leave Link  401 at Fri Sep  6 01:46:02 2019, MaxMem=   671088640 cpu:              74.9 elap:              37.5
 (Enter /shared/centos7/gaussian/g16/l502.exe)
 Integral symmetry usage will be decided dynamically.
 UHF open shell SCF:
 Using DIIS extrapolation, IDIIS=  1040.
 NGot=   671088640 LenX=   670887394 LenY=   670790853
 Requested convergence on RMS density matrix=1.00D-08 within 900 cycles.
 Requested convergence on MAX density matrix=1.00D-06.
 Requested convergence on             energy=1.00D-06.
 No special actions if energy rises.
 Fock matrices will be formed incrementally for  20 cycles.
 Integral accuracy reduced to 1.0D-05 until final iterations.

 Cycle   1  Pass 0  IDiag  1:
 FoFJK:  IHMeth= 1 ICntrl=       0 DoSepK=F KAlg= 0 I1Cent=           0 FoldK=F
 IRaf= 960000000 NMat=       1 IRICut=       1 DoRegI=T DoRafI=F ISym2E= 0 IDoP0=0 IntGTp=1.
 FoFCou: FMM=F IPFlag=           0 FMFlag=      100000 FMFlg1=           0
         NFxFlg=           0 DoJE=F BraDBF=F KetDBF=F FulRan=T
         wScrn=  0.000000 ICntrl=         0 IOpCl=  1 I1Cent=           0 NGrid=           0
         NMat0=    1 NMatS0=      1 NMatT0=    0 NMatD0=    1 NMtDS0=    0 NMtDT0=    0
 Symmetry not used in FoFCou.
 E= -269.778320310871    
 DIIS: error= 3.49D-02 at cycle   1 NSaved=   1.
 NSaved= 1 IEnMin= 1 EnMin= -269.778320310871     IErMin= 1 ErrMin= 3.49D-02
 ErrMax= 3.49D-02  0.00D+00 EMaxC= 1.00D-01 BMatC= 8.99D-01 BMatP= 8.99D-01
 IDIUse=3 WtCom= 6.51D-01 WtEn= 3.49D-01
 Coeff-Com:  0.100D+01
 Coeff-En:   0.100D+01
 Coeff:      0.100D+01
 Gap=     0.331 Goal=   None    Shift=    0.000
 Gap=     0.360 Goal=   None    Shift=    0.000
 GapD=    0.331 DampG=1.000 DampE=0.500 DampFc=0.5000 IDamp=-1.
 Damping current iteration by 5.00D-01
 RMSDP=2.08D-03 MaxDP=9.00D-02              OVMax= 2.38D-01

 Cycle   2  Pass 0  IDiag  1:
 RMSU=  1.04D-03    CP:  9.97D-01
 E= -269.877797468916     Delta-E=       -0.099477158045 Rises=F Damp=T
 DIIS: error= 4.95D-03 at cycle   2 NSaved=   2.
 NSaved= 2 IEnMin= 2 EnMin= -269.877797468916     IErMin= 2 ErrMin= 4.95D-03
 ErrMax= 4.95D-03  0.00D+00 EMaxC= 1.00D-01 BMatC= 7.17D-02 BMatP= 8.99D-01
 IDIUse=3 WtCom= 9.51D-01 WtEn= 4.95D-02
 Coeff-Com: -0.996D-01 0.110D+01
 Coeff-En:   0.000D+00 0.100D+01
 Coeff:     -0.947D-01 0.109D+01
 Gap=     0.357 Goal=   None    Shift=    0.000
 Gap=     0.342 Goal=   None    Shift=    0.000
 RMSDP=5.43D-04 MaxDP=1.87D-02 DE=-9.95D-02 OVMax= 1.05D-01

 Cycle   3  Pass 0  IDiag  1:
 RMSU=  5.38D-04    CP:  1.00D+00  9.66D-01
 E= -269.974353063609     Delta-E=       -0.096555594693 Rises=F Damp=F
 DIIS: error= 3.82D-03 at cycle   3 NSaved=   3.
 NSaved= 3 IEnMin= 3 EnMin= -269.974353063609     IErMin= 3 ErrMin= 3.82D-03
 ErrMax= 3.82D-03  0.00D+00 EMaxC= 1.00D-01 BMatC= 1.94D-02 BMatP= 7.17D-02
 IDIUse=3 WtCom= 9.62D-01 WtEn= 3.82D-02
 Coeff-Com: -0.815D-01 0.357D+00 0.725D+00
 Coeff-En:   0.000D+00 0.000D+00 0.100D+01
 Coeff:     -0.784D-01 0.343D+00 0.735D+00
 Gap=     0.350 Goal=   None    Shift=    0.000
 Gap=     0.280 Goal=   None    Shift=    0.000
 RMSDP=2.28D-04 MaxDP=9.67D-03 DE=-9.66D-02 OVMax= 5.68D-02

 Cycle   4  Pass 0  IDiag  1:
 RMSU=  2.07D-04    CP:  1.00D+00  1.02D+00  8.60D-01
 E= -269.977927854985     Delta-E=       -0.003574791377 Rises=F Damp=F
 DIIS: error= 2.84D-03 at cycle   4 NSaved=   4.
 NSaved= 4 IEnMin= 4 EnMin= -269.977927854985     IErMin= 4 ErrMin= 2.84D-03
 ErrMax= 2.84D-03  0.00D+00 EMaxC= 1.00D-01 BMatC= 7.39D-03 BMatP= 1.94D-02
 IDIUse=3 WtCom= 9.72D-01 WtEn= 2.84D-02
 Coeff-Com: -0.313D-01 0.788D-01 0.405D+00 0.548D+00
 Coeff-En:   0.000D+00 0.000D+00 0.118D+00 0.882D+00
 Coeff:     -0.304D-01 0.766D-01 0.397D+00 0.557D+00
 Gap=     0.348 Goal=   None    Shift=    0.000
 Gap=     0.284 Goal=   None    Shift=    0.000
 RMSDP=1.07D-04 MaxDP=4.04D-03 DE=-3.57D-03 OVMax= 1.16D-02

 Cycle   5  Pass 0  IDiag  1:
 RMSU=  6.89D-05    CP:  1.00D+00  1.02D+00  9.74D-01  7.39D-01
 E= -269.979327012413     Delta-E=       -0.001399157428 Rises=F Damp=F
 DIIS: error= 6.22D-04 at cycle   5 NSaved=   5.
 NSaved= 5 IEnMin= 5 EnMin= -269.979327012413     IErMin= 5 ErrMin= 6.22D-04
 ErrMax= 6.22D-04  0.00D+00 EMaxC= 1.00D-01 BMatC= 4.48D-04 BMatP= 7.39D-03
 IDIUse=3 WtCom= 9.94D-01 WtEn= 6.22D-03
 Coeff-Com: -0.179D-02-0.960D-02 0.756D-01 0.193D+00 0.743D+00
 Coeff-En:   0.000D+00 0.000D+00 0.000D+00 0.000D+00 0.100D+01
 Coeff:     -0.178D-02-0.954D-02 0.751D-01 0.191D+00 0.745D+00
 Gap=     0.350 Goal=   None    Shift=    0.000
 Gap=     0.285 Goal=   None    Shift=    0.000
 RMSDP=4.25D-05 MaxDP=1.55D-03 DE=-1.40D-03 OVMax= 9.57D-03

 Cycle   6  Pass 0  IDiag  1:
 RMSU=  2.71D-05    CP:  1.00D+00  1.02D+00  1.00D+00  8.49D-01  1.22D+00
 E= -269.979504833368     Delta-E=       -0.000177820955 Rises=F Damp=F
 DIIS: error= 4.51D-04 at cycle   6 NSaved=   6.
 NSaved= 6 IEnMin= 6 EnMin= -269.979504833368     IErMin= 6 ErrMin= 4.51D-04
 ErrMax= 4.51D-04  0.00D+00 EMaxC= 1.00D-01 BMatC= 1.27D-04 BMatP= 4.48D-04
 IDIUse=3 WtCom= 9.95D-01 WtEn= 4.51D-03
 Coeff-Com:  0.786D-02-0.232D-01-0.699D-01-0.884D-01 0.282D+00 0.891D+00
 Coeff-En:   0.000D+00 0.000D+00 0.000D+00 0.000D+00 0.000D+00 0.100D+01
 Coeff:      0.783D-02-0.231D-01-0.696D-01-0.880D-01 0.281D+00 0.892D+00
 Gap=     0.351 Goal=   None    Shift=    0.000
 Gap=     0.289 Goal=   None    Shift=    0.000
 RMSDP=3.35D-05 MaxDP=1.10D-03 DE=-1.78D-04 OVMax= 9.18D-03

 Cycle   7  Pass 0  IDiag  1:
 RMSU=  1.45D-05    CP:  1.00D+00  1.01D+00  1.03D+00  9.16D-01  1.57D+00
                    CP:  1.16D+00
 E= -269.979580241904     Delta-E=       -0.000075408536 Rises=F Damp=F
 DIIS: error= 1.36D-04 at cycle   7 NSaved=   7.
 NSaved= 7 IEnMin= 7 EnMin= -269.979580241904     IErMin= 7 ErrMin= 1.36D-04
 ErrMax= 1.36D-04  0.00D+00 EMaxC= 1.00D-01 BMatC= 3.21D-05 BMatP= 1.27D-04
 IDIUse=3 WtCom= 9.99D-01 WtEn= 1.36D-03
 Coeff-Com:  0.296D-02-0.537D-02-0.416D-01-0.942D-01-0.101D+00 0.365D+00
 Coeff-Com:  0.874D+00
 Coeff-En:   0.000D+00 0.000D+00 0.000D+00 0.000D+00 0.000D+00 0.000D+00
 Coeff-En:   0.100D+01
 Coeff:      0.296D-02-0.537D-02-0.415D-01-0.941D-01-0.101D+00 0.365D+00
 Coeff:      0.874D+00
 Gap=     0.352 Goal=   None    Shift=    0.000
 Gap=     0.289 Goal=   None    Shift=    0.000
 RMSDP=1.94D-05 MaxDP=7.03D-04 DE=-7.54D-05 OVMax= 4.23D-03

 Cycle   8  Pass 0  IDiag  1:
 RMSU=  5.62D-06    CP:  1.00D+00  1.01D+00  1.04D+00  9.41D-01  1.76D+00
                    CP:  1.47D+00  1.16D+00
 E= -269.979597079471     Delta-E=       -0.000016837567 Rises=F Damp=F
 DIIS: error= 3.84D-05 at cycle   8 NSaved=   8.
 NSaved= 8 IEnMin= 8 EnMin= -269.979597079471     IErMin= 8 ErrMin= 3.84D-05
 ErrMax= 3.84D-05  0.00D+00 EMaxC= 1.00D-01 BMatC= 2.36D-06 BMatP= 3.21D-05
 IDIUse=1 WtCom= 1.00D+00 WtEn= 0.00D+00
 Coeff-Com: -0.521D-03 0.212D-02 0.424D-02-0.577D-02-0.333D-01-0.261D-01
 Coeff-Com:  0.129D+00 0.930D+00
 Coeff:     -0.521D-03 0.212D-02 0.424D-02-0.577D-02-0.333D-01-0.261D-01
 Coeff:      0.129D+00 0.930D+00
 Gap=     0.352 Goal=   None    Shift=    0.000
 Gap=     0.289 Goal=   None    Shift=    0.000
 RMSDP=4.45D-06 MaxDP=2.09D-04 DE=-1.68D-05 OVMax= 1.35D-03

 Initial convergence to 1.0D-05 achieved.  Increase integral accuracy.
 Cycle   9  Pass 1  IDiag  1:
 E= -269.979603708651     Delta-E=       -0.000006629180 Rises=F Damp=F
 DIIS: error= 2.57D-05 at cycle   1 NSaved=   1.
 NSaved= 1 IEnMin= 1 EnMin= -269.979603708651     IErMin= 1 ErrMin= 2.57D-05
 ErrMax= 2.57D-05  0.00D+00 EMaxC= 1.00D-01 BMatC= 2.01D-06 BMatP= 2.01D-06
 IDIUse=1 WtCom= 1.00D+00 WtEn= 0.00D+00
 Coeff-Com:  0.100D+01
 Coeff:      0.100D+01
 Gap=     0.352 Goal=   None    Shift=    0.000
 Gap=     0.289 Goal=   None    Shift=    0.000
 RMSDP=4.45D-06 MaxDP=2.09D-04 DE=-6.63D-06 OVMax= 5.05D-04

 Cycle  10  Pass 1  IDiag  1:
 RMSU=  7.07D-06    CP:  1.00D+00
 E= -269.979604266357     Delta-E=       -0.000000557705 Rises=F Damp=F
 DIIS: error= 2.14D-05 at cycle   2 NSaved=   2.
 NSaved= 2 IEnMin= 2 EnMin= -269.979604266357     IErMin= 2 ErrMin= 2.14D-05
 ErrMax= 2.14D-05  0.00D+00 EMaxC= 1.00D-01 BMatC= 6.02D-07 BMatP= 2.01D-06
 IDIUse=1 WtCom= 1.00D+00 WtEn= 0.00D+00
 Coeff-Com:  0.276D+00 0.724D+00
 Coeff:      0.276D+00 0.724D+00
 Gap=     0.352 Goal=   None    Shift=    0.000
 Gap=     0.289 Goal=   None    Shift=    0.000
 RMSDP=1.43D-06 MaxDP=8.75D-05 DE=-5.58D-07 OVMax= 4.25D-04

 Cycle  11  Pass 1  IDiag  1:
 RMSU=  1.39D-06    CP:  1.00D+00  1.05D+00
 E= -269.979604461673     Delta-E=       -0.000000195317 Rises=F Damp=F
 DIIS: error= 1.31D-05 at cycle   3 NSaved=   3.
 NSaved= 3 IEnMin= 3 EnMin= -269.979604461673     IErMin= 3 ErrMin= 1.31D-05
 ErrMax= 1.31D-05  0.00D+00 EMaxC= 1.00D-01 BMatC= 2.48D-07 BMatP= 6.02D-07
 IDIUse=1 WtCom= 1.00D+00 WtEn= 0.00D+00
 Coeff-Com: -0.830D-01 0.343D+00 0.740D+00
 Coeff:     -0.830D-01 0.343D+00 0.740D+00
 Gap=     0.352 Goal=   None    Shift=    0.000
 Gap=     0.289 Goal=   None    Shift=    0.000
 RMSDP=1.09D-06 MaxDP=3.97D-05 DE=-1.95D-07 OVMax= 2.33D-04

 Cycle  12  Pass 1  IDiag  1:
 RMSU=  9.62D-07    CP:  1.00D+00  1.12D+00  1.06D+00
 E= -269.979604564700     Delta-E=       -0.000000103026 Rises=F Damp=F
 DIIS: error= 5.24D-06 at cycle   4 NSaved=   4.
 NSaved= 4 IEnMin= 4 EnMin= -269.979604564700     IErMin= 4 ErrMin= 5.24D-06
 ErrMax= 5.24D-06  0.00D+00 EMaxC= 1.00D-01 BMatC= 3.01D-08 BMatP= 2.48D-07
 IDIUse=1 WtCom= 1.00D+00 WtEn= 0.00D+00
 Coeff-Com: -0.585D-01 0.928D-02 0.993D-01 0.950D+00
 Coeff:     -0.585D-01 0.928D-02 0.993D-01 0.950D+00
 Gap=     0.352 Goal=   None    Shift=    0.000
 Gap=     0.289 Goal=   None    Shift=    0.000
 RMSDP=6.50D-07 MaxDP=4.96D-05 DE=-1.03D-07 OVMax= 2.39D-04

 Cycle  13  Pass 1  IDiag  1:
 RMSU=  3.32D-07    CP:  1.00D+00  1.15D+00  1.28D+00  1.43D+00
 E= -269.979604597270     Delta-E=       -0.000000032571 Rises=F Damp=F
 DIIS: error= 4.03D-06 at cycle   5 NSaved=   5.
 NSaved= 5 IEnMin= 5 EnMin= -269.979604597270     IErMin= 5 ErrMin= 4.03D-06
 ErrMax= 4.03D-06  0.00D+00 EMaxC= 1.00D-01 BMatC= 2.22D-08 BMatP= 3.01D-08
 IDIUse=1 WtCom= 1.00D+00 WtEn= 0.00D+00
 Coeff-Com:  0.916D-02-0.162D+00-0.373D+00 0.586D+00 0.939D+00
 Coeff:      0.916D-02-0.162D+00-0.373D+00 0.586D+00 0.939D+00
 Gap=     0.352 Goal=   None    Shift=    0.000
 Gap=     0.289 Goal=   None    Shift=    0.000
 RMSDP=6.87D-07 MaxDP=3.95D-05 DE=-3.26D-08 OVMax= 2.26D-04

 Cycle  14  Pass 1  IDiag  1:
 RMSU=  1.82D-07    CP:  1.00D+00  1.18D+00  1.48D+00  2.03D+00  1.30D+00
 E= -269.979604615482     Delta-E=       -0.000000018212 Rises=F Damp=F
 DIIS: error= 1.34D-06 at cycle   6 NSaved=   6.
 NSaved= 6 IEnMin= 6 EnMin= -269.979604615482     IErMin= 6 ErrMin= 1.34D-06
 ErrMax= 1.34D-06  0.00D+00 EMaxC= 1.00D-01 BMatC= 2.94D-09 BMatP= 2.22D-08
 IDIUse=1 WtCom= 1.00D+00 WtEn= 0.00D+00
 Coeff-Com:  0.129D-01-0.817D-01-0.204D+00 0.170D+00 0.457D+00 0.646D+00
 Coeff:      0.129D-01-0.817D-01-0.204D+00 0.170D+00 0.457D+00 0.646D+00
 Gap=     0.352 Goal=   None    Shift=    0.000
 Gap=     0.289 Goal=   None    Shift=    0.000
 RMSDP=1.69D-07 MaxDP=1.09D-05 DE=-1.82D-08 OVMax= 5.44D-05

 Cycle  15  Pass 1  IDiag  1:
 RMSU=  6.74D-08    CP:  1.00D+00  1.18D+00  1.52D+00  2.15D+00  1.49D+00
                    CP:  1.20D+00
 E= -269.979604617316     Delta-E=       -0.000000001833 Rises=F Damp=F
 DIIS: error= 8.24D-07 at cycle   7 NSaved=   7.
 NSaved= 7 IEnMin= 7 EnMin= -269.979604617316     IErMin= 7 ErrMin= 8.24D-07
 ErrMax= 8.24D-07  0.00D+00 EMaxC= 1.00D-01 BMatC= 4.95D-10 BMatP= 2.94D-09
 IDIUse=1 WtCom= 1.00D+00 WtEn= 0.00D+00
 Coeff-Com: -0.104D-02 0.336D-01 0.787D-01-0.145D+00-0.192D+00 0.128D+00
 Coeff-Com:  0.110D+01
 Coeff:     -0.104D-02 0.336D-01 0.787D-01-0.145D+00-0.192D+00 0.128D+00
 Coeff:      0.110D+01
 Gap=     0.352 Goal=   None    Shift=    0.000
 Gap=     0.289 Goal=   None    Shift=    0.000
 RMSDP=1.14D-07 MaxDP=6.97D-06 DE=-1.83D-09 OVMax= 3.51D-05

 Cycle  16  Pass 1  IDiag  1:
 RMSU=  4.39D-08    CP:  1.00D+00  1.18D+00  1.55D+00  2.20D+00  1.65D+00
                    CP:  1.54D+00  1.42D+00
 E= -269.979604618006     Delta-E=       -0.000000000691 Rises=F Damp=F
 DIIS: error= 4.70D-07 at cycle   8 NSaved=   8.
 NSaved= 8 IEnMin= 8 EnMin= -269.979604618006     IErMin= 8 ErrMin= 4.70D-07
 ErrMax= 4.70D-07  0.00D+00 EMaxC= 1.00D-01 BMatC= 9.83D-11 BMatP= 4.95D-10
 IDIUse=1 WtCom= 1.00D+00 WtEn= 0.00D+00
 Coeff-Com: -0.292D-02 0.209D-01 0.574D-01-0.599D-01-0.122D+00-0.152D+00
 Coeff-Com:  0.854D-01 0.117D+01
 Coeff:     -0.292D-02 0.209D-01 0.574D-01-0.599D-01-0.122D+00-0.152D+00
 Coeff:      0.854D-01 0.117D+01
 Gap=     0.352 Goal=   None    Shift=    0.000
 Gap=     0.289 Goal=   None    Shift=    0.000
 RMSDP=6.92D-08 MaxDP=3.87D-06 DE=-6.91D-10 OVMax= 2.16D-05

 Cycle  17  Pass 1  IDiag  1:
 RMSU=  1.71D-08    CP:  1.00D+00  1.18D+00  1.56D+00  2.22D+00  1.73D+00
                    CP:  1.71D+00  1.85D+00  1.73D+00
 E= -269.979604618182     Delta-E=       -0.000000000176 Rises=F Damp=F
 DIIS: error= 1.36D-07 at cycle   9 NSaved=   9.
 NSaved= 9 IEnMin= 9 EnMin= -269.979604618182     IErMin= 9 ErrMin= 1.36D-07
 ErrMax= 1.36D-07  0.00D+00 EMaxC= 1.00D-01 BMatC= 2.24D-11 BMatP= 9.83D-11
 IDIUse=1 WtCom= 1.00D+00 WtEn= 0.00D+00
 Coeff-Com: -0.400D-03-0.277D-02-0.167D-02 0.153D-01 0.152D-01-0.600D-01
 Coeff-Com: -0.224D+00 0.301D+00 0.957D+00
 Coeff:     -0.400D-03-0.277D-02-0.167D-02 0.153D-01 0.152D-01-0.600D-01
 Coeff:     -0.224D+00 0.301D+00 0.957D+00
 Gap=     0.352 Goal=   None    Shift=    0.000
 Gap=     0.289 Goal=   None    Shift=    0.000
 RMSDP=2.55D-08 MaxDP=1.12D-06 DE=-1.76D-10 OVMax= 8.04D-06

 Cycle  18  Pass 1  IDiag  1:
 RMSU=  6.75D-09    CP:  1.00D+00  1.18D+00  1.57D+00  2.23D+00  1.75D+00
                    CP:  1.75D+00  2.00D+00  2.14D+00  1.21D+00
 E= -269.979604618203     Delta-E=       -0.000000000022 Rises=F Damp=F
 DIIS: error= 5.63D-08 at cycle  10 NSaved=  10.
 NSaved=10 IEnMin=10 EnMin= -269.979604618203     IErMin=10 ErrMin= 5.63D-08
 ErrMax= 5.63D-08  0.00D+00 EMaxC= 1.00D-01 BMatC= 3.35D-12 BMatP= 2.24D-11
 IDIUse=1 WtCom= 1.00D+00 WtEn= 0.00D+00
 Coeff-Com:  0.463D-03-0.556D-02-0.121D-01 0.175D-01 0.308D-01 0.136D-01
 Coeff-Com: -0.996D-01-0.133D+00 0.280D+00 0.909D+00
 Coeff:      0.463D-03-0.556D-02-0.121D-01 0.175D-01 0.308D-01 0.136D-01
 Coeff:     -0.996D-01-0.133D+00 0.280D+00 0.909D+00
 Gap=     0.352 Goal=   None    Shift=    0.000
 Gap=     0.289 Goal=   None    Shift=    0.000
 RMSDP=9.82D-09 MaxDP=3.51D-07 DE=-2.15D-11 OVMax= 3.20D-06

 SCF Done:  E(UM062X) =  -269.979604618     A.U. after   18 cycles
            NFock= 18  Conv=0.98D-08     -V/T= 2.0054
 <Sx>= 0.0000 <Sy>= 0.0000 <Sz>= 0.5000 <S**2>= 0.7599 S= 0.5049
 <L.S>= 0.000000000000E+00
 KE= 2.685242236837D+02 PE=-1.005261137055D+03 EE= 2.802007144150D+02
 Annihilation of the first spin contaminant:
 S**2 before annihilation     0.7599,   after     0.7500
 Leave Link  502 at Fri Sep  6 02:11:01 2019, MaxMem=   671088640 cpu:            2998.2 elap:            1499.2
 (Enter /shared/centos7/gaussian/g16/l801.exe)
 DoSCS=F DFT=T ScalE2(SS,OS)=  1.000000  1.000000
 Range of M.O.s used for correlation:     1   276
 NBasis=   276 NAE=    22 NBE=    21 NFC=     0 NFV=     0
 NROrb=    276 NOA=    22 NOB=    21 NVA=   254 NVB=   255

 **** Warning!!: The largest alpha MO coefficient is  0.12049092D+02


 **** Warning!!: The largest beta MO coefficient is  0.12049258D+02

 Leave Link  801 at Fri Sep  6 02:11:03 2019, MaxMem=   671088640 cpu:               2.0 elap:               1.3
 (Enter /shared/centos7/gaussian/g16/l1101.exe)
 Using compressed storage, NAtomX=    14.
 Will process     15 centers per pass.
 Leave Link 1101 at Fri Sep  6 02:11:35 2019, MaxMem=   671088640 cpu:              64.5 elap:              32.2
 (Enter /shared/centos7/gaussian/g16/l1102.exe)
 Symmetrizing basis deriv contribution to polar:
 IMax=3 JMax=2 DiffMx= 0.00D+00
 Leave Link 1102 at Fri Sep  6 02:11:38 2019, MaxMem=   671088640 cpu:               5.9 elap:               3.0
 (Enter /shared/centos7/gaussian/g16/l1110.exe)
 Forming Gx(P) for the SCF density, NAtomX=    14.
 Integral derivatives from FoFJK, PRISM(SPDF).
 Do as many integral derivatives as possible in FoFJK.
 G2DrvN: MDV=     671087496.
 G2DrvN: will do    15 centers at a time, making    1 passes.
 Calling FoFCou, ICntrl=  3107 FMM=F I1Cent=   0 AccDes= 0.00D+00.
 FoFJK:  IHMeth= 1 ICntrl=    3107 DoSepK=F KAlg= 0 I1Cent=           0 FoldK=F
 IRaf=         0 NMat=       1 IRICut=       1 DoRegI=T DoRafI=F ISym2E= 0 IDoP0=0 IntGTp=1.
 FoFCou: FMM=F IPFlag=           0 FMFlag=      100000 FMFlg1=           0
         NFxFlg=           0 DoJE=F BraDBF=F KetDBF=F FulRan=T
         wScrn=  0.000000 ICntrl=      3107 IOpCl=  1 I1Cent=           0 NGrid=           0
         NMat0=    1 NMatS0=      1 NMatT0=    0 NMatD0=    1 NMtDS0=    0 NMtDT0=    0
 Symmetry not used in FoFCou.
 End of G2Drv F.D. properties file   721 does not exist.
 End of G2Drv F.D. properties file   722 does not exist.
 End of G2Drv F.D. properties file   788 does not exist.
 Leave Link 1110 at Fri Sep  6 02:41:42 2019, MaxMem=   671088640 cpu:            3608.0 elap:            1804.1
 (Enter /shared/centos7/gaussian/g16/l1002.exe)
 Minotr:  UHF open shell wavefunction.
          IDoAtm=11111111111111
          Direct CPHF calculation.
          Differentiating once with respect to nuclear coordinates.
          Requested convergence is 1.0D-08 RMS, and 1.0D-07 maximum.
          Secondary convergence is 1.0D-12 RMS, and 1.0D-12 maximum.
          NewPWx=T KeepS1=F KeepF1=F KeepIn=T MapXYZ=F SortEE=F KeepMc=T.
         4194 words used for storage of precomputed grid.
 Two-electron integrals replicated using symmetry.
          MDV=     671088640 using IRadAn=       1.
          Solving linear equations simultaneously, MaxMat=     380.
 FoF2E skips out because all densities are zero.
 CalDSu exits because no D1Ps are significant.
 FoFJK:  IHMeth= 1 ICntrl=       0 DoSepK=F KAlg= 0 I1Cent=           0 FoldK=F
 IRaf= 950000000 NMat=      42 IRICut=     105 DoRegI=T DoRafI=T ISym2E= 2 IDoP0=3 IntGTp=3.
 FoFCou: FMM=F IPFlag=           0 FMFlag=      100000 FMFlg1=           0
         NFxFlg=           0 DoJE=F BraDBF=F KetDBF=F FulRan=T
         wScrn=  0.000000 ICntrl=         0 IOpCl=  1 I1Cent=           0 NGrid=           0
         NMat0=   42 NMatS0=     42 NMatT0=    0 NMatD0=   42 NMtDS0=    0 NMtDT0=    0
 Integrals replicated using symmetry in FoFCou.
 Raff kept on since  92.82% of shell-pairs survive, threshold=   0.20 IRatSp=93.
          There are    45 degrees of freedom in the 1st order CPHF.  IDoFFX=6 NUNeed=     0.
     39 vectors produced by pass  0 Test12= 2.43D-14 2.22D-09 XBig12= 1.24D-01 1.21D-01.
 AX will form    39 AO Fock derivatives at one time.
     39 vectors produced by pass  1 Test12= 2.43D-14 2.22D-09 XBig12= 1.22D-02 2.30D-02.
     39 vectors produced by pass  2 Test12= 2.43D-14 2.22D-09 XBig12= 7.43D-04 4.69D-03.
     39 vectors produced by pass  3 Test12= 2.43D-14 2.22D-09 XBig12= 1.65D-05 6.23D-04.
     39 vectors produced by pass  4 Test12= 2.43D-14 2.22D-09 XBig12= 2.42D-07 6.81D-05.
     39 vectors produced by pass  5 Test12= 2.43D-14 2.22D-09 XBig12= 3.43D-09 7.18D-06.
     36 vectors produced by pass  6 Test12= 2.43D-14 2.22D-09 XBig12= 3.44D-11 6.24D-07.
     16 vectors produced by pass  7 Test12= 2.43D-14 2.22D-09 XBig12= 2.42D-13 4.60D-08.
      2 vectors produced by pass  8 Test12= 2.43D-14 2.22D-09 XBig12= 1.37D-15 3.06D-09.
 InvSVY:  IOpt=1 It=  1 EMax= 2.22D-15
 Solved reduced A of dimension   288 with    39 vectors.
 End of Minotr F.D. properties file   721 does not exist.
 End of Minotr F.D. properties file   722 does not exist.
 End of Minotr F.D. properties file   788 does not exist.
 Leave Link 1002 at Fri Sep  6 03:35:20 2019, MaxMem=   671088640 cpu:            6434.6 elap:            3217.5
 (Enter /shared/centos7/gaussian/g16/l601.exe)
 Copying SCF densities to generalized density rwf, IOpCl= 1 IROHF=0.

 **********************************************************************

            Population analysis using the SCF density.

 **********************************************************************

 Orbital symmetries:
 Alpha Orbitals:
       Occupied  (A) (A) (A) (A) (A) (A) (A) (A) (A) (A) (A) (A)
                 (A) (A) (A) (A) (A) (A) (A) (A) (A) (A)
       Virtual   (A) (A) (A) (A) (A) (A) (A) (A) (A) (A) (A) (A)
                 (A) (A) (A) (A) (A) (A) (A) (A) (A) (A) (A) (A)
                 (A) (A) (A) (A) (A) (A) (A) (A) (A) (A) (A) (A)
                 (A) (A) (A) (A) (A) (A) (A) (A) (A) (A) (A) (A)
                 (A) (A) (A) (A) (A) (A) (A) (A) (A) (A) (A) (A)
                 (A) (A) (A) (A) (A) (A) (A) (A) (A) (A) (A) (A)
                 (A) (A) (A) (A) (A) (A) (A) (A) (A) (A) (A) (A)
                 (A) (A) (A) (A) (A) (A) (A) (A) (A) (A) (A) (A)
                 (A) (A) (A) (A) (A) (A) (A) (A) (A) (A) (A) (A)
                 (A) (A) (A) (A) (A) (A) (A) (A) (A) (A) (A) (A)
                 (A) (A) (A) (A) (A) (A) (A) (A) (A) (A) (A) (A)
                 (A) (A) (A) (A) (A) (A) (A) (A) (A) (A) (A) (A)
                 (A) (A) (A) (A) (A) (A) (A) (A) (A) (A) (A) (A)
                 (A) (A) (A) (A) (A) (A) (A) (A) (A) (A) (A) (A)
                 (A) (A) (A) (A) (A) (A) (A) (A) (A) (A) (A) (A)
                 (A) (A) (A) (A) (A) (A) (A) (A) (A) (A) (A) (A)
                 (A) (A) (A) (A) (A) (A) (A) (A) (A) (A) (A) (A)
                 (A) (A) (A) (A) (A) (A) (A) (A) (A) (A) (A) (A)
                 (A) (A) (A) (A) (A) (A) (A) (A) (A) (A) (A) (A)
                 (A) (A) (A) (A) (A) (A) (A) (A) (A) (A) (A) (A)
                 (A) (A) (A) (A) (A) (A) (A) (A) (A) (A) (A) (A)
                 (A) (A)
 Beta  Orbitals:
       Occupied  (A) (A) (A) (A) (A) (A) (A) (A) (A) (A) (A) (A)
                 (A) (A) (A) (A) (A) (A) (A) (A) (A)
       Virtual   (A) (A) (A) (A) (A) (A) (A) (A) (A) (A) (A) (A)
                 (A) (A) (A) (A) (A) (A) (A) (A) (A) (A) (A) (A)
                 (A) (A) (A) (A) (A) (A) (A) (A) (A) (A) (A) (A)
                 (A) (A) (A) (A) (A) (A) (A) (A) (A) (A) (A) (A)
                 (A) (A) (A) (A) (A) (A) (A) (A) (A) (A) (A) (A)
                 (A) (A) (A) (A) (A) (A) (A) (A) (A) (A) (A) (A)
                 (A) (A) (A) (A) (A) (A) (A) (A) (A) (A) (A) (A)
                 (A) (A) (A) (A) (A) (A) (A) (A) (A) (A) (A) (A)
                 (A) (A) (A) (A) (A) (A) (A) (A) (A) (A) (A) (A)
                 (A) (A) (A) (A) (A) (A) (A) (A) (A) (A) (A) (A)
                 (A) (A) (A) (A) (A) (A) (A) (A) (A) (A) (A) (A)
                 (A) (A) (A) (A) (A) (A) (A) (A) (A) (A) (A) (A)
                 (A) (A) (A) (A) (A) (A) (A) (A) (A) (A) (A) (A)
                 (A) (A) (A) (A) (A) (A) (A) (A) (A) (A) (A) (A)
                 (A) (A) (A) (A) (A) (A) (A) (A) (A) (A) (A) (A)
                 (A) (A) (A) (A) (A) (A) (A) (A) (A) (A) (A) (A)
                 (A) (A) (A) (A) (A) (A) (A) (A) (A) (A) (A) (A)
                 (A) (A) (A) (A) (A) (A) (A) (A) (A) (A) (A) (A)
                 (A) (A) (A) (A) (A) (A) (A) (A) (A) (A) (A) (A)
                 (A) (A) (A) (A) (A) (A) (A) (A) (A) (A) (A) (A)
                 (A) (A) (A) (A) (A) (A) (A) (A) (A) (A) (A) (A)
                 (A) (A) (A)
 The electronic state is 2-A.
 Alpha  occ. eigenvalues --  -19.68641 -19.68328 -10.55304 -10.53500 -10.52870
 Alpha  occ. eigenvalues --   -1.26630  -0.99021  -0.89306  -0.78251  -0.67866
 Alpha  occ. eigenvalues --   -0.62121  -0.58714  -0.54309  -0.52002  -0.49805
 Alpha  occ. eigenvalues --   -0.46537  -0.45190  -0.41426  -0.39827  -0.39428
 Alpha  occ. eigenvalues --   -0.37496  -0.29013
 Alpha virt. eigenvalues --    0.06185   0.07692   0.10577   0.11624   0.12275
 Alpha virt. eigenvalues --    0.13874   0.15632   0.16707   0.17336   0.20098
 Alpha virt. eigenvalues --    0.22343   0.25908   0.29007   0.29863   0.31263
 Alpha virt. eigenvalues --    0.32551   0.34499   0.39835   0.40928   0.44035
 Alpha virt. eigenvalues --    0.45633   0.45759   0.47663   0.49060   0.50084
 Alpha virt. eigenvalues --    0.50419   0.50664   0.52228   0.53620   0.54458
 Alpha virt. eigenvalues --    0.57762   0.58841   0.60456   0.64380   0.66412
 Alpha virt. eigenvalues --    0.68853   0.70387   0.72034   0.72915   0.74506
 Alpha virt. eigenvalues --    0.77642   0.80192   0.82220   0.85750   0.88372
 Alpha virt. eigenvalues --    0.90254   0.91521   0.92682   0.95401   1.00194
 Alpha virt. eigenvalues --    1.03215   1.05055   1.06187   1.08372   1.09255
 Alpha virt. eigenvalues --    1.10841   1.12293   1.14241   1.18748   1.19052
 Alpha virt. eigenvalues --    1.20503   1.22433   1.22871   1.25416   1.26648
 Alpha virt. eigenvalues --    1.29389   1.30509   1.31933   1.33356   1.35939
 Alpha virt. eigenvalues --    1.38106   1.40664   1.41469   1.45159   1.48494
 Alpha virt. eigenvalues --    1.50764   1.52483   1.54538   1.55901   1.58695
 Alpha virt. eigenvalues --    1.60829   1.62019   1.66223   1.68841   1.75712
 Alpha virt. eigenvalues --    1.77814   1.92641   1.95365   2.05408   2.09874
 Alpha virt. eigenvalues --    2.17901   2.20423   2.23541   2.28138   2.30069
 Alpha virt. eigenvalues --    2.31037   2.34738   2.39175   2.41623   2.44811
 Alpha virt. eigenvalues --    2.51212   2.51970   2.53997   2.55662   2.57865
 Alpha virt. eigenvalues --    2.62005   2.63922   2.66859   2.70813   2.71641
 Alpha virt. eigenvalues --    2.74965   2.80885   2.82396   2.84342   2.85721
 Alpha virt. eigenvalues --    2.86964   2.91499   2.92703   2.97421   2.99346
 Alpha virt. eigenvalues --    3.03214   3.04673   3.05983   3.07283   3.09152
 Alpha virt. eigenvalues --    3.10088   3.11684   3.13473   3.15240   3.18627
 Alpha virt. eigenvalues --    3.20308   3.22795   3.23563   3.26531   3.27078
 Alpha virt. eigenvalues --    3.28037   3.34353   3.34865   3.36185   3.38607
 Alpha virt. eigenvalues --    3.40800   3.42003   3.44621   3.46054   3.48944
 Alpha virt. eigenvalues --    3.50425   3.50997   3.55372   3.57418   3.58398
 Alpha virt. eigenvalues --    3.63646   3.68157   3.69778   3.71393   3.73127
 Alpha virt. eigenvalues --    3.73959   3.75611   3.76996   3.78315   3.79241
 Alpha virt. eigenvalues --    3.80263   3.82303   3.84195   3.85668   3.87750
 Alpha virt. eigenvalues --    3.90140   3.92672   3.93374   3.96313   3.97749
 Alpha virt. eigenvalues --    3.98311   3.99928   4.03872   4.05981   4.06872
 Alpha virt. eigenvalues --    4.07229   4.11353   4.12503   4.15137   4.16414
 Alpha virt. eigenvalues --    4.19778   4.20889   4.23647   4.25963   4.27429
 Alpha virt. eigenvalues --    4.28232   4.33584   4.36212   4.37746   4.42260
 Alpha virt. eigenvalues --    4.48582   4.49105   4.52642   4.59379   4.65087
 Alpha virt. eigenvalues --    4.70932   4.72011   4.74524   4.79766   4.82475
 Alpha virt. eigenvalues --    4.84325   4.85362   4.85818   4.87034   4.90455
 Alpha virt. eigenvalues --    4.96302   4.99846   5.00574   5.04062   5.09731
 Alpha virt. eigenvalues --    5.11416   5.14719   5.17496   5.19367   5.24270
 Alpha virt. eigenvalues --    5.26832   5.29720   5.31086   5.33295   5.38385
 Alpha virt. eigenvalues --    5.41637   5.44276   5.46534   5.48357   5.54267
 Alpha virt. eigenvalues --    5.58323   5.76833   5.79462   5.80737   5.81099
 Alpha virt. eigenvalues --    5.88255   5.95735   6.08365   6.19369   6.34107
 Alpha virt. eigenvalues --    6.36518   6.39626   6.47373   6.54488   6.59530
 Alpha virt. eigenvalues --    6.61880   6.69792   6.71776   6.86120   6.90144
 Alpha virt. eigenvalues --    7.15859   7.19717   7.45241   7.60248   9.91226
 Alpha virt. eigenvalues --   11.27353  12.15209  12.92416  13.41986
  Beta  occ. eigenvalues --  -19.68530 -19.67408 -10.54762 -10.53532 -10.52808
  Beta  occ. eigenvalues --   -1.25085  -0.96754  -0.88422  -0.76753  -0.67098
  Beta  occ. eigenvalues --   -0.60817  -0.55564  -0.53487  -0.50433  -0.49005
  Beta  occ. eigenvalues --   -0.45878  -0.43805  -0.40935  -0.39616  -0.36257
  Beta  occ. eigenvalues --   -0.35921
  Beta virt. eigenvalues --   -0.07056   0.06269   0.07711   0.10592   0.11628
  Beta virt. eigenvalues --    0.12512   0.14083   0.15779   0.16717   0.17544
  Beta virt. eigenvalues --    0.20352   0.22908   0.26273   0.28995   0.30059
  Beta virt. eigenvalues --    0.31336   0.33123   0.34707   0.40320   0.41425
  Beta virt. eigenvalues --    0.44447   0.45916   0.46081   0.48789   0.49521
  Beta virt. eigenvalues --    0.50705   0.50889   0.51515   0.52420   0.53705
  Beta virt. eigenvalues --    0.54883   0.58058   0.59330   0.61046   0.64896
  Beta virt. eigenvalues --    0.66780   0.69009   0.70776   0.72380   0.73001
  Beta virt. eigenvalues --    0.74719   0.77719   0.80376   0.82282   0.85881
  Beta virt. eigenvalues --    0.88498   0.90609   0.91656   0.92847   0.95560
  Beta virt. eigenvalues --    1.00341   1.03371   1.05289   1.06370   1.08500
  Beta virt. eigenvalues --    1.09539   1.11087   1.12728   1.14439   1.18841
  Beta virt. eigenvalues --    1.19277   1.20734   1.22505   1.23054   1.25481
  Beta virt. eigenvalues --    1.27041   1.30076   1.30942   1.32185   1.33609
  Beta virt. eigenvalues --    1.36297   1.38443   1.41056   1.41652   1.45564
  Beta virt. eigenvalues --    1.48754   1.51103   1.52801   1.55042   1.56617
  Beta virt. eigenvalues --    1.59480   1.61307   1.62364   1.66620   1.69625
  Beta virt. eigenvalues --    1.76455   1.78513   1.93023   1.96516   2.05650
  Beta virt. eigenvalues --    2.10947   2.18149   2.20770   2.23808   2.28912
  Beta virt. eigenvalues --    2.30750   2.31493   2.34989   2.39791   2.42344
  Beta virt. eigenvalues --    2.44892   2.51431   2.52200   2.55370   2.56555
  Beta virt. eigenvalues --    2.58833   2.62327   2.64491   2.67575   2.72045
  Beta virt. eigenvalues --    2.72906   2.76523   2.81374   2.82745   2.85134
  Beta virt. eigenvalues --    2.86680   2.88703   2.92186   2.93720   2.98343
  Beta virt. eigenvalues --    3.00563   3.04207   3.06706   3.07363   3.08350
  Beta virt. eigenvalues --    3.09377   3.11489   3.12986   3.15451   3.16449
  Beta virt. eigenvalues --    3.18909   3.20442   3.23342   3.23929   3.27031
  Beta virt. eigenvalues --    3.28001   3.28818   3.35154   3.35457   3.37490
  Beta virt. eigenvalues --    3.39204   3.41317   3.42250   3.45250   3.46466
  Beta virt. eigenvalues --    3.49248   3.50900   3.51662   3.55887   3.57765
  Beta virt. eigenvalues --    3.59310   3.64557   3.68720   3.69967   3.71706
  Beta virt. eigenvalues --    3.73767   3.74377   3.75979   3.77337   3.79022
  Beta virt. eigenvalues --    3.79500   3.80578   3.82918   3.84643   3.86197
  Beta virt. eigenvalues --    3.88532   3.90426   3.92949   3.93600   3.96810
  Beta virt. eigenvalues --    3.98014   3.98607   4.00258   4.04273   4.06506
  Beta virt. eigenvalues --    4.07299   4.07746   4.11649   4.12926   4.15162
  Beta virt. eigenvalues --    4.17056   4.20399   4.21098   4.24144   4.26041
  Beta virt. eigenvalues --    4.27863   4.29110   4.34259   4.37172   4.39272
  Beta virt. eigenvalues --    4.42503   4.49381   4.49625   4.53488   4.60169
  Beta virt. eigenvalues --    4.65826   4.71485   4.72704   4.75917   4.80228
  Beta virt. eigenvalues --    4.82850   4.84944   4.85979   4.86213   4.89156
  Beta virt. eigenvalues --    4.90775   4.97698   5.00613   5.01636   5.05158
  Beta virt. eigenvalues --    5.10517   5.12208   5.15325   5.18547   5.20816
  Beta virt. eigenvalues --    5.25300   5.27572   5.30100   5.31502   5.33695
  Beta virt. eigenvalues --    5.39970   5.43307   5.44715   5.48042   5.50088
  Beta virt. eigenvalues --    5.56534   5.58876   5.78305   5.80685   5.81126
  Beta virt. eigenvalues --    5.84858   5.88237   5.96140   6.09772   6.20820
  Beta virt. eigenvalues --    6.34538   6.37053   6.39970   6.48156   6.55998
  Beta virt. eigenvalues --    6.60778   6.63270   6.71543   6.72222   6.86629
  Beta virt. eigenvalues --    6.91329   7.15878   7.20597   7.45637   7.60380
  Beta virt. eigenvalues --    9.91984  11.27519  12.16213  12.93089  13.41973
          Condensed to atoms (all electrons):
               1          2          3          4          5          6
     1  O    7.900134   0.057261  -0.018994   0.006563  -0.000775  -0.000115
     2  O    0.057261   8.089455   0.016862  -0.099658   0.001574   0.002671
     3  C   -0.018994   0.016862   5.047093   0.286199   0.294234   0.401192
     4  C    0.006563  -0.099658   0.286199   5.339617  -0.057392  -0.038132
     5  C   -0.000775   0.001574   0.294234  -0.057392   4.973142  -0.033474
     6  H   -0.000115   0.002671   0.401192  -0.038132  -0.033474   0.575086
     7  H    0.018167  -0.008596   0.406194  -0.038854  -0.041304  -0.034933
     8  H   -0.031595   0.201214  -0.019963   0.229265   0.000651  -0.002723
     9  H    0.006269  -0.001801  -0.049108   0.389405   0.000768   0.006706
    10  H    0.001349   0.000012  -0.035595   0.384592  -0.004508  -0.005059
    11  H   -0.000014   0.000006  -0.039219  -0.003996   0.401463  -0.006224
    12  H   -0.000012   0.000026  -0.037357   0.008587   0.403871  -0.004698
    13  H   -0.000043   0.000004  -0.040217  -0.002684   0.401560   0.007340
    14  H    0.307557  -0.030478   0.001718  -0.002651   0.000072   0.000023
               7          8          9         10         11         12
     1  O    0.018167  -0.031595   0.006269   0.001349  -0.000014  -0.000012
     2  O   -0.008596   0.201214  -0.001801   0.000012   0.000006   0.000026
     3  C    0.406194  -0.019963  -0.049108  -0.035595  -0.039219  -0.037357
     4  C   -0.038854   0.229265   0.389405   0.384592  -0.003996   0.008587
     5  C   -0.041304   0.000651   0.000768  -0.004508   0.401463   0.403871
     6  H   -0.034933  -0.002723   0.006706  -0.005059  -0.006224  -0.004698
     7  H    0.548042   0.000237  -0.005660   0.006711   0.006991  -0.004156
     8  H    0.000237   0.402102  -0.016149  -0.005440  -0.000119  -0.000144
     9  H   -0.005660  -0.016149   0.545589  -0.029335  -0.000208  -0.000111
    10  H    0.006711  -0.005440  -0.029335   0.546472   0.002279  -0.000135
    11  H    0.006991  -0.000119  -0.000208   0.002279   0.603841  -0.031909
    12  H   -0.004156  -0.000144  -0.000111  -0.000135  -0.031909   0.578756
    13  H   -0.005297   0.000038   0.001985   0.000144  -0.041830  -0.030723
    14  H   -0.001195  -0.003824   0.001411  -0.000049   0.000004  -0.000000
              13         14
     1  O   -0.000043   0.307557
     2  O    0.000004  -0.030478
     3  C   -0.040217   0.001718
     4  C   -0.002684  -0.002651
     5  C    0.401560   0.000072
     6  H    0.007340   0.000023
     7  H   -0.005297  -0.001195
     8  H    0.000038  -0.003824
     9  H    0.001985   0.001411
    10  H    0.000144  -0.000049
    11  H   -0.041830   0.000004
    12  H   -0.030723  -0.000000
    13  H    0.598420  -0.000007
    14  H   -0.000007   0.458816
          Atomic-Atomic Spin Densities.
               1          2          3          4          5          6
     1  O    0.049001  -0.038558  -0.002217   0.018059   0.000278  -0.000169
     2  O   -0.038558   0.539448   0.009552  -0.114190  -0.000833   0.001058
     3  C   -0.002217   0.009552  -0.029163  -0.048300   0.019266   0.003791
     4  C    0.018059  -0.114190  -0.048300   0.807376  -0.017688  -0.004787
     5  C    0.000278  -0.000833   0.019266  -0.017688   0.037329  -0.002778
     6  H   -0.000169   0.001058   0.003791  -0.004787  -0.002778   0.005476
     7  H   -0.000955   0.001957   0.002796  -0.004459  -0.002022   0.000714
     8  H    0.008755  -0.035517  -0.000703   0.061188   0.000441  -0.000276
     9  H   -0.002109   0.003682   0.001669  -0.004734  -0.000897  -0.000105
    10  H   -0.000267   0.002008   0.001478  -0.001992  -0.000878   0.000718
    11  H   -0.000004   0.000020   0.000670   0.000388  -0.000379   0.000103
    12  H   -0.000021   0.000053  -0.003645   0.002332  -0.004249   0.000706
    13  H   -0.000030   0.000036   0.000622   0.000248  -0.000366   0.000016
    14  H    0.000589  -0.001148  -0.000085   0.000082   0.000001  -0.000006
               7          8          9         10         11         12
     1  O   -0.000955   0.008755  -0.002109  -0.000267  -0.000004  -0.000021
     2  O    0.001957  -0.035517   0.003682   0.002008   0.000020   0.000053
     3  C    0.002796  -0.000703   0.001669   0.001478   0.000670  -0.003645
     4  C   -0.004459   0.061188  -0.004734  -0.001992   0.000388   0.002332
     5  C   -0.002022   0.000441  -0.000897  -0.000878  -0.000379  -0.004249
     6  H    0.000714  -0.000276  -0.000105   0.000718   0.000103   0.000706
     7  H    0.006823  -0.000560   0.000647  -0.000018   0.000028   0.000724
     8  H   -0.000560  -0.061323   0.002382   0.000924  -0.000042  -0.000052
     9  H    0.000647   0.002382  -0.039297   0.003515   0.000030   0.000152
    10  H   -0.000018   0.000924   0.003515  -0.039237  -0.000090   0.000168
    11  H    0.000028  -0.000042   0.000030  -0.000090  -0.003232   0.000318
    12  H    0.000724  -0.000052   0.000152   0.000168   0.000318   0.014103
    13  H    0.000087  -0.000037  -0.000123   0.000030   0.000640   0.000187
    14  H   -0.000005   0.000502  -0.000177  -0.000006  -0.000000  -0.000000
              13         14
     1  O   -0.000030   0.000589
     2  O    0.000036  -0.001148
     3  C    0.000622  -0.000085
     4  C    0.000248   0.000082
     5  C   -0.000366   0.000001
     6  H    0.000016  -0.000006
     7  H    0.000087  -0.000005
     8  H   -0.000037   0.000502
     9  H   -0.000123  -0.000177
    10  H    0.000030  -0.000006
    11  H    0.000640  -0.000000
    12  H    0.000187  -0.000000
    13  H   -0.002553  -0.000001
    14  H   -0.000001  -0.001022
 Mulliken charges and spin densities:
               1          2
     1  O   -0.245753   0.032352
     2  O   -0.228554   0.367570
     3  C   -0.213042  -0.044271
     4  C   -0.400861   0.693523
     5  C   -0.339883   0.027226
     6  H    0.132339   0.004463
     7  H    0.153653   0.005758
     8  H    0.246449  -0.024318
     9  H    0.150239  -0.035365
    10  H    0.138562  -0.033648
    11  H    0.108934  -0.001550
    12  H    0.118006   0.010777
    13  H    0.111310  -0.001244
    14  H    0.268601  -0.001275
 Sum of Mulliken charges =  -0.00000   1.00000
 Mulliken charges and spin densities with hydrogens summed into heavy atoms:
               1          2
     1  O    0.022848   0.031077
     2  O    0.017895   0.343252
     3  C    0.072950  -0.034050
     4  C   -0.112060   0.624511
     5  C   -0.001633   0.035210
 APT charges:
               1
     1  O   -0.630728
     2  O   -0.186060
     3  C   -0.419251
     4  C   -0.804859
     5  C   -1.232909
     6  H    0.334498
     7  H    0.244397
     8  H    0.206164
     9  H    0.303149
    10  H    0.407006
    11  H    0.384850
    12  H    0.448001
    13  H    0.299544
    14  H    0.646197
 Sum of APT charges =  -0.00000
 APT charges with hydrogens summed into heavy atoms:
               1
     1  O    0.015469
     2  O    0.020104
     3  C    0.159644
     4  C   -0.094703
     5  C   -0.100514
 Electronic spatial extent (au):  <R**2>=            666.6810
 Charge=             -0.0000 electrons
 Dipole moment (field-independent basis, Debye):
    X=              0.6119    Y=              0.6594    Z=              1.7148  Tot=              1.9364
 Quadrupole moment (field-independent basis, Debye-Ang):
   XX=            -31.3398   YY=            -32.9360   ZZ=            -31.6755
   XY=              0.1665   XZ=             -5.2056   YZ=             -0.3158
 Traceless Quadrupole moment (field-independent basis, Debye-Ang):
   XX=              0.6440   YY=             -0.9523   ZZ=              0.3083
   XY=              0.1665   XZ=             -5.2056   YZ=             -0.3158
 Octapole moment (field-independent basis, Debye-Ang**2):
  XXX=            -28.7652  YYY=              0.4475  ZZZ=              2.3170  XYY=             -2.8354
  XXY=             -3.1279  XXZ=             11.5149  XZZ=             -8.8382  YZZ=             -1.9341
  YYZ=             -0.6004  XYZ=              1.1324
 Hexadecapole moment (field-independent basis, Debye-Ang**3):
 XXXX=           -607.4125 YYYY=           -121.9941 ZZZZ=            -79.7173 XXXY=             14.1355
 XXXZ=            -38.9039 YYYX=              4.0309 YYYZ=             -2.7524 ZZZX=             -7.5358
 ZZZY=             -4.3701 XXYY=           -128.9158 XXZZ=           -110.8652 YYZZ=            -34.8160
 XXYZ=             -3.6932 YYXZ=             -2.3607 ZZXY=              2.4886
 N-N= 1.865565943386D+02 E-N=-1.005261144236D+03  KE= 2.685242236837D+02
  Exact polarizability:   0.000   0.000   0.000   0.000   0.000   0.000
 Approx polarizability:  70.660   5.675  59.661   2.448  -1.405  56.153
                          Isotropic Fermi Contact Couplings
        Atom                 a.u.       MegaHertz       Gauss      10(-4) cm-1
     1  O(17)              0.00100      -0.60714      -0.21664      -0.20252
     2  O(17)              0.10351     -62.74830     -22.39015     -20.93058
     3  C(13)             -0.01720     -19.34112      -6.90139      -6.45150
     4  C(13)              0.18027     202.65577      72.31262      67.59869
     5  C(13)              0.04271      48.01126      17.13161      16.01483
     6  H(1)               0.00243      10.86273       3.87609       3.62342
     7  H(1)               0.00300      13.38945       4.77769       4.46624
     8  H(1)              -0.02984    -133.35970     -47.58606     -44.48401
     9  H(1)              -0.00616     -27.52860      -9.82289      -9.18255
    10  H(1)              -0.00443     -19.78814      -7.06090      -6.60061
    11  H(1)              -0.00037      -1.67420      -0.59739      -0.55845
    12  H(1)               0.00319      14.26001       5.08833       4.75663
    13  H(1)              -0.00038      -1.67629      -0.59814      -0.55915
    14  H(1)              -0.00074      -3.29370      -1.17527      -1.09866
 --------------------------------------------------------
       Center         ----  Spin Dipole Couplings  ----
                      3XX-RR        3YY-RR        3ZZ-RR
 --------------------------------------------------------
     1   Atom        0.148210     -0.075074     -0.073136
     2   Atom        0.901387     -0.664235     -0.237152
     3   Atom        0.017176     -0.007125     -0.010052
     4   Atom        0.548596     -0.364829     -0.183766
     5   Atom        0.039250     -0.015454     -0.023796
     6   Atom        0.000266     -0.006111      0.005845
     7   Atom       -0.002803      0.009611     -0.006808
     8   Atom        0.145338     -0.070020     -0.075318
     9   Atom       -0.004075     -0.040171      0.044246
    10   Atom       -0.005371      0.043160     -0.037789
    11   Atom        0.009300     -0.003053     -0.006246
    12   Atom        0.001504      0.000201     -0.001705
    13   Atom        0.001633     -0.001496     -0.000137
    14   Atom        0.001172     -0.007097      0.005926
 --------------------------------------------------------
                        XY            XZ            YZ
 --------------------------------------------------------
     1   Atom        0.164547      0.121685      0.117355
     2   Atom        0.677318      1.124956      0.406344
     3   Atom       -0.010629      0.000581      0.003033
     4   Atom       -0.035689      0.409198     -0.018251
     5   Atom       -0.024069      0.007840     -0.002584
     6   Atom       -0.002638     -0.007970      0.006062
     7   Atom       -0.005933     -0.000215      0.005877
     8   Atom        0.075343      0.105933      0.034289
     9   Atom        0.007709     -0.007165     -0.024602
    10   Atom        0.024220      0.012178     -0.015542
    11   Atom        0.001664     -0.001429      0.000831
    12   Atom       -0.004266     -0.001912      0.003320
    13   Atom       -0.006199      0.004008     -0.003470
    14   Atom        0.006832     -0.012077     -0.003029
 --------------------------------------------------------


 ---------------------------------------------------------------------------------
              Anisotropic Spin Dipole Couplings in Principal Axis System
 ---------------------------------------------------------------------------------

       Atom             a.u.   MegaHertz   Gauss  10(-4) cm-1        Axes

              Baa    -0.1970    14.255     5.087     4.755 -0.1734  0.7943 -0.5822
     1 O(17)  Bbb    -0.1089     7.881     2.812     2.629 -0.5863  0.3917  0.7091
              Bcc     0.3059   -22.136    -7.899    -7.384  0.7913  0.4643  0.3978
 
              Baa    -0.9322    67.450    24.068    22.499 -0.5815  0.3755  0.7217
     2 O(17)  Bbb    -0.9097    65.823    23.487    21.956 -0.0297  0.8767 -0.4801
              Bcc     1.8418  -133.273   -47.555   -44.455  0.8130  0.3006  0.4987
 
              Baa    -0.0137    -1.835    -0.655    -0.612  0.2601  0.7197 -0.6437
     3 C(13)  Bbb    -0.0075    -1.006    -0.359    -0.336  0.2395  0.5977  0.7651
              Bcc     0.0212     2.842     1.014     0.948  0.9354 -0.3531 -0.0169
 
              Baa    -0.3686   -49.463   -17.650   -16.499 -0.2802  0.6709  0.6866
     4 C(13)  Bbb    -0.3644   -48.898   -17.448   -16.311  0.2987  0.7407 -0.6018
              Bcc     0.7330    98.361    35.098    32.810  0.9123 -0.0364  0.4079
 
              Baa    -0.0250    -3.354    -1.197    -1.119 -0.2974 -0.5364  0.7898
     5 C(13)  Bbb    -0.0243    -3.257    -1.162    -1.086  0.2165  0.7678  0.6030
              Bcc     0.0493     6.611     2.359     2.205  0.9299 -0.3503  0.1122
 
              Baa    -0.0087    -4.658    -1.662    -1.554 -0.1296  0.8884 -0.4404
     6 H(1)   Bbb    -0.0049    -2.614    -0.933    -0.872  0.8372  0.3360  0.4314
              Bcc     0.0136     7.273     2.595     2.426 -0.5313  0.3128  0.7874
 
              Baa    -0.0092    -4.924    -1.757    -1.642 -0.3137 -0.3714  0.8738
     7 H(1)   Bbb    -0.0043    -2.286    -0.816    -0.763  0.8894  0.2074  0.4075
              Bcc     0.0135     7.210     2.573     2.405 -0.3326  0.9050  0.2653
 
              Baa    -0.1185   -63.205   -22.553   -21.083 -0.3344 -0.1396  0.9320
     8 H(1)   Bbb    -0.0937   -50.013   -17.846   -16.682 -0.3126  0.9494  0.0301
              Bcc     0.2122   113.218    40.399    37.765  0.8891  0.2812  0.3611
 
              Baa    -0.0475   -25.368    -9.052    -8.462 -0.1295  0.9603  0.2473
     9 H(1)   Bbb    -0.0048    -2.544    -0.908    -0.849  0.9790  0.0843  0.1854
              Bcc     0.0523    27.913     9.960     9.311 -0.1572 -0.2661  0.9510
 
              Baa    -0.0478   -25.522    -9.107    -8.513 -0.3988  0.2565  0.8804
    10 H(1)   Bbb    -0.0064    -3.424    -1.222    -1.142  0.8456 -0.2685  0.4613
              Bcc     0.0543    28.946    10.329     9.655  0.3547  0.9285 -0.1099
 
              Baa    -0.0067    -3.551    -1.267    -1.184  0.1141 -0.2731  0.9552
    11 H(1)   Bbb    -0.0030    -1.587    -0.566    -0.529 -0.0962  0.9539  0.2842
              Bcc     0.0096     5.137     1.833     1.714  0.9888  0.1244 -0.0825
 
              Baa    -0.0045    -2.425    -0.865    -0.809  0.3047  0.7145 -0.6298
    12 H(1)   Bbb    -0.0022    -1.172    -0.418    -0.391  0.6846  0.2954  0.6663
              Bcc     0.0067     3.598     1.284     1.200  0.6621 -0.6343 -0.3991
 
              Baa    -0.0063    -3.384    -1.208    -1.129  0.5906  0.8041  0.0682
    13 H(1)   Bbb    -0.0031    -1.632    -0.582    -0.544 -0.4274  0.2401  0.8716
              Bcc     0.0094     5.017     1.790     1.673  0.6845 -0.5439  0.4855
 
              Baa    -0.0121    -6.445    -2.300    -2.150 -0.6466  0.6939 -0.3170
    14 H(1)   Bbb    -0.0056    -2.992    -1.068    -0.998  0.4180  0.6698  0.6136
              Bcc     0.0177     9.437     3.368     3.148 -0.6381 -0.2643  0.7232
 

 ---------------------------------------------------------------------------------

 No NMR shielding tensors so no spin-rotation constants.
 Leave Link  601 at Fri Sep  6 03:36:10 2019, MaxMem=   671088640 cpu:             100.2 elap:              50.2
 (Enter /shared/centos7/gaussian/g16/l701.exe)
 SCFChk:  SCF convergence  9.82D-09 required  1.00D-08
 ... and contract with generalized density number  0.
 Compute integral second derivatives.
 Entering OneElI...
 Calculate overlap and kinetic energy integrals
    NBasis = 310  MinDer = 2  MaxDer = 2
 Requested accuracy = 0.1000D-12
 PrmmSu-InSpLW:  IPartL=    0 NPrtUS=   20 NPrtUL=    1 DoSpLW=F IThBeg=    0 IThEnd=   19 NThAct=   20.
 PrsmSu:  NPrtUS=  20 ThrOK=T IAlg=1 NPAlg=1 LenDen=           0 ISkipM=0 DoSpLW=F IThBeg=    0 IThEnd=   19.
 Prism:   IPart=     0 DynPar=F LinDyn=F Incr=           2.
 PRISM was handed    33403877 working-precision words and  5424 shell-pairs
 PRISM was handed    33403877 working-precision words and  5424 shell-pairs
 PRISM was handed    33403877 working-precision words and  5424 shell-pairs
 PRISM was handed    33403877 working-precision words and  5424 shell-pairs
 PRISM was handed    33403877 working-precision words and  5424 shell-pairs
 PRISM was handed    33403877 working-precision words and  5424 shell-pairs
 PRISM was handed    33403877 working-precision words and  5424 shell-pairs
 PRISM was handed    33403877 working-precision words and  5424 shell-pairs
 PRISM was handed    33403877 working-precision words and  5424 shell-pairs
 PRISM was handed    33403877 working-precision words and  5424 shell-pairs
 PRISM was handed    33403877 working-precision words and  5424 shell-pairs
 PRISM was handed    33403877 working-precision words and  5424 shell-pairs
 PRISM was handed    33403877 working-precision words and  5424 shell-pairs
 PRISM was handed    33403877 working-precision words and  5424 shell-pairs
 PRISM was handed    33403877 working-precision words and  5424 shell-pairs
 PRISM was handed    33403877 working-precision words and  5424 shell-pairs
 PRISM was handed    33403877 working-precision words and  5424 shell-pairs
 PRISM was handed    33403877 working-precision words and  5424 shell-pairs
 PRISM was handed    33403877 working-precision words and  5424 shell-pairs
 PRISM was handed    33403877 working-precision words and  5424 shell-pairs
 IPart=  2 NShTot=         296 NBatch=          54 AvBLen=         5.5
 IPart=  0 NShTot=         314 NBatch=          71 AvBLen=         4.4
 IPart=  6 NShTot=         277 NBatch=          39 AvBLen=         7.1
 IPart= 18 NShTot=         248 NBatch=          27 AvBLen=         9.2
 IPart=  8 NShTot=         269 NBatch=          37 AvBLen=         7.3
 IPart= 12 NShTot=         262 NBatch=          33 AvBLen=         7.9
 IPart=  3 NShTot=         290 NBatch=          51 AvBLen=         5.7
 IPart= 19 NShTot=         247 NBatch=          27 AvBLen=         9.1
 IPart= 14 NShTot=         260 NBatch=          31 AvBLen=         8.4
 IPart= 13 NShTot=         261 NBatch=          32 AvBLen=         8.2
 IPart= 11 NShTot=         263 NBatch=          33 AvBLen=         8.0
 IPart=  5 NShTot=         281 NBatch=          43 AvBLen=         6.5
 IPart= 15 NShTot=         255 NBatch=          30 AvBLen=         8.5
 IPart=  9 NShTot=         266 NBatch=          35 AvBLen=         7.6
 IPart= 16 NShTot=         252 NBatch=          28 AvBLen=         9.0
 IPart=  7 NShTot=         274 NBatch=          38 AvBLen=         7.2
 IPart=  4 NShTot=         286 NBatch=          48 AvBLen=         6.0
 IPart=  1 NShTot=         306 NBatch=          63 AvBLen=         4.9
 IPart= 10 NShTot=         265 NBatch=          35 AvBLen=         7.6
 IPart= 17 NShTot=         252 NBatch=          28 AvBLen=         9.0
 PrSmSu:  NxtVal=             41.
 Entering OneElI...
 Calculate potential energy integrals
    NBasis = 310  MinDer = 2  MaxDer = 2
 Requested accuracy = 0.1000D-12
 PrmmSu-InSpLW:  IPartL=    0 NPrtUS=   20 NPrtUL=    1 DoSpLW=F IThBeg=    0 IThEnd=   19 NThAct=   20.
 PrsmSu:  NPrtUS=  20 ThrOK=T IAlg=1 NPAlg=1 LenDen=           0 ISkipM=0 DoSpLW=F IThBeg=    0 IThEnd=   19.
 Prism:   IPart=     0 DynPar=F LinDyn=F Incr=          35.
 PRISM was handed    33427068 working-precision words and  5049 shell-pairs
 PRISM was handed    33427068 working-precision words and  5049 shell-pairs
 PRISM was handed    33427068 working-precision words and  5049 shell-pairs
 PRISM was handed    33427068 working-precision words and  5049 shell-pairs
 PRISM was handed    33427068 working-precision words and  5049 shell-pairs
 PRISM was handed    33427068 working-precision words and  5049 shell-pairs
 PRISM was handed    33427068 working-precision words and  5049 shell-pairs
 PRISM was handed    33427068 working-precision words and  5049 shell-pairs
 PRISM was handed    33427068 working-precision words and  5049 shell-pairs
 PRISM was handed    33427068 working-precision words and  5049 shell-pairs
 PRISM was handed    33427068 working-precision words and  5049 shell-pairs
 PRISM was handed    33427068 working-precision words and  5049 shell-pairs
 PRISM was handed    33427068 working-precision words and  5049 shell-pairs
 PRISM was handed    33427068 working-precision words and  5049 shell-pairs
 PRISM was handed    33427068 working-precision words and  5049 shell-pairs
 PRISM was handed    33427068 working-precision words and  5049 shell-pairs
 PRISM was handed    33427068 working-precision words and  5049 shell-pairs
 PRISM was handed    33427068 working-precision words and  5049 shell-pairs
 PRISM was handed    33427068 working-precision words and  5049 shell-pairs
 PRISM was handed    33427068 working-precision words and  5049 shell-pairs
 IPart=  8 NShTot=        3570 NBatch=         255 AvBLen=        14.0
 IPart=  9 NShTot=        3500 NBatch=         250 AvBLen=        14.0
 IPart= 10 NShTot=        3472 NBatch=         248 AvBLen=        14.0
 IPart= 16 NShTot=        3248 NBatch=         232 AvBLen=        14.0
 IPart= 12 NShTot=        3430 NBatch=         245 AvBLen=        14.0
 IPart= 17 NShTot=        3248 NBatch=         232 AvBLen=        14.0
 IPart= 11 NShTot=        3444 NBatch=         246 AvBLen=        14.0
 IPart=  1 NShTot=        4004 NBatch=         286 AvBLen=        14.0
 IPart=  0 NShTot=        4088 NBatch=         292 AvBLen=        14.0
 IPart=  6 NShTot=        3626 NBatch=         259 AvBLen=        14.0
 IPart=  3 NShTot=        3822 NBatch=         273 AvBLen=        14.0
 IPart= 14 NShTot=        3346 NBatch=         239 AvBLen=        14.0
 IPart=  5 NShTot=        3640 NBatch=         260 AvBLen=        14.0
 IPart= 18 NShTot=        3206 NBatch=         229 AvBLen=        14.0
 IPart=  2 NShTot=        3850 NBatch=         275 AvBLen=        14.0
 IPart=  7 NShTot=        3570 NBatch=         255 AvBLen=        14.0
 IPart= 13 NShTot=        3374 NBatch=         241 AvBLen=        14.0
 IPart= 15 NShTot=        3276 NBatch=         234 AvBLen=        14.0
 IPart= 19 NShTot=        3192 NBatch=         228 AvBLen=        14.0
 IPart=  4 NShTot=        3780 NBatch=         270 AvBLen=        14.0
 PrSmSu:  NxtVal=            701.
 Polarizability after L701:
                1             2             3 
      1  0.000000D+00
      2  0.000000D+00  0.000000D+00
      3  0.000000D+00  0.000000D+00  0.000000D+00
 Dipole Derivatives after L701:
                 1             2             3             4             5 
      1  -0.105504D+01 -0.500244D-01  0.113076D+01  0.500448D-03  0.413025D+00
      2  -0.104470D+00 -0.201410D+00  0.168492D+00 -0.121495D+00 -0.367285D+00
      3   0.331299D+00 -0.106762D+00 -0.635737D+00  0.318951D-01  0.121378D-01
                 6             7             8             9            10 
      1  -0.118061D+00  0.988758D-01  0.507262D-01  0.484805D+00 -0.331517D+00
      2  -0.587117D-01 -0.276044D+00 -0.588028D+00  0.129297D+00 -0.529712D-01
      3  -0.191396D+00 -0.125096D+00  0.768882D-01 -0.768599D+00  0.184702D+00
                11            12            13            14            15 
      1  -0.285348D+00 -0.279925D-02 -0.180927D+01  0.161366D+00 -0.285337D+00
      2  -0.116155D+01 -0.116681D+00  0.118115D+00 -0.973664D+00  0.505293D-01
      3   0.322224D-01 -0.921504D+00  0.114752D+00 -0.662864D-02 -0.915795D+00
                16            17            18            19            20 
      1   0.139154D+00  0.867747D-01 -0.387649D+00  0.536227D-01 -0.150708D+00
      2   0.133910D-02  0.169139D+00 -0.946926D-01  0.188200D+00  0.531184D+00
      3  -0.235575D-01 -0.159681D+00  0.695202D+00  0.783070D-01  0.938499D-01
                21            22            23            24            25 
      1   0.194531D-02  0.379370D-01 -0.105913D+00 -0.103658D+00  0.934041D-01
      2  -0.108530D-01 -0.246340D-01  0.349881D+00  0.183736D-01 -0.639198D-01
      3   0.148383D+00 -0.738708D-01 -0.131954D-01  0.230674D+00 -0.126924D+00
                26            27            28            29            30 
      1  -0.235680D-01  0.405467D-01  0.204212D+00  0.294234D+00 -0.498271D-01
      2   0.101946D+00  0.194494D+00  0.281380D+00  0.899948D+00 -0.849730D-01
      3  -0.155335D+00  0.714098D+00  0.166650D-01  0.103468D+00  0.116859D+00
                31            32            33            34            35 
      1   0.695675D+00  0.874364D+00  0.116760D-01  0.655032D+00 -0.758107D+00
      2   0.144929D+00  0.352146D+00 -0.271520D-01 -0.220497D+00  0.434244D+00
      3   0.636569D-02 -0.175886D-01  0.106729D+00 -0.106388D+00  0.181070D+00
                36            37            38            39            40 
      1  -0.588768D+00  0.156166D+00 -0.221897D+00  0.769437D+00  0.106124D+01
      2   0.270006D+00  0.663629D-02  0.183623D+00 -0.275403D+00  0.123431D+00
      3   0.254726D+00 -0.685375D-02 -0.153624D+00  0.558845D+00 -0.301296D+00
                41            42 
      1  -0.284926D+00 -0.903069D+00
      2   0.269831D+00 -0.162726D+00
      3   0.113178D+00  0.607515D+00
 Hessian after L701:
                1             2             3             4             5 
      1  0.905788D+01
      2 -0.792471D+00  0.597517D+01
      3  0.271575D+01  0.362034D+01  0.725603D+01
      4 -0.603936D+01  0.683980D+00 -0.675748D+00  0.587683D+01
      5  0.631221D+00 -0.147706D-01 -0.420655D+01 -0.207568D+01  0.275496D+01
[...]
 AtZNuc=   8.0000000   8.0000000   6.0000000   6.0000000   6.0000000   1.0000000   1.0000000   1.0000000   1.0000000   1.0000000

  Atom        11          12          13          14
 IAtWgt=           1           1           1           1
 AtmWgt=   1.0078250   1.0078250   1.0078250   1.0078250
 NucSpn=           1           1           1           1
 AtZEff=   1.0000000   1.0000000   1.0000000   1.0000000
 NQMom=    0.0000000   0.0000000   0.0000000   0.0000000
 NMagM=    2.7928460   2.7928460   2.7928460   2.7928460
 AtZNuc=   1.0000000   1.0000000   1.0000000   1.0000000
 Leave Link  101 at Fri Sep  6 10:47:41 2019, MaxMem=   671088640 cpu:               5.0 elap:               2.5
 (Enter /shared/centos7/gaussian/g16/l103.exe)

 GradGradGradGradGradGradGradGradGradGradGradGradGradGradGradGradGradGrad
 Berny optimization.
 Initialization pass.
                           ----------------------------
                           !    Initial Parameters    !
                           ! (Angstroms and Degrees)  !
 --------------------------                            --------------------------
 ! Name  Definition              Value          Derivative Info.                !
 --------------------------------------------------------------------------------
 ! R1    R(1,2)                  1.3887         calculate D2E/DX2 analytically  !
 ! R2    R(1,14)                 0.9651         calculate D2E/DX2 analytically  !
 ! R3    R(2,8)                  1.1749         calculate D2E/DX2 analytically  !
 ! R4    R(3,4)                  1.5012         calculate D2E/DX2 analytically  !
 ! R5    R(3,5)                  1.5324         calculate D2E/DX2 analytically  !
 ! R6    R(3,6)                  1.0906         calculate D2E/DX2 analytically  !
 ! R7    R(3,7)                  1.0911         calculate D2E/DX2 analytically  !
 ! R8    R(4,8)                  1.3369         calculate D2E/DX2 analytically  !
 ! R9    R(4,9)                  1.0884         calculate D2E/DX2 analytically  !
 ! R10   R(4,10)                 1.0877         calculate D2E/DX2 analytically  !
 ! R11   R(5,11)                 1.0901         calculate D2E/DX2 analytically  !
 ! R12   R(5,12)                 1.0896         calculate D2E/DX2 analytically  !
 ! R13   R(5,13)                 1.0902         calculate D2E/DX2 analytically  !
 ! A1    A(2,1,14)             103.0774         calculate D2E/DX2 analytically  !
 ! A2    A(1,2,8)              103.9306         calculate D2E/DX2 analytically  !
 ! A3    A(4,3,5)              111.6077         calculate D2E/DX2 analytically  !
 ! A4    A(4,3,6)              109.5523         calculate D2E/DX2 analytically  !
 ! A5    A(4,3,7)              109.3824         calculate D2E/DX2 analytically  !
 ! A6    A(5,3,6)              109.7338         calculate D2E/DX2 analytically  !
 ! A7    A(5,3,7)              109.6952         calculate D2E/DX2 analytically  !
 ! A8    A(6,3,7)              106.7468         calculate D2E/DX2 analytically  !
 ! A9    A(3,4,8)              104.7108         calculate D2E/DX2 analytically  !
 ! A10   A(3,4,9)              115.6335         calculate D2E/DX2 analytically  !
 ! A11   A(3,4,10)             116.1813         calculate D2E/DX2 analytically  !
 ! A12   A(8,4,9)              102.635          calculate D2E/DX2 analytically  !
 ! A13   A(8,4,10)             102.5988         calculate D2E/DX2 analytically  !
 ! A14   A(9,4,10)             112.722          calculate D2E/DX2 analytically  !
 ! A15   A(3,5,11)             110.9025         calculate D2E/DX2 analytically  !
 ! A16   A(3,5,12)             110.8124         calculate D2E/DX2 analytically  !
 ! A17   A(3,5,13)             110.8208         calculate D2E/DX2 analytically  !
 ! A18   A(11,5,12)            108.17           calculate D2E/DX2 analytically  !
 ! A19   A(11,5,13)            107.8759         calculate D2E/DX2 analytically  !
 ! A20   A(12,5,13)            108.1428         calculate D2E/DX2 analytically  !
 ! A21   A(2,8,4)              171.619          calculate D2E/DX2 analytically  !
 ! D1    D(14,1,2,8)            96.0627         calculate D2E/DX2 analytically  !
 ! D2    D(1,2,8,4)             20.6155         calculate D2E/DX2 analytically  !
 ! D3    D(5,3,4,8)           -175.9347         calculate D2E/DX2 analytically  !
 ! D4    D(5,3,4,9)            -63.7979         calculate D2E/DX2 analytically  !
 ! D5    D(5,3,4,10)            71.708          calculate D2E/DX2 analytically  !
 ! D6    D(6,3,4,8)             62.3255         calculate D2E/DX2 analytically  !
 ! D7    D(6,3,4,9)            174.4623         calculate D2E/DX2 analytically  !
 ! D8    D(6,3,4,10)           -50.0318         calculate D2E/DX2 analytically  !
 ! D9    D(7,3,4,8)            -54.3598         calculate D2E/DX2 analytically  !
 ! D10   D(7,3,4,9)             57.7771         calculate D2E/DX2 analytically  !
 ! D11   D(7,3,4,10)          -166.717          calculate D2E/DX2 analytically  !
 ! D12   D(4,3,5,11)           -59.8172         calculate D2E/DX2 analytically  !
 ! D13   D(4,3,5,12)          -179.968          calculate D2E/DX2 analytically  !
 ! D14   D(4,3,5,13)            59.9694         calculate D2E/DX2 analytically  !
 ! D15   D(6,3,5,11)            61.8176         calculate D2E/DX2 analytically  !
 ! D16   D(6,3,5,12)           -58.3332         calculate D2E/DX2 analytically  !
 ! D17   D(6,3,5,13)          -178.3958         calculate D2E/DX2 analytically  !
 ! D18   D(7,3,5,11)           178.7891         calculate D2E/DX2 analytically  !
 ! D19   D(7,3,5,12)            58.6383         calculate D2E/DX2 analytically  !
 ! D20   D(7,3,5,13)           -61.4243         calculate D2E/DX2 analytically  !
 ! D21   D(3,4,8,2)             28.7649         calculate D2E/DX2 analytically  !
 ! D22   D(9,4,8,2)            -92.3817         calculate D2E/DX2 analytically  !
 ! D23   D(10,4,8,2)           150.5074         calculate D2E/DX2 analytically  !
 --------------------------------------------------------------------------------
 Trust Radius=3.00D-01 FncErr=1.00D-07 GrdErr=1.00D-07 EigMax=2.50D+02 EigMin=1.00D-04
 Number of steps in this run=      2 maximum allowed number of steps=      2.
 Search for a saddle point of order  1.
 GradGradGradGradGradGradGradGradGradGradGradGradGradGradGradGradGradGrad

 Leave Link  103 at Fri Sep  6 10:47:42 2019, MaxMem=   671088640 cpu:               1.4 elap:               0.7
 (Enter /shared/centos7/gaussian/g16/l202.exe)
                          Input orientation:                          
 ---------------------------------------------------------------------
 Center     Atomic      Atomic             Coordinates (Angstroms)
 Number     Number       Type             X           Y           Z
 ---------------------------------------------------------------------
      1          8           0        2.169847   -0.692503    0.116667
      2          8           0        2.002890    0.675634    0.286031
      3          6           0       -1.037163   -0.193154    0.328794
      4          6           0       -0.379564    0.906963   -0.452781
      5          6           0       -2.509253   -0.361007   -0.062215
      6          1           0       -0.961616    0.021421    1.395452
      7          1           0       -0.502240   -1.128651    0.157622
      8          1           0        0.902186    0.872995   -0.074233
      9          1           0       -0.314729    0.747229   -1.527464
     10          1           0       -0.675995    1.921491   -0.195948
     11          1           0       -3.067529    0.557167    0.121240
     12          1           0       -2.973672   -1.161682    0.512708
     13          1           0       -2.603736   -0.604284   -1.120762
     14          1           0        2.599681   -0.755004   -0.745139
 ---------------------------------------------------------------------
                    Distance matrix (angstroms):
                    1          2          3          4          5
     1  O    0.000000
     2  O    1.388653   0.000000
     3  C    3.252578   3.162047   0.000000
     4  C    3.063015   2.505084   1.501183   0.000000
     5  C    4.694237   4.642772   1.532355   2.509156   0.000000
     6  H    3.457027   3.232198   1.090647   2.130477   2.160144
     7  H    2.707758   3.089921   1.091145   2.128700   2.160024
     8  H    2.023411   1.174858   2.249484   1.336913   3.627784
     9  H    3.308945   2.943680   2.202708   1.088421   2.862005
    10  H    3.876791   2.993474   2.208511   1.087705   2.930617
    11  H    5.384404   5.074479   2.174499   2.770742   1.090125
    12  H    5.180035   5.309734   2.173002   3.455554   1.089634
    13  H    4.932151   4.983800   2.173567   2.770741   1.090245
    14  H    0.965077   1.861772   3.833489   3.423961   5.169412
                    6          7          8          9         10
     6  H    0.000000
     7  H    1.750975   0.000000
     8  H    2.521687   2.456167   0.000000
     9  H    3.080373   2.528557   1.899627   0.000000
    10  H    2.494875   3.075479   1.898635   1.811722   0.000000
    11  H    2.519030   3.069855   3.987053   3.214383   2.771539
    12  H    2.495464   2.497028   4.416637   3.856970   3.909920
    13  H    3.069104   2.515057   3.945765   2.689153   3.309230
    14  H    4.227032   3.252154   2.445810   3.370834   4.265593
                   11         12         13         14
    11  H    0.000000
    12  H    1.765361   0.000000
    13  H    1.762567   1.765154   0.000000
    14  H    5.881299   5.727986   5.219134   0.000000
 Stoichiometry    C3H9O2(2)
 Framework group  C1[X(C3H9O2)]
 Deg. of freedom    36
 Full point group                 C1      NOp   1
 RotChk:  IX=0 Diff= 3.84D-16
 Largest Abelian subgroup         C1      NOp   1
 Largest concise Abelian subgroup C1      NOp   1
                         Standard orientation:                         
 ---------------------------------------------------------------------
 Center     Atomic      Atomic             Coordinates (Angstroms)
 Number     Number       Type             X           Y           Z
 ---------------------------------------------------------------------
      1          8           0       -2.093647   -0.808825    0.143869
      2          8           0       -1.978747    0.494847   -0.320451
      3          6           0        1.085930   -0.283422   -0.296023
      4          6           0        0.417479    0.941426    0.257576
      5          6           0        2.574899   -0.324981    0.063634
      6          1           0        0.968189   -0.305063   -1.380080
      7          1           0        0.588888   -1.173896    0.092052
      8          1           0       -0.874122    0.793577   -0.054264
      9          1           0        0.393400    1.014679    1.343263
     10          1           0        0.670807    1.884447   -0.221629
     11          1           0        3.095452    0.546548   -0.333646
     12          1           0        3.047032   -1.218114   -0.344663
     13          1           0        2.712260   -0.332612    1.145164
     14          1           0       -2.492598   -0.695878    1.015336
 ---------------------------------------------------------------------
 Rotational constants (GHZ):          10.8474065           1.8490991           1.6875880
 Leave Link  202 at Fri Sep  6 10:47:44 2019, MaxMem=   671088640 cpu:               3.2 elap:               1.6
 (Enter /shared/centos7/gaussian/g16/l301.exe)
 Standard basis: CC-pVTZ (5D, 7F)
 Ernie: Thresh=  0.10000D-02 Tol=  0.10000D-05 Strict=F.
 Ernie:  15 primitive shells out of 202 were deleted.
 There are   310 symmetry adapted cartesian basis functions of A   symmetry.
 There are   276 symmetry adapted basis functions of A   symmetry.
   276 basis functions,   413 primitive gaussians,   310 cartesian basis functions
    22 alpha electrons       21 beta electrons
       nuclear repulsion energy       183.1353593555 Hartrees.
 IExCor= 4336 DFT=T Ex+Corr=M062X ExCW=0 ScaHFX=  0.540000
 ScaDFX=  1.000000  1.000000  1.000000  1.000000 ScalE2=  1.000000  1.000000
 IRadAn=      5 IRanWt=     -1 IRanGd=            0 ICorTp=0 IEmpDi=  4
 NAtoms=   14 NActive=   14 NUniq=   14 SFac= 1.00D+00 NAtFMM=   60 NAOKFM=F Big=F
 Integral buffers will be    131072 words long.
 Raffenetti 2 integral format.
 Two-electron integral symmetry is turned on.
 Leave Link  301 at Fri Sep  6 10:47:45 2019, MaxMem=   671088640 cpu:               2.3 elap:               1.2
 (Enter /shared/centos7/gaussian/g16/l302.exe)
 NPDir=0 NMtPBC=     1 NCelOv=     1 NCel=       1 NClECP=     1 NCelD=      1
         NCelK=      1 NCelE2=     1 NClLst=     1 CellRange=     0.0.
 One-electron integrals computed using PRISM.
 One-electron integral symmetry used in STVInt
 NBasis=   276 RedAO= T EigKep=  8.02D-04  NBF=   276
 NBsUse=   276 1.00D-06 EigRej= -1.00D+00 NBFU=   276
 Precomputing XC quadrature grid using
 IXCGrd= 4 IRadAn=           5 IRanWt=          -1 IRanGd=           0 AccXCQ= 0.00D+00.
 Generated NRdTot=       0 NPtTot=           0 NUsed=           0 NTot=          32
 NSgBfM=   310   310   310   310   310 MxSgAt=    14 MxSgA2=    14.
 Leave Link  302 at Fri Sep  6 10:48:53 2019, MaxMem=   671088640 cpu:             135.3 elap:              67.7
 (Enter /shared/centos7/gaussian/g16/l303.exe)
 DipDrv:  MaxL=1.
 Leave Link  303 at Fri Sep  6 10:48:58 2019, MaxMem=   671088640 cpu:               9.9 elap:               5.0
 (Enter /shared/centos7/gaussian/g16/l401.exe)
 Initial guess from the checkpoint file:  "/scratch/harms.n/gauss_scrdir/Gau-27709.chk"
 B after Tr=    -0.000000   -0.000000   -0.000000
         Rot=    1.000000   -0.000000    0.000000    0.000000 Ang=   0.00 deg.
 Guess basis will be translated and rotated to current coordinates.
 JPrj=2 DoOrth=T DoCkMO=T.
 Initial guess <Sx>= 0.0000 <Sy>= 0.0000 <Sz>= 0.5000 <S**2>= 0.7598 S= 0.5049
 Leave Link  401 at Fri Sep  6 10:50:27 2019, MaxMem=   671088640 cpu:             178.4 elap:              89.2
 (Enter /shared/centos7/gaussian/g16/l502.exe)
 Integral symmetry usage will be decided dynamically.
 UHF open shell SCF:
 Using DIIS extrapolation, IDIIS=  1040.
 NGot=   671088640 LenX=   670887394 LenY=   670790853
 Requested convergence on RMS density matrix=1.00D-08 within 900 cycles.
 Requested convergence on MAX density matrix=1.00D-06.
 Requested convergence on             energy=1.00D-06.
 No special actions if energy rises.
 Fock matrices will be formed incrementally for  20 cycles.

 Cycle   1  Pass 1  IDiag  1:
 FoFJK:  IHMeth= 1 ICntrl=       0 DoSepK=F KAlg= 0 I1Cent=           0 FoldK=F
 IRaf= 960000000 NMat=       1 IRICut=       1 DoRegI=T DoRafI=F ISym2E= 0 IDoP0=0 IntGTp=1.
 FoFCou: FMM=F IPFlag=           0 FMFlag=      100000 FMFlg1=           0
         NFxFlg=           0 DoJE=F BraDBF=F KetDBF=F FulRan=T
         wScrn=  0.000000 ICntrl=         0 IOpCl=  1 I1Cent=           0 NGrid=           0
         NMat0=    1 NMatS0=      1 NMatT0=    0 NMatD0=    1 NMtDS0=    0 NMtDT0=    0
 Symmetry not used in FoFCou.
 E= -269.983281416673    
 DIIS: error= 5.56D-09 at cycle   1 NSaved=   1.
 NSaved= 1 IEnMin= 1 EnMin= -269.983281416673     IErMin= 1 ErrMin= 5.56D-09
 ErrMax= 5.56D-09  0.00D+00 EMaxC= 1.00D-01 BMatC= 4.47D-14 BMatP= 4.47D-14
 IDIUse=1 WtCom= 1.00D+00 WtEn= 0.00D+00
 Coeff-Com:  0.100D+01
 Coeff:      0.100D+01
 Gap=     0.354 Goal=   None    Shift=    0.000
 Gap=     0.277 Goal=   None    Shift=    0.000
 RMSDP=6.31D-10 MaxDP=2.25D-08              OVMax= 1.48D-07

 SCF Done:  E(UM062X) =  -269.983281417     A.U. after    1 cycles
            NFock=  1  Conv=0.63D-09     -V/T= 2.0055
 <Sx>= 0.0000 <Sy>= 0.0000 <Sz>= 0.5000 <S**2>= 0.7598 S= 0.5049
 <L.S>= 0.000000000000E+00
 KE= 2.685119963494D+02 PE=-9.983391635633D+02 EE= 2.767085264417D+02
 Annihilation of the first spin contaminant:
 S**2 before annihilation     0.7598,   after     0.7500
 Leave Link  502 at Fri Sep  6 10:52:06 2019, MaxMem=   671088640 cpu:             198.9 elap:              99.5
 (Enter /shared/centos7/gaussian/g16/l801.exe)
 DoSCS=F DFT=T ScalE2(SS,OS)=  1.000000  1.000000
 Range of M.O.s used for correlation:     1   276
 NBasis=   276 NAE=    22 NBE=    21 NFC=     0 NFV=     0
 NROrb=    276 NOA=    22 NOB=    21 NVA=   254 NVB=   255

 **** Warning!!: The largest alpha MO coefficient is  0.12076350D+02


 **** Warning!!: The largest beta MO coefficient is  0.12076426D+02

 Leave Link  801 at Fri Sep  6 10:52:07 2019, MaxMem=   671088640 cpu:               1.6 elap:               0.8
 (Enter /shared/centos7/gaussian/g16/l1101.exe)
 Using compressed storage, NAtomX=    14.
 Will process     15 centers per pass.
 Leave Link 1101 at Fri Sep  6 10:52:40 2019, MaxMem=   671088640 cpu:              64.8 elap:              32.4
 (Enter /shared/centos7/gaussian/g16/l1102.exe)
 Symmetrizing basis deriv contribution to polar:
 IMax=3 JMax=2 DiffMx= 0.00D+00
 Leave Link 1102 at Fri Sep  6 10:52:42 2019, MaxMem=   671088640 cpu:               5.3 elap:               2.7
 (Enter /shared/centos7/gaussian/g16/l1110.exe)
 Forming Gx(P) for the SCF density, NAtomX=    14.
 Integral derivatives from FoFJK, PRISM(SPDF).
 Do as many integral derivatives as possible in FoFJK.
 G2DrvN: MDV=     671087496.
 G2DrvN: will do    15 centers at a time, making    1 passes.
 Calling FoFCou, ICntrl=  3107 FMM=F I1Cent=   0 AccDes= 0.00D+00.
 FoFJK:  IHMeth= 1 ICntrl=    3107 DoSepK=F KAlg= 0 I1Cent=           0 FoldK=F
 IRaf=         0 NMat=       1 IRICut=       1 DoRegI=T DoRafI=F ISym2E= 0 IDoP0=0 IntGTp=1.
 FoFCou: FMM=F IPFlag=           0 FMFlag=      100000 FMFlg1=           0
         NFxFlg=           0 DoJE=F BraDBF=F KetDBF=F FulRan=T
         wScrn=  0.000000 ICntrl=      3107 IOpCl=  1 I1Cent=           0 NGrid=           0
         NMat0=    1 NMatS0=      1 NMatT0=    0 NMatD0=    1 NMtDS0=    0 NMtDT0=    0
 Symmetry not used in FoFCou.
 End of G2Drv F.D. properties file   721 does not exist.
 End of G2Drv F.D. properties file   722 does not exist.
 End of G2Drv F.D. properties file   788 does not exist.
 Leave Link 1110 at Fri Sep  6 11:21:52 2019, MaxMem=   671088640 cpu:            3498.6 elap:            1749.4
 (Enter /shared/centos7/gaussian/g16/l1002.exe)
 Minotr:  UHF open shell wavefunction.
          IDoAtm=11111111111111
          Direct CPHF calculation.
          Differentiating once with respect to electric field.
                with respect to dipole field.
          Differentiating once with respect to nuclear coordinates.
          Requested convergence is 1.0D-08 RMS, and 1.0D-07 maximum.
          Secondary convergence is 1.0D-12 RMS, and 1.0D-12 maximum.
          NewPWx=T KeepS1=F KeepF1=F KeepIn=T MapXYZ=F SortEE=F KeepMc=T.
         4194 words used for storage of precomputed grid.
 Two-electron integrals replicated using symmetry.
          MDV=     671088640 using IRadAn=       1.
          Solving linear equations simultaneously, MaxMat=     380.
 FoF2E skips out because all densities are zero.
 CalDSu exits because no D1Ps are significant.
 FoFJK:  IHMeth= 1 ICntrl=       0 DoSepK=F KAlg= 0 I1Cent=           0 FoldK=F
 IRaf= 940000000 NMat=      42 IRICut=     105 DoRegI=T DoRafI=T ISym2E= 2 IDoP0=3 IntGTp=3.
 FoFCou: FMM=F IPFlag=           0 FMFlag=      100000 FMFlg1=           0
         NFxFlg=           0 DoJE=F BraDBF=F KetDBF=F FulRan=T
         wScrn=  0.000000 ICntrl=         0 IOpCl=  1 I1Cent=           0 NGrid=           0
         NMat0=   42 NMatS0=     42 NMatT0=    0 NMatD0=   42 NMtDS0=    0 NMtDT0=    0
 Integrals replicated using symmetry in FoFCou.
 Raff kept on since  92.27% of shell-pairs survive, threshold=   0.20 IRatSp=92.
          There are    45 degrees of freedom in the 1st order CPHF.  IDoFFX=6 NUNeed=     3.
     42 vectors produced by pass  0 Test12= 2.43D-14 2.22D-09 XBig12= 8.00D+01 5.33D+00.
 AX will form    42 AO Fock derivatives at one time.
