 Entering Gaussian System, Link 0=g16
 Input=tight/species/COO/conformers/COO_0.com
 Output=tight/species/COO/conformers/COO_0.log
 Initial command:
 /shared/centos7/gaussian/g16/l1.exe "/scratch/harms.n/gauss_scrdir/Gau-6097.inp" -scrdir="/scratch/harms.n/gauss_scrdir/"
 Entering Link 1 = /shared/centos7/gaussian/g16/l1.exe PID=      6098.
  
 Copyright (c) 1988,1990,1992,1993,1995,1998,2003,2009,2016,
            Gaussian, Inc.  All Rights Reserved.
  
 This is part of the Gaussian(R) 16 program.  It is based on
 the Gaussian(R) 09 system (copyright 2009, Gaussian, Inc.),
 the Gaussian(R) 03 system (copyright 2003, Gaussian, Inc.),
 the Gaussian(R) 98 system (copyright 1998, Gaussian, Inc.),
 the Gaussian(R) 94 system (copyright 1995, Gaussian, Inc.),
 the Gaussian 92(TM) system (copyright 1992, Gaussian, Inc.),
 the Gaussian 90(TM) system (copyright 1990, Gaussian, Inc.),
 the Gaussian 88(TM) system (copyright 1988, Gaussian, Inc.),
 the Gaussian 86(TM) system (copyright 1986, Carnegie Mellon
 University), and the Gaussian 82(TM) system (copyright 1983,
 Carnegie Mellon University). Gaussian is a federally registered
 trademark of Gaussian, Inc.
  
 This software contains proprietary and confidential information,
 including trade secrets, belonging to Gaussian, Inc.
  
 This software is provided under written license and may be
 used, copied, transmitted, or stored only in accord with that
 written license.
  
 The following legend is applicable only to US Government
 contracts under FAR:
  
                    RESTRICTED RIGHTS LEGEND
  
 Use, reproduction and disclosure by the US Government is
 subject to restrictions as set forth in subparagraphs (a)
 and (c) of the Commercial Computer Software - Restricted
 Rights clause in FAR 52.227-19.
  
 Gaussian, Inc.
 340 Quinnipiac St., Bldg. 40, Wallingford CT 06492
  
  
 ---------------------------------------------------------------
 Warning -- This program may not be used in any manner that
 competes with the business of Gaussian, Inc. or will provide
 assistance to any competitor of Gaussian, Inc.  The licensee
 of this program is prohibited from giving any competitor of
 Gaussian, Inc. access to this program.  By using this program,
 the user acknowledges that Gaussian, Inc. is engaged in the
 business of creating and licensing software in the field of
 computational chemistry and represents and warrants to the
 licensee that it is not a competitor of Gaussian, Inc. and that
 it will not use this program in any manner prohibited above.
 ---------------------------------------------------------------
  

 Cite this work as:
 Gaussian 16, Revision A.03,
 M. J. Frisch, G. W. Trucks, H. B. Schlegel, G. E. Scuseria, 
 M. A. Robb, J. R. Cheeseman, G. Scalmani, V. Barone, 
 G. A. Petersson, H. Nakatsuji, X. Li, M. Caricato, A. V. Marenich, 
 J. Bloino, B. G. Janesko, R. Gomperts, B. Mennucci, H. P. Hratchian, 
 J. V. Ortiz, A. F. Izmaylov, J. L. Sonnenberg, D. Williams-Young, 
 F. Ding, F. Lipparini, F. Egidi, J. Goings, B. Peng, A. Petrone, 
 T. Henderson, D. Ranasinghe, V. G. Zakrzewski, J. Gao, N. Rega, 
 G. Zheng, W. Liang, M. Hada, M. Ehara, K. Toyota, R. Fukuda, 
 J. Hasegawa, M. Ishida, T. Nakajima, Y. Honda, O. Kitao, H. Nakai, 
 T. Vreven, K. Throssell, J. A. Montgomery, Jr., J. E. Peralta, 
 F. Ogliaro, M. J. Bearpark, J. J. Heyd, E. N. Brothers, K. N. Kudin, 
 V. N. Staroverov, T. A. Keith, R. Kobayashi, J. Normand, 
 K. Raghavachari, A. P. Rendell, J. C. Burant, S. S. Iyengar, 
 J. Tomasi, M. Cossi, J. M. Millam, M. Klene, C. Adamo, R. Cammi, 
 J. W. Ochterski, R. L. Martin, K. Morokuma, O. Farkas, 
 J. B. Foresman, and D. J. Fox, Gaussian, Inc., Wallingford CT, 2016.
 
 ******************************************
 Gaussian 16:  EM64L-G16RevA.03 25-Dec-2016
                23-Sep-2019 
 ******************************************
 %nprocshared=20
 Will use up to   20 processors via shared memory.
 %mem=5GB
 ----------------------------------------------------------------------
 #p m062x/cc-pVTZ opt=(calcfc,maxcycles=900,Tight) freq IOP(7/33=1,2/16
 =3) scf=(maxcycle=900)
 ----------------------------------------------------------------------
 1/6=900,7=10,10=4,18=20,19=15,26=3,38=1/1,3;
 2/9=110,12=2,16=3,17=6,18=5,40=1/2;
 3/5=16,6=1,11=2,25=1,30=1,71=2,74=-55,140=1/1,2,3;
 4//1;
 5/5=2,7=900,38=5/2;
 8/6=4,10=90,11=11/1;
 11/6=1,8=1,9=11,15=111,16=1/1,2,10;
 10/6=1,13=1/2;
 6/7=2,8=2,9=2,10=2,28=1/1;
 7/10=1,18=20,25=1,33=1/1,2,3,16;
 1/6=900,7=10,10=4,18=20,19=15,26=3/3(2);
 2/9=110,16=3/2;
 99//99;
 2/9=110,16=3/2;
 3/5=16,6=1,11=2,25=1,30=1,71=1,74=-55/1,2,3;
 4/5=5,16=3,69=1/1;
 5/5=2,7=900,38=5/2;
 7/33=1/1,2,3,16;
 1/6=900,7=10,18=20,19=15,26=3/3(-5);
 2/9=110,16=3/2;
 6/7=2,8=2,9=2,10=2,19=2,28=1/1;
 99/9=1/99;
 Leave Link    1 at Mon Sep 23 09:56:05 2019, MaxMem=   671088640 cpu:              13.1 elap:               1.7
 (Enter /shared/centos7/gaussian/g16/l101.exe)
 ------------------------------
 Gaussian input prepared by ASE
 ------------------------------
 Symbolic Z-matrix:
 Charge =  0 Multiplicity = 1
 O                     0.50187  -0.7366   -0.2449 
 O                     1.49292   0.10549  -0.32265 
 C                    -0.67708  -0.04667  -0.05185 
 H                    -0.66291   0.53107   0.8928 
 H                    -1.49344  -0.78518  -0.0023 
 H                    -0.8805    0.65666  -0.87902 
 H                     1.78764   0.21151   0.61914 
 
 ITRead=  0  0  0  0  0  0  0
 MicOpt= -1 -1 -1 -1 -1 -1 -1
 NAtoms=      7 NQM=        7 NQMF=       0 NMMI=      0 NMMIF=      0
                NMic=       0 NMicF=      0.
                    Isotopes and Nuclear Properties:
 (Nuclear quadrupole moments (NQMom) in fm**2, nuclear magnetic moments (NMagM)
  in nuclear magnetons)

  Atom         1           2           3           4           5           6           7
 IAtWgt=          16          16          12           1           1           1           1
 AtmWgt=  15.9949146  15.9949146  12.0000000   1.0078250   1.0078250   1.0078250   1.0078250
 NucSpn=           0           0           0           1           1           1           1
 AtZEff=  -0.0000000  -0.0000000  -0.0000000  -0.0000000  -0.0000000  -0.0000000  -0.0000000
 NQMom=    0.0000000   0.0000000   0.0000000   0.0000000   0.0000000   0.0000000   0.0000000
 NMagM=    0.0000000   0.0000000   0.0000000   2.7928460   2.7928460   2.7928460   2.7928460
 AtZNuc=   8.0000000   8.0000000   6.0000000   1.0000000   1.0000000   1.0000000   1.0000000
 Leave Link  101 at Mon Sep 23 09:56:05 2019, MaxMem=   671088640 cpu:               3.6 elap:               0.5
 (Enter /shared/centos7/gaussian/g16/l103.exe)

 GradGradGradGradGradGradGradGradGradGradGradGradGradGradGradGradGradGrad
 Berny optimization.
 Initialization pass.
                           ----------------------------
                           !    Initial Parameters    !
                           ! (Angstroms and Degrees)  !
 --------------------------                            --------------------------
 ! Name  Definition              Value          Derivative Info.                !
 --------------------------------------------------------------------------------
 ! R1    R(1,2)                  1.3028         calculate D2E/DX2 analytically  !
 ! R2    R(1,3)                  1.3796         calculate D2E/DX2 analytically  !
 ! R3    R(2,7)                  0.9925         calculate D2E/DX2 analytically  !
 ! R4    R(3,4)                  1.1074         calculate D2E/DX2 analytically  !
 ! R5    R(3,5)                  1.1019         calculate D2E/DX2 analytically  !
 ! R6    R(3,6)                  1.1047         calculate D2E/DX2 analytically  !
 ! A1    A(2,1,3)              109.5835         calculate D2E/DX2 analytically  !
 ! A2    A(1,2,7)              103.7862         calculate D2E/DX2 analytically  !
 ! A3    A(1,3,4)              111.6749         calculate D2E/DX2 analytically  !
 ! A4    A(1,3,5)              107.7119         calculate D2E/DX2 analytically  !
 ! A5    A(1,3,6)              111.7772         calculate D2E/DX2 analytically  !
 ! A6    A(4,3,5)              108.7092         calculate D2E/DX2 analytically  !
 ! A7    A(4,3,6)              107.9952         calculate D2E/DX2 analytically  !
 ! A8    A(5,3,6)              108.9024         calculate D2E/DX2 analytically  !
 ! D1    D(3,1,2,7)             89.2285         calculate D2E/DX2 analytically  !
 ! D2    D(2,1,3,4)            -61.3459         calculate D2E/DX2 analytically  !
 ! D3    D(2,1,3,5)            179.3611         calculate D2E/DX2 analytically  !
 ! D4    D(2,1,3,6)             59.7701         calculate D2E/DX2 analytically  !
 --------------------------------------------------------------------------------
 Trust Radius=3.00D-01 FncErr=1.00D-07 GrdErr=1.00D-06 EigMax=2.50D+02 EigMin=1.00D-04
 Number of steps in this run=    100 maximum allowed number of steps=    100.
 GradGradGradGradGradGradGradGradGradGradGradGradGradGradGradGradGradGrad

 Leave Link  103 at Mon Sep 23 09:56:06 2019, MaxMem=   671088640 cpu:               1.0 elap:               0.1
 (Enter /shared/centos7/gaussian/g16/l202.exe)
                          Input orientation:                          
 ---------------------------------------------------------------------
 Center     Atomic      Atomic             Coordinates (Angstroms)
 Number     Number       Type             X           Y           Z
 ---------------------------------------------------------------------
      1          8           0        0.501873   -0.736599   -0.244903
      2          8           0        1.492924    0.105495   -0.322646
      3          6           0       -0.677084   -0.046671   -0.051851
      4          1           0       -0.662911    0.531070    0.892800
      5          1           0       -1.493439   -0.785180   -0.002302
      6          1           0       -0.880500    0.656661   -0.879019
      7          1           0        1.787638    0.211513    0.619143
 ---------------------------------------------------------------------
                    Distance matrix (angstroms):
                    1          2          3          4          5
     1  O    0.000000
     2  O    1.302823   0.000000
     3  C    1.379569   2.192127   0.000000
     4  H    2.063510   2.511185   1.107408   0.000000
     5  H    2.010594   3.132776   1.101946   1.795410   0.000000
     6  H    2.062579   2.499295   1.104654   1.789542   1.795337
     7  H    1.816228   0.992504   2.567440   2.486402   3.484976
                    6          7
     6  H    0.000000
     7  H    3.092185   0.000000
 Stoichiometry    CH4O2
 Framework group  C1[X(CH4O2)]
 Deg. of freedom    15
 Full point group                 C1      NOp   1
 Largest Abelian subgroup         C1      NOp   1
 Largest concise Abelian subgroup C1      NOp   1
                         Standard orientation:                         
 ---------------------------------------------------------------------
 Center     Atomic      Atomic             Coordinates (Angstroms)
 Number     Number       Type             X           Y           Z
 ---------------------------------------------------------------------
      1          8           0       -0.069975    0.563279    0.038551
      2          8           0       -1.105048   -0.210021   -0.128712
      3          6           0        1.083518   -0.192209   -0.005083
      4          1           0        1.106762   -0.950205    0.801920
      5          1           0        1.937368    0.491622    0.127585
      6          1           0        1.192770   -0.718013   -0.970409
      7          1           0       -1.337824   -0.496212    0.792687
 ---------------------------------------------------------------------
 Rotational constants (GHZ):          47.7653825          11.4129845          10.1225517
 Leave Link  202 at Mon Sep 23 09:56:06 2019, MaxMem=   671088640 cpu:               2.8 elap:               0.4
 (Enter /shared/centos7/gaussian/g16/l301.exe)
 Standard basis: CC-pVTZ (5D, 7F)
 Ernie: Thresh=  0.10000D-02 Tol=  0.10000D-05 Strict=F.
 Ernie:  9 primitive shells out of 110 were deleted.
 There are   165 symmetry adapted cartesian basis functions of A   symmetry.
 There are   146 symmetry adapted basis functions of A   symmetry.
   146 basis functions,   224 primitive gaussians,   165 cartesian basis functions
    13 alpha electrons       13 beta electrons
       nuclear repulsion energy        84.8116665596 Hartrees.
 IExCor= 4336 DFT=T Ex+Corr=M062X ExCW=0 ScaHFX=  0.540000
 ScaDFX=  1.000000  1.000000  1.000000  1.000000 ScalE2=  1.000000  1.000000
 IRadAn=      5 IRanWt=     -1 IRanGd=            0 ICorTp=0 IEmpDi=  4
 NAtoms=    7 NActive=    7 NUniq=    7 SFac= 1.00D+00 NAtFMM=   60 NAOKFM=F Big=F
 Integral buffers will be    131072 words long.
 Raffenetti 2 integral format.
 Two-electron integral symmetry is turned on.
 Leave Link  301 at Mon Sep 23 09:56:06 2019, MaxMem=   671088640 cpu:               3.1 elap:               0.4
 (Enter /shared/centos7/gaussian/g16/l302.exe)
 NPDir=0 NMtPBC=     1 NCelOv=     1 NCel=       1 NClECP=     1 NCelD=      1
         NCelK=      1 NCelE2=     1 NClLst=     1 CellRange=     0.0.
 One-electron integrals computed using PRISM.
 One-electron integral symmetry used in STVInt
 NBasis=   146 RedAO= T EigKep=  1.91D-03  NBF=   146
 NBsUse=   146 1.00D-06 EigRej= -1.00D+00 NBFU=   146
 Precomputing XC quadrature grid using
 IXCGrd= 4 IRadAn=           5 IRanWt=          -1 IRanGd=           0 AccXCQ= 0.00D+00.
 Generated NRdTot=       0 NPtTot=           0 NUsed=           0 NTot=          32
 NSgBfM=   165   165   165   165   165 MxSgAt=     7 MxSgA2=     7.
 Leave Link  302 at Mon Sep 23 09:56:16 2019, MaxMem=   671088640 cpu:              76.2 elap:               9.5
 (Enter /shared/centos7/gaussian/g16/l303.exe)
 DipDrv:  MaxL=1.
 Leave Link  303 at Mon Sep 23 09:56:17 2019, MaxMem=   671088640 cpu:              11.1 elap:               1.4
 (Enter /shared/centos7/gaussian/g16/l401.exe)
 ExpMin= 1.03D-01 ExpMax= 1.53D+04 ExpMxC= 5.22D+02 IAcc=3 IRadAn=         5 AccDes= 0.00D+00
 Harris functional with IExCor= 1009 and IRadAn=       5 diagonalized for initial guess.
 HarFok:  IExCor= 1009 AccDes= 0.00D+00 IRadAn=         5 IDoV= 1 UseB2=F ITyADJ=14
 ICtDFT=  3500011 ScaDFX=  1.000000  1.000000  1.000000  1.000000
 FoFCou: FMM=F IPFlag=           0 FMFlag=      100000 FMFlg1=           0
         NFxFlg=           0 DoJE=T BraDBF=F KetDBF=T FulRan=T
         wScrn=  0.000000 ICntrl=       500 IOpCl=  0 I1Cent=   200000004 NGrid=           0
         NMat0=    1 NMatS0=      1 NMatT0=    0 NMatD0=    1 NMtDS0=    0 NMtDT0=    0
 Petite list used in FoFCou.
 Harris En= -190.760627364840    
 JPrj=0 DoOrth=F DoCkMO=F.
 Leave Link  401 at Mon Sep 23 09:56:22 2019, MaxMem=   671088640 cpu:              34.3 elap:               4.3
 (Enter /shared/centos7/gaussian/g16/l502.exe)
 Keep R1 ints in memory in canonical form, NReq=77430779.
 FoFCou: FMM=F IPFlag=           0 FMFlag=           0 FMFlg1=           0
         NFxFlg=           0 DoJE=F BraDBF=F KetDBF=F FulRan=T
         wScrn=  0.000000 ICntrl=       600 IOpCl=  0 I1Cent=           0 NGrid=           0
         NMat0=    1 NMatS0=  10731 NMatT0=    0 NMatD0=    1 NMtDS0=    0 NMtDT0=    0
 Symmetry not used in FoFCou.
 Two-electron integral symmetry not used.
 Closed shell SCF:
 Using DIIS extrapolation, IDIIS=  1040.
 NGot=   671088640 LenX=   613446765 LenY=   613419099
 Requested convergence on RMS density matrix=1.00D-08 within 900 cycles.
 Requested convergence on MAX density matrix=1.00D-06.
 Requested convergence on             energy=1.00D-06.
 No special actions if energy rises.
 Integral accuracy reduced to 1.0D-05 until final iterations.

 Cycle   1  Pass 0  IDiag  1:
 E= -190.764696598033    
 DIIS: error= 2.26D-02 at cycle   1 NSaved=   1.
 NSaved= 1 IEnMin= 1 EnMin= -190.764696598033     IErMin= 1 ErrMin= 2.26D-02
 ErrMax= 2.26D-02  0.00D+00 EMaxC= 1.00D-01 BMatC= 1.10D-01 BMatP= 1.10D-01
 IDIUse=3 WtCom= 7.74D-01 WtEn= 2.26D-01
 Coeff-Com:  0.100D+01
 Coeff-En:   0.100D+01
 Coeff:      0.100D+01
 Gap=     0.378 Goal=   None    Shift=    0.000
 GapD=    0.378 DampG=1.000 DampE=0.500 DampFc=0.5000 IDamp=-1.
 Damping current iteration by 5.00D-01
 RMSDP=2.08D-03 MaxDP=3.93D-02              OVMax= 1.07D-01

 Cycle   2  Pass 0  IDiag  1:
 E= -190.802519264852     Delta-E=       -0.037822666819 Rises=F Damp=T
 DIIS: error= 6.03D-03 at cycle   2 NSaved=   2.
 NSaved= 2 IEnMin= 2 EnMin= -190.802519264852     IErMin= 2 ErrMin= 6.03D-03
 ErrMax= 6.03D-03  0.00D+00 EMaxC= 1.00D-01 BMatC= 1.20D-02 BMatP= 1.10D-01
 IDIUse=3 WtCom= 9.40D-01 WtEn= 6.03D-02
 Coeff-Com: -0.222D+00 0.122D+01
 Coeff-En:   0.000D+00 0.100D+01
 Coeff:     -0.209D+00 0.121D+01
 Gap=     0.405 Goal=   None    Shift=    0.000
 RMSDP=4.37D-04 MaxDP=8.48D-03 DE=-3.78D-02 OVMax= 4.99D-02

 Cycle   3  Pass 0  IDiag  1:
 E= -190.835135352254     Delta-E=       -0.032616087402 Rises=F Damp=F
 DIIS: error= 2.36D-03 at cycle   3 NSaved=   3.
 NSaved= 3 IEnMin= 3 EnMin= -190.835135352254     IErMin= 3 ErrMin= 2.36D-03
 ErrMax= 2.36D-03  0.00D+00 EMaxC= 1.00D-01 BMatC= 1.57D-03 BMatP= 1.20D-02
 IDIUse=3 WtCom= 9.76D-01 WtEn= 2.36D-02
 Coeff-Com: -0.115D+00 0.341D+00 0.774D+00
 Coeff-En:   0.000D+00 0.000D+00 0.100D+01
 Coeff:     -0.112D+00 0.333D+00 0.779D+00
 Gap=     0.402 Goal=   None    Shift=    0.000
 RMSDP=1.60D-04 MaxDP=3.64D-03 DE=-3.26D-02 OVMax= 8.34D-03

 Cycle   4  Pass 0  IDiag  1:
 E= -190.835987490994     Delta-E=       -0.000852138740 Rises=F Damp=F
 DIIS: error= 9.95D-04 at cycle   4 NSaved=   4.
 NSaved= 4 IEnMin= 4 EnMin= -190.835987490994     IErMin= 4 ErrMin= 9.95D-04
 ErrMax= 9.95D-04  0.00D+00 EMaxC= 1.00D-01 BMatC= 2.78D-04 BMatP= 1.57D-03
 IDIUse=3 WtCom= 9.90D-01 WtEn= 9.95D-03
 Coeff-Com: -0.371D-01 0.916D-01 0.361D+00 0.585D+00
 Coeff-En:   0.000D+00 0.000D+00 0.232D-01 0.977D+00
 Coeff:     -0.368D-01 0.907D-01 0.357D+00 0.589D+00
 Gap=     0.400 Goal=   None    Shift=    0.000
 RMSDP=5.77D-05 MaxDP=1.23D-03 DE=-8.52D-04 OVMax= 2.85D-03

 Cycle   5  Pass 0  IDiag  1:
 E= -190.836150541114     Delta-E=       -0.000163050119 Rises=F Damp=F
 DIIS: error= 2.75D-04 at cycle   5 NSaved=   5.
 NSaved= 5 IEnMin= 5 EnMin= -190.836150541114     IErMin= 5 ErrMin= 2.75D-04
 ErrMax= 2.75D-04  0.00D+00 EMaxC= 1.00D-01 BMatC= 1.55D-05 BMatP= 2.78D-04
 IDIUse=3 WtCom= 9.97D-01 WtEn= 2.75D-03
 Coeff-Com: -0.614D-02 0.117D-01 0.945D-01 0.257D+00 0.643D+00
 Coeff-En:   0.000D+00 0.000D+00 0.000D+00 0.000D+00 0.100D+01
 Coeff:     -0.612D-02 0.117D-01 0.943D-01 0.257D+00 0.644D+00
 Gap=     0.401 Goal=   None    Shift=    0.000
 RMSDP=1.51D-05 MaxDP=3.24D-04 DE=-1.63D-04 OVMax= 6.63D-04

 Cycle   6  Pass 0  IDiag  1:
 E= -190.836161402381     Delta-E=       -0.000010861268 Rises=F Damp=F
 DIIS: error= 3.34D-05 at cycle   6 NSaved=   6.
 NSaved= 6 IEnMin= 6 EnMin= -190.836161402381     IErMin= 6 ErrMin= 3.34D-05
 ErrMax= 3.34D-05  0.00D+00 EMaxC= 1.00D-01 BMatC= 3.33D-07 BMatP= 1.55D-05
 IDIUse=1 WtCom= 1.00D+00 WtEn= 0.00D+00
 Coeff-Com: -0.461D-03 0.353D-03 0.174D-01 0.580D-01 0.192D+00 0.732D+00
 Coeff:     -0.461D-03 0.353D-03 0.174D-01 0.580D-01 0.192D+00 0.732D+00
 Gap=     0.401 Goal=   None    Shift=    0.000
 RMSDP=2.93D-06 MaxDP=7.86D-05 DE=-1.09D-05 OVMax= 1.44D-04

 Initial convergence to 1.0D-05 achieved.  Increase integral accuracy.
 Cycle   7  Pass 1  IDiag  1:
 E= -190.836157854058     Delta-E=        0.000003548323 Rises=F Damp=F
 DIIS: error= 2.47D-05 at cycle   1 NSaved=   1.
 NSaved= 1 IEnMin= 1 EnMin= -190.836157854058     IErMin= 1 ErrMin= 2.47D-05
 ErrMax= 2.47D-05  0.00D+00 EMaxC= 1.00D-01 BMatC= 2.06D-07 BMatP= 2.06D-07
 IDIUse=1 WtCom= 1.00D+00 WtEn= 0.00D+00
 Coeff-Com:  0.100D+01
 Coeff:      0.100D+01
 Gap=     0.401 Goal=   None    Shift=    0.000
 RMSDP=2.93D-06 MaxDP=7.86D-05 DE= 3.55D-06 OVMax= 1.37D-04

 Cycle   8  Pass 1  IDiag  1:
 E= -190.836157938712     Delta-E=       -0.000000084653 Rises=F Damp=F
 DIIS: error= 1.52D-05 at cycle   2 NSaved=   2.
 NSaved= 2 IEnMin= 2 EnMin= -190.836157938712     IErMin= 2 ErrMin= 1.52D-05
 ErrMax= 1.52D-05  0.00D+00 EMaxC= 1.00D-01 BMatC= 7.09D-08 BMatP= 2.06D-07
 IDIUse=1 WtCom= 1.00D+00 WtEn= 0.00D+00
 Coeff-Com:  0.327D+00 0.673D+00
 Coeff:      0.327D+00 0.673D+00
 Gap=     0.401 Goal=   None    Shift=    0.000
 RMSDP=1.20D-06 MaxDP=2.85D-05 DE=-8.47D-08 OVMax= 6.19D-05

 Cycle   9  Pass 1  IDiag  1:
 E= -190.836157980012     Delta-E=       -0.000000041300 Rises=F Damp=F
 DIIS: error= 6.94D-06 at cycle   3 NSaved=   3.
 NSaved= 3 IEnMin= 3 EnMin= -190.836157980012     IErMin= 3 ErrMin= 6.94D-06
 ErrMax= 6.94D-06  0.00D+00 EMaxC= 1.00D-01 BMatC= 1.20D-08 BMatP= 7.09D-08
 IDIUse=1 WtCom= 1.00D+00 WtEn= 0.00D+00
 Coeff-Com: -0.242D-01 0.279D+00 0.745D+00
 Coeff:     -0.242D-01 0.279D+00 0.745D+00
 Gap=     0.401 Goal=   None    Shift=    0.000
 RMSDP=4.34D-07 MaxDP=9.22D-06 DE=-4.13D-08 OVMax= 2.62D-05

 Cycle  10  Pass 1  IDiag  1:
 E= -190.836157988497     Delta-E=       -0.000000008485 Rises=F Damp=F
 DIIS: error= 8.25D-07 at cycle   4 NSaved=   4.
 NSaved= 4 IEnMin= 4 EnMin= -190.836157988497     IErMin= 4 ErrMin= 8.25D-07
 ErrMax= 8.25D-07  0.00D+00 EMaxC= 1.00D-01 BMatC= 2.19D-10 BMatP= 1.20D-08
 IDIUse=1 WtCom= 1.00D+00 WtEn= 0.00D+00
 Coeff-Com: -0.129D-01 0.776D-01 0.239D+00 0.696D+00
 Coeff:     -0.129D-01 0.776D-01 0.239D+00 0.696D+00
 Gap=     0.401 Goal=   None    Shift=    0.000
 RMSDP=9.09D-08 MaxDP=1.81D-06 DE=-8.49D-09 OVMax= 5.71D-06

 Cycle  11  Pass 1  IDiag  1:
 E= -190.836157988690     Delta-E=       -0.000000000193 Rises=F Damp=F
 DIIS: error= 5.12D-07 at cycle   5 NSaved=   5.
 NSaved= 5 IEnMin= 5 EnMin= -190.836157988690     IErMin= 5 ErrMin= 5.12D-07
 ErrMax= 5.12D-07  0.00D+00 EMaxC= 1.00D-01 BMatC= 5.20D-11 BMatP= 2.19D-10
 IDIUse=1 WtCom= 1.00D+00 WtEn= 0.00D+00
 Coeff-Com:  0.163D-02-0.406D-01-0.951D-01 0.292D+00 0.842D+00
 Coeff:      0.163D-02-0.406D-01-0.951D-01 0.292D+00 0.842D+00
 Gap=     0.401 Goal=   None    Shift=    0.000
 RMSDP=6.49D-08 MaxDP=1.46D-06 DE=-1.93D-10 OVMax= 5.03D-06

 Cycle  12  Pass 1  IDiag  1:
 E= -190.836157988756     Delta-E=       -0.000000000067 Rises=F Damp=F
 DIIS: error= 1.25D-07 at cycle   6 NSaved=   6.
 NSaved= 6 IEnMin= 6 EnMin= -190.836157988756     IErMin= 6 ErrMin= 1.25D-07
 ErrMax= 1.25D-07  0.00D+00 EMaxC= 1.00D-01 BMatC= 5.20D-12 BMatP= 5.20D-11
 IDIUse=1 WtCom= 1.00D+00 WtEn= 0.00D+00
 Coeff-Com:  0.173D-02-0.232D-01-0.605D-01 0.480D-01 0.325D+00 0.709D+00
 Coeff:      0.173D-02-0.232D-01-0.605D-01 0.480D-01 0.325D+00 0.709D+00
 Gap=     0.401 Goal=   None    Shift=    0.000
 RMSDP=1.63D-08 MaxDP=4.56D-07 DE=-6.68D-11 OVMax= 1.25D-06

 Cycle  13  Pass 1  IDiag  1:
 E= -190.836157988761     Delta-E=       -0.000000000005 Rises=F Damp=F
 DIIS: error= 3.77D-08 at cycle   7 NSaved=   7.
 NSaved= 7 IEnMin= 7 EnMin= -190.836157988761     IErMin= 7 ErrMin= 3.77D-08
 ErrMax= 3.77D-08  0.00D+00 EMaxC= 1.00D-01 BMatC= 3.65D-13 BMatP= 5.20D-12
 IDIUse=1 WtCom= 1.00D+00 WtEn= 0.00D+00
 Coeff-Com:  0.232D-03-0.348D-03-0.278D-02-0.271D-01-0.250D-01 0.187D+00
 Coeff-Com:  0.869D+00
 Coeff:      0.232D-03-0.348D-03-0.278D-02-0.271D-01-0.250D-01 0.187D+00
 Coeff:      0.869D+00
 Gap=     0.401 Goal=   None    Shift=    0.000
 RMSDP=5.49D-09 MaxDP=1.08D-07 DE=-4.77D-12 OVMax= 4.54D-07

 SCF Done:  E(RM062X) =  -190.836157989     A.U. after   13 cycles
            NFock= 13  Conv=0.55D-08     -V/T= 2.0040
 KE= 1.900799086188D+02 PE=-6.188315795752D+02 EE= 1.531038464080D+02
 Leave Link  502 at Mon Sep 23 09:57:01 2019, MaxMem=   671088640 cpu:             307.6 elap:              39.4
 (Enter /shared/centos7/gaussian/g16/l801.exe)
 DoSCS=F DFT=T ScalE2(SS,OS)=  1.000000  1.000000
 Range of M.O.s used for correlation:     1   146
 NBasis=   146 NAE=    13 NBE=    13 NFC=     0 NFV=     0
 NROrb=    146 NOA=    13 NOB=    13 NVA=   133 NVB=   133

 **** Warning!!: The largest alpha MO coefficient is  0.11625629D+02

 Leave Link  801 at Mon Sep 23 09:57:01 2019, MaxMem=   671088640 cpu:               1.2 elap:               0.2
 (Enter /shared/centos7/gaussian/g16/l1101.exe)
 Using compressed storage, NAtomX=     7.
 Will process      8 centers per pass.
 Leave Link 1101 at Mon Sep 23 09:57:06 2019, MaxMem=   671088640 cpu:              39.4 elap:               5.2
 (Enter /shared/centos7/gaussian/g16/l1102.exe)
 Symmetrizing basis deriv contribution to polar:
 IMax=3 JMax=2 DiffMx= 0.00D+00
 Leave Link 1102 at Mon Sep 23 09:57:07 2019, MaxMem=   671088640 cpu:               7.7 elap:               1.0
 (Enter /shared/centos7/gaussian/g16/l1110.exe)
 Forming Gx(P) for the SCF density, NAtomX=     7.
 Integral derivatives from FoFJK, PRISM(SPDF).
 Do as many integral derivatives as possible in FoFJK.
 G2DrvN: MDV=     671088000.
 G2DrvN: will do     8 centers at a time, making    1 passes.
 Calling FoFCou, ICntrl=  3107 FMM=F I1Cent=   0 AccDes= 0.00D+00.
 FoFJK:  IHMeth= 1 ICntrl=    3107 DoSepK=F KAlg= 0 I1Cent=           0 FoldK=F
 IRaf=         0 NMat=       1 IRICut=       1 DoRegI=T DoRafI=F ISym2E= 0 IDoP0=0 IntGTp=1.
 FoFCou: FMM=F IPFlag=           0 FMFlag=      100000 FMFlg1=           0
         NFxFlg=           0 DoJE=F BraDBF=F KetDBF=F FulRan=T
         wScrn=  0.000000 ICntrl=      3107 IOpCl=  0 I1Cent=           0 NGrid=           0
         NMat0=    1 NMatS0=      1 NMatT0=    0 NMatD0=    1 NMtDS0=    0 NMtDT0=    0
 Symmetry not used in FoFCou.
 End of G2Drv F.D. properties file   721 does not exist.
 End of G2Drv F.D. properties file   722 does not exist.
 End of G2Drv F.D. properties file   788 does not exist.
 Leave Link 1110 at Mon Sep 23 09:57:41 2019, MaxMem=   671088640 cpu:             271.6 elap:              34.0
 (Enter /shared/centos7/gaussian/g16/l1002.exe)
 Minotr:  Closed shell wavefunction.
          IDoAtm=1111111
          Direct CPHF calculation.
          Differentiating once with respect to nuclear coordinates.
          Requested convergence is 1.0D-08 RMS, and 1.0D-07 maximum.
          Secondary convergence is 1.0D-12 RMS, and 1.0D-12 maximum.
          NewPWx=T KeepS1=F KeepF1=F KeepIn=T MapXYZ=F SortEE=F KeepMc=T.
         2080 words used for storage of precomputed grid.
 Keep R1 ints in memory in canonical form, NReq=77367345.
 FoFCou: FMM=F IPFlag=           0 FMFlag=           0 FMFlg1=           0
         NFxFlg=           0 DoJE=F BraDBF=F KetDBF=F FulRan=T
         wScrn=  0.000000 ICntrl=       600 IOpCl=  0 I1Cent=           0 NGrid=           0
         NMat0=    1 NMatS0=  10731 NMatT0=    0 NMatD0=    1 NMtDS0=    0 NMtDT0=    0
 Symmetry not used in FoFCou.
 Two-electron integral symmetry not used.
          MDV=     671088640 using IRadAn=       1.
          Solving linear equations simultaneously, MaxMat=       0.
          There are    24 degrees of freedom in the 1st order CPHF.  IDoFFX=6 NUNeed=     0.
     18 vectors produced by pass  0 Test12= 7.20D-15 4.17D-09 XBig12= 8.40D-02 9.33D-02.
 AX will form    18 AO Fock derivatives at one time.
     18 vectors produced by pass  1 Test12= 7.20D-15 4.17D-09 XBig12= 5.38D-03 2.37D-02.
     18 vectors produced by pass  2 Test12= 7.20D-15 4.17D-09 XBig12= 2.61D-04 2.89D-03.
     18 vectors produced by pass  3 Test12= 7.20D-15 4.17D-09 XBig12= 3.09D-06 4.62D-04.
     18 vectors produced by pass  4 Test12= 7.20D-15 4.17D-09 XBig12= 3.16D-08 3.71D-05.
     18 vectors produced by pass  5 Test12= 7.20D-15 4.17D-09 XBig12= 1.63D-10 1.90D-06.
      9 vectors produced by pass  6 Test12= 7.20D-15 4.17D-09 XBig12= 6.89D-13 1.19D-07.
      1 vectors produced by pass  7 Test12= 7.20D-15 4.17D-09 XBig12= 3.62D-15 1.04D-08.
 InvSVY:  IOpt=1 It=  1 EMax= 1.11D-15
 Solved reduced A of dimension   118 with    18 vectors.
 End of Minotr F.D. properties file   721 does not exist.
 End of Minotr F.D. properties file   722 does not exist.
 End of Minotr F.D. properties file   788 does not exist.
 Leave Link 1002 at Mon Sep 23 09:58:40 2019, MaxMem=   671088640 cpu:             469.3 elap:              58.8
 (Enter /shared/centos7/gaussian/g16/l601.exe)
 Copying SCF densities to generalized density rwf, IOpCl= 0 IROHF=0.

 **********************************************************************

            Population analysis using the SCF density.

 **********************************************************************

 Orbital symmetries:
       Occupied  (A) (A) (A) (A) (A) (A) (A) (A) (A) (A) (A) (A)
                 (A)
       Virtual   (A) (A) (A) (A) (A) (A) (A) (A) (A) (A) (A) (A)
                 (A) (A) (A) (A) (A) (A) (A) (A) (A) (A) (A) (A)
                 (A) (A) (A) (A) (A) (A) (A) (A) (A) (A) (A) (A)
                 (A) (A) (A) (A) (A) (A) (A) (A) (A) (A) (A) (A)
                 (A) (A) (A) (A) (A) (A) (A) (A) (A) (A) (A) (A)
                 (A) (A) (A) (A) (A) (A) (A) (A) (A) (A) (A) (A)
                 (A) (A) (A) (A) (A) (A) (A) (A) (A) (A) (A) (A)
                 (A) (A) (A) (A) (A) (A) (A) (A) (A) (A) (A) (A)
                 (A) (A) (A) (A) (A) (A) (A) (A) (A) (A) (A) (A)
                 (A) (A) (A) (A) (A) (A) (A) (A) (A) (A) (A) (A)
                 (A) (A) (A) (A) (A) (A) (A) (A) (A) (A) (A) (A)
                 (A)
 The electronic state is 1-A.
 Alpha  occ. eigenvalues --  -19.67925 -19.67878 -10.58565  -1.32682  -1.01407
 Alpha  occ. eigenvalues --   -0.77705  -0.63960  -0.58039  -0.57478  -0.48502
 Alpha  occ. eigenvalues --   -0.44719  -0.36521  -0.34165
 Alpha virt. eigenvalues --    0.05917   0.09910   0.13785   0.15030   0.15270
 Alpha virt. eigenvalues --    0.25536   0.29573   0.30770   0.41893   0.44286
 Alpha virt. eigenvalues --    0.46842   0.47688   0.48955   0.51201   0.54294
 Alpha virt. eigenvalues --    0.55927   0.61172   0.64660   0.67923   0.71637
 Alpha virt. eigenvalues --    0.74418   0.80860   0.87385   0.88051   0.91148
 Alpha virt. eigenvalues --    0.99567   1.02272   1.04222   1.09957   1.12321
 Alpha virt. eigenvalues --    1.16321   1.21724   1.29195   1.31695   1.33058
 Alpha virt. eigenvalues --    1.34863   1.39551   1.47165   1.55192   1.59832
 Alpha virt. eigenvalues --    1.73990   1.79601   1.95677   1.98100   2.00841
 Alpha virt. eigenvalues --    2.04188   2.15625   2.20052   2.28319   2.30348
 Alpha virt. eigenvalues --    2.33824   2.40102   2.51642   2.69055   2.75165
 Alpha virt. eigenvalues --    2.81637   2.83672   2.88204   2.92994   2.97903
 Alpha virt. eigenvalues --    3.00895   3.03227   3.06862   3.11495   3.26507
 Alpha virt. eigenvalues --    3.26985   3.27404   3.30018   3.36185   3.37842
 Alpha virt. eigenvalues --    3.38691   3.43631   3.48849   3.49669   3.61100
 Alpha virt. eigenvalues --    3.65429   3.67818   3.74557   3.76207   3.77486
 Alpha virt. eigenvalues --    3.78892   3.83831   3.92055   3.95468   3.98404
 Alpha virt. eigenvalues --    4.00837   4.10566   4.15440   4.19392   4.24307
 Alpha virt. eigenvalues --    4.30571   4.38124   4.50663   4.59968   4.64335
 Alpha virt. eigenvalues --    4.75085   4.79841   4.81573   4.84295   4.91675
 Alpha virt. eigenvalues --    4.98679   5.07553   5.10954   5.16542   5.16793
 Alpha virt. eigenvalues --    5.20364   5.24169   5.37182   5.58395   5.70842
 Alpha virt. eigenvalues --    5.71697   5.79158   6.00843   6.09130   6.10742
 Alpha virt. eigenvalues --    6.31961   6.34386   6.40068   6.46049   6.52422
 Alpha virt. eigenvalues --    6.59761   6.67490   6.76054   6.80017   6.89390
 Alpha virt. eigenvalues --    6.96656   7.26312   7.30722   7.49361   7.72224
 Alpha virt. eigenvalues --   10.11654  11.93718  13.00587
          Condensed to atoms (all electrons):
               1          2          3          4          5          6
     1  O    7.977618   0.023622   0.328333  -0.055588  -0.025170  -0.050757
     2  O    0.023622   7.952648  -0.058922  -0.000496   0.008152   0.004107
     3  C    0.328333  -0.058922   4.655826   0.375122   0.385840   0.409438
     4  H   -0.055588  -0.000496   0.375122   0.726442  -0.033391  -0.078766
     5  H   -0.025170   0.008152   0.385840  -0.033391   0.604517  -0.032182
     6  H   -0.050757   0.004107   0.409438  -0.078766  -0.032182   0.669162
     7  H   -0.046454   0.314569  -0.006743   0.013411  -0.001003  -0.003170
               7
     1  O   -0.046454
     2  O    0.314569
     3  C   -0.006743
     4  H    0.013411
     5  H   -0.001003
     6  H   -0.003170
     7  H    0.473882
 Mulliken charges:
               1
     1  O   -0.151604
     2  O   -0.243680
     3  C   -0.088894
     4  H    0.053265
     5  H    0.093238
     6  H    0.082168
     7  H    0.255506
 Sum of Mulliken charges =  -0.00000
 Mulliken charges with hydrogens summed into heavy atoms:
               1
     1  O   -0.151604
     2  O    0.011827
     3  C    0.139777
 APT charges:
               1
     1  O   -0.056976
     2  O   -0.487705
     3  C   -0.798939
     4  H    0.239415
     5  H    0.360906
     6  H    0.279540
     7  H    0.463759
 Sum of APT charges =  -0.00000
 APT charges with hydrogens summed into heavy atoms:
               1
     1  O   -0.056976
     2  O   -0.023946
     3  C    0.080922
 Electronic spatial extent (au):  <R**2>=            155.4634
 Charge=             -0.0000 electrons
 Dipole moment (field-independent basis, Debye):
    X=              0.9513    Y=             -1.1921    Z=              1.4086  Tot=              2.0761
 Quadrupole moment (field-independent basis, Debye-Ang):
   XX=            -16.5837   YY=            -19.2798   ZZ=            -17.4424
   XY=              0.8464   XZ=             -2.3368   YZ=             -0.8949
 Traceless Quadrupole moment (field-independent basis, Debye-Ang):
   XX=              1.1850   YY=             -1.5111   ZZ=              0.3262
   XY=              0.8464   XZ=             -2.3368   YZ=             -0.8949
 Octapole moment (field-independent basis, Debye-Ang**2):
  XXX=             -3.8681  YYY=              0.7251  ZZZ=              0.9987  XYY=             -1.5377
  XXY=             -0.0373  XXZ=              3.3311  XZZ=             -3.2450  YZZ=             -0.7461
  YYZ=              0.6062  XYZ=              1.3779
 Hexadecapole moment (field-independent basis, Debye-Ang**3):
 XXXX=           -121.2004 YYYY=            -39.2335 ZZZZ=            -24.9397 XXXY=              5.8378
 XXXZ=             -4.6574 YYYX=              1.8051 YYYZ=             -0.5796 ZZZX=             -2.7145
 ZZZY=             -0.6294 XXYY=            -25.4344 XXZZ=            -23.7969 YYZZ=            -10.2373
 XXYZ=             -1.1943 YYXZ=             -0.6701 ZZXY=              0.6158
 N-N= 8.481166655959D+01 E-N=-6.188315744679D+02  KE= 1.900799086188D+02
  Exact polarizability:   0.000   0.000   0.000   0.000   0.000   0.000
 Approx polarizability:  28.359   2.229  24.335  -0.722  -1.075  24.676
 No NMR shielding tensors so no spin-rotation constants.
 Leave Link  601 at Mon Sep 23 09:58:45 2019, MaxMem=   671088640 cpu:              41.4 elap:               5.2
 (Enter /shared/centos7/gaussian/g16/l701.exe)
 SCFChk:  SCF convergence  5.49D-09 required  1.00D-08
 ... and contract with generalized density number  0.
 Compute integral second derivatives.
 Entering OneElI...
 Calculate overlap and kinetic energy integrals
    NBasis = 165  MinDer = 2  MaxDer = 2
 Requested accuracy = 0.1000D-12
 PrmmSu-InSpLW:  IPartL=    0 NPrtUS=   20 NPrtUL=    1 DoSpLW=F IThBeg=    0 IThEnd=   19 NThAct=   20.
 PrsmSu:  NPrtUS=  20 ThrOK=T IAlg=1 NPAlg=1 LenDen=           0 ISkipM=0 DoSpLW=F IThBeg=    0 IThEnd=   19.
 Prism:   IPart=     0 DynPar=F LinDyn=F Incr=           1.
 PRISM was handed    33506560 working-precision words and  1485 shell-pairs
 PRISM was handed    33506560 working-precision words and  1485 shell-pairs
 PRISM was handed    33506560 working-precision words and  1485 shell-pairs
 PRISM was handed    33506560 working-precision words and  1485 shell-pairs
 PRISM was handed    33506560 working-precision words and  1485 shell-pairs
 PRISM was handed    33506560 working-precision words and  1485 shell-pairs
 PRISM was handed    33506560 working-precision words and  1485 shell-pairs
 PRISM was handed    33506560 working-precision words and  1485 shell-pairs
 PRISM was handed    33506560 working-precision words and  1485 shell-pairs
 PRISM was handed    33506560 working-precision words and  1485 shell-pairs
 PRISM was handed    33506560 working-precision words and  1485 shell-pairs
 PRISM was handed    33506560 working-precision words and  1485 shell-pairs
 PRISM was handed    33506560 working-precision words and  1485 shell-pairs
 PRISM was handed    33506560 working-precision words and  1485 shell-pairs
 PRISM was handed    33506560 working-precision words and  1485 shell-pairs
 PRISM was handed    33506560 working-precision words and  1485 shell-pairs
 IPart= 13 NShTot=          65 NBatch=          20 AvBLen=         3.3
 IPart=  1 NShTot=         104 NBatch=          46 AvBLen=         2.3
 IPart= 17 NShTot=          62 NBatch=          20 AvBLen=         3.1
 PRISM was handed    33506560 working-precision words and  1485 shell-pairs
 PRISM was handed    33506560 working-precision words and  1485 shell-pairs
 PRISM was handed    33506560 working-precision words and  1485 shell-pairs
 IPart=  0 NShTot=         113 NBatch=          55 AvBLen=         2.1
 PRISM was handed    33506560 working-precision words and  1485 shell-pairs
 IPart=  3 NShTot=          87 NBatch=          34 AvBLen=         2.6
 IPart=  2 NShTot=          96 NBatch=          41 AvBLen=         2.3
 IPart=  7 NShTot=          73 NBatch=          24 AvBLen=         3.0
 IPart= 11 NShTot=          66 NBatch=          21 AvBLen=         3.1
 IPart= 16 NShTot=          62 NBatch=          20 AvBLen=         3.1
 IPart= 18 NShTot=          61 NBatch=          20 AvBLen=         3.1
 IPart=  8 NShTot=          73 NBatch=          24 AvBLen=         3.0
 IPart= 14 NShTot=          65 NBatch=          20 AvBLen=         3.3
 IPart=  6 NShTot=          74 NBatch=          25 AvBLen=         3.0
 IPart= 19 NShTot=          61 NBatch=          20 AvBLen=         3.1
 IPart= 15 NShTot=          64 NBatch=          20 AvBLen=         3.2
 IPart= 12 NShTot=          65 NBatch=          20 AvBLen=         3.3
 IPart= 10 NShTot=          66 NBatch=          21 AvBLen=         3.1
 IPart=  5 NShTot=          76 NBatch=          27 AvBLen=         2.8
 IPart=  4 NShTot=          82 NBatch=          29 AvBLen=         2.8
 IPart=  9 NShTot=          70 NBatch=          21 AvBLen=         3.3
 PrSmSu:  NxtVal=             21.
 Entering OneElI...
 Calculate potential energy integrals
    NBasis = 165  MinDer = 2  MaxDer = 2
 Requested accuracy = 0.1000D-12
 PrmmSu-InSpLW:  IPartL=    0 NPrtUS=   20 NPrtUL=    1 DoSpLW=F IThBeg=    0 IThEnd=   19 NThAct=   20.
 PrsmSu:  NPrtUS=  20 ThrOK=T IAlg=1 NPAlg=1 LenDen=           0 ISkipM=0 DoSpLW=F IThBeg=    0 IThEnd=   19.
 Prism:   IPart=     0 DynPar=F LinDyn=F Incr=           5.
 PRISM was handed    33510844 working-precision words and  1481 shell-pairs
 PRISM was handed    33510844 working-precision words and  1481 shell-pairs
 PRISM was handed    33510844 working-precision words and  1481 shell-pairs
 PRISM was handed    33510844 working-precision words and  1481 shell-pairs
 PRISM was handed    33510844 working-precision words and  1481 shell-pairs
 PRISM was handed    33510844 working-precision words and  1481 shell-pairs
 PRISM was handed    33510844 working-precision words and  1481 shell-pairs
 PRISM was handed    33510844 working-precision words and  1481 shell-pairs
 PRISM was handed    33510844 working-precision words and  1481 shell-pairs
 PRISM was handed    33510844 working-precision words and  1481 shell-pairs
 PRISM was handed    33510844 working-precision words and  1481 shell-pairs
 PRISM was handed    33510844 working-precision words and  1481 shell-pairs
 PRISM was handed    33510844 working-precision words and  1481 shell-pairs
 PRISM was handed    33510844 working-precision words and  1481 shell-pairs
 PRISM was handed    33510844 working-precision words and  1481 shell-pairs
 PRISM was handed    33510844 working-precision words and  1481 shell-pairs
 PRISM was handed    33510844 working-precision words and  1481 shell-pairs
 PRISM was handed    33510844 working-precision words and  1481 shell-pairs
 PRISM was handed    33510844 working-precision words and  1481 shell-pairs
 PRISM was handed    33510844 working-precision words and  1481 shell-pairs
 IPart=  7 NShTot=         525 NBatch=          75 AvBLen=         7.0
 IPart=  1 NShTot=         714 NBatch=         102 AvBLen=         7.0
 IPart= 11 NShTot=         455 NBatch=          65 AvBLen=         7.0
 IPart= 10 NShTot=         469 NBatch=          67 AvBLen=         7.0
 IPart= 18 NShTot=         420 NBatch=          60 AvBLen=         7.0
 IPart= 12 NShTot=         455 NBatch=          65 AvBLen=         7.0
 IPart=  8 NShTot=         511 NBatch=          73 AvBLen=         7.0
 IPart= 15 NShTot=         434 NBatch=          62 AvBLen=         7.0
 IPart= 14 NShTot=         448 NBatch=          64 AvBLen=         7.0
 IPart=  2 NShTot=         672 NBatch=          96 AvBLen=         7.0
 IPart=  6 NShTot=         532 NBatch=          76 AvBLen=         7.0
 IPart= 17 NShTot=         434 NBatch=          62 AvBLen=         7.0
 IPart=  0 NShTot=         777 NBatch=         111 AvBLen=         7.0
 IPart= 13 NShTot=         455 NBatch=          65 AvBLen=         7.0
 IPart= 19 NShTot=         420 NBatch=          60 AvBLen=         7.0
 IPart= 16 NShTot=         434 NBatch=          62 AvBLen=         7.0
 IPart=  9 NShTot=         490 NBatch=          70 AvBLen=         7.0
 IPart=  4 NShTot=         581 NBatch=          83 AvBLen=         7.0
 IPart=  3 NShTot=         595 NBatch=          85 AvBLen=         7.0
 IPart=  5 NShTot=         546 NBatch=          78 AvBLen=         7.0
 PrSmSu:  NxtVal=            101.
 Polarizability after L701:
                1             2             3 
      1  0.000000D+00
      2  0.000000D+00  0.000000D+00
      3  0.000000D+00  0.000000D+00  0.000000D+00
 Dipole Derivatives after L701:
                 1             2             3             4             5 
      1  -0.173532D-01  0.104001D+00 -0.114407D-01 -0.500139D+00 -0.387783D+00
      2  -0.128561D+00 -0.739072D-01 -0.181117D-01 -0.440169D-01 -0.295193D+00
      3  -0.621520D-01 -0.435782D-01 -0.796667D-01  0.153278D+00  0.160484D+00
                 6             7             8             9            10 
      1   0.608366D+00 -0.887101D+00  0.909347D-01  0.969580D-02  0.981141D-01
      2   0.243890D+00  0.284426D-01 -0.752908D+00 -0.445304D-01 -0.519926D-01
      3  -0.667782D+00 -0.265001D-01 -0.342834D-01 -0.756809D+00 -0.102205D-01
                11            12            13            14            15 
      1  -0.242196D+00  0.163379D+00  0.735601D+00  0.441565D+00  0.819490D-01
      2   0.303902D+00 -0.207830D+00  0.192416D+00  0.258038D+00  0.316547D-01
      3  -0.194862D+00  0.316231D+00  0.478001D-01  0.390622D-01  0.890779D-01
                16            17            18            19            20 
      1   0.152629D+00 -0.228293D+00 -0.278002D+00  0.418249D+00  0.221772D+00
      2  -0.655063D-01  0.232492D+00  0.192399D+00  0.692188D-01  0.327577D+00
      3  -0.255230D-01  0.170839D+00  0.453499D+00 -0.766821D-01 -0.976615D-01
                21 
      1  -0.573946D+00
      2  -0.197472D+00
      3   0.645451D+00
 Hessian after L701:
                1             2             3             4             5 
      1  0.169911D+01
      2 -0.907587D+00  0.871166D+01
      3 -0.544751D+00 -0.799943D+00  0.130354D+02
      4 -0.504674D+00  0.414703D+01  0.835632D+00  0.387059D+01
      5  0.414699D+01 -0.386394D+01  0.712545D+00 -0.459744D+01  0.865609D+01
      6  0.877327D+00  0.747125D+00 -0.660188D+01 -0.585422D-01  0.484657D+00
      7 -0.102312D+01 -0.356347D+01 -0.279652D+00  0.639139D+00 -0.196510D+00
      8 -0.353861D+01 -0.486089D+01  0.277638D+00 -0.135703D+00 -0.359335D+00
      9 -0.252054D+00  0.257097D+00 -0.749914D+01  0.169028D+00  0.356014D-02
     10 -0.848379D-01  0.187159D+00  0.132674D+00  0.255837D-01 -0.393227D-01
     11  0.145142D+00 -0.193498D-01 -0.252697D+00 -0.416936D-01 -0.295752D-01
     12  0.880335D-01 -0.185681D+00  0.378403D+00  0.265983D-01 -0.224398D-01
     13  0.590657D-01  0.643338D-01  0.162760D-01  0.185818D+00  0.892163D-01
     14  0.122281D+00  0.122642D-01  0.107354D-01  0.932958D-01 -0.290289D-01
     15  0.238955D-01  0.768275D-02 -0.240261D-01  0.282344D-01  0.947546D-02
     16 -0.500713D-01  0.163447D+00 -0.110723D+00  0.123772D+00 -0.344866D-01
     17  0.101511D+00 -0.661710D-01  0.135858D+00 -0.439595D-01 -0.526777D-01
     18 -0.989109D-01  0.902754D-01  0.389337D+00 -0.684200D-01  0.223018D-01
     19 -0.954728D-01 -0.909042D-01 -0.494573D-01 -0.434023D+01  0.631555D+00
     20 -0.697254D-01  0.864208D-01 -0.841368D-01  0.578478D+00 -0.432154D+01
     21 -0.935407D-01 -0.116556D+00  0.321899D+00 -0.932531D+00 -0.121010D+01
                6             7             8             9            10 
      6  0.870186D+01
      7  0.202149D+00  0.790702D+01
      8 -0.340307D-03  0.320635D+01  0.118901D+02
      9 -0.285385D+00  0.141101D+00 -0.236850D+00  0.140707D+02
     10 -0.382614D-02 -0.291516D+01 -0.224309D+00  0.214008D+00  0.263210D+01
     11 -0.755406D-02 -0.125683D+00 -0.188782D+01 -0.105538D+01  0.174981D+00
     12 -0.581830D-01  0.120153D+00 -0.103215D+01 -0.191138D+01 -0.368895D+00
     13  0.391131D-01 -0.164917D+01  0.927074D+00  0.175051D+00  0.351909D-01
     14  0.142280D-01  0.835646D+00 -0.229031D+01  0.113088D+00 -0.822895D-01
     15 -0.569743D-01  0.166486D+00  0.118167D+00 -0.289904D+01  0.554952D-01
     16 -0.522947D-02 -0.296970D+01 -0.239873D+00 -0.415315D+00  0.196656D+00
     17  0.153988D-02 -0.168504D+00 -0.247436D+01  0.929484D+00 -0.630663D-02
     18 -0.662448D-01 -0.291034D+00  0.890482D+00 -0.149392D+01 -0.629601D-02
     19 -0.105099D+01  0.110007D-01  0.507283D-02 -0.318193D-01  0.110473D+00
     20 -0.123966D+01  0.121754D-01 -0.173846D-01 -0.109982D-01 -0.991209D-02
     21 -0.163320D+01 -0.592038D-01 -0.169487D-01  0.181846D-01 -0.231607D-01
               11            12            13            14            15 
     11  0.185169D+01
     12  0.111665D+01  0.195377D+01
     13 -0.998799D-01  0.577762D-01  0.132655D+01
     14 -0.864861D-01  0.738589D-01 -0.913075D+00  0.242918D+01
     15  0.849853D-01  0.444891D-01 -0.203333D+00 -0.107933D+00  0.295446D+01
     16 -0.181410D-01  0.630861D-01  0.465311D-01 -0.572800D-01 -0.712231D-01
     17  0.207109D+00  0.472830D-01 -0.703747D-01 -0.369688D-01 -0.113115D+00
     18  0.102305D+00 -0.361702D+00 -0.758542D-01 -0.996828D-01 -0.187243D-01
     19 -0.347252D-01  0.132476D-01 -0.398340D-02  0.142216D-02  0.444496D-03
     20 -0.355663D-01  0.247564D-02  0.270531D-02  0.134574D-02  0.737187D-03
     21  0.116895D-01 -0.453958D-01 -0.902997D-02 -0.429433D-02 -0.180525D-03
               16            17            18            19            20 
     16  0.266920D+01
     17  0.186355D+00  0.242093D+01
     18  0.530268D+00 -0.100402D+01  0.154811D+01
     19 -0.163897D-01  0.127937D-02  0.102467D-01  0.433460D+01
     20 -0.213859D-04  0.213964D-02 -0.166069D-02 -0.513700D+00  0.428458D+01
     21  0.913607D-02  0.297158D-02  0.313552D-02  0.110833D+01  0.133324D+01
               21 
     21  0.133556D+01
 Leave Link  701 at Mon Sep 23 09:58:48 2019, MaxMem=   671088640 cpu:              23.2 elap:               2.9
 (Enter /shared/centos7/gaussian/g16/l702.exe)
 L702 exits ... SP integral derivatives will be done elsewhere.
 Leave Link  702 at Mon Sep 23 09:58:49 2019, MaxMem=   671088640 cpu:               1.3 elap:               0.2
 (Enter /shared/centos7/gaussian/g16/l703.exe)
 Integral derivatives from FoFJK, PRISM(SPDF).
 Compute integral second derivatives, UseDBF=F ICtDFT=           0.
 ICntrl=    100147.
 Calling FoFJK, ICntrl=    100147 FMM=F ISym2X=0 I1Cent= 0 IOpClX= 0 NMat=1 NMatS=1 NMatT=0.
 FoFJK:  IHMeth= 1 ICntrl=  100147 DoSepK=F KAlg= 0 I1Cent=           0 FoldK=F
 IRaf=         0 NMat=       1 IRICut=       1 DoRegI=T DoRafI=F ISym2E= 0 IDoP0=0 IntGTp=1.
 FoFCou: FMM=F IPFlag=           0 FMFlag=      100000 FMFlg1=         800
         NFxFlg=           0 DoJE=F BraDBF=F KetDBF=F FulRan=T
         wScrn=  0.000000 ICntrl=    100147 IOpCl=  0 I1Cent=           0 NGrid=           0
         NMat0=    1 NMatS0=      1 NMatT0=    0 NMatD0=    1 NMtDS0=    0 NMtDT0=    0
 Symmetry not used in FoFCou.
 FoFCou:  KetSym=F NOpSet=  1 NOpAb=1 NOp=  1.
 FoFCou:  CnvScl= 1.00D+00 Thresh= 1.00D-08 IAcrcy=      12.
 PrismS was handed   670941854 working-precision words and  1485 shell-pairs
 FoFCou: LinMIO=F DoNuc=F BraDBF=F KetDBF=F HaveP=T PDBF=F HaveZ=T HaveW=F
         NIJTC =      10 NIJTAt=       0 NIJTCD=       0 NIJTT =      10
         IJTBeg=       1 IJTEnd=      10 KLTBeg=       1 KLTEnd=      10
         IPTBeg=       1 IPTEnd=      10 IPTBCv=       1 IPTECv=      10
         IZTBeg=       1 IZTEnd=      10 IZTBCv=       1 IZTECv=      10
         IWTBeg=      11 IWTEnd=      10 IWTBCv=      11 IWTECv=      10
         INTBeg=       1 INTEnd=       0 IFTBCv=       1 IFTECv=      10
 NCel replicated for PrismC:     1
 CoulSu-InSpLW:  IPartL=    0 NPrtUS=   20 NPrtUL=    1 DoSpLW=F IThBeg=    0 IThEnd=   19 NThAct=   20.
 CoulSu:  IncDef=  1024 NBBP=        1103355 NTPThr=   100 NPartT=   20 Incr=         551 LDynOK=F GPUOK=T.
 CoulSu:  NPrtUS=  20 ThrOK=T IAlg=1 NPAlg=1 LenDen=           0 LWGrdD=           0 DoCopy=F ISkipM=0
          DoSpLW=F IThBeg=    0 IThEnd=   19.
 Enter PrismC:  IPart=  0 JobTyp=22 DoJE=F Cont=F.
 PrismC:  IPart=     0 DynPar=T LinDyn=F Incr=         551 UseFst=F UseS4=T ISplat=2.
 PrismC was handed    33511676 working-precision words and  1485 shell-pairs
 Enter PrismC:  IPart=  4 JobTyp=22 DoJE=F Cont=F.
 Enter PrismC:  IPart= 12 JobTyp=22 DoJE=F Cont=F.
 Enter PrismC:  IPart= 11 JobTyp=22 DoJE=F Cont=F.
 PrismC:  IPart=     4 DynPar=T LinDyn=F Incr=         551 UseFst=F UseS4=T ISplat=2.
 PrismC:  IPart=    12 DynPar=T LinDyn=F Incr=         551 UseFst=F UseS4=T ISplat=2.
 PrismC was handed    33511676 working-precision words and  1485 shell-pairs
 PrismC was handed    33511676 working-precision words and  1485 shell-pairs
 PrismC:  IPart=    11 DynPar=T LinDyn=F Incr=         551 UseFst=F UseS4=T ISplat=2.
 Enter PrismC:  IPart=  9 JobTyp=22 DoJE=F Cont=F.
 PrismC was handed    33511676 working-precision words and  1485 shell-pairs
 Enter PrismC:  IPart= 18 JobTyp=22 DoJE=F Cont=F.
 PrismC:  IPart=     9 DynPar=T LinDyn=F Incr=         551 UseFst=F UseS4=T ISplat=2.
 PrismC was handed    33511676 working-precision words and  1485 shell-pairs
 PrismC:  IPart=    18 DynPar=T LinDyn=F Incr=         551 UseFst=F UseS4=T ISplat=2.
 PrismC was handed    33511676 working-precision words and  1485 shell-pairs
 Enter PrismC:  IPart= 19 JobTyp=22 DoJE=F Cont=F.
 Enter PrismC:  IPart=  7 JobTyp=22 DoJE=F Cont=F.
 PrismC:  IPart=    19 DynPar=T LinDyn=F Incr=         551 UseFst=F UseS4=T ISplat=2.
 PrismC was handed    33511676 working-precision words and  1485 shell-pairs
 PrismC:  IPart=     7 DynPar=T LinDyn=F Incr=         551 UseFst=F UseS4=T ISplat=2.
 PrismC was handed    33511676 working-precision words and  1485 shell-pairs
 Enter PrismC:  IPart=  5 JobTyp=22 DoJE=F Cont=F.
 PrismC:  IPart=     5 DynPar=T LinDyn=F Incr=         551 UseFst=F UseS4=T ISplat=2.
 PrismC was handed    33511676 working-precision words and  1485 shell-pairs
 Enter PrismC:  IPart= 17 JobTyp=22 DoJE=F Cont=F.
 PrismC:  IPart=    17 DynPar=T LinDyn=F Incr=         551 UseFst=F UseS4=T ISplat=2.
 Enter PrismC:  IPart= 14 JobTyp=22 DoJE=F Cont=F.
 PrismC was handed    33511676 working-precision words and  1485 shell-pairs
 PrismC:  IPart=    14 DynPar=T LinDyn=F Incr=         551 UseFst=F UseS4=T ISplat=2.
 Enter PrismC:  IPart= 10 JobTyp=22 DoJE=F Cont=F.
 PrismC was handed    33511676 working-precision words and  1485 shell-pairs
 Enter PrismC:  IPart=  3 JobTyp=22 DoJE=F Cont=F.
 PrismC:  IPart=    10 DynPar=T LinDyn=F Incr=         551 UseFst=F UseS4=T ISplat=2.
 PrismC was handed    33511676 working-precision words and  1485 shell-pairs
 PrismC:  IPart=     3 DynPar=T LinDyn=F Incr=         551 UseFst=F UseS4=T ISplat=2.
 PrismC was handed    33511676 working-precision words and  1485 shell-pairs
 Enter PrismC:  IPart=  8 JobTyp=22 DoJE=F Cont=F.
 Enter PrismC:  IPart= 16 JobTyp=22 DoJE=F Cont=F.
 PrismC:  IPart=     8 DynPar=T LinDyn=F Incr=         551 UseFst=F UseS4=T ISplat=2.
 Enter PrismC:  IPart=  6 JobTyp=22 DoJE=F Cont=F.
 PrismC was handed    33511676 working-precision words and  1485 shell-pairs
 PrismC:  IPart=    16 DynPar=T LinDyn=F Incr=         551 UseFst=F UseS4=T ISplat=2.
 PrismC:  IPart=     6 DynPar=T LinDyn=F Incr=         551 UseFst=F UseS4=T ISplat=2.
 PrismC was handed    33511676 working-precision words and  1485 shell-pairs
 PrismC was handed    33511676 working-precision words and  1485 shell-pairs
 Enter PrismC:  IPart= 13 JobTyp=22 DoJE=F Cont=F.
 Enter PrismC:  IPart=  2 JobTyp=22 DoJE=F Cont=F.
 PrismC:  IPart=    13 DynPar=T LinDyn=F Incr=         551 UseFst=F UseS4=T ISplat=2.
 PrismC:  IPart=     2 DynPar=T LinDyn=F Incr=         551 UseFst=F UseS4=T ISplat=2.
 PrismC was handed    33511676 working-precision words and  1485 shell-pairs
 PrismC was handed    33511676 working-precision words and  1485 shell-pairs
 Enter PrismC:  IPart=  1 JobTyp=22 DoJE=F Cont=F.
 PrismC:  IPart=     1 DynPar=T LinDyn=F Incr=         551 UseFst=F UseS4=T ISplat=2.
 PrismC was handed    33511676 working-precision words and  1485 shell-pairs
 Enter PrismC:  IPart= 15 JobTyp=22 DoJE=F Cont=F.
 PrismC:  IPart=    15 DynPar=T LinDyn=F Incr=         551 UseFst=F UseS4=T ISplat=2.
 PrismC was handed    33511676 working-precision words and  1485 shell-pairs
 IPart=  9 NShTot=       68045 NShNF=       68045 NShFF=           0 MinMC=       7
           NShCPU=       68045 NBCPU=        2794 AvBCPU=        24.4
           NShGPU=           0 NBGPU=           0 AvBGPU=         0.0
 IPart= 19 NShTot=       47683 NShNF=       47683 NShFF=           0 MinMC=       7
           NShCPU=       47683 NBCPU=        1988 AvBCPU=        24.0
           NShGPU=           0 NBGPU=           0 AvBGPU=         0.0
 IPart=  0 NShTot=       59331 NShNF=       59331 NShFF=           0 MinMC=       7
           NShCPU=       59331 NBCPU=        2543 AvBCPU=        23.3
           NShGPU=           0 NBGPU=           0 AvBGPU=         0.0
 IPart= 10 NShTot=       30983 NShNF=       30983 NShFF=           0 MinMC=       7
           NShCPU=       30983 NBCPU=        1211 AvBCPU=        25.6
           NShGPU=           0 NBGPU=           0 AvBGPU=         0.0
 IPart= 11 NShTot=       27515 NShNF=       27515 NShFF=           0 MinMC=       7
           NShCPU=       27515 NBCPU=        1289 AvBCPU=        21.3
           NShGPU=           0 NBGPU=           0 AvBGPU=         0.0
 IPart=  7 NShTot=       64685 NShNF=       64685 NShFF=           0 MinMC=       7
           NShCPU=       64685 NBCPU=        2562 AvBCPU=        25.2
           NShGPU=           0 NBGPU=           0 AvBGPU=         0.0
 IPart=  8 NShTot=       30608 NShNF=       30608 NShFF=           0 MinMC=       7
           NShCPU=       30608 NBCPU=        1330 AvBCPU=        23.0
           NShGPU=           0 NBGPU=           0 AvBGPU=         0.0
 IPart=  2 NShTot=       50088 NShNF=       50088 NShFF=           0 MinMC=       7
           NShCPU=       50088 NBCPU=        1902 AvBCPU=        26.3
           NShGPU=           0 NBGPU=           0 AvBGPU=         0.0
 IPart= 12 NShTot=       58881 NShNF=       58881 NShFF=           0 MinMC=       7
           NShCPU=       58881 NBCPU=        2622 AvBCPU=        22.5
           NShGPU=           0 NBGPU=           0 AvBGPU=         0.0
 IPart=  3 NShTot=       43609 NShNF=       43609 NShFF=           0 MinMC=       7
           NShCPU=       43609 NBCPU=        1881 AvBCPU=        23.2
           NShGPU=           0 NBGPU=           0 AvBGPU=         0.0
 IPart=  5 NShTot=       34912 NShNF=       34912 NShFF=           0 MinMC=       7
           NShCPU=       34912 NBCPU=        1562 AvBCPU=        22.4
           NShGPU=           0 NBGPU=           0 AvBGPU=         0.0
 IPart=  1 NShTot=       60440 NShNF=       60440 NShFF=           0 MinMC=       7
           NShCPU=       60440 NBCPU=        2747 AvBCPU=        22.0
           NShGPU=           0 NBGPU=           0 AvBGPU=         0.0
 IPart= 17 NShTot=       29145 NShNF=       29145 NShFF=           0 MinMC=       7
           NShCPU=       29145 NBCPU=        1303 AvBCPU=        22.4
           NShGPU=           0 NBGPU=           0 AvBGPU=         0.0
 IPart= 18 NShTot=       42895 NShNF=       42895 NShFF=           0 MinMC=       7
           NShCPU=       42895 NBCPU=        1906 AvBCPU=        22.5
           NShGPU=           0 NBGPU=           0 AvBGPU=         0.0
 IPart=  4 NShTot=       27470 NShNF=       27470 NShFF=           0 MinMC=       7
           NShCPU=       27470 NBCPU=        1513 AvBCPU=        18.2
           NShGPU=           0 NBGPU=           0 AvBGPU=         0.0
 IPart=  6 NShTot=       61893 NShNF=       61893 NShFF=           0 MinMC=       7
           NShCPU=       61893 NBCPU=        2772 AvBCPU=        22.3
           NShGPU=           0 NBGPU=           0 AvBGPU=         0.0
 IPart= 13 NShTot=       65859 NShNF=       65859 NShFF=           0 MinMC=       7
           NShCPU=       65859 NBCPU=        2714 AvBCPU=        24.3
           NShGPU=           0 NBGPU=           0 AvBGPU=         0.0
 IPart= 15 NShTot=       56777 NShNF=       56777 NShFF=           0 MinMC=       7
           NShCPU=       56777 NBCPU=        2382 AvBCPU=        23.8
           NShGPU=           0 NBGPU=           0 AvBGPU=         0.0
 IPart= 16 NShTot=       65951 NShNF=       65951 NShFF=           0 MinMC=       7
           NShCPU=       65951 NBCPU=        2903 AvBCPU=        22.7
           NShGPU=           0 NBGPU=           0 AvBGPU=         0.0
 IPart= 14 NShTot=       30563 NShNF=       30563 NShFF=           0 MinMC=       7
           NShCPU=       30563 NBCPU=        1433 AvBCPU=        21.3
           NShGPU=           0 NBGPU=           0 AvBGPU=         0.0
 CoulSu:  NxtVal=        1181345 LenVP=       33511677 MinMC=       7.
 ReadGW:  IGet=0 IStart=           1 Next=           1 LGW=           0.
 Remaining memory in FofDFT      639.97 Mw
 CkSvGd:  ISavGI=        -1 IRadAn=       5 IRASav=       5 ISavGd=        -1.
 CalDSu-InSpLW:  IPartL=    0 NPrtUS=   20 NPrtUL=    1 DoSpLW=F IThBeg=    0 IThEnd=   19 NThAct=   20.
 CalDSu:  NPrtUS=  20 ThrOK=T IAlg=1 NPAlg=2 DoDPD=T LenP=       13695 LenD1P=             0 GPUOK=F
          ISkipM=0 DoSpLW=F IThBeg=    0 IThEnd=   19.
 IPart=  0 IRanGd=          0 ScrnBf=T ScrnGd=T RCrit=4.00D+00 DoMicB=T.
 IPart= 14         5823 of         6560 points in       8 batches and       44 microbatches, Max-NSigAt=       7 Max-NSgAt2=       7
 IPart= 16        10093 of        10950 points in      10 batches and       54 microbatches, Max-NSigAt=       7 Max-NSgAt2=       7
 IPart=  9         8174 of         8450 points in       7 batches and       43 microbatches, Max-NSigAt=       7 Max-NSgAt2=       7
 IPart=  3         6864 of         7262 points in       7 batches and       31 microbatches, Max-NSigAt=       7 Max-NSgAt2=       7
 IPart= 18         6210 of         6532 points in       7 batches and       39 microbatches, Max-NSigAt=       7 Max-NSgAt2=       7
 IPart= 17         5590 of         5984 points in       5 batches and       48 microbatches, Max-NSigAt=       7 Max-NSgAt2=       7
 IPart=  7         9038 of         9516 points in       8 batches and       26 microbatches, Max-NSigAt=       7 Max-NSgAt2=       7
 IPart= 13         8205 of         8906 points in      10 batches and       76 microbatches, Max-NSigAt=       7 Max-NSgAt2=       7
 IPart=  6         8442 of         8808 points in       7 batches and       43 microbatches, Max-NSigAt=       7 Max-NSgAt2=       7
 IPart=  0         8045 of         8308 points in       6 batches and       27 microbatches, Max-NSigAt=       7 Max-NSgAt2=       7
 IPart= 12         8120 of         8618 points in       7 batches and       48 microbatches, Max-NSigAt=       7 Max-NSgAt2=       7
 IPart=  8         5741 of         6434 points in       6 batches and       35 microbatches, Max-NSigAt=       7 Max-NSgAt2=       7
 IPart= 15         6519 of         7136 points in       8 batches and       58 microbatches, Max-NSigAt=       7 Max-NSgAt2=       7
 IPart=  4         4925 of         5408 points in       5 batches and       42 microbatches, Max-NSigAt=       7 Max-NSgAt2=       7
 IPart=  2         7741 of         8420 points in       8 batches and       32 microbatches, Max-NSigAt=       7 Max-NSgAt2=       7
 IPart= 11         5361 of         5956 points in       7 batches and       66 microbatches, Max-NSigAt=       7 Max-NSgAt2=       7
 IPart=  1        12150 of        13444 points in      12 batches and       61 microbatches, Max-NSigAt=       7 Max-NSgAt2=       7
 IPart= 10         5363 of         5486 points in       4 batches and       18 microbatches, Max-NSigAt=       7 Max-NSgAt2=       7
 IPart= 19         7671 of         8098 points in       6 batches and       45 microbatches, Max-NSigAt=       7 Max-NSgAt2=       7
 IPart=  5         5611 of         5984 points in       5 batches and       39 microbatches, Max-NSigAt=       7 Max-NSgAt2=       7
 Polarizability after L703:
                1             2             3 
      1  0.000000D+00
      2  0.000000D+00  0.000000D+00
      3  0.000000D+00  0.000000D+00  0.000000D+00
 Dipole Derivatives after L703:
                 1             2             3             4             5 
      1  -0.173532D-01  0.104001D+00 -0.114407D-01 -0.500139D+00 -0.387783D+00
      2  -0.128561D+00 -0.739072D-01 -0.181117D-01 -0.440169D-01 -0.295193D+00
      3  -0.621520D-01 -0.435782D-01 -0.796667D-01  0.153278D+00  0.160484D+00
                 6             7             8             9            10 
      1   0.608366D+00 -0.887101D+00  0.909347D-01  0.969580D-02  0.981141D-01
      2   0.243890D+00  0.284426D-01 -0.752908D+00 -0.445304D-01 -0.519926D-01
      3  -0.667782D+00 -0.265001D-01 -0.342834D-01 -0.756809D+00 -0.102205D-01
                11            12            13            14            15 
      1  -0.242196D+00  0.163379D+00  0.735601D+00  0.441565D+00  0.819490D-01
      2   0.303902D+00 -0.207830D+00  0.192416D+00  0.258038D+00  0.316547D-01
      3  -0.194862D+00  0.316231D+00  0.478001D-01  0.390622D-01  0.890779D-01
                16            17            18            19            20 
      1   0.152629D+00 -0.228293D+00 -0.278002D+00  0.418249D+00  0.221772D+00
      2  -0.655063D-01  0.232492D+00  0.192399D+00  0.692188D-01  0.327577D+00
      3  -0.255230D-01  0.170839D+00  0.453499D+00 -0.766821D-01 -0.976615D-01
                21 
      1  -0.573946D+00
      2  -0.197472D+00
      3   0.645451D+00
 Hessian after L703:
                1             2             3             4             5 
      1  0.666249D+00
      2  0.125344D+00  0.453540D+00
      3  0.179543D-01  0.391261D-01  0.595682D-01
      4 -0.360103D+00 -0.216637D+00 -0.602658D-01  0.468810D+00
      5 -0.284380D+00 -0.216496D+00 -0.531326D-01  0.291692D+00  0.241501D+00
      6 -0.271678D-01 -0.216665D-01 -0.344295D-01 -0.121686D-02 -0.482705D-01
      7 -0.213716D+00  0.839785D-01  0.620025D-02 -0.662868D-01  0.115031D-01
      8  0.148537D+00 -0.183550D+00 -0.103202D-01 -0.505828D-01  0.106976D-01
      9  0.128253D-01 -0.140029D-01 -0.626811D-01 -0.124581D-01  0.622109D-02
     10 -0.152950D-01  0.314263D-01 -0.247737D-01  0.720441D-02  0.265882D-02
     11  0.117558D-01 -0.240925D-01  0.160982D-01 -0.109228D-02  0.366832D-02
     12 -0.496876D-02  0.246082D-02  0.930033D-02 -0.105532D-02 -0.323815D-02
     13 -0.250516D-01 -0.220450D-01 -0.400650D-02 -0.795908D-02  0.350698D-02
     14  0.149409D-01  0.133528D-01  0.268100D-02  0.643800D-02  0.216528D-02
     15  0.987793D-03  0.842193D-03 -0.862905D-03  0.665916D-03 -0.274879D-03
     16 -0.177571D-01  0.262088D-01  0.293425D-01  0.687022D-02  0.104774D-02
     17  0.124266D-01 -0.177770D-01 -0.220790D-01 -0.131278D-02  0.278184D-02
     18  0.569924D-02 -0.502360D-02  0.698538D-02 -0.455026D-04  0.190211D-02
     19 -0.343266D-01 -0.282757D-01  0.355490D-01 -0.485362D-01 -0.260287D-01
     20 -0.286247D-01 -0.249770D-01  0.276265D-01 -0.285052D-01 -0.443173D-01
     21 -0.533008D-02 -0.173604D-02  0.221195D-01  0.743756D-01  0.967930D-01
                6             7             8             9            10 
      6  0.424159D+00
      7 -0.426595D-02  0.577203D+00
      8  0.506652D-02  0.264813D-01  0.577375D+00
      9  0.127516D-03  0.138824D-02  0.116428D-01  0.537380D+00
     10 -0.125352D-02 -0.541607D-01 -0.100973D-01  0.805232D-02  0.586771D-01
     11 -0.391519D-02 -0.363486D-02 -0.149121D+00  0.108886D+00 -0.707771D-02
     12  0.119278D-02  0.655253D-02  0.110746D+00 -0.180994D+00 -0.218751D-02
     13  0.634657D-03 -0.189330D+00 -0.108411D+00 -0.214311D-01  0.160819D-02
     14 -0.109474D-03 -0.124881D+00 -0.158354D+00 -0.202331D-01 -0.142904D-01
     15  0.167970D-02 -0.232817D-01 -0.196045D-01 -0.558306D-01  0.182762D-01
     16  0.595577D-03 -0.535414D-01 -0.223061D-03  0.598616D-02  0.185786D-02
     17  0.274031D-02  0.618516D-02 -0.991597D-01 -0.899238D-01 -0.208423D-02
     18  0.100910D-02  0.119201D-01 -0.936124D-01 -0.239744D+00  0.000000D+00
     19  0.326739D-01 -0.167892D-03 -0.570398D-02  0.563718D-02  0.108168D-03
     20  0.661549D-01  0.367778D-03  0.211248D-02 -0.259016D-02 -0.535486D-03
     21 -0.393739D+00  0.148652D-02 -0.391786D-02  0.174189D-02  0.188566D-02
               11            12            13            14            15 
     11  0.170618D+00
     12 -0.126446D+00  0.189791D+00
     13 -0.678433D-03  0.631520D-03  0.217620D+00
     14 -0.115026D-01 -0.388121D-02  0.126465D+00  0.162272D+00
     15  0.146905D-01  0.358405D-02  0.252287D-01  0.213802D-01  0.530283D-01
     16 -0.677315D-03  0.241721D-02  0.353682D-02 -0.948598D-02 -0.211811D-01
     17  0.101758D-01  0.193173D-01  0.923566D-03 -0.774153D-02 -0.173825D-01
     18 -0.101056D-01 -0.214224D-01 -0.520567D-03  0.237925D-04 -0.164535D-02
     19  0.140477D-02 -0.138967D-02 -0.424118D-03  0.813738D-03 -0.695752D-03
     20  0.253136D-03  0.104203D-02  0.239588D-03 -0.191807D-03  0.348922D-03
     21  0.792224D-03 -0.145124D-02 -0.536642D-03  0.138766D-03  0.467309D-04
               16            17            18            19            20 
     16  0.593479D-01
     17 -0.165069D-01  0.112176D+00
     18 -0.167701D-01  0.106777D+00  0.255571D+00
     19 -0.314302D-03  0.368566D-03 -0.283797D-03  0.836609D-01
     20 -0.363274D-03 -0.455817D-03  0.384239D-04  0.574213D-01  0.675763D-01
     21 -0.390214D-03  0.550499D-03 -0.754004D-03 -0.714909D-01 -0.926206D-01
               21 
     21  0.372036D+00
 Leave Link  703 at Mon Sep 23 09:59:47 2019, MaxMem=   671088640 cpu:             470.7 elap:              58.9
 (Enter /shared/centos7/gaussian/g16/l716.exe)
 FrcOut:
 IF    =       208 IFX   =       229 IFXYZ =       250
 IFFX  =       271 IFFFX =       502 IFLen =        21
 IFFLen=       231 IFFFLn=         0 IEDerv=       502
 LEDerv=      1061 IFroze=      1835 ICStrt=     44845
 Dipole        = 3.74271806D-01-4.69016309D-01 5.54172719D-01
 DipoleDeriv   =-1.73532143D-02-1.28561281D-01-6.21520297D-02
                 1.04000580D-01-7.39072106D-02-4.35782172D-02
                -1.14406811D-02-1.81117297D-02-7.96667204D-02
                -5.00138672D-01-4.40169082D-02 1.53277607D-01
                -3.87782947D-01-2.95193128D-01 1.60483755D-01
                 6.08365746D-01 2.43889754D-01-6.67782400D-01
                -8.87100509D-01 2.84425757D-02-2.65000596D-02
                 9.09347410D-02-7.52908248D-01-3.42833620D-02
                 9.69579690D-03-4.45304390D-02-7.56808582D-01
                 9.81141499D-02-5.19926448D-02-1.02205115D-02
                -2.42196106D-01 3.03901736D-01-1.94861889D-01
                 1.63378682D-01-2.07829582D-01 3.16230597D-01
                 7.35600982D-01 1.92415748D-01 4.78000690D-02
                 4.41565007D-01 2.58037702D-01 3.90622399D-02
                 8.19490004D-02 3.16547448D-02 8.90779195D-02
                 1.52628555D-01-6.55063308D-02-2.55229678D-02
                -2.28293044D-01 2.32492119D-01 1.70839010D-01
                -2.78002051D-01 1.92399338D-01 4.53498647D-01
                 4.18248708D-01 6.92188419D-02-7.66821075D-02
                 2.21771769D-01 3.27577030D-01-9.76615374D-02
                -5.73946493D-01-1.97472086D-01 6.45450539D-01
 Polarizability= 0.00000000D+00 0.00000000D+00 0.00000000D+00
                 0.00000000D+00 0.00000000D+00 0.00000000D+00
 Quadrupole    = 8.80985488D-01-1.12349364D+00 2.42508154D-01
                 6.29268162D-01-1.73732591D+00-6.65343711D-01
 Forces in standard orientation:
 -------------------------------------------------------------------
 Center     Atomic                   Forces (Hartrees/Bohr)
 Number     Number              X              Y              Z
 -------------------------------------------------------------------
      1        8          -0.065021135   -0.070591217   -0.010682371
      2        8           0.081200257    0.063835507   -0.012521872
      3        6          -0.027739966    0.015863112    0.002593850
      4        1           0.001202932   -0.005154172    0.003779191
      5        1           0.008537296    0.003637050    0.000656626
      6        1           0.002293264   -0.003860640   -0.005771298
      7        1          -0.000472647   -0.003729641    0.021945874
 -------------------------------------------------------------------
 Cartesian Forces:  Max     0.081200257 RMS     0.032260967
 ***** Axes restored to original set *****
 Rotating derivatives, DoTrsp=F IDiff=-2 LEDeriv=   1060 LFDPrp=       0 LDFDPr=       0.
 -------------------------------------------------------------------
 Center     Atomic                   Forces (Hartrees/Bohr)
 Number     Number              X              Y              Z
 -------------------------------------------------------------------
      1        8          -0.061474795   -0.074468307    0.000549297
      2        8           0.079661775    0.063997198    0.019585998
      3        6          -0.028394039    0.014647858    0.002662884
      4        1           0.001079530   -0.004220171   -0.004829036
      5        1           0.008326820    0.004118538   -0.000496415
      6        1           0.002875092   -0.004824078    0.004683332
      7        1          -0.002074383    0.000748963   -0.022156060
 -------------------------------------------------------------------
 Cartesian Forces:  Max     0.079661775 RMS     0.032260967
 Force constants in Cartesian coordinates: 
                1             2             3             4             5 
      1  0.650893D+00
      2  0.139075D+00  0.466178D+00
      3 -0.360690D-01  0.325234D-01  0.622871D-01
      4 -0.333829D+00 -0.230646D+00  0.362324D-01  0.447929D+00
      5 -0.287800D+00 -0.249689D+00  0.352014D-01  0.296049D+00  0.259077D+00
      6 -0.821233D-02 -0.265144D-02 -0.275101D-01  0.586830D-01 -0.958802D-02
      7 -0.222373D+00  0.804987D-01  0.228348D-01 -0.630751D-01  0.629498D-02
      8  0.144625D+00 -0.171907D+00 -0.242171D-01 -0.559155D-01  0.102115D-01
      9  0.291748D-01 -0.156796D-01 -0.656673D-01  0.651048D-02 -0.402138D-02
     10 -0.142597D-01  0.252591D-01  0.329729D-01  0.727023D-02  0.283957D-02
     11  0.915013D-02 -0.172386D-01 -0.210725D-01 -0.734534D-03  0.222066D-02
     12  0.895234D-02 -0.972988D-02  0.141114D-02  0.318061D-03  0.328107D-02
     13 -0.243602D-01 -0.240962D-01  0.111309D-02 -0.833529D-02  0.305476D-02
     14  0.129065D-01  0.129942D-01 -0.665179D-03  0.591112D-02  0.254571D-02
     15  0.358626D-02  0.391417D-02 -0.119569D-02  0.134063D-02  0.172732D-03
     16 -0.217762D-01  0.315369D-01 -0.218960D-01  0.680738D-02  0.120951D-02
     17  0.144404D-01 -0.198620D-01  0.139057D-01 -0.128517D-02  0.362759D-02
     18 -0.688446D-03 -0.335079D-02  0.130894D-01 -0.619972D-03 -0.146103D-02
     19 -0.342945D-01 -0.216271D-01 -0.351881D-01 -0.567672D-01 -0.216479D-01
     20 -0.323970D-01 -0.204750D-01 -0.356757D-01 -0.133786D-01 -0.279925D-01
     21  0.325639D-02 -0.502587D-02  0.175855D-01 -0.102465D+00 -0.235848D-01
                6             7             8             9            10 
      6  0.427465D+00
      7  0.109463D-01  0.574961D+00
      8  0.174747D-02  0.256809D-01  0.582968D+00
      9 -0.259804D-02  0.125748D-02 -0.440794D-02  0.534028D+00
     10  0.123364D-02 -0.551354D-01 -0.123102D-01 -0.170534D-01  0.597707D-01
     11  0.425879D-02 -0.617719D-02 -0.107420D+00 -0.938311D-01 -0.255990D-02
     12  0.257462D-02 -0.141911D-01 -0.951209D-01 -0.221720D+00  0.771026D-02
     13  0.789048D-03 -0.176951D+00 -0.111167D+00  0.800795D-02  0.666090D-03
     14 -0.222481D-03 -0.127581D+00 -0.174027D+00  0.730720D-02 -0.964788D-02
     15  0.167550D-02  0.653191D-02  0.544455D-02 -0.525361D-01 -0.198801D-01
     16 -0.729483D-03 -0.568797D-01  0.133083D-01 -0.213666D-01  0.165366D-02
     17 -0.213199D-02  0.205200D-01 -0.140445D+00  0.108621D+00 -0.337422D-02
     18  0.226190D-03 -0.260654D-01  0.112595D+00 -0.195120D+00 -0.292452D-02
     19 -0.627102D-01 -0.546457D-03 -0.422123D-02 -0.653074D-02  0.344547D-04
     20  0.858767D-02  0.763914D-03  0.619257D-03  0.201199D-02 -0.206561D-03
     21 -0.401833D+00 -0.131397D-02  0.395896D-02  0.361368D-02 -0.205875D-02
               11            12            13            14            15 
     11  0.120540D+00
     12  0.112723D+00  0.238776D+00
     13 -0.127428D-02 -0.809814D-03  0.203892D+00
     14 -0.927088D-02  0.198437D-02  0.130693D+00  0.179332D+00
     15 -0.182081D-01  0.229444D-02 -0.102195D-01 -0.723077D-02  0.496964D-01
     16  0.560836D-03 -0.352841D-02  0.544804D-02 -0.129082D-01  0.177563D-01
     17  0.105767D-01 -0.126034D-01  0.270597D-02 -0.115263D-01  0.162474D-01
     18  0.166826D-01 -0.216190D-01  0.516523D-03 -0.991587D-03  0.228156D-03
     19  0.103493D-02  0.154862D-02 -0.359142D-03  0.626524D-03  0.884543D-03
     20  0.592757D-03 -0.534156D-03  0.837784D-04 -0.473550D-04 -0.340030D-03
     21 -0.552670D-03 -0.171714D-02  0.602689D-03 -0.181554D-03 -0.162697D-03
               16            17            18            19            20 
     16  0.650096D-01
     17 -0.332804D-01  0.157987D+00
     18  0.294742D-01 -0.123566D+00  0.204099D+00
     19 -0.262739D-03  0.273428D-03  0.307644D-03  0.921956D-01
     20 -0.426880D-03 -0.358061D-03  0.923256D-04  0.455614D-01  0.476609D-01
     21  0.290010D-03 -0.471936D-03 -0.903321D-03  0.101688D+00  0.258579D-01
               21 
     21  0.383417D+00
 Cartesian forces in FCRed:
 I=    1 X=  -6.147479493314D-02 Y=  -7.446830736966D-02 Z=   5.492967602843D-04
 I=    2 X=   7.966177514061D-02 Y=   6.399719768130D-02 Z=   1.958599775761D-02
 I=    3 X=  -2.839403884508D-02 Y=   1.464785789881D-02 Z=   2.662883651850D-03
 I=    4 X=   1.079530047913D-03 Y=  -4.220171021919D-03 Z=  -4.829036012312D-03
 I=    5 X=   8.326819806317D-03 Y=   4.118537822551D-03 Z=  -4.964147278250D-04
 I=    6 X=   2.875091802678D-03 Y=  -4.824078393095D-03 Z=   4.683332350687D-03
 I=    7 X=  -2.074383019153D-03 Y=   7.489633821266D-04 Z=  -2.215605978025D-02
 Cartesian force constants in FCRed: 
                1             2             3             4             5 
      1  0.650893D+00
      2  0.139075D+00  0.466178D+00
      3 -0.360690D-01  0.325234D-01  0.622871D-01
      4 -0.333829D+00 -0.230646D+00  0.362324D-01  0.447929D+00
      5 -0.287800D+00 -0.249689D+00  0.352014D-01  0.296049D+00  0.259077D+00
      6 -0.821233D-02 -0.265144D-02 -0.275101D-01  0.586830D-01 -0.958802D-02
      7 -0.222373D+00  0.804987D-01  0.228348D-01 -0.630751D-01  0.629498D-02
      8  0.144625D+00 -0.171907D+00 -0.242171D-01 -0.559155D-01  0.102115D-01
      9  0.291748D-01 -0.156796D-01 -0.656673D-01  0.651048D-02 -0.402138D-02
     10 -0.142597D-01  0.252591D-01  0.329729D-01  0.727023D-02  0.283957D-02
     11  0.915013D-02 -0.172386D-01 -0.210725D-01 -0.734534D-03  0.222066D-02
     12  0.895234D-02 -0.972988D-02  0.141114D-02  0.318061D-03  0.328107D-02
     13 -0.243602D-01 -0.240962D-01  0.111309D-02 -0.833529D-02  0.305476D-02
     14  0.129065D-01  0.129942D-01 -0.665179D-03  0.591112D-02  0.254571D-02
     15  0.358626D-02  0.391417D-02 -0.119569D-02  0.134063D-02  0.172732D-03
     16 -0.217762D-01  0.315369D-01 -0.218960D-01  0.680738D-02  0.120951D-02
     17  0.144404D-01 -0.198620D-01  0.139057D-01 -0.128517D-02  0.362759D-02
     18 -0.688446D-03 -0.335079D-02  0.130894D-01 -0.619972D-03 -0.146103D-02
     19 -0.342945D-01 -0.216271D-01 -0.351881D-01 -0.567672D-01 -0.216479D-01
     20 -0.323970D-01 -0.204750D-01 -0.356757D-01 -0.133786D-01 -0.279925D-01
     21  0.325639D-02 -0.502587D-02  0.175855D-01 -0.102465D+00 -0.235848D-01
                6             7             8             9            10 
      6  0.427465D+00
      7  0.109463D-01  0.574961D+00
      8  0.174747D-02  0.256809D-01  0.582968D+00
      9 -0.259804D-02  0.125748D-02 -0.440794D-02  0.534028D+00
     10  0.123364D-02 -0.551354D-01 -0.123102D-01 -0.170534D-01  0.597707D-01
     11  0.425879D-02 -0.617719D-02 -0.107420D+00 -0.938311D-01 -0.255990D-02
     12  0.257462D-02 -0.141911D-01 -0.951209D-01 -0.221720D+00  0.771026D-02
     13  0.789048D-03 -0.176951D+00 -0.111167D+00  0.800795D-02  0.666090D-03
     14 -0.222481D-03 -0.127581D+00 -0.174027D+00  0.730720D-02 -0.964788D-02
     15  0.167550D-02  0.653191D-02  0.544455D-02 -0.525361D-01 -0.198801D-01
     16 -0.729483D-03 -0.568797D-01  0.133083D-01 -0.213666D-01  0.165366D-02
     17 -0.213199D-02  0.205200D-01 -0.140445D+00  0.108621D+00 -0.337422D-02
     18  0.226190D-03 -0.260654D-01  0.112595D+00 -0.195120D+00 -0.292452D-02
     19 -0.627102D-01 -0.546457D-03 -0.422123D-02 -0.653074D-02  0.344547D-04
     20  0.858767D-02  0.763914D-03  0.619257D-03  0.201199D-02 -0.206561D-03
     21 -0.401833D+00 -0.131397D-02  0.395896D-02  0.361368D-02 -0.205875D-02
               11            12            13            14            15 
     11  0.120540D+00
     12  0.112723D+00  0.238776D+00
     13 -0.127428D-02 -0.809814D-03  0.203892D+00
     14 -0.927088D-02  0.198437D-02  0.130693D+00  0.179332D+00
     15 -0.182081D-01  0.229444D-02 -0.102195D-01 -0.723077D-02  0.496964D-01
     16  0.560836D-03 -0.352841D-02  0.544804D-02 -0.129082D-01  0.177563D-01
     17  0.105767D-01 -0.126034D-01  0.270597D-02 -0.115263D-01  0.162474D-01
     18  0.166826D-01 -0.216190D-01  0.516523D-03 -0.991587D-03  0.228156D-03
     19  0.103493D-02  0.154862D-02 -0.359142D-03  0.626524D-03  0.884543D-03
     20  0.592757D-03 -0.534156D-03  0.837784D-04 -0.473550D-04 -0.340030D-03
     21 -0.552670D-03 -0.171714D-02  0.602689D-03 -0.181554D-03 -0.162697D-03
               16            17            18            19            20 
     16  0.650096D-01
     17 -0.332804D-01  0.157987D+00
     18  0.294742D-01 -0.123566D+00  0.204099D+00
     19 -0.262739D-03  0.273428D-03  0.307644D-03  0.921956D-01
     20 -0.426880D-03 -0.358061D-03  0.923256D-04  0.455614D-01  0.476609D-01
     21  0.290010D-03 -0.471936D-03 -0.903321D-03  0.101688D+00  0.258579D-01
               21 
     21  0.383417D+00
[...]
     14 -0.971828D-02  0.209562D-02  0.145430D+00  0.199232D+00
     15 -0.186472D-01  0.228328D-02 -0.548197D-02 -0.374358D-02  0.463452D-01
     16 -0.435402D-03 -0.201446D-02  0.504063D-02 -0.122897D-01  0.184828D-01
     17  0.113656D-01 -0.139290D-01  0.267478D-02 -0.113010D-01  0.172310D-01
     18  0.164468D-01 -0.206062D-01  0.661753D-03 -0.168229D-02  0.108697D-02
     19  0.430138D-03  0.387134D-03 -0.949914D-03  0.630594D-03  0.725625D-03
     20  0.538413D-03 -0.132263D-03 -0.530770D-03  0.563798D-03 -0.132369D-03
     21 -0.553374D-03 -0.927678D-03  0.100291D-02 -0.417333D-03 -0.282111D-03
               16            17            18            19            20 
     16  0.600885D-01
     17 -0.279019D-01  0.156450D+00
     18  0.263335D-01 -0.136636D+00  0.231799D+00
     19  0.220969D-03 -0.418952D-03  0.315829D-03  0.156456D+00
     20 -0.309270D-03 -0.899389D-04 -0.223695D-03 -0.619969D-02  0.451601D-01
     21  0.425643D-03 -0.413715D-03 -0.250235D-03  0.210137D+00 -0.763134D-01
               21 
     21  0.395601D+00
 FormGI is forming the generalized inverse of G from B-inverse, IUseBI=4.
 Force constants in internal coordinates: 
                1             2             3             4             5 
      1  0.352559D+00
      2  0.138707D-01  0.360728D+00
      3 -0.157207D-02  0.186137D-02  0.527740D+00
      4  0.207197D-02  0.158617D-01 -0.674580D-03  0.336770D+00
      5 -0.207509D-02  0.893151D-02 -0.244435D-03  0.256532D-02  0.348194D+00
      6  0.550529D-03  0.147395D-01 -0.380303D-03  0.362208D-02  0.252674D-02
      7  0.643279D-01  0.367417D-01  0.260973D-02 -0.514203D-02  0.939543D-02
      8  0.684730D-01  0.227992D-02 -0.238393D-02  0.137148D-02  0.454791D-03
      9 -0.731861D-02  0.308486D-01  0.866828D-03  0.551699D-03 -0.545909D-02
     10  0.157028D-01  0.151066D-01 -0.660892D-03 -0.451745D-02  0.706190D-02
     11 -0.768733D-02  0.327527D-01 -0.918204D-03 -0.533095D-02 -0.556429D-02
     12 -0.419607D-03 -0.249306D-01 -0.371140D-04  0.651626D-02  0.464034D-02
     13  0.266675D-03 -0.277071D-01  0.315527D-03  0.773987D-02 -0.476244D-02
     14 -0.644156D-05 -0.252906D-01  0.402216D-03 -0.551179D-02  0.477613D-02
     15 -0.321174D-02  0.394028D-02  0.302914D-02  0.118942D-02  0.621574D-03
     16  0.528463D-02 -0.443964D-02 -0.217106D-04  0.747305D-03  0.679614D-02
     17  0.309521D-03  0.165066D-03 -0.404097D-04 -0.464334D-02 -0.698715D-04
     18 -0.482954D-02  0.447343D-02  0.341330D-03  0.729246D-02 -0.696836D-02
                6             7             8             9            10 
      6  0.340935D+00
      7 -0.561567D-02  0.339046D+00
      8 -0.354403D-03  0.179884D-01  0.223442D+00
      9 -0.516814D-02 -0.138141D-01 -0.137272D-02  0.141722D+00
     10 -0.447073D-02  0.328771D-01  0.479447D-02 -0.280145D-01  0.134123D+00
     11  0.125077D-02 -0.136476D-01 -0.414197D-03 -0.337169D-01 -0.272668D-01
     12 -0.522004D-02 -0.467216D-02 -0.903927D-03 -0.356165D-01 -0.374092D-01
     13  0.708542D-02  0.397591D-02 -0.665490D-03 -0.416867D-01 -0.115479D-02
     14  0.607134D-02 -0.393050D-02 -0.128323D-02 -0.259870D-02 -0.370909D-01
     15 -0.620615D-03  0.125550D-01  0.729429D-02  0.503638D-03  0.159162D-02
     16 -0.694012D-02  0.691281D-02  0.226186D-02 -0.432514D-03  0.203256D-01
     17  0.466205D-02  0.234442D-03  0.121668D-02 -0.157063D-01  0.109475D-03
     18 -0.601037D-03 -0.713841D-02  0.169033D-03  0.211264D-01 -0.196602D-01
               11            12            13            14            15 
     11  0.140641D+00
     12 -0.272609D-02  0.680371D-01
     13 -0.413754D-01  0.422683D-02  0.727346D-01
     14 -0.352458D-01  0.340443D-02  0.384317D-02  0.678826D-01
     15 -0.231012D-03 -0.164113D-02 -0.333865D-03  0.154521D-03  0.646695D-02
     16 -0.216414D-01  0.203687D-01 -0.173783D-01  0.725637D-03 -0.123444D-03
     17  0.155074D-01 -0.199749D-01  0.154502D-03  0.200396D-01  0.627295D-03
     18  0.404764D-03 -0.863336D-03  0.176858D-01 -0.208075D-01 -0.361848D-03
               16            17            18 
     16  0.274444D-01
     17 -0.871817D-02  0.233218D-01
     18 -0.101880D-01 -0.858409D-02  0.273582D-01
 Leave Link  716 at Mon Sep 23 10:10:13 2019, MaxMem=   671088640 cpu:              15.6 elap:               2.0
 (Enter /shared/centos7/gaussian/g16/l103.exe)

 GradGradGradGradGradGradGradGradGradGradGradGradGradGradGradGradGradGrad
 Berny optimization.
 Red2BG is reusing G-inverse.
 Internal  Forces:  Max     0.000002979 RMS     0.000000926
 Search for a local minimum.
 Step number   1 out of a maximum of    2
 All quantities printed in internal units (Hartrees-Bohrs-Radians)
 Second derivative matrix not updated -- analytic derivatives used.
 The second derivative matrix:
                          R1        R2        R3        R4        R5
           R1           0.35256
           R2           0.01387   0.36073
           R3          -0.00157   0.00186   0.52774
           R4           0.00207   0.01586  -0.00067   0.33677
           R5          -0.00208   0.00893  -0.00024   0.00257   0.34819
           R6           0.00055   0.01474  -0.00038   0.00362   0.00253
           A1           0.06433   0.03674   0.00261  -0.00514   0.00940
           A2           0.06847   0.00228  -0.00238   0.00137   0.00045
           A3          -0.00732   0.03085   0.00087   0.00055  -0.00546
           A4           0.01570   0.01511  -0.00066  -0.00452   0.00706
           A5          -0.00769   0.03275  -0.00092  -0.00533  -0.00556
           A6          -0.00042  -0.02493  -0.00004   0.00652   0.00464
           A7           0.00027  -0.02771   0.00032   0.00774  -0.00476
           A8          -0.00001  -0.02529   0.00040  -0.00551   0.00478
           D1          -0.00321   0.00394   0.00303   0.00119   0.00062
           D2           0.00528  -0.00444  -0.00002   0.00075   0.00680
           D3           0.00031   0.00017  -0.00004  -0.00464  -0.00007
           D4          -0.00483   0.00447   0.00034   0.00729  -0.00697
                          R6        A1        A2        A3        A4
           R6           0.34093
           A1          -0.00562   0.33905
           A2          -0.00035   0.01799   0.22344
           A3          -0.00517  -0.01381  -0.00137   0.14172
           A4          -0.00447   0.03288   0.00479  -0.02801   0.13412
           A5           0.00125  -0.01365  -0.00041  -0.03372  -0.02727
           A6          -0.00522  -0.00467  -0.00090  -0.03562  -0.03741
           A7           0.00709   0.00398  -0.00067  -0.04169  -0.00115
           A8           0.00607  -0.00393  -0.00128  -0.00260  -0.03709
           D1          -0.00062   0.01255   0.00729   0.00050   0.00159
           D2          -0.00694   0.00691   0.00226  -0.00043   0.02033
           D3           0.00466   0.00023   0.00122  -0.01571   0.00011
           D4          -0.00060  -0.00714   0.00017   0.02113  -0.01966
                          A5        A6        A7        A8        D1
           A5           0.14064
           A6          -0.00273   0.06804
           A7          -0.04138   0.00423   0.07273
           A8          -0.03525   0.00340   0.00384   0.06788
           D1          -0.00023  -0.00164  -0.00033   0.00015   0.00647
           D2          -0.02164   0.02037  -0.01738   0.00073  -0.00012
           D3           0.01551  -0.01997   0.00015   0.02004   0.00063
           D4           0.00040  -0.00086   0.01769  -0.02081  -0.00036
                          D2        D3        D4
           D2           0.02744
           D3          -0.00872   0.02332
           D4          -0.01019  -0.00858   0.02736
 ITU=  0
     Eigenvalues ---    0.00553   0.00755   0.08457   0.08497   0.13662
     Eigenvalues ---    0.16797   0.18663   0.19386   0.28817   0.33555
     Eigenvalues ---    0.33943   0.34892   0.38021   0.45131   0.52786
 Angle between quadratic step and forces=  50.08 degrees.
 Linear search not attempted -- first point.
 Iteration  1 RMS(Cart)=  0.00000462 RMS(Int)=  0.00000000
 Iteration  2 RMS(Cart)=  0.00000000 RMS(Int)=  0.00000000
 ITry= 1 IFail=0 DXMaxC= 8.23D-06 DCOld= 1.00D+10 DXMaxT= 3.00D-01 DXLimC= 3.00D+00 Rises=F
 Variable       Old X    -DE/DX   Delta X   Delta X   Delta X     New X
                                 (Linear)    (Quad)   (Total)
    R1        2.68741   0.00000   0.00000   0.00000   0.00000   2.68741
    R2        2.66198   0.00000   0.00000   0.00001   0.00001   2.66199
    R3        1.82224   0.00000   0.00000   0.00000   0.00000   1.82224
    R4        2.06379  -0.00000   0.00000  -0.00000  -0.00000   2.06379
    R5        2.05774   0.00000   0.00000  -0.00000  -0.00000   2.05774
    R6        2.06075   0.00000   0.00000  -0.00000  -0.00000   2.06075
    A1        1.85895   0.00000   0.00000   0.00000   0.00000   1.85895
    A2        1.76981  -0.00000   0.00000  -0.00001  -0.00001   1.76981
    A3        1.94076  -0.00000   0.00000  -0.00000  -0.00000   1.94075
    A4        1.83638   0.00000   0.00000   0.00000   0.00000   1.83638
    A5        1.93313   0.00000   0.00000  -0.00000  -0.00000   1.93313
    A6        1.91814   0.00000   0.00000   0.00000   0.00000   1.91814
    A7        1.91584  -0.00000   0.00000  -0.00000  -0.00000   1.91584
    A8        1.91828   0.00000   0.00000   0.00000   0.00000   1.91828
    D1        1.95882  -0.00000   0.00000  -0.00001  -0.00001   1.95881
    D2       -1.11621   0.00000   0.00000  -0.00000  -0.00000  -1.11621
    D3        3.09112   0.00000   0.00000  -0.00000  -0.00000   3.09112
    D4        1.01908  -0.00000   0.00000  -0.00001  -0.00001   1.01907
         Item               Value     Threshold  Converged?
 Maximum Force            0.000003     0.000015     YES
 RMS     Force            0.000001     0.000010     YES
 Maximum Displacement     0.000008     0.000060     YES
 RMS     Displacement     0.000005     0.000040     YES
 Predicted change in Energy=-2.359306D-11
 Optimization completed.
    -- Stationary point found.
                           ----------------------------
                           !   Optimized Parameters   !
                           ! (Angstroms and Degrees)  !
 --------------------------                            --------------------------
 ! Name  Definition              Value          Derivative Info.                !
 --------------------------------------------------------------------------------
 ! R1    R(1,2)                  1.4221         -DE/DX =    0.0                 !
 ! R2    R(1,3)                  1.4087         -DE/DX =    0.0                 !
 ! R3    R(2,7)                  0.9643         -DE/DX =    0.0                 !
 ! R4    R(3,4)                  1.0921         -DE/DX =    0.0                 !
 ! R5    R(3,5)                  1.0889         -DE/DX =    0.0                 !
 ! R6    R(3,6)                  1.0905         -DE/DX =    0.0                 !
 ! A1    A(2,1,3)              106.5101         -DE/DX =    0.0                 !
 ! A2    A(1,2,7)              101.4029         -DE/DX =    0.0                 !
 ! A3    A(1,3,4)              111.1973         -DE/DX =    0.0                 !
 ! A4    A(1,3,5)              105.2167         -DE/DX =    0.0                 !
 ! A5    A(1,3,6)              110.76           -DE/DX =    0.0                 !
 ! A6    A(4,3,5)              109.9014         -DE/DX =    0.0                 !
 ! A7    A(4,3,6)              109.7697         -DE/DX =    0.0                 !
 ! A8    A(5,3,6)              109.9094         -DE/DX =    0.0                 !
 ! D1    D(3,1,2,7)            112.2323         -DE/DX =    0.0                 !
 ! D2    D(2,1,3,4)            -63.954          -DE/DX =    0.0                 !
 ! D3    D(2,1,3,5)            177.1082         -DE/DX =    0.0                 !
 ! D4    D(2,1,3,6)             58.3889         -DE/DX =    0.0                 !
 --------------------------------------------------------------------------------
 GradGradGradGradGradGradGradGradGradGradGradGradGradGradGradGradGradGrad

 Leave Link  103 at Mon Sep 23 10:10:21 2019, MaxMem=   671088640 cpu:              62.8 elap:               7.9
 (Enter /shared/centos7/gaussian/g16/l9999.exe)

 ----------------------------------------------------------------------

 Electric dipole moment (input orientation):
 (Debye = 10**-18 statcoulomb cm , SI units = C m)
                  (au)            (Debye)         (10**-30 SI)
   Tot        0.697817D+00      0.177367D+01      0.591634D+01
   x         -0.279665D+00     -0.710838D+00     -0.237110D+01
   y          0.211370D+00      0.537250D+00      0.179207D+01
   z          0.603373D+00      0.153362D+01      0.511561D+01

 Dipole polarizability, Alpha (input orientation).
 (esu units = cm**3 , SI units = C**2 m**2 J**-1)
 Alpha(0;0):
               (au)            (10**-24 esu)      (10**-40 SI)
   iso        0.237377D+02      0.351757D+01      0.391382D+01
   aniso      0.946732D+01      0.140291D+01      0.156095D+01
   xx         0.292591D+02      0.433575D+01      0.482417D+01
   yx         0.251145D+01      0.372158D+00      0.414082D+00
   yy         0.212743D+02      0.315253D+01      0.350766D+01
   zx         0.779483D+00      0.115507D+00      0.128519D+00
   zy        -0.958119D-01     -0.141979D-01     -0.157973D-01
   zz         0.206797D+02      0.306442D+01      0.340963D+01

 ----------------------------------------------------------------------

 Dipole orientation:
     8          0.59995508         -1.17305883         -1.07090856
     8          2.42011738          0.76604898         -1.45698342
     6         -1.30833035         -0.12525465          0.46098947
     1         -0.57529737          0.38580435          2.32128603
     1         -2.72430517         -1.60648688          0.64878355
     1         -2.14058392          1.53106557         -0.43936504
     1          3.84740316          0.10941264         -0.53381214

 Electric dipole moment (dipole orientation):
 (Debye = 10**-18 statcoulomb cm , SI units = C m)
                  (au)            (Debye)         (10**-30 SI)
   Tot        0.697817D+00      0.177367D+01      0.591634D+01
   x          0.000000D+00      0.000000D+00      0.000000D+00
   y          0.000000D+00      0.000000D+00      0.000000D+00
   z          0.697817D+00      0.177367D+01      0.591634D+01

 Dipole polarizability, Alpha (dipole orientation).
 (esu units = cm**3 , SI units = C**2 m**2 J**-1)
 Alpha(0;0):
               (au)            (10**-24 esu)      (10**-40 SI)
   iso        0.237377D+02      0.351757D+01      0.391382D+01
   aniso      0.946732D+01      0.140291D+01      0.156095D+01
   xx         0.287121D+02      0.425469D+01      0.473398D+01
   yx         0.251001D+01      0.371946D+00      0.413845D+00
   yy         0.215890D+02      0.319916D+01      0.355954D+01
   zx        -0.202708D+01     -0.300383D+00     -0.334221D+00
   zy        -0.891550D+00     -0.132114D+00     -0.146997D+00
   zz         0.209121D+02      0.309886D+01      0.344794D+01

 ----------------------------------------------------------------------

 Test job not archived.
 1\1\GINC-C0197\Freq\RM062X\CC-pVTZ\C1H4O2\HARMS.N\23-Sep-2019\0\\#P Ge
 om=AllCheck Guess=TCheck SCRF=Check Test GenChk RM062X/CC-pVTZ Freq\\G
 aussian input prepared by ASE\\0,1\O,0.4768395149,-0.7411977515,-0.174
 7355268\O,1.5057434157,0.2352662397,-0.2761862501\C,-0.7347833791,-0.0
 342022109,-0.046463434\H,-0.7572155967,0.5463703323,0.8782721716\H,-1.
 5103987956,-0.7981486139,-0.0234102242\H,-0.8892490252,0.6261686776,-0
 .9004203595\H,1.9775647789,0.1020322405,0.5541661742\\Version=EM64L-G1
 6RevA.03\State=1-A\HF=-190.8478748\RMSD=1.621e-09\RMSF=2.586e-06\ZeroP
 oint=0.0557409\Thermal=0.0599399\Dipole=-0.2796651,0.2113704,0.603373\
 DipoleDeriv=-0.328121,0.1859202,-0.0105106,0.2197926,-0.3103498,-0.022
 5517,0.0518556,0.0360257,-0.3100648,-0.4923528,0.0512253,0.0636141,-0.
 0439401,-0.289298,-0.0491855,-0.0250982,-0.1040446,-0.1443139,0.554684
 7,-0.1451459,-0.0261001,-0.2338402,0.3464329,0.0283386,-0.0243546,0.03
 06047,0.3613122,-0.0040194,-0.0119125,-0.038373,0.073914,-0.0042002,-0
 .0798293,0.0295551,-0.096909,-0.1147447,-0.0476647,-0.0511137,0.006577
 1,-0.0586085,-0.0204014,0.0014658,0.0072017,-0.0031918,0.0831506,0.012
 6867,0.0031161,0.0163394,0.0899216,-0.006247,0.0653195,-0.0378521,0.09
 01151,-0.0720256,0.3047866,-0.0320894,-0.011547,-0.0472393,0.2840636,0
 .0564426,-0.0013075,0.0474,0.1966862\Polar=29.259099,2.5114487,21.2743
 231,0.7794827,-0.0958119,20.6797456\Quadrupole=1.8741085,-1.6622791,-0
 .2118294,0.1312469,1.8888331,0.2018026\PG=C01 [X(C1H4O2)]\NImag=0\\0.4
 5111467,0.00441433,0.35067160,-0.01215308,0.00952285,0.07746028,-0.176
 14804,-0.10223438,0.01459208,0.34609486,-0.12413251,-0.16611976,0.0327
 4179,0.10465420,0.18491857,-0.01953521,0.00446160,-0.03922299,0.202601
 54,-0.10860382,0.44422684,-0.18750294,0.06395453,0.01258878,-0.0453220
 2,0.00401139,0.00435972,0.51581815,0.12028018,-0.15603081,-0.01086842,
 -0.04711629,0.00966186,-0.00115278,0.05837846,0.60344969,0.01261055,-0
 .00931927,-0.06385663,0.00518029,0.00062280,-0.00134083,0.00902968,-0.
 00632321,0.58070299,-0.01535717,0.02767114,0.03013609,0.00493415,0.000
 42175,-0.00021534,-0.04971466,-0.00921075,-0.00899125,0.05629971,0.009
 00429,-0.01573136,-0.01764504,-0.00000139,0.00193172,0.00323827,-0.002
 41856,-0.11888866,-0.11097187,-0.00659155,0.13050257,0.00719027,-0.005
 56168,0.00480867,-0.00003122,0.00181258,0.00121355,-0.00554999,-0.1124
 1764,-0.24396754,0.00078996,0.12813242,0.25719589,-0.02704674,-0.02333
 573,0.00153280,-0.00698497,0.00326106,-0.00084385,-0.17805474,-0.12751
 157,0.00390006,0.00205793,0.00001247,-0.00077169,0.20593780,0.01073124
 ,0.01226794,-0.00067470,0.00617951,0.00236143,0.00044940,-0.14065535,-
 0.19340641,0.00397288,-0.01002605,-0.00971828,0.00209562,0.14542976,0.
 19923248,0.00222416,0.00243979,-0.00058935,0.00065446,0.00017644,0.001
 51195,0.00312689,0.00267591,-0.05035595,-0.01973194,-0.01864716,0.0022
 8328,-0.00548197,-0.00374358,0.04634521,-0.02130570,0.03053942,-0.0235
 3481,0.00466207,0.00148857,-0.00081488,-0.05071312,0.00890827,-0.01887
 772,0.00200661,-0.00043540,-0.00201446,0.00504063,-0.01228970,0.018482
 78,0.06008853,0.01244824,-0.01665059,0.01394924,-0.00051013,0.00222235
 ,-0.00197160,0.01660806,-0.14199643,0.12177019,-0.00290011,0.01136561,
 -0.01392903,0.00267478,-0.01130095,0.01723096,-0.02790189,0.15644996,-
 0.00200553,-0.00202690,0.01117007,-0.00045254,-0.00077223,-0.00016374,
 -0.02305786,0.12489441,-0.22303559,-0.00179512,0.01644675,-0.02060618,
 0.00066175,-0.00168229,0.00108697,0.02633346,-0.13663604,0.23179870,-0
 .02375409,-0.00100932,-0.02316186,-0.12723604,0.01029553,-0.18555198,-
 0.00451067,-0.00372830,-0.00285160,-0.00022657,0.00043014,0.00038713,-
 0.00094991,0.00063059,0.00072562,0.00022097,-0.00041895,0.00031583,0.1
 5645632,-0.03274577,-0.00840700,-0.02702573,0.03902847,-0.03497616,0.1
 0357893,0.00012146,-0.00278923,0.00024849,0.00063557,0.00053841,-0.000
 13226,-0.00053077,0.00056380,-0.00013237,-0.00030927,-0.00008994,-0.00
 022370,-0.00619969,0.04516012,0.01166883,0.00048360,0.01022995,-0.2225
 4461,0.07402245,-0.40622479,-0.00049723,0.00319173,0.00185354,-0.00019
 240,-0.00055337,-0.00092768,0.00100291,-0.00041733,-0.00028211,0.00042
 564,-0.00041372,-0.00025023,0.21013685,-0.07631336,0.39560132\\-0.0000
 0322,0.00000140,-0.00000422,-0.00000054,-0.00000058,-0.00000015,0.0000
 0299,-0.00000014,0.00000144,0.00000185,-0.00000283,0.00000389,-0.00000
 033,0.00000099,0.00000019,-0.00000155,0.00000379,0.00000421,0.00000079
 ,-0.00000262,-0.00000537\\\@


 GOD DOES NOT PLAY WITH DICE.
               -- A. EINSTEIN
 Job cpu time:       0 days  0 hours 27 minutes 40.1 seconds.
 Elapsed time:       0 days  0 hours  3 minutes 28.2 seconds.
 File lengths (MBytes):  RWF=    272 Int=      0 D2E=      0 Chk=     32 Scr=     32
 Normal termination of Gaussian 16 at Mon Sep 23 10:10:22 2019.
