 Entering Gaussian System, Link 0=g16
 Input=med/ts/CCC+[O]O_[CH2]CC+OO/conformers/CCC+[O]O_[CH2]CC+OO_forward_9.com
 Output=med/ts/CCC+[O]O_[CH2]CC+OO/conformers/CCC+[O]O_[CH2]CC+OO_forward_9.log
 Initial command:
 /shared/centos7/gaussian/g16/l1.exe "/scratch/harms.n/gauss_scrdir/Gau-43884.inp" -scrdir="/scratch/harms.n/gauss_scrdir/"
 Entering Link 1 = /shared/centos7/gaussian/g16/l1.exe PID=     43885.
  
 Copyright (c) 1988,1990,1992,1993,1995,1998,2003,2009,2016,
            Gaussian, Inc.  All Rights Reserved.
  
 This is part of the Gaussian(R) 16 program.  It is based on
 the Gaussian(R) 09 system (copyright 2009, Gaussian, Inc.),
 the Gaussian(R) 03 system (copyright 2003, Gaussian, Inc.),
 the Gaussian(R) 98 system (copyright 1998, Gaussian, Inc.),
 the Gaussian(R) 94 system (copyright 1995, Gaussian, Inc.),
 the Gaussian 92(TM) system (copyright 1992, Gaussian, Inc.),
 the Gaussian 90(TM) system (copyright 1990, Gaussian, Inc.),
 the Gaussian 88(TM) system (copyright 1988, Gaussian, Inc.),
 the Gaussian 86(TM) system (copyright 1986, Carnegie Mellon
 University), and the Gaussian 82(TM) system (copyright 1983,
 Carnegie Mellon University). Gaussian is a federally registered
 trademark of Gaussian, Inc.
  
 This software contains proprietary and confidential information,
 including trade secrets, belonging to Gaussian, Inc.
  
 This software is provided under written license and may be
 used, copied, transmitted, or stored only in accord with that
 written license.
  
 The following legend is applicable only to US Government
 contracts under FAR:
  
                    RESTRICTED RIGHTS LEGEND
  
 Use, reproduction and disclosure by the US Government is
 subject to restrictions as set forth in subparagraphs (a)
 and (c) of the Commercial Computer Software - Restricted
 Rights clause in FAR 52.227-19.
  
 Gaussian, Inc.
 340 Quinnipiac St., Bldg. 40, Wallingford CT 06492
  
  
 ---------------------------------------------------------------
 Warning -- This program may not be used in any manner that
 competes with the business of Gaussian, Inc. or will provide
 assistance to any competitor of Gaussian, Inc.  The licensee
 of this program is prohibited from giving any competitor of
 Gaussian, Inc. access to this program.  By using this program,
 the user acknowledges that Gaussian, Inc. is engaged in the
 business of creating and licensing software in the field of
 computational chemistry and represents and warrants to the
 licensee that it is not a competitor of Gaussian, Inc. and that
 it will not use this program in any manner prohibited above.
 ---------------------------------------------------------------
  

 Cite this work as:
 Gaussian 16, Revision A.03,
 M. J. Frisch, G. W. Trucks, H. B. Schlegel, G. E. Scuseria, 
 M. A. Robb, J. R. Cheeseman, G. Scalmani, V. Barone, 
 G. A. Petersson, H. Nakatsuji, X. Li, M. Caricato, A. V. Marenich, 
 J. Bloino, B. G. Janesko, R. Gomperts, B. Mennucci, H. P. Hratchian, 
 J. V. Ortiz, A. F. Izmaylov, J. L. Sonnenberg, D. Williams-Young, 
 F. Ding, F. Lipparini, F. Egidi, J. Goings, B. Peng, A. Petrone, 
 T. Henderson, D. Ranasinghe, V. G. Zakrzewski, J. Gao, N. Rega, 
 G. Zheng, W. Liang, M. Hada, M. Ehara, K. Toyota, R. Fukuda, 
 J. Hasegawa, M. Ishida, T. Nakajima, Y. Honda, O. Kitao, H. Nakai, 
 T. Vreven, K. Throssell, J. A. Montgomery, Jr., J. E. Peralta, 
 F. Ogliaro, M. J. Bearpark, J. J. Heyd, E. N. Brothers, K. N. Kudin, 
 V. N. Staroverov, T. A. Keith, R. Kobayashi, J. Normand, 
 K. Raghavachari, A. P. Rendell, J. C. Burant, S. S. Iyengar, 
 J. Tomasi, M. Cossi, J. M. Millam, M. Klene, C. Adamo, R. Cammi, 
 J. W. Ochterski, R. L. Martin, K. Morokuma, O. Farkas, 
 J. B. Foresman, and D. J. Fox, Gaussian, Inc., Wallingford CT, 2016.
 
 ******************************************
 Gaussian 16:  EM64L-G16RevA.03 25-Dec-2016
                 5-Sep-2019 
 ******************************************
 %nprocshared=20
 Will use up to   20 processors via shared memory.
 %mem=5GB
 ----------------------------------------------------------------------
 #p m062x/cc-pVTZ opt=(ts,calcfc,noeigentest,maxcycles=900) freq scf=(m
 axcycle=900) IOP(7/33=1,2/16=3)
 ----------------------------------------------------------------------
 1/5=1,6=900,10=4,11=1,18=20,26=3,38=1/1,3;
 2/9=110,12=2,16=3,17=6,18=5,40=1/2;
 3/5=16,6=1,11=2,25=1,30=1,71=2,74=-55,140=1/1,2,3;
 4//1;
 5/5=2,7=900,38=5/2;
 8/6=4,10=90,11=11/1;
 11/6=1,8=1,9=11,15=111,16=1/1,2,10;
 10/6=1,13=1/2;
 6/7=2,8=2,9=2,10=2,28=1/1;
 7/10=1,18=20,25=1,33=1/1,2,3,16;
 1/5=1,6=900,10=4,11=1,18=20,26=3/3(2);
 2/9=110,16=3/2;
 99//99;
 2/9=110,16=3/2;
 3/5=16,6=1,11=2,25=1,30=1,71=1,74=-55/1,2,3;
 4/5=5,16=3,69=1/1;
 5/5=2,7=900,38=5/2;
 7/33=1/1,2,3,16;
 1/5=1,6=900,11=1,18=20,26=3/3(-5);
 2/9=110,16=3/2;
 6/7=2,8=2,9=2,10=2,19=2,28=1/1;
 99/9=1/99;
 Leave Link    1 at Thu Sep  5 18:53:37 2019, MaxMem=   671088640 cpu:               3.0 elap:               1.5
 (Enter /shared/centos7/gaussian/g16/l101.exe)
 ------------------------------
 Gaussian input prepared by ASE
 ------------------------------
 Symbolic Z-matrix:
 Charge =  0 Multiplicity = 2
 O                    -1.67506  -0.6127    0.46532 
 O                    -1.46896   0.19726  -0.65134 
 C                     1.23141   0.1278    0.58428 
 C                     0.59268   1.321    -0.06086 
 C                     1.4418   -1.03243  -0.37969 
 H                     0.62819  -0.19493   1.43445 
 H                     2.1947    0.44343   1.00215 
 H                    -0.72138   1.01403  -0.28974 
 H                     0.50611   2.2141    0.5553 
 H                     0.91455   1.53396  -1.07783 
 H                     0.48579  -1.39651  -0.75044 
 H                     1.96143  -1.85756   0.10507 
 H                     2.03782  -0.71421  -1.23575 
 H                    -2.4504   -0.217     0.88263 
 
 Add virtual bond connecting atoms H8         and O2         Dist= 2.20D+00.
 Add virtual bond connecting atoms H8         and C4         Dist= 2.59D+00.
 ITRead=  0  0  0  0  0  0  0  0  0  0  0  0  0  0
 MicOpt= -1 -1 -1 -1 -1 -1 -1 -1 -1 -1 -1 -1 -1 -1
 NAtoms=     14 NQM=       14 NQMF=       0 NMMI=      0 NMMIF=      0
                NMic=       0 NMicF=      0.
                    Isotopes and Nuclear Properties:
 (Nuclear quadrupole moments (NQMom) in fm**2, nuclear magnetic moments (NMagM)
  in nuclear magnetons)

  Atom         1           2           3           4           5           6           7           8           9          10
 IAtWgt=          16          16          12          12          12           1           1           1           1           1
 AtmWgt=  15.9949146  15.9949146  12.0000000  12.0000000  12.0000000   1.0078250   1.0078250   1.0078250   1.0078250   1.0078250
 NucSpn=           0           0           0           0           0           1           1           1           1           1
 AtZEff=  -0.0000000  -0.0000000  -0.0000000  -0.0000000  -0.0000000  -0.0000000  -0.0000000  -0.0000000  -0.0000000  -0.0000000
 NQMom=    0.0000000   0.0000000   0.0000000   0.0000000   0.0000000   0.0000000   0.0000000   0.0000000   0.0000000   0.0000000
 NMagM=    0.0000000   0.0000000   0.0000000   0.0000000   0.0000000   2.7928460   2.7928460   2.7928460   2.7928460   2.7928460
 AtZNuc=   8.0000000   8.0000000   6.0000000   6.0000000   6.0000000   1.0000000   1.0000000   1.0000000   1.0000000   1.0000000

  Atom        11          12          13          14
 IAtWgt=           1           1           1           1
 AtmWgt=   1.0078250   1.0078250   1.0078250   1.0078250
 NucSpn=           1           1           1           1
 AtZEff=  -0.0000000  -0.0000000  -0.0000000  -0.0000000
 NQMom=    0.0000000   0.0000000   0.0000000   0.0000000
 NMagM=    2.7928460   2.7928460   2.7928460   2.7928460
 AtZNuc=   1.0000000   1.0000000   1.0000000   1.0000000
 Leave Link  101 at Thu Sep  5 18:53:40 2019, MaxMem=   671088640 cpu:               4.8 elap:               2.4
 (Enter /shared/centos7/gaussian/g16/l103.exe)

 GradGradGradGradGradGradGradGradGradGradGradGradGradGradGradGradGradGrad
 Berny optimization.
 Initialization pass.
                           ----------------------------
                           !    Initial Parameters    !
                           ! (Angstroms and Degrees)  !
 --------------------------                            --------------------------
 ! Name  Definition              Value          Derivative Info.                !
 --------------------------------------------------------------------------------
 ! R1    R(1,2)                  1.3948         calculate D2E/DX2 analytically  !
 ! R2    R(1,14)                 0.9653         calculate D2E/DX2 analytically  !
 ! R3    R(2,8)                  1.1648         calculate D2E/DX2 analytically  !
 ! R4    R(3,4)                  1.4993         calculate D2E/DX2 analytically  !
 ! R5    R(3,5)                  1.523          calculate D2E/DX2 analytically  !
 ! R6    R(3,6)                  1.0912         calculate D2E/DX2 analytically  !
 ! R7    R(3,7)                  1.0964         calculate D2E/DX2 analytically  !
 ! R8    R(4,8)                  1.3687         calculate D2E/DX2 analytically  !
 ! R9    R(4,9)                  1.0885         calculate D2E/DX2 analytically  !
 ! R10   R(4,10)                 1.0877         calculate D2E/DX2 analytically  !
 ! R11   R(5,11)                 1.0881         calculate D2E/DX2 analytically  !
 ! R12   R(5,12)                 1.089          calculate D2E/DX2 analytically  !
 ! R13   R(5,13)                 1.0906         calculate D2E/DX2 analytically  !
 ! A1    A(2,1,14)             103.1058         calculate D2E/DX2 analytically  !
 ! A2    A(1,2,8)              104.6846         calculate D2E/DX2 analytically  !
 ! A3    A(4,3,5)              113.1268         calculate D2E/DX2 analytically  !
 ! A4    A(4,3,6)              109.5786         calculate D2E/DX2 analytically  !
 ! A5    A(4,3,7)              108.0098         calculate D2E/DX2 analytically  !
 ! A6    A(5,3,6)              110.1317         calculate D2E/DX2 analytically  !
 ! A7    A(5,3,7)              109.8251         calculate D2E/DX2 analytically  !
 ! A8    A(6,3,7)              105.8941         calculate D2E/DX2 analytically  !
 ! A9    A(3,4,8)              107.6065         calculate D2E/DX2 analytically  !
 ! A10   A(3,4,9)              116.3142         calculate D2E/DX2 analytically  !
 ! A11   A(3,4,10)             115.5973         calculate D2E/DX2 analytically  !
 ! A12   A(8,4,9)              101.6732         calculate D2E/DX2 analytically  !
 ! A13   A(8,4,10)              99.884          calculate D2E/DX2 analytically  !
 ! A14   A(9,4,10)             113.0878         calculate D2E/DX2 analytically  !
 ! A15   A(3,5,11)             110.4374         calculate D2E/DX2 analytically  !
 ! A16   A(3,5,12)             111.1851         calculate D2E/DX2 analytically  !
 ! A17   A(3,5,13)             110.49           calculate D2E/DX2 analytically  !
 ! A18   A(11,5,12)            108.5048         calculate D2E/DX2 analytically  !
 ! A19   A(11,5,13)            108.0802         calculate D2E/DX2 analytically  !
 ! A20   A(12,5,13)            108.0442         calculate D2E/DX2 analytically  !
 ! A21   A(2,8,4)              145.6251         calculate D2E/DX2 analytically  !
 ! D1    D(14,1,2,8)            92.2123         calculate D2E/DX2 analytically  !
 ! D2    D(1,2,8,4)             82.5301         calculate D2E/DX2 analytically  !
 ! D3    D(5,3,4,8)             72.5491         calculate D2E/DX2 analytically  !
 ! D4    D(5,3,4,9)           -174.2629         calculate D2E/DX2 analytically  !
 ! D5    D(5,3,4,10)           -38.0432         calculate D2E/DX2 analytically  !
 ! D6    D(6,3,4,8)            -50.7576         calculate D2E/DX2 analytically  !
 ! D7    D(6,3,4,9)             62.4304         calculate D2E/DX2 analytically  !
 ! D8    D(6,3,4,10)          -161.3499         calculate D2E/DX2 analytically  !
 ! D9    D(7,3,4,8)           -165.6724         calculate D2E/DX2 analytically  !
 ! D10   D(7,3,4,9)            -52.4844         calculate D2E/DX2 analytically  !
 ! D11   D(7,3,4,10)            83.7353         calculate D2E/DX2 analytically  !
 ! D12   D(4,3,5,11)           -62.9597         calculate D2E/DX2 analytically  !
 ! D13   D(4,3,5,12)           176.531          calculate D2E/DX2 analytically  !
 ! D14   D(4,3,5,13)            56.5661         calculate D2E/DX2 analytically  !
 ! D15   D(6,3,5,11)            60.0413         calculate D2E/DX2 analytically  !
 ! D16   D(6,3,5,12)           -60.4681         calculate D2E/DX2 analytically  !
 ! D17   D(6,3,5,13)           179.567          calculate D2E/DX2 analytically  !
 ! D18   D(7,3,5,11)           176.2864         calculate D2E/DX2 analytically  !
 ! D19   D(7,3,5,12)            55.7771         calculate D2E/DX2 analytically  !
 ! D20   D(7,3,5,13)           -64.1878         calculate D2E/DX2 analytically  !
 ! D21   D(3,4,8,2)            -41.8757         calculate D2E/DX2 analytically  !
 ! D22   D(9,4,8,2)           -164.5909         calculate D2E/DX2 analytically  !
 ! D23   D(10,4,8,2)            79.1485         calculate D2E/DX2 analytically  !
 --------------------------------------------------------------------------------
 Trust Radius=3.00D-01 FncErr=1.00D-07 GrdErr=1.00D-06 EigMax=2.50D+02 EigMin=1.00D-04
 Number of steps in this run=    100 maximum allowed number of steps=    100.
 Search for a saddle point of order  1.
 GradGradGradGradGradGradGradGradGradGradGradGradGradGradGradGradGradGrad

 Leave Link  103 at Thu Sep  5 18:53:40 2019, MaxMem=   671088640 cpu:               1.3 elap:               0.7
 (Enter /shared/centos7/gaussian/g16/l202.exe)
                          Input orientation:                          
 ---------------------------------------------------------------------
 Center     Atomic      Atomic             Coordinates (Angstroms)
 Number     Number       Type             X           Y           Z
 ---------------------------------------------------------------------
      1          8           0       -1.675063   -0.612698    0.465321
      2          8           0       -1.468956    0.197255   -0.651344
      3          6           0        1.231410    0.127797    0.584276
      4          6           0        0.592679    1.321001   -0.060858
      5          6           0        1.441803   -1.032426   -0.379694
      6          1           0        0.628194   -0.194927    1.434453
      7          1           0        2.194697    0.443425    1.002147
      8          1           0       -0.721379    1.014034   -0.289743
      9          1           0        0.506114    2.214096    0.555302
     10          1           0        0.914551    1.533964   -1.077834
     11          1           0        0.485788   -1.396514   -0.750441
     12          1           0        1.961427   -1.857559    0.105073
     13          1           0        2.037816   -0.714210   -1.235752
     14          1           0       -2.450400   -0.217001    0.882634
 ---------------------------------------------------------------------
                    Distance matrix (angstroms):
                    1          2          3          4          5
     1  O    0.000000
     2  O    1.394792   0.000000
     3  C    3.001678   2.970447   0.000000
     4  C    3.026336   2.421119   1.499303   0.000000
     5  C    3.256544   3.171502   1.523030   2.522159   0.000000
     6  H    2.533524   2.983688   1.091248   2.129614   2.157428
     7  H    4.047051   4.027032   1.096430   2.113429   2.157422
     8  H    2.031229   1.164798   2.315753   1.368709   2.979169
     9  H    3.571609   3.069942   2.208967   1.088469   3.505658
    10  H    3.700755   2.765825   2.200072   1.087748   2.711411
    11  H    2.600331   2.524073   2.158922   2.805680   1.088108
    12  H    3.860507   4.069638   2.168916   3.464715   1.088969
    13  H    4.085269   3.670116   2.161427   2.758782   1.090563
    14  H    0.965336   1.867600   3.709936   3.537790   4.172246
                    6          7          8          9         10
     6  H    0.000000
     7  H    1.745942   0.000000
     8  H    2.501157   3.240073   0.000000
     9  H    2.567334   2.487219   1.913371   0.000000
    10  H    3.063111   2.674765   1.888831   1.815636   0.000000
    11  H    2.497569   3.062239   2.735002   3.839516   2.979719
    12  H    2.511793   2.480662   3.949604   4.347300   3.741343
    13  H    3.063770   2.524465   3.390416   3.758851   2.518124
    14  H    3.127736   4.693333   2.424753   3.841660   4.269919
                   11         12         13         14
    11  H    0.000000
    12  H    1.766912   0.000000
    13  H    1.763479   1.763773   0.000000
    14  H    3.560812   4.770770   4.987871   0.000000
 Stoichiometry    C3H9O2(2)
 Framework group  C1[X(C3H9O2)]
 Deg. of freedom    36
 Full point group                 C1      NOp   1
 Largest Abelian subgroup         C1      NOp   1
 Largest concise Abelian subgroup C1      NOp   1
                         Standard orientation:                         
 ---------------------------------------------------------------------
 Center     Atomic      Atomic             Coordinates (Angstroms)
 Number     Number       Type             X           Y           Z
 ---------------------------------------------------------------------
      1          8           0       -1.675063   -0.612698    0.465321
      2          8           0       -1.468956    0.197255   -0.651344
      3          6           0        1.231410    0.127797    0.584276
      4          6           0        0.592679    1.321001   -0.060858
      5          6           0        1.441803   -1.032426   -0.379694
      6          1           0        0.628194   -0.194927    1.434453
      7          1           0        2.194697    0.443425    1.002147
      8          1           0       -0.721379    1.014034   -0.289743
      9          1           0        0.506114    2.214096    0.555302
     10          1           0        0.914551    1.533964   -1.077834
     11          1           0        0.485788   -1.396514   -0.750441
     12          1           0        1.961427   -1.857559    0.105073
     13          1           0        2.037816   -0.714210   -1.235752
     14          1           0       -2.450400   -0.217001    0.882634
 ---------------------------------------------------------------------
 Rotational constants (GHZ):           6.4216487           2.9503965           2.4920720
 Leave Link  202 at Thu Sep  5 18:53:42 2019, MaxMem=   671088640 cpu:               3.6 elap:               1.8
 (Enter /shared/centos7/gaussian/g16/l301.exe)
 Standard basis: CC-pVTZ (5D, 7F)
 Ernie: Thresh=  0.10000D-02 Tol=  0.10000D-05 Strict=F.
 Ernie:  15 primitive shells out of 202 were deleted.
 There are   310 symmetry adapted cartesian basis functions of A   symmetry.
 There are   276 symmetry adapted basis functions of A   symmetry.
   276 basis functions,   413 primitive gaussians,   310 cartesian basis functions
    22 alpha electrons       21 beta electrons
       nuclear repulsion energy       192.2841785518 Hartrees.
 IExCor= 4336 DFT=T Ex+Corr=M062X ExCW=0 ScaHFX=  0.540000
 ScaDFX=  1.000000  1.000000  1.000000  1.000000 ScalE2=  1.000000  1.000000
 IRadAn=      5 IRanWt=     -1 IRanGd=            0 ICorTp=0 IEmpDi=  4
 NAtoms=   14 NActive=   14 NUniq=   14 SFac= 1.00D+00 NAtFMM=   60 NAOKFM=F Big=F
 Integral buffers will be    131072 words long.
 Raffenetti 2 integral format.
 Two-electron integral symmetry is turned on.
 Leave Link  301 at Thu Sep  5 18:53:43 2019, MaxMem=   671088640 cpu:               1.8 elap:               0.9
 (Enter /shared/centos7/gaussian/g16/l302.exe)
 NPDir=0 NMtPBC=     1 NCelOv=     1 NCel=       1 NClECP=     1 NCelD=      1
         NCelK=      1 NCelE2=     1 NClLst=     1 CellRange=     0.0.
 One-electron integrals computed using PRISM.
 One-electron integral symmetry used in STVInt
 NBasis=   276 RedAO= T EigKep=  7.01D-04  NBF=   276
 NBsUse=   276 1.00D-06 EigRej= -1.00D+00 NBFU=   276
 Precomputing XC quadrature grid using
 IXCGrd= 4 IRadAn=           5 IRanWt=          -1 IRanGd=           0 AccXCQ= 0.00D+00.
 Generated NRdTot=       0 NPtTot=           0 NUsed=           0 NTot=          32
 NSgBfM=   310   310   310   310   310 MxSgAt=    14 MxSgA2=    14.
 Leave Link  302 at Thu Sep  5 18:54:46 2019, MaxMem=   671088640 cpu:             124.9 elap:              62.5
 (Enter /shared/centos7/gaussian/g16/l303.exe)
 DipDrv:  MaxL=1.
 Leave Link  303 at Thu Sep  5 18:54:50 2019, MaxMem=   671088640 cpu:               8.0 elap:               4.0
 (Enter /shared/centos7/gaussian/g16/l401.exe)
 ExpMin= 1.03D-01 ExpMax= 1.53D+04 ExpMxC= 5.22D+02 IAcc=3 IRadAn=         5 AccDes= 0.00D+00
 Harris functional with IExCor= 1009 and IRadAn=       5 diagonalized for initial guess.
 HarFok:  IExCor= 1009 AccDes= 0.00D+00 IRadAn=         5 IDoV= 1 UseB2=F ITyADJ=14
 ICtDFT=  3500011 ScaDFX=  1.000000  1.000000  1.000000  1.000000
 FoFCou: FMM=F IPFlag=           0 FMFlag=      100000 FMFlg1=           0
         NFxFlg=           0 DoJE=T BraDBF=F KetDBF=T FulRan=T
         wScrn=  0.000000 ICntrl=       500 IOpCl=  0 I1Cent=   200000004 NGrid=           0
         NMat0=    1 NMatS0=      1 NMatT0=    0 NMatD0=    1 NMtDS0=    0 NMtDT0=    0
 Petite list used in FoFCou.
 Harris En= -269.916128485249    
 JPrj=0 DoOrth=F DoCkMO=F.
 Initial guess <Sx>= 0.0000 <Sy>= 0.0000 <Sz>= 0.5000 <S**2>= 0.7500 S= 0.5000
 Leave Link  401 at Thu Sep  5 18:55:17 2019, MaxMem=   671088640 cpu:              55.4 elap:              27.7
 (Enter /shared/centos7/gaussian/g16/l502.exe)
 Integral symmetry usage will be decided dynamically.
 UHF open shell SCF:
 Using DIIS extrapolation, IDIIS=  1040.
 NGot=   671088640 LenX=   670887394 LenY=   670790853
 Requested convergence on RMS density matrix=1.00D-08 within 900 cycles.
 Requested convergence on MAX density matrix=1.00D-06.
 Requested convergence on             energy=1.00D-06.
 No special actions if energy rises.
 Fock matrices will be formed incrementally for  20 cycles.
 Integral accuracy reduced to 1.0D-05 until final iterations.

 Cycle   1  Pass 0  IDiag  1:
 FoFJK:  IHMeth= 1 ICntrl=       0 DoSepK=F KAlg= 0 I1Cent=           0 FoldK=F
 IRaf= 980000000 NMat=       1 IRICut=       1 DoRegI=T DoRafI=F ISym2E= 0 IDoP0=0 IntGTp=1.
 FoFCou: FMM=F IPFlag=           0 FMFlag=      100000 FMFlg1=           0
         NFxFlg=           0 DoJE=F BraDBF=F KetDBF=F FulRan=T
         wScrn=  0.000000 ICntrl=         0 IOpCl=  1 I1Cent=           0 NGrid=           0
         NMat0=    1 NMatS0=      1 NMatT0=    0 NMatD0=    1 NMtDS0=    0 NMtDT0=    0
 Symmetry not used in FoFCou.
 E= -269.779190104119    
 DIIS: error= 2.80D-02 at cycle   1 NSaved=   1.
 NSaved= 1 IEnMin= 1 EnMin= -269.779190104119     IErMin= 1 ErrMin= 2.80D-02
 ErrMax= 2.80D-02  0.00D+00 EMaxC= 1.00D-01 BMatC= 9.05D-01 BMatP= 9.05D-01
 IDIUse=3 WtCom= 7.20D-01 WtEn= 2.80D-01
 Coeff-Com:  0.100D+01
 Coeff-En:   0.100D+01
 Coeff:      0.100D+01
 Gap=     0.327 Goal=   None    Shift=    0.000
 Gap=     0.356 Goal=   None    Shift=    0.000
 GapD=    0.327 DampG=1.000 DampE=0.500 DampFc=0.5000 IDamp=-1.
 Damping current iteration by 5.00D-01
 RMSDP=2.07D-03 MaxDP=8.64D-02              OVMax= 2.46D-01

 Cycle   2  Pass 0  IDiag  1:
 RMSU=  1.03D-03    CP:  9.97D-01
 E= -269.879379800461     Delta-E=       -0.100189696342 Rises=F Damp=T
 DIIS: error= 4.79D-03 at cycle   2 NSaved=   2.
 NSaved= 2 IEnMin= 2 EnMin= -269.879379800461     IErMin= 2 ErrMin= 4.79D-03
 ErrMax= 4.79D-03  0.00D+00 EMaxC= 1.00D-01 BMatC= 7.06D-02 BMatP= 9.05D-01
 IDIUse=3 WtCom= 9.52D-01 WtEn= 4.79D-02
 Coeff-Com: -0.104D+00 0.110D+01
 Coeff-En:   0.000D+00 0.100D+01
 Coeff:     -0.995D-01 0.110D+01
 Gap=     0.347 Goal=   None    Shift=    0.000
 Gap=     0.347 Goal=   None    Shift=    0.000
 RMSDP=5.26D-04 MaxDP=2.03D-02 DE=-1.00D-01 OVMax= 9.38D-02

 Cycle   3  Pass 0  IDiag  1:
 RMSU=  5.22D-04    CP:  1.00D+00  9.76D-01
 E= -269.976270692394     Delta-E=       -0.096890891934 Rises=F Damp=F
 DIIS: error= 3.75D-03 at cycle   3 NSaved=   3.
 NSaved= 3 IEnMin= 3 EnMin= -269.976270692394     IErMin= 3 ErrMin= 3.75D-03
 ErrMax= 3.75D-03  0.00D+00 EMaxC= 1.00D-01 BMatC= 1.52D-02 BMatP= 7.06D-02
 IDIUse=3 WtCom= 9.62D-01 WtEn= 3.75D-02
 Coeff-Com: -0.787D-01 0.324D+00 0.755D+00
 Coeff-En:   0.000D+00 0.000D+00 0.100D+01
 Coeff:     -0.758D-01 0.312D+00 0.764D+00
 Gap=     0.342 Goal=   None    Shift=    0.000
 Gap=     0.283 Goal=   None    Shift=    0.000
 RMSDP=1.94D-04 MaxDP=7.98D-03 DE=-9.69D-02 OVMax= 5.14D-02

 Cycle   4  Pass 0  IDiag  1:
 RMSU=  1.72D-04    CP:  1.00D+00  1.04D+00  8.92D-01
 E= -269.979276968620     Delta-E=       -0.003006276226 Rises=F Damp=F
 DIIS: error= 2.02D-03 at cycle   4 NSaved=   4.
 NSaved= 4 IEnMin= 4 EnMin= -269.979276968620     IErMin= 4 ErrMin= 2.02D-03
 ErrMax= 2.02D-03  0.00D+00 EMaxC= 1.00D-01 BMatC= 5.60D-03 BMatP= 1.52D-02
 IDIUse=3 WtCom= 9.80D-01 WtEn= 2.02D-02
 Coeff-Com: -0.301D-01 0.749D-01 0.405D+00 0.550D+00
 Coeff-En:   0.000D+00 0.000D+00 0.713D-01 0.929D+00
 Coeff:     -0.295D-01 0.733D-01 0.399D+00 0.558D+00
 Gap=     0.343 Goal=   None    Shift=    0.000
 Gap=     0.288 Goal=   None    Shift=    0.000
 RMSDP=9.34D-05 MaxDP=3.79D-03 DE=-3.01D-03 OVMax= 1.02D-02

 Cycle   5  Pass 0  IDiag  1:
 RMSU=  6.68D-05    CP:  1.00D+00  1.04D+00  9.87D-01  7.55D-01
 E= -269.980355192519     Delta-E=       -0.001078223899 Rises=F Damp=F
 DIIS: error= 4.04D-04 at cycle   5 NSaved=   5.
 NSaved= 5 IEnMin= 5 EnMin= -269.980355192519     IErMin= 5 ErrMin= 4.04D-04
 ErrMax= 4.04D-04  0.00D+00 EMaxC= 1.00D-01 BMatC= 3.99D-04 BMatP= 5.60D-03
 IDIUse=3 WtCom= 9.96D-01 WtEn= 4.04D-03
 Coeff-Com: -0.839D-03-0.116D-01 0.665D-01 0.196D+00 0.749D+00
 Coeff-En:   0.000D+00 0.000D+00 0.000D+00 0.000D+00 0.100D+01
 Coeff:     -0.836D-03-0.115D-01 0.662D-01 0.196D+00 0.751D+00
 Gap=     0.345 Goal=   None    Shift=    0.000
 Gap=     0.290 Goal=   None    Shift=    0.000
 RMSDP=4.10D-05 MaxDP=1.64D-03 DE=-1.08D-03 OVMax= 1.00D-02

 Cycle   6  Pass 0  IDiag  1:
 RMSU=  2.70D-05    CP:  1.00D+00  1.03D+00  1.01D+00  8.92D-01  1.18D+00
 E= -269.980515975685     Delta-E=       -0.000160783166 Rises=F Damp=F
 DIIS: error= 4.67D-04 at cycle   6 NSaved=   6.
 NSaved= 6 IEnMin= 6 EnMin= -269.980515975685     IErMin= 5 ErrMin= 4.04D-04
 ErrMax= 4.67D-04  0.00D+00 EMaxC= 1.00D-01 BMatC= 1.14D-04 BMatP= 3.99D-04
 IDIUse=3 WtCom= 9.96D-01 WtEn= 4.04D-03
 Coeff-Com:  0.702D-02-0.204D-01-0.649D-01-0.846D-01 0.278D+00 0.885D+00
 Coeff-En:   0.000D+00 0.000D+00 0.000D+00 0.000D+00 0.000D+00 0.100D+01
 Coeff:      0.700D-02-0.203D-01-0.647D-01-0.842D-01 0.277D+00 0.885D+00
 Gap=     0.346 Goal=   None    Shift=    0.000
 Gap=     0.293 Goal=   None    Shift=    0.000
 RMSDP=3.04D-05 MaxDP=9.93D-04 DE=-1.61D-04 OVMax= 9.12D-03

 Cycle   7  Pass 0  IDiag  1:
 RMSU=  1.48D-05    CP:  1.00D+00  1.03D+00  1.03D+00  9.66D-01  1.49D+00
                    CP:  1.18D+00
 E= -269.980579731079     Delta-E=       -0.000063755394 Rises=F Damp=F
 DIIS: error= 1.38D-04 at cycle   7 NSaved=   7.
 NSaved= 7 IEnMin= 7 EnMin= -269.980579731079     IErMin= 7 ErrMin= 1.38D-04
 ErrMax= 1.38D-04  0.00D+00 EMaxC= 1.00D-01 BMatC= 3.61D-05 BMatP= 1.14D-04
 IDIUse=3 WtCom= 9.99D-01 WtEn= 1.38D-03
 Coeff-Com:  0.317D-02-0.571D-02-0.459D-01-0.109D+00-0.907D-01 0.436D+00
 Coeff-Com:  0.812D+00
 Coeff-En:   0.000D+00 0.000D+00 0.000D+00 0.000D+00 0.000D+00 0.000D+00
 Coeff-En:   0.100D+01
 Coeff:      0.316D-02-0.570D-02-0.458D-01-0.109D+00-0.906D-01 0.435D+00
 Coeff:      0.812D+00
 Gap=     0.347 Goal=   None    Shift=    0.000
 Gap=     0.293 Goal=   None    Shift=    0.000
 RMSDP=1.90D-05 MaxDP=7.11D-04 DE=-6.38D-05 OVMax= 3.97D-03

 Cycle   8  Pass 0  IDiag  1:
 RMSU=  5.72D-06    CP:  1.00D+00  1.03D+00  1.04D+00  9.97D-01  1.69D+00
                    CP:  1.51D+00  1.06D+00
 E= -269.980596671308     Delta-E=       -0.000016940229 Rises=F Damp=F
 DIIS: error= 3.55D-05 at cycle   8 NSaved=   8.
 NSaved= 8 IEnMin= 8 EnMin= -269.980596671308     IErMin= 8 ErrMin= 3.55D-05
 ErrMax= 3.55D-05  0.00D+00 EMaxC= 1.00D-01 BMatC= 2.03D-06 BMatP= 3.61D-05
 IDIUse=1 WtCom= 1.00D+00 WtEn= 0.00D+00
 Coeff-Com: -0.635D-03 0.221D-02 0.581D-02-0.147D-02-0.276D-01-0.528D-01
 Coeff-Com:  0.679D-01 0.101D+01
 Coeff:     -0.635D-03 0.221D-02 0.581D-02-0.147D-02-0.276D-01-0.528D-01
 Coeff:      0.679D-01 0.101D+01
 Gap=     0.347 Goal=   None    Shift=    0.000
 Gap=     0.294 Goal=   None    Shift=    0.000
 RMSDP=4.88D-06 MaxDP=2.22D-04 DE=-1.69D-05 OVMax= 1.17D-03

 Initial convergence to 1.0D-05 achieved.  Increase integral accuracy.
 Cycle   9  Pass 1  IDiag  1:
 E= -269.980592777794     Delta-E=        0.000003893515 Rises=F Damp=F
 DIIS: error= 2.27D-05 at cycle   1 NSaved=   1.
 NSaved= 1 IEnMin= 1 EnMin= -269.980592777794     IErMin= 1 ErrMin= 2.27D-05
 ErrMax= 2.27D-05  0.00D+00 EMaxC= 1.00D-01 BMatC= 1.94D-06 BMatP= 1.94D-06
 IDIUse=1 WtCom= 1.00D+00 WtEn= 0.00D+00
 Coeff-Com:  0.100D+01
 Coeff:      0.100D+01
 Gap=     0.347 Goal=   None    Shift=    0.000
 Gap=     0.293 Goal=   None    Shift=    0.000
 RMSDP=4.88D-06 MaxDP=2.22D-04 DE= 3.89D-06 OVMax= 5.36D-04

 Cycle  10  Pass 1  IDiag  1:
 RMSU=  5.05D-06    CP:  1.00D+00
 E= -269.980593294698     Delta-E=       -0.000000516904 Rises=F Damp=F
 DIIS: error= 1.75D-05 at cycle   2 NSaved=   2.
 NSaved= 2 IEnMin= 2 EnMin= -269.980593294698     IErMin= 2 ErrMin= 1.75D-05
 ErrMax= 1.75D-05  0.00D+00 EMaxC= 1.00D-01 BMatC= 5.50D-07 BMatP= 1.94D-06
 IDIUse=1 WtCom= 1.00D+00 WtEn= 0.00D+00
 Coeff-Com:  0.266D+00 0.734D+00
 Coeff:      0.266D+00 0.734D+00
 Gap=     0.347 Goal=   None    Shift=    0.000
 Gap=     0.293 Goal=   None    Shift=    0.000
 RMSDP=1.32D-06 MaxDP=8.07D-05 DE=-5.17D-07 OVMax= 4.03D-04

 Cycle  11  Pass 1  IDiag  1:
 RMSU=  1.31D-06    CP:  1.00D+00  1.03D+00
 E= -269.980593474773     Delta-E=       -0.000000180075 Rises=F Damp=F
 DIIS: error= 1.16D-05 at cycle   3 NSaved=   3.
 NSaved= 3 IEnMin= 3 EnMin= -269.980593474773     IErMin= 3 ErrMin= 1.16D-05
 ErrMax= 1.16D-05  0.00D+00 EMaxC= 1.00D-01 BMatC= 2.30D-07 BMatP= 5.50D-07
 IDIUse=1 WtCom= 1.00D+00 WtEn= 0.00D+00
 Coeff-Com: -0.714D-01 0.348D+00 0.723D+00
 Coeff:     -0.714D-01 0.348D+00 0.723D+00
 Gap=     0.347 Goal=   None    Shift=    0.000
 Gap=     0.293 Goal=   None    Shift=    0.000
 RMSDP=9.95D-07 MaxDP=4.05D-05 DE=-1.80D-07 OVMax= 2.28D-04

 Cycle  12  Pass 1  IDiag  1:
 RMSU=  8.02D-07    CP:  1.00D+00  1.15D+00  1.07D+00
 E= -269.980593571480     Delta-E=       -0.000000096707 Rises=F Damp=F
 DIIS: error= 5.90D-06 at cycle   4 NSaved=   4.
 NSaved= 4 IEnMin= 4 EnMin= -269.980593571480     IErMin= 4 ErrMin= 5.90D-06
 ErrMax= 5.90D-06  0.00D+00 EMaxC= 1.00D-01 BMatC= 2.84D-08 BMatP= 2.30D-07
 IDIUse=1 WtCom= 1.00D+00 WtEn= 0.00D+00
 Coeff-Com: -0.501D-01-0.559D-02 0.699D-01 0.986D+00
 Coeff:     -0.501D-01-0.559D-02 0.699D-01 0.986D+00
 Gap=     0.347 Goal=   None    Shift=    0.000
 Gap=     0.293 Goal=   None    Shift=    0.000
 RMSDP=6.61D-07 MaxDP=4.91D-05 DE=-9.67D-08 OVMax= 2.50D-04

 Cycle  13  Pass 1  IDiag  1:
 RMSU=  2.99D-07    CP:  1.00D+00  1.20D+00  1.33D+00  1.49D+00
 E= -269.980593605113     Delta-E=       -0.000000033633 Rises=F Damp=F
 DIIS: error= 3.23D-06 at cycle   5 NSaved=   5.
 NSaved= 5 IEnMin= 5 EnMin= -269.980593605113     IErMin= 5 ErrMin= 3.23D-06
 ErrMax= 3.23D-06  0.00D+00 EMaxC= 1.00D-01 BMatC= 2.22D-08 BMatP= 2.84D-08
 IDIUse=1 WtCom= 1.00D+00 WtEn= 0.00D+00
 Coeff-Com:  0.130D-01-0.193D+00-0.422D+00 0.637D+00 0.965D+00
 Coeff:      0.130D-01-0.193D+00-0.422D+00 0.637D+00 0.965D+00
 Gap=     0.347 Goal=   None    Shift=    0.000
 Gap=     0.293 Goal=   None    Shift=    0.000
 RMSDP=7.27D-07 MaxDP=4.21D-05 DE=-3.36D-08 OVMax= 2.43D-04

 Cycle  14  Pass 1  IDiag  1:
 RMSU=  1.52D-07    CP:  1.00D+00  1.25D+00  1.59D+00  2.19D+00  1.22D+00
 E= -269.980593624432     Delta-E=       -0.000000019319 Rises=F Damp=F
 DIIS: error= 1.29D-06 at cycle   6 NSaved=   6.
 NSaved= 6 IEnMin= 6 EnMin= -269.980593624432     IErMin= 6 ErrMin= 1.29D-06
 ErrMax= 1.29D-06  0.00D+00 EMaxC= 1.00D-01 BMatC= 2.69D-09 BMatP= 2.22D-08
 IDIUse=1 WtCom= 1.00D+00 WtEn= 0.00D+00
 Coeff-Com:  0.129D-01-0.935D-01-0.219D+00 0.193D+00 0.476D+00 0.630D+00
 Coeff:      0.129D-01-0.935D-01-0.219D+00 0.193D+00 0.476D+00 0.630D+00
 Gap=     0.347 Goal=   None    Shift=    0.000
 Gap=     0.293 Goal=   None    Shift=    0.000
 RMSDP=1.54D-07 MaxDP=9.83D-06 DE=-1.93D-08 OVMax= 4.79D-05

 Cycle  15  Pass 1  IDiag  1:
 RMSU=  6.42D-08    CP:  1.00D+00  1.26D+00  1.64D+00  2.32D+00  1.38D+00
                    CP:  1.11D+00
 E= -269.980593625950     Delta-E=       -0.000000001517 Rises=F Damp=F
 DIIS: error= 6.29D-07 at cycle   7 NSaved=   7.
 NSaved= 7 IEnMin= 7 EnMin= -269.980593625950     IErMin= 7 ErrMin= 6.29D-07
 ErrMax= 6.29D-07  0.00D+00 EMaxC= 1.00D-01 BMatC= 4.40D-10 BMatP= 2.69D-09
 IDIUse=1 WtCom= 1.00D+00 WtEn= 0.00D+00
 Coeff-Com: -0.144D-02 0.368D-01 0.801D-01-0.154D+00-0.167D+00 0.156D+00
 Coeff-Com:  0.105D+01
 Coeff:     -0.144D-02 0.368D-01 0.801D-01-0.154D+00-0.167D+00 0.156D+00
 Coeff:      0.105D+01
 Gap=     0.347 Goal=   None    Shift=    0.000
 Gap=     0.293 Goal=   None    Shift=    0.000
 RMSDP=9.93D-08 MaxDP=6.15D-06 DE=-1.52D-09 OVMax= 2.96D-05

 Cycle  16  Pass 1  IDiag  1:
 RMSU=  3.69D-08    CP:  1.00D+00  1.26D+00  1.67D+00  2.37D+00  1.52D+00
                    CP:  1.44D+00  1.40D+00
 E= -269.980593626473     Delta-E=       -0.000000000524 Rises=F Damp=F
 DIIS: error= 2.83D-07 at cycle   8 NSaved=   8.
 NSaved= 8 IEnMin= 8 EnMin= -269.980593626473     IErMin= 8 ErrMin= 2.83D-07
 ErrMax= 2.83D-07  0.00D+00 EMaxC= 1.00D-01 BMatC= 7.85D-11 BMatP= 4.40D-10
 IDIUse=1 WtCom= 1.00D+00 WtEn= 0.00D+00
 Coeff-Com: -0.302D-02 0.256D-01 0.630D-01-0.684D-01-0.131D+00-0.120D+00
 Coeff-Com:  0.842D-01 0.115D+01
 Coeff:     -0.302D-02 0.256D-01 0.630D-01-0.684D-01-0.131D+00-0.120D+00
 Coeff:      0.842D-01 0.115D+01
 Gap=     0.347 Goal=   None    Shift=    0.000
 Gap=     0.293 Goal=   None    Shift=    0.000
 RMSDP=5.75D-08 MaxDP=3.13D-06 DE=-5.24D-10 OVMax= 1.81D-05

 Cycle  17  Pass 1  IDiag  1:
 RMSU=  1.43D-08    CP:  1.00D+00  1.26D+00  1.68D+00  2.39D+00  1.58D+00
                    CP:  1.63D+00  1.81D+00  1.61D+00
 E= -269.980593626614     Delta-E=       -0.000000000140 Rises=F Damp=F
 DIIS: error= 1.25D-07 at cycle   9 NSaved=   9.
 NSaved= 9 IEnMin= 9 EnMin= -269.980593626614     IErMin= 9 ErrMin= 1.25D-07
 ErrMax= 1.25D-07  0.00D+00 EMaxC= 1.00D-01 BMatC= 1.54D-11 BMatP= 7.85D-11
 IDIUse=1 WtCom= 1.00D+00 WtEn= 0.00D+00
 Coeff-Com: -0.258D-03-0.265D-02-0.206D-02 0.137D-01 0.102D-01-0.439D-01
 Coeff-Com: -0.204D+00 0.219D+00 0.101D+01
 Coeff:     -0.258D-03-0.265D-02-0.206D-02 0.137D-01 0.102D-01-0.439D-01
 Coeff:     -0.204D+00 0.219D+00 0.101D+01
 Gap=     0.347 Goal=   None    Shift=    0.000
 Gap=     0.293 Goal=   None    Shift=    0.000
 RMSDP=2.21D-08 MaxDP=9.73D-07 DE=-1.40D-10 OVMax= 6.76D-06

 Cycle  18  Pass 1  IDiag  1:
 RMSU=  5.75D-09    CP:  1.00D+00  1.27D+00  1.69D+00  2.40D+00  1.60D+00
                    CP:  1.69D+00  1.96D+00  1.98D+00  1.26D+00
 E= -269.980593626625     Delta-E=       -0.000000000012 Rises=F Damp=F
 DIIS: error= 3.78D-08 at cycle  10 NSaved=  10.
 NSaved=10 IEnMin=10 EnMin= -269.980593626625     IErMin=10 ErrMin= 3.78D-08
 ErrMax= 3.78D-08  0.00D+00 EMaxC= 1.00D-01 BMatC= 2.34D-12 BMatP= 1.54D-11
 IDIUse=1 WtCom= 1.00D+00 WtEn= 0.00D+00
 Coeff-Com:  0.354D-03-0.479D-02-0.972D-02 0.138D-01 0.236D-01 0.725D-02
 Coeff-Com: -0.824D-01-0.108D+00 0.318D+00 0.842D+00
 Coeff:      0.354D-03-0.479D-02-0.972D-02 0.138D-01 0.236D-01 0.725D-02
 Coeff:     -0.824D-01-0.108D+00 0.318D+00 0.842D+00
 Gap=     0.347 Goal=   None    Shift=    0.000
 Gap=     0.293 Goal=   None    Shift=    0.000
 RMSDP=6.47D-09 MaxDP=2.46D-07 DE=-1.17D-11 OVMax= 2.07D-06

 SCF Done:  E(UM062X) =  -269.980593627     A.U. after   18 cycles
            NFock= 18  Conv=0.65D-08     -V/T= 2.0054
 <Sx>= 0.0000 <Sy>= 0.0000 <Sz>= 0.5000 <S**2>= 0.7596 S= 0.5048
 <L.S>= 0.000000000000E+00
 KE= 2.685238842084D+02 PE=-1.016792257044D+03 EE= 2.860036006572D+02
 Annihilation of the first spin contaminant:
 S**2 before annihilation     0.7596,   after     0.7500
 Leave Link  502 at Thu Sep  5 19:12:34 2019, MaxMem=   671088640 cpu:            2071.6 elap:            1036.1
 (Enter /shared/centos7/gaussian/g16/l801.exe)
 DoSCS=F DFT=T ScalE2(SS,OS)=  1.000000  1.000000
 Range of M.O.s used for correlation:     1   276
 NBasis=   276 NAE=    22 NBE=    21 NFC=     0 NFV=     0
 NROrb=    276 NOA=    22 NOB=    21 NVA=   254 NVB=   255

 **** Warning!!: The largest alpha MO coefficient is  0.12166985D+02


 **** Warning!!: The largest beta MO coefficient is  0.12164372D+02

 Leave Link  801 at Thu Sep  5 19:12:34 2019, MaxMem=   671088640 cpu:               1.6 elap:               0.8
 (Enter /shared/centos7/gaussian/g16/l1101.exe)
 Using compressed storage, NAtomX=    14.
 Will process     15 centers per pass.
 Leave Link 1101 at Thu Sep  5 19:12:59 2019, MaxMem=   671088640 cpu:              49.8 elap:              24.9
 (Enter /shared/centos7/gaussian/g16/l1102.exe)
 Symmetrizing basis deriv contribution to polar:
 IMax=3 JMax=2 DiffMx= 0.00D+00
 Leave Link 1102 at Thu Sep  5 19:13:02 2019, MaxMem=   671088640 cpu:               4.9 elap:               2.5
 (Enter /shared/centos7/gaussian/g16/l1110.exe)
 Forming Gx(P) for the SCF density, NAtomX=    14.
 Integral derivatives from FoFJK, PRISM(SPDF).
 Do as many integral derivatives as possible in FoFJK.
 G2DrvN: MDV=     671087496.
 G2DrvN: will do    15 centers at a time, making    1 passes.
 Calling FoFCou, ICntrl=  3107 FMM=F I1Cent=   0 AccDes= 0.00D+00.
 FoFJK:  IHMeth= 1 ICntrl=    3107 DoSepK=F KAlg= 0 I1Cent=           0 FoldK=F
 IRaf=         0 NMat=       1 IRICut=       1 DoRegI=T DoRafI=F ISym2E= 0 IDoP0=0 IntGTp=1.
 FoFCou: FMM=F IPFlag=           0 FMFlag=      100000 FMFlg1=           0
         NFxFlg=           0 DoJE=F BraDBF=F KetDBF=F FulRan=T
         wScrn=  0.000000 ICntrl=      3107 IOpCl=  1 I1Cent=           0 NGrid=           0
         NMat0=    1 NMatS0=      1 NMatT0=    0 NMatD0=    1 NMtDS0=    0 NMtDT0=    0
 Symmetry not used in FoFCou.
 End of G2Drv F.D. properties file   721 does not exist.
 End of G2Drv F.D. properties file   722 does not exist.
 End of G2Drv F.D. properties file   788 does not exist.
 Leave Link 1110 at Thu Sep  5 19:31:46 2019, MaxMem=   671088640 cpu:            2247.4 elap:            1123.9
 (Enter /shared/centos7/gaussian/g16/l1002.exe)
 Minotr:  UHF open shell wavefunction.
          IDoAtm=11111111111111
          Direct CPHF calculation.
          Differentiating once with respect to nuclear coordinates.
          Requested convergence is 1.0D-08 RMS, and 1.0D-07 maximum.
          Secondary convergence is 1.0D-12 RMS, and 1.0D-12 maximum.
          NewPWx=T KeepS1=F KeepF1=F KeepIn=T MapXYZ=F SortEE=F KeepMc=T.
         4166 words used for storage of precomputed grid.
 Two-electron integrals replicated using symmetry.
          MDV=     671088640 using IRadAn=       1.
          Solving linear equations simultaneously, MaxMat=     380.
 FoF2E skips out because all densities are zero.
 CalDSu exits because no D1Ps are significant.
 FoFJK:  IHMeth= 1 ICntrl=       0 DoSepK=F KAlg= 0 I1Cent=           0 FoldK=F
 IRaf= 970000000 NMat=      42 IRICut=     105 DoRegI=T DoRafI=T ISym2E= 2 IDoP0=3 IntGTp=3.
 FoFCou: FMM=F IPFlag=           0 FMFlag=      100000 FMFlg1=           0
         NFxFlg=           0 DoJE=F BraDBF=F KetDBF=F FulRan=T
         wScrn=  0.000000 ICntrl=         0 IOpCl=  1 I1Cent=           0 NGrid=           0
         NMat0=   42 NMatS0=     42 NMatT0=    0 NMatD0=   42 NMtDS0=    0 NMtDT0=    0
 Integrals replicated using symmetry in FoFCou.
 Raff kept on since  95.55% of shell-pairs survive, threshold=   0.20 IRatSp=96.
          There are    45 degrees of freedom in the 1st order CPHF.  IDoFFX=6 NUNeed=     0.
     39 vectors produced by pass  0 Test12= 2.43D-14 2.22D-09 XBig12= 1.29D-01 1.09D-01.
 AX will form    39 AO Fock derivatives at one time.
     39 vectors produced by pass  1 Test12= 2.43D-14 2.22D-09 XBig12= 1.75D-02 2.53D-02.
     39 vectors produced by pass  2 Test12= 2.43D-14 2.22D-09 XBig12= 1.13D-03 5.50D-03.
     39 vectors produced by pass  3 Test12= 2.43D-14 2.22D-09 XBig12= 1.24D-05 5.53D-04.
     39 vectors produced by pass  4 Test12= 2.43D-14 2.22D-09 XBig12= 1.86D-07 8.83D-05.
     39 vectors produced by pass  5 Test12= 2.43D-14 2.22D-09 XBig12= 2.08D-09 5.43D-06.
     35 vectors produced by pass  6 Test12= 2.43D-14 2.22D-09 XBig12= 2.03D-11 5.29D-07.
     15 vectors produced by pass  7 Test12= 2.43D-14 2.22D-09 XBig12= 1.28D-13 3.53D-08.
 InvSVY:  IOpt=1 It=  1 EMax= 1.33D-15
 Solved reduced A of dimension   284 with    39 vectors.
 End of Minotr F.D. properties file   721 does not exist.
 End of Minotr F.D. properties file   722 does not exist.
 End of Minotr F.D. properties file   788 does not exist.
 Leave Link 1002 at Thu Sep  5 20:04:55 2019, MaxMem=   671088640 cpu:            3978.2 elap:            1989.4
 (Enter /shared/centos7/gaussian/g16/l601.exe)
 Copying SCF densities to generalized density rwf, IOpCl= 1 IROHF=0.

 **********************************************************************

            Population analysis using the SCF density.

 **********************************************************************

 Orbital symmetries:
 Alpha Orbitals:
       Occupied  (A) (A) (A) (A) (A) (A) (A) (A) (A) (A) (A) (A)
                 (A) (A) (A) (A) (A) (A) (A) (A) (A) (A)
       Virtual   (A) (A) (A) (A) (A) (A) (A) (A) (A) (A) (A) (A)
                 (A) (A) (A) (A) (A) (A) (A) (A) (A) (A) (A) (A)
                 (A) (A) (A) (A) (A) (A) (A) (A) (A) (A) (A) (A)
                 (A) (A) (A) (A) (A) (A) (A) (A) (A) (A) (A) (A)
                 (A) (A) (A) (A) (A) (A) (A) (A) (A) (A) (A) (A)
                 (A) (A) (A) (A) (A) (A) (A) (A) (A) (A) (A) (A)
                 (A) (A) (A) (A) (A) (A) (A) (A) (A) (A) (A) (A)
                 (A) (A) (A) (A) (A) (A) (A) (A) (A) (A) (A) (A)
                 (A) (A) (A) (A) (A) (A) (A) (A) (A) (A) (A) (A)
                 (A) (A) (A) (A) (A) (A) (A) (A) (A) (A) (A) (A)
                 (A) (A) (A) (A) (A) (A) (A) (A) (A) (A) (A) (A)
                 (A) (A) (A) (A) (A) (A) (A) (A) (A) (A) (A) (A)
                 (A) (A) (A) (A) (A) (A) (A) (A) (A) (A) (A) (A)
                 (A) (A) (A) (A) (A) (A) (A) (A) (A) (A) (A) (A)
                 (A) (A) (A) (A) (A) (A) (A) (A) (A) (A) (A) (A)
                 (A) (A) (A) (A) (A) (A) (A) (A) (A) (A) (A) (A)
                 (A) (A) (A) (A) (A) (A) (A) (A) (A) (A) (A) (A)
                 (A) (A) (A) (A) (A) (A) (A) (A) (A) (A) (A) (A)
                 (A) (A) (A) (A) (A) (A) (A) (A) (A) (A) (A) (A)
                 (A) (A) (A) (A) (A) (A) (A) (A) (A) (A) (A) (A)
                 (A) (A) (A) (A) (A) (A) (A) (A) (A) (A) (A) (A)
                 (A) (A)
 Beta  Orbitals:
       Occupied  (A) (A) (A) (A) (A) (A) (A) (A) (A) (A) (A) (A)
                 (A) (A) (A) (A) (A) (A) (A) (A) (A)
       Virtual   (A) (A) (A) (A) (A) (A) (A) (A) (A) (A) (A) (A)
                 (A) (A) (A) (A) (A) (A) (A) (A) (A) (A) (A) (A)
                 (A) (A) (A) (A) (A) (A) (A) (A) (A) (A) (A) (A)
                 (A) (A) (A) (A) (A) (A) (A) (A) (A) (A) (A) (A)
                 (A) (A) (A) (A) (A) (A) (A) (A) (A) (A) (A) (A)
                 (A) (A) (A) (A) (A) (A) (A) (A) (A) (A) (A) (A)
                 (A) (A) (A) (A) (A) (A) (A) (A) (A) (A) (A) (A)
                 (A) (A) (A) (A) (A) (A) (A) (A) (A) (A) (A) (A)
                 (A) (A) (A) (A) (A) (A) (A) (A) (A) (A) (A) (A)
                 (A) (A) (A) (A) (A) (A) (A) (A) (A) (A) (A) (A)
                 (A) (A) (A) (A) (A) (A) (A) (A) (A) (A) (A) (A)
                 (A) (A) (A) (A) (A) (A) (A) (A) (A) (A) (A) (A)
                 (A) (A) (A) (A) (A) (A) (A) (A) (A) (A) (A) (A)
                 (A) (A) (A) (A) (A) (A) (A) (A) (A) (A) (A) (A)
                 (A) (A) (A) (A) (A) (A) (A) (A) (A) (A) (A) (A)
                 (A) (A) (A) (A) (A) (A) (A) (A) (A) (A) (A) (A)
                 (A) (A) (A) (A) (A) (A) (A) (A) (A) (A) (A) (A)
                 (A) (A) (A) (A) (A) (A) (A) (A) (A) (A) (A) (A)
                 (A) (A) (A) (A) (A) (A) (A) (A) (A) (A) (A) (A)
                 (A) (A) (A) (A) (A) (A) (A) (A) (A) (A) (A) (A)
                 (A) (A) (A) (A) (A) (A) (A) (A) (A) (A) (A) (A)
                 (A) (A) (A)
 The electronic state is 2-A.
 Alpha  occ. eigenvalues --  -19.68756 -19.68408 -10.55215 -10.53625 -10.51607
 Alpha  occ. eigenvalues --   -1.26625  -0.99232  -0.89044  -0.77803  -0.67689
 Alpha  occ. eigenvalues --   -0.62025  -0.59086  -0.52887  -0.52025  -0.50605
 Alpha  occ. eigenvalues --   -0.47486  -0.42061  -0.41182  -0.40456  -0.39671
 Alpha  occ. eigenvalues --   -0.37588  -0.28635
 Alpha virt. eigenvalues --    0.06060   0.08388   0.10543   0.11311   0.13302
 Alpha virt. eigenvalues --    0.14746   0.14906   0.16786   0.18623   0.19733
 Alpha virt. eigenvalues --    0.24364   0.26973   0.28475   0.29730   0.30174
 Alpha virt. eigenvalues --    0.32709   0.34319   0.39339   0.42061   0.43633
 Alpha virt. eigenvalues --    0.45689   0.46215   0.48210   0.48761   0.50201
 Alpha virt. eigenvalues --    0.50625   0.51564   0.52464   0.53699   0.54519
 Alpha virt. eigenvalues --    0.56567   0.58237   0.62446   0.64780   0.65391
 Alpha virt. eigenvalues --    0.68352   0.70747   0.72190   0.74160   0.74876
 Alpha virt. eigenvalues --    0.78113   0.80732   0.84134   0.87754   0.89129
 Alpha virt. eigenvalues --    0.90273   0.93325   0.96403   0.99152   1.01064
 Alpha virt. eigenvalues --    1.02799   1.05138   1.06083   1.08906   1.09561
 Alpha virt. eigenvalues --    1.12051   1.13455   1.15870   1.17892   1.18373
 Alpha virt. eigenvalues --    1.20538   1.21247   1.22101   1.24548   1.25801
 Alpha virt. eigenvalues --    1.31747   1.32301   1.33510   1.35272   1.35873
 Alpha virt. eigenvalues --    1.37415   1.42626   1.43287   1.44780   1.46985
 Alpha virt. eigenvalues --    1.48558   1.50630   1.54370   1.55516   1.57556
 Alpha virt. eigenvalues --    1.61804   1.65179   1.65580   1.73432   1.76752
 Alpha virt. eigenvalues --    1.79288   1.93186   1.97007   2.05772   2.12112
 Alpha virt. eigenvalues --    2.18815   2.20736   2.23759   2.26279   2.26853
 Alpha virt. eigenvalues --    2.34377   2.36911   2.38625   2.43176   2.48041
 Alpha virt. eigenvalues --    2.49897   2.53095   2.55680   2.56928   2.60569
 Alpha virt. eigenvalues --    2.64824   2.65177   2.66574   2.68169   2.71909
 Alpha virt. eigenvalues --    2.74678   2.80140   2.83703   2.85111   2.86502
 Alpha virt. eigenvalues --    2.87456   2.92444   2.97451   2.99812   3.00231
 Alpha virt. eigenvalues --    3.03145   3.03638   3.06513   3.07222   3.10438
 Alpha virt. eigenvalues --    3.12031   3.12608   3.15229   3.15646   3.17884
 Alpha virt. eigenvalues --    3.20810   3.23436   3.25518   3.27077   3.28240
 Alpha virt. eigenvalues --    3.31459   3.33160   3.35119   3.36630   3.38887
 Alpha virt. eigenvalues --    3.41345   3.41994   3.44735   3.45155   3.48246
 Alpha virt. eigenvalues --    3.48644   3.53563   3.55331   3.57407   3.58209
 Alpha virt. eigenvalues --    3.60833   3.67253   3.69734   3.71459   3.73287
 Alpha virt. eigenvalues --    3.75279   3.76410   3.78155   3.78668   3.80340
 Alpha virt. eigenvalues --    3.81892   3.83481   3.84917   3.86908   3.90527
 Alpha virt. eigenvalues --    3.91147   3.92986   3.95697   3.96239   3.97780
 Alpha virt. eigenvalues --    4.00855   4.03031   4.05033   4.07453   4.08466
 Alpha virt. eigenvalues --    4.09962   4.10857   4.12243   4.14071   4.16054
 Alpha virt. eigenvalues --    4.18849   4.21377   4.23807   4.26852   4.27151
 Alpha virt. eigenvalues --    4.30811   4.33901   4.34890   4.41381   4.42110
 Alpha virt. eigenvalues --    4.44315   4.52257   4.56919   4.57849   4.60753
 Alpha virt. eigenvalues --    4.72124   4.73297   4.76611   4.80101   4.81449
 Alpha virt. eigenvalues --    4.84404   4.86246   4.88254   4.93198   4.93378
 Alpha virt. eigenvalues --    4.95593   5.01446   5.01887   5.05014   5.08277
 Alpha virt. eigenvalues --    5.10141   5.13240   5.13770   5.15876   5.25089
 Alpha virt. eigenvalues --    5.29836   5.31330   5.32166   5.33481   5.37507
 Alpha virt. eigenvalues --    5.41941   5.43778   5.46527   5.48068   5.55842
 Alpha virt. eigenvalues --    5.60132   5.72344   5.78446   5.82530   5.82681
 Alpha virt. eigenvalues --    5.91862   5.94878   6.13186   6.19048   6.32710
 Alpha virt. eigenvalues --    6.36098   6.39000   6.48563   6.55596   6.59499
 Alpha virt. eigenvalues --    6.62475   6.69619   6.71924   6.86269   6.88625
 Alpha virt. eigenvalues --    7.15111   7.20994   7.46490   7.59833  10.01301
 Alpha virt. eigenvalues --   11.28746  12.16086  12.83119  13.50201
  Beta  occ. eigenvalues --  -19.68625 -19.67484 -10.54677 -10.53650 -10.51605
  Beta  occ. eigenvalues --   -1.25049  -0.96916  -0.88181  -0.76539  -0.66687
  Beta  occ. eigenvalues --   -0.60849  -0.55989  -0.52043  -0.50400  -0.49387
  Beta  occ. eigenvalues --   -0.46879  -0.40998  -0.40710  -0.40063  -0.36246
  Beta  occ. eigenvalues --   -0.36217
  Beta virt. eigenvalues --   -0.06881   0.06062   0.08259   0.10475   0.11329
  Beta virt. eigenvalues --    0.13340   0.14995   0.15322   0.16870   0.18593
  Beta virt. eigenvalues --    0.19935   0.24810   0.27312   0.28505   0.29835
  Beta virt. eigenvalues --    0.30181   0.32890   0.34454   0.39551   0.42346
  Beta virt. eigenvalues --    0.43822   0.46170   0.46594   0.48798   0.49609
  Beta virt. eigenvalues --    0.50428   0.51058   0.52382   0.53064   0.53745
  Beta virt. eigenvalues --    0.54991   0.56766   0.58730   0.63011   0.65037
  Beta virt. eigenvalues --    0.65569   0.68542   0.71038   0.72343   0.74251
  Beta virt. eigenvalues --    0.75122   0.78383   0.80813   0.84202   0.87832
  Beta virt. eigenvalues --    0.89322   0.90566   0.93493   0.96506   0.99235
  Beta virt. eigenvalues --    1.01194   1.02807   1.05124   1.06337   1.09153
  Beta virt. eigenvalues --    1.09651   1.12107   1.13626   1.16138   1.18028
  Beta virt. eigenvalues --    1.18802   1.20618   1.21422   1.22289   1.24876
  Beta virt. eigenvalues --    1.26461   1.31992   1.32497   1.33848   1.35476
  Beta virt. eigenvalues --    1.36140   1.37791   1.42930   1.43497   1.44993
  Beta virt. eigenvalues --    1.47372   1.48707   1.50977   1.55258   1.55825
  Beta virt. eigenvalues --    1.57995   1.62059   1.65479   1.66294   1.73841
  Beta virt. eigenvalues --    1.77387   1.80077   1.93570   1.98117   2.06192
  Beta virt. eigenvalues --    2.12805   2.19323   2.21121   2.23963   2.26562
  Beta virt. eigenvalues --    2.27176   2.35158   2.37445   2.39040   2.43840
  Beta virt. eigenvalues --    2.48527   2.50290   2.53857   2.56541   2.57092
  Beta virt. eigenvalues --    2.61600   2.65175   2.65969   2.68116   2.68854
  Beta virt. eigenvalues --    2.72690   2.76328   2.80479   2.84128   2.86094
  Beta virt. eigenvalues --    2.87489   2.88303   2.93474   2.97835   3.01152
  Beta virt. eigenvalues --    3.01727   3.04311   3.05489   3.06851   3.08902
  Beta virt. eigenvalues --    3.11536   3.12827   3.13665   3.15638   3.17243
  Beta virt. eigenvalues --    3.18956   3.21731   3.24046   3.25643   3.27242
  Beta virt. eigenvalues --    3.28615   3.31989   3.33636   3.35547   3.38005
  Beta virt. eigenvalues --    3.39719   3.42145   3.42336   3.45366   3.45496
  Beta virt. eigenvalues --    3.48482   3.48903   3.54015   3.55681   3.58275
  Beta virt. eigenvalues --    3.58534   3.61378   3.67936   3.70183   3.71536
  Beta virt. eigenvalues --    3.73572   3.75501   3.76837   3.78292   3.79426
  Beta virt. eigenvalues --    3.80763   3.82117   3.83883   3.85047   3.87355
  Beta virt. eigenvalues --    3.90828   3.91456   3.93363   3.95905   3.96238
  Beta virt. eigenvalues --    3.98445   4.01020   4.03312   4.05551   4.07690
  Beta virt. eigenvalues --    4.09220   4.10277   4.11301   4.12742   4.14570
  Beta virt. eigenvalues --    4.16082   4.19397   4.21773   4.23880   4.27107
  Beta virt. eigenvalues --    4.27865   4.31511   4.34051   4.35437   4.41817
  Beta virt. eigenvalues --    4.43297   4.45159   4.52817   4.57656   4.58645
  Beta virt. eigenvalues --    4.61791   4.72762   4.74092   4.77547   4.80689
  Beta virt. eigenvalues --    4.82008   4.84758   4.86665   4.89314   4.93917
  Beta virt. eigenvalues --    4.94625   4.96522   5.02219   5.03474   5.05749
  Beta virt. eigenvalues --    5.09552   5.11428   5.13590   5.14635   5.16368
  Beta virt. eigenvalues --    5.26783   5.30510   5.31879   5.32397   5.34505
  Beta virt. eigenvalues --    5.38285   5.42731   5.45734   5.47792   5.48835
  Beta virt. eigenvalues --    5.57811   5.61086   5.73085   5.81308   5.82692
  Beta virt. eigenvalues --    5.84843   5.91538   5.95138   6.13745   6.21443
  Beta virt. eigenvalues --    6.33226   6.36600   6.39259   6.49317   6.56859
  Beta virt. eigenvalues --    6.60168   6.63928   6.71667   6.72490   6.86689
  Beta virt. eigenvalues --    6.89960   7.15102   7.21730   7.46822   7.59869
  Beta virt. eigenvalues --   10.02136  11.28905  12.16942  12.83735  13.50191
          Condensed to atoms (all electrons):
               1          2          3          4          5          6
     1  O    7.904421   0.045932  -0.005081   0.000328  -0.005402   0.015713
     2  O    0.045932   8.114006  -0.008334  -0.083672   0.002391  -0.002954
     3  C   -0.005081  -0.008334   5.074988   0.283142   0.308150   0.392718
     4  C    0.000328  -0.083672   0.283142   5.315753  -0.055782  -0.041889
     5  C   -0.005402   0.002391   0.308150  -0.055782   4.967749  -0.037832
     6  H    0.015713  -0.002954   0.392718  -0.041889  -0.037832   0.562839
     7  H    0.000510  -0.000277   0.401700  -0.041558  -0.037101  -0.034465
     8  H   -0.021832   0.186424  -0.005733   0.207555  -0.003138  -0.004229
     9  H   -0.000550   0.001633  -0.040936   0.393957   0.007393  -0.001729
    10  H    0.001093  -0.001635  -0.042613   0.392503  -0.004499   0.007187
    11  H    0.003497   0.005970  -0.033921  -0.001983   0.403039  -0.006715
    12  H   -0.000464   0.000613  -0.039091   0.008629   0.403169  -0.004514
    13  H    0.000202  -0.000846  -0.038823  -0.007195   0.399914   0.007735
    14  H    0.307783  -0.026700  -0.001036   0.001395   0.000439  -0.000828
               7          8          9         10         11         12
     1  O    0.000510  -0.021832  -0.000550   0.001093   0.003497  -0.000464
     2  O   -0.000277   0.186424   0.001633  -0.001635   0.005970   0.000613
     3  C    0.401700  -0.005733  -0.040936  -0.042613  -0.033921  -0.039091
     4  C   -0.041558   0.207555   0.393957   0.392503  -0.001983   0.008629
     5  C   -0.037101  -0.003138   0.007393  -0.004499   0.403039   0.403169
     6  H   -0.034465  -0.004229  -0.001729   0.007187  -0.006715  -0.004514
     7  H    0.585379   0.003377  -0.007158  -0.001477   0.007140  -0.006037
     8  H    0.003377   0.430617  -0.013459  -0.008890   0.000635  -0.000387
     9  H   -0.007158  -0.013459   0.550676  -0.030484   0.000029  -0.000316
    10  H   -0.001477  -0.008890  -0.030484   0.540448  -0.000815  -0.000044
    11  H    0.007140   0.000635   0.000029  -0.000815   0.536306  -0.027035
    12  H   -0.006037  -0.000387  -0.000316  -0.000044  -0.027035   0.591708
    13  H   -0.006387   0.000266  -0.000008   0.003933  -0.036253  -0.036690
    14  H   -0.000039  -0.006561   0.000335  -0.000028   0.000218   0.000028
              13         14
     1  O    0.000202   0.307783
     2  O   -0.000846  -0.026700
     3  C   -0.038823  -0.001036
     4  C   -0.007195   0.001395
     5  C    0.399914   0.000439
     6  H    0.007735  -0.000828
     7  H   -0.006387  -0.000039
     8  H    0.000266  -0.006561
     9  H   -0.000008   0.000335
    10  H    0.003933  -0.000028
    11  H   -0.036253   0.000218
    12  H   -0.036690   0.000028
    13  H    0.609442  -0.000031
    14  H   -0.000031   0.453228
          Atomic-Atomic Spin Densities.
               1          2          3          4          5          6
     1  O    0.061021  -0.042528  -0.003650   0.017220  -0.000986  -0.002848
     2  O   -0.042528   0.542906   0.011742  -0.115152   0.001891   0.002071
     3  C   -0.003650   0.011742  -0.035836  -0.044393   0.006404   0.008904
     4  C    0.017220  -0.115152  -0.044393   0.771361  -0.004341  -0.007048
     5  C   -0.000986   0.001891   0.006404  -0.004341  -0.000693   0.001802
     6  H   -0.002848   0.002071   0.008904  -0.007048   0.001802   0.014996
     7  H    0.000456  -0.001200   0.010957  -0.018894  -0.003015  -0.006090
     8  H    0.010538  -0.045017  -0.004483   0.078776  -0.000678   0.000152
     9  H   -0.000808   0.004380   0.005251  -0.009965   0.000008   0.000955
    10  H   -0.000354   0.003507   0.003937  -0.006729   0.000373  -0.000164
    11  H    0.000736  -0.003028  -0.000956   0.002681  -0.000971  -0.000618
    12  H    0.000004  -0.000009   0.000616  -0.000033   0.000036   0.000068
    13  H   -0.000052   0.000362  -0.000285   0.000416   0.000515   0.000244
    14  H   -0.000485  -0.000555   0.000042  -0.000528   0.000032  -0.000005
               7          8          9         10         11         12
     1  O    0.000456   0.010538  -0.000808  -0.000354   0.000736   0.000004
     2  O   -0.001200  -0.045017   0.004380   0.003507  -0.003028  -0.000009
     3  C    0.010957  -0.004483   0.005251   0.003937  -0.000956   0.000616
     4  C   -0.018894   0.078776  -0.009965  -0.006729   0.002681  -0.000033
     5  C   -0.003015  -0.000678   0.000008   0.000373  -0.000971   0.000036
     6  H   -0.006090   0.000152   0.000955  -0.000164  -0.000618   0.000068
     7  H    0.062500   0.001081  -0.003642  -0.001555   0.000858   0.000058
     8  H    0.001081  -0.053732  -0.003081  -0.000328   0.001136   0.000072
     9  H   -0.003642  -0.003081  -0.023777   0.005352  -0.000184   0.000013
    10  H   -0.001555  -0.000328   0.005352  -0.036508  -0.000254  -0.000002
    11  H    0.000858   0.001136  -0.000184  -0.000254   0.004276  -0.000320
    12  H    0.000058   0.000072   0.000013  -0.000002  -0.000320  -0.001217
    13  H   -0.001462  -0.000378   0.000150   0.000456  -0.001089   0.000449
    14  H   -0.000002   0.000134  -0.000012   0.000009  -0.000078  -0.000002
              13         14
     1  O   -0.000052  -0.000485
     2  O    0.000362  -0.000555
     3  C   -0.000285   0.000042
     4  C    0.000416  -0.000528
     5  C    0.000515   0.000032
     6  H    0.000244  -0.000005
     7  H   -0.001462  -0.000002
     8  H   -0.000378   0.000134
     9  H    0.000150  -0.000012
    10  H    0.000456   0.000009
    11  H   -0.001089  -0.000078
    12  H    0.000449  -0.000002
    13  H    0.001421   0.000002
    14  H    0.000002   0.000107
 Mulliken charges and spin densities:
               1          2
     1  O   -0.246150   0.038263
     2  O   -0.232551   0.359371
     3  C   -0.245129  -0.041749
     4  C   -0.371183   0.663372
     5  C   -0.348489   0.000378
     6  H    0.148962   0.012419
     7  H    0.136392   0.040049
     8  H    0.235356  -0.015809
     9  H    0.140616  -0.025360
    10  H    0.145321  -0.032260
    11  H    0.149888   0.002187
    12  H    0.110430  -0.000268
    13  H    0.104742   0.000749
    14  H    0.271795  -0.001342
 Sum of Mulliken charges =  -0.00000   1.00000
 Mulliken charges and spin densities with hydrogens summed into heavy atoms:
               1          2
     1  O    0.025645   0.036921
     2  O    0.002805   0.343562
     3  C    0.040225   0.010719
     4  C   -0.085245   0.605752
     5  C    0.016570   0.003046
 APT charges:
               1
     1  O   -0.647011
     2  O   -0.200437
     3  C   -0.621397
     4  C   -0.852981
     5  C   -1.024444
     6  H    0.267682
     7  H    0.452727
     8  H    0.202404
     9  H    0.420358
    10  H    0.356441
    11  H    0.202246
    12  H    0.429423
    13  H    0.353092
    14  H    0.661897
 Sum of APT charges =  -0.00000
 APT charges with hydrogens summed into heavy atoms:
               1
     1  O    0.014886
     2  O    0.001967
     3  C    0.099012
     4  C   -0.076182
     5  C   -0.039683
 Electronic spatial extent (au):  <R**2>=            551.5951
 Charge=             -0.0000 electrons
 Dipole moment (field-independent basis, Debye):
    X=              0.1335    Y=              1.3331    Z=              1.4323  Tot=              1.9612
 Quadrupole moment (field-independent basis, Debye-Ang):
   XX=            -29.3586   YY=            -32.8198   ZZ=            -32.4329
   XY=             -0.6499   XZ=             -3.7354   YZ=              0.0825
 Traceless Quadrupole moment (field-independent basis, Debye-Ang):
   XX=              2.1785   YY=             -1.2827   ZZ=             -0.8958
   XY=             -0.6499   XZ=             -3.7354   YZ=              0.0825
 Octapole moment (field-independent basis, Debye-Ang**2):
  XXX=            -28.3520  YYY=              0.7121  ZZZ=              1.5166  XYY=             -3.3251
  XXY=             -0.2009  XXZ=             10.3792  XZZ=             -6.0350  YZZ=              0.2265
  YYZ=              0.4472  XYZ=             -1.0054
 Hexadecapole moment (field-independent basis, Debye-Ang**3):
 XXXX=           -358.2514 YYYY=           -200.3151 ZZZZ=           -100.4682 XXXY=              5.0582
 XXXZ=            -25.3821 YYYX=              0.8375 YYYZ=             -0.5449 ZZZX=             -7.2379
 ZZZY=             -4.2278 XXYY=           -104.5535 XXZZ=            -76.6446 YYZZ=            -49.2003
 XXYZ=             -1.1413 YYXZ=              1.3325 ZZXY=              3.1064
 N-N= 1.922841785518D+02 E-N=-1.016792265887D+03  KE= 2.685238842084D+02
  Exact polarizability:   0.000   0.000   0.000   0.000   0.000   0.000
 Approx polarizability:  68.023   8.183  60.980   0.876  -2.313  58.017
                          Isotropic Fermi Contact Couplings
        Atom                 a.u.       MegaHertz       Gauss      10(-4) cm-1
     1  O(17)              0.00396      -2.39864      -0.85590      -0.80010
     2  O(17)              0.12490     -75.71388     -27.01659     -25.25543
     3  C(13)             -0.01545     -17.36726      -6.19707      -5.79309
     4  C(13)              0.18236     205.00654      73.15143      68.38282
     5  C(13)              0.00096       1.07747       0.38447       0.35941
     6  H(1)               0.00822      36.76464      13.11854      12.26336
     7  H(1)               0.01992      89.02365      31.76585      29.69509
     8  H(1)              -0.02813    -125.72931     -44.86335     -41.93878
     9  H(1)              -0.00271     -12.11334      -4.32234      -4.04058
    10  H(1)              -0.00660     -29.50513     -10.52816      -9.84185
    11  H(1)               0.00027       1.21831       0.43472       0.40638
    12  H(1)              -0.00036      -1.59518      -0.56920      -0.53209
    13  H(1)              -0.00007      -0.29296      -0.10454      -0.09772
    14  H(1)              -0.00064      -2.84274      -1.01436      -0.94823
 --------------------------------------------------------
       Center         ----  Spin Dipole Couplings  ----
                      3XX-RR        3YY-RR        3ZZ-RR
 --------------------------------------------------------
     1   Atom        0.100416      0.056030     -0.156446
     2   Atom        0.539808     -0.209706     -0.330102
     3   Atom        0.028093     -0.011534     -0.016559
     4   Atom        0.602475     -0.264083     -0.338392
     5   Atom       -0.001181      0.005335     -0.004154
     6   Atom       -0.005896      0.000056      0.005840
     7   Atom        0.006124     -0.002590     -0.003534
     8   Atom        0.113009     -0.015399     -0.097610
     9   Atom       -0.006527      0.020136     -0.013609
    10   Atom       -0.002651     -0.039445      0.042096
    11   Atom       -0.000694      0.006673     -0.005979
    12   Atom       -0.000060      0.002976     -0.002915
    13   Atom        0.001228      0.000955     -0.002184
    14   Atom        0.005051     -0.006324      0.001273
 --------------------------------------------------------
                        XY            XZ            YZ
 --------------------------------------------------------
     1   Atom        0.220486      0.084553      0.129062
     2   Atom        1.010102      0.914545      0.623801
     3   Atom       -0.001594      0.006736     -0.002721
     4   Atom        0.307702      0.139470      0.045488
     5   Atom       -0.006170     -0.000234      0.003193
     6   Atom       -0.001031      0.002920     -0.010491
     7   Atom       -0.002431      0.009452     -0.001762
     8   Atom        0.128129      0.063414      0.042769
     9   Atom       -0.001881     -0.005617      0.046945
    10   Atom        0.017148     -0.018920     -0.013180
    11   Atom       -0.005067     -0.000672      0.003207
    12   Atom       -0.003117      0.000356      0.000182
    13   Atom       -0.004429     -0.002752      0.003615
    14   Atom        0.001904     -0.014976      0.001320
 --------------------------------------------------------


 ---------------------------------------------------------------------------------
              Anisotropic Spin Dipole Couplings in Principal Axis System
 ---------------------------------------------------------------------------------

       Atom             a.u.   MegaHertz   Gauss  10(-4) cm-1        Axes

              Baa    -0.2194    15.874     5.664     5.295  0.1129 -0.4943  0.8619
     1 O(17)  Bbb    -0.1252     9.059     3.233     3.022  0.7102 -0.5665 -0.4179
              Bcc     0.3446   -24.934    -8.897    -8.317  0.6948  0.6594  0.2871
 
              Baa    -0.9175    66.387    23.689    22.144  0.6815 -0.5846 -0.4403
     2 O(17)  Bbb    -0.8965    64.871    23.148    21.639 -0.0454 -0.6342  0.7718
              Bcc     1.8140  -131.258   -46.836   -43.783  0.7304  0.5060  0.4588
 
              Baa    -0.0184    -2.474    -0.883    -0.825 -0.1234  0.3390  0.9327
     3 C(13)  Bbb    -0.0107    -1.442    -0.514    -0.481  0.0956  0.9395 -0.3288
              Bcc     0.0292     3.916     1.397     1.306  0.9877 -0.0486  0.1483
 
              Baa    -0.3625   -48.639   -17.356   -16.224 -0.2629  0.9340 -0.2417
     4 C(13)  Bbb    -0.3585   -48.103   -17.164   -16.045 -0.2009  0.1921  0.9606
              Bcc     0.7209    96.743    34.520    32.270  0.9437  0.3011  0.1372
 
              Baa    -0.0062    -0.838    -0.299    -0.280 -0.5575 -0.4832  0.6751
     5 C(13)  Bbb    -0.0034    -0.457    -0.163    -0.152  0.6717  0.2153  0.7088
              Bcc     0.0097     1.295     0.462     0.432 -0.4878  0.8486  0.2045
 
              Baa    -0.0084    -4.464    -1.593    -1.489 -0.4143  0.6894  0.5942
     6 H(1)   Bbb    -0.0059    -3.145    -1.122    -1.049  0.8985  0.4138  0.1464
              Bcc     0.0143     7.609     2.715     2.538  0.1450 -0.5946  0.7909
 
              Baa    -0.0093    -4.977    -1.776    -1.660 -0.5172  0.0370  0.8551
     7 H(1)   Bbb    -0.0032    -1.694    -0.605    -0.565  0.1854  0.9802  0.0697
              Bcc     0.0125     6.671     2.380     2.225  0.8355 -0.1946  0.5138
 
              Baa    -0.1169   -62.389   -22.262   -20.811 -0.1331 -0.2373  0.9623
     8 H(1)   Bbb    -0.0941   -50.215   -17.918   -16.750 -0.5497  0.8255  0.1276
              Bcc     0.2110   112.604    40.180    37.561  0.8247  0.5120  0.2404
 
              Baa    -0.0469   -25.039    -8.935    -8.352  0.0871 -0.5696  0.8173
     9 H(1)   Bbb    -0.0066    -3.521    -1.256    -1.175  0.9930  0.1150 -0.0257
              Bcc     0.0535    28.560    10.191     9.527 -0.0793  0.8138  0.5757
 
              Baa    -0.0466   -24.841    -8.864    -8.286 -0.3376  0.9389  0.0675
    10 H(1)   Bbb    -0.0062    -3.294    -1.175    -1.099  0.8649  0.2811  0.4158
              Bcc     0.0527    28.135    10.039     9.385 -0.3714 -0.1988  0.9070
 
              Baa    -0.0068    -3.633    -1.296    -1.212 -0.1209 -0.2725  0.9545
    11 H(1)   Bbb    -0.0031    -1.642    -0.586    -0.548  0.8930  0.3902  0.2245
              Bcc     0.0099     5.275     1.882     1.760 -0.4336  0.8795  0.1962
 
              Baa    -0.0031    -1.636    -0.584    -0.546 -0.3013 -0.1837  0.9357
    12 H(1)   Bbb    -0.0019    -0.992    -0.354    -0.331  0.7924  0.4976  0.3529
              Bcc     0.0049     2.628     0.938     0.877 -0.5304  0.8477 -0.0044
 
              Baa    -0.0046    -2.434    -0.869    -0.812 -0.0546 -0.5775  0.8145
    13 H(1)   Bbb    -0.0030    -1.619    -0.578    -0.540  0.7718  0.4932  0.4014
              Bcc     0.0076     4.053     1.446     1.352 -0.6336  0.6506  0.4188
 
              Baa    -0.0127    -6.789    -2.423    -2.265  0.6283 -0.3320  0.7035
    14 H(1)   Bbb    -0.0055    -2.958    -1.056    -0.987  0.2031  0.9430  0.2636
              Bcc     0.0183     9.747     3.478     3.251  0.7510  0.0227 -0.6599
 

 ---------------------------------------------------------------------------------

 No NMR shielding tensors so no spin-rotation constants.
 Leave Link  601 at Thu Sep  5 20:05:45 2019, MaxMem=   671088640 cpu:              99.9 elap:              50.0
 (Enter /shared/centos7/gaussian/g16/l701.exe)
 SCFChk:  SCF convergence  6.47D-09 required  1.00D-08
 ... and contract with generalized density number  0.
 Compute integral second derivatives.
 Entering OneElI...
 Calculate overlap and kinetic energy integrals
    NBasis = 310  MinDer = 2  MaxDer = 2
 Requested accuracy = 0.1000D-12
 PrmmSu-InSpLW:  IPartL=    0 NPrtUS=   20 NPrtUL=    1 DoSpLW=F IThBeg=    0 IThEnd=   19 NThAct=   20.
 PrsmSu:  NPrtUS=  20 ThrOK=T IAlg=1 NPAlg=1 LenDen=           0 ISkipM=0 DoSpLW=F IThBeg=    0 IThEnd=   19.
 Prism:   IPart=     0 DynPar=F LinDyn=F Incr=           2.
 PRISM was handed    33400537 working-precision words and  5458 shell-pairs
 PRISM was handed    33400537 working-precision words and  5458 shell-pairs
 PRISM was handed    33400537 working-precision words and  5458 shell-pairs
 PRISM was handed    33400537 working-precision words and  5458 shell-pairs
 PRISM was handed    33400537 working-precision words and  5458 shell-pairs
 PRISM was handed    33400537 working-precision words and  5458 shell-pairs
 PRISM was handed    33400537 working-precision words and  5458 shell-pairs
 PRISM was handed    33400537 working-precision words and  5458 shell-pairs
 PRISM was handed    33400537 working-precision words and  5458 shell-pairs
 PRISM was handed    33400537 working-precision words and  5458 shell-pairs
 IPart=  0 NShTot=         313 NBatch=          69 AvBLen=         4.5
 PRISM was handed    33400537 working-precision words and  5458 shell-pairs
 PRISM was handed    33400537 working-precision words and  5458 shell-pairs
 IPart= 14 NShTot=         261 NBatch=          31 AvBLen=         8.4
 IPart=  9 NShTot=         272 NBatch=          37 AvBLen=         7.4
 PRISM was handed    33400537 working-precision words and  5458 shell-pairs
 PRISM was handed    33400537 working-precision words and  5458 shell-pairs
 PRISM was handed    33400537 working-precision words and  5458 shell-pairs
 PRISM was handed    33400537 working-precision words and  5458 shell-pairs
 PRISM was handed    33400537 working-precision words and  5458 shell-pairs
 PRISM was handed    33400537 working-precision words and  5458 shell-pairs
 PRISM was handed    33400537 working-precision words and  5458 shell-pairs
 IPart= 17 NShTot=         253 NBatch=          28 AvBLen=         9.0
 PRISM was handed    33400537 working-precision words and  5458 shell-pairs
 IPart=  7 NShTot=         273 NBatch=          38 AvBLen=         7.2
 IPart= 10 NShTot=         267 NBatch=          35 AvBLen=         7.6
 IPart= 16 NShTot=         254 NBatch=          28 AvBLen=         9.1
 IPart=  2 NShTot=         299 NBatch=          57 AvBLen=         5.2
 IPart= 18 NShTot=         252 NBatch=          28 AvBLen=         9.0
 IPart=  1 NShTot=         305 NBatch=          62 AvBLen=         4.9
 IPart= 15 NShTot=         256 NBatch=          29 AvBLen=         8.8
 IPart= 11 NShTot=         264 NBatch=          33 AvBLen=         8.0
 IPart= 19 NShTot=         251 NBatch=          28 AvBLen=         9.0
 IPart= 12 NShTot=         263 NBatch=          32 AvBLen=         8.2
 IPart=  8 NShTot=         272 NBatch=          37 AvBLen=         7.4
 IPart=  6 NShTot=         275 NBatch=          39 AvBLen=         7.1
 IPart= 13 NShTot=         262 NBatch=          31 AvBLen=         8.5
 IPart=  3 NShTot=         294 NBatch=          52 AvBLen=         5.7
 IPart=  5 NShTot=         280 NBatch=          43 AvBLen=         6.5
 IPart=  4 NShTot=         292 NBatch=          51 AvBLen=         5.7
 PrSmSu:  NxtVal=             41.
 Entering OneElI...
 Calculate potential energy integrals
    NBasis = 310  MinDer = 2  MaxDer = 2
 Requested accuracy = 0.1000D-12
 PrmmSu-InSpLW:  IPartL=    0 NPrtUS=   20 NPrtUL=    1 DoSpLW=F IThBeg=    0 IThEnd=   19 NThAct=   20.
 PrsmSu:  NPrtUS=  20 ThrOK=T IAlg=1 NPAlg=1 LenDen=           0 ISkipM=0 DoSpLW=F IThBeg=    0 IThEnd=   19.
 Prism:   IPart=     0 DynPar=F LinDyn=F Incr=          36.
 PRISM was handed    33423536 working-precision words and  5196 shell-pairs
 PRISM was handed    33423536 working-precision words and  5196 shell-pairs
 PRISM was handed    33423536 working-precision words and  5196 shell-pairs
 PRISM was handed    33423536 working-precision words and  5196 shell-pairs
 PRISM was handed    33423536 working-precision words and  5196 shell-pairs
 PRISM was handed    33423536 working-precision words and  5196 shell-pairs
 PRISM was handed    33423536 working-precision words and  5196 shell-pairs
 PRISM was handed    33423536 working-precision words and  5196 shell-pairs
 PRISM was handed    33423536 working-precision words and  5196 shell-pairs
 PRISM was handed    33423536 working-precision words and  5196 shell-pairs
 PRISM was handed    33423536 working-precision words and  5196 shell-pairs
 PRISM was handed    33423536 working-precision words and  5196 shell-pairs
 PRISM was handed    33423536 working-precision words and  5196 shell-pairs
 PRISM was handed    33423536 working-precision words and  5196 shell-pairs
 PRISM was handed    33423536 working-precision words and  5196 shell-pairs
 PRISM was handed    33423536 working-precision words and  5196 shell-pairs
 PRISM was handed    33423536 working-precision words and  5196 shell-pairs
 PRISM was handed    33423536 working-precision words and  5196 shell-pairs
 PRISM was handed    33423536 working-precision words and  5196 shell-pairs
 PRISM was handed    33423536 working-precision words and  5196 shell-pairs
 IPart= 17 NShTot=        3360 NBatch=         240 AvBLen=        14.0
 IPart=  8 NShTot=        3654 NBatch=         261 AvBLen=        14.0
 IPart= 19 NShTot=        3346 NBatch=         239 AvBLen=        14.0
 IPart=  0 NShTot=        4200 NBatch=         300 AvBLen=        14.0
 IPart=  1 NShTot=        4102 NBatch=         293 AvBLen=        14.0
 IPart= 12 NShTot=        3542 NBatch=         253 AvBLen=        14.0
 IPart=  7 NShTot=        3654 NBatch=         261 AvBLen=        14.0
 IPart= 11 NShTot=        3556 NBatch=         254 AvBLen=        14.0
 IPart= 18 NShTot=        3346 NBatch=         239 AvBLen=        14.0
 IPart= 16 NShTot=        3360 NBatch=         240 AvBLen=        14.0
 IPart= 14 NShTot=        3486 NBatch=         249 AvBLen=        14.0
 IPart=  4 NShTot=        3808 NBatch=         272 AvBLen=        14.0
 IPart= 15 NShTot=        3388 NBatch=         242 AvBLen=        14.0
 IPart=  2 NShTot=        3934 NBatch=         281 AvBLen=        14.0
 IPart=  6 NShTot=        3696 NBatch=         264 AvBLen=        14.0
 IPart=  9 NShTot=        3626 NBatch=         259 AvBLen=        14.0
 IPart=  5 NShTot=        3696 NBatch=         264 AvBLen=        14.0
 IPart= 10 NShTot=        3598 NBatch=         257 AvBLen=        14.0
 IPart= 13 NShTot=        3528 NBatch=         252 AvBLen=        14.0
 IPart=  3 NShTot=        3864 NBatch=         276 AvBLen=        14.0
 PrSmSu:  NxtVal=            721.
 Polarizability after L701:
                1             2             3 
      1  0.000000D+00
      2  0.000000D+00  0.000000D+00
      3  0.000000D+00  0.000000D+00  0.000000D+00
 Dipole Derivatives after L701:
                 1             2             3             4             5 
      1  -0.121938D+01  0.240698D+00  0.903631D+00 -0.295387D-01  0.290980D+00
      2  -0.257390D-01 -0.228922D+00  0.526343D-01 -0.754639D-01 -0.365169D+00
      3   0.350276D+00 -0.168158D+00 -0.492727D+00  0.323170D-01  0.432466D-01
                 6             7             8             9            10 
      1  -0.201111D+00 -0.891126D+00 -0.246089D+00 -0.651347D+00 -0.311782D+00
      2  -0.447535D-01 -0.286084D+00 -0.144210D+00  0.190947D-01  0.138997D+00
      3  -0.206601D+00 -0.547836D-01  0.100141D+00 -0.828854D+00  0.201168D+00
                11            12            13            14            15 
      1  -0.325607D+00  0.293587D+00 -0.105651D+01  0.578873D+00  0.496404D+00
      2  -0.134227D+01  0.123451D+00  0.124841D-01 -0.112993D+01 -0.139213D+00
      3  -0.134597D+00 -0.904892D+00 -0.192147D-01  0.757676D-01 -0.886890D+00
                16            17            18            19            20 
      1   0.365394D-01 -0.613812D-01  0.138449D+00  0.871091D+00  0.223073D+00
      2   0.424021D-01  0.191896D+00 -0.626168D-01  0.148753D+00  0.208640D+00
      3  -0.290534D+00 -0.168178D+00  0.574610D+00  0.309296D+00  0.104764D+00
                21            22            23            24            25 
      1   0.325590D+00  0.724131D-01 -0.864474D-01 -0.100954D+00  0.848481D-01
      2   0.735233D-01 -0.667520D-01  0.321553D+00  0.409363D-01 -0.123894D+00
      3   0.278452D+00 -0.631384D-01 -0.286450D-01  0.213245D+00 -0.189403D-01
                26            27            28            29            30 
      1   0.168482D+00  0.119923D+00  0.225584D+00  0.716969D-01 -0.360047D+00
      2   0.890881D+00  0.507577D+00  0.177170D+00  0.258104D+00 -0.571088D+00
      3   0.213526D+00  0.285345D+00 -0.148550D+00 -0.920896D-01  0.585636D+00
                31            32            33            34            35 
      1   0.582237D-01 -0.336728D-01 -0.569058D-01  0.455783D+00 -0.580185D+00
      2   0.449753D+00  0.314280D+00  0.207930D+00 -0.349719D+00  0.665514D+00
      3   0.236955D+00  0.115264D+00  0.234235D+00  0.502058D-01 -0.689003D-01
                36            37            38            39            40 
      1   0.301210D+00  0.500390D+00  0.199218D+00 -0.600903D+00  0.120347D+01
      2  -0.297498D+00 -0.885078D-01  0.703707D-01  0.159411D+00  0.465993D-01
      3   0.166972D+00 -0.266618D+00 -0.134419D+00  0.488515D+00 -0.318440D+00
                41            42 
      1  -0.439638D+00 -0.607528D+00
      2   0.289269D+00 -0.693885D-01
      3   0.142278D+00  0.492955D+00
 Hessian after L701:
                1             2             3             4             5 
      1  0.794716D+01
      2 -0.119454D+00  0.879041D+01
      3  0.320634D+01  0.341387D+01  0.585094D+01
      4 -0.578169D+01  0.738619D+00 -0.128352D+01  0.617188D+01
      5  0.696194D+00 -0.299517D+01 -0.405625D+01 -0.233999D+01  0.500741D+01
      6 -0.120809D+01 -0.408823D+01 -0.375828D+00  0.283348D+00  0.345300D+01
[...]
 ! A20   A(12,5,13)            108.0649         -DE/DX =    0.0                 !
 ! A21   A(2,8,4)              171.7331         -DE/DX =    0.0                 !
 ! D1    D(14,1,2,8)            95.8264         -DE/DX =    0.0                 !
 ! D2    D(1,2,8,4)             19.8633         -DE/DX =    0.0                 !
 ! D3    D(5,3,4,8)             62.7778         -DE/DX =    0.0                 !
 ! D4    D(5,3,4,9)            175.6567         -DE/DX =    0.0                 !
 ! D5    D(5,3,4,10)           -47.6296         -DE/DX =    0.0                 !
 ! D6    D(6,3,4,8)            -59.7069         -DE/DX =    0.0                 !
 ! D7    D(6,3,4,9)             53.172          -DE/DX =    0.0                 !
 ! D8    D(6,3,4,10)          -170.1143         -DE/DX =    0.0                 !
 ! D9    D(7,3,4,8)           -175.1945         -DE/DX =    0.0                 !
 ! D10   D(7,3,4,9)            -62.3157         -DE/DX =    0.0                 !
 ! D11   D(7,3,4,10)            74.398          -DE/DX =    0.0                 !
 ! D12   D(4,3,5,11)           -60.8752         -DE/DX =    0.0                 !
 ! D13   D(4,3,5,12)           178.9055         -DE/DX =    0.0                 !
 ! D14   D(4,3,5,13)            58.72           -DE/DX =    0.0                 !
 ! D15   D(6,3,5,11)            61.42           -DE/DX =    0.0                 !
 ! D16   D(6,3,5,12)           -58.7993         -DE/DX =    0.0                 !
 ! D17   D(6,3,5,13)          -178.9848         -DE/DX =    0.0                 !
 ! D18   D(7,3,5,11)           177.8323         -DE/DX =    0.0                 !
 ! D19   D(7,3,5,12)            57.613          -DE/DX =    0.0                 !
 ! D20   D(7,3,5,13)           -62.5725         -DE/DX =    0.0                 !
 ! D21   D(3,4,8,2)             13.1501         -DE/DX =    0.0                 !
 ! D22   D(9,4,8,2)           -109.1291         -DE/DX =    0.0                 !
 ! D23   D(10,4,8,2)           133.6314         -DE/DX =    0.0                 !
 --------------------------------------------------------------------------------
 GradGradGradGradGradGradGradGradGradGradGradGradGradGradGradGradGradGrad

 Leave Link  103 at Fri Sep  6 01:53:08 2019, MaxMem=   671088640 cpu:             144.8 elap:              72.6
 (Enter /shared/centos7/gaussian/g16/l9999.exe)

 ----------------------------------------------------------------------

 Electric dipole moment (input orientation):
 (Debye = 10**-18 statcoulomb cm , SI units = C m)
                  (au)            (Debye)         (10**-30 SI)
   Tot        0.859925D+00      0.218571D+01      0.729075D+01
   x          0.283460D+00      0.720482D+00      0.240327D+01
   y          0.468445D+00      0.119067D+01      0.397164D+01
   z          0.663084D+00      0.168539D+01      0.562186D+01

 Dipole polarizability, Alpha (input orientation).
 (esu units = cm**3 , SI units = C**2 m**2 J**-1)
 Alpha(0;0):
               (au)            (10**-24 esu)      (10**-40 SI)
   iso        0.568156D+02      0.841921D+01      0.936763D+01
   aniso      0.235168D+02      0.348484D+01      0.387740D+01
   xx         0.695913D+02      0.103124D+02      0.114741D+02
   yx         0.716983D+01      0.106246D+01      0.118215D+01
   yy         0.535247D+02      0.793155D+01      0.882504D+01
   zx         0.195394D+00      0.289544D-01      0.322162D-01
   zy        -0.947896D+00     -0.140464D+00     -0.156287D+00
   zz         0.473309D+02      0.701371D+01      0.780380D+01

 ----------------------------------------------------------------------

 Dipole orientation:
     8         -3.28823498         -1.02183329         -1.14597357
     8         -2.54753123          1.43889944         -1.68204557
     6          1.83108549         -0.63989188          1.76683197
     6          0.82622370          2.00664225          1.60569599
     6          3.02939769         -1.51626452         -0.70055810
     1          0.30747473         -1.92459840          2.30118010
     1          3.22273463         -0.72936225          3.30075978
     1         -0.97964194          1.87444751         -0.15760277
     1         -0.17903946          2.71286558          3.25168437
     1          2.10029443          3.39551955          0.78306067
     1          1.63492667         -1.49969172         -2.21539216
     1          3.77717961         -3.42570110         -0.53005105
     1          4.57892378         -0.26883906         -1.24173463
     1         -4.76280446         -0.79116600         -0.09764923

 Electric dipole moment (dipole orientation):
 (Debye = 10**-18 statcoulomb cm , SI units = C m)
                  (au)            (Debye)         (10**-30 SI)
   Tot        0.859925D+00      0.218571D+01      0.729075D+01
   x          0.000000D+00      0.000000D+00      0.000000D+00
   y          0.000000D+00      0.000000D+00      0.000000D+00
   z          0.859925D+00      0.218571D+01      0.729075D+01

 Dipole polarizability, Alpha (dipole orientation).
 (esu units = cm**3 , SI units = C**2 m**2 J**-1)
 Alpha(0;0):
               (au)            (10**-24 esu)      (10**-40 SI)
   iso        0.568156D+02      0.841921D+01      0.936763D+01
   aniso      0.235168D+02      0.348484D+01      0.387740D+01
   xx         0.654584D+02      0.969993D+01      0.107926D+02
   yx         0.314916D+01      0.466658D+00      0.519227D+00
   yy         0.515228D+02      0.763490D+01      0.849497D+01
   zx         0.103365D+02      0.153172D+01      0.170426D+01
   zy         0.325871D+01      0.482890D+00      0.537288D+00
   zz         0.534656D+02      0.792279D+01      0.881529D+01

 ----------------------------------------------------------------------

 Test job not archived.
 1\1\GINC-C0123\Freq\UM062X\CC-pVTZ\C3H9O2(2)\HARMS.N\06-Sep-2019\0\\#P
  Geom=AllCheck Guess=TCheck SCRF=Check Test GenChk UM062X/CC-pVTZ Freq
 \\Gaussian input prepared by ASE\\0,2\O,-1.7783786603,-0.6040578642,0.
 4005342615\O,-1.6359954499,0.2856498066,-0.6567668563\C,1.2520494971,0
 .1292025926,0.5860066046\C,0.5828226721,1.3024941259,-0.0673777471\C,1
 .4638873058,-1.0324158088,-0.3771976834\H,0.6573899908,-0.2009440791,1
 .4401573264\H,2.2156679513,0.4573097724,0.9949604204\H,-0.6146593462,0
 .8328438077,-0.433772622\H,0.3327228905,2.1420169991,0.5760311773\H,0.
 9976565375,1.6088131339,-1.0256639348\H,0.5061089117,-1.386979673,-0.7
 568539655\H,1.9675072229,-1.8645129914,0.1123711077\H,2.0722283659,-0.
 7220507223,-1.2279082262\H,-2.3403268891,-0.1211320992,1.0190201373\\V
 ersion=EM64L-G16RevA.03\State=2-A\HF=-269.9851564\S2=0.759746\S2-1=0.\
 S2A=0.750047\RMSD=4.437e-09\RMSF=1.951e-06\ZeroPoint=0.1146515\Thermal
 =0.1220652\Dipole=0.2834596,0.4684448,0.6630843\DipoleDeriv=-0.3591864
 ,-0.1235588,-0.0292853,-0.4692286,-0.3807778,0.0037358,0.5857928,0.402
 0174,-0.2830835,0.2864961,0.306226,0.0029468,0.7994735,0.1603946,-0.00
 7559,-0.5140985,-0.3596536,-0.1046531,-0.18493,-0.0179804,-0.0463865,-
 0.1073928,0.0461673,0.0083195,-0.1098283,0.0384259,0.0088569,0.8370128
 ,0.3171924,0.0289267,0.1591366,0.1213481,0.0064047,0.2951747,0.1031525
 ,0.1103202,0.0750374,-0.0024346,-0.0166988,-0.0099346,0.0173414,-0.046
 1045,-0.0611448,-0.041625,0.0568951,0.0424323,-0.0012373,0.0983687,0.0
 307781,0.0047866,0.0350579,0.0774074,0.0012011,-0.0621997,-0.0888367,-
 0.042283,-0.0870941,0.0830473,0.0275799,-0.020588,-0.0795573,-0.045852
 1,0.0321232,-0.8069632,-0.4226924,-0.0679247,-0.5294393,-0.0887942,-0.
 0180734,-0.1931719,-0.0679117,0.0859614,-0.0636849,-0.0213891,0.013290
 3,0.0339783,-0.0884798,-0.0489574,0.0140472,-0.0793633,0.002395,-0.072
 0589,-0.0674455,0.070254,-0.0303701,0.0117501,0.0254921,-0.0349585,0.0
 288172,-0.0562007,-0.0354706,-0.064229,-0.0575496,-0.0160405,0.040997,
 -0.0200565,-0.0118417,-0.0286612,0.0307944,0.0198919,0.0875557,-0.0255
 54,0.0980732,-0.0765743,0.0343523,-0.0411762,0.0661,0.0130451,0.006869
 6,-0.0126854,0.0903989,-0.0523461,0.0146936,0.0580712,0.0923025,0.0082
 302,-0.0721591,0.3433907,0.0649614,0.0263074,0.010265,0.1895675,-0.010
 0947,-0.0189474,-0.0248775,0.2379049\Polar=69.5912741,7.1698322,53.524
 7318,0.1953943,-0.9478956,47.3308563\Quadrupole=0.5716869,-0.8455087,0
 .2738217,-0.5570073,-3.218298,0.1368211\PG=C01 [X(C3H9O2)]\NImag=1\\0.
 22788452,-0.14244504,0.33835901,-0.22603759,0.01767926,0.39691081,-0.0
 4397608,0.00736414,0.00192769,0.09048341,-0.01648550,-0.13027202,0.134
 89476,0.01333088,0.11986259,0.03365629,0.10612562,-0.19528190,0.014090
 68,-0.13086739,0.26651954,0.00089631,-0.00305595,0.00642846,0.00780339
 ,0.01009696,-0.00594515,0.53688415,-0.00027626,-0.00191701,0.00399185,
 0.00147027,0.00421187,-0.00456917,0.03163231,0.47988368,-0.00039911,-0
 .00069459,0.00049348,0.00269387,0.00222689,-0.00082345,-0.02113339,-0.
 01569614,0.53898463,0.00047783,0.01951563,-0.03169183,-0.11363834,-0.0
 8545695,0.00585698,-0.08197977,0.05556168,-0.01653994,0.23850825,-0.00
 091895,0.00482391,-0.00855957,-0.04363030,-0.02676260,-0.00193203,0.06
 275279,-0.15864450,0.04919697,-0.09950523,0.49969902,0.00067857,0.0071
 6291,-0.01136556,-0.03768427,-0.02848601,0.00544113,-0.02052403,0.0516
 3329,-0.10834956,-0.11716041,-0.00250683,0.55174807,-0.00012204,0.0000
 0156,-0.00029228,0.00040656,-0.00039446,0.00005909,-0.07839391,0.01055
 669,0.01127129,-0.00485745,0.01594368,0.01035637,0.57727245,-0.0005216
 4,-0.00031756,0.00034892,0.00190482,0.00017852,-0.00065866,0.00983900,
 -0.14759703,-0.05819399,0.00963887,-0.02805192,-0.01706606,0.00442054,
 0.52697098,0.00015784,-0.00086533,0.00059441,0.00102305,0.00142806,-0.
 00093778,0.01156174,-0.06052545,-0.13189812,0.00054750,0.00985005,0.01
 210647,0.01138644,-0.05158712,0.53550605,-0.00137582,-0.00012674,-0.00
 058021,-0.00022654,-0.00062871,0.00043254,-0.12511411,-0.04357875,0.11
 423841,0.00828027,0.00475931,-0.01432524,-0.00263784,-0.00037413,0.003
 26232,0.13683955,-0.00060185,0.00007511,-0.00137571,0.00000691,-0.0007
 3345,0.00098618,-0.04399838,-0.07264911,0.06257252,-0.01417636,-0.0085
 3727,0.02165369,0.01534404,0.00778459,-0.02157490,0.04545924,0.0818573
 4,0.00074203,-0.00040905,0.00155034,0.00019180,0.00083424,-0.00113240,
 0.11233853,0.06011661,-0.20297298,0.00601053,0.00661244,-0.01372226,0.
 01156218,0.00518583,-0.01680096,-0.12277496,-0.06826753,0.22430201,-0.
 00048357,-0.00014421,-0.00018268,-0.00003094,-0.00044196,0.00033461,-0
 .23875732,-0.07055745,-0.07871394,-0.01592033,0.00083910,-0.00745598,0
 .00531535,0.00213580,0.00278049,-0.01697705,-0.00563928,-0.00586563,0.
 26275252,-0.00043673,0.00153525,-0.00331943,-0.00197296,-0.00343497,0.
 00305656,-0.06220167,-0.06349377,-0.02487109,0.02084503,0.00319830,0.0
 0928233,-0.02319634,-0.00940736,-0.01027909,-0.00946263,-0.00338007,-0
 .00362534,0.07067832,0.07512438,0.00028998,-0.00058826,0.00150219,0.00
 055186,0.00107126,-0.00114885,-0.07984969,-0.02957761,-0.07568870,-0.0
 1463666,-0.00001251,-0.00768684,-0.01876768,-0.00806156,-0.00895121,0.
 02229502,0.00708427,0.00879525,0.08940530,0.03096007,0.08412288,0.0000
 7547,-0.03032154,0.04965941,0.04469244,0.06971412,-0.03910076,-0.02898
 505,-0.00492445,-0.01054288,0.08420191,0.03423784,0.03569108,0.0004964
 9,-0.00222091,-0.00169232,0.00131036,0.00000367,0.00025936,0.00089870,
 0.00594069,-0.00130943,-0.07394348,-0.01589661,-0.02864920,0.02839603,
 0.04048617,0.02497641,-0.00862975,0.00031885,-0.00108553,0.00059957,0.
 05673500,-0.00272905,0.01918745,0.00127693,-0.00030796,-0.00019062,0.0
 0068375,0.00015342,0.00018843,0.00201045,0.00119793,0.00085731,-0.0609
 4889,0.01838442,0.01919275,0.00800990,0.00580489,-0.00825571,0.0132467
 0,-0.03716323,-0.01166760,-0.00107531,-0.00492095,0.02217475,0.0071570
 4,-0.01534749,0.00059093,-0.00038919,-0.00005039,-0.00037906,0.0001336
 9,-0.00026233,-0.00058628,0.00200897,-0.00040286,-0.02287600,-0.030219
 77,0.05702140,-0.00055653,-0.00271673,0.00485325,0.00687822,0.00714553
 ,-0.00381626,-0.00179464,0.01133267,0.01206630,-0.04057787,0.04815661,
 0.03762844,-0.00072253,0.00172502,-0.00328867,0.00055068,-0.00002782,-
 0.00105025,0.00082129,-0.00113265,0.00014790,-0.01077633,-0.01572567,-
 0.01021567,0.04536868,-0.00023624,-0.00079629,0.00135895,0.00109144,0.
 00223753,-0.00039209,0.00158060,-0.01276814,-0.01585879,0.05808439,-0.
 21431511,-0.12715025,0.00275441,-0.00285861,0.00389276,-0.00070149,0.0
 0064940,-0.00005410,0.00055285,0.00033475,0.00010868,-0.00129415,-0.00
 617790,-0.00448517,-0.05963193,0.22576389,-0.00023036,-0.00044561,0.00
 073539,0.00018741,0.00128993,-0.00037911,-0.00320414,0.01220908,0.0120
 6869,0.04493943,-0.12697062,-0.15353276,-0.00129045,0.00186916,-0.0013
 8510,0.00074551,-0.00080225,0.00056829,0.00017365,-0.00063517,0.000266
 68,0.00002365,-0.00415782,-0.00352335,-0.04422053,0.13721737,0.1560533
 1,-0.00037381,-0.00251250,0.00378649,0.00671525,0.00640474,-0.00277079
 ,0.00936762,0.00610042,-0.01570544,-0.07466564,-0.02293978,0.11078817,
 0.00035224,-0.00071289,-0.00053501,-0.00141803,0.00296981,-0.00101542,
 0.00030487,-0.00098108,0.00078362,-0.01777810,-0.00977656,0.00928669,0
 .00006051,-0.00233418,0.00333737,0.07761401,-0.00030453,-0.00110094,0.
 00139153,0.00288475,0.00243120,-0.00092784,-0.01082355,-0.00418947,0.0
 1876531,-0.02120822,-0.06998124,0.07113930,-0.00154081,0.00171342,0.00
 093044,0.00251132,-0.00330564,0.00267595,0.00031475,0.00009432,0.00021
 335,-0.00718545,-0.00397604,0.00373392,0.01018114,0.00884665,-0.020345
 79,0.02459435,0.06973595,-0.00044025,-0.00160208,0.00255169,0.00448944
 ,0.00400457,-0.00062378,0.00791519,0.00401656,-0.01114454,0.09981816,0
 .06694338,-0.25873788,-0.00041084,-0.00106777,0.00101777,-0.00247006,0
 .00181177,0.00013645,-0.00009123,-0.00036881,0.00033257,-0.00778666,-0
 .00424433,-0.00010127,0.00745433,0.00659528,-0.01174178,-0.10795226,-0
 .07640719,0.27786443,-0.00062578,0.00025997,0.00076039,-0.00102180,0.0
 0064186,-0.00017169,0.00555823,0.00196439,0.00170831,0.00086973,-0.000
 12054,0.00030303,-0.26024912,-0.07752264,-0.08266164,0.00043166,-0.000
 41459,-0.00032570,0.00110422,0.00165127,0.00108457,0.00014843,-0.00003
 204,-0.00003662,0.00006162,-0.00008302,0.00006936,-0.00010904,-0.00015
 445,-0.00010752,0.28030063,0.00030924,0.00026715,-0.00056912,0.0000113
 0,-0.00009411,0.00089945,-0.02234995,-0.01004474,-0.00894527,-0.001978
 36,0.00137404,-0.00029579,-0.07535891,-0.07475015,-0.02797478,0.000235
 65,0.00092189,0.00052278,0.00113868,-0.00366905,-0.00337074,0.00062185
 ,-0.00083412,-0.00031144,0.00032121,0.00030189,0.00010710,-0.00007333,
 -0.00018014,0.00016757,0.08268896,0.08141246,0.00031301,0.00030468,-0.
 00103892,-0.00067060,-0.00075220,0.00088913,-0.01895164,-0.00790472,-0
 .00858688,-0.00105080,0.00096297,0.00017165,-0.08087156,-0.02824581,-0
 .07856230,-0.00050672,0.00070177,0.00030204,0.00095702,-0.00377996,-0.
 00212910,0.00105181,0.00021525,0.00045247,0.00023110,0.00016377,-0.000
 07140,0.00018780,-0.00008979,0.00005059,0.08890833,0.03547943,0.084344
 02,0.00006978,-0.00007040,0.00005764,-0.00021111,0.00035004,0.00020979
 ,-0.00262756,0.00159771,-0.00158264,0.00054026,0.00036598,0.00102050,-
 0.10566277,0.09558390,-0.05786317,-0.00019403,0.00009956,-0.00007247,0
 .00034738,-0.00017048,0.00036943,0.00012636,-0.00039461,-0.00004121,0.
 00021132,0.00030426,-0.00026670,-0.00006984,0.00007276,-0.00017715,-0.
 01176462,0.02274062,-0.01274657,0.10996980,0.00015549,0.00033059,-0.00
 054473,-0.00048597,-0.00033105,0.00054328,0.01071134,-0.01804508,0.012
 68260,-0.00021203,-0.00330165,-0.00506196,0.09489977,-0.20251328,0.094
 37823,0.00017652,0.00092041,0.00001212,-0.00062536,0.00049050,0.000597
 46,0.00044945,0.00023781,-0.00003230,0.00104996,-0.00104942,0.00070808
 ,-0.00011689,0.00035234,-0.00013716,-0.00442091,0.00928128,-0.00538017
 ,-0.10538336,0.22067923,-0.00000705,0.00013121,-0.00015531,-0.00022769
 ,-0.00001565,0.00027845,0.01113982,-0.01803452,0.01101264,0.00031157,-
 0.00304544,-0.00313527,-0.05845730,0.09638502,-0.10504847,0.00008718,0
 .00087209,0.00087066,-0.00028035,0.00086366,0.00090069,0.00016466,-0.0
 0008440,-0.00022149,0.00067141,-0.00114724,0.00070915,-0.00011376,-0.0
 0030023,0.00015519,-0.00351537,0.00791087,-0.00569704,0.06309807,-0.10
 153403,0.11162319,-0.00005431,0.00028814,-0.00032689,-0.00029876,-0.00
 028918,0.00035359,-0.00262371,-0.00086807,0.00214812,-0.00022966,-0.00
 069673,0.00027029,-0.13138737,-0.04404371,0.11519115,0.00098492,0.0006
 8345,0.00027861,0.00049378,0.00049633,-0.00022457,0.00024845,-0.000020
 94,0.00022768,0.00014745,0.00009792,-0.00032858,-0.00007101,0.00063928
 ,-0.00005759,-0.01464944,-0.00818195,0.02329232,0.00927205,0.00387678,
 -0.01286124,0.13822886,0.00002022,0.00004229,0.00023457,-0.00007211,0.
 00009749,-0.00008528,0.01622138,0.00683477,-0.02151138,-0.00000893,0.0
 0200632,-0.00096641,-0.04462489,-0.07075435,0.06277465,0.00104069,-0.0
 0396722,-0.00364304,-0.00027134,0.00107018,0.00081961,0.00001823,0.000
 02221,0.00001839,-0.00028522,0.00016522,0.00014910,-0.00028472,-0.0002
 0440,0.00067967,-0.00441098,-0.00399523,0.00802031,-0.01513265,-0.0070
 6659,0.01799706,0.04788380,0.07574175,0.00006427,0.00007843,0.00019962
 ,-0.00000882,-0.00006796,-0.00000892,0.01252154,0.00589891,-0.01833534
 ,-0.00088447,0.00110168,0.00091185,0.11473218,0.06141974,-0.20560037,-
 0.00014342,-0.00401138,-0.00159670,-0.00045644,0.00043153,0.00025989,0
 .00009002,0.00004278,-0.00006587,-0.00029478,-0.00009675,0.00023284,0.
 00040248,-0.00060498,0.00056561,-0.00605239,-0.00351854,0.00996610,0.0
 0806994,0.00372102,-0.01129175,-0.12790256,-0.06441445,0.22481981,-0.1
 8183597,0.15396367,0.19163815,0.00242431,-0.00398738,-0.00318892,-0.00
 023363,-0.00001116,0.00049108,-0.00100920,0.00075622,0.00041350,0.0001
 8994,0.00014797,0.00013028,-0.00045403,0.00029162,-0.00027861,0.000131
 10,-0.00005712,-0.00013965,-0.00071566,0.00128417,0.00258535,0.0003281
 4,-0.00018486,0.00006437,0.00007099,0.00001867,-0.00018357,-0.00005471
 ,-0.00012500,-0.00014351,-0.00000701,-0.00007479,-0.00000994,-0.000061
 25,-0.00009347,-0.00013755,0.18122698,0.17763840,-0.18238029,-0.173927
 33,-0.02238934,0.00763260,0.03645109,-0.00072372,-0.00049593,-0.000272
 62,0.00216549,0.00122174,0.00147433,-0.00008219,-0.00008931,-0.0002569
 0,0.00000598,0.00021057,-0.00014934,0.00000964,0.00033960,-0.00010133,
 -0.00409045,-0.00121240,0.00220459,-0.00039212,-0.00033388,-0.00019256
 ,-0.00033739,-0.00023601,-0.00039146,-0.00004728,0.00000882,0.00030447
 ,0.00003666,0.00001491,0.00000161,0.00013486,0.00000757,0.00001998,-0.
 15192854,0.17531199,0.17201963,-0.13488708,-0.20250117,0.02169129,0.00
 119280,-0.03562883,-0.00062966,-0.00048340,0.00016107,0.00230518,0.001
 20246,0.00149845,0.00013165,0.00006147,0.00001001,0.00011870,0.0002158
 0,-0.00003741,-0.00001853,0.00027577,-0.00017259,-0.00363195,-0.001960
 13,-0.00121952,-0.00016656,-0.00015242,-0.00000085,-0.00047994,-0.0001
 7396,-0.00032505,0.00003693,-0.00010151,-0.00009037,-0.00007547,0.0000
 4755,-0.00000063,-0.00006034,-0.00007281,-0.00005677,-0.19124095,0.134
 83547,0.23836366\\-0.00000186,0.00000205,-0.00000114,-0.00000542,0.000
 00345,-0.00000167,0.00000076,0.00000061,0.00000012,0.00000343,-0.00000
 167,-0.00000468,-0.00000015,-0.00000194,0.00000004,0.00000088,0.000000
 10,-0.00000046,0.00000055,-0.00000010,-0.00000050,-0.00000062,-0.00000
 452,0.00000561,0.00000131,-0.00000082,0.00000145,0.00000019,0.00000110
 ,0.00000029,0.00000098,0.00000102,0.00000087,-0.00000005,-0.00000050,-
 0.00000009,0.00000011,-0.00000040,-0.00000009,-0.00000011,0.00000163,0
 .00000025\\\@


 WERE I TO AWAIT PERFECTION, MY BOOK WOULD NEVER BE FINISHED.
                                    -- HISTORY OF CHINESE WRITING

                                       TAI T'UNG, 13TH CENTURY
 Job cpu time:       0 days  2 hours 38 minutes 37.9 seconds.
 Elapsed time:       0 days  1 hours 19 minutes 20.6 seconds.
 File lengths (MBytes):  RWF=   1392 Int=      0 D2E=      0 Chk=     32 Scr=     32
 Normal termination of Gaussian 16 at Fri Sep  6 01:53:09 2019.
