 Entering Gaussian System, Link 0=g16
 Input=tight/species/COC=CO/conformers/COC=CO_1.com
 Output=tight/species/COC=CO/conformers/COC=CO_1.log
 Initial command:
 /shared/centos7/gaussian/g16/l1.exe "/scratch/harms.n/gauss_scrdir/Gau-41631.inp" -scrdir="/scratch/harms.n/gauss_scrdir/"
 Entering Link 1 = /shared/centos7/gaussian/g16/l1.exe PID=     41632.
  
 Copyright (c) 1988,1990,1992,1993,1995,1998,2003,2009,2016,
            Gaussian, Inc.  All Rights Reserved.
  
 This is part of the Gaussian(R) 16 program.  It is based on
 the Gaussian(R) 09 system (copyright 2009, Gaussian, Inc.),
 the Gaussian(R) 03 system (copyright 2003, Gaussian, Inc.),
 the Gaussian(R) 98 system (copyright 1998, Gaussian, Inc.),
 the Gaussian(R) 94 system (copyright 1995, Gaussian, Inc.),
 the Gaussian 92(TM) system (copyright 1992, Gaussian, Inc.),
 the Gaussian 90(TM) system (copyright 1990, Gaussian, Inc.),
 the Gaussian 88(TM) system (copyright 1988, Gaussian, Inc.),
 the Gaussian 86(TM) system (copyright 1986, Carnegie Mellon
 University), and the Gaussian 82(TM) system (copyright 1983,
 Carnegie Mellon University). Gaussian is a federally registered
 trademark of Gaussian, Inc.
  
 This software contains proprietary and confidential information,
 including trade secrets, belonging to Gaussian, Inc.
  
 This software is provided under written license and may be
 used, copied, transmitted, or stored only in accord with that
 written license.
  
 The following legend is applicable only to US Government
 contracts under FAR:
  
                    RESTRICTED RIGHTS LEGEND
  
 Use, reproduction and disclosure by the US Government is
 subject to restrictions as set forth in subparagraphs (a)
 and (c) of the Commercial Computer Software - Restricted
 Rights clause in FAR 52.227-19.
  
 Gaussian, Inc.
 340 Quinnipiac St., Bldg. 40, Wallingford CT 06492
  
  
 ---------------------------------------------------------------
 Warning -- This program may not be used in any manner that
 competes with the business of Gaussian, Inc. or will provide
 assistance to any competitor of Gaussian, Inc.  The licensee
 of this program is prohibited from giving any competitor of
 Gaussian, Inc. access to this program.  By using this program,
 the user acknowledges that Gaussian, Inc. is engaged in the
 business of creating and licensing software in the field of
 computational chemistry and represents and warrants to the
 licensee that it is not a competitor of Gaussian, Inc. and that
 it will not use this program in any manner prohibited above.
 ---------------------------------------------------------------
  

 Cite this work as:
 Gaussian 16, Revision A.03,
 M. J. Frisch, G. W. Trucks, H. B. Schlegel, G. E. Scuseria, 
 M. A. Robb, J. R. Cheeseman, G. Scalmani, V. Barone, 
 G. A. Petersson, H. Nakatsuji, X. Li, M. Caricato, A. V. Marenich, 
 J. Bloino, B. G. Janesko, R. Gomperts, B. Mennucci, H. P. Hratchian, 
 J. V. Ortiz, A. F. Izmaylov, J. L. Sonnenberg, D. Williams-Young, 
 F. Ding, F. Lipparini, F. Egidi, J. Goings, B. Peng, A. Petrone, 
 T. Henderson, D. Ranasinghe, V. G. Zakrzewski, J. Gao, N. Rega, 
 G. Zheng, W. Liang, M. Hada, M. Ehara, K. Toyota, R. Fukuda, 
 J. Hasegawa, M. Ishida, T. Nakajima, Y. Honda, O. Kitao, H. Nakai, 
 T. Vreven, K. Throssell, J. A. Montgomery, Jr., J. E. Peralta, 
 F. Ogliaro, M. J. Bearpark, J. J. Heyd, E. N. Brothers, K. N. Kudin, 
 V. N. Staroverov, T. A. Keith, R. Kobayashi, J. Normand, 
 K. Raghavachari, A. P. Rendell, J. C. Burant, S. S. Iyengar, 
 J. Tomasi, M. Cossi, J. M. Millam, M. Klene, C. Adamo, R. Cammi, 
 J. W. Ochterski, R. L. Martin, K. Morokuma, O. Farkas, 
 J. B. Foresman, and D. J. Fox, Gaussian, Inc., Wallingford CT, 2016.
 
 ******************************************
 Gaussian 16:  EM64L-G16RevA.03 25-Dec-2016
                25-Sep-2019 
 ******************************************
 %nprocshared=20
 Will use up to   20 processors via shared memory.
 %mem=5GB
 ----------------------------------------------------------------------
 #p m062x/cc-pVTZ opt=(calcfc,maxcycles=900,Tight) freq IOP(7/33=1,2/16
 =3) scf=(maxcycle=900)
 ----------------------------------------------------------------------
 1/6=900,7=10,10=4,18=20,19=15,26=3,38=1/1,3;
 2/9=110,12=2,16=3,17=6,18=5,40=1/2;
 3/5=16,6=1,11=2,25=1,30=1,71=2,74=-55,140=1/1,2,3;
 4//1;
 5/5=2,7=900,38=5/2;
 8/6=4,10=90,11=11/1;
 11/6=1,8=1,9=11,15=111,16=1/1,2,10;
 10/6=1,13=1/2;
 6/7=2,8=2,9=2,10=2,28=1/1;
 7/10=1,18=20,25=1,33=1/1,2,3,16;
 1/6=900,7=10,10=4,18=20,19=15,26=3/3(2);
 2/9=110,16=3/2;
 99//99;
 2/9=110,16=3/2;
 3/5=16,6=1,11=2,25=1,30=1,71=1,74=-55/1,2,3;
 4/5=5,16=3,69=1/1;
 5/5=2,7=900,38=5/2;
 7/33=1/1,2,3,16;
 1/6=900,7=10,18=20,19=15,26=3/3(-5);
 2/9=110,16=3/2;
 6/7=2,8=2,9=2,10=2,19=2,28=1/1;
 99/9=1/99;
 Leave Link    1 at Wed Sep 25 06:02:44 2019, MaxMem=   671088640 cpu:               4.7 elap:               2.4
 (Enter /shared/centos7/gaussian/g16/l101.exe)
 ------------------------------
 Gaussian input prepared by ASE
 ------------------------------
 Symbolic Z-matrix:
 Charge =  0 Multiplicity = 1
 O                    -0.2813   -0.39608   1.76668 
 O                     1.79858   0.90555   3.1514 
 C                    -1.2411   -0.89948   0.83462 
 C                     0.46409   0.63229   1.20417 
 C                     1.42948   1.22673   1.86419 
 H                    -0.72993  -1.40029  -0.03735 
 H                    -1.8667   -1.66292   1.37912 
 H                    -1.88366  -0.10253   0.45981 
 H                     0.20108   0.91226   0.1859 
 H                     2.01436   2.01867   1.4475 
 H                     1.18647   0.14795   3.44358 
 
 ITRead=  0  0  0  0  0  0  0  0  0  0  0
 MicOpt= -1 -1 -1 -1 -1 -1 -1 -1 -1 -1 -1
 NAtoms=     11 NQM=       11 NQMF=       0 NMMI=      0 NMMIF=      0
                NMic=       0 NMicF=      0.
                    Isotopes and Nuclear Properties:
 (Nuclear quadrupole moments (NQMom) in fm**2, nuclear magnetic moments (NMagM)
  in nuclear magnetons)

  Atom         1           2           3           4           5           6           7           8           9          10
 IAtWgt=          16          16          12          12          12           1           1           1           1           1
 AtmWgt=  15.9949146  15.9949146  12.0000000  12.0000000  12.0000000   1.0078250   1.0078250   1.0078250   1.0078250   1.0078250
 NucSpn=           0           0           0           0           0           1           1           1           1           1
 AtZEff=  -0.0000000  -0.0000000  -0.0000000  -0.0000000  -0.0000000  -0.0000000  -0.0000000  -0.0000000  -0.0000000  -0.0000000
 NQMom=    0.0000000   0.0000000   0.0000000   0.0000000   0.0000000   0.0000000   0.0000000   0.0000000   0.0000000   0.0000000
 NMagM=    0.0000000   0.0000000   0.0000000   0.0000000   0.0000000   2.7928460   2.7928460   2.7928460   2.7928460   2.7928460
 AtZNuc=   8.0000000   8.0000000   6.0000000   6.0000000   6.0000000   1.0000000   1.0000000   1.0000000   1.0000000   1.0000000

  Atom        11
 IAtWgt=           1
 AtmWgt=   1.0078250
 NucSpn=           1
 AtZEff=  -0.0000000
 NQMom=    0.0000000
 NMagM=    2.7928460
 AtZNuc=   1.0000000
 Leave Link  101 at Wed Sep 25 06:02:47 2019, MaxMem=   671088640 cpu:               7.3 elap:               3.7
 (Enter /shared/centos7/gaussian/g16/l103.exe)

 GradGradGradGradGradGradGradGradGradGradGradGradGradGradGradGradGradGrad
 Berny optimization.
 Initialization pass.
                           ----------------------------
                           !    Initial Parameters    !
                           ! (Angstroms and Degrees)  !
 --------------------------                            --------------------------
 ! Name  Definition              Value          Derivative Info.                !
 --------------------------------------------------------------------------------
 ! R1    R(1,3)                  1.4295         calculate D2E/DX2 analytically  !
 ! R2    R(1,4)                  1.3891         calculate D2E/DX2 analytically  !
 ! R3    R(2,5)                  1.3771         calculate D2E/DX2 analytically  !
 ! R4    R(2,11)                 1.0169         calculate D2E/DX2 analytically  !
 ! R5    R(3,6)                  1.128          calculate D2E/DX2 analytically  !
 ! R6    R(3,7)                  1.1272         calculate D2E/DX2 analytically  !
 ! R7    R(3,8)                  1.0902         calculate D2E/DX2 analytically  !
 ! R8    R(4,5)                  1.3119         calculate D2E/DX2 analytically  !
 ! R9    R(4,9)                  1.0883         calculate D2E/DX2 analytically  !
 ! R10   R(5,10)                 1.0691         calculate D2E/DX2 analytically  !
 ! A1    A(3,1,4)              110.9139         calculate D2E/DX2 analytically  !
 ! A2    A(5,2,11)             106.3207         calculate D2E/DX2 analytically  !
 ! A3    A(1,3,6)              110.8612         calculate D2E/DX2 analytically  !
 ! A4    A(1,3,7)              107.2281         calculate D2E/DX2 analytically  !
 ! A5    A(1,3,8)              111.253          calculate D2E/DX2 analytically  !
 ! A6    A(6,3,7)              108.9164         calculate D2E/DX2 analytically  !
 ! A7    A(6,3,8)              109.0197         calculate D2E/DX2 analytically  !
 ! A8    A(7,3,8)              109.5155         calculate D2E/DX2 analytically  !
 ! A9    A(1,4,5)              121.7768         calculate D2E/DX2 analytically  !
 ! A10   A(1,4,9)              116.0815         calculate D2E/DX2 analytically  !
 ! A11   A(5,4,9)              122.1416         calculate D2E/DX2 analytically  !
 ! A12   A(2,5,4)              124.1836         calculate D2E/DX2 analytically  !
 ! A13   A(2,5,10)             112.9846         calculate D2E/DX2 analytically  !
 ! A14   A(4,5,10)             122.8318         calculate D2E/DX2 analytically  !
 ! D1    D(4,1,3,6)             66.0292         calculate D2E/DX2 analytically  !
 ! D2    D(4,1,3,7)           -175.194          calculate D2E/DX2 analytically  !
 ! D3    D(4,1,3,8)            -55.466          calculate D2E/DX2 analytically  !
 ! D4    D(3,1,4,5)           -178.311          calculate D2E/DX2 analytically  !
 ! D5    D(3,1,4,9)              1.5567         calculate D2E/DX2 analytically  !
 ! D6    D(11,2,5,4)             0.1587         calculate D2E/DX2 analytically  !
 ! D7    D(11,2,5,10)         -179.8039         calculate D2E/DX2 analytically  !
 ! D8    D(1,4,5,2)             -0.0385         calculate D2E/DX2 analytically  !
 ! D9    D(1,4,5,10)           179.9205         calculate D2E/DX2 analytically  !
 ! D10   D(9,4,5,2)           -179.8982         calculate D2E/DX2 analytically  !
 ! D11   D(9,4,5,10)             0.0609         calculate D2E/DX2 analytically  !
 --------------------------------------------------------------------------------
 Trust Radius=3.00D-01 FncErr=1.00D-07 GrdErr=1.00D-06 EigMax=2.50D+02 EigMin=1.00D-04
 Number of steps in this run=    100 maximum allowed number of steps=    100.
 GradGradGradGradGradGradGradGradGradGradGradGradGradGradGradGradGradGrad

 Leave Link  103 at Wed Sep 25 06:02:48 2019, MaxMem=   671088640 cpu:               1.7 elap:               0.8
 (Enter /shared/centos7/gaussian/g16/l202.exe)
                          Input orientation:                          
 ---------------------------------------------------------------------
 Center     Atomic      Atomic             Coordinates (Angstroms)
 Number     Number       Type             X           Y           Z
 ---------------------------------------------------------------------
      1          8           0       -0.281304   -0.396082    1.766681
      2          8           0        1.798583    0.905546    3.151400
      3          6           0       -1.241104   -0.899476    0.834616
      4          6           0        0.464092    0.632290    1.204170
      5          6           0        1.429485    1.226733    1.864190
      6          1           0       -0.729931   -1.400289   -0.037346
      7          1           0       -1.866697   -1.662919    1.379115
      8          1           0       -1.883662   -0.102525    0.459810
      9          1           0        0.201082    0.912256    0.185901
     10          1           0        2.014359    2.018670    1.447500
     11          1           0        1.186466    0.147946    3.443582
 ---------------------------------------------------------------------
                    Distance matrix (angstroms):
                    1          2          3          4          5
     1  O    0.000000
     2  O    2.817377   0.000000
     3  C    1.429464   4.226735   0.000000
     4  C    1.389094   2.376391   2.321761   0.000000
     5  C    2.360050   1.377063   3.565506   1.311858   0.000000
     6  H    2.112868   4.677431   1.128020   2.664288   3.896173
     7  H    2.066048   4.813760   1.127250   3.275846   4.410239
     8  H    2.088453   4.671165   1.090179   2.570209   3.836164
     9  H    2.107916   3.368418   2.404809   1.088314   2.103456
    10  H    3.347084   2.046675   4.414662   2.093940   1.069052
    11  H    2.293973   1.016866   3.714417   2.402369   1.928034
                    6          7          8          9         10
     6  H    0.000000
     7  H    1.835095   0.000000
     8  H    1.806226   1.811143   0.000000
     9  H    2.502897   3.511552   2.334730   0.000000
    10  H    4.628734   5.349895   4.546380   2.470579   0.000000
    11  H    4.264559   4.106465   4.288509   3.488214   2.858209
                   11
    11  H    0.000000
 Stoichiometry    C3H6O2
 Framework group  C1[X(C3H6O2)]
 Deg. of freedom    27
 Full point group                 C1      NOp   1
 Largest Abelian subgroup         C1      NOp   1
 Largest concise Abelian subgroup C1      NOp   1
                         Standard orientation:                         
 ---------------------------------------------------------------------
 Center     Atomic      Atomic             Coordinates (Angstroms)
 Number     Number       Type             X           Y           Z
 ---------------------------------------------------------------------
      1          8           0        0.791049   -0.462320   -0.018042
      2          8           0       -2.022659   -0.603682    0.007917
      3          6           0        2.174274   -0.102645    0.008204
      4          6           0       -0.015587    0.668547   -0.010277
      5          6           0       -1.324616    0.583333    0.002154
      6          1           0        2.441153    0.396254    0.984065
      7          1           0        2.768873   -1.055294   -0.089798
      8          1           0        2.423729    0.568553   -0.813839
      9          1           0        0.502328    1.625723   -0.012856
     10          1           0       -1.961314    1.442073    0.009526
     11          1           0       -1.326321   -1.344700    0.003410
 ---------------------------------------------------------------------
 Rotational constants (GHZ):          17.6514968           2.8054342           2.4598176
 Leave Link  202 at Wed Sep 25 06:02:50 2019, MaxMem=   671088640 cpu:               3.5 elap:               1.7
 (Enter /shared/centos7/gaussian/g16/l301.exe)
 Standard basis: CC-pVTZ (5D, 7F)
 Ernie: Thresh=  0.10000D-02 Tol=  0.10000D-05 Strict=F.
 Ernie:  15 primitive shells out of 178 were deleted.
 There are   265 symmetry adapted cartesian basis functions of A   symmetry.
 There are   234 symmetry adapted basis functions of A   symmetry.
   234 basis functions,   362 primitive gaussians,   265 cartesian basis functions
    20 alpha electrons       20 beta electrons
       nuclear repulsion energy       175.2272279250 Hartrees.
 IExCor= 4336 DFT=T Ex+Corr=M062X ExCW=0 ScaHFX=  0.540000
 ScaDFX=  1.000000  1.000000  1.000000  1.000000 ScalE2=  1.000000  1.000000
 IRadAn=      5 IRanWt=     -1 IRanGd=            0 ICorTp=0 IEmpDi=  4
 NAtoms=   11 NActive=   11 NUniq=   11 SFac= 1.00D+00 NAtFMM=   60 NAOKFM=F Big=F
 Integral buffers will be    131072 words long.
 Raffenetti 2 integral format.
 Two-electron integral symmetry is turned on.
 Leave Link  301 at Wed Sep 25 06:02:51 2019, MaxMem=   671088640 cpu:               1.6 elap:               0.8
 (Enter /shared/centos7/gaussian/g16/l302.exe)
 NPDir=0 NMtPBC=     1 NCelOv=     1 NCel=       1 NClECP=     1 NCelD=      1
         NCelK=      1 NCelE2=     1 NClLst=     1 CellRange=     0.0.
 One-electron integrals computed using PRISM.
 One-electron integral symmetry used in STVInt
 NBasis=   234 RedAO= T EigKep=  2.68D-04  NBF=   234
 NBsUse=   234 1.00D-06 EigRej= -1.00D+00 NBFU=   234
 Precomputing XC quadrature grid using
 IXCGrd= 4 IRadAn=           5 IRanWt=          -1 IRanGd=           0 AccXCQ= 0.00D+00.
 Generated NRdTot=       0 NPtTot=           0 NUsed=           0 NTot=          32
 NSgBfM=   265   265   265   265   265 MxSgAt=    11 MxSgA2=    11.
 Leave Link  302 at Wed Sep 25 06:03:44 2019, MaxMem=   671088640 cpu:             107.5 elap:              53.8
 (Enter /shared/centos7/gaussian/g16/l303.exe)
 DipDrv:  MaxL=1.
 Leave Link  303 at Wed Sep 25 06:03:50 2019, MaxMem=   671088640 cpu:              10.4 elap:               5.2
 (Enter /shared/centos7/gaussian/g16/l401.exe)
 ExpMin= 1.03D-01 ExpMax= 1.53D+04 ExpMxC= 5.22D+02 IAcc=3 IRadAn=         5 AccDes= 0.00D+00
 Harris functional with IExCor= 1009 and IRadAn=       5 diagonalized for initial guess.
 HarFok:  IExCor= 1009 AccDes= 0.00D+00 IRadAn=         5 IDoV= 1 UseB2=F ITyADJ=14
 ICtDFT=  3500011 ScaDFX=  1.000000  1.000000  1.000000  1.000000
 FoFCou: FMM=F IPFlag=           0 FMFlag=      100000 FMFlg1=           0
         NFxFlg=           0 DoJE=T BraDBF=F KetDBF=T FulRan=T
         wScrn=  0.000000 ICntrl=       500 IOpCl=  0 I1Cent=   200000004 NGrid=           0
         NMat0=    1 NMatS0=      1 NMatT0=    0 NMatD0=    1 NMtDS0=    0 NMtDT0=    0
 Petite list used in FoFCou.
 Harris En= -268.202208078880    
 JPrj=0 DoOrth=F DoCkMO=F.
 Leave Link  401 at Wed Sep 25 06:04:17 2019, MaxMem=   671088640 cpu:              55.0 elap:              27.5
 (Enter /shared/centos7/gaussian/g16/l502.exe)
 Keep R1 ints in memory in canonical form, NReq=399924305.
 FoFCou: FMM=F IPFlag=           0 FMFlag=           0 FMFlg1=           0
         NFxFlg=           0 DoJE=F BraDBF=F KetDBF=F FulRan=T
         wScrn=  0.000000 ICntrl=       600 IOpCl=  0 I1Cent=           0 NGrid=           0
         NMat0=    1 NMatS0=  27495 NMatT0=    0 NMatD0=    1 NMtDS0=    0 NMtDT0=    0
 Symmetry not used in FoFCou.
 Two-electron integral symmetry not used.
 Closed shell SCF:
 Using DIIS extrapolation, IDIIS=  1040.
 NGot=   671088640 LenX=   292939207 LenY=   292868541
 Requested convergence on RMS density matrix=1.00D-08 within 900 cycles.
 Requested convergence on MAX density matrix=1.00D-06.
 Requested convergence on             energy=1.00D-06.
 No special actions if energy rises.
 Integral accuracy reduced to 1.0D-05 until final iterations.

 Cycle   1  Pass 0  IDiag  1:
 E= -268.194829409057    
 DIIS: error= 2.11D-02 at cycle   1 NSaved=   1.
 NSaved= 1 IEnMin= 1 EnMin= -268.194829409057     IErMin= 1 ErrMin= 2.11D-02
 ErrMax= 2.11D-02  0.00D+00 EMaxC= 1.00D-01 BMatC= 1.70D-01 BMatP= 1.70D-01
 IDIUse=3 WtCom= 7.89D-01 WtEn= 2.11D-01
 Coeff-Com:  0.100D+01
 Coeff-En:   0.100D+01
 Coeff:      0.100D+01
 Gap=     0.355 Goal=   None    Shift=    0.000
 GapD=    0.355 DampG=1.000 DampE=0.500 DampFc=0.5000 IDamp=-1.
 Damping current iteration by 5.00D-01
 RMSDP=2.02D-03 MaxDP=6.06D-02              OVMax= 1.23D-01

 Cycle   2  Pass 0  IDiag  1:
 E= -268.259375592383     Delta-E=       -0.064546183326 Rises=F Damp=T
 DIIS: error= 5.12D-03 at cycle   2 NSaved=   2.
 NSaved= 2 IEnMin= 2 EnMin= -268.259375592383     IErMin= 2 ErrMin= 5.12D-03
 ErrMax= 5.12D-03  0.00D+00 EMaxC= 1.00D-01 BMatC= 1.64D-02 BMatP= 1.70D-01
 IDIUse=3 WtCom= 9.49D-01 WtEn= 5.12D-02
 Coeff-Com: -0.181D+00 0.118D+01
 Coeff-En:   0.000D+00 0.100D+01
 Coeff:     -0.172D+00 0.117D+01
 Gap=     0.346 Goal=   None    Shift=    0.000
 RMSDP=4.26D-04 MaxDP=9.03D-03 DE=-6.45D-02 OVMax= 5.88D-02

 Cycle   3  Pass 0  IDiag  1:
 E= -268.315099160653     Delta-E=       -0.055723568270 Rises=F Damp=F
 DIIS: error= 3.46D-03 at cycle   3 NSaved=   3.
 NSaved= 3 IEnMin= 3 EnMin= -268.315099160653     IErMin= 3 ErrMin= 3.46D-03
 ErrMax= 3.46D-03  0.00D+00 EMaxC= 1.00D-01 BMatC= 4.01D-03 BMatP= 1.64D-02
 IDIUse=3 WtCom= 9.65D-01 WtEn= 3.46D-02
 Coeff-Com: -0.120D+00 0.407D+00 0.712D+00
 Coeff-En:   0.000D+00 0.000D+00 0.100D+01
 Coeff:     -0.116D+00 0.393D+00 0.722D+00
 Gap=     0.341 Goal=   None    Shift=    0.000
 RMSDP=1.96D-04 MaxDP=6.50D-03 DE=-5.57D-02 OVMax= 2.07D-02

 Cycle   4  Pass 0  IDiag  1:
 E= -268.317045623062     Delta-E=       -0.001946462409 Rises=F Damp=F
 DIIS: error= 1.69D-03 at cycle   4 NSaved=   4.
 NSaved= 4 IEnMin= 4 EnMin= -268.317045623062     IErMin= 4 ErrMin= 1.69D-03
 ErrMax= 1.69D-03  0.00D+00 EMaxC= 1.00D-01 BMatC= 9.58D-04 BMatP= 4.01D-03
 IDIUse=3 WtCom= 9.83D-01 WtEn= 1.69D-02
 Coeff-Com: -0.368D-01 0.913D-01 0.370D+00 0.575D+00
 Coeff-En:   0.000D+00 0.000D+00 0.198D+00 0.802D+00
 Coeff:     -0.361D-01 0.898D-01 0.367D+00 0.579D+00
 Gap=     0.336 Goal=   None    Shift=    0.000
 RMSDP=7.80D-05 MaxDP=2.81D-03 DE=-1.95D-03 OVMax= 8.52D-03

 Cycle   5  Pass 0  IDiag  1:
 E= -268.317779367368     Delta-E=       -0.000733744306 Rises=F Damp=F
 DIIS: error= 2.95D-04 at cycle   5 NSaved=   5.
 NSaved= 5 IEnMin= 5 EnMin= -268.317779367368     IErMin= 5 ErrMin= 2.95D-04
 ErrMax= 2.95D-04  0.00D+00 EMaxC= 1.00D-01 BMatC= 1.48D-05 BMatP= 9.58D-04
 IDIUse=3 WtCom= 9.97D-01 WtEn= 2.95D-03
 Coeff-Com: -0.573D-02 0.108D-01 0.840D-01 0.192D+00 0.719D+00
 Coeff-En:   0.000D+00 0.000D+00 0.000D+00 0.000D+00 0.100D+01
 Coeff:     -0.571D-02 0.107D-01 0.837D-01 0.191D+00 0.720D+00
 Gap=     0.336 Goal=   None    Shift=    0.000
 RMSDP=1.36D-05 MaxDP=4.76D-04 DE=-7.34D-04 OVMax= 1.79D-03

 Cycle   6  Pass 0  IDiag  1:
 E= -268.317791431523     Delta-E=       -0.000012064155 Rises=F Damp=F
 DIIS: error= 7.09D-05 at cycle   6 NSaved=   6.
 NSaved= 6 IEnMin= 6 EnMin= -268.317791431523     IErMin= 6 ErrMin= 7.09D-05
 ErrMax= 7.09D-05  0.00D+00 EMaxC= 1.00D-01 BMatC= 1.95D-06 BMatP= 1.48D-05
 IDIUse=1 WtCom= 1.00D+00 WtEn= 0.00D+00
 Coeff-Com: -0.114D-02 0.112D-02 0.249D-01 0.714D-01 0.351D+00 0.552D+00
 Coeff:     -0.114D-02 0.112D-02 0.249D-01 0.714D-01 0.351D+00 0.552D+00
 Gap=     0.336 Goal=   None    Shift=    0.000
 RMSDP=3.93D-06 MaxDP=1.40D-04 DE=-1.21D-05 OVMax= 4.90D-04

 Initial convergence to 1.0D-05 achieved.  Increase integral accuracy.
 Cycle   7  Pass 1  IDiag  1:
 E= -268.317798784132     Delta-E=       -0.000007352609 Rises=F Damp=F
 DIIS: error= 2.64D-05 at cycle   1 NSaved=   1.
 NSaved= 1 IEnMin= 1 EnMin= -268.317798784132     IErMin= 1 ErrMin= 2.64D-05
 ErrMax= 2.64D-05  0.00D+00 EMaxC= 1.00D-01 BMatC= 2.77D-07 BMatP= 2.77D-07
 IDIUse=1 WtCom= 1.00D+00 WtEn= 0.00D+00
 Coeff-Com:  0.100D+01
 Coeff:      0.100D+01
 Gap=     0.336 Goal=   None    Shift=    0.000
 RMSDP=3.93D-06 MaxDP=1.40D-04 DE=-7.35D-06 OVMax= 3.03D-04

 Cycle   8  Pass 1  IDiag  1:
 E= -268.317798869055     Delta-E=       -0.000000084923 Rises=F Damp=F
 DIIS: error= 2.42D-05 at cycle   2 NSaved=   2.
 NSaved= 2 IEnMin= 2 EnMin= -268.317798869055     IErMin= 2 ErrMin= 2.42D-05
 ErrMax= 2.42D-05  0.00D+00 EMaxC= 1.00D-01 BMatC= 2.04D-07 BMatP= 2.77D-07
 IDIUse=1 WtCom= 1.00D+00 WtEn= 0.00D+00
 Coeff-Com:  0.451D+00 0.549D+00
 Coeff:      0.451D+00 0.549D+00
 Gap=     0.336 Goal=   None    Shift=    0.000
 RMSDP=1.40D-06 MaxDP=4.68D-05 DE=-8.49D-08 OVMax= 1.86D-04

 Cycle   9  Pass 1  IDiag  1:
 E= -268.317799006122     Delta-E=       -0.000000137067 Rises=F Damp=F
 DIIS: error= 9.35D-06 at cycle   3 NSaved=   3.
 NSaved= 3 IEnMin= 3 EnMin= -268.317799006122     IErMin= 3 ErrMin= 9.35D-06
 ErrMax= 9.35D-06  0.00D+00 EMaxC= 1.00D-01 BMatC= 2.10D-08 BMatP= 2.04D-07
 IDIUse=1 WtCom= 1.00D+00 WtEn= 0.00D+00
 Coeff-Com: -0.334D-01 0.226D+00 0.808D+00
 Coeff:     -0.334D-01 0.226D+00 0.808D+00
 Gap=     0.336 Goal=   None    Shift=    0.000
 RMSDP=5.21D-07 MaxDP=1.49D-05 DE=-1.37D-07 OVMax= 6.18D-05

 Cycle  10  Pass 1  IDiag  1:
 E= -268.317799024066     Delta-E=       -0.000000017945 Rises=F Damp=F
 DIIS: error= 1.59D-06 at cycle   4 NSaved=   4.
 NSaved= 4 IEnMin= 4 EnMin= -268.317799024066     IErMin= 4 ErrMin= 1.59D-06
 ErrMax= 1.59D-06  0.00D+00 EMaxC= 1.00D-01 BMatC= 6.25D-10 BMatP= 2.10D-08
 IDIUse=1 WtCom= 1.00D+00 WtEn= 0.00D+00
 Coeff-Com: -0.203D-01 0.499D-01 0.262D+00 0.708D+00
 Coeff:     -0.203D-01 0.499D-01 0.262D+00 0.708D+00
 Gap=     0.336 Goal=   None    Shift=    0.000
 RMSDP=7.89D-08 MaxDP=2.61D-06 DE=-1.79D-08 OVMax= 9.17D-06

 Cycle  11  Pass 1  IDiag  1:
 E= -268.317799024575     Delta-E=       -0.000000000509 Rises=F Damp=F
 DIIS: error= 7.16D-07 at cycle   5 NSaved=   5.
 NSaved= 5 IEnMin= 5 EnMin= -268.317799024575     IErMin= 5 ErrMin= 7.16D-07
 ErrMax= 7.16D-07  0.00D+00 EMaxC= 1.00D-01 BMatC= 1.33D-10 BMatP= 6.25D-10
 IDIUse=1 WtCom= 1.00D+00 WtEn= 0.00D+00
 Coeff-Com: -0.475D-02-0.149D-01-0.131D-02 0.309D+00 0.712D+00
 Coeff:     -0.475D-02-0.149D-01-0.131D-02 0.309D+00 0.712D+00
 Gap=     0.336 Goal=   None    Shift=    0.000
 RMSDP=4.06D-08 MaxDP=1.18D-06 DE=-5.09D-10 OVMax= 2.71D-06

 Cycle  12  Pass 1  IDiag  1:
 E= -268.317799024676     Delta-E=       -0.000000000101 Rises=F Damp=F
 DIIS: error= 2.24D-07 at cycle   6 NSaved=   6.
 NSaved= 6 IEnMin= 6 EnMin= -268.317799024676     IErMin= 6 ErrMin= 2.24D-07
 ErrMax= 2.24D-07  0.00D+00 EMaxC= 1.00D-01 BMatC= 1.01D-11 BMatP= 1.33D-10
 IDIUse=1 WtCom= 1.00D+00 WtEn= 0.00D+00
 Coeff-Com:  0.159D-02-0.129D-01-0.392D-01 0.506D-02 0.251D+00 0.795D+00
 Coeff:      0.159D-02-0.129D-01-0.392D-01 0.506D-02 0.251D+00 0.795D+00
 Gap=     0.336 Goal=   None    Shift=    0.000
 RMSDP=1.25D-08 MaxDP=4.30D-07 DE=-1.01D-10 OVMax= 1.71D-06

 Cycle  13  Pass 1  IDiag  1:
 E= -268.317799024689     Delta-E=       -0.000000000013 Rises=F Damp=F
 DIIS: error= 4.07D-08 at cycle   7 NSaved=   7.
 NSaved= 7 IEnMin= 7 EnMin= -268.317799024689     IErMin= 7 ErrMin= 4.07D-08
 ErrMax= 4.07D-08  0.00D+00 EMaxC= 1.00D-01 BMatC= 8.36D-13 BMatP= 1.01D-11
 IDIUse=1 WtCom= 1.00D+00 WtEn= 0.00D+00
 Coeff-Com:  0.863D-03-0.469D-02-0.160D-01-0.105D-01 0.697D-01 0.324D+00
 Coeff-Com:  0.636D+00
 Coeff:      0.863D-03-0.469D-02-0.160D-01-0.105D-01 0.697D-01 0.324D+00
 Coeff:      0.636D+00
 Gap=     0.336 Goal=   None    Shift=    0.000
 RMSDP=3.21D-09 MaxDP=1.19D-07 DE=-1.32D-11 OVMax= 3.73D-07

 SCF Done:  E(RM062X) =  -268.317799025     A.U. after   13 cycles
            NFock= 13  Conv=0.32D-08     -V/T= 2.0062
 KE= 2.666635737215D+02 PE=-9.787414905745D+02 EE= 2.685328899033D+02
 Leave Link  502 at Wed Sep 25 06:10:45 2019, MaxMem=   671088640 cpu:             764.9 elap:             388.0
 (Enter /shared/centos7/gaussian/g16/l801.exe)
 DoSCS=F DFT=T ScalE2(SS,OS)=  1.000000  1.000000
 Range of M.O.s used for correlation:     1   234
 NBasis=   234 NAE=    20 NBE=    20 NFC=     0 NFV=     0
 NROrb=    234 NOA=    20 NOB=    20 NVA=   214 NVB=   214

 **** Warning!!: The largest alpha MO coefficient is  0.13787181D+02

 Leave Link  801 at Wed Sep 25 06:10:46 2019, MaxMem=   671088640 cpu:               1.7 elap:               0.9
 (Enter /shared/centos7/gaussian/g16/l1101.exe)
 Using compressed storage, NAtomX=    11.
 Will process     12 centers per pass.
 Leave Link 1101 at Wed Sep 25 06:11:11 2019, MaxMem=   671088640 cpu:              48.9 elap:              24.4
 (Enter /shared/centos7/gaussian/g16/l1102.exe)
 Symmetrizing basis deriv contribution to polar:
 IMax=3 JMax=2 DiffMx= 0.00D+00
 Leave Link 1102 at Wed Sep 25 06:11:13 2019, MaxMem=   671088640 cpu:               5.4 elap:               2.7
 (Enter /shared/centos7/gaussian/g16/l1110.exe)
 Forming Gx(P) for the SCF density, NAtomX=    11.
 Integral derivatives from FoFJK, PRISM(SPDF).
 Do as many integral derivatives as possible in FoFJK.
 G2DrvN: MDV=     671087712.
 G2DrvN: will do    12 centers at a time, making    1 passes.
 Calling FoFCou, ICntrl=  3107 FMM=F I1Cent=   0 AccDes= 0.00D+00.
 FoFJK:  IHMeth= 1 ICntrl=    3107 DoSepK=F KAlg= 0 I1Cent=           0 FoldK=F
 IRaf=         0 NMat=       1 IRICut=       1 DoRegI=T DoRafI=F ISym2E= 0 IDoP0=0 IntGTp=1.
 FoFCou: FMM=F IPFlag=           0 FMFlag=      100000 FMFlg1=           0
         NFxFlg=           0 DoJE=F BraDBF=F KetDBF=F FulRan=T
         wScrn=  0.000000 ICntrl=      3107 IOpCl=  0 I1Cent=           0 NGrid=           0
         NMat0=    1 NMatS0=      1 NMatT0=    0 NMatD0=    1 NMtDS0=    0 NMtDT0=    0
 Symmetry not used in FoFCou.
 End of G2Drv F.D. properties file   721 does not exist.
 End of G2Drv F.D. properties file   722 does not exist.
 End of G2Drv F.D. properties file   788 does not exist.
 Leave Link 1110 at Wed Sep 25 06:18:13 2019, MaxMem=   671088640 cpu:             838.9 elap:             419.5
 (Enter /shared/centos7/gaussian/g16/l1002.exe)
 Minotr:  Closed shell wavefunction.
          IDoAtm=11111111111
          Direct CPHF calculation.
          Differentiating once with respect to nuclear coordinates.
          Requested convergence is 1.0D-08 RMS, and 1.0D-07 maximum.
          Secondary convergence is 1.0D-12 RMS, and 1.0D-12 maximum.
          NewPWx=T KeepS1=F KeepF1=F KeepIn=T MapXYZ=F SortEE=F KeepMc=T.
         3279 words used for storage of precomputed grid.
 Keep R1 ints in memory in canonical form, NReq=399865278.
 FoFCou: FMM=F IPFlag=           0 FMFlag=           0 FMFlg1=           0
         NFxFlg=           0 DoJE=F BraDBF=F KetDBF=F FulRan=T
         wScrn=  0.000000 ICntrl=       600 IOpCl=  0 I1Cent=           0 NGrid=           0
         NMat0=    1 NMatS0=  27495 NMatT0=    0 NMatD0=    1 NMtDS0=    0 NMtDT0=    0
 Symmetry not used in FoFCou.
 Two-electron integral symmetry not used.
          MDV=     671088640 using IRadAn=       1.
          Solving linear equations simultaneously, MaxMat=       0.
          There are    36 degrees of freedom in the 1st order CPHF.  IDoFFX=6 NUNeed=     0.
     30 vectors produced by pass  0 Test12= 1.19D-14 2.78D-09 XBig12= 6.65D-02 9.90D-02.
 AX will form    30 AO Fock derivatives at one time.
     30 vectors produced by pass  1 Test12= 1.19D-14 2.78D-09 XBig12= 1.44D-02 3.68D-02.
     30 vectors produced by pass  2 Test12= 1.19D-14 2.78D-09 XBig12= 5.51D-04 5.06D-03.
     30 vectors produced by pass  3 Test12= 1.19D-14 2.78D-09 XBig12= 7.14D-06 3.29D-04.
     30 vectors produced by pass  4 Test12= 1.19D-14 2.78D-09 XBig12= 5.66D-08 3.88D-05.
     30 vectors produced by pass  5 Test12= 1.19D-14 2.78D-09 XBig12= 2.16D-10 1.90D-06.
     19 vectors produced by pass  6 Test12= 1.19D-14 2.78D-09 XBig12= 8.49D-13 1.72D-07.
      4 vectors produced by pass  7 Test12= 1.19D-14 2.78D-09 XBig12= 3.50D-15 1.15D-08.
 InvSVY:  IOpt=1 It=  1 EMax= 8.88D-16
 Solved reduced A of dimension   203 with    30 vectors.
 End of Minotr F.D. properties file   721 does not exist.
 End of Minotr F.D. properties file   722 does not exist.
 End of Minotr F.D. properties file   788 does not exist.
 Leave Link 1002 at Wed Sep 25 06:28:27 2019, MaxMem=   671088640 cpu:            1227.4 elap:             613.8
 (Enter /shared/centos7/gaussian/g16/l601.exe)
 Copying SCF densities to generalized density rwf, IOpCl= 0 IROHF=0.

 **********************************************************************

            Population analysis using the SCF density.

 **********************************************************************

 Orbital symmetries:
       Occupied  (A) (A) (A) (A) (A) (A) (A) (A) (A) (A) (A) (A)
                 (A) (A) (A) (A) (A) (A) (A) (A)
       Virtual   (A) (A) (A) (A) (A) (A) (A) (A) (A) (A) (A) (A)
                 (A) (A) (A) (A) (A) (A) (A) (A) (A) (A) (A) (A)
                 (A) (A) (A) (A) (A) (A) (A) (A) (A) (A) (A) (A)
                 (A) (A) (A) (A) (A) (A) (A) (A) (A) (A) (A) (A)
                 (A) (A) (A) (A) (A) (A) (A) (A) (A) (A) (A) (A)
                 (A) (A) (A) (A) (A) (A) (A) (A) (A) (A) (A) (A)
                 (A) (A) (A) (A) (A) (A) (A) (A) (A) (A) (A) (A)
                 (A) (A) (A) (A) (A) (A) (A) (A) (A) (A) (A) (A)
                 (A) (A) (A) (A) (A) (A) (A) (A) (A) (A) (A) (A)
                 (A) (A) (A) (A) (A) (A) (A) (A) (A) (A) (A) (A)
                 (A) (A) (A) (A) (A) (A) (A) (A) (A) (A) (A) (A)
                 (A) (A) (A) (A) (A) (A) (A) (A) (A) (A) (A) (A)
                 (A) (A) (A) (A) (A) (A) (A) (A) (A) (A) (A) (A)
                 (A) (A) (A) (A) (A) (A) (A) (A) (A) (A) (A) (A)
                 (A) (A) (A) (A) (A) (A) (A) (A) (A) (A) (A) (A)
                 (A) (A) (A) (A) (A) (A) (A) (A) (A) (A) (A) (A)
                 (A) (A) (A) (A) (A) (A) (A) (A) (A) (A) (A) (A)
                 (A) (A) (A) (A) (A) (A) (A) (A) (A) (A)
 The electronic state is 1-A.
 Alpha  occ. eigenvalues --  -19.65536 -19.64329 -10.60153 -10.58146 -10.57831
 Alpha  occ. eigenvalues --   -1.18509  -1.15222  -0.85853  -0.77862  -0.67749
 Alpha  occ. eigenvalues --   -0.60709  -0.58373  -0.54453  -0.50447  -0.48815
 Alpha  occ. eigenvalues --   -0.46563  -0.43547  -0.42045  -0.40131  -0.26836
 Alpha virt. eigenvalues --    0.06801   0.07811   0.08225   0.09791   0.13163
 Alpha virt. eigenvalues --    0.14269   0.15335   0.15608   0.20797   0.29067
 Alpha virt. eigenvalues --    0.30725   0.31607   0.33540   0.34697   0.35251
 Alpha virt. eigenvalues --    0.37808   0.41065   0.42679   0.43259   0.45334
 Alpha virt. eigenvalues --    0.46719   0.47286   0.48534   0.49310   0.52616
 Alpha virt. eigenvalues --    0.54037   0.54956   0.56029   0.60309   0.62726
 Alpha virt. eigenvalues --    0.64505   0.70661   0.70876   0.73985   0.74347
 Alpha virt. eigenvalues --    0.76742   0.82142   0.82507   0.83367   0.85496
 Alpha virt. eigenvalues --    0.88336   0.90480   0.93350   0.99353   1.00675
 Alpha virt. eigenvalues --    1.01464   1.04917   1.07409   1.09550   1.11077
 Alpha virt. eigenvalues --    1.12588   1.17168   1.19515   1.22166   1.24970
 Alpha virt. eigenvalues --    1.27957   1.29772   1.30458   1.32254   1.33964
 Alpha virt. eigenvalues --    1.35078   1.38348   1.39591   1.44702   1.48234
 Alpha virt. eigenvalues --    1.51718   1.53911   1.61022   1.71382   1.79047
 Alpha virt. eigenvalues --    1.86252   1.91262   1.93702   1.99997   2.01346
 Alpha virt. eigenvalues --    2.03581   2.10199   2.12007   2.13844   2.18224
 Alpha virt. eigenvalues --    2.19685   2.24442   2.25329   2.33704   2.34966
 Alpha virt. eigenvalues --    2.39013   2.44408   2.48588   2.54079   2.54398
 Alpha virt. eigenvalues --    2.63972   2.65482   2.71751   2.75555   2.76638
 Alpha virt. eigenvalues --    2.78501   2.80075   2.80313   2.84402   2.87428
 Alpha virt. eigenvalues --    2.89121   2.91756   2.94652   2.98429   2.99377
 Alpha virt. eigenvalues --    3.00885   3.01265   3.01973   3.08342   3.08640
 Alpha virt. eigenvalues --    3.11784   3.13667   3.13821   3.19830   3.20391
 Alpha virt. eigenvalues --    3.22299   3.24969   3.26794   3.28062   3.29770
 Alpha virt. eigenvalues --    3.32050   3.32865   3.33915   3.37381   3.38020
 Alpha virt. eigenvalues --    3.42516   3.43978   3.44148   3.49778   3.54978
 Alpha virt. eigenvalues --    3.58646   3.62655   3.66495   3.68423   3.69135
 Alpha virt. eigenvalues --    3.71185   3.73288   3.77135   3.78089   3.81818
 Alpha virt. eigenvalues --    3.82772   3.83006   3.86641   3.90019   3.93815
 Alpha virt. eigenvalues --    3.96947   4.00315   4.01144   4.03111   4.05226
 Alpha virt. eigenvalues --    4.09930   4.12610   4.17123   4.20133   4.25652
 Alpha virt. eigenvalues --    4.26620   4.29752   4.35369   4.43846   4.48593
 Alpha virt. eigenvalues --    4.51674   4.54982   4.58752   4.61585   4.69576
 Alpha virt. eigenvalues --    4.70288   4.75251   4.84036   4.85795   4.90295
 Alpha virt. eigenvalues --    4.90733   4.96824   4.98023   4.99609   5.02582
 Alpha virt. eigenvalues --    5.03720   5.08909   5.17690   5.18717   5.26819
 Alpha virt. eigenvalues --    5.39290   5.42544   5.48031   5.52284   5.66304
 Alpha virt. eigenvalues --    5.68918   5.71612   5.76670   5.76968   5.88969
 Alpha virt. eigenvalues --    5.92254   5.93690   6.16610   6.27607   6.32560
 Alpha virt. eigenvalues --    6.38932   6.50414   6.58959   6.67728   6.70064
 Alpha virt. eigenvalues --    6.76811   6.78714   6.81230   6.87059   7.02651
 Alpha virt. eigenvalues --    7.12782   7.24533   7.27742   7.38352  10.06811
 Alpha virt. eigenvalues --   10.79415  11.77975  12.88003  14.18813
          Condensed to atoms (all electrons):
               1          2          3          4          5          6
     1  O    7.896405  -0.001416   0.306306   0.321795  -0.077671  -0.046874
     2  O   -0.001416   7.794604  -0.000123  -0.085811   0.363277  -0.000071
     3  C    0.306306  -0.000123   4.714227  -0.070004   0.000372   0.398017
     4  C    0.321795  -0.085811  -0.070004   4.999845   0.564144  -0.005150
     5  C   -0.077671   0.363277   0.000372   0.564144   4.847811   0.000372
     6  H   -0.046874  -0.000071   0.398017  -0.005150   0.000372   0.670636
     7  H   -0.029045   0.000003   0.393283   0.008350   0.000531  -0.030170
     8  H   -0.046474  -0.000067   0.394001  -0.008760  -0.000423  -0.078635
     9  H   -0.055473   0.005311  -0.003173   0.381075  -0.052460   0.001913
    10  H    0.002911  -0.035752  -0.000509  -0.075299   0.435509  -0.000050
    11  H    0.016993   0.327014  -0.000748  -0.022139  -0.040895   0.000076
               7          8          9         10         11
     1  O   -0.029045  -0.046474  -0.055473   0.002911   0.016993
     2  O    0.000003  -0.000067   0.005311  -0.035752   0.327014
     3  C    0.393283   0.394001  -0.003173  -0.000509  -0.000748
     4  C    0.008350  -0.008760   0.381075  -0.075299  -0.022139
     5  C    0.000531  -0.000423  -0.052460   0.435509  -0.040895
     6  H   -0.030170  -0.078635   0.001913  -0.000050   0.000076
     7  H    0.577506  -0.030628  -0.000407   0.000030  -0.000124
     8  H   -0.030628   0.671344   0.004085  -0.000082   0.000125
     9  H   -0.000407   0.004085   0.614895  -0.006274   0.001478
    10  H    0.000030  -0.000082  -0.006274   0.523174   0.006167
    11  H   -0.000124   0.000125   0.001478   0.006167   0.432685
 Mulliken charges:
               1
     1  O   -0.287458
     2  O   -0.366969
     3  C   -0.131648
     4  C   -0.008046
     5  C   -0.040569
     6  H    0.089935
     7  H    0.110672
     8  H    0.095512
     9  H    0.109029
    10  H    0.150175
    11  H    0.279367
 Sum of Mulliken charges =  -0.00000
 Mulliken charges with hydrogens summed into heavy atoms:
               1
     1  O   -0.287458
     2  O   -0.087602
     3  C    0.164471
     4  C    0.100983
     5  C    0.109605
 APT charges:
               1
     1  O   -0.218306
     2  O   -0.298869
     3  C   -0.980108
     4  C   -0.323658
     5  C   -0.430414
     6  H    0.327207
     7  H    0.452088
     8  H    0.323895
     9  H    0.322429
    10  H    0.497075
    11  H    0.328661
 Sum of APT charges =  -0.00000
 APT charges with hydrogens summed into heavy atoms:
               1
     1  O   -0.218306
     2  O    0.029792
     3  C    0.123082
     4  C   -0.001228
     5  C    0.066661
 Electronic spatial extent (au):  <R**2>=            499.2733
 Charge=             -0.0000 electrons
 Dipole moment (field-independent basis, Debye):
    X=              2.3652    Y=              0.8139    Z=             -0.0009  Tot=              2.5013
 Quadrupole moment (field-independent basis, Debye-Ang):
   XX=            -30.0754   YY=            -27.0981   ZZ=            -32.3733
   XY=             -1.0942   XZ=             -0.0409   YZ=             -0.0109
 Traceless Quadrupole moment (field-independent basis, Debye-Ang):
   XX=             -0.2264   YY=              2.7508   ZZ=             -2.5244
   XY=             -1.0942   XZ=             -0.0409   YZ=             -0.0109
 Octapole moment (field-independent basis, Debye-Ang**2):
  XXX=             16.8903  YYY=             -6.8746  ZZZ=              0.1126  XYY=             -4.2621
  XXY=              3.3549  XXZ=             -0.2567  XZZ=              0.6099  YZZ=             -2.2861
  YYZ=             -0.2137  XYZ=             -0.0376
 Hexadecapole moment (field-independent basis, Debye-Ang**3):
 XXXX=           -500.2450 YYYY=            -93.3260 ZZZZ=            -39.8161 XXXY=            -19.8134
 XXXZ=             -0.9699 YYYX=              4.8045 YYYZ=             -0.0228 ZZZX=              0.2157
 ZZZY=              0.0488 XXYY=            -90.0582 XXZZ=            -90.1852 YYZZ=            -26.1190
 XXYZ=              0.2969 YYXZ=             -0.6916 ZZXY=              3.0348
 N-N= 1.752272279250D+02 E-N=-9.787414811576D+02  KE= 2.666635737215D+02
  Exact polarizability:   0.000   0.000   0.000   0.000   0.000   0.000
 Approx polarizability:  67.539   0.898  49.964   0.075   0.255  38.677
 No NMR shielding tensors so no spin-rotation constants.
 Leave Link  601 at Wed Sep 25 06:28:55 2019, MaxMem=   671088640 cpu:              57.3 elap:              28.7
 (Enter /shared/centos7/gaussian/g16/l701.exe)
 SCFChk:  SCF convergence  3.21D-09 required  1.00D-08
 ... and contract with generalized density number  0.
 Compute integral second derivatives.
 Entering OneElI...
 Calculate overlap and kinetic energy integrals
    NBasis = 265  MinDer = 2  MaxDer = 2
 Requested accuracy = 0.1000D-12
 PrmmSu-InSpLW:  IPartL=    0 NPrtUS=   20 NPrtUL=    1 DoSpLW=F IThBeg=    0 IThEnd=   19 NThAct=   20.
 PrsmSu:  NPrtUS=  20 ThrOK=T IAlg=1 NPAlg=1 LenDen=           0 ISkipM=0 DoSpLW=F IThBeg=    0 IThEnd=   19.
 Prism:   IPart=     0 DynPar=F LinDyn=F Incr=           1.
 PRISM was handed    33439710 working-precision words and  3733 shell-pairs
 PRISM was handed    33439710 working-precision words and  3733 shell-pairs
 PRISM was handed    33439710 working-precision words and  3733 shell-pairs
 PRISM was handed    33439710 working-precision words and  3733 shell-pairs
 PRISM was handed    33439710 working-precision words and  3733 shell-pairs
 PRISM was handed    33439710 working-precision words and  3733 shell-pairs
 PRISM was handed    33439710 working-precision words and  3733 shell-pairs
 PRISM was handed    33439710 working-precision words and  3733 shell-pairs
 PRISM was handed    33439710 working-precision words and  3733 shell-pairs
 PRISM was handed    33439710 working-precision words and  3733 shell-pairs
 PRISM was handed    33439710 working-precision words and  3733 shell-pairs
 PRISM was handed    33439710 working-precision words and  3733 shell-pairs
 PRISM was handed    33439710 working-precision words and  3733 shell-pairs
 PRISM was handed    33439710 working-precision words and  3733 shell-pairs
 PRISM was handed    33439710 working-precision words and  3733 shell-pairs
 PRISM was handed    33439710 working-precision words and  3733 shell-pairs
 PRISM was handed    33439710 working-precision words and  3733 shell-pairs
 PRISM was handed    33439710 working-precision words and  3733 shell-pairs
 PRISM was handed    33439710 working-precision words and  3733 shell-pairs
 PRISM was handed    33439710 working-precision words and  3733 shell-pairs
 IPart=  3 NShTot=         211 NBatch=          52 AvBLen=         4.1
 IPart= 15 NShTot=         171 NBatch=          25 AvBLen=         6.8
 IPart=  8 NShTot=         180 NBatch=          27 AvBLen=         6.7
 IPart=  0 NShTot=         230 NBatch=          70 AvBLen=         3.3
 IPart= 16 NShTot=         168 NBatch=          25 AvBLen=         6.7
 IPart=  9 NShTot=         179 NBatch=          27 AvBLen=         6.6
 IPart=  5 NShTot=         198 NBatch=          42 AvBLen=         4.7
 IPart= 18 NShTot=         164 NBatch=          25 AvBLen=         6.6
 IPart=  4 NShTot=         204 NBatch=          48 AvBLen=         4.3
 IPart=  6 NShTot=         194 NBatch=          39 AvBLen=         5.0
 IPart= 14 NShTot=         172 NBatch=          26 AvBLen=         6.6
 IPart= 11 NShTot=         176 NBatch=          26 AvBLen=         6.8
 IPart=  7 NShTot=         190 NBatch=          35 AvBLen=         5.4
 IPart= 10 NShTot=         177 NBatch=          27 AvBLen=         6.6
 IPart=  2 NShTot=         215 NBatch=          55 AvBLen=         3.9
 IPart= 13 NShTot=         174 NBatch=          26 AvBLen=         6.7
 IPart= 17 NShTot=         167 NBatch=          25 AvBLen=         6.7
 IPart= 19 NShTot=         162 NBatch=          25 AvBLen=         6.5
 IPart= 12 NShTot=         176 NBatch=          26 AvBLen=         6.8
 IPart=  1 NShTot=         225 NBatch=          65 AvBLen=         3.5
 PrSmSu:  NxtVal=             21.
 Entering OneElI...
 Calculate potential energy integrals
    NBasis = 265  MinDer = 2  MaxDer = 2
 Requested accuracy = 0.1000D-12
 PrmmSu-InSpLW:  IPartL=    0 NPrtUS=   20 NPrtUL=    1 DoSpLW=F IThBeg=    0 IThEnd=   19 NThAct=   20.
 PrsmSu:  NPrtUS=  20 ThrOK=T IAlg=1 NPAlg=1 LenDen=           0 ISkipM=0 DoSpLW=F IThBeg=    0 IThEnd=   19.
 Prism:   IPart=     0 DynPar=F LinDyn=F Incr=          19.
 PRISM was handed    33456817 working-precision words and  3492 shell-pairs
 PRISM was handed    33456817 working-precision words and  3492 shell-pairs
 PRISM was handed    33456817 working-precision words and  3492 shell-pairs
 PRISM was handed    33456817 working-precision words and  3492 shell-pairs
 PRISM was handed    33456817 working-precision words and  3492 shell-pairs
 PRISM was handed    33456817 working-precision words and  3492 shell-pairs
 PRISM was handed    33456817 working-precision words and  3492 shell-pairs
 PRISM was handed    33456817 working-precision words and  3492 shell-pairs
 PRISM was handed    33456817 working-precision words and  3492 shell-pairs
 PRISM was handed    33456817 working-precision words and  3492 shell-pairs
 PRISM was handed    33456817 working-precision words and  3492 shell-pairs
 PRISM was handed    33456817 working-precision words and  3492 shell-pairs
 PRISM was handed    33456817 working-precision words and  3492 shell-pairs
 PRISM was handed    33456817 working-precision words and  3492 shell-pairs
 PRISM was handed    33456817 working-precision words and  3492 shell-pairs
 PRISM was handed    33456817 working-precision words and  3492 shell-pairs
 PRISM was handed    33456817 working-precision words and  3492 shell-pairs
 PRISM was handed    33456817 working-precision words and  3492 shell-pairs
 PRISM was handed    33456817 working-precision words and  3492 shell-pairs
 PRISM was handed    33456817 working-precision words and  3492 shell-pairs
 IPart= 12 NShTot=        1837 NBatch=         167 AvBLen=        11.0
 IPart= 16 NShTot=        1771 NBatch=         161 AvBLen=        11.0
 IPart= 18 NShTot=        1738 NBatch=         158 AvBLen=        11.0
 IPart=  0 NShTot=        2343 NBatch=         213 AvBLen=        11.0
 IPart= 17 NShTot=        1749 NBatch=         159 AvBLen=        11.0
 IPart= 19 NShTot=        1716 NBatch=         156 AvBLen=        11.0
 IPart=  2 NShTot=        2211 NBatch=         201 AvBLen=        11.0
 IPart=  1 NShTot=        2277 NBatch=         207 AvBLen=        11.0
 IPart= 11 NShTot=        1837 NBatch=         167 AvBLen=        11.0
 IPart=  8 NShTot=        1881 NBatch=         171 AvBLen=        11.0
 IPart=  4 NShTot=        2068 NBatch=         188 AvBLen=        11.0
 IPart= 10 NShTot=        1848 NBatch=         168 AvBLen=        11.0
 IPart=  3 NShTot=        2101 NBatch=         191 AvBLen=        11.0
 IPart=  9 NShTot=        1859 NBatch=         169 AvBLen=        11.0
 IPart=  6 NShTot=        1903 NBatch=         173 AvBLen=        11.0
 IPart= 14 NShTot=        1826 NBatch=         166 AvBLen=        11.0
 IPart= 15 NShTot=        1793 NBatch=         163 AvBLen=        11.0
 IPart=  5 NShTot=        1925 NBatch=         175 AvBLen=        11.0
 IPart= 13 NShTot=        1837 NBatch=         167 AvBLen=        11.0
 IPart=  7 NShTot=        1892 NBatch=         172 AvBLen=        11.0
 PrSmSu:  NxtVal=            381.
 Polarizability after L701:
                1             2             3 
      1  0.000000D+00
      2  0.000000D+00  0.000000D+00
      3  0.000000D+00  0.000000D+00  0.000000D+00
 Dipole Derivatives after L701:
                 1             2             3             4             5 
      1  -0.240381D+00 -0.227461D-01  0.101705D-01  0.416128D+00 -0.122632D+00
      2   0.505355D-01 -0.144062D+00  0.201359D-02  0.540563D+00 -0.906069D+00
      3   0.364432D-03  0.100362D-01 -0.270476D+00 -0.388678D-02 -0.783819D-03
                 6             7             8             9            10 
      1  -0.863401D-02 -0.138222D+01 -0.902207D-01 -0.688509D-01 -0.334985D+00
      2  -0.486084D-02 -0.426306D-01 -0.756366D+00 -0.481529D-02  0.149066D+00
      3  -0.406665D+00 -0.698038D-02  0.343908D-02 -0.801736D+00 -0.947479D-03
                11            12            13            14            15 
      1  -0.983778D-01 -0.274345D-02 -0.738431D+00  0.281418D+00  0.162188D-01
      2  -0.702197D+00 -0.146763D-02 -0.605861D-01 -0.599416D+00 -0.389922D-02
      3  -0.484598D-02  0.662099D-01  0.137478D-01  0.285643D-03  0.466044D-01
                16            17            18            19            20 
      1   0.370521D+00  0.413838D+00  0.613805D+00  0.738707D+00 -0.928068D+00
      2   0.513757D-01  0.152559D+00  0.112062D+00 -0.227689D+00  0.519123D+00
      3   0.725722D-01  0.167443D+00  0.458541D+00 -0.178783D-01  0.361349D-01
                21            22            23            24            25 
      1  -0.101650D+00  0.363650D+00  0.535937D+00 -0.457189D+00  0.230877D+00
      2   0.449541D-01  0.634262D-01  0.229657D+00 -0.149951D+00  0.265279D+00
      3   0.984341D-01 -0.529791D-01 -0.210263D+00  0.378378D+00 -0.167708D-02
                26            27            28            29            30 
      1   0.188328D+00 -0.623936D-04  0.714957D+00 -0.698692D+00 -0.523674D-02
      2   0.690132D+00 -0.815127D-03 -0.387349D+00  0.687150D+00  0.340583D-02
      3  -0.368445D-02  0.462784D-01 -0.385017D-02  0.368607D-02  0.891179D-01
                31            32            33 
      1  -0.138820D+00  0.541216D+00  0.417207D-02
      2  -0.401992D+00  0.829489D+00  0.337368D-02
      3   0.151476D-02 -0.144783D-02  0.295314D+00
 Hessian after L701:
                1             2             3             4             5 
      1  0.281568D+01
      2  0.273248D+01  0.947770D+01
      3 -0.530577D-01 -0.537339D-01  0.149206D+02
      4  0.943733D+00  0.356380D-01 -0.145972D-01  0.732942D+01
      5 -0.633006D-01 -0.427558D+00  0.868291D-03 -0.166524D+01  0.429447D+01
      6 -0.166275D-01 -0.273482D-03 -0.483892D+00  0.529179D-01  0.133938D-01
      7  0.792282D+00  0.188608D+01  0.149997D+00  0.198480D+00  0.219620D-01
      8  0.171773D+01 -0.646897D+01  0.778684D-01  0.473602D-01 -0.104324D+00
      9  0.141058D+00  0.683220D-01 -0.738381D+01 -0.181950D-02  0.472252D-04
     10 -0.464611D+01 -0.446227D+01 -0.133013D-01  0.574283D+00  0.177250D+00
     11 -0.449405D+01 -0.233830D+01  0.265938D-01  0.109485D+00 -0.229803D+00
     12 -0.117868D-01  0.263997D-01 -0.801574D+01  0.377549D-02  0.279081D-02
     13  0.252058D+00  0.277709D-01  0.853626D-03 -0.598376D+01  0.370146D+01
     14  0.171415D+00 -0.347935D+00 -0.493824D-03  0.397584D+01 -0.113975D+01
     15  0.176362D-02 -0.804482D-03  0.171708D+00 -0.243516D-01 -0.338194D-01
     16 -0.238175D+00 -0.138626D+00  0.113402D+00  0.261703D-01  0.514398D-02
     17 -0.955021D-01  0.765329D-01  0.112801D+00  0.184588D-01 -0.110350D-01
     18  0.858125D-01  0.896812D-01  0.399155D+00  0.265857D-01  0.137701D-02
     19 -0.106449D+00 -0.111942D+00 -0.159097D-01  0.382018D-01 -0.836358D-02
     20 -0.176469D+00  0.150542D+00  0.163280D-01 -0.259168D-01 -0.384569D-02
     21 -0.213376D-01  0.152574D-01  0.213483D-01 -0.336858D-02  0.754289D-03
     22 -0.212065D+00 -0.132677D+00 -0.165064D+00  0.262083D-01  0.646527D-02
     23 -0.864825D-01  0.105416D+00 -0.173567D+00  0.234612D-01 -0.963752D-02
     24 -0.122819D+00 -0.141031D+00  0.364752D+00 -0.212532D-01 -0.223419D-02
     25  0.190018D+00  0.179933D+00  0.427948D-03  0.739196D-01  0.105521D+00
     26  0.194486D+00 -0.169739D+00 -0.612978D-02  0.138494D+00  0.594747D-01
     27  0.180347D-03 -0.419292D-02  0.182390D+00 -0.660338D-03 -0.698030D-03
     28  0.868245D-01 -0.871474D-01 -0.952008D-03  0.105245D+00 -0.117458D+00
     29 -0.100635D+00  0.294976D-01  0.691254D-03 -0.749257D-01 -0.175352D+00
     30 -0.951855D-03  0.852698D-03 -0.318966D-01 -0.619746D-03  0.173069D-02
     31  0.122206D+00  0.707608D-01 -0.179895D-02 -0.333190D+01 -0.216344D+01
     32  0.200332D+00 -0.871871D-01 -0.122584D-02 -0.258266D+01 -0.225263D+01
     33 -0.223404D-02 -0.476793D-03 -0.144638D+00 -0.166089D-01  0.157895D-01
                6             7             8             9            10 
      6  0.139920D+02
      7  0.431887D-03  0.731582D+01
      8  0.202265D-03 -0.134389D+01  0.140310D+02
      9 -0.106383D+00 -0.149724D+00 -0.858351D-01  0.148482D+02
     10  0.237608D-02  0.237056D+00 -0.163322D+00 -0.759069D-02  0.726393D+01
     11  0.536472D-03 -0.210602D+00 -0.874900D-01 -0.391648D-02  0.297147D+01
     12  0.283052D+00 -0.129498D-01 -0.676392D-02 -0.639057D-01  0.986518D-01
     13 -0.216161D-01  0.298117D+00 -0.118109D+00 -0.608739D-02 -0.418948D-01
     14 -0.346634D-01 -0.917380D-01 -0.127321D+00  0.187376D-04  0.479193D+00
     15 -0.820116D+01 -0.445002D-02 -0.631917D-03 -0.119569D+00 -0.101442D+00
     16  0.716786D-02 -0.307284D+01  0.413258D+00  0.793887D+00  0.491241D-01
     17  0.334853D-02  0.328053D+00 -0.283309D+01  0.914202D+00  0.927334D-02
     18 -0.473884D-02  0.629324D+00  0.902766D+00 -0.157649D+01  0.128217D-01
     19 -0.778304D-03 -0.250479D+01 -0.109284D+01 -0.118601D+00  0.842203D-01
     20  0.579129D-03 -0.972089D+00 -0.182579D+01  0.153015D+00 -0.111082D+00
     21 -0.103423D-01 -0.104531D+00  0.153056D+00 -0.324190D+01 -0.803109D-02
     22 -0.636542D-02 -0.325998D+01  0.560251D+00 -0.655750D+00  0.457153D-01
     23 -0.409724D-02  0.430303D+00 -0.259551D+01 -0.104110D+01  0.195252D-01
     24 -0.598283D-02 -0.512846D+00 -0.103747D+01 -0.228865D+01  0.108475D-01
     25 -0.433377D-03 -0.736593D-02 -0.157015D-01  0.480392D-02 -0.336949D+01
     26 -0.725492D-03 -0.546725D-01  0.919119D-02 -0.475596D-02  0.924259D+00
     27 -0.380363D-01  0.436317D-02 -0.324990D-02 -0.484823D-01 -0.132977D-02
     28 -0.504590D-03  0.128049D-01 -0.919699D-02 -0.422312D-03 -0.219985D+00
     29  0.208923D-02 -0.153707D-01  0.989294D-03  0.491648D-03  0.188379D+00
     30  0.593255D-01  0.218773D-04 -0.779913D-04 -0.767451D-02  0.710831D-02
     31 -0.165685D-01 -0.958794D-02  0.446600D-02  0.247432D-03  0.231508D-01
     32  0.196102D-01  0.219693D-01  0.128013D-02 -0.493916D-03 -0.326777D-01
     33 -0.548389D+01  0.363283D-03  0.135644D-03 -0.113194D-01 -0.110420D-03
               11            12            13            14            15 
     11  0.129702D+02
     12 -0.209588D-01  0.238007D+02
     13  0.828965D+00 -0.103722D+00  0.839020D+01
     14 -0.867064D+01 -0.279058D-03 -0.303810D+01  0.124672D+02
     15  0.108790D-02 -0.123349D+02  0.127768D+00  0.226768D-01  0.241879D+02
     16  0.220062D-02 -0.272768D-01  0.432916D-01 -0.371187D-03 -0.367829D-02
     17 -0.266645D-01  0.874351D-02  0.618676D-02 -0.128811D-01  0.118772D-02
     18  0.803131D-02 -0.288442D-01  0.203330D-01  0.276071D-02 -0.141464D-01
     19 -0.117889D+00 -0.545217D-02  0.383073D-01 -0.116006D-01 -0.754162D-03
     20  0.417039D-01  0.483874D-02 -0.331368D-01 -0.806143D-03  0.617165D-03
     21  0.639918D-02 -0.458687D-01 -0.273290D-02  0.783433D-03 -0.105153D-01
     22  0.964380D-02  0.526242D-01  0.347852D-01  0.188946D-02  0.101444D-01
     23 -0.175026D-01 -0.979811D-02  0.123779D-01 -0.107025D-01 -0.150299D-02
     24 -0.130588D-01 -0.323110D-01 -0.103237D-01 -0.343698D-02 -0.149182D-01
     25  0.852524D+00 -0.963143D-03 -0.222683D+00 -0.258355D+00  0.400586D-02
     26 -0.166382D+01 -0.130937D-02 -0.288106D+00  0.299555D-01  0.283598D-02
     27 -0.256546D-02 -0.380134D+01  0.430501D-02  0.258560D-02  0.143330D+00
     28  0.164310D+00  0.736656D-02 -0.289431D+01 -0.122036D+01 -0.908065D-02
     29  0.172645D+00 -0.348201D-02 -0.126016D+01 -0.228858D+01  0.113461D-01
     30 -0.262490D-02  0.180711D+00 -0.882689D-02  0.107634D-01 -0.387249D+01
     31 -0.116056D+00 -0.266960D-03  0.858905D-01 -0.781003D-02  0.745951D-04
     32 -0.150348D+00 -0.181588D-03  0.160852D+00  0.101438D+00 -0.299288D-02
     33  0.475739D-03  0.584712D-01  0.493946D-04 -0.715379D-03  0.647875D-01
               16            17            18            19            20 
     16  0.284075D+01
     17 -0.301975D+00  0.263006D+01
     18 -0.868839D+00 -0.953373D+00  0.170716D+01
     19  0.802764D-01  0.354170D-01  0.386230D-01  0.228750D+01
     20  0.232886D-01 -0.742006D-01 -0.120241D+00  0.126351D+01  0.183685D+01
     21  0.315779D-01 -0.135524D+00 -0.106771D-01  0.137136D+00 -0.156110D+00
     22  0.258311D+00  0.772276D-02  0.413727D-01  0.841439D-01  0.336292D-01
     23  0.174783D-01  0.255056D+00  0.842162D-01  0.490499D-01 -0.131689D+00
     24 -0.576659D-01  0.514707D-01 -0.464724D+00 -0.340442D-01  0.100704D+00
     25  0.858022D-02 -0.912058D-02  0.101661D-01 -0.346880D-02  0.223384D-02
     26 -0.224755D-01 -0.455475D-02 -0.166825D-01 -0.616763D-02  0.835461D-02
     27  0.958594D-02 -0.324560D-02 -0.541588D-02 -0.109552D-03  0.174841D-03
     28  0.410962D-02  0.130604D-02  0.447924D-02  0.470699D-02 -0.566027D-02
     29 -0.394409D-02 -0.246407D-02 -0.401388D-02 -0.554951D-02  0.465572D-02
     30  0.105578D-02 -0.135345D-03 -0.678235D-03 -0.117860D-03  0.740216D-04
     31  0.394023D-03  0.179454D-03 -0.679374D-03 -0.265331D-02  0.169194D-02
     32  0.602263D-02  0.325058D-02  0.547740D-02  0.637652D-02 -0.577551D-02
     33  0.783297D-03  0.523443D-03 -0.603464D-03  0.841908D-05  0.196963D-04
               21            22            23            24            25 
     21  0.325831D+01
     22 -0.285381D-01  0.299240D+01
     23  0.114740D+00 -0.450230D+00  0.241340D+01
     24  0.439020D-01  0.770229D+00  0.102618D+01  0.241264D+01
     25  0.144884D-03  0.256312D-01 -0.182176D-01 -0.189498D-01  0.335846D+01
     26  0.755565D-03 -0.394436D-01 -0.100164D-01  0.201772D-01 -0.851934D+00
     27 -0.228422D-02 -0.170061D-01  0.546631D-02 -0.130178D-01  0.222558D-03
     28 -0.503239D-03  0.372186D-02  0.233216D-02 -0.351290D-02 -0.522400D-01
     29  0.513694D-03 -0.380300D-02 -0.326335D-02  0.309898D-02 -0.671288D-02
     30 -0.967759D-03 -0.910269D-03  0.614870D-04 -0.802159D-03  0.613193D-03
     31  0.184044D-03  0.112806D-02  0.402872D-03  0.337705D-03 -0.136528D-02
     32 -0.625735D-03  0.655192D-02  0.445847D-02 -0.439649D-02  0.198296D-01
     33 -0.100915D-02 -0.736624D-03 -0.598841D-03 -0.888786D-03 -0.381490D-04
               26            27            28            29            30 
     26  0.170443D+01
     27  0.579980D-02  0.358399D+01
     28 -0.384982D-02  0.503704D-03  0.296028D+01
     29  0.882039D-02  0.869222D-04  0.131870D+01  0.215687D+01
     30  0.101582D-03  0.559572D-02  0.271973D-02 -0.111391D-01  0.368880D+01
     31  0.940980D-02 -0.550023D-04 -0.111553D-01 -0.359763D-01 -0.922770D-04
     32  0.279097D-01 -0.161566D-03 -0.429706D-01  0.961841D-01  0.393463D-03
     33 -0.670837D-04 -0.673144D-02 -0.935273D-04  0.317105D-03 -0.199177D-01
               31            32            33 
     31  0.312389D+01
     32  0.223637D+01  0.226142D+01
     33  0.186173D-01 -0.154031D-01  0.554574D+01
 Leave Link  701 at Wed Sep 25 06:29:19 2019, MaxMem=   671088640 cpu:              46.6 elap:              23.3
 (Enter /shared/centos7/gaussian/g16/l702.exe)
 L702 exits ... SP integral derivatives will be done elsewhere.
 Leave Link  702 at Wed Sep 25 06:29:19 2019, MaxMem=   671088640 cpu:               1.6 elap:               0.8
 (Enter /shared/centos7/gaussian/g16/l703.exe)
 Integral derivatives from FoFJK, PRISM(SPDF).
 Compute integral second derivatives, UseDBF=F ICtDFT=           0.
 ICntrl=    100147.
 Calling FoFJK, ICntrl=    100147 FMM=F ISym2X=0 I1Cent= 0 IOpClX= 0 NMat=1 NMatS=1 NMatT=0.
 FoFJK:  IHMeth= 1 ICntrl=  100147 DoSepK=F KAlg= 0 I1Cent=           0 FoldK=F
 IRaf=         0 NMat=       1 IRICut=       1 DoRegI=T DoRafI=F ISym2E= 0 IDoP0=0 IntGTp=1.
 FoFCou: FMM=F IPFlag=           0 FMFlag=      100000 FMFlg1=         800
         NFxFlg=           0 DoJE=F BraDBF=F KetDBF=F FulRan=T
         wScrn=  0.000000 ICntrl=    100147 IOpCl=  0 I1Cent=           0 NGrid=           0
         NMat0=    1 NMatS0=      1 NMatT0=    0 NMatD0=    1 NMtDS0=    0 NMtDT0=    0
 Symmetry not used in FoFCou.
 FoFCou:  KetSym=F NOpSet=  1 NOpAb=1 NOp=  1.
 FoFCou:  CnvScl= 1.00D+00 Thresh= 1.00D-08 IAcrcy=      12.
 PrismS was handed   670744325 working-precision words and  3616 shell-pairs
 FoFCou: LinMIO=F DoNuc=F BraDBF=F KetDBF=F HaveP=T PDBF=F HaveZ=T HaveW=F
         NIJTC =      10 NIJTAt=       0 NIJTCD=       0 NIJTT =      10
         IJTBeg=       1 IJTEnd=      10 KLTBeg=       1 KLTEnd=      10
         IPTBeg=       1 IPTEnd=      10 IPTBCv=       1 IPTECv=      10
         IZTBeg=       1 IZTEnd=      10 IZTBCv=       1 IZTECv=      10
         IWTBeg=      11 IWTEnd=      10 IWTBCv=      11 IWTECv=      10
         INTBeg=       1 INTEnd=       0 IFTBCv=       1 IFTECv=      10
 NCel replicated for PrismC:     1
 CoulSu-InSpLW:  IPartL=    0 NPrtUS=   20 NPrtUL=    1 DoSpLW=F IThBeg=    0 IThEnd=   19 NThAct=   20.
 CoulSu:  IncDef=  1024 NBBP=        6539536 NTPThr=   100 NPartT=   20 Incr=        1024 LDynOK=F GPUOK=T.
 CoulSu:  NPrtUS=  20 ThrOK=T IAlg=1 NPAlg=1 LenDen=           0 LWGrdD=           0 DoCopy=F ISkipM=0
          DoSpLW=F IThBeg=    0 IThEnd=   19.
 Enter PrismC:  IPart=  0 JobTyp=22 DoJE=F Cont=F.
 PrismC:  IPart=     0 DynPar=T LinDyn=F Incr=        1024 UseFst=F UseS4=T ISplat=2.
 PrismC was handed    33458193 working-precision words and  3616 shell-pairs
 Enter PrismC:  IPart= 16 JobTyp=22 DoJE=F Cont=F.
 PrismC:  IPart=    16 DynPar=T LinDyn=F Incr=        1024 UseFst=F UseS4=T ISplat=2.
 PrismC was handed    33458193 working-precision words and  3616 shell-pairs
 Enter PrismC:  IPart=  8 JobTyp=22 DoJE=F Cont=F.
 PrismC:  IPart=     8 DynPar=T LinDyn=F Incr=        1024 UseFst=F UseS4=T ISplat=2.
 PrismC was handed    33458193 working-precision words and  3616 shell-pairs
 Enter PrismC:  IPart= 18 JobTyp=22 DoJE=F Cont=F.
 PrismC:  IPart=    18 DynPar=T LinDyn=F Incr=        1024 UseFst=F UseS4=T ISplat=2.
 PrismC was handed    33458193 working-precision words and  3616 shell-pairs
 Enter PrismC:  IPart= 12 JobTyp=22 DoJE=F Cont=F.
 PrismC:  IPart=    12 DynPar=T LinDyn=F Incr=        1024 UseFst=F UseS4=T ISplat=2.
 PrismC was handed    33458193 working-precision words and  3616 shell-pairs
 Enter PrismC:  IPart=  1 JobTyp=22 DoJE=F Cont=F.
 PrismC:  IPart=     1 DynPar=T LinDyn=F Incr=        1024 UseFst=F UseS4=T ISplat=2.
 PrismC was handed    33458193 working-precision words and  3616 shell-pairs
 Enter PrismC:  IPart=  9 JobTyp=22 DoJE=F Cont=F.
 PrismC:  IPart=     9 DynPar=T LinDyn=F Incr=        1024 UseFst=F UseS4=T ISplat=2.
 PrismC was handed    33458193 working-precision words and  3616 shell-pairs
 Enter PrismC:  IPart=  2 JobTyp=22 DoJE=F Cont=F.
 PrismC:  IPart=     2 DynPar=T LinDyn=F Incr=        1024 UseFst=F UseS4=T ISplat=2.
 PrismC was handed    33458193 working-precision words and  3616 shell-pairs
 Enter PrismC:  IPart=  7 JobTyp=22 DoJE=F Cont=F.
 Enter PrismC:  IPart=  3 JobTyp=22 DoJE=F Cont=F.
 PrismC:  IPart=     7 DynPar=T LinDyn=F Incr=        1024 UseFst=F UseS4=T ISplat=2.
 PrismC was handed    33458193 working-precision words and  3616 shell-pairs
 PrismC:  IPart=     3 DynPar=T LinDyn=F Incr=        1024 UseFst=F UseS4=T ISplat=2.
 PrismC was handed    33458193 working-precision words and  3616 shell-pairs
 Enter PrismC:  IPart= 19 JobTyp=22 DoJE=F Cont=F.
 PrismC:  IPart=    19 DynPar=T LinDyn=F Incr=        1024 UseFst=F UseS4=T ISplat=2.
 PrismC was handed    33458193 working-precision words and  3616 shell-pairs
 Enter PrismC:  IPart= 11 JobTyp=22 DoJE=F Cont=F.
 PrismC:  IPart=    11 DynPar=T LinDyn=F Incr=        1024 UseFst=F UseS4=T ISplat=2.
 PrismC was handed    33458193 working-precision words and  3616 shell-pairs
 Enter PrismC:  IPart=  6 JobTyp=22 DoJE=F Cont=F.
 PrismC:  IPart=     6 DynPar=T LinDyn=F Incr=        1024 UseFst=F UseS4=T ISplat=2.
 PrismC was handed    33458193 working-precision words and  3616 shell-pairs
 Enter PrismC:  IPart= 15 JobTyp=22 DoJE=F Cont=F.
 PrismC:  IPart=    15 DynPar=T LinDyn=F Incr=        1024 UseFst=F UseS4=T ISplat=2.
 PrismC was handed    33458193 working-precision words and  3616 shell-pairs
 Enter PrismC:  IPart= 13 JobTyp=22 DoJE=F Cont=F.
 PrismC:  IPart=    13 DynPar=T LinDyn=F Incr=        1024 UseFst=F UseS4=T ISplat=2.
 PrismC was handed    33458193 working-precision words and  3616 shell-pairs
 Enter PrismC:  IPart=  5 JobTyp=22 DoJE=F Cont=F.
 PrismC:  IPart=     5 DynPar=T LinDyn=F Incr=        1024 UseFst=F UseS4=T ISplat=2.
 PrismC was handed    33458193 working-precision words and  3616 shell-pairs
 Enter PrismC:  IPart= 17 JobTyp=22 DoJE=F Cont=F.
 PrismC:  IPart=    17 DynPar=T LinDyn=F Incr=        1024 UseFst=F UseS4=T ISplat=2.
 PrismC was handed    33458193 working-precision words and  3616 shell-pairs
 Enter PrismC:  IPart= 10 JobTyp=22 DoJE=F Cont=F.
 PrismC:  IPart=    10 DynPar=T LinDyn=F Incr=        1024 UseFst=F UseS4=T ISplat=2.
 PrismC was handed    33458193 working-precision words and  3616 shell-pairs
 Enter PrismC:  IPart= 14 JobTyp=22 DoJE=F Cont=F.
 PrismC:  IPart=    14 DynPar=T LinDyn=F Incr=        1024 UseFst=F UseS4=T ISplat=2.
 PrismC was handed    33458193 working-precision words and  3616 shell-pairs
 Enter PrismC:  IPart=  4 JobTyp=22 DoJE=F Cont=F.
 PrismC:  IPart=     4 DynPar=T LinDyn=F Incr=        1024 UseFst=F UseS4=T ISplat=2.
 PrismC was handed    33458193 working-precision words and  3616 shell-pairs
 IPart= 13 NShTot=      118403 NShNF=      118403 NShFF=           0 MinMC=       7
           NShCPU=      118403 NBCPU=        5399 AvBCPU=        21.9
           NShGPU=           0 NBGPU=           0 AvBGPU=         0.0
 IPart= 17 NShTot=      126026 NShNF=      126026 NShFF=           0 MinMC=       7
           NShCPU=      126026 NBCPU=        5022 AvBCPU=        25.1
           NShGPU=           0 NBGPU=           0 AvBGPU=         0.0
 IPart= 16 NShTot=      126545 NShNF=      126545 NShFF=           0 MinMC=       7
           NShCPU=      126545 NBCPU=        5242 AvBCPU=        24.1
           NShGPU=           0 NBGPU=           0 AvBGPU=         0.0
 IPart=  8 NShTot=      345754 NShNF=      345754 NShFF=           0 MinMC=       7
           NShCPU=      345754 NBCPU=       14394 AvBCPU=        24.0
           NShGPU=           0 NBGPU=           0 AvBGPU=         0.0
 IPart=  3 NShTot=      356939 NShNF=      356939 NShFF=           0 MinMC=       7
           NShCPU=      356939 NBCPU=       15042 AvBCPU=        23.7
           NShGPU=           0 NBGPU=           0 AvBGPU=         0.0
 IPart=  2 NShTot=      124962 NShNF=      124962 NShFF=           0 MinMC=       7
           NShCPU=      124962 NBCPU=        5356 AvBCPU=        23.3
           NShGPU=           0 NBGPU=           0 AvBGPU=         0.0
 IPart= 12 NShTot=      354587 NShNF=      354587 NShFF=           0 MinMC=       7
           NShCPU=      354587 NBCPU=       14417 AvBCPU=        24.6
           NShGPU=           0 NBGPU=           0 AvBGPU=         0.0
 IPart=  0 NShTot=      123855 NShNF=      123855 NShFF=           0 MinMC=       7
           NShCPU=      123855 NBCPU=        5263 AvBCPU=        23.5
           NShGPU=           0 NBGPU=           0 AvBGPU=         0.0
 IPart= 14 NShTot=      341572 NShNF=      341572 NShFF=           0 MinMC=       7
           NShCPU=      341572 NBCPU=       14378 AvBCPU=        23.8
           NShGPU=           0 NBGPU=           0 AvBGPU=         0.0
 IPart= 11 NShTot=      121764 NShNF=      121764 NShFF=           0 MinMC=       7
           NShCPU=      121764 NBCPU=        5380 AvBCPU=        22.6
           NShGPU=           0 NBGPU=           0 AvBGPU=         0.0
 IPart=  9 NShTot=      120945 NShNF=      120945 NShFF=           0 MinMC=       7
           NShCPU=      120945 NBCPU=        4985 AvBCPU=        24.3
           NShGPU=           0 NBGPU=           0 AvBGPU=         0.0
 IPart= 18 NShTot=      124830 NShNF=      124830 NShFF=           0 MinMC=       7
           NShCPU=      124830 NBCPU=        5172 AvBCPU=        24.1
           NShGPU=           0 NBGPU=           0 AvBGPU=         0.0
 IPart=  6 NShTot=      349403 NShNF=      349403 NShFF=           0 MinMC=       7
           NShCPU=      349403 NBCPU=       14671 AvBCPU=        23.8
           NShGPU=           0 NBGPU=           0 AvBGPU=         0.0
 IPart=  1 NShTot=      126355 NShNF=      126355 NShFF=           0 MinMC=       7
           NShCPU=      126355 NBCPU=        5392 AvBCPU=        23.4
           NShGPU=           0 NBGPU=           0 AvBGPU=         0.0
 IPart= 15 NShTot=      131885 NShNF=      131885 NShFF=           0 MinMC=       7
           NShCPU=      131885 NBCPU=        5602 AvBCPU=        23.5
           NShGPU=           0 NBGPU=           0 AvBGPU=         0.0
 IPart=  7 NShTot=      353224 NShNF=      353224 NShFF=           0 MinMC=       7
           NShCPU=      353224 NBCPU=       14957 AvBCPU=        23.6
           NShGPU=           0 NBGPU=           0 AvBGPU=         0.0
 IPart=  5 NShTot=      129376 NShNF=      129376 NShFF=           0 MinMC=       7
           NShCPU=      129376 NBCPU=        5372 AvBCPU=        24.1
           NShGPU=           0 NBGPU=           0 AvBGPU=         0.0
 IPart= 19 NShTot=      332273 NShNF=      332273 NShFF=           0 MinMC=       7
           NShCPU=      332273 NBCPU=       14165 AvBCPU=        23.5
           NShGPU=           0 NBGPU=           0 AvBGPU=         0.0
 IPart= 10 NShTot=      137107 NShNF=      137107 NShFF=           0 MinMC=       7
           NShCPU=      137107 NBCPU=        5809 AvBCPU=        23.6
           NShGPU=           0 NBGPU=           0 AvBGPU=         0.0
 IPart=  4 NShTot=      356594 NShNF=      356594 NShFF=           0 MinMC=       7
           NShCPU=      356594 NBCPU=       14400 AvBCPU=        24.8
           NShGPU=           0 NBGPU=           0 AvBGPU=         0.0
 CoulSu:  NxtVal=        6982657 LenVP=       33458194 MinMC=       7.
 ReadGW:  IGet=0 IStart=           1 Next=           1 LGW=           0.
 Remaining memory in FofDFT      639.93 Mw
 CkSvGd:  ISavGI=        -1 IRadAn=       5 IRASav=       5 ISavGd=        -1.
 CalDSu-InSpLW:  IPartL=    0 NPrtUS=   20 NPrtUL=    1 DoSpLW=F IThBeg=    0 IThEnd=   19 NThAct=   20.
 CalDSu:  NPrtUS=  20 ThrOK=T IAlg=1 NPAlg=2 DoDPD=T LenP=       35245 LenD1P=             0 GPUOK=F
          ISkipM=0 DoSpLW=F IThBeg=    0 IThEnd=   19.
 IPart=  0 IRanGd=          0 ScrnBf=T ScrnGd=T RCrit=4.00D+00 DoMicB=T.
 IPart=  6        13334 of        13846 points in      13 batches and       72 microbatches, Max-NSigAt=      11 Max-NSgAt2=      11
 IPart=  4        16185 of        17934 points in      20 batches and       93 microbatches, Max-NSigAt=      11 Max-NSgAt2=      11
 IPart=  0         7497 of         8340 points in       9 batches and       52 microbatches, Max-NSigAt=      11 Max-NSgAt2=      11
 IPart= 15        11239 of        12474 points in      13 batches and       80 microbatches, Max-NSigAt=      11 Max-NSgAt2=      11
 IPart= 14        17234 of        19746 points in      21 batches and       90 microbatches, Max-NSigAt=      11 Max-NSgAt2=      11
 IPart= 12        15602 of        16382 points in      15 batches and       61 microbatches, Max-NSigAt=      11 Max-NSgAt2=      11
 IPart=  7        15272 of        16106 points in      15 batches and       69 microbatches, Max-NSigAt=      11 Max-NSgAt2=      11
 IPart= 19        13662 of        14824 points in      15 batches and       97 microbatches, Max-NSigAt=      11 Max-NSgAt2=      11
 IPart= 10         7500 of         8300 points in       9 batches and       66 microbatches, Max-NSigAt=      11 Max-NSgAt2=      11
 IPart= 17         6786 of         7792 points in      10 batches and       86 microbatches, Max-NSigAt=      11 Max-NSgAt2=      11
 IPart=  8        16185 of        18290 points in      20 batches and       79 microbatches, Max-NSigAt=      11 Max-NSgAt2=      11
 IPart=  1         7748 of         8354 points in       9 batches and       54 microbatches, Max-NSigAt=      11 Max-NSgAt2=      11
 IPart= 11         7158 of         7736 points in       8 batches and       44 microbatches, Max-NSigAt=      11 Max-NSgAt2=      11
 IPart=  5         7577 of         7890 points in       7 batches and       36 microbatches, Max-NSigAt=      11 Max-NSgAt2=      11
 IPart= 16        12644 of        13590 points in      14 batches and       78 microbatches, Max-NSigAt=      11 Max-NSgAt2=      11
 IPart=  3        17239 of        19606 points in      21 batches and      105 microbatches, Max-NSigAt=      11 Max-NSgAt2=      11
 IPart=  9         7661 of         8512 points in       9 batches and       50 microbatches, Max-NSigAt=      11 Max-NSgAt2=      11
 IPart= 18         8538 of         9476 points in      10 batches and       56 microbatches, Max-NSigAt=      11 Max-NSgAt2=      11
 IPart= 13         7954 of         8330 points in       8 batches and       42 microbatches, Max-NSigAt=      11 Max-NSgAt2=      11
 IPart=  2         8182 of         8872 points in       9 batches and       49 microbatches, Max-NSigAt=      11 Max-NSgAt2=      11
 Polarizability after L703:
                1             2             3 
      1  0.000000D+00
      2  0.000000D+00  0.000000D+00
      3  0.000000D+00  0.000000D+00  0.000000D+00
 Dipole Derivatives after L703:
                 1             2             3             4             5 
      1  -0.240381D+00 -0.227461D-01  0.101705D-01  0.416128D+00 -0.122632D+00
      2   0.505355D-01 -0.144062D+00  0.201359D-02  0.540563D+00 -0.906069D+00
      3   0.364432D-03  0.100362D-01 -0.270476D+00 -0.388678D-02 -0.783819D-03
                 6             7             8             9            10 
      1  -0.863401D-02 -0.138222D+01 -0.902207D-01 -0.688509D-01 -0.334985D+00
      2  -0.486084D-02 -0.426306D-01 -0.756366D+00 -0.481529D-02  0.149066D+00
      3  -0.406665D+00 -0.698038D-02  0.343908D-02 -0.801736D+00 -0.947479D-03
                11            12            13            14            15 
      1  -0.983778D-01 -0.274345D-02 -0.738431D+00  0.281418D+00  0.162188D-01
      2  -0.702197D+00 -0.146763D-02 -0.605861D-01 -0.599416D+00 -0.389922D-02
      3  -0.484598D-02  0.662099D-01  0.137478D-01  0.285643D-03  0.466044D-01
                16            17            18            19            20 
      1   0.370521D+00  0.413838D+00  0.613805D+00  0.738707D+00 -0.928068D+00
      2   0.513757D-01  0.152559D+00  0.112062D+00 -0.227689D+00  0.519123D+00
      3   0.725722D-01  0.167443D+00  0.458541D+00 -0.178783D-01  0.361349D-01
                21            22            23            24            25 
      1  -0.101650D+00  0.363650D+00  0.535937D+00 -0.457189D+00  0.230877D+00
      2   0.449541D-01  0.634262D-01  0.229657D+00 -0.149951D+00  0.265279D+00
      3   0.984341D-01 -0.529791D-01 -0.210263D+00  0.378378D+00 -0.167708D-02
                26            27            28            29            30 
      1   0.188328D+00 -0.623936D-04  0.714957D+00 -0.698692D+00 -0.523674D-02
      2   0.690132D+00 -0.815127D-03 -0.387349D+00  0.687150D+00  0.340583D-02
      3  -0.368445D-02  0.462784D-01 -0.385017D-02  0.368607D-02  0.891179D-01
                31            32            33 
      1  -0.138820D+00  0.541216D+00  0.417207D-02
      2  -0.401992D+00  0.829489D+00  0.337368D-02
      3   0.151476D-02 -0.144783D-02  0.295314D+00
 Hessian after L703:
                1             2             3             4             5 
      1  0.480567D+00
      2 -0.554495D-01  0.349079D+00
      3  0.493148D-02  0.310288D-02  0.701155D-01
      4  0.959841D-03  0.423563D-02 -0.188410D-03  0.386112D+00
      5 -0.751946D-02  0.196743D-01  0.309525D-03 -0.227066D-01  0.495228D+00
      6 -0.147162D-03 -0.866545D-04 -0.722810D-02 -0.245894D-02 -0.107691D-04
      7 -0.208113D+00 -0.225306D-01 -0.425713D-02  0.347571D-02  0.587862D-02
      8 -0.660814D-01 -0.101224D+00 -0.122441D-02 -0.193513D-03  0.239868D-02
      9 -0.236596D-02 -0.395711D-03 -0.586692D-01  0.246819D-03  0.614714D-04
     10 -0.157811D+00  0.544756D-01  0.263583D-03 -0.242446D-01 -0.181423D-01
     11  0.955830D-01 -0.223404D+00 -0.129931D-02 -0.592485D-01 -0.390246D-01
     12  0.668621D-03 -0.140791D-02 -0.379142D-01  0.338253D-03  0.114827D-03
     13 -0.324212D-01  0.813029D-02  0.538702D-03 -0.163592D+00 -0.107678D+00
     14  0.614310D-01 -0.195225D-01 -0.780104D-03 -0.598931D-01 -0.245696D+00
     15  0.484184D-03 -0.127277D-03  0.107867D-01  0.978243D-03  0.759426D-03
     16 -0.273401D-01 -0.175588D-01 -0.287203D-01 -0.113178D-03  0.212218D-03
     17 -0.927972D-02 -0.239777D-02 -0.667854D-02 -0.356158D-03 -0.813523D-03
     18 -0.601997D-02 -0.171016D-03  0.675019D-02  0.227521D-04 -0.350150D-03
     19 -0.279475D-01  0.288703D-01  0.198462D-02 -0.125908D-03 -0.637338D-03
     20 -0.593013D-02  0.102802D-01  0.104243D-02  0.386488D-03  0.366953D-03
     21 -0.365220D-03  0.109748D-02  0.650093D-03 -0.264644D-05 -0.505869D-05
     22 -0.276907D-01 -0.233343D-01  0.250862D-01 -0.117096D-03  0.415896D-03
     23 -0.929289D-02 -0.427253D-02  0.535908D-02 -0.253656D-03 -0.650696D-03
     24  0.262392D-02 -0.212832D-02  0.730247D-02 -0.180818D-03  0.175866D-03
     25  0.350284D-02  0.230816D-01  0.236400D-03 -0.478718D-02  0.122492D-02
     26 -0.214660D-02 -0.291289D-01  0.137601D-03  0.156590D-02  0.242172D-02
     27  0.414481D-04 -0.286891D-04  0.462937D-03  0.125332D-03 -0.218401D-04
     28 -0.402796D-02 -0.362094D-02  0.265083D-04  0.140244D-01 -0.184830D-01
     29 -0.254587D-02  0.142146D-02  0.943261D-05  0.139947D-01 -0.297416D-01
     30  0.138419D-03  0.167759D-03  0.883599D-02 -0.138854D-03  0.132438D-03
     31  0.321151D-03  0.370065D-02  0.984267D-04 -0.211592D+00  0.167435D+00
     32  0.123153D-02 -0.505722D-03  0.214132D-04  0.122469D+00 -0.204163D+00
     33  0.102505D-04 -0.225368D-04 -0.109232D-02  0.125827D-02 -0.116573D-02
                6             7             8             9            10 
      6  0.579147D-01
      7 -0.208752D-04  0.466035D+00
      8  0.789395D-04 -0.253605D-01  0.556713D+00
      9 -0.537732D-03 -0.151555D-01 -0.381784D-01  0.537724D+00
     10  0.487313D-03 -0.468118D-01  0.417000D-01  0.112955D-02  0.968156D+00
     11  0.510302D-03  0.132354D-01  0.323114D-02  0.544734D-04  0.861825D-01
     12  0.132179D-01  0.137248D-04  0.560604D-03 -0.472501D-02 -0.690387D-02
     13  0.865142D-03 -0.221505D-03  0.105418D-02  0.753052D-04 -0.608076D+00
     14  0.534124D-03 -0.811239D-02 -0.928744D-02 -0.862181D-04 -0.458080D-01
     15 -0.460392D-01  0.300404D-05  0.483984D-04  0.420700D-03  0.498116D-02
     16 -0.263640D-03 -0.589839D-01 -0.991920D-02 -0.261763D-01  0.395778D-02
     17  0.218776D-03 -0.143367D-01 -0.937241D-01 -0.717647D-01  0.691510D-03
     18  0.123562D-03 -0.305671D-01 -0.712821D-01 -0.208272D+00  0.445056D-03
[...]
     Eigenvalues ---    0.04680   0.08686   0.08778   0.10705   0.12082
     Eigenvalues ---    0.13475   0.16484   0.18191   0.18736   0.19826
     Eigenvalues ---    0.22138   0.23301   0.33222   0.33591   0.35088
     Eigenvalues ---    0.36355   0.37354   0.39844   0.45085   0.45698
     Eigenvalues ---    0.53342   0.66236
 Angle between quadratic step and forces=  31.82 degrees.
 Linear search not attempted -- first point.
 Iteration  1 RMS(Cart)=  0.00008618 RMS(Int)=  0.00000000
 Iteration  2 RMS(Cart)=  0.00000000 RMS(Int)=  0.00000000
 ITry= 1 IFail=0 DXMaxC= 2.07D-04 DCOld= 1.00D+10 DXMaxT= 3.00D-01 DXLimC= 3.00D+00 Rises=F
 Variable       Old X    -DE/DX   Delta X   Delta X   Delta X     New X
                                 (Linear)    (Quad)   (Total)
    R1        2.67120   0.00000   0.00000  -0.00000  -0.00000   2.67120
    R2        2.59481   0.00000   0.00000  -0.00000  -0.00000   2.59481
    R3        2.56333  -0.00000   0.00000   0.00000   0.00000   2.56333
    R4        1.82347  -0.00000   0.00000  -0.00000  -0.00000   1.82347
    R5        2.06457  -0.00000   0.00000  -0.00000  -0.00000   2.06457
    R6        2.05345   0.00000   0.00000   0.00000   0.00000   2.05345
    R7        2.06653  -0.00000   0.00000  -0.00000  -0.00000   2.06653
    R8        2.50502  -0.00000   0.00000  -0.00000  -0.00000   2.50502
    R9        2.04478   0.00000   0.00000  -0.00000  -0.00000   2.04478
   R10        2.03835  -0.00000   0.00000  -0.00000  -0.00000   2.03835
    A1        1.98208   0.00000   0.00000   0.00001   0.00001   1.98208
    A2        1.87243  -0.00000   0.00000   0.00000   0.00000   1.87243
    A3        1.93727   0.00000   0.00000   0.00000   0.00000   1.93727
    A4        1.87229   0.00000   0.00000  -0.00000  -0.00000   1.87229
    A5        1.93109  -0.00000   0.00000   0.00000   0.00000   1.93110
    A6        1.91450  -0.00000   0.00000  -0.00000  -0.00000   1.91450
    A7        1.90277   0.00000   0.00000   0.00000   0.00000   1.90277
    A8        1.90554  -0.00000   0.00000  -0.00000  -0.00000   1.90554
    A9        2.08155  -0.00000   0.00000  -0.00000  -0.00000   2.08155
   A10        2.05343  -0.00000   0.00000   0.00000   0.00000   2.05343
   A11        2.14729   0.00000   0.00000   0.00000   0.00000   2.14729
   A12        2.16215  -0.00000   0.00000  -0.00000  -0.00000   2.16215
   A13        1.98815   0.00000   0.00000   0.00000   0.00000   1.98815
   A14        2.13269  -0.00000   0.00000  -0.00000  -0.00000   2.13269
    D1        1.08701  -0.00000   0.00000   0.00000   0.00000   1.08701
    D2       -3.10483   0.00000   0.00000  -0.00000  -0.00000  -3.10483
    D3       -1.02788  -0.00000   0.00000  -0.00000  -0.00000  -1.02789
    D4       -2.45341  -0.00000   0.00000  -0.00016  -0.00016  -2.45357
    D5        0.73269  -0.00000   0.00000  -0.00016  -0.00016   0.73253
    D6       -0.00100   0.00000   0.00000   0.00002   0.00002  -0.00098
    D7        3.11978   0.00000   0.00000   0.00003   0.00003   3.11981
    D8        0.03797   0.00000   0.00000   0.00000   0.00000   0.03797
    D9       -3.08114   0.00000   0.00000  -0.00000  -0.00000  -3.08114
   D10        3.13253   0.00000   0.00000   0.00001   0.00001   3.13254
   D11        0.01342   0.00000   0.00000   0.00000   0.00000   0.01342
         Item               Value     Threshold  Converged?
 Maximum Force            0.000001     0.000015     YES
 RMS     Force            0.000000     0.000010     YES
 Maximum Displacement     0.000207     0.000060     NO 
 RMS     Displacement     0.000086     0.000040     NO 
 Predicted change in Energy=-1.048850D-10
                           ----------------------------
                           ! Non-Optimized Parameters !
                           ! (Angstroms and Degrees)  !
 --------------------------                            --------------------------
 ! Name  Definition              Value          Derivative Info.                !
 --------------------------------------------------------------------------------
 ! R1    R(1,3)                  1.4135         -DE/DX =    0.0                 !
 ! R2    R(1,4)                  1.3731         -DE/DX =    0.0                 !
 ! R3    R(2,5)                  1.3565         -DE/DX =    0.0                 !
 ! R4    R(2,11)                 0.9649         -DE/DX =    0.0                 !
 ! R5    R(3,6)                  1.0925         -DE/DX =    0.0                 !
 ! R6    R(3,7)                  1.0866         -DE/DX =    0.0                 !
 ! R7    R(3,8)                  1.0936         -DE/DX =    0.0                 !
 ! R8    R(4,5)                  1.3256         -DE/DX =    0.0                 !
 ! R9    R(4,9)                  1.0821         -DE/DX =    0.0                 !
 ! R10   R(5,10)                 1.0786         -DE/DX =    0.0                 !
 ! A1    A(3,1,4)              113.5649         -DE/DX =    0.0                 !
 ! A2    A(5,2,11)             107.2822         -DE/DX =    0.0                 !
 ! A3    A(1,3,6)              110.9976         -DE/DX =    0.0                 !
 ! A4    A(1,3,7)              107.2744         -DE/DX =    0.0                 !
 ! A5    A(1,3,8)              110.6436         -DE/DX =    0.0                 !
 ! A6    A(6,3,7)              109.6929         -DE/DX =    0.0                 !
 ! A7    A(6,3,8)              109.021          -DE/DX =    0.0                 !
 ! A8    A(7,3,8)              109.1795         -DE/DX =    0.0                 !
 ! A9    A(1,4,5)              119.2639         -DE/DX =    0.0                 !
 ! A10   A(1,4,9)              117.6531         -DE/DX =    0.0                 !
 ! A11   A(5,4,9)              123.0307         -DE/DX =    0.0                 !
 ! A12   A(2,5,4)              123.8823         -DE/DX =    0.0                 !
 ! A13   A(2,5,10)             113.9126         -DE/DX =    0.0                 !
 ! A14   A(4,5,10)             122.194          -DE/DX =    0.0                 !
 ! D1    D(4,1,3,6)             62.2812         -DE/DX =    0.0                 !
 ! D2    D(4,1,3,7)           -177.8937         -DE/DX =    0.0                 !
 ! D3    D(4,1,3,8)            -58.8935         -DE/DX =    0.0                 !
 ! D4    D(3,1,4,5)           -140.5793         -DE/DX =    0.0                 !
 ! D5    D(3,1,4,9)             41.9708         -DE/DX =    0.0                 !
 ! D6    D(11,2,5,4)            -0.0559         -DE/DX =    0.0                 !
 ! D7    D(11,2,5,10)          178.752          -DE/DX =    0.0                 !
 ! D8    D(1,4,5,2)              2.1756         -DE/DX =    0.0                 !
 ! D9    D(1,4,5,10)          -176.5366         -DE/DX =    0.0                 !
 ! D10   D(9,4,5,2)            179.4812         -DE/DX =    0.0                 !
 ! D11   D(9,4,5,10)             0.769          -DE/DX =    0.0                 !
 --------------------------------------------------------------------------------
 GradGradGradGradGradGradGradGradGradGradGradGradGradGradGradGradGradGrad

 Leave Link  103 at Wed Sep 25 08:23:07 2019, MaxMem=   671088640 cpu:             103.4 elap:              54.9
 (Enter /shared/centos7/gaussian/g16/l9999.exe)

 ----------------------------------------------------------------------

 Electric dipole moment (input orientation):
 (Debye = 10**-18 statcoulomb cm , SI units = C m)
                  (au)            (Debye)         (10**-30 SI)
   Tot        0.864498D+00      0.219733D+01      0.732952D+01
   x         -0.491133D+00     -0.124834D+01     -0.416400D+01
   y         -0.337665D+00     -0.858258D+00     -0.286284D+01
   z         -0.626201D+00     -0.159164D+01     -0.530915D+01

 Dipole polarizability, Alpha (input orientation).
 (esu units = cm**3 , SI units = C**2 m**2 J**-1)
 Alpha(0;0):
               (au)            (10**-24 esu)      (10**-40 SI)
   iso        0.445367D+02      0.659966D+01      0.734312D+01
   aniso      0.248243D+02      0.367858D+01      0.409297D+01
   xx         0.503509D+02      0.746124D+01      0.830175D+01
   yx         0.963996D+01      0.142849D+01      0.158941D+01
   yy         0.410838D+02      0.608799D+01      0.677380D+01
   zx         0.931689D+01      0.138062D+01      0.153615D+01
   zy        -0.174227D+00     -0.258177D-01     -0.287261D-01
   zz         0.421755D+02      0.624976D+01      0.695380D+01

 ----------------------------------------------------------------------

 Dipole orientation:
     8         -2.78658007          1.26969657         -1.83816143
     8         -0.54803225          1.62113284         -6.52394519
     6         -2.51604612          1.96139787          0.72771008
     6         -1.06205854         -0.50368646         -2.62186890
     6         -0.04836790         -0.30128294         -4.90366796
     1         -0.67501181          2.83107453          1.06931523
     1         -4.00707841          3.30641141          1.15713324
     1         -2.71832084          0.30950862          1.95282109
     1         -0.65658714         -2.05743984         -1.35593730
     1          1.23511767         -1.69809276         -5.64963279
     1         -1.73156383          2.73390809         -5.69568497

 Electric dipole moment (dipole orientation):
 (Debye = 10**-18 statcoulomb cm , SI units = C m)
                  (au)            (Debye)         (10**-30 SI)
   Tot        0.864498D+00      0.219733D+01      0.732952D+01
   x          0.000000D+00      0.000000D+00      0.000000D+00
   y          0.000000D+00      0.000000D+00      0.000000D+00
   z          0.864498D+00      0.219733D+01      0.732952D+01

 Dipole polarizability, Alpha (dipole orientation).
 (esu units = cm**3 , SI units = C**2 m**2 J**-1)
 Alpha(0;0):
               (au)            (10**-24 esu)      (10**-40 SI)
   iso        0.445367D+02      0.659966D+01      0.734312D+01
   aniso      0.248243D+02      0.367858D+01      0.409297D+01
   xx         0.369120D+02      0.546980D+01      0.608597D+01
   yx        -0.437958D+01     -0.648986D+00     -0.722095D+00
   yy         0.402029D+02      0.595746D+01      0.662856D+01
   zx        -0.871924D+01     -0.129206D+01     -0.143761D+01
   zy         0.496801D+00      0.736183D-01      0.819114D-01
   zz         0.564953D+02      0.837174D+01      0.931481D+01

 ----------------------------------------------------------------------

 Test job not archived.
 1\1\GINC-C0302\Freq\RM062X\CC-pVTZ\C3H6O2\HARMS.N\25-Sep-2019\0\\#P Ge
 om=AllCheck Guess=TCheck SCRF=Check Test GenChk RM062X/CC-pVTZ Freq\\G
 aussian input prepared by ASE\\0,1\O,-0.5595150505,-0.0427571974,1.804
 7596005\O,1.8359817188,0.603796721,3.0005289823\C,-1.1674321243,-0.925
 1719837,0.8828710368\C,0.2970971533,0.8571993303,1.2201722164\C,1.4328
 817956,1.1621669568,1.8318967985\H,-0.4190240844,-1.5406449438,0.37820
 98546\H,-1.8462752512,-1.5611732744,1.4445245386\H,-1.7352345257,-0.36
 78146575,0.1326516799\H,-0.0148850198,1.3173966456,0.2918813949\H,2.11
 40885672,1.902712556,1.4432665826\H,1.1536853299,-0.0235587415,3.26885
 75049\\Version=EM64L-G16RevA.03\State=1-A\HF=-268.3241864\RMSD=2.046e-
 09\RMSF=9.117e-07\ZeroPoint=0.0911285\Thermal=0.0969967\Dipole=-0.4911
 33,-0.3376647,-0.6262012\DipoleDeriv=-1.0309222,-0.5268459,-0.2876407,
 -0.6663647,-0.8573581,-0.2030623,0.0577148,0.0433808,-0.5194167,-0.476
 7065,0.0066337,-0.1820908,0.3002178,-0.3817085,0.394774,-0.5711968,0.0
 979299,-1.0719665,0.5332558,0.1682734,0.1748188,0.2080423,0.5905988,0.
 2143397,0.3102788,0.3041576,0.5239984,0.4560448,0.4449478,-0.0244418,0
 .4966321,0.2893161,-0.1436219,-0.3053538,-0.379932,-0.1271854,0.289456
 8,0.0136326,0.3516715,-0.1712874,0.0517597,-0.4392216,0.5904424,-0.189
 7733,0.8409745,-0.0554181,0.107785,0.0830664,0.01059,-0.0411498,-0.056
 8983,-0.0307859,-0.1034609,-0.0208222,-0.0201161,-0.089122,0.0218509,-
 0.0922527,-0.0113376,0.0112132,0.0587909,0.0555419,0.0060532,-0.016285
 8,0.0149213,-0.0707656,0.0662326,-0.048777,0.092531,-0.1171418,-0.0021
 734,-0.0597807,0.0232899,-0.0334927,-0.0812307,-0.0290122,0.08013,0.07
 54413,-0.0001879,0.1250716,0.0117856,0.0608695,-0.0687587,0.004817,-0.
 0625871,0.0530366,0.0774546,-0.0155147,0.0541856,0.0544301,0.236532,-0
 .0379745,0.0099449,-0.0602107,0.2754898,-0.0229497,0.022954,-0.0049279
 ,0.3619296\Polar=50.3509343,9.639959,41.0837698,9.3168862,-0.1742266,4
 2.1754945\Quadrupole=-1.3000936,1.1503292,0.1497644,1.6615747,-0.19577
 39,-1.3975736\PG=C01 [X(C3H6O2)]\NImag=0\\0.29490382,0.23359160,0.3439
 1641,0.00815052,0.02304718,0.33237620,0.00093468,0.00254506,0.00055213
 ,0.39543905,0.00809058,0.00348377,-0.01005683,0.21367873,0.32641937,-0
 .00438627,-0.01279639,0.00788094,0.02730038,-0.22238501,0.37891162,-0.
 09409358,-0.04786516,-0.03346379,0.00015888,-0.00167052,0.00346358,0.5
 7583372,-0.05263102,-0.13305101,-0.05476756,0.00285080,-0.00048217,0.0
 0105456,-0.00480181,0.55638078,-0.05816232,-0.08227553,-0.16817420,0.0
 0043327,-0.00238662,0.00412572,-0.04642085,-0.05543829,0.55054040,-0.1
 5785021,-0.11155388,0.03842518,-0.00775879,-0.00034982,-0.01639653,-0.
 02713059,-0.02452152,0.00500190,0.70052614,-0.10339052,-0.15358361,0.0
 5567353,0.01717647,0.00580666,0.03116523,-0.02811217,-0.03330831,0.006
 62925,0.20859741,0.36500832,0.06124341,0.08387559,-0.13920605,-0.04559
 904,0.01425200,-0.04835810,-0.01490818,-0.01460557,0.01442625,0.266679
 75,-0.15574093,0.61041568,-0.03744012,-0.02474154,-0.00793748,-0.11857
 506,0.01633746,-0.09584030,0.00152053,0.00190795,0.00288803,-0.4267478
 4,-0.11480554,-0.18107560,0.75197157,-0.04693097,-0.01795167,-0.002756
 06,-0.00794194,-0.11357079,0.09119391,-0.00003976,0.00087576,0.0067305
 5,-0.10212481,-0.10384512,-0.02838662,0.27552988,0.43118693,0.02926527
 ,0.02312083,0.00550208,-0.05785656,0.11501701,-0.26350859,-0.00224304,
 0.00011972,-0.00768304,-0.20747541,-0.04336563,-0.18317603,0.19779453,
 -0.17705271,0.55691103,0.01381407,-0.01580785,-0.01138569,0.00021652,-
 0.00053431,0.00024073,-0.18671135,0.10312935,0.08395791,0.00420828,0.0
 0087443,-0.00076053,-0.00072217,0.00115500,-0.00076502,0.19230421,0.00
 477092,-0.02036876,-0.02017278,0.00003136,-0.00008635,-0.00003409,0.09
 836496,-0.12700201,-0.05656420,0.00410379,0.00333090,-0.00141470,-0.00
 124289,-0.00028097,0.00020205,-0.10783271,0.14059542,0.00830204,-0.024
 16600,-0.01766837,-0.00023372,0.00073452,-0.00102264,0.07915159,-0.057
 51539,-0.09902062,0.00170270,0.00317673,-0.00081146,-0.00052460,-0.000
 92727,0.00142227,-0.08562223,0.07613536,0.11183156,-0.01214712,-0.0137
 0548,0.00456567,-0.00011349,0.00042794,-0.00073491,-0.15385504,-0.0948
 0048,0.09025135,0.00002765,-0.00052225,-0.00368424,0.00038634,-0.00108
 851,0.00136607,-0.01219104,-0.01280152,0.01260343,0.16594231,-0.018393
 42,-0.01893720,0.00812978,-0.00011561,0.00030852,-0.00066082,-0.092499
 12,-0.13757676,0.08172098,-0.00145469,-0.00058817,-0.00408884,-0.00036
 312,-0.00125074,0.00119811,0.01115406,0.01280703,-0.00926898,0.1121792
 7,0.15378809,-0.02015917,-0.02103008,0.01224945,0.00024216,-0.00004992
 ,-0.00007025,0.09904785,0.09263404,-0.13405861,-0.00198571,-0.00179773
 ,-0.00264302,-0.00077716,-0.00099207,0.00106258,0.00639679,0.00830687,
 -0.00607490,-0.09603726,-0.08705327,0.13910611,-0.01055709,-0.00316862
 ,-0.01683642,-0.00008279,-0.00032613,0.00031340,-0.11762836,0.07106645
 ,-0.08265719,0.00180631,0.00370214,-0.00274870,-0.00051870,-0.00029609
 ,0.00025555,-0.01054666,0.01420254,-0.01522497,0.01241516,-0.01034796,
 0.01370760,0.12506211,-0.01930186,0.00917719,-0.02269635,-0.00058052,-
 0.00004220,0.00040466,0.07369752,-0.13010241,0.09796288,0.00086208,0.0
 0399715,-0.00355610,-0.00004839,-0.00021676,-0.00036406,0.00769372,-0.
 00828196,0.01253380,0.01041586,-0.00868307,0.01041069,-0.07414007,0.13
 424102,-0.02058102,-0.00070216,-0.02497691,-0.00024794,-0.00022465,0.0
 0000779,-0.08336544,0.09213238,-0.16058746,0.00353493,0.00269629,-0.00
 047743,-0.00056575,-0.00053743,0.00024941,0.00783754,-0.00684056,0.011
 34122,-0.00869414,0.00991142,-0.00979115,0.10230323,-0.09568532,0.1832
 4370,0.00346180,-0.01573730,0.02176335,-0.00130623,-0.00536325,-0.0049
 1733,0.00301435,0.00066021,0.00371112,-0.07944149,0.02709583,-0.085637
 51,-0.00123479,0.01501700,-0.01992780,-0.00035748,0.00012675,-0.000421
 60,-0.00015014,0.00017969,-0.00002010,-0.00023399,0.00103234,-0.000762
 14,0.07806103,-0.00150308,-0.01433261,0.01951966,-0.00562620,0.0052454
 1,0.00310392,0.00261000,0.00227835,0.00368868,0.02760539,-0.08807401,0
 .11030477,0.00009915,0.00571526,-0.00898045,-0.00003356,-0.00067872,-0
 .00025285,-0.00003137,0.00009704,-0.00055446,-0.00064922,0.00026647,-0
 .00068523,-0.02396149,0.09231909,0.00125668,0.01087925,-0.01176510,-0.
 00349605,0.00158982,0.00483516,-0.00037539,-0.00275623,0.00059982,-0.0
 8411905,0.10911250,-0.25796128,0.00028300,0.00643714,-0.00887938,-0.00
 002507,0.00024876,0.00009076,0.00024822,0.00004084,0.00030243,0.000661
 43,0.00089333,0.00060664,0.08419300,-0.12444307,0.27286296,0.00092695,
 -0.00309770,-0.00713531,0.01086672,0.00937443,-0.00433132,-0.00100694,
 -0.00064759,0.00116215,-0.00890458,-0.01615691,0.01384365,-0.17932020,
 -0.13998472,0.06114224,-0.00008116,-0.00006501,0.00005647,-0.00025326,
 -0.00033104,-0.00038114,-0.00006702,0.00003060,-0.00009754,-0.00109804
 ,0.00166151,0.00051193,0.17799990,-0.00416432,0.00437781,0.00391589,-0
 .00712577,-0.00925601,0.00825054,0.00031952,0.00163496,-0.00000911,-0.
 00068115,-0.00155591,0.00241948,-0.13868072,-0.18296386,0.07597339,0.0
 0018785,0.00001338,-0.00010826,0.00014718,0.00012429,0.00011487,-0.000
 10334,-0.00019512,-0.00007223,0.00137177,-0.00212434,-0.00191443,0.147
 87765,0.18883327,-0.00634359,0.00104955,0.00207646,0.01903722,0.024857
 43,-0.01572225,-0.00006680,0.00113130,0.00052731,-0.00589873,-0.010007
 67,0.00956544,0.05657233,0.07293646,-0.08298309,0.00016596,-0.00001999
 ,-0.00013583,-0.00001799,-0.00006705,-0.00010034,-0.00011055,-0.000178
 36,-0.00008843,0.00138971,-0.00149773,-0.00111304,-0.06159346,-0.09059
 514,0.09178822,-0.00195320,-0.00045914,0.00330184,-0.27977950,-0.23966
 510,0.09528858,-0.00010162,-0.00221231,-0.00016537,0.00126512,0.005541
 12,-0.00735301,0.01068044,0.00670492,-0.00155584,0.00006678,0.00034182
 ,0.00021089,-0.00006137,-0.00000806,-0.00003384,0.00035103,0.00033871,
 0.00063827,-0.00071501,-0.00017113,0.00086128,0.00093763,0.00085133,-0
 .00313410,0.26930970,-0.00013789,-0.00273032,0.00016353,-0.21489236,-0
 .21782621,0.10070348,-0.00000346,0.00035281,-0.00005859,-0.00048280,0.
 00281211,-0.00305908,-0.01399225,-0.01769804,0.01413174,0.00001402,-0.
 00004797,-0.00034165,-0.00022063,-0.00008902,0.00001106,0.00006029,-0.
 00016033,0.00000748,-0.00042154,-0.00071195,-0.00008792,0.00133878,0.0
 0111152,0.00239120,0.22873784,0.23498740,0.00141443,-0.00100223,0.0017
 0550,0.05986815,0.07865225,-0.06707940,-0.00081952,-0.00198896,-0.0006
 9556,0.00053097,0.00245844,-0.00177402,0.02918301,0.03335408,-0.018917
 25,-0.00004039,0.00015328,0.00004802,0.00013380,0.00013782,0.00001771,
 0.00033659,0.00027482,0.00047264,0.00062931,-0.00020324,0.00042103,-0.
 00317766,0.00202499,-0.00381445,-0.08805870,-0.11386126,0.08961577\\-0
 .00000003,-0.00000047,0.00000025,0.00000127,-0.00000078,-0.00000062,0.
 00000030,-0.00000044,0.,-0.00000050,0.,0.00000060,-0.00000028,0.000000
 19,-0.00000030,0.00000020,0.00000092,-0.00000160,0.00000114,-0.0000011
 5,-0.00000042,-0.00000056,0.00000041,0.00000067,-0.00000176,0.00000162
 ,0.00000172,-0.00000101,0.00000127,0.00000051,0.00000124,-0.00000157,-
 0.00000083\\\@


 KNOWLEDGE IS OF TWO KINDS:  WE KNOW A SUBJECT OURSELVES OR WE KNOW 
 WHERE WE CAN FIND INFORMATION UPON IT.

                                    -- SAMUEL JOHNSON
 Job cpu time:       0 days  1 hours  8 minutes 41.8 seconds.
 Elapsed time:       0 days  0 hours 34 minutes 24.9 seconds.
 File lengths (MBytes):  RWF=   1312 Int=      0 D2E=      0 Chk=     32 Scr=     32
 Normal termination of Gaussian 16 at Wed Sep 25 08:23:08 2019.
