 Entering Gaussian System, Link 0=g16
 Input=verytight/species/COC=CO/conformers/COC=CO_10.com
 Output=verytight/species/COC=CO/conformers/COC=CO_10.log
 Initial command:
 /shared/centos7/gaussian/g16/l1.exe "/scratch/harms.n/gauss_scrdir/Gau-10344.inp" -scrdir="/scratch/harms.n/gauss_scrdir/"
 Entering Link 1 = /shared/centos7/gaussian/g16/l1.exe PID=     10345.
  
 Copyright (c) 1988,1990,1992,1993,1995,1998,2003,2009,2016,
            Gaussian, Inc.  All Rights Reserved.
  
 This is part of the Gaussian(R) 16 program.  It is based on
 the Gaussian(R) 09 system (copyright 2009, Gaussian, Inc.),
 the Gaussian(R) 03 system (copyright 2003, Gaussian, Inc.),
 the Gaussian(R) 98 system (copyright 1998, Gaussian, Inc.),
 the Gaussian(R) 94 system (copyright 1995, Gaussian, Inc.),
 the Gaussian 92(TM) system (copyright 1992, Gaussian, Inc.),
 the Gaussian 90(TM) system (copyright 1990, Gaussian, Inc.),
 the Gaussian 88(TM) system (copyright 1988, Gaussian, Inc.),
 the Gaussian 86(TM) system (copyright 1986, Carnegie Mellon
 University), and the Gaussian 82(TM) system (copyright 1983,
 Carnegie Mellon University). Gaussian is a federally registered
 trademark of Gaussian, Inc.
  
 This software contains proprietary and confidential information,
 including trade secrets, belonging to Gaussian, Inc.
  
 This software is provided under written license and may be
 used, copied, transmitted, or stored only in accord with that
 written license.
  
 The following legend is applicable only to US Government
 contracts under FAR:
  
                    RESTRICTED RIGHTS LEGEND
  
 Use, reproduction and disclosure by the US Government is
 subject to restrictions as set forth in subparagraphs (a)
 and (c) of the Commercial Computer Software - Restricted
 Rights clause in FAR 52.227-19.
  
 Gaussian, Inc.
 340 Quinnipiac St., Bldg. 40, Wallingford CT 06492
  
  
 ---------------------------------------------------------------
 Warning -- This program may not be used in any manner that
 competes with the business of Gaussian, Inc. or will provide
 assistance to any competitor of Gaussian, Inc.  The licensee
 of this program is prohibited from giving any competitor of
 Gaussian, Inc. access to this program.  By using this program,
 the user acknowledges that Gaussian, Inc. is engaged in the
 business of creating and licensing software in the field of
 computational chemistry and represents and warrants to the
 licensee that it is not a competitor of Gaussian, Inc. and that
 it will not use this program in any manner prohibited above.
 ---------------------------------------------------------------
  

 Cite this work as:
 Gaussian 16, Revision A.03,
 M. J. Frisch, G. W. Trucks, H. B. Schlegel, G. E. Scuseria, 
 M. A. Robb, J. R. Cheeseman, G. Scalmani, V. Barone, 
 G. A. Petersson, H. Nakatsuji, X. Li, M. Caricato, A. V. Marenich, 
 J. Bloino, B. G. Janesko, R. Gomperts, B. Mennucci, H. P. Hratchian, 
 J. V. Ortiz, A. F. Izmaylov, J. L. Sonnenberg, D. Williams-Young, 
 F. Ding, F. Lipparini, F. Egidi, J. Goings, B. Peng, A. Petrone, 
 T. Henderson, D. Ranasinghe, V. G. Zakrzewski, J. Gao, N. Rega, 
 G. Zheng, W. Liang, M. Hada, M. Ehara, K. Toyota, R. Fukuda, 
 J. Hasegawa, M. Ishida, T. Nakajima, Y. Honda, O. Kitao, H. Nakai, 
 T. Vreven, K. Throssell, J. A. Montgomery, Jr., J. E. Peralta, 
 F. Ogliaro, M. J. Bearpark, J. J. Heyd, E. N. Brothers, K. N. Kudin, 
 V. N. Staroverov, T. A. Keith, R. Kobayashi, J. Normand, 
 K. Raghavachari, A. P. Rendell, J. C. Burant, S. S. Iyengar, 
 J. Tomasi, M. Cossi, J. M. Millam, M. Klene, C. Adamo, R. Cammi, 
 J. W. Ochterski, R. L. Martin, K. Morokuma, O. Farkas, 
 J. B. Foresman, and D. J. Fox, Gaussian, Inc., Wallingford CT, 2016.
 
 ******************************************
 Gaussian 16:  EM64L-G16RevA.03 25-Dec-2016
                29-Sep-2019 
 ******************************************
 %nprocshared=20
 Will use up to   20 processors via shared memory.
 %mem=5GB
 ----------------------------------------------------------------------
 #p m062x/cc-pVTZ opt=(calcfc,maxcycles=900,Tight) freq IOP(7/33=1,2/16
 =3) scf=(maxcycle=900)
 ----------------------------------------------------------------------
 1/6=900,7=10,10=4,18=20,19=15,26=3,38=1/1,3;
 2/9=110,12=2,16=3,17=6,18=5,40=1/2;
 3/5=16,6=1,11=2,25=1,30=1,71=2,74=-55,140=1/1,2,3;
 4//1;
 5/5=2,7=900,38=5/2;
 8/6=4,10=90,11=11/1;
 11/6=1,8=1,9=11,15=111,16=1/1,2,10;
 10/6=1,13=1/2;
 6/7=2,8=2,9=2,10=2,28=1/1;
 7/10=1,18=20,25=1,33=1/1,2,3,16;
 1/6=900,7=10,10=4,18=20,19=15,26=3/3(2);
 2/9=110,16=3/2;
 99//99;
 2/9=110,16=3/2;
 3/5=16,6=1,11=2,25=1,30=1,71=1,74=-55/1,2,3;
 4/5=5,16=3,69=1/1;
 5/5=2,7=900,38=5/2;
 7/33=1/1,2,3,16;
 1/6=900,7=10,18=20,19=15,26=3/3(-5);
 2/9=110,16=3/2;
 6/7=2,8=2,9=2,10=2,19=2,28=1/1;
 99/9=1/99;
 Leave Link    1 at Sun Sep 29 04:50:57 2019, MaxMem=   671088640 cpu:               4.1 elap:               2.1
 (Enter /shared/centos7/gaussian/g16/l101.exe)
 ------------------------------
 Gaussian input prepared by ASE
 ------------------------------
 Symbolic Z-matrix:
 Charge =  0 Multiplicity = 1
 O                     0.21822  -0.72622   1.09727 
 O                     2.49958   2.10956   0.95145 
 C                    -1.17727  -0.87956   0.82803 
 C                     0.6703    0.57449   0.91464 
 C                     1.93565   0.86283   1.10624 
 H                    -1.4312   -0.55369  -0.22161 
 H                    -1.40699  -1.97794   0.93517 
 H                    -1.78885  -0.31951   1.5357 
 H                    -0.08845   1.29105   0.60597 
 H                     2.65664   0.13656   1.4154 
 H                     1.85323   2.67147   0.40327 
 
 ITRead=  0  0  0  0  0  0  0  0  0  0  0
 MicOpt= -1 -1 -1 -1 -1 -1 -1 -1 -1 -1 -1
 NAtoms=     11 NQM=       11 NQMF=       0 NMMI=      0 NMMIF=      0
                NMic=       0 NMicF=      0.
                    Isotopes and Nuclear Properties:
 (Nuclear quadrupole moments (NQMom) in fm**2, nuclear magnetic moments (NMagM)
  in nuclear magnetons)

  Atom         1           2           3           4           5           6           7           8           9          10
 IAtWgt=          16          16          12          12          12           1           1           1           1           1
 AtmWgt=  15.9949146  15.9949146  12.0000000  12.0000000  12.0000000   1.0078250   1.0078250   1.0078250   1.0078250   1.0078250
 NucSpn=           0           0           0           0           0           1           1           1           1           1
 AtZEff=  -0.0000000  -0.0000000  -0.0000000  -0.0000000  -0.0000000  -0.0000000  -0.0000000  -0.0000000  -0.0000000  -0.0000000
 NQMom=    0.0000000   0.0000000   0.0000000   0.0000000   0.0000000   0.0000000   0.0000000   0.0000000   0.0000000   0.0000000
 NMagM=    0.0000000   0.0000000   0.0000000   0.0000000   0.0000000   2.7928460   2.7928460   2.7928460   2.7928460   2.7928460
 AtZNuc=   8.0000000   8.0000000   6.0000000   6.0000000   6.0000000   1.0000000   1.0000000   1.0000000   1.0000000   1.0000000

  Atom        11
 IAtWgt=           1
 AtmWgt=   1.0078250
 NucSpn=           1
 AtZEff=  -0.0000000
 NQMom=    0.0000000
 NMagM=    2.7928460
 AtZNuc=   1.0000000
 Leave Link  101 at Sun Sep 29 04:50:59 2019, MaxMem=   671088640 cpu:               4.1 elap:               2.1
 (Enter /shared/centos7/gaussian/g16/l103.exe)

 GradGradGradGradGradGradGradGradGradGradGradGradGradGradGradGradGradGrad
 Berny optimization.
 Initialization pass.
                           ----------------------------
                           !    Initial Parameters    !
                           ! (Angstroms and Degrees)  !
 --------------------------                            --------------------------
 ! Name  Definition              Value          Derivative Info.                !
 --------------------------------------------------------------------------------
 ! R1    R(1,3)                  1.4295         calculate D2E/DX2 analytically  !
 ! R2    R(1,4)                  1.3891         calculate D2E/DX2 analytically  !
 ! R3    R(2,5)                  1.3771         calculate D2E/DX2 analytically  !
 ! R4    R(2,11)                 1.0169         calculate D2E/DX2 analytically  !
 ! R5    R(3,6)                  1.128          calculate D2E/DX2 analytically  !
 ! R6    R(3,7)                  1.1272         calculate D2E/DX2 analytically  !
 ! R7    R(3,8)                  1.0902         calculate D2E/DX2 analytically  !
 ! R8    R(4,5)                  1.3119         calculate D2E/DX2 analytically  !
 ! R9    R(4,9)                  1.0883         calculate D2E/DX2 analytically  !
 ! R10   R(5,10)                 1.0691         calculate D2E/DX2 analytically  !
 ! A1    A(3,1,4)              113.166          calculate D2E/DX2 analytically  !
 ! A2    A(5,2,11)             107.4936         calculate D2E/DX2 analytically  !
 ! A3    A(1,3,6)              111.3482         calculate D2E/DX2 analytically  !
 ! A4    A(1,3,7)              106.5928         calculate D2E/DX2 analytically  !
 ! A5    A(1,3,8)              111.7332         calculate D2E/DX2 analytically  !
 ! A6    A(6,3,7)              108.9078         calculate D2E/DX2 analytically  !
 ! A7    A(6,3,8)              109.2286         calculate D2E/DX2 analytically  !
 ! A8    A(7,3,8)              108.9384         calculate D2E/DX2 analytically  !
 ! A9    A(1,4,5)              120.0342         calculate D2E/DX2 analytically  !
 ! A10   A(1,4,9)              115.2715         calculate D2E/DX2 analytically  !
 ! A11   A(5,4,9)              124.6929         calculate D2E/DX2 analytically  !
 ! A12   A(2,5,4)              125.2796         calculate D2E/DX2 analytically  !
 ! A13   A(2,5,10)             111.8008         calculate D2E/DX2 analytically  !
 ! A14   A(4,5,10)             122.9178         calculate D2E/DX2 analytically  !
 ! D1    D(4,1,3,6)             57.2852         calculate D2E/DX2 analytically  !
 ! D2    D(4,1,3,7)            175.938          calculate D2E/DX2 analytically  !
 ! D3    D(4,1,3,8)            -65.1578         calculate D2E/DX2 analytically  !
 ! D4    D(3,1,4,5)           -179.019          calculate D2E/DX2 analytically  !
 ! D5    D(3,1,4,9)              0.5717         calculate D2E/DX2 analytically  !
 ! D6    D(11,2,5,4)           -17.1461         calculate D2E/DX2 analytically  !
 ! D7    D(11,2,5,10)          163.3369         calculate D2E/DX2 analytically  !
 ! D8    D(1,4,5,2)            179.7185         calculate D2E/DX2 analytically  !
 ! D9    D(1,4,5,10)            -0.8157         calculate D2E/DX2 analytically  !
 ! D10   D(9,4,5,2)              0.1686         calculate D2E/DX2 analytically  !
 ! D11   D(9,4,5,10)           179.6344         calculate D2E/DX2 analytically  !
 --------------------------------------------------------------------------------
 Trust Radius=3.00D-01 FncErr=1.00D-07 GrdErr=1.00D-06 EigMax=2.50D+02 EigMin=1.00D-04
 Number of steps in this run=    100 maximum allowed number of steps=    100.
 GradGradGradGradGradGradGradGradGradGradGradGradGradGradGradGradGradGrad

 Leave Link  103 at Sun Sep 29 04:51:00 2019, MaxMem=   671088640 cpu:               1.6 elap:               0.8
 (Enter /shared/centos7/gaussian/g16/l202.exe)
                          Input orientation:                          
 ---------------------------------------------------------------------
 Center     Atomic      Atomic             Coordinates (Angstroms)
 Number     Number       Type             X           Y           Z
 ---------------------------------------------------------------------
      1          8           0        0.218215   -0.726220    1.097268
      2          8           0        2.499575    2.109555    0.951452
      3          6           0       -1.177265   -0.879560    0.828033
      4          6           0        0.670296    0.574493    0.914640
      5          6           0        1.935653    0.862825    1.106235
      6          1           0       -1.431199   -0.553694   -0.221614
      7          1           0       -1.406988   -1.977941    0.935168
      8          1           0       -1.788847   -0.319506    1.535704
      9          1           0       -0.088455    1.291048    0.605975
     10          1           0        2.656643    0.136558    1.415398
     11          1           0        1.853233    2.671475    0.403270
 ---------------------------------------------------------------------
                    Distance matrix (angstroms):
                    1          2          3          4          5
     1  O    0.000000
     2  O    3.642456   0.000000
     3  C    1.429464   4.740168   0.000000
     4  C    1.389094   2.388312   2.352712   0.000000
     5  C    2.339815   1.377063   3.578206   1.311858   0.000000
     6  H    2.118911   4.890804   1.128020   2.641999   3.886567
     7  H    2.057758   5.654125   1.127250   3.290965   4.390041
     8  H    2.094263   4.963089   1.090179   2.689300   3.931189
     9  H    2.098758   2.736276   2.438516   1.088314   2.128531
    10  H    2.606055   2.032888   4.009532   2.094784   1.069052
    11  H    3.833959   1.016866   4.687664   2.461335   1.942207
                    6          7          8          9         10
     6  H    0.000000
     7  H    1.834996   0.000000
     8  H    1.808570   1.804679   0.000000
     9  H    2.427126   3.540224   2.519844   0.000000
    10  H    4.457209   4.605955   4.470441   3.086029   0.000000
    11  H    4.645394   5.703422   4.846970   2.390986   2.845290
                   11
    11  H    0.000000
 Stoichiometry    C3H6O2
 Framework group  C1[X(C3H6O2)]
 Deg. of freedom    27
 Full point group                 C1      NOp   1
 Largest Abelian subgroup         C1      NOp   1
 Largest concise Abelian subgroup C1      NOp   1
                         Standard orientation:                         
 ---------------------------------------------------------------------
 Center     Atomic      Atomic             Coordinates (Angstroms)
 Number     Number       Type             X           Y           Z
 ---------------------------------------------------------------------
      1          8           0       -1.123031   -0.542416   -0.013820
      2          8           0        2.441226    0.207384    0.022984
      3          6           0       -2.298475    0.270860    0.002952
      4          6           0        0.052942    0.195946    0.024805
      5          6           0        1.213311   -0.415335   -0.004371
      6          1           0       -2.303861    1.002544   -0.855558
      7          1           0       -3.175493   -0.428624   -0.107744
      8          1           0       -2.397930    0.817297    0.941039
      9          1           0       -0.077542    1.275387    0.071805
     10          1           0        1.308570   -1.479364   -0.044889
     11          1           0        2.294028    1.184183   -0.218289
 ---------------------------------------------------------------------
 Rotational constants (GHZ):          28.7992487           2.2320141           2.1009769
 Leave Link  202 at Sun Sep 29 04:51:02 2019, MaxMem=   671088640 cpu:               3.9 elap:               2.0
 (Enter /shared/centos7/gaussian/g16/l301.exe)
 Standard basis: CC-pVTZ (5D, 7F)
 Ernie: Thresh=  0.10000D-02 Tol=  0.10000D-05 Strict=F.
 Ernie:  15 primitive shells out of 178 were deleted.
 There are   265 symmetry adapted cartesian basis functions of A   symmetry.
 There are   234 symmetry adapted basis functions of A   symmetry.
   234 basis functions,   362 primitive gaussians,   265 cartesian basis functions
    20 alpha electrons       20 beta electrons
       nuclear repulsion energy       171.2012544463 Hartrees.
 IExCor= 4336 DFT=T Ex+Corr=M062X ExCW=0 ScaHFX=  0.540000
 ScaDFX=  1.000000  1.000000  1.000000  1.000000 ScalE2=  1.000000  1.000000
 IRadAn=      5 IRanWt=     -1 IRanGd=            0 ICorTp=0 IEmpDi=  4
 NAtoms=   11 NActive=   11 NUniq=   11 SFac= 1.00D+00 NAtFMM=   60 NAOKFM=F Big=F
 Integral buffers will be    131072 words long.
 Raffenetti 2 integral format.
 Two-electron integral symmetry is turned on.
 Leave Link  301 at Sun Sep 29 04:51:03 2019, MaxMem=   671088640 cpu:               1.9 elap:               1.0
 (Enter /shared/centos7/gaussian/g16/l302.exe)
 NPDir=0 NMtPBC=     1 NCelOv=     1 NCel=       1 NClECP=     1 NCelD=      1
         NCelK=      1 NCelE2=     1 NClLst=     1 CellRange=     0.0.
 One-electron integrals computed using PRISM.
 One-electron integral symmetry used in STVInt
 NBasis=   234 RedAO= T EigKep=  2.71D-04  NBF=   234
 NBsUse=   234 1.00D-06 EigRej= -1.00D+00 NBFU=   234
 Precomputing XC quadrature grid using
 IXCGrd= 4 IRadAn=           5 IRanWt=          -1 IRanGd=           0 AccXCQ= 0.00D+00.
 Generated NRdTot=       0 NPtTot=           0 NUsed=           0 NTot=          32
 NSgBfM=   265   265   265   265   265 MxSgAt=    11 MxSgA2=    11.
 Leave Link  302 at Sun Sep 29 04:52:12 2019, MaxMem=   671088640 cpu:             137.9 elap:              69.0
 (Enter /shared/centos7/gaussian/g16/l303.exe)
 DipDrv:  MaxL=1.
 Leave Link  303 at Sun Sep 29 04:52:16 2019, MaxMem=   671088640 cpu:               8.6 elap:               4.3
 (Enter /shared/centos7/gaussian/g16/l401.exe)
 ExpMin= 1.03D-01 ExpMax= 1.53D+04 ExpMxC= 5.22D+02 IAcc=3 IRadAn=         5 AccDes= 0.00D+00
 Harris functional with IExCor= 1009 and IRadAn=       5 diagonalized for initial guess.
 HarFok:  IExCor= 1009 AccDes= 0.00D+00 IRadAn=         5 IDoV= 1 UseB2=F ITyADJ=14
 ICtDFT=  3500011 ScaDFX=  1.000000  1.000000  1.000000  1.000000
 FoFCou: FMM=F IPFlag=           0 FMFlag=      100000 FMFlg1=           0
         NFxFlg=           0 DoJE=T BraDBF=F KetDBF=T FulRan=T
         wScrn=  0.000000 ICntrl=       500 IOpCl=  0 I1Cent=   200000004 NGrid=           0
         NMat0=    1 NMatS0=      1 NMatT0=    0 NMatD0=    1 NMtDS0=    0 NMtDT0=    0
 Petite list used in FoFCou.
 Harris En= -268.198643028189    
 JPrj=0 DoOrth=F DoCkMO=F.
 Leave Link  401 at Sun Sep 29 04:52:43 2019, MaxMem=   671088640 cpu:              53.8 elap:              26.9
 (Enter /shared/centos7/gaussian/g16/l502.exe)
 Keep R1 ints in memory in canonical form, NReq=399924305.
 FoFCou: FMM=F IPFlag=           0 FMFlag=           0 FMFlg1=           0
         NFxFlg=           0 DoJE=F BraDBF=F KetDBF=F FulRan=T
         wScrn=  0.000000 ICntrl=       600 IOpCl=  0 I1Cent=           0 NGrid=           0
         NMat0=    1 NMatS0=  27495 NMatT0=    0 NMatD0=    1 NMtDS0=    0 NMtDT0=    0
 Symmetry not used in FoFCou.
 Two-electron integral symmetry not used.
 Closed shell SCF:
 Using DIIS extrapolation, IDIIS=  1040.
 NGot=   671088640 LenX=   292939207 LenY=   292868541
 Requested convergence on RMS density matrix=1.00D-08 within 900 cycles.
 Requested convergence on MAX density matrix=1.00D-06.
 Requested convergence on             energy=1.00D-06.
 No special actions if energy rises.
 Integral accuracy reduced to 1.0D-05 until final iterations.

 Cycle   1  Pass 0  IDiag  1:
 E= -268.182908511876    
 DIIS: error= 2.06D-02 at cycle   1 NSaved=   1.
 NSaved= 1 IEnMin= 1 EnMin= -268.182908511876     IErMin= 1 ErrMin= 2.06D-02
 ErrMax= 2.06D-02  0.00D+00 EMaxC= 1.00D-01 BMatC= 1.74D-01 BMatP= 1.74D-01
 IDIUse=3 WtCom= 7.94D-01 WtEn= 2.06D-01
 Coeff-Com:  0.100D+01
 Coeff-En:   0.100D+01
 Coeff:      0.100D+01
 Gap=     0.338 Goal=   None    Shift=    0.000
 GapD=    0.338 DampG=1.000 DampE=0.500 DampFc=0.5000 IDamp=-1.
 Damping current iteration by 5.00D-01
 RMSDP=1.99D-03 MaxDP=6.01D-02              OVMax= 1.22D-01

 Cycle   2  Pass 0  IDiag  1:
 E= -268.249143251124     Delta-E=       -0.066234739249 Rises=F Damp=T
 DIIS: error= 4.81D-03 at cycle   2 NSaved=   2.
 NSaved= 2 IEnMin= 2 EnMin= -268.249143251124     IErMin= 2 ErrMin= 4.81D-03
 ErrMax= 4.81D-03  0.00D+00 EMaxC= 1.00D-01 BMatC= 1.63D-02 BMatP= 1.74D-01
 IDIUse=3 WtCom= 9.52D-01 WtEn= 4.81D-02
 Coeff-Com: -0.169D+00 0.117D+01
 Coeff-En:   0.000D+00 0.100D+01
 Coeff:     -0.161D+00 0.116D+01
 Gap=     0.326 Goal=   None    Shift=    0.000
 RMSDP=4.04D-04 MaxDP=8.94D-03 DE=-6.62D-02 OVMax= 5.84D-02

 Cycle   3  Pass 0  IDiag  1:
 E= -268.307036739594     Delta-E=       -0.057893488470 Rises=F Damp=F
 DIIS: error= 2.97D-03 at cycle   3 NSaved=   3.
 NSaved= 3 IEnMin= 3 EnMin= -268.307036739594     IErMin= 3 ErrMin= 2.97D-03
 ErrMax= 2.97D-03  0.00D+00 EMaxC= 1.00D-01 BMatC= 3.91D-03 BMatP= 1.63D-02
 IDIUse=3 WtCom= 9.70D-01 WtEn= 2.97D-02
 Coeff-Com: -0.115D+00 0.394D+00 0.722D+00
 Coeff-En:   0.000D+00 0.000D+00 0.100D+01
 Coeff:     -0.112D+00 0.382D+00 0.730D+00
 Gap=     0.325 Goal=   None    Shift=    0.000
 RMSDP=1.66D-04 MaxDP=5.80D-03 DE=-5.79D-02 OVMax= 1.86D-02

 Cycle   4  Pass 0  IDiag  1:
 E= -268.308910989201     Delta-E=       -0.001874249608 Rises=F Damp=F
 DIIS: error= 1.48D-03 at cycle   4 NSaved=   4.
 NSaved= 4 IEnMin= 4 EnMin= -268.308910989201     IErMin= 4 ErrMin= 1.48D-03
 ErrMax= 1.48D-03  0.00D+00 EMaxC= 1.00D-01 BMatC= 9.24D-04 BMatP= 3.91D-03
 IDIUse=3 WtCom= 9.85D-01 WtEn= 1.48D-02
 Coeff-Com: -0.367D-01 0.894D-01 0.372D+00 0.576D+00
 Coeff-En:   0.000D+00 0.000D+00 0.197D+00 0.803D+00
 Coeff:     -0.361D-01 0.880D-01 0.369D+00 0.579D+00
 Gap=     0.320 Goal=   None    Shift=    0.000
 RMSDP=7.03D-05 MaxDP=2.80D-03 DE=-1.87D-03 OVMax= 7.93D-03

 Cycle   5  Pass 0  IDiag  1:
 E= -268.309628572258     Delta-E=       -0.000717583056 Rises=F Damp=F
 DIIS: error= 2.01D-04 at cycle   5 NSaved=   5.
 NSaved= 5 IEnMin= 5 EnMin= -268.309628572258     IErMin= 5 ErrMin= 2.01D-04
 ErrMax= 2.01D-04  0.00D+00 EMaxC= 1.00D-01 BMatC= 1.17D-05 BMatP= 9.24D-04
 IDIUse=3 WtCom= 9.98D-01 WtEn= 2.01D-03
 Coeff-Com: -0.563D-02 0.109D-01 0.791D-01 0.177D+00 0.739D+00
 Coeff-En:   0.000D+00 0.000D+00 0.000D+00 0.000D+00 0.100D+01
 Coeff:     -0.562D-02 0.109D-01 0.789D-01 0.176D+00 0.739D+00
 Gap=     0.321 Goal=   None    Shift=    0.000
 RMSDP=1.30D-05 MaxDP=4.50D-04 DE=-7.18D-04 OVMax= 1.81D-03

 Cycle   6  Pass 0  IDiag  1:
 E= -268.309637416036     Delta-E=       -0.000008843778 Rises=F Damp=F
 DIIS: error= 7.78D-05 at cycle   6 NSaved=   6.
 NSaved= 6 IEnMin= 6 EnMin= -268.309637416036     IErMin= 6 ErrMin= 7.78D-05
 ErrMax= 7.78D-05  0.00D+00 EMaxC= 1.00D-01 BMatC= 2.80D-06 BMatP= 1.17D-05
 IDIUse=1 WtCom= 1.00D+00 WtEn= 0.00D+00
 Coeff-Com: -0.646D-03 0.371D-04 0.193D-01 0.613D-01 0.394D+00 0.526D+00
 Coeff:     -0.646D-03 0.371D-04 0.193D-01 0.613D-01 0.394D+00 0.526D+00
 Gap=     0.321 Goal=   None    Shift=    0.000
 RMSDP=4.11D-06 MaxDP=1.45D-04 DE=-8.84D-06 OVMax= 5.39D-04

 Initial convergence to 1.0D-05 achieved.  Increase integral accuracy.
 Cycle   7  Pass 1  IDiag  1:
 E= -268.309659551775     Delta-E=       -0.000022135739 Rises=F Damp=F
 DIIS: error= 2.19D-05 at cycle   1 NSaved=   1.
 NSaved= 1 IEnMin= 1 EnMin= -268.309659551775     IErMin= 1 ErrMin= 2.19D-05
 ErrMax= 2.19D-05  0.00D+00 EMaxC= 1.00D-01 BMatC= 2.67D-07 BMatP= 2.67D-07
 IDIUse=1 WtCom= 1.00D+00 WtEn= 0.00D+00
 Coeff-Com:  0.100D+01
 Coeff:      0.100D+01
 Gap=     0.321 Goal=   None    Shift=    0.000
 RMSDP=4.11D-06 MaxDP=1.45D-04 DE=-2.21D-05 OVMax= 2.16D-04

 Cycle   8  Pass 1  IDiag  1:
 E= -268.309659689006     Delta-E=       -0.000000137231 Rises=F Damp=F
 DIIS: error= 1.64D-05 at cycle   2 NSaved=   2.
 NSaved= 2 IEnMin= 2 EnMin= -268.309659689006     IErMin= 2 ErrMin= 1.64D-05
 ErrMax= 1.64D-05  0.00D+00 EMaxC= 1.00D-01 BMatC= 1.15D-07 BMatP= 2.67D-07
 IDIUse=1 WtCom= 1.00D+00 WtEn= 0.00D+00
 Coeff-Com:  0.348D+00 0.652D+00
 Coeff:      0.348D+00 0.652D+00
 Gap=     0.321 Goal=   None    Shift=    0.000
 RMSDP=1.22D-06 MaxDP=3.42D-05 DE=-1.37D-07 OVMax= 1.49D-04

 Cycle   9  Pass 1  IDiag  1:
 E= -268.309659746576     Delta-E=       -0.000000057570 Rises=F Damp=F
 DIIS: error= 1.14D-05 at cycle   3 NSaved=   3.
 NSaved= 3 IEnMin= 3 EnMin= -268.309659746576     IErMin= 3 ErrMin= 1.14D-05
 ErrMax= 1.14D-05  0.00D+00 EMaxC= 1.00D-01 BMatC= 3.59D-08 BMatP= 1.15D-07
 IDIUse=1 WtCom= 1.00D+00 WtEn= 0.00D+00
 Coeff-Com: -0.312D-01 0.354D+00 0.677D+00
 Coeff:     -0.312D-01 0.354D+00 0.677D+00
 Gap=     0.321 Goal=   None    Shift=    0.000
 RMSDP=5.40D-07 MaxDP=1.71D-05 DE=-5.76D-08 OVMax= 7.15D-05

 Cycle  10  Pass 1  IDiag  1:
 E= -268.309659774545     Delta-E=       -0.000000027969 Rises=F Damp=F
 DIIS: error= 1.36D-06 at cycle   4 NSaved=   4.
 NSaved= 4 IEnMin= 4 EnMin= -268.309659774545     IErMin= 4 ErrMin= 1.36D-06
 ErrMax= 1.36D-06  0.00D+00 EMaxC= 1.00D-01 BMatC= 3.58D-10 BMatP= 3.59D-08
 IDIUse=1 WtCom= 1.00D+00 WtEn= 0.00D+00
 Coeff-Com: -0.149D-01 0.551D-01 0.156D+00 0.804D+00
 Coeff:     -0.149D-01 0.551D-01 0.156D+00 0.804D+00
 Gap=     0.321 Goal=   None    Shift=    0.000
 RMSDP=7.36D-08 MaxDP=2.27D-06 DE=-2.80D-08 OVMax= 1.04D-05

 Cycle  11  Pass 1  IDiag  1:
 E= -268.309659774906     Delta-E=       -0.000000000361 Rises=F Damp=F
 DIIS: error= 4.83D-07 at cycle   5 NSaved=   5.
 NSaved= 5 IEnMin= 5 EnMin= -268.309659774906     IErMin= 5 ErrMin= 4.83D-07
 ErrMax= 4.83D-07  0.00D+00 EMaxC= 1.00D-01 BMatC= 9.13D-11 BMatP= 3.58D-10
 IDIUse=1 WtCom= 1.00D+00 WtEn= 0.00D+00
 Coeff-Com: -0.248D-02-0.224D-01-0.162D-01 0.326D+00 0.715D+00
 Coeff:     -0.248D-02-0.224D-01-0.162D-01 0.326D+00 0.715D+00
 Gap=     0.321 Goal=   None    Shift=    0.000
 RMSDP=3.45D-08 MaxDP=9.12D-07 DE=-3.61D-10 OVMax= 3.08D-06

 Cycle  12  Pass 1  IDiag  1:
 E= -268.309659774989     Delta-E=       -0.000000000083 Rises=F Damp=F
 DIIS: error= 1.98D-07 at cycle   6 NSaved=   6.
 NSaved= 6 IEnMin= 6 EnMin= -268.309659774989     IErMin= 6 ErrMin= 1.98D-07
 ErrMax= 1.98D-07  0.00D+00 EMaxC= 1.00D-01 BMatC= 1.39D-11 BMatP= 9.13D-11
 IDIUse=1 WtCom= 1.00D+00 WtEn= 0.00D+00
 Coeff-Com:  0.173D-02-0.202D-01-0.339D-01 0.101D-01 0.326D+00 0.716D+00
 Coeff:      0.173D-02-0.202D-01-0.339D-01 0.101D-01 0.326D+00 0.716D+00
 Gap=     0.321 Goal=   None    Shift=    0.000
 RMSDP=1.21D-08 MaxDP=3.63D-07 DE=-8.33D-11 OVMax= 1.67D-06

 Cycle  13  Pass 1  IDiag  1:
 E= -268.309659774998     Delta-E=       -0.000000000009 Rises=F Damp=F
 DIIS: error= 2.87D-08 at cycle   7 NSaved=   7.
 NSaved= 7 IEnMin= 7 EnMin= -268.309659774998     IErMin= 7 ErrMin= 2.87D-08
 ErrMax= 2.87D-08  0.00D+00 EMaxC= 1.00D-01 BMatC= 3.95D-13 BMatP= 1.39D-11
 IDIUse=1 WtCom= 1.00D+00 WtEn= 0.00D+00
 Coeff-Com:  0.643D-03-0.610D-02-0.107D-01-0.777D-02 0.883D-01 0.240D+00
 Coeff-Com:  0.696D+00
 Coeff:      0.643D-03-0.610D-02-0.107D-01-0.777D-02 0.883D-01 0.240D+00
 Coeff:      0.696D+00
 Gap=     0.321 Goal=   None    Shift=    0.000
 RMSDP=2.20D-09 MaxDP=6.17D-08 DE=-8.87D-12 OVMax= 1.87D-07

 SCF Done:  E(RM062X) =  -268.309659775     A.U. after   13 cycles
            NFock= 13  Conv=0.22D-08     -V/T= 2.0062
 KE= 2.666648074477D+02 PE=-9.707313563133D+02 EE= 2.645556346443D+02
 Leave Link  502 at Sun Sep 29 04:58:23 2019, MaxMem=   671088640 cpu:             672.5 elap:             340.4
 (Enter /shared/centos7/gaussian/g16/l801.exe)
 DoSCS=F DFT=T ScalE2(SS,OS)=  1.000000  1.000000
 Range of M.O.s used for correlation:     1   234
 NBasis=   234 NAE=    20 NBE=    20 NFC=     0 NFV=     0
 NROrb=    234 NOA=    20 NOB=    20 NVA=   214 NVB=   214

 **** Warning!!: The largest alpha MO coefficient is  0.11708101D+02

 Leave Link  801 at Sun Sep 29 04:58:24 2019, MaxMem=   671088640 cpu:               1.7 elap:               0.8
 (Enter /shared/centos7/gaussian/g16/l1101.exe)
 Using compressed storage, NAtomX=    11.
 Will process     12 centers per pass.
 Leave Link 1101 at Sun Sep 29 04:58:47 2019, MaxMem=   671088640 cpu:              45.8 elap:              23.0
 (Enter /shared/centos7/gaussian/g16/l1102.exe)
 Symmetrizing basis deriv contribution to polar:
 IMax=3 JMax=2 DiffMx= 0.00D+00
 Leave Link 1102 at Sun Sep 29 04:58:50 2019, MaxMem=   671088640 cpu:               5.8 elap:               2.9
 (Enter /shared/centos7/gaussian/g16/l1110.exe)
 Forming Gx(P) for the SCF density, NAtomX=    11.
 Integral derivatives from FoFJK, PRISM(SPDF).
 Do as many integral derivatives as possible in FoFJK.
 G2DrvN: MDV=     671087712.
 G2DrvN: will do    12 centers at a time, making    1 passes.
 Calling FoFCou, ICntrl=  3107 FMM=F I1Cent=   0 AccDes= 0.00D+00.
 FoFJK:  IHMeth= 1 ICntrl=    3107 DoSepK=F KAlg= 0 I1Cent=           0 FoldK=F
 IRaf=         0 NMat=       1 IRICut=       1 DoRegI=T DoRafI=F ISym2E= 0 IDoP0=0 IntGTp=1.
 FoFCou: FMM=F IPFlag=           0 FMFlag=      100000 FMFlg1=           0
         NFxFlg=           0 DoJE=F BraDBF=F KetDBF=F FulRan=T
         wScrn=  0.000000 ICntrl=      3107 IOpCl=  0 I1Cent=           0 NGrid=           0
         NMat0=    1 NMatS0=      1 NMatT0=    0 NMatD0=    1 NMtDS0=    0 NMtDT0=    0
 Symmetry not used in FoFCou.
 End of G2Drv F.D. properties file   721 does not exist.
 End of G2Drv F.D. properties file   722 does not exist.
 End of G2Drv F.D. properties file   788 does not exist.
 Leave Link 1110 at Sun Sep 29 05:05:22 2019, MaxMem=   671088640 cpu:             784.8 elap:             392.4
 (Enter /shared/centos7/gaussian/g16/l1002.exe)
 Minotr:  Closed shell wavefunction.
          IDoAtm=11111111111
          Direct CPHF calculation.
          Differentiating once with respect to nuclear coordinates.
          Requested convergence is 1.0D-08 RMS, and 1.0D-07 maximum.
          Secondary convergence is 1.0D-12 RMS, and 1.0D-12 maximum.
          NewPWx=T KeepS1=F KeepF1=F KeepIn=T MapXYZ=F SortEE=F KeepMc=T.
         3300 words used for storage of precomputed grid.
 Keep R1 ints in memory in canonical form, NReq=399865299.
 FoFCou: FMM=F IPFlag=           0 FMFlag=           0 FMFlg1=           0
         NFxFlg=           0 DoJE=F BraDBF=F KetDBF=F FulRan=T
         wScrn=  0.000000 ICntrl=       600 IOpCl=  0 I1Cent=           0 NGrid=           0
         NMat0=    1 NMatS0=  27495 NMatT0=    0 NMatD0=    1 NMtDS0=    0 NMtDT0=    0
 Symmetry not used in FoFCou.
 Two-electron integral symmetry not used.
          MDV=     671088640 using IRadAn=       1.
          Solving linear equations simultaneously, MaxMat=       0.
          There are    36 degrees of freedom in the 1st order CPHF.  IDoFFX=6 NUNeed=     0.
     30 vectors produced by pass  0 Test12= 1.19D-14 2.78D-09 XBig12= 6.65D-02 9.67D-02.
 AX will form    30 AO Fock derivatives at one time.
     30 vectors produced by pass  1 Test12= 1.19D-14 2.78D-09 XBig12= 1.02D-02 2.83D-02.
     30 vectors produced by pass  2 Test12= 1.19D-14 2.78D-09 XBig12= 3.96D-04 4.06D-03.
     30 vectors produced by pass  3 Test12= 1.19D-14 2.78D-09 XBig12= 4.48D-06 3.41D-04.
     30 vectors produced by pass  4 Test12= 1.19D-14 2.78D-09 XBig12= 4.05D-08 2.95D-05.
     30 vectors produced by pass  5 Test12= 1.19D-14 2.78D-09 XBig12= 2.27D-10 1.85D-06.
     19 vectors produced by pass  6 Test12= 1.19D-14 2.78D-09 XBig12= 1.17D-12 1.62D-07.
      4 vectors produced by pass  7 Test12= 1.19D-14 2.78D-09 XBig12= 4.74D-15 8.94D-09.
 InvSVY:  IOpt=1 It=  1 EMax= 8.88D-16
 Solved reduced A of dimension   203 with    30 vectors.
 End of Minotr F.D. properties file   721 does not exist.
 End of Minotr F.D. properties file   722 does not exist.
 End of Minotr F.D. properties file   788 does not exist.
 Leave Link 1002 at Sun Sep 29 05:15:53 2019, MaxMem=   671088640 cpu:            1260.5 elap:             630.4
 (Enter /shared/centos7/gaussian/g16/l601.exe)
 Copying SCF densities to generalized density rwf, IOpCl= 0 IROHF=0.

 **********************************************************************

            Population analysis using the SCF density.

 **********************************************************************

 Orbital symmetries:
       Occupied  (A) (A) (A) (A) (A) (A) (A) (A) (A) (A) (A) (A)
                 (A) (A) (A) (A) (A) (A) (A) (A)
       Virtual   (A) (A) (A) (A) (A) (A) (A) (A) (A) (A) (A) (A)
                 (A) (A) (A) (A) (A) (A) (A) (A) (A) (A) (A) (A)
                 (A) (A) (A) (A) (A) (A) (A) (A) (A) (A) (A) (A)
                 (A) (A) (A) (A) (A) (A) (A) (A) (A) (A) (A) (A)
                 (A) (A) (A) (A) (A) (A) (A) (A) (A) (A) (A) (A)
                 (A) (A) (A) (A) (A) (A) (A) (A) (A) (A) (A) (A)
                 (A) (A) (A) (A) (A) (A) (A) (A) (A) (A) (A) (A)
                 (A) (A) (A) (A) (A) (A) (A) (A) (A) (A) (A) (A)
                 (A) (A) (A) (A) (A) (A) (A) (A) (A) (A) (A) (A)
                 (A) (A) (A) (A) (A) (A) (A) (A) (A) (A) (A) (A)
                 (A) (A) (A) (A) (A) (A) (A) (A) (A) (A) (A) (A)
                 (A) (A) (A) (A) (A) (A) (A) (A) (A) (A) (A) (A)
                 (A) (A) (A) (A) (A) (A) (A) (A) (A) (A) (A) (A)
                 (A) (A) (A) (A) (A) (A) (A) (A) (A) (A) (A) (A)
                 (A) (A) (A) (A) (A) (A) (A) (A) (A) (A) (A) (A)
                 (A) (A) (A) (A) (A) (A) (A) (A) (A) (A) (A) (A)
                 (A) (A) (A) (A) (A) (A) (A) (A) (A) (A) (A) (A)
                 (A) (A) (A) (A) (A) (A) (A) (A) (A) (A)
 The electronic state is 1-A.
 Alpha  occ. eigenvalues --  -19.65006 -19.64502 -10.59670 -10.58214 -10.58082
 Alpha  occ. eigenvalues --   -1.17356  -1.16076  -0.85971  -0.76719  -0.69007
 Alpha  occ. eigenvalues --   -0.60038  -0.58355  -0.53838  -0.50673  -0.48826
 Alpha  occ. eigenvalues --   -0.47042  -0.43402  -0.40972  -0.40083  -0.26576
 Alpha virt. eigenvalues --    0.05517   0.07372   0.07581   0.10949   0.12728
 Alpha virt. eigenvalues --    0.13411   0.15369   0.15773   0.23840   0.27435
 Alpha virt. eigenvalues --    0.29681   0.31240   0.32223   0.33885   0.38379
 Alpha virt. eigenvalues --    0.38479   0.41454   0.42445   0.43309   0.44614
 Alpha virt. eigenvalues --    0.45843   0.47706   0.48567   0.49917   0.53316
 Alpha virt. eigenvalues --    0.53928   0.56017   0.58297   0.61515   0.62371
 Alpha virt. eigenvalues --    0.63868   0.67040   0.72140   0.73284   0.73899
 Alpha virt. eigenvalues --    0.75648   0.76049   0.82431   0.83475   0.87872
 Alpha virt. eigenvalues --    0.89652   0.91649   0.93139   0.98177   1.02241
 Alpha virt. eigenvalues --    1.04360   1.04467   1.04747   1.09769   1.10153
 Alpha virt. eigenvalues --    1.12739   1.14383   1.16768   1.17623   1.22382
 Alpha virt. eigenvalues --    1.26643   1.29746   1.30148   1.32701   1.33536
 Alpha virt. eigenvalues --    1.35170   1.39187   1.40898   1.46378   1.47984
 Alpha virt. eigenvalues --    1.51319   1.53337   1.59702   1.69163   1.80221
 Alpha virt. eigenvalues --    1.83543   1.88357   1.92975   1.96773   1.98702
 Alpha virt. eigenvalues --    2.01607   2.09594   2.11689   2.14817   2.16697
 Alpha virt. eigenvalues --    2.19444   2.26881   2.31542   2.32493   2.35871
 Alpha virt. eigenvalues --    2.39587   2.47575   2.49513   2.52625   2.54029
 Alpha virt. eigenvalues --    2.59757   2.61671   2.69089   2.72736   2.76335
 Alpha virt. eigenvalues --    2.79736   2.80252   2.82065   2.84129   2.85185
 Alpha virt. eigenvalues --    2.86479   2.91072   2.91626   2.95638   2.98056
 Alpha virt. eigenvalues --    2.99415   2.99917   3.03291   3.07327   3.09580
 Alpha virt. eigenvalues --    3.13076   3.14651   3.17215   3.17850   3.21195
 Alpha virt. eigenvalues --    3.23015   3.23644   3.25950   3.27704   3.30320
 Alpha virt. eigenvalues --    3.31557   3.34458   3.35899   3.36709   3.39781
 Alpha virt. eigenvalues --    3.40450   3.43588   3.44855   3.46528   3.56670
 Alpha virt. eigenvalues --    3.57694   3.60349   3.62730   3.65720   3.68970
 Alpha virt. eigenvalues --    3.70343   3.73793   3.75357   3.79137   3.80177
 Alpha virt. eigenvalues --    3.83714   3.84397   3.87008   3.88512   3.92997
 Alpha virt. eigenvalues --    3.96451   3.99190   3.99961   4.00972   4.02728
 Alpha virt. eigenvalues --    4.05435   4.12192   4.16309   4.20751   4.23412
 Alpha virt. eigenvalues --    4.26421   4.26742   4.34647   4.44121   4.45008
 Alpha virt. eigenvalues --    4.51249   4.56916   4.58532   4.61496   4.72363
 Alpha virt. eigenvalues --    4.74494   4.76554   4.83924   4.85963   4.89051
 Alpha virt. eigenvalues --    4.90875   4.92802   4.96458   4.99935   5.02804
 Alpha virt. eigenvalues --    5.07190   5.13113   5.17671   5.25460   5.26810
 Alpha virt. eigenvalues --    5.38725   5.39923   5.43788   5.50549   5.66450
 Alpha virt. eigenvalues --    5.69551   5.71444   5.75998   5.78826   5.87376
 Alpha virt. eigenvalues --    5.93706   5.98167   6.14031   6.27815   6.33572
 Alpha virt. eigenvalues --    6.40920   6.47920   6.58896   6.68946   6.70887
 Alpha virt. eigenvalues --    6.74595   6.76101   6.80331   6.88208   7.01569
 Alpha virt. eigenvalues --    7.11243   7.25761   7.28794   7.35041  10.41946
 Alpha virt. eigenvalues --   10.86539  11.62066  12.86636  14.11306
          Condensed to atoms (all electrons):
               1          2          3          4          5          6
     1  O    7.860758   0.002300   0.311328   0.319275  -0.065754  -0.047359
     2  O    0.002300   7.796756  -0.000090  -0.074896   0.353451  -0.000045
     3  C    0.311328  -0.000090   4.711960  -0.063961   0.001041   0.389426
     4  C    0.319275  -0.074896  -0.063961   4.935937   0.627168  -0.007430
     5  C   -0.065754   0.353451   0.001041   0.627168   4.784237   0.001358
     6  H   -0.047359  -0.000045   0.389426  -0.007430   0.001358   0.690710
     7  H   -0.029724   0.000004   0.394366   0.007460   0.000262  -0.028409
     8  H   -0.046091  -0.000024   0.394652  -0.005632   0.000242  -0.080483
     9  H   -0.050894  -0.001945  -0.000195   0.388747  -0.056887   0.004414
    10  H    0.006492  -0.032231   0.000112  -0.067609   0.403243   0.000181
    11  H    0.000004   0.323412   0.000070  -0.008336  -0.051065  -0.000028
               7          8          9         10         11
     1  O   -0.029724  -0.046091  -0.050894   0.006492   0.000004
     2  O    0.000004  -0.000024  -0.001945  -0.032231   0.323412
     3  C    0.394366   0.394652  -0.000195   0.000112   0.000070
     4  C    0.007460  -0.005632   0.388747  -0.067609  -0.008336
     5  C    0.000262   0.000242  -0.056887   0.403243  -0.051065
     6  H   -0.028409  -0.080483   0.004414   0.000181  -0.000028
     7  H    0.578366  -0.033810  -0.000703  -0.000062  -0.000000
     8  H   -0.033810   0.671327   0.002679   0.000021   0.000017
     9  H   -0.000703   0.002679   0.597024   0.006692   0.005503
    10  H   -0.000062   0.000021   0.006692   0.517385   0.007323
    11  H   -0.000000   0.000017   0.005503   0.007323   0.460379
 Mulliken charges:
               1
     1  O   -0.260335
     2  O   -0.366691
     3  C   -0.138709
     4  C   -0.050722
     5  C    0.002703
     6  H    0.077664
     7  H    0.112250
     8  H    0.097101
     9  H    0.105566
    10  H    0.158452
    11  H    0.262721
 Sum of Mulliken charges =  -0.00000
 Mulliken charges with hydrogens summed into heavy atoms:
               1
     1  O   -0.260335
     2  O   -0.103970
     3  C    0.148306
     4  C    0.054844
     5  C    0.161155
 APT charges:
               1
     1  O   -0.177883
     2  O   -0.394220
     3  C   -0.971940
     4  C   -0.341257
     5  C   -0.314401
     6  H    0.278782
     7  H    0.505845
     8  H    0.318781
     9  H    0.257668
    10  H    0.377485
    11  H    0.461141
 Sum of APT charges =  -0.00000
 APT charges with hydrogens summed into heavy atoms:
               1
     1  O   -0.177883
     2  O    0.066920
     3  C    0.131468
     4  C   -0.083589
     5  C    0.063084
 Electronic spatial extent (au):  <R**2>=            565.2439
 Charge=             -0.0000 electrons
 Dipole moment (field-independent basis, Debye):
    X=             -1.4150    Y=              2.1773    Z=             -0.3321  Tot=              2.6179
 Quadrupole moment (field-independent basis, Debye-Ang):
   XX=            -30.4989   YY=            -26.9868   ZZ=            -32.2237
   XY=              0.6090   XZ=             -1.0615   YZ=             -0.4651
 Traceless Quadrupole moment (field-independent basis, Debye-Ang):
   XX=             -0.5957   YY=              2.9163   ZZ=             -2.3206
   XY=              0.6090   XZ=             -1.0615   YZ=             -0.4651
 Octapole moment (field-independent basis, Debye-Ang**2):
  XXX=            -21.0561  YYY=              1.9634  ZZZ=              0.0655  XYY=              9.9856
  XXY=              6.0267  XXZ=             -2.2462  XZZ=              0.2085  YZZ=              0.5569
  YYZ=             -0.8352  XYZ=             -1.4666
 Hexadecapole moment (field-independent basis, Debye-Ang**3):
 XXXX=           -604.3170 YYYY=            -69.8900 ZZZZ=            -39.9147 XXXY=             24.7241
 XXXZ=             -5.2054 YYYX=             10.0821 YYYZ=             -0.8571 ZZZX=             -1.0245
 ZZZY=             -0.0916 XXYY=            -94.6762 XXZZ=           -107.6014 YYZZ=            -19.5705
 XXYZ=             -2.6850 YYXZ=             -1.5622 ZZXY=              0.7058
 N-N= 1.712012544463D+02 E-N=-9.707313507006D+02  KE= 2.666648074477D+02
  Exact polarizability:   0.000   0.000   0.000   0.000   0.000   0.000
 Approx polarizability:  66.631  -5.206  51.857  -0.114  -0.700  38.652
 No NMR shielding tensors so no spin-rotation constants.
 Leave Link  601 at Sun Sep 29 05:16:16 2019, MaxMem=   671088640 cpu:              47.0 elap:              23.5
 (Enter /shared/centos7/gaussian/g16/l701.exe)
 SCFChk:  SCF convergence  2.20D-09 required  1.00D-08
 ... and contract with generalized density number  0.
 Compute integral second derivatives.
 Entering OneElI...
 Calculate overlap and kinetic energy integrals
    NBasis = 265  MinDer = 2  MaxDer = 2
 Requested accuracy = 0.1000D-12
 PrmmSu-InSpLW:  IPartL=    0 NPrtUS=   20 NPrtUL=    1 DoSpLW=F IThBeg=    0 IThEnd=   19 NThAct=   20.
 PrsmSu:  NPrtUS=  20 ThrOK=T IAlg=1 NPAlg=1 LenDen=           0 ISkipM=0 DoSpLW=F IThBeg=    0 IThEnd=   19.
 Prism:   IPart=     0 DynPar=F LinDyn=F Incr=           1.
 PRISM was handed    33441169 working-precision words and  3707 shell-pairs
 PRISM was handed    33441169 working-precision words and  3707 shell-pairs
 PRISM was handed    33441169 working-precision words and  3707 shell-pairs
 PRISM was handed    33441169 working-precision words and  3707 shell-pairs
 PRISM was handed    33441169 working-precision words and  3707 shell-pairs
 PRISM was handed    33441169 working-precision words and  3707 shell-pairs
 PRISM was handed    33441169 working-precision words and  3707 shell-pairs
 PRISM was handed    33441169 working-precision words and  3707 shell-pairs
 PRISM was handed    33441169 working-precision words and  3707 shell-pairs
 PRISM was handed    33441169 working-precision words and  3707 shell-pairs
 PRISM was handed    33441169 working-precision words and  3707 shell-pairs
 PRISM was handed    33441169 working-precision words and  3707 shell-pairs
 PRISM was handed    33441169 working-precision words and  3707 shell-pairs
 PRISM was handed    33441169 working-precision words and  3707 shell-pairs
 PRISM was handed    33441169 working-precision words and  3707 shell-pairs
 PRISM was handed    33441169 working-precision words and  3707 shell-pairs
 IPart= 16 NShTot=         166 NBatch=          25 AvBLen=         6.6
 PRISM was handed    33441169 working-precision words and  3707 shell-pairs
 PRISM was handed    33441169 working-precision words and  3707 shell-pairs
 PRISM was handed    33441169 working-precision words and  3707 shell-pairs
 PRISM was handed    33441169 working-precision words and  3707 shell-pairs
 IPart= 13 NShTot=         172 NBatch=          26 AvBLen=         6.6
 IPart=  8 NShTot=         180 NBatch=          28 AvBLen=         6.4
 IPart=  1 NShTot=         222 NBatch=          60 AvBLen=         3.7
 IPart= 10 NShTot=         179 NBatch=          28 AvBLen=         6.4
 IPart=  2 NShTot=         211 NBatch=          52 AvBLen=         4.1
 IPart=  3 NShTot=         208 NBatch=          49 AvBLen=         4.2
 IPart= 19 NShTot=         164 NBatch=          25 AvBLen=         6.6
 IPart=  0 NShTot=         231 NBatch=          69 AvBLen=         3.3
 IPart= 17 NShTot=         165 NBatch=          25 AvBLen=         6.6
 IPart= 18 NShTot=         164 NBatch=          25 AvBLen=         6.6
 IPart= 14 NShTot=         170 NBatch=          26 AvBLen=         6.5
 IPart=  7 NShTot=         188 NBatch=          34 AvBLen=         5.5
 IPart= 11 NShTot=         177 NBatch=          27 AvBLen=         6.6
 IPart=  6 NShTot=         191 NBatch=          36 AvBLen=         5.3
 IPart=  4 NShTot=         203 NBatch=          47 AvBLen=         4.3
 IPart=  9 NShTot=         180 NBatch=          28 AvBLen=         6.4
 IPart= 12 NShTot=         175 NBatch=          26 AvBLen=         6.7
 IPart=  5 NShTot=         194 NBatch=          39 AvBLen=         5.0
 IPart= 15 NShTot=         167 NBatch=          25 AvBLen=         6.7
 PrSmSu:  NxtVal=             21.
 Entering OneElI...
 Calculate potential energy integrals
    NBasis = 265  MinDer = 2  MaxDer = 2
 Requested accuracy = 0.1000D-12
 PrmmSu-InSpLW:  IPartL=    0 NPrtUS=   20 NPrtUL=    1 DoSpLW=F IThBeg=    0 IThEnd=   19 NThAct=   20.
 PrsmSu:  NPrtUS=  20 ThrOK=T IAlg=1 NPAlg=1 LenDen=           0 ISkipM=0 DoSpLW=F IThBeg=    0 IThEnd=   19.
 Prism:   IPart=     0 DynPar=F LinDyn=F Incr=          18.
 PRISM was handed    33457917 working-precision words and  3444 shell-pairs
 PRISM was handed    33457917 working-precision words and  3444 shell-pairs
 PRISM was handed    33457917 working-precision words and  3444 shell-pairs
 PRISM was handed    33457917 working-precision words and  3444 shell-pairs
 PRISM was handed    33457917 working-precision words and  3444 shell-pairs
 PRISM was handed    33457917 working-precision words and  3444 shell-pairs
 PRISM was handed    33457917 working-precision words and  3444 shell-pairs
 PRISM was handed    33457917 working-precision words and  3444 shell-pairs
 PRISM was handed    33457917 working-precision words and  3444 shell-pairs
 PRISM was handed    33457917 working-precision words and  3444 shell-pairs
 PRISM was handed    33457917 working-precision words and  3444 shell-pairs
 PRISM was handed    33457917 working-precision words and  3444 shell-pairs
 PRISM was handed    33457917 working-precision words and  3444 shell-pairs
 PRISM was handed    33457917 working-precision words and  3444 shell-pairs
 PRISM was handed    33457917 working-precision words and  3444 shell-pairs
 PRISM was handed    33457917 working-precision words and  3444 shell-pairs
 PRISM was handed    33457917 working-precision words and  3444 shell-pairs
 PRISM was handed    33457917 working-precision words and  3444 shell-pairs
 PRISM was handed    33457917 working-precision words and  3444 shell-pairs
 PRISM was handed    33457917 working-precision words and  3444 shell-pairs
 IPart=  0 NShTot=        2365 NBatch=         215 AvBLen=        11.0
 IPart=  4 NShTot=        2035 NBatch=         185 AvBLen=        11.0
 IPart=  5 NShTot=        1914 NBatch=         174 AvBLen=        11.0
 IPart= 12 NShTot=        1815 NBatch=         165 AvBLen=        11.0
 IPart= 15 NShTot=        1749 NBatch=         159 AvBLen=        11.0
 IPart=  6 NShTot=        1903 NBatch=         173 AvBLen=        11.0
 IPart= 17 NShTot=        1727 NBatch=         157 AvBLen=        11.0
 IPart=  7 NShTot=        1859 NBatch=         169 AvBLen=        11.0
 IPart=  2 NShTot=        2156 NBatch=         196 AvBLen=        11.0
 IPart=  3 NShTot=        2068 NBatch=         188 AvBLen=        11.0
 IPart= 16 NShTot=        1749 NBatch=         159 AvBLen=        11.0
 IPart=  1 NShTot=        2233 NBatch=         203 AvBLen=        11.0
 IPart= 18 NShTot=        1716 NBatch=         156 AvBLen=        11.0
 IPart= 13 NShTot=        1782 NBatch=         162 AvBLen=        11.0
 IPart=  8 NShTot=        1859 NBatch=         169 AvBLen=        11.0
 IPart=  9 NShTot=        1848 NBatch=         168 AvBLen=        11.0
 IPart= 19 NShTot=        1694 NBatch=         154 AvBLen=        11.0
 IPart= 14 NShTot=        1760 NBatch=         160 AvBLen=        11.0
 IPart= 11 NShTot=        1826 NBatch=         166 AvBLen=        11.0
 IPart= 10 NShTot=        1826 NBatch=         166 AvBLen=        11.0
 PrSmSu:  NxtVal=            361.
 Polarizability after L701:
                1             2             3 
      1  0.000000D+00
      2  0.000000D+00  0.000000D+00
      3  0.000000D+00  0.000000D+00  0.000000D+00
 Dipole Derivatives after L701:
                 1             2             3             4             5 
      1  -0.200147D+00  0.925790D-01  0.180248D-02  0.288062D+00 -0.108074D+01
      2  -0.275227D-03 -0.824628D-01  0.393226D-02  0.469626D-02 -0.104181D+01
      3  -0.156143D-02  0.389963D-02 -0.251040D+00  0.164410D-01  0.140660D+00
                 6             7             8             9            10 
      1   0.275574D+00 -0.131544D+01  0.286606D+00 -0.460253D-02 -0.434862D+00
      2   0.152296D+00  0.738452D-01 -0.800204D+00  0.616698D-02 -0.803733D-01
      3  -0.428917D+00  0.408928D-02 -0.110945D-02 -0.800172D+00 -0.263196D-01
                11            12            13            14            15 
      1   0.871974D-02 -0.689532D-01 -0.415043D+00  0.401115D+00  0.732919D-01
      2  -0.630230D+00 -0.285140D-01  0.150793D+00 -0.600040D+00 -0.192859D-01
      3  -0.344613D-01  0.413224D-01  0.185338D-01 -0.657016D-01  0.718789D-01
                16            17            18            19            20 
      1   0.140881D+00 -0.545337D+00  0.458598D+00  0.114425D+01  0.786150D+00
      2  -0.285639D-01  0.324984D+00 -0.236581D+00  0.141229D+00  0.270978D+00
      3  -0.226865D-01 -0.214659D+00  0.370480D+00  0.372456D-01  0.387116D-01
                21            22            23            24            25 
      1   0.107801D+00  0.239603D+00 -0.467882D+00 -0.557117D+00  0.107161D+00
      2   0.270195D-01 -0.583346D-01  0.261595D+00  0.203925D+00 -0.688795D-01
      3   0.102303D+00 -0.174763D-01  0.175894D+00  0.455146D+00 -0.675928D-02
                26            27            28            29            30 
      1  -0.357356D-01 -0.461795D-02  0.218194D+00 -0.574455D+00 -0.101873D-01
      2   0.625755D+00  0.266159D-01 -0.926978D-01  0.818576D+00  0.134140D-01
      3   0.336237D-01  0.400878D-01 -0.155132D-01  0.339080D-01  0.956860D-01
                31            32            33 
      1   0.227342D+00  0.112898D+01 -0.271590D+00
      2  -0.414394D-01  0.852855D+00 -0.148989D+00
      3   0.140066D-01 -0.110766D+00  0.303225D+00
 Hessian after L701:
                1             2             3             4             5 
      1  0.164056D+01
      2 -0.513156D+00  0.106569D+02
      3 -0.156364D+00 -0.154154D+00  0.146231D+02
      4  0.458904D+00  0.163649D+00  0.114095D-01  0.467030D+01
      5  0.110108D+00 -0.205351D+00  0.601605D-02 -0.297449D+01  0.701466D+01
      6  0.137848D-01  0.549113D-02 -0.212785D+00 -0.197655D+00  0.110333D+01
      7 -0.111648D+01 -0.380573D+01 -0.635934D-01  0.136738D+00 -0.134931D-01
      8 -0.362868D+01 -0.448775D+01  0.841824D-01 -0.932868D-03 -0.844106D-01
      9 -0.573329D-01  0.809009D-01 -0.740533D+01  0.140298D-02  0.161550D-02
     10 -0.108270D+01  0.393230D+01  0.262958D+00  0.359806D+00 -0.205655D+00
     11  0.389992D+01 -0.580854D+01  0.108128D+00 -0.125989D+00 -0.193717D+00
     12  0.232839D+00  0.105230D+00 -0.792834D+01  0.500549D-02  0.206925D-01
     13  0.160404D+00 -0.121554D+00 -0.458773D-01 -0.715412D+00  0.345822D+01
     14 -0.153724D+00 -0.180023D+00 -0.254595D-01  0.359707D+01 -0.597474D+01
     15 -0.192415D-01 -0.125790D-01  0.944877D-01  0.725384D-02 -0.862558D-01
     16 -0.103462D+00  0.203781D+00  0.701209D-01  0.184905D-01 -0.807875D-02
     17  0.159865D+00  0.423736D-02 -0.193669D+00 -0.161538D-01 -0.296898D-02
     18  0.465762D-01 -0.157098D+00  0.347645D+00  0.176963D-01 -0.698507D-02
     19  0.155471D-01  0.170982D+00  0.348075D-01  0.261545D-01 -0.233621D-02
     20  0.235685D+00  0.249477D-01  0.130333D-01  0.131916D-01 -0.781667D-02
     21  0.332345D-01  0.937233D-02  0.221470D-01  0.188759D-02  0.462362D-04
     22 -0.123752D+00  0.202095D+00 -0.913439D-01  0.200078D-01 -0.733867D-02
     23  0.159829D+00 -0.313834D-01  0.161494D+00 -0.123252D-01 -0.444564D-02
     24 -0.676504D-01  0.129343D+00  0.400610D+00 -0.189062D-01  0.676716D-02
     25 -0.106664D-01 -0.221655D+00 -0.942951D-02  0.465726D-01 -0.580831D-01
     26 -0.221420D+00  0.647795D-01 -0.272794D-02 -0.890735D-01  0.171640D-01
     27 -0.105862D-01 -0.433196D-02  0.157413D+00  0.365391D-02  0.831556D-03
     28  0.142767D+00 -0.305102D-01 -0.117881D-01 -0.940763D-01 -0.186460D+00
     29 -0.109729D+00 -0.539281D-01  0.690872D-02 -0.141427D+00  0.151417D-01
     30 -0.503789D-02  0.373954D-02 -0.831596D-01  0.201303D-01  0.363065D-01
     31  0.188854D-01  0.198019D-01 -0.899454D-03 -0.492748D+01 -0.112398D+00
     32  0.612947D-01  0.161111D-01 -0.375163D-02 -0.413523D+00 -0.573512D+00
     33 -0.102219D-01 -0.591393D-02 -0.157956D-01  0.148121D+00 -0.108236D+01
                6             7             8             9            10 
      6  0.128251D+02
      7  0.472252D-02  0.874372D+01
      8  0.156875D-02  0.309837D+01  0.123489D+02
      9 -0.737556D-01  0.929421D-01 -0.323316D-02  0.147589D+02
     10 -0.996589D-02  0.317497D+00  0.104144D-01  0.144622D-01  0.591822D+01
     11  0.172660D-01  0.742396D-01 -0.184997D+00 -0.900928D-02 -0.541740D+00
     12  0.160968D+00  0.155176D-01 -0.119614D-01 -0.869682D-01 -0.211920D+00
     13  0.754972D-01  0.283787D+00 -0.673971D-01  0.823348D-03 -0.184441D+01
     14 -0.735921D-01 -0.860775D-01 -0.128043D+00 -0.231257D-02 -0.330905D+01
     15 -0.777620D+01  0.612047D-02 -0.194945D-02 -0.116871D+00 -0.594390D-01
     16  0.695779D-02 -0.329288D+01 -0.215135D+00  0.251799D+00  0.670507D-02
     17 -0.369773D-02 -0.914848D-01 -0.216486D+01 -0.124388D+01 -0.320545D-01
     18 -0.471794D-02  0.115966D+00 -0.119227D+01 -0.195587D+01 -0.606436D-02
     19  0.206994D-02 -0.174596D+01  0.107014D+01  0.164372D+00  0.155820D+00
     20  0.114468D-02  0.955613D+00 -0.251074D+01  0.106112D+00  0.673383D-01
     21 -0.620884D-02  0.151740D+00  0.108290D+00 -0.320088D+01  0.115775D-01
     22 -0.567931D-02 -0.338811D+01 -0.271779D+00 -0.462933D+00  0.296527D-01
     23  0.187636D-02 -0.186028D+00 -0.277160D+01  0.106949D+01 -0.335887D-01
     24 -0.541658D-02 -0.317947D+00  0.101552D+01 -0.184257D+01 -0.628103D-02
     25  0.914329D-02  0.343931D-01  0.174203D-01 -0.297529D-02 -0.385699D+01
     26 -0.394804D-02  0.652378D-01 -0.212821D-01 -0.737802D-04 -0.178593D+00
     27 -0.527790D-01  0.295655D-03  0.765541D-03 -0.548472D-01 -0.125222D-01
     28  0.243949D-01  0.162623D-01 -0.170811D-01 -0.187925D-02  0.153870D-01
     29  0.546886D-01 -0.294915D-01  0.367007D-02  0.165437D-02  0.274104D+00
     30  0.477236D-01 -0.688601D-03  0.895489D-03 -0.149675D-01  0.421946D-01
     31  0.767294D-01  0.110335D-01  0.465641D-02 -0.681403D-03 -0.189815D-01
     32 -0.110413D+01  0.188469D-01  0.112762D-02 -0.125920D-02  0.165220D-01
     33 -0.490197D+01 -0.507598D-02 -0.181163D-02 -0.680206D-02 -0.249996D-01
               11            12            13            14            15 
     11  0.150241D+02
     12 -0.362518D+00  0.242134D+02
     13 -0.340676D+01 -0.622013D-01  0.577491D+01
     14 -0.727729D+01  0.204318D+00  0.237325D-01  0.151416D+02
     15  0.197012D+00 -0.125521D+02  0.482874D-02 -0.154342D+00  0.240377D+02
     16 -0.205549D-01 -0.451272D-01  0.411695D-01 -0.202554D-01 -0.323411D-02
     17 -0.434544D-02  0.677323D-02 -0.363668D-01 -0.619504D-02 -0.113279D-02
     18 -0.804794D-02 -0.307590D-01  0.184404D-01 -0.575681D-02 -0.159917D-01
     19  0.701511D-01  0.811176D-02  0.447216D-01 -0.158001D-02  0.197055D-02
     20 -0.256641D-01  0.292090D-02  0.148693D-01 -0.776099D-02  0.117410D-02
     21  0.395281D-02 -0.428913D-01  0.246404D-02  0.192527D-03 -0.987724D-02
     22 -0.263727D-01  0.304762D-01  0.310259D-01 -0.160202D-01  0.597125D-02
     23 -0.101974D-01 -0.111171D-02 -0.260450D-01 -0.650452D-02 -0.101783D-02
     24  0.100624D-01 -0.239557D-01 -0.173416D-01  0.482149D-02 -0.141498D-01
     25 -0.150576D+00 -0.118589D-01 -0.323697D-02  0.274659D+00  0.204458D-01
     26 -0.134502D+01  0.104702D+00  0.273206D+00 -0.177161D+00 -0.292125D-01
     27  0.102447D+00 -0.389656D+01  0.207301D-01 -0.244990D-01  0.154717D+00
     28  0.296143D+00  0.469911D-01 -0.390189D+01 -0.235588D+00  0.159524D-03
     29 -0.135566D+00 -0.668792D-01 -0.167824D+00 -0.142102D+01  0.550456D-01
     30 -0.550172D-01  0.187775D+00 -0.146055D-02  0.592122D-01 -0.388560D+01
     31 -0.684634D-01 -0.783398D-02  0.128929D+00 -0.731701D-01  0.351645D-01
     32 -0.387603D-01 -0.216653D-02  0.559188D-01  0.371224D-01  0.332571D-01
     33 -0.427604D-02 -0.526454D-03  0.409697D-02  0.174179D-01  0.838370D-01
               16            17            18            19            20 
     16  0.301252D+01
     17  0.130652D+00  0.200577D+01
     18 -0.353715D+00  0.124239D+01  0.209345D+01
     19  0.301000D-01 -0.887469D-01  0.552432D-01  0.141953D+01
     20 -0.785491D-01 -0.696243D-01  0.714070D-01 -0.113500D+01  0.263663D+01
     21  0.586624D-01  0.879676D-01  0.358341D-01 -0.177516D+00 -0.786106D-01
     22  0.248247D+00 -0.179267D-01  0.773337D-01  0.530823D-01 -0.744641D-01
     23 -0.615340D-02  0.259399D+00  0.453579D-01 -0.901094D-01 -0.447598D-01
     24 -0.433593D-02  0.106840D+00 -0.457006D+00 -0.879835D-01 -0.116795D+00
     25  0.342866D-01 -0.155152D-02  0.243659D-01 -0.430509D-02 -0.855797D-03
     26  0.170123D-01 -0.231137D-01  0.121244D-01  0.724959D-02  0.527481D-02
     27  0.188035D-01 -0.131230D-02 -0.991431D-02  0.333138D-03  0.389764D-03
     28  0.354380D-02 -0.541641D-02  0.292901D-02  0.362177D-02  0.123001D-02
     29 -0.609339D-02  0.637431D-02 -0.522898D-02 -0.770804D-02 -0.393369D-02
     30  0.577064D-03 -0.100614D-02 -0.104165D-02  0.161361D-03  0.132456D-03
     31  0.127963D-02 -0.815285D-03  0.122772D-02  0.169150D-02  0.943745D-03
     32  0.337549D-02 -0.467092D-02  0.410329D-02  0.696045D-02  0.344575D-02
     33 -0.509198D-03  0.727759D-03 -0.162899D-02 -0.156976D-02 -0.909356D-03
               21            22            23            24            25 
     21  0.321489D+01
     22 -0.821515D-01  0.310128D+01
     23 -0.131767D+00  0.196712D+00  0.262403D+01
     24 -0.967996D-02  0.541354D+00 -0.114562D+01  0.196020D+01
     25 -0.233293D-03  0.246000D-01  0.164123D-02 -0.166330D-01  0.369466D+01
     26  0.645009D-03  0.162312D-01 -0.153460D-01 -0.117059D-01  0.169630D+00
     27 -0.152565D-02 -0.111374D-01  0.106516D-04 -0.801541D-02 -0.128813D-03
     28  0.277333D-03  0.207596D-02 -0.340487D-02 -0.277338D-02 -0.663244D-02
     29 -0.481068D-03 -0.498819D-02  0.450196D-02  0.543292D-02 -0.432143D-01
     30 -0.118859D-02 -0.258886D-03  0.533998D-03 -0.704180D-03 -0.171156D-02
     31  0.567644D-04  0.188991D-02 -0.527440D-03 -0.150144D-02  0.473250D-01
     32  0.391824D-03  0.385125D-02 -0.369355D-02 -0.467054D-02  0.125853D-01
     33 -0.625145D-03 -0.163123D-02  0.752993D-03  0.697324D-03 -0.109846D-01
               26            27            28            29            30 
     26  0.145003D+01
     27 -0.778576D-01  0.374450D+01
     28 -0.445855D-01 -0.209031D-02  0.383554D+01
     29  0.792614D-01  0.425147D-02  0.195171D+00  0.139719D+01
     30  0.278190D-02 -0.123163D-01 -0.521902D-01 -0.419080D-01  0.378499D+01
     31 -0.148942D-01 -0.735139D-02 -0.165933D-01  0.412009D-01 -0.171557D-02
     32 -0.345947D-01 -0.695042D-03  0.305026D-01  0.108299D+00 -0.567063D-02
     33  0.527216D-02 -0.206674D-01 -0.403066D-02 -0.134844D-01 -0.215120D-01
               31            32            33 
     31  0.475202D+01
     32  0.203666D+00  0.489126D+00
     33 -0.931951D-01  0.108459D+01  0.488499D+01
 Leave Link  701 at Sun Sep 29 05:16:43 2019, MaxMem=   671088640 cpu:              52.4 elap:              26.5
 (Enter /shared/centos7/gaussian/g16/l702.exe)
 L702 exits ... SP integral derivatives will be done elsewhere.
 Leave Link  702 at Sun Sep 29 05:16:44 2019, MaxMem=   671088640 cpu:               1.5 elap:               0.8
 (Enter /shared/centos7/gaussian/g16/l703.exe)
 Integral derivatives from FoFJK, PRISM(SPDF).
 Compute integral second derivatives, UseDBF=F ICtDFT=           0.
 ICntrl=    100147.
 Calling FoFJK, ICntrl=    100147 FMM=F ISym2X=0 I1Cent= 0 IOpClX= 0 NMat=1 NMatS=1 NMatT=0.
 FoFJK:  IHMeth= 1 ICntrl=  100147 DoSepK=F KAlg= 0 I1Cent=           0 FoldK=F
 IRaf=         0 NMat=       1 IRICut=       1 DoRegI=T DoRafI=F ISym2E= 0 IDoP0=0 IntGTp=1.
 FoFCou: FMM=F IPFlag=           0 FMFlag=      100000 FMFlg1=         800
         NFxFlg=           0 DoJE=F BraDBF=F KetDBF=F FulRan=T
         wScrn=  0.000000 ICntrl=    100147 IOpCl=  0 I1Cent=           0 NGrid=           0
         NMat0=    1 NMatS0=      1 NMatT0=    0 NMatD0=    1 NMtDS0=    0 NMtDT0=    0
 Symmetry not used in FoFCou.
 FoFCou:  KetSym=F NOpSet=  1 NOpAb=1 NOp=  1.
 FoFCou:  CnvScl= 1.00D+00 Thresh= 1.00D-08 IAcrcy=      12.
 PrismS was handed   670746879 working-precision words and  3552 shell-pairs
 FoFCou: LinMIO=F DoNuc=F BraDBF=F KetDBF=F HaveP=T PDBF=F HaveZ=T HaveW=F
         NIJTC =      10 NIJTAt=       0 NIJTCD=       0 NIJTT =      10
         IJTBeg=       1 IJTEnd=      10 KLTBeg=       1 KLTEnd=      10
         IPTBeg=       1 IPTEnd=      10 IPTBCv=       1 IPTECv=      10
         IZTBeg=       1 IZTEnd=      10 IZTBCv=       1 IZTECv=      10
         IWTBeg=      11 IWTEnd=      10 IWTBCv=      11 IWTECv=      10
         INTBeg=       1 INTEnd=       0 IFTBCv=       1 IFTECv=      10
 NCel replicated for PrismC:     1
 CoulSu-InSpLW:  IPartL=    0 NPrtUS=   20 NPrtUL=    1 DoSpLW=F IThBeg=    0 IThEnd=   19 NThAct=   20.
 CoulSu:  IncDef=  1024 NBBP=        6310128 NTPThr=   100 NPartT=   20 Incr=        1024 LDynOK=F GPUOK=T.
 CoulSu:  NPrtUS=  20 ThrOK=T IAlg=1 NPAlg=1 LenDen=           0 LWGrdD=           0 DoCopy=F ISkipM=0
          DoSpLW=F IThBeg=    0 IThEnd=   19.
 Enter PrismC:  IPart=  0 JobTyp=22 DoJE=F Cont=F.
 PrismC:  IPart=     0 DynPar=T LinDyn=F Incr=        1024 UseFst=F UseS4=T ISplat=2.
 PrismC was handed    33459258 working-precision words and  3552 shell-pairs
 Enter PrismC:  IPart= 16 JobTyp=22 DoJE=F Cont=F.
 Enter PrismC:  IPart=  2 JobTyp=22 DoJE=F Cont=F.
 Enter PrismC:  IPart=  8 JobTyp=22 DoJE=F Cont=F.
 PrismC:  IPart=    16 DynPar=T LinDyn=F Incr=        1024 UseFst=F UseS4=T ISplat=2.
 PrismC was handed    33459258 working-precision words and  3552 shell-pairs
 Enter PrismC:  IPart=  5 JobTyp=22 DoJE=F Cont=F.
 PrismC:  IPart=     5 DynPar=T LinDyn=F Incr=        1024 UseFst=F UseS4=T ISplat=2.
 PrismC was handed    33459258 working-precision words and  3552 shell-pairs
 PrismC:  IPart=     2 DynPar=T LinDyn=F Incr=        1024 UseFst=F UseS4=T ISplat=2.
 PrismC was handed    33459258 working-precision words and  3552 shell-pairs
 PrismC:  IPart=     8 DynPar=T LinDyn=F Incr=        1024 UseFst=F UseS4=T ISplat=2.
 PrismC was handed    33459258 working-precision words and  3552 shell-pairs
 Enter PrismC:  IPart=  9 JobTyp=22 DoJE=F Cont=F.
 Enter PrismC:  IPart= 10 JobTyp=22 DoJE=F Cont=F.
 PrismC:  IPart=    10 DynPar=T LinDyn=F Incr=        1024 UseFst=F UseS4=T ISplat=2.
 PrismC was handed    33459258 working-precision words and  3552 shell-pairs
 PrismC:  IPart=     9 DynPar=T LinDyn=F Incr=        1024 UseFst=F UseS4=T ISplat=2.
 PrismC was handed    33459258 working-precision words and  3552 shell-pairs
 Enter PrismC:  IPart= 19 JobTyp=22 DoJE=F Cont=F.
 PrismC:  IPart=    19 DynPar=T LinDyn=F Incr=        1024 UseFst=F UseS4=T ISplat=2.
 PrismC was handed    33459258 working-precision words and  3552 shell-pairs
 Enter PrismC:  IPart=  7 JobTyp=22 DoJE=F Cont=F.
 PrismC:  IPart=     7 DynPar=T LinDyn=F Incr=        1024 UseFst=F UseS4=T ISplat=2.
 PrismC was handed    33459258 working-precision words and  3552 shell-pairs
 Enter PrismC:  IPart=  1 JobTyp=22 DoJE=F Cont=F.
 Enter PrismC:  IPart=  4 JobTyp=22 DoJE=F Cont=F.
 PrismC:  IPart=     1 DynPar=T LinDyn=F Incr=        1024 UseFst=F UseS4=T ISplat=2.
 PrismC was handed    33459258 working-precision words and  3552 shell-pairs
 PrismC:  IPart=     4 DynPar=T LinDyn=F Incr=        1024 UseFst=F UseS4=T ISplat=2.
 PrismC was handed    33459258 working-precision words and  3552 shell-pairs
 Enter PrismC:  IPart=  3 JobTyp=22 DoJE=F Cont=F.
 PrismC:  IPart=     3 DynPar=T LinDyn=F Incr=        1024 UseFst=F UseS4=T ISplat=2.
 PrismC was handed    33459258 working-precision words and  3552 shell-pairs
 Enter PrismC:  IPart= 18 JobTyp=22 DoJE=F Cont=F.
 PrismC:  IPart=    18 DynPar=T LinDyn=F Incr=        1024 UseFst=F UseS4=T ISplat=2.
 PrismC was handed    33459258 working-precision words and  3552 shell-pairs
 Enter PrismC:  IPart= 17 JobTyp=22 DoJE=F Cont=F.
 PrismC:  IPart=    17 DynPar=T LinDyn=F Incr=        1024 UseFst=F UseS4=T ISplat=2.
 PrismC was handed    33459258 working-precision words and  3552 shell-pairs
 Enter PrismC:  IPart= 12 JobTyp=22 DoJE=F Cont=F.
 PrismC:  IPart=    12 DynPar=T LinDyn=F Incr=        1024 UseFst=F UseS4=T ISplat=2.
 PrismC was handed    33459258 working-precision words and  3552 shell-pairs
 Enter PrismC:  IPart=  6 JobTyp=22 DoJE=F Cont=F.
 PrismC:  IPart=     6 DynPar=T LinDyn=F Incr=        1024 UseFst=F UseS4=T ISplat=2.
 PrismC was handed    33459258 working-precision words and  3552 shell-pairs
 Enter PrismC:  IPart= 15 JobTyp=22 DoJE=F Cont=F.
 PrismC:  IPart=    15 DynPar=T LinDyn=F Incr=        1024 UseFst=F UseS4=T ISplat=2.
 PrismC was handed    33459258 working-precision words and  3552 shell-pairs
 Enter PrismC:  IPart= 13 JobTyp=22 DoJE=F Cont=F.
 PrismC:  IPart=    13 DynPar=T LinDyn=F Incr=        1024 UseFst=F UseS4=T ISplat=2.
 PrismC was handed    33459258 working-precision words and  3552 shell-pairs
 Enter PrismC:  IPart= 14 JobTyp=22 DoJE=F Cont=F.
 PrismC:  IPart=    14 DynPar=T LinDyn=F Incr=        1024 UseFst=F UseS4=T ISplat=2.
 PrismC was handed    33459258 working-precision words and  3552 shell-pairs
 Enter PrismC:  IPart= 11 JobTyp=22 DoJE=F Cont=F.
 PrismC:  IPart=    11 DynPar=T LinDyn=F Incr=        1024 UseFst=F UseS4=T ISplat=2.
 PrismC was handed    33459258 working-precision words and  3552 shell-pairs
 IPart= 14 NShTot=      166422 NShNF=      166422 NShFF=           0 MinMC=       7
           NShCPU=      166422 NBCPU=        7120 AvBCPU=        23.4
           NShGPU=           0 NBGPU=           0 AvBGPU=         0.0
 IPart= 12 NShTot=      325535 NShNF=      325535 NShFF=           0 MinMC=       7
           NShCPU=      325535 NBCPU=       13684 AvBCPU=        23.8
           NShGPU=           0 NBGPU=           0 AvBGPU=         0.0
 IPart= 16 NShTot=      164196 NShNF=      164196 NShFF=           0 MinMC=       7
           NShCPU=      164196 NBCPU=        6798 AvBCPU=        24.2
           NShGPU=           0 NBGPU=           0 AvBGPU=         0.0
 IPart= 17 NShTot=      162937 NShNF=      162937 NShFF=           0 MinMC=       7
           NShCPU=      162937 NBCPU=        7084 AvBCPU=        23.0
           NShGPU=           0 NBGPU=           0 AvBGPU=         0.0
 IPart= 10 NShTot=      325185 NShNF=      325185 NShFF=           0 MinMC=       7
           NShCPU=      325185 NBCPU=       13246 AvBCPU=        24.5
           NShGPU=           0 NBGPU=           0 AvBGPU=         0.0
 IPart=  9 NShTot=      165201 NShNF=      165201 NShFF=           0 MinMC=       7
           NShCPU=      165201 NBCPU=        7017 AvBCPU=        23.5
           NShGPU=           0 NBGPU=           0 AvBGPU=         0.0
 IPart=  5 NShTot=      332412 NShNF=      332412 NShFF=           0 MinMC=       7
           NShCPU=      332412 NBCPU=       13482 AvBCPU=        24.7
           NShGPU=           0 NBGPU=           0 AvBGPU=         0.0
 IPart=  2 NShTot=      157399 NShNF=      157399 NShFF=           0 MinMC=       7
           NShCPU=      157399 NBCPU=        7294 AvBCPU=        21.6
           NShGPU=           0 NBGPU=           0 AvBGPU=         0.0
 IPart=  1 NShTot=      160382 NShNF=      160382 NShFF=           0 MinMC=       7
           NShCPU=      160382 NBCPU=        6860 AvBCPU=        23.4
           NShGPU=           0 NBGPU=           0 AvBGPU=         0.0
 IPart=  7 NShTot=      170027 NShNF=      170027 NShFF=           0 MinMC=       7
           NShCPU=      170027 NBCPU=        6839 AvBCPU=        24.9
           NShGPU=           0 NBGPU=           0 AvBGPU=         0.0
 IPart=  3 NShTot=      328059 NShNF=      328059 NShFF=           0 MinMC=       7
           NShCPU=      328059 NBCPU=       13796 AvBCPU=        23.8
           NShGPU=           0 NBGPU=           0 AvBGPU=         0.0
 IPart=  0 NShTot=      170341 NShNF=      170341 NShFF=           0 MinMC=       7
           NShCPU=      170341 NBCPU=        7407 AvBCPU=        23.0
           NShGPU=           0 NBGPU=           0 AvBGPU=         0.0
 IPart=  6 NShTot=      171595 NShNF=      171595 NShFF=           0 MinMC=       7
           NShCPU=      171595 NBCPU=        7183 AvBCPU=        23.9
           NShGPU=           0 NBGPU=           0 AvBGPU=         0.0
 IPart=  8 NShTot=      170453 NShNF=      170453 NShFF=           0 MinMC=       7
           NShCPU=      170453 NBCPU=        7074 AvBCPU=        24.1
           NShGPU=           0 NBGPU=           0 AvBGPU=         0.0
 IPart= 13 NShTot=      164349 NShNF=      164349 NShFF=           0 MinMC=       7
           NShCPU=      164349 NBCPU=        6740 AvBCPU=        24.4
           NShGPU=           0 NBGPU=           0 AvBGPU=         0.0
 IPart= 18 NShTot=      156703 NShNF=      156703 NShFF=           0 MinMC=       7
           NShCPU=      156703 NBCPU=        6911 AvBCPU=        22.7
           NShGPU=           0 NBGPU=           0 AvBGPU=         0.0
 IPart= 15 NShTot=      168453 NShNF=      168453 NShFF=           0 MinMC=       7
           NShCPU=      168453 NBCPU=        6944 AvBCPU=        24.3
           NShGPU=           0 NBGPU=           0 AvBGPU=         0.0
 IPart= 19 NShTot=      330873 NShNF=      330873 NShFF=           0 MinMC=       7
           NShCPU=      330873 NBCPU=       13669 AvBCPU=        24.2
           NShGPU=           0 NBGPU=           0 AvBGPU=         0.0
 IPart= 11 NShTot=      165182 NShNF=      165182 NShFF=           0 MinMC=       7
           NShCPU=      165182 NBCPU=        6693 AvBCPU=        24.7
           NShGPU=           0 NBGPU=           0 AvBGPU=         0.0
 IPart=  4 NShTot=      159998 NShNF=      159998 NShFF=           0 MinMC=       7
           NShCPU=      159998 NBCPU=        6743 AvBCPU=        23.7
           NShGPU=           0 NBGPU=           0 AvBGPU=         0.0
 CoulSu:  NxtVal=        6740993 LenVP=       33459259 MinMC=       7.
 ReadGW:  IGet=0 IStart=           1 Next=           1 LGW=           0.
 Remaining memory in FofDFT      639.93 Mw
 CkSvGd:  ISavGI=        -1 IRadAn=       5 IRASav=       5 ISavGd=        -1.
 CalDSu-InSpLW:  IPartL=    0 NPrtUS=   20 NPrtUL=    1 DoSpLW=F IThBeg=    0 IThEnd=   19 NThAct=   20.
 CalDSu:  NPrtUS=  20 ThrOK=T IAlg=1 NPAlg=2 DoDPD=T LenP=       35245 LenD1P=             0 GPUOK=F
          ISkipM=0 DoSpLW=F IThBeg=    0 IThEnd=   19.
 IPart=  0 IRanGd=          0 ScrnBf=T ScrnGd=T RCrit=4.00D+00 DoMicB=T.
 IPart= 19        20771 of        23148 points in      24 batches and      114 microbatches, Max-NSigAt=      11 Max-NSgAt2=      11
 IPart=  1         8797 of         9676 points in      10 batches and       44 microbatches, Max-NSigAt=      11 Max-NSgAt2=      11
 IPart= 12        20285 of        22194 points in      23 batches and      117 microbatches, Max-NSigAt=      11 Max-NSgAt2=      11
 IPart=  3        18805 of        20128 points in      20 batches and      122 microbatches, Max-NSigAt=      11 Max-NSgAt2=      11
 IPart= 15        18130 of        19970 points in      22 batches and      172 microbatches, Max-NSigAt=      11 Max-NSgAt2=      11
 IPart= 14         8616 of         9248 points in       9 batches and       38 microbatches, Max-NSigAt=      11 Max-NSgAt2=      11
 IPart=  0         8681 of         9288 points in       9 batches and       58 microbatches, Max-NSigAt=      11 Max-NSgAt2=      11
 IPart= 13        10007 of        10636 points in      11 batches and       48 microbatches, Max-NSigAt=      11 Max-NSgAt2=      11
 IPart= 16        10497 of        11758 points in      12 batches and       54 microbatches, Max-NSigAt=      11 Max-NSgAt2=      11
 IPart=  8         8843 of         9508 points in      10 batches and       60 microbatches, Max-NSigAt=      11 Max-NSgAt2=      11
 IPart= 11         8342 of         9144 points in      10 batches and       56 microbatches, Max-NSigAt=      11 Max-NSgAt2=      11
 IPart= 18         8691 of         9496 points in      10 batches and       64 microbatches, Max-NSigAt=      11 Max-NSgAt2=      11
 IPart= 10         7963 of         8920 points in      10 batches and       81 microbatches, Max-NSigAt=      11 Max-NSgAt2=      11
 IPart=  4         9930 of        10712 points in      11 batches and       44 microbatches, Max-NSigAt=      11 Max-NSgAt2=      11
 IPart=  9         9121 of         9896 points in      10 batches and       66 microbatches, Max-NSigAt=      11 Max-NSgAt2=      11
 IPart= 17        11460 of        13190 points in      15 batches and       43 microbatches, Max-NSigAt=      11 Max-NSgAt2=      11
 IPart=  2         9471 of        10408 points in      11 batches and       33 microbatches, Max-NSigAt=      11 Max-NSgAt2=      11
 IPart=  5         9043 of         9480 points in       9 batches and       45 microbatches, Max-NSigAt=      11 Max-NSgAt2=      11
 IPart=  6         8596 of         9520 points in      10 batches and       69 microbatches, Max-NSigAt=      11 Max-NSgAt2=      11
 IPart=  7         9467 of        10382 points in      10 batches and       36 microbatches, Max-NSigAt=      11 Max-NSgAt2=      11
 Polarizability after L703:
                1             2             3 
      1  0.000000D+00
      2  0.000000D+00  0.000000D+00
      3  0.000000D+00  0.000000D+00  0.000000D+00
 Dipole Derivatives after L703:
                 1             2             3             4             5 
      1  -0.200147D+00  0.925790D-01  0.180248D-02  0.288062D+00 -0.108074D+01
      2  -0.275227D-03 -0.824628D-01  0.393226D-02  0.469626D-02 -0.104181D+01
      3  -0.156143D-02  0.389963D-02 -0.251040D+00  0.164410D-01  0.140660D+00
                 6             7             8             9            10 
      1   0.275574D+00 -0.131544D+01  0.286606D+00 -0.460253D-02 -0.434862D+00
      2   0.152296D+00  0.738452D-01 -0.800204D+00  0.616698D-02 -0.803733D-01
      3  -0.428917D+00  0.408928D-02 -0.110945D-02 -0.800172D+00 -0.263196D-01
                11            12            13            14            15 
      1   0.871974D-02 -0.689532D-01 -0.415043D+00  0.401115D+00  0.732919D-01
      2  -0.630230D+00 -0.285140D-01  0.150793D+00 -0.600040D+00 -0.192859D-01
      3  -0.344613D-01  0.413224D-01  0.185338D-01 -0.657016D-01  0.718789D-01
                16            17            18            19            20 
      1   0.140881D+00 -0.545337D+00  0.458598D+00  0.114425D+01  0.786150D+00
      2  -0.285639D-01  0.324984D+00 -0.236581D+00  0.141229D+00  0.270978D+00
      3  -0.226865D-01 -0.214659D+00  0.370480D+00  0.372456D-01  0.387116D-01
                21            22            23            24            25 
      1   0.107801D+00  0.239603D+00 -0.467882D+00 -0.557117D+00  0.107161D+00
      2   0.270195D-01 -0.583346D-01  0.261595D+00  0.203925D+00 -0.688795D-01
      3   0.102303D+00 -0.174763D-01  0.175894D+00  0.455146D+00 -0.675928D-02
                26            27            28            29            30 
      1  -0.357356D-01 -0.461795D-02  0.218194D+00 -0.574455D+00 -0.101873D-01
      2   0.625755D+00  0.266159D-01 -0.926978D-01  0.818576D+00  0.134140D-01
      3   0.336237D-01  0.400878D-01 -0.155132D-01  0.339080D-01  0.956860D-01
                31            32            33 
      1   0.227342D+00  0.112898D+01 -0.271590D+00
      2  -0.414394D-01  0.852855D+00 -0.148989D+00
      3   0.140066D-01 -0.110766D+00  0.303225D+00
 Hessian after L703:
                1             2             3             4             5 
      1  0.513664D+00
      2 -0.412916D-02  0.318117D+00
      3  0.237656D-02  0.948598D-02  0.640462D-01
      4 -0.224164D-01 -0.204345D-02 -0.800401D-03  0.396819D+00
      5 -0.868053D-02 -0.552633D-02 -0.903121D-04  0.592046D-01  0.465413D+00
      6 -0.205454D-02 -0.179335D-02  0.864369D-02  0.210160D-01 -0.830558D-01
      7 -0.167137D+00  0.465721D-01  0.115119D-02  0.654373D-02  0.413155D-02
      8  0.881981D-01 -0.142851D+00 -0.296563D-02 -0.684562D-02 -0.207898D-02
      9  0.430654D-02 -0.451552D-02 -0.575216D-01 -0.421631D-04 -0.184821D-03
     10 -0.220910D+00 -0.543129D-01 -0.393881D-02 -0.383525D-01  0.972500D-02
     11 -0.965220D-01 -0.157917D+00 -0.527462D-02 -0.197866D-01  0.198617D-01
     12 -0.482760D-02 -0.558063D-02 -0.337700D-01 -0.482566D-03  0.870965D-05
     13 -0.365581D-01  0.104833D-01  0.148744D-02 -0.270447D+00 -0.101067D+00
     14 -0.220083D-01  0.242430D-01  0.679639D-03 -0.574075D-01 -0.143139D+00
     15 -0.911854D-04  0.148423D-02  0.622438D-02 -0.105885D-01  0.199015D-02
     16 -0.129501D-01  0.258018D-01 -0.211834D-01 -0.742290D-04 -0.498055D-04
     17  0.132504D-01 -0.170743D-01  0.133958D-01  0.116024D-02  0.613815D-03
     18 -0.505886D-02  0.412014D-03  0.673198D-02 -0.649601D-03 -0.336159D-03
     19 -0.318994D-01 -0.137150D-01 -0.202365D-02 -0.116072D-02 -0.986486D-04
     20  0.208294D-01  0.130629D-01  0.201191D-02  0.381064D-03 -0.160008D-03
     21  0.309847D-03  0.812977D-03  0.868780D-03  0.435458D-04  0.213058D-04
     22 -0.160129D-01  0.232592D-01  0.248815D-01 -0.278667D-03 -0.115457D-03
     23  0.139225D-01 -0.136910D-01 -0.157026D-01  0.111635D-02  0.560752D-03
     24  0.417028D-02 -0.865058D-03  0.789375D-02  0.621577D-03  0.322731D-03
     25 -0.818570D-02 -0.319038D-01 -0.169554D-02  0.322464D-02  0.887366D-03
     26 -0.711277D-02 -0.188889D-01 -0.723394D-03 -0.169390D-04  0.260586D-02
     27 -0.555421D-03 -0.634873D-03  0.216603D-02 -0.496142D-03 -0.853788D-03
     28  0.249086D-02 -0.476219D-03 -0.952196D-05 -0.203044D-02 -0.371597D-01
     29 -0.931232D-03  0.316737D-03  0.906908D-04 -0.559366D-02 -0.159173D-01
     30  0.592791D-03  0.563721D-03 -0.486847D-02  0.125046D-02  0.871886D-03
     31 -0.858746D-04  0.464194D-03 -0.245268D-03 -0.718274D-01  0.732222D-01
     32  0.318369D-02  0.209564D-03 -0.907518D-03  0.298315D-01 -0.322234D+00
     33  0.831577D-03  0.630511D-03 -0.414776D-03 -0.987219D-02  0.813061D-01
                6             7             8             9            10 
      6  0.736875D-01
      7  0.709830D-03  0.485612D+00
      8 -0.513838D-03  0.445639D-01  0.514291D+00
      9  0.283176D-02 -0.524317D-02  0.367928D-01  0.552078D+00
     10  0.166623D-02 -0.536193D-01 -0.188264D-01 -0.277893D-02  0.842648D+00
     11  0.299912D-02  0.106403D-01  0.149525D-01  0.576982D-03 -0.189758D+00
     12  0.469169D-02 -0.646559D-03  0.763318D-03 -0.606190D-02 -0.566701D-02
     13 -0.556015D-03 -0.426548D-02  0.239475D-03  0.322932D-03 -0.479709D+00
     14  0.866954D-02 -0.377491D-02 -0.351300D-02  0.137774D-03  0.215685D+00
     15 -0.385035D-01 -0.510894D-03  0.111558D-03 -0.155784D-02  0.842271D-02
     16  0.559282D-03 -0.561988D-01 -0.114709D-01  0.963495D-02  0.533292D-02
     17  0.239978D-04 -0.610781D-02 -0.128681D+00  0.904994D-01 -0.345508D-02
     18 -0.125331D-03  0.695825D-02  0.912903D-01 -0.175394D+00  0.854829D-03
[...]
 Linear search not attempted -- first point.
 Iteration  1 RMS(Cart)=  0.00006001 RMS(Int)=  0.00000000
 Iteration  2 RMS(Cart)=  0.00000000 RMS(Int)=  0.00000000
 ITry= 1 IFail=0 DXMaxC= 1.67D-04 DCOld= 1.00D+10 DXMaxT= 3.00D-01 DXLimC= 3.00D+00 Rises=F
 Variable       Old X    -DE/DX   Delta X   Delta X   Delta X     New X
                                 (Linear)    (Quad)   (Total)
    R1        2.66967  -0.00000   0.00000   0.00000   0.00000   2.66967
    R2        2.58409   0.00000   0.00000   0.00000   0.00000   2.58409
    R3        2.57255  -0.00000   0.00000  -0.00000  -0.00000   2.57255
    R4        1.81729  -0.00000   0.00000  -0.00000  -0.00000   1.81729
    R5        2.06548   0.00000   0.00000   0.00000   0.00000   2.06548
    R6        2.05367   0.00000   0.00000   0.00000   0.00000   2.05367
    R7        2.06849  -0.00000   0.00000   0.00000   0.00000   2.06849
    R8        2.50350   0.00000   0.00000   0.00000   0.00000   2.50350
    R9        2.05853  -0.00000   0.00000  -0.00000  -0.00000   2.05853
   R10        2.04186  -0.00000   0.00000   0.00000   0.00000   2.04186
    A1        1.97247   0.00000   0.00000  -0.00000  -0.00000   1.97247
    A2        1.91328  -0.00000   0.00000   0.00000   0.00000   1.91328
    A3        1.93602   0.00000   0.00000  -0.00000  -0.00000   1.93602
    A4        1.87134   0.00000   0.00000  -0.00000  -0.00000   1.87134
    A5        1.93549  -0.00000   0.00000   0.00000   0.00000   1.93549
    A6        1.91438  -0.00000   0.00000  -0.00000  -0.00000   1.91438
    A7        1.90058  -0.00000   0.00000   0.00000   0.00000   1.90058
    A8        1.90571   0.00000   0.00000   0.00000   0.00000   1.90571
    A9        2.11248   0.00000   0.00000  -0.00000  -0.00000   2.11248
   A10        2.03047   0.00000   0.00000   0.00000   0.00000   2.03047
   A11        2.13941  -0.00000   0.00000  -0.00000  -0.00000   2.13941
   A12        2.19770   0.00000   0.00000   0.00000   0.00000   2.19770
   A13        1.96888  -0.00000   0.00000  -0.00000  -0.00000   1.96888
   A14        2.11635  -0.00000   0.00000  -0.00000  -0.00000   2.11635
    D1        1.10543  -0.00000   0.00000  -0.00012  -0.00012   1.10531
    D2       -3.08787  -0.00000   0.00000  -0.00012  -0.00012  -3.08799
    D3       -1.00882  -0.00000   0.00000  -0.00012  -0.00012  -1.00893
    D4       -2.27488   0.00000   0.00000   0.00005   0.00005  -2.27482
    D5        0.90912   0.00000   0.00000   0.00005   0.00005   0.90917
    D6        0.00006  -0.00000   0.00000  -0.00005  -0.00005   0.00001
    D7       -3.11723  -0.00000   0.00000  -0.00004  -0.00004  -3.11727
    D8       -3.06124  -0.00000   0.00000  -0.00001  -0.00001  -3.06125
    D9        0.05415  -0.00000   0.00000  -0.00001  -0.00001   0.05414
   D10        0.03525  -0.00000   0.00000  -0.00001  -0.00001   0.03525
   D11       -3.13255  -0.00000   0.00000  -0.00001  -0.00001  -3.13255
         Item               Value     Threshold  Converged?
 Maximum Force            0.000001     0.000015     YES
 RMS     Force            0.000000     0.000010     YES
 Maximum Displacement     0.000167     0.000060     NO 
 RMS     Displacement     0.000060     0.000040     NO 
 Predicted change in Energy=-1.312048D-10
                           ----------------------------
                           ! Non-Optimized Parameters !
                           ! (Angstroms and Degrees)  !
 --------------------------                            --------------------------
 ! Name  Definition              Value          Derivative Info.                !
 --------------------------------------------------------------------------------
 ! R1    R(1,3)                  1.4127         -DE/DX =    0.0                 !
 ! R2    R(1,4)                  1.3674         -DE/DX =    0.0                 !
 ! R3    R(2,5)                  1.3613         -DE/DX =    0.0                 !
 ! R4    R(2,11)                 0.9617         -DE/DX =    0.0                 !
 ! R5    R(3,6)                  1.093          -DE/DX =    0.0                 !
 ! R6    R(3,7)                  1.0868         -DE/DX =    0.0                 !
 ! R7    R(3,8)                  1.0946         -DE/DX =    0.0                 !
 ! R8    R(4,5)                  1.3248         -DE/DX =    0.0                 !
 ! R9    R(4,9)                  1.0893         -DE/DX =    0.0                 !
 ! R10   R(5,10)                 1.0805         -DE/DX =    0.0                 !
 ! A1    A(3,1,4)              113.0141         -DE/DX =    0.0                 !
 ! A2    A(5,2,11)             109.6227         -DE/DX =    0.0                 !
 ! A3    A(1,3,6)              110.9258         -DE/DX =    0.0                 !
 ! A4    A(1,3,7)              107.2199         -DE/DX =    0.0                 !
 ! A5    A(1,3,8)              110.8952         -DE/DX =    0.0                 !
 ! A6    A(6,3,7)              109.686          -DE/DX =    0.0                 !
 ! A7    A(6,3,8)              108.8952         -DE/DX =    0.0                 !
 ! A8    A(7,3,8)              109.189          -DE/DX =    0.0                 !
 ! A9    A(1,4,5)              121.0364         -DE/DX =    0.0                 !
 ! A10   A(1,4,9)              116.3376         -DE/DX =    0.0                 !
 ! A11   A(5,4,9)              122.579          -DE/DX =    0.0                 !
 ! A12   A(2,5,4)              125.9188         -DE/DX =    0.0                 !
 ! A13   A(2,5,10)             112.8087         -DE/DX =    0.0                 !
 ! A14   A(4,5,10)             121.2577         -DE/DX =    0.0                 !
 ! D1    D(4,1,3,6)             63.3297         -DE/DX =    0.0                 !
 ! D2    D(4,1,3,7)           -176.9287         -DE/DX =    0.0                 !
 ! D3    D(4,1,3,8)            -57.8077         -DE/DX =    0.0                 !
 ! D4    D(3,1,4,5)           -130.3378         -DE/DX =    0.0                 !
 ! D5    D(3,1,4,9)             52.0915         -DE/DX =    0.0                 !
 ! D6    D(11,2,5,4)             0.0008         -DE/DX =    0.0                 !
 ! D7    D(11,2,5,10)         -178.6066         -DE/DX =    0.0                 !
 ! D8    D(1,4,5,2)           -175.3965         -DE/DX =    0.0                 !
 ! D9    D(1,4,5,10)             3.1018         -DE/DX =    0.0                 !
 ! D10   D(9,4,5,2)              2.0196         -DE/DX =    0.0                 !
 ! D11   D(9,4,5,10)          -179.482          -DE/DX =    0.0                 !
 --------------------------------------------------------------------------------
 GradGradGradGradGradGradGradGradGradGradGradGradGradGradGradGradGradGrad

 Leave Link  103 at Sun Sep 29 07:27:35 2019, MaxMem=   671088640 cpu:             110.5 elap:              55.8
 (Enter /shared/centos7/gaussian/g16/l9999.exe)

 ----------------------------------------------------------------------

 Electric dipole moment (input orientation):
 (Debye = 10**-18 statcoulomb cm , SI units = C m)
                  (au)            (Debye)         (10**-30 SI)
   Tot        0.850866D+00      0.216269D+01      0.721394D+01
   x         -0.750052D+00     -0.190644D+01     -0.635920D+01
   y          0.291623D+00      0.741232D+00      0.247248D+01
   z         -0.276318D+00     -0.702330D+00     -0.234272D+01

 Dipole polarizability, Alpha (input orientation).
 (esu units = cm**3 , SI units = C**2 m**2 J**-1)
 Alpha(0;0):
               (au)            (10**-24 esu)      (10**-40 SI)
   iso        0.451720D+02      0.669380D+01      0.744785D+01
   aniso      0.264876D+02      0.392506D+01      0.436722D+01
   xx         0.566376D+02      0.839283D+01      0.933828D+01
   yx         0.881928D+01      0.130688D+01      0.145410D+01
   yy         0.465774D+02      0.690205D+01      0.767957D+01
   zx        -0.246693D+01     -0.365561D+00     -0.406742D+00
   zy        -0.670747D+00     -0.993944D-01     -0.110591D+00
   zz         0.323010D+02      0.478651D+01      0.532571D+01

 ----------------------------------------------------------------------

 Dipole orientation:
     8         -2.70330111         -0.02051655         -1.40672082
     8          1.70980010         -4.93875052         -3.23514337
     6         -2.52524054          1.52787336          0.76075314
     6         -1.24193204         -2.14612267         -1.25264664
     6          0.30161037         -2.78915406         -3.11583619
     1         -0.60381237          2.24790256          0.99716535
     1         -3.82410318          3.09640769          0.49577019
     1         -3.06211847          0.48050012          2.46175553
     1         -1.48179951         -3.29892089          0.43586905
     1          0.52030565         -1.60700432         -4.76625698
     1          1.41933921         -5.94194208         -1.74793735

 Electric dipole moment (dipole orientation):
 (Debye = 10**-18 statcoulomb cm , SI units = C m)
                  (au)            (Debye)         (10**-30 SI)
   Tot        0.850866D+00      0.216269D+01      0.721394D+01
   x          0.000000D+00      0.000000D+00      0.000000D+00
   y          0.000000D+00      0.000000D+00      0.000000D+00
   z          0.850866D+00      0.216269D+01      0.721394D+01

 Dipole polarizability, Alpha (dipole orientation).
 (esu units = cm**3 , SI units = C**2 m**2 J**-1)
 Alpha(0;0):
               (au)            (10**-24 esu)      (10**-40 SI)
   iso        0.451720D+02      0.669380D+01      0.744785D+01
   aniso      0.264876D+02      0.392506D+01      0.436722D+01
   xx         0.409339D+02      0.606579D+01      0.674910D+01
   yx        -0.967616D+01     -0.143386D+01     -0.159538D+01
   yy         0.482850D+02      0.715509D+01      0.796111D+01
   zx        -0.961009D+01     -0.142407D+01     -0.158449D+01
   zy         0.578136D+01      0.856709D+00      0.953217D+00
   zz         0.462970D+02      0.686051D+01      0.763335D+01

 ----------------------------------------------------------------------

 Test job not archived.
 1\1\GINC-C0237\Freq\RM062X\CC-pVTZ\C3H6O2\HARMS.N\29-Sep-2019\0\\#P Ge
 om=AllCheck Guess=TCheck SCRF=Check Test GenChk RM062X/CC-pVTZ Freq\\G
 aussian input prepared by ASE\\0,1\O,0.0672702923,-0.5714923164,1.5064
 959594\O,2.4792211127,2.0013277569,0.654109025\C,-1.0917229975,-0.9036
 082237,0.7701253305\C,0.5716382041,0.657900948,1.1838400985\C,1.856065
 756,0.816365862,0.9006262597\H,-0.8685447349,-0.9760771512,-0.29739643
 43\H,-1.4415713959,-1.8648545269,1.1370704913\H,-1.8762538041,-0.15479
 39706,0.918210538\H,-0.1293665375,1.4911372249,1.2146431134\H,2.531125
 837,-0.0266712744,0.8678295531\H,1.8429989069,2.7197984674,0.715973848
 \\Version=EM64L-G16RevA.03\State=1-A\HF=-268.3171465\RMSD=3.197e-09\RM
 SF=2.027e-06\ZeroPoint=0.0903548\Thermal=0.0964586\Dipole=-0.7500517,0
 .2916232,-0.2763181\DipoleDeriv=-1.0379831,-0.356222,-0.077394,-0.6897
 461,-0.950592,0.0518951,0.0018116,0.0551968,-0.4371904,-0.6283423,-0.3
 320942,0.0438331,-0.8366012,-1.0469307,0.1772226,0.1274334,0.1222197,-
 0.3856254,0.8180108,0.2225265,0.1343404,0.072024,0.346171,0.0790666,0.
 2578145,0.1732312,0.4408545,0.192575,-0.0027764,-0.1297316,0.5941654,0
 .7424593,-0.1211582,-0.2683417,-0.1827106,-0.1441659,0.5539625,0.29856
 3,-0.1109512,0.6860186,0.8153391,-0.2265644,-0.197783,-0.1461803,-0.03
 36346,-0.0201185,-0.0182844,0.0801568,0.0093038,0.0487789,0.0046268,-0
 .0560816,-0.0733065,-0.1464823,0.0046142,-0.0574745,-0.0062718,-0.0957
 344,-0.081341,0.0376412,0.0107167,0.061779,0.0439714,-0.0953228,0.0312
 771,-0.0075625,0.1454337,-0.0647218,-0.0247452,0.004529,-0.0664376,0.0
 248631,-0.001623,0.0957808,0.0262703,0.0131153,-0.1141927,0.0128327,0.
 079943,0.0502853,0.1514429,0.0566092,0.0386164,0.0204333,0.0200428,-0.
 0158396,0.0153803,0.0146974,0.0194132,0.166362,0.1576181,0.0800877,0.0
 268772,0.0819782,0.3208696,-0.0061975,0.0252606,-0.0134904,0.3196046\P
 olar=56.6376067,8.8192839,46.5773738,-2.4669303,-0.6707469,32.3009726\
 Quadrupole=-0.4376922,2.7355215,-2.2978294,-0.850397,0.7399895,0.98583
 16\PG=C01 [X(C3H6O2)]\NImag=0\\0.37315572,0.15976325,0.40769125,0.1055
 2646,-0.05988477,0.19557862,-0.01057553,-0.00696242,0.00408189,0.42888
 686,-0.01220686,-0.01146818,0.00500617,-0.11300861,0.62121051,0.003935
 29,0.00017311,0.01365172,-0.07263291,-0.03442896,0.04766393,-0.1865287
 9,-0.03859875,-0.07599227,0.00375080,0.00686345,0.00030528,0.51148311,
 -0.01436968,-0.08611979,0.00094644,-0.00018830,0.00016916,0.00254617,-
 0.00064029,0.61244015,-0.09342262,-0.01934466,-0.12136985,0.00294220,0
 .00268202,-0.00079588,-0.04512139,-0.02992972,0.55365478,-0.11833414,-
 0.05977579,0.00505221,-0.01239293,-0.01421531,0.00667846,-0.02781699,-
 0.04284790,0.00840194,0.88957829,-0.08460571,-0.27086549,0.05255431,-0
 .04375486,-0.00668651,0.01103459,-0.02326091,-0.02518565,-0.00367552,0
 .01277366,0.60686982,0.02325059,0.07607330,-0.06618414,0.00675016,0.00
 164149,0.00138777,-0.00486815,-0.01789406,0.00358215,-0.13395430,-0.06
 694415,0.16104435,-0.01018554,-0.01225036,0.00482875,-0.15888848,-0.11
 317064,0.03420490,-0.00011516,0.00190601,0.00004591,-0.54558181,-0.023
 77528,0.10218954,0.89555124,-0.04265349,-0.00638008,0.00745276,-0.0661
 6594,-0.27867286,0.03729823,-0.00292777,-0.00228685,0.00382719,-0.0238
 2936,-0.12445308,0.01543064,-0.01900740,0.66865293,0.01239592,0.008478
 04,-0.00432871,0.03191093,0.04724064,-0.04917719,-0.00280232,-0.002119
 91,0.00013085,0.09789749,0.01107438,-0.07253214,-0.15093455,-0.0567939
 8,0.16103139,-0.00395625,-0.00893207,-0.03960234,-0.00006528,-0.000156
 36,0.00009393,-0.06656624,0.00405067,0.06848162,0.00399649,0.00444145,
 -0.00240640,-0.00062805,0.00045000,0.00099376,0.07257437,-0.00443714,-
 0.00000314,-0.01014216,0.00028802,0.00046249,0.00008005,0.00416012,-0.
 05502570,-0.01188912,0.00244090,0.00197520,-0.00204319,-0.00077671,-0.
 00017233,0.00055036,-0.00201938,0.04979026,-0.01172923,-0.00598393,-0.
 02119432,-0.00080557,-0.00127815,-0.00002098,0.06241040,-0.01429474,-0
 .28874325,0.00119841,0.00374193,0.00104890,0.00004566,-0.00014343,0.00
 040291,-0.05752161,0.01878233,0.32056764,-0.01720750,-0.03254269,0.006
 29749,-0.00077224,-0.00081425,0.00075465,-0.07133964,-0.06453306,0.027
 69952,-0.00449242,0.00104133,-0.00293791,0.00076807,-0.00099926,-0.000
 45173,-0.00132388,-0.00673510,0.00368813,0.08520781,-0.00573926,-0.007
 25688,0.00030633,-0.00040234,-0.00064454,0.00029183,-0.07399676,-0.266
 02691,0.08492055,-0.00175386,0.00174260,-0.00129914,0.00036738,0.00017
 906,-0.00040383,0.00213070,0.00414647,-0.00088829,0.08543439,0.2851335
 8,-0.01049112,-0.02149619,0.00578857,-0.00027696,-0.00007802,0.0003197
 6,0.03394592,0.09347872,-0.08771763,-0.00292082,-0.00062750,-0.0005146
 6,-0.00039966,-0.00091734,0.00026358,0.00819855,0.02773403,-0.00835306
 ,-0.02652338,-0.09167431,0.08803874,-0.03660058,0.01103307,-0.00761643
 ,-0.00041465,-0.00058014,-0.00004653,-0.16668219,0.11933350,0.03050048
 ,0.00213767,0.00711831,-0.00091658,-0.00004254,-0.00092386,0.00036879,
 -0.00356231,0.00679321,0.00269803,0.00910977,-0.00617227,-0.00158582,0
 .19573483,-0.00793855,0.00869748,0.00272102,0.00013781,0.00021397,-0.0
 0027106,0.12387553,-0.17970657,-0.02874185,-0.00227544,0.00394861,-0.0
 0004738,-0.00012011,-0.00016048,0.00015345,0.00045490,-0.00081376,0.00
 049804,0.01954068,-0.01768472,-0.00631582,-0.13516475,0.18520169,-0.02
 357652,0.01175017,0.00158571,-0.00019572,-0.00020182,-0.00007408,0.032
 42089,-0.03156097,-0.05897152,0.00105955,0.00279156,-0.00040962,-0.000
 08521,-0.00029465,-0.00003154,0.02172803,-0.02273408,-0.00342964,-0.00
 835924,0.00858962,0.00248887,-0.02360305,0.03196946,0.05862709,0.00916
 897,-0.01227733,-0.00091169,0.00242813,0.00100071,-0.00139422,0.004207
 86,-0.00213009,0.00061347,-0.17717490,0.12996419,0.01154752,-0.0128799
 0,0.02539212,0.00121708,-0.00045112,0.00026651,0.00002709,0.00013109,0
 .00014505,0.00010937,0.00011281,0.00152912,0.00052815,0.17941875,0.010
 11059,-0.03695923,0.00211904,0.00011171,0.00376830,-0.00085087,0.00560
 929,0.00166597,0.00286078,0.13136918,-0.19613760,-0.00565222,-0.003900
 84,0.00281171,0.00111381,-0.00047375,-0.00030160,-0.00055263,-0.000564
 65,0.00030451,-0.00016885,-0.00151388,0.00051920,-0.00031405,-0.141197
 59,0.22426090,-0.00476063,0.01154611,0.00371002,-0.00112554,0.00030266
 ,-0.00496246,-0.00021488,-0.00064055,-0.00008146,0.01172094,-0.0068066
 1,-0.03648959,0.00531299,-0.00592346,0.00643389,0.00026720,-0.00018402
 ,-0.00023092,0.00004820,0.00016190,-0.00016201,0.00029859,-0.00021750,
 0.00016473,-0.01425801,0.00024954,0.02382904,0.00279040,0.00015310,-0.
 00205065,0.01344331,-0.01661195,-0.00047803,-0.00056975,-0.00030577,-0
 .00001092,-0.01179452,0.02520798,0.00112892,-0.18144049,0.14823255,0.0
 1070419,-0.00003697,-0.00000595,0.00004749,-0.00002624,-0.00002411,-0.
 00005372,0.00028112,0.00000500,0.00006093,-0.00414073,-0.00115608,0.00
 258765,0.18175762,0.00030386,0.00076823,-0.00083375,0.01531217,-0.0303
 5225,0.00045417,-0.00020472,0.00005642,-0.00011996,-0.00231196,0.00564
 900,0.00115714,0.14257083,-0.21999789,-0.00752200,0.00001360,0.0000018
 6,-0.00001170,-0.00000079,-0.00000085,0.00001683,0.00000031,-0.0001340
 0,-0.00003287,-0.00135785,0.00022212,0.00126957,-0.15120437,0.24668323
 ,-0.00091378,-0.00144062,-0.00599781,-0.00402417,0.00586943,0.00185709
 ,-0.00014834,-0.00034730,-0.00001538,0.00549242,-0.00353662,0.00907285
 ,0.01017808,-0.00793197,-0.04204485,-0.00025389,-0.00009159,0.00002451
 ,-0.00015069,0.00002815,-0.00009896,-0.00010781,0.00023503,0.00003336,
 0.00219610,0.00157782,0.00768497,-0.01301292,0.00414635,0.02681905,-0.
 00172676,0.00038999,0.00038658,-0.26540000,0.26289996,0.02857918,0.000
 17700,-0.00027509,-0.00013022,0.00187525,-0.00515014,0.00021661,0.0134
 4264,-0.01756760,-0.00129956,0.00001922,0.00002553,-0.00005882,-0.0000
 5482,0.00001108,-0.00000234,-0.00007394,-0.00004418,0.00002219,-0.0008
 2096,0.00160602,0.00012348,-0.00026374,-0.00312107,0.00074499,0.252826
 10,0.00177299,0.00189583,-0.00024540,0.21463277,-0.29800009,-0.0163272
 6,-0.00087919,0.00001976,-0.00058970,0.00042588,0.00314311,-0.00042243
 ,0.02815711,-0.03952014,-0.00177097,0.00004024,-0.00005975,0.00013058,
 0.00017342,0.00010767,0.00004844,0.00007651,-0.00008142,0.00003762,-0.
 00133483,-0.00015428,0.00024236,-0.00429040,-0.00289589,0.00149132,-0.
 23877448,0.33554521,-0.00021436,0.00012944,-0.00123979,0.03337570,-0.0
 2675545,-0.00984967,0.00006487,-0.00018410,0.00032720,-0.00062632,0.00
 039362,-0.00000587,-0.00538642,0.00799600,-0.00014819,0.00002114,-0.00
 006261,-0.00007178,-0.00006504,-0.00003281,-0.00005318,0.00001033,0.00
 001661,0.00001664,0.00032515,-0.00038235,0.00010380,0.00107705,0.00147
 622,0.00266516,-0.02858209,0.01740544,0.00825568\\0.00000214,-0.000002
 10,-0.00000228,0.00000025,-0.00000040,-0.00000096,-0.00000112,0.000000
 94,0.00000050,0.00000048,-0.00000063,0.00000079,0.00000030,-0.00000089
 ,-0.00000206,-0.00000336,0.00000335,-0.00000015,-0.00000039,0.00000046
 ,-0.00000115,0.,0.00000099,0.00000414,0.00000124,-0.00000071,0.0000042
 4,-0.00000015,-0.00000095,-0.00000618,0.00000061,-0.00000006,0.0000031
 1\\\@


 FROM WHENCE IT HAPPENS, THAT THEY WHICH TRUST TO BOOKS, DO AS THEY THAT CAST UP MANY LITTLE SUMMS INTO GREATER,
 WITHOUT CONSIDERING WETHER THOSE LITTLE SUMMES WERE RIGHTLY CAST UP OR NOT...
 AND AT LAST FINDING THE ERROUR VISIBLE, AND NOT MISTRUSTING THEIR FIRST GROUNDS,
 KNOW NOT WHICH WAY TO CLEERE THEMSELVES...
 BUT SPEND TIME IN FLUTTERING OVER THEIR BOOKES....
 AS BIRDS THAT ENTERING BY THE CHIMNEY, AND FINDING THEMSELVES INCLOSED IN A CHAMBER,
 FLUTTER AT THE FALSE LIGHT OF A GLASSE WINDOW,
 FOR WANT OF WIT TO CONSIDER WHICH WAY THEY CAME IN....
           LEVIATHAN
 Job cpu time:       0 days  1 hours  7 minutes 24.4 seconds.
 Elapsed time:       0 days  0 hours 33 minutes 43.8 seconds.
 File lengths (MBytes):  RWF=   1312 Int=      0 D2E=      0 Chk=     32 Scr=     32
 Normal termination of Gaussian 16 at Sun Sep 29 07:27:36 2019.
