 Entering Gaussian System, Link 0=g16
 Input=verytight/species/COC=CO/conformers/COC=CO_5.com
 Output=verytight/species/COC=CO/conformers/COC=CO_5.log
 Initial command:
 /shared/centos7/gaussian/g16/l1.exe "/scratch/harms.n/gauss_scrdir/Gau-34879.inp" -scrdir="/scratch/harms.n/gauss_scrdir/"
 Entering Link 1 = /shared/centos7/gaussian/g16/l1.exe PID=     34880.
  
 Copyright (c) 1988,1990,1992,1993,1995,1998,2003,2009,2016,
            Gaussian, Inc.  All Rights Reserved.
  
 This is part of the Gaussian(R) 16 program.  It is based on
 the Gaussian(R) 09 system (copyright 2009, Gaussian, Inc.),
 the Gaussian(R) 03 system (copyright 2003, Gaussian, Inc.),
 the Gaussian(R) 98 system (copyright 1998, Gaussian, Inc.),
 the Gaussian(R) 94 system (copyright 1995, Gaussian, Inc.),
 the Gaussian 92(TM) system (copyright 1992, Gaussian, Inc.),
 the Gaussian 90(TM) system (copyright 1990, Gaussian, Inc.),
 the Gaussian 88(TM) system (copyright 1988, Gaussian, Inc.),
 the Gaussian 86(TM) system (copyright 1986, Carnegie Mellon
 University), and the Gaussian 82(TM) system (copyright 1983,
 Carnegie Mellon University). Gaussian is a federally registered
 trademark of Gaussian, Inc.
  
 This software contains proprietary and confidential information,
 including trade secrets, belonging to Gaussian, Inc.
  
 This software is provided under written license and may be
 used, copied, transmitted, or stored only in accord with that
 written license.
  
 The following legend is applicable only to US Government
 contracts under FAR:
  
                    RESTRICTED RIGHTS LEGEND
  
 Use, reproduction and disclosure by the US Government is
 subject to restrictions as set forth in subparagraphs (a)
 and (c) of the Commercial Computer Software - Restricted
 Rights clause in FAR 52.227-19.
  
 Gaussian, Inc.
 340 Quinnipiac St., Bldg. 40, Wallingford CT 06492
  
  
 ---------------------------------------------------------------
 Warning -- This program may not be used in any manner that
 competes with the business of Gaussian, Inc. or will provide
 assistance to any competitor of Gaussian, Inc.  The licensee
 of this program is prohibited from giving any competitor of
 Gaussian, Inc. access to this program.  By using this program,
 the user acknowledges that Gaussian, Inc. is engaged in the
 business of creating and licensing software in the field of
 computational chemistry and represents and warrants to the
 licensee that it is not a competitor of Gaussian, Inc. and that
 it will not use this program in any manner prohibited above.
 ---------------------------------------------------------------
  

 Cite this work as:
 Gaussian 16, Revision A.03,
 M. J. Frisch, G. W. Trucks, H. B. Schlegel, G. E. Scuseria, 
 M. A. Robb, J. R. Cheeseman, G. Scalmani, V. Barone, 
 G. A. Petersson, H. Nakatsuji, X. Li, M. Caricato, A. V. Marenich, 
 J. Bloino, B. G. Janesko, R. Gomperts, B. Mennucci, H. P. Hratchian, 
 J. V. Ortiz, A. F. Izmaylov, J. L. Sonnenberg, D. Williams-Young, 
 F. Ding, F. Lipparini, F. Egidi, J. Goings, B. Peng, A. Petrone, 
 T. Henderson, D. Ranasinghe, V. G. Zakrzewski, J. Gao, N. Rega, 
 G. Zheng, W. Liang, M. Hada, M. Ehara, K. Toyota, R. Fukuda, 
 J. Hasegawa, M. Ishida, T. Nakajima, Y. Honda, O. Kitao, H. Nakai, 
 T. Vreven, K. Throssell, J. A. Montgomery, Jr., J. E. Peralta, 
 F. Ogliaro, M. J. Bearpark, J. J. Heyd, E. N. Brothers, K. N. Kudin, 
 V. N. Staroverov, T. A. Keith, R. Kobayashi, J. Normand, 
 K. Raghavachari, A. P. Rendell, J. C. Burant, S. S. Iyengar, 
 J. Tomasi, M. Cossi, J. M. Millam, M. Klene, C. Adamo, R. Cammi, 
 J. W. Ochterski, R. L. Martin, K. Morokuma, O. Farkas, 
 J. B. Foresman, and D. J. Fox, Gaussian, Inc., Wallingford CT, 2016.
 
 ******************************************
 Gaussian 16:  EM64L-G16RevA.03 25-Dec-2016
                25-Sep-2019 
 ******************************************
 %nprocshared=20
 Will use up to   20 processors via shared memory.
 %mem=5GB
 ----------------------------------------------------------------------
 #p m062x/cc-pVTZ opt=(calcfc,maxcycles=900,Tight) freq IOP(7/33=1,2/16
 =3) scf=(maxcycle=900)
 ----------------------------------------------------------------------
 1/6=900,7=10,10=4,18=20,19=15,26=3,38=1/1,3;
 2/9=110,12=2,16=3,17=6,18=5,40=1/2;
 3/5=16,6=1,11=2,25=1,30=1,71=2,74=-55,140=1/1,2,3;
 4//1;
 5/5=2,7=900,38=5/2;
 8/6=4,10=90,11=11/1;
 11/6=1,8=1,9=11,15=111,16=1/1,2,10;
 10/6=1,13=1/2;
 6/7=2,8=2,9=2,10=2,28=1/1;
 7/10=1,18=20,25=1,33=1/1,2,3,16;
 1/6=900,7=10,10=4,18=20,19=15,26=3/3(2);
 2/9=110,16=3/2;
 99//99;
 2/9=110,16=3/2;
 3/5=16,6=1,11=2,25=1,30=1,71=1,74=-55/1,2,3;
 4/5=5,16=3,69=1/1;
 5/5=2,7=900,38=5/2;
 7/33=1/1,2,3,16;
 1/6=900,7=10,18=20,19=15,26=3/3(-5);
 2/9=110,16=3/2;
 6/7=2,8=2,9=2,10=2,19=2,28=1/1;
 99/9=1/99;
 Leave Link    1 at Wed Sep 25 10:27:14 2019, MaxMem=   671088640 cpu:               4.1 elap:               2.1
 (Enter /shared/centos7/gaussian/g16/l101.exe)
 ------------------------------
 Gaussian input prepared by ASE
 ------------------------------
 Symbolic Z-matrix:
 Charge =  0 Multiplicity = 1
 O                     0.17638  -0.63198   0.38876 
 O                     0.68539   2.70155   1.85053 
 C                    -1.15362  -0.80196   0.88433 
 C                     0.71831   0.59054   0.7647 
 C                     0.11714   1.49813   1.49671 
 H                    -1.52134  -1.80451   0.52087 
 H                    -1.16361  -0.79139   2.01149 
 H                    -1.81059  -0.01454   0.51439 
 H                     1.72735   0.71967   0.37794 
 H                    -0.87289   1.38595   1.88418 
 H                     1.61657   2.72073   1.44242 
 
 ITRead=  0  0  0  0  0  0  0  0  0  0  0
 MicOpt= -1 -1 -1 -1 -1 -1 -1 -1 -1 -1 -1
 NAtoms=     11 NQM=       11 NQMF=       0 NMMI=      0 NMMIF=      0
                NMic=       0 NMicF=      0.
                    Isotopes and Nuclear Properties:
 (Nuclear quadrupole moments (NQMom) in fm**2, nuclear magnetic moments (NMagM)
  in nuclear magnetons)

  Atom         1           2           3           4           5           6           7           8           9          10
 IAtWgt=          16          16          12          12          12           1           1           1           1           1
 AtmWgt=  15.9949146  15.9949146  12.0000000  12.0000000  12.0000000   1.0078250   1.0078250   1.0078250   1.0078250   1.0078250
 NucSpn=           0           0           0           0           0           1           1           1           1           1
 AtZEff=  -0.0000000  -0.0000000  -0.0000000  -0.0000000  -0.0000000  -0.0000000  -0.0000000  -0.0000000  -0.0000000  -0.0000000
 NQMom=    0.0000000   0.0000000   0.0000000   0.0000000   0.0000000   0.0000000   0.0000000   0.0000000   0.0000000   0.0000000
 NMagM=    0.0000000   0.0000000   0.0000000   0.0000000   0.0000000   2.7928460   2.7928460   2.7928460   2.7928460   2.7928460
 AtZNuc=   8.0000000   8.0000000   6.0000000   6.0000000   6.0000000   1.0000000   1.0000000   1.0000000   1.0000000   1.0000000

  Atom        11
 IAtWgt=           1
 AtmWgt=   1.0078250
 NucSpn=           1
 AtZEff=  -0.0000000
 NQMom=    0.0000000
 NMagM=    2.7928460
 AtZNuc=   1.0000000
 Leave Link  101 at Wed Sep 25 10:27:15 2019, MaxMem=   671088640 cpu:               2.7 elap:               1.3
 (Enter /shared/centos7/gaussian/g16/l103.exe)

 GradGradGradGradGradGradGradGradGradGradGradGradGradGradGradGradGradGrad
 Berny optimization.
 Initialization pass.
                           ----------------------------
                           !    Initial Parameters    !
                           ! (Angstroms and Degrees)  !
 --------------------------                            --------------------------
 ! Name  Definition              Value          Derivative Info.                !
 --------------------------------------------------------------------------------
 ! R1    R(1,3)                  1.4295         calculate D2E/DX2 analytically  !
 ! R2    R(1,4)                  1.3891         calculate D2E/DX2 analytically  !
 ! R3    R(2,5)                  1.3771         calculate D2E/DX2 analytically  !
 ! R4    R(2,11)                 1.0169         calculate D2E/DX2 analytically  !
 ! R5    R(3,6)                  1.128          calculate D2E/DX2 analytically  !
 ! R6    R(3,7)                  1.1272         calculate D2E/DX2 analytically  !
 ! R7    R(3,8)                  1.0902         calculate D2E/DX2 analytically  !
 ! R8    R(4,5)                  1.3119         calculate D2E/DX2 analytically  !
 ! R9    R(4,9)                  1.0883         calculate D2E/DX2 analytically  !
 ! R10   R(5,10)                 1.0691         calculate D2E/DX2 analytically  !
 ! A1    A(3,1,4)              111.9509         calculate D2E/DX2 analytically  !
 ! A2    A(5,2,11)             106.933          calculate D2E/DX2 analytically  !
 ! A3    A(1,3,6)              107.2946         calculate D2E/DX2 analytically  !
 ! A4    A(1,3,7)              110.7193         calculate D2E/DX2 analytically  !
 ! A5    A(1,3,8)              110.9261         calculate D2E/DX2 analytically  !
 ! A6    A(6,3,7)              109.1245         calculate D2E/DX2 analytically  !
 ! A7    A(6,3,8)              109.6425         calculate D2E/DX2 analytically  !
 ! A8    A(7,3,8)              109.0991         calculate D2E/DX2 analytically  !
 ! A9    A(1,4,5)              125.5285         calculate D2E/DX2 analytically  !
 ! A10   A(1,4,9)              111.713          calculate D2E/DX2 analytically  !
 ! A11   A(5,4,9)              122.7583         calculate D2E/DX2 analytically  !
 ! A12   A(2,5,4)              123.977          calculate D2E/DX2 analytically  !
 ! A13   A(2,5,10)             112.3791         calculate D2E/DX2 analytically  !
 ! A14   A(4,5,10)             123.6438         calculate D2E/DX2 analytically  !
 ! D1    D(4,1,3,6)            179.0397         calculate D2E/DX2 analytically  !
 ! D2    D(4,1,3,7)            -61.9718         calculate D2E/DX2 analytically  !
 ! D3    D(4,1,3,8)             59.3048         calculate D2E/DX2 analytically  !
 ! D4    D(3,1,4,5)              0.6587         calculate D2E/DX2 analytically  !
 ! D5    D(3,1,4,9)           -179.4873         calculate D2E/DX2 analytically  !
 ! D6    D(11,2,5,4)            -0.1368         calculate D2E/DX2 analytically  !
 ! D7    D(11,2,5,10)          179.9995         calculate D2E/DX2 analytically  !
 ! D8    D(1,4,5,2)           -179.9775         calculate D2E/DX2 analytically  !
 ! D9    D(1,4,5,10)            -0.1289         calculate D2E/DX2 analytically  !
 ! D10   D(9,4,5,2)              0.1838         calculate D2E/DX2 analytically  !
 ! D11   D(9,4,5,10)          -179.9676         calculate D2E/DX2 analytically  !
 --------------------------------------------------------------------------------
 Trust Radius=3.00D-01 FncErr=1.00D-07 GrdErr=1.00D-06 EigMax=2.50D+02 EigMin=1.00D-04
 Number of steps in this run=    100 maximum allowed number of steps=    100.
 GradGradGradGradGradGradGradGradGradGradGradGradGradGradGradGradGradGrad

 Leave Link  103 at Wed Sep 25 10:27:16 2019, MaxMem=   671088640 cpu:               1.7 elap:               0.9
 (Enter /shared/centos7/gaussian/g16/l202.exe)
                          Input orientation:                          
 ---------------------------------------------------------------------
 Center     Atomic      Atomic             Coordinates (Angstroms)
 Number     Number       Type             X           Y           Z
 ---------------------------------------------------------------------
      1          8           0        0.176376   -0.631981    0.388760
      2          8           0        0.685394    2.701546    1.850526
      3          6           0       -1.153617   -0.801958    0.884333
      4          6           0        0.718309    0.590541    0.764699
      5          6           0        0.117138    1.498134    1.496710
      6          1           0       -1.521342   -1.804508    0.520874
      7          1           0       -1.163611   -0.791394    2.011488
      8          1           0       -1.810589   -0.014544    0.514390
      9          1           0        1.727353    0.719665    0.377936
     10          1           0       -0.872889    1.385952    1.884182
     11          1           0        1.616575    2.720728    1.442420
 ---------------------------------------------------------------------
                    Distance matrix (angstroms):
                    1          2          3          4          5
     1  O    0.000000
     2  O    3.675360   0.000000
     3  C    1.429464   4.073087   0.000000
     4  C    1.389094   2.374120   2.336124   0.000000
     5  C    2.401761   1.377063   2.698194   1.311858   0.000000
     6  H    2.067491   5.190586   1.128020   3.288122   3.813701
     7  H    2.110503   3.955422   1.127250   2.646857   2.673435
     8  H    2.084477   3.923308   1.090179   2.612300   2.639940
     9  H    2.057327   2.679935   3.297236   1.088314   2.109612
    10  H    2.722003   2.039649   2.421870   2.101864   1.069052
    11  H    3.798030   1.016866   4.516054   2.409125   1.935457
                    6          7          8          9         10
     6  H    0.000000
     7  H    1.837472   0.000000
     8  H    1.813195   1.806483   0.000000
     9  H    4.116540   3.648214   3.615898   0.000000
    10  H    3.529608   2.200355   2.171866   3.077982   0.000000
    11  H    5.583326   4.515338   4.482009   2.269284   2.859058
                   11
    11  H    0.000000
 Stoichiometry    C3H6O2
 Framework group  C1[X(C3H6O2)]
 Deg. of freedom    27
 Full point group                 C1      NOp   1
 Largest Abelian subgroup         C1      NOp   1
 Largest concise Abelian subgroup C1      NOp   1
                         Standard orientation:                         
 ---------------------------------------------------------------------
 Center     Atomic      Atomic             Coordinates (Angstroms)
 Number     Number       Type             X           Y           Z
 ---------------------------------------------------------------------
      1          8           0        1.295955    0.704141    0.003670
      2          8           0       -2.242593   -0.289299   -0.001800
      3          6           0        1.816455   -0.627153   -0.006482
      4          6           0       -0.093060    0.718646    0.000507
      5          6           0       -0.866504   -0.340955    0.001891
      6          1           0        2.941545   -0.547232   -0.021188
      7          1           0        1.498038   -1.186917    0.918702
      8          1           0        1.476192   -1.171553   -0.887584
      9          1           0       -0.485109    1.733892   -0.000787
     10          1           0       -0.496852   -1.344064    0.003673
     11          1           0       -2.502056    0.693906   -0.003267
 ---------------------------------------------------------------------
 Rotational constants (GHZ):          16.1530763           2.8409391           2.4546451
 Leave Link  202 at Wed Sep 25 10:27:18 2019, MaxMem=   671088640 cpu:               4.0 elap:               2.0
 (Enter /shared/centos7/gaussian/g16/l301.exe)
 Standard basis: CC-pVTZ (5D, 7F)
 Ernie: Thresh=  0.10000D-02 Tol=  0.10000D-05 Strict=F.
 Ernie:  15 primitive shells out of 178 were deleted.
 There are   265 symmetry adapted cartesian basis functions of A   symmetry.
 There are   234 symmetry adapted basis functions of A   symmetry.
   234 basis functions,   362 primitive gaussians,   265 cartesian basis functions
    20 alpha electrons       20 beta electrons
       nuclear repulsion energy       175.3908545816 Hartrees.
 IExCor= 4336 DFT=T Ex+Corr=M062X ExCW=0 ScaHFX=  0.540000
 ScaDFX=  1.000000  1.000000  1.000000  1.000000 ScalE2=  1.000000  1.000000
 IRadAn=      5 IRanWt=     -1 IRanGd=            0 ICorTp=0 IEmpDi=  4
 NAtoms=   11 NActive=   11 NUniq=   11 SFac= 1.00D+00 NAtFMM=   60 NAOKFM=F Big=F
 Integral buffers will be    131072 words long.
 Raffenetti 2 integral format.
 Two-electron integral symmetry is turned on.
 Leave Link  301 at Wed Sep 25 10:27:19 2019, MaxMem=   671088640 cpu:               1.8 elap:               1.0
 (Enter /shared/centos7/gaussian/g16/l302.exe)
 NPDir=0 NMtPBC=     1 NCelOv=     1 NCel=       1 NClECP=     1 NCelD=      1
         NCelK=      1 NCelE2=     1 NClLst=     1 CellRange=     0.0.
 One-electron integrals computed using PRISM.
 One-electron integral symmetry used in STVInt
 NBasis=   234 RedAO= T EigKep=  3.63D-04  NBF=   234
 NBsUse=   234 1.00D-06 EigRej= -1.00D+00 NBFU=   234
 Precomputing XC quadrature grid using
 IXCGrd= 4 IRadAn=           5 IRanWt=          -1 IRanGd=           0 AccXCQ= 0.00D+00.
 Generated NRdTot=       0 NPtTot=           0 NUsed=           0 NTot=          32
 NSgBfM=   265   265   265   265   265 MxSgAt=    11 MxSgA2=    11.
 Leave Link  302 at Wed Sep 25 10:28:36 2019, MaxMem=   671088640 cpu:             154.0 elap:              77.0
 (Enter /shared/centos7/gaussian/g16/l303.exe)
 DipDrv:  MaxL=1.
 Leave Link  303 at Wed Sep 25 10:28:41 2019, MaxMem=   671088640 cpu:               9.3 elap:               4.7
 (Enter /shared/centos7/gaussian/g16/l401.exe)
 ExpMin= 1.03D-01 ExpMax= 1.53D+04 ExpMxC= 5.22D+02 IAcc=3 IRadAn=         5 AccDes= 0.00D+00
 Harris functional with IExCor= 1009 and IRadAn=       5 diagonalized for initial guess.
 HarFok:  IExCor= 1009 AccDes= 0.00D+00 IRadAn=         5 IDoV= 1 UseB2=F ITyADJ=14
 ICtDFT=  3500011 ScaDFX=  1.000000  1.000000  1.000000  1.000000
 FoFCou: FMM=F IPFlag=           0 FMFlag=      100000 FMFlg1=           0
         NFxFlg=           0 DoJE=T BraDBF=F KetDBF=T FulRan=T
         wScrn=  0.000000 ICntrl=       500 IOpCl=  0 I1Cent=   200000004 NGrid=           0
         NMat0=    1 NMatS0=      1 NMatT0=    0 NMatD0=    1 NMtDS0=    0 NMtDT0=    0
 Petite list used in FoFCou.
 Harris En= -268.198155918676    
 JPrj=0 DoOrth=F DoCkMO=F.
 Leave Link  401 at Wed Sep 25 10:29:08 2019, MaxMem=   671088640 cpu:              53.9 elap:              27.0
 (Enter /shared/centos7/gaussian/g16/l502.exe)
 Keep R1 ints in memory in canonical form, NReq=399924305.
 FoFCou: FMM=F IPFlag=           0 FMFlag=           0 FMFlg1=           0
         NFxFlg=           0 DoJE=F BraDBF=F KetDBF=F FulRan=T
         wScrn=  0.000000 ICntrl=       600 IOpCl=  0 I1Cent=           0 NGrid=           0
         NMat0=    1 NMatS0=  27495 NMatT0=    0 NMatD0=    1 NMtDS0=    0 NMtDT0=    0
 Symmetry not used in FoFCou.
 Two-electron integral symmetry not used.
 Closed shell SCF:
 Using DIIS extrapolation, IDIIS=  1040.
 NGot=   671088640 LenX=   292939207 LenY=   292868541
 Requested convergence on RMS density matrix=1.00D-08 within 900 cycles.
 Requested convergence on MAX density matrix=1.00D-06.
 Requested convergence on             energy=1.00D-06.
 No special actions if energy rises.
 Integral accuracy reduced to 1.0D-05 until final iterations.

 Cycle   1  Pass 0  IDiag  1:
 E= -268.189441761941    
 DIIS: error= 2.38D-02 at cycle   1 NSaved=   1.
 NSaved= 1 IEnMin= 1 EnMin= -268.189441761941     IErMin= 1 ErrMin= 2.38D-02
 ErrMax= 2.38D-02  0.00D+00 EMaxC= 1.00D-01 BMatC= 1.71D-01 BMatP= 1.71D-01
 IDIUse=3 WtCom= 7.62D-01 WtEn= 2.38D-01
 Coeff-Com:  0.100D+01
 Coeff-En:   0.100D+01
 Coeff:      0.100D+01
 Gap=     0.359 Goal=   None    Shift=    0.000
 GapD=    0.359 DampG=1.000 DampE=0.500 DampFc=0.5000 IDamp=-1.
 Damping current iteration by 5.00D-01
 RMSDP=1.96D-03 MaxDP=6.37D-02              OVMax= 1.16D-01

 Cycle   2  Pass 0  IDiag  1:
 E= -268.253906322991     Delta-E=       -0.064464561050 Rises=F Damp=T
 DIIS: error= 6.90D-03 at cycle   2 NSaved=   2.
 NSaved= 2 IEnMin= 2 EnMin= -268.253906322991     IErMin= 2 ErrMin= 6.90D-03
 ErrMax= 6.90D-03  0.00D+00 EMaxC= 1.00D-01 BMatC= 1.65D-02 BMatP= 1.71D-01
 IDIUse=3 WtCom= 9.31D-01 WtEn= 6.90D-02
 Coeff-Com: -0.175D+00 0.117D+01
 Coeff-En:   0.000D+00 0.100D+01
 Coeff:     -0.163D+00 0.116D+01
 Gap=     0.332 Goal=   None    Shift=    0.000
 RMSDP=3.90D-04 MaxDP=9.38D-03 DE=-6.45D-02 OVMax= 5.31D-02

 Cycle   3  Pass 0  IDiag  1:
 E= -268.310432275240     Delta-E=       -0.056525952250 Rises=F Damp=F
 DIIS: error= 4.00D-03 at cycle   3 NSaved=   3.
 NSaved= 3 IEnMin= 3 EnMin= -268.310432275240     IErMin= 3 ErrMin= 4.00D-03
 ErrMax= 4.00D-03  0.00D+00 EMaxC= 1.00D-01 BMatC= 3.39D-03 BMatP= 1.65D-02
 IDIUse=3 WtCom= 9.60D-01 WtEn= 4.00D-02
 Coeff-Com: -0.112D+00 0.374D+00 0.739D+00
 Coeff-En:   0.000D+00 0.000D+00 0.100D+01
 Coeff:     -0.108D+00 0.359D+00 0.749D+00
 Gap=     0.334 Goal=   None    Shift=    0.000
 RMSDP=1.65D-04 MaxDP=5.82D-03 DE=-5.65D-02 OVMax= 1.93D-02

 Cycle   4  Pass 0  IDiag  1:
 E= -268.311975040430     Delta-E=       -0.001542765189 Rises=F Damp=F
 DIIS: error= 1.87D-03 at cycle   4 NSaved=   4.
 NSaved= 4 IEnMin= 4 EnMin= -268.311975040430     IErMin= 4 ErrMin= 1.87D-03
 ErrMax= 1.87D-03  0.00D+00 EMaxC= 1.00D-01 BMatC= 9.05D-04 BMatP= 3.39D-03
 IDIUse=3 WtCom= 9.81D-01 WtEn= 1.87D-02
 Coeff-Com: -0.379D-01 0.964D-01 0.389D+00 0.553D+00
 Coeff-En:   0.000D+00 0.000D+00 0.219D+00 0.781D+00
 Coeff:     -0.372D-01 0.946D-01 0.385D+00 0.557D+00
 Gap=     0.329 Goal=   None    Shift=    0.000
 RMSDP=7.86D-05 MaxDP=2.97D-03 DE=-1.54D-03 OVMax= 9.45D-03

 Cycle   5  Pass 0  IDiag  1:
 E= -268.312669381322     Delta-E=       -0.000694340893 Rises=F Damp=F
 DIIS: error= 2.64D-04 at cycle   5 NSaved=   5.
 NSaved= 5 IEnMin= 5 EnMin= -268.312669381322     IErMin= 5 ErrMin= 2.64D-04
 ErrMax= 2.64D-04  0.00D+00 EMaxC= 1.00D-01 BMatC= 1.79D-05 BMatP= 9.05D-04
 IDIUse=3 WtCom= 9.97D-01 WtEn= 2.64D-03
 Coeff-Com: -0.571D-02 0.112D-01 0.856D-01 0.193D+00 0.716D+00
 Coeff-En:   0.000D+00 0.000D+00 0.000D+00 0.000D+00 0.100D+01
 Coeff:     -0.570D-02 0.112D-01 0.853D-01 0.192D+00 0.717D+00
 Gap=     0.329 Goal=   None    Shift=    0.000
 RMSDP=1.44D-05 MaxDP=4.33D-04 DE=-6.94D-04 OVMax= 1.81D-03

 Cycle   6  Pass 0  IDiag  1:
 E= -268.312682997562     Delta-E=       -0.000013616240 Rises=F Damp=F
 DIIS: error= 7.83D-05 at cycle   6 NSaved=   6.
 NSaved= 6 IEnMin= 6 EnMin= -268.312682997562     IErMin= 6 ErrMin= 7.83D-05
 ErrMax= 7.83D-05  0.00D+00 EMaxC= 1.00D-01 BMatC= 2.75D-06 BMatP= 1.79D-05
 IDIUse=1 WtCom= 1.00D+00 WtEn= 0.00D+00
 Coeff-Com: -0.117D-02 0.114D-02 0.267D-01 0.773D-01 0.377D+00 0.519D+00
 Coeff:     -0.117D-02 0.114D-02 0.267D-01 0.773D-01 0.377D+00 0.519D+00
 Gap=     0.329 Goal=   None    Shift=    0.000
 RMSDP=4.42D-06 MaxDP=1.34D-04 DE=-1.36D-05 OVMax= 4.94D-04

 Initial convergence to 1.0D-05 achieved.  Increase integral accuracy.
 Cycle   7  Pass 1  IDiag  1:
 E= -268.312709823727     Delta-E=       -0.000026826165 Rises=F Damp=F
 DIIS: error= 2.22D-05 at cycle   1 NSaved=   1.
 NSaved= 1 IEnMin= 1 EnMin= -268.312709823727     IErMin= 1 ErrMin= 2.22D-05
 ErrMax= 2.22D-05  0.00D+00 EMaxC= 1.00D-01 BMatC= 2.68D-07 BMatP= 2.68D-07
 IDIUse=1 WtCom= 1.00D+00 WtEn= 0.00D+00
 Coeff-Com:  0.100D+01
 Coeff:      0.100D+01
 Gap=     0.330 Goal=   None    Shift=    0.000
 RMSDP=4.42D-06 MaxDP=1.34D-04 DE=-2.68D-05 OVMax= 1.93D-04

 Cycle   8  Pass 1  IDiag  1:
 E= -268.312709946282     Delta-E=       -0.000000122556 Rises=F Damp=F
 DIIS: error= 1.92D-05 at cycle   2 NSaved=   2.
 NSaved= 2 IEnMin= 2 EnMin= -268.312709946282     IErMin= 2 ErrMin= 1.92D-05
 ErrMax= 1.92D-05  0.00D+00 EMaxC= 1.00D-01 BMatC= 1.40D-07 BMatP= 2.68D-07
 IDIUse=1 WtCom= 1.00D+00 WtEn= 0.00D+00
 Coeff-Com:  0.384D+00 0.616D+00
 Coeff:      0.384D+00 0.616D+00
 Gap=     0.330 Goal=   None    Shift=    0.000
 RMSDP=1.33D-06 MaxDP=3.52D-05 DE=-1.23D-07 OVMax= 1.44D-04

 Cycle   9  Pass 1  IDiag  1:
 E= -268.312710021869     Delta-E=       -0.000000075587 Rises=F Damp=F
 DIIS: error= 1.00D-05 at cycle   3 NSaved=   3.
 NSaved= 3 IEnMin= 3 EnMin= -268.312710021869     IErMin= 3 ErrMin= 1.00D-05
 ErrMax= 1.00D-05  0.00D+00 EMaxC= 1.00D-01 BMatC= 3.37D-08 BMatP= 1.40D-07
 IDIUse=1 WtCom= 1.00D+00 WtEn= 0.00D+00
 Coeff-Com: -0.403D-01 0.322D+00 0.718D+00
 Coeff:     -0.403D-01 0.322D+00 0.718D+00
 Gap=     0.330 Goal=   None    Shift=    0.000
 RMSDP=5.21D-07 MaxDP=1.53D-05 DE=-7.56D-08 OVMax= 6.01D-05

 Cycle  10  Pass 1  IDiag  1:
 E= -268.312710047507     Delta-E=       -0.000000025638 Rises=F Damp=F
 DIIS: error= 1.23D-06 at cycle   4 NSaved=   4.
 NSaved= 4 IEnMin= 4 EnMin= -268.312710047507     IErMin= 4 ErrMin= 1.23D-06
 ErrMax= 1.23D-06  0.00D+00 EMaxC= 1.00D-01 BMatC= 4.70D-10 BMatP= 3.37D-08
 IDIUse=1 WtCom= 1.00D+00 WtEn= 0.00D+00
 Coeff-Com: -0.192D-01 0.842D-01 0.228D+00 0.707D+00
 Coeff:     -0.192D-01 0.842D-01 0.228D+00 0.707D+00
 Gap=     0.330 Goal=   None    Shift=    0.000
 RMSDP=7.88D-08 MaxDP=3.03D-06 DE=-2.56D-08 OVMax= 8.08D-06

 Cycle  11  Pass 1  IDiag  1:
 E= -268.312710047896     Delta-E=       -0.000000000389 Rises=F Damp=F
 DIIS: error= 5.82D-07 at cycle   5 NSaved=   5.
 NSaved= 5 IEnMin= 5 EnMin= -268.312710047896     IErMin= 5 ErrMin= 5.82D-07
 ErrMax= 5.82D-07  0.00D+00 EMaxC= 1.00D-01 BMatC= 1.26D-10 BMatP= 4.70D-10
 IDIUse=1 WtCom= 1.00D+00 WtEn= 0.00D+00
 Coeff-Com: -0.269D-02-0.180D-01-0.134D-01 0.329D+00 0.705D+00
 Coeff:     -0.269D-02-0.180D-01-0.134D-01 0.329D+00 0.705D+00
 Gap=     0.330 Goal=   None    Shift=    0.000
 RMSDP=3.58D-08 MaxDP=9.84D-07 DE=-3.89D-10 OVMax= 3.12D-06

 Cycle  12  Pass 1  IDiag  1:
 E= -268.312710048007     Delta-E=       -0.000000000111 Rises=F Damp=F
 DIIS: error= 2.28D-07 at cycle   6 NSaved=   6.
 NSaved= 6 IEnMin= 6 EnMin= -268.312710048007     IErMin= 6 ErrMin= 2.28D-07
 ErrMax= 2.28D-07  0.00D+00 EMaxC= 1.00D-01 BMatC= 1.02D-11 BMatP= 1.26D-10
 IDIUse=1 WtCom= 1.00D+00 WtEn= 0.00D+00
 Coeff-Com:  0.166D-02-0.191D-01-0.350D-01 0.391D-01 0.274D+00 0.739D+00
 Coeff:      0.166D-02-0.191D-01-0.350D-01 0.391D-01 0.274D+00 0.739D+00
 Gap=     0.330 Goal=   None    Shift=    0.000
 RMSDP=1.18D-08 MaxDP=4.10D-07 DE=-1.11D-10 OVMax= 1.31D-06

 Cycle  13  Pass 1  IDiag  1:
 E= -268.312710048017     Delta-E=       -0.000000000009 Rises=F Damp=F
 DIIS: error= 4.59D-08 at cycle   7 NSaved=   7.
 NSaved= 7 IEnMin= 7 EnMin= -268.312710048017     IErMin= 7 ErrMin= 4.59D-08
 ErrMax= 4.59D-08  0.00D+00 EMaxC= 1.00D-01 BMatC= 4.16D-13 BMatP= 1.02D-11
 IDIUse=1 WtCom= 1.00D+00 WtEn= 0.00D+00
 Coeff-Com:  0.609D-03-0.411D-02-0.836D-02-0.980D-02 0.327D-01 0.210D+00
 Coeff-Com:  0.779D+00
 Coeff:      0.609D-03-0.411D-02-0.836D-02-0.980D-02 0.327D-01 0.210D+00
 Coeff:      0.779D+00
 Gap=     0.330 Goal=   None    Shift=    0.000
 RMSDP=2.81D-09 MaxDP=8.10D-08 DE=-9.44D-12 OVMax= 1.99D-07

 SCF Done:  E(RM062X) =  -268.312710048     A.U. after   13 cycles
            NFock= 13  Conv=0.28D-08     -V/T= 2.0061
 KE= 2.666740682162D+02 PE=-9.790039808504D+02 EE= 2.686263480046D+02
 Leave Link  502 at Wed Sep 25 10:35:15 2019, MaxMem=   671088640 cpu:             725.1 elap:             366.8
 (Enter /shared/centos7/gaussian/g16/l801.exe)
 DoSCS=F DFT=T ScalE2(SS,OS)=  1.000000  1.000000
 Range of M.O.s used for correlation:     1   234
 NBasis=   234 NAE=    20 NBE=    20 NFC=     0 NFV=     0
 NROrb=    234 NOA=    20 NOB=    20 NVA=   214 NVB=   214

 **** Warning!!: The largest alpha MO coefficient is  0.12839884D+02

 Leave Link  801 at Wed Sep 25 10:35:16 2019, MaxMem=   671088640 cpu:               1.6 elap:               0.8
 (Enter /shared/centos7/gaussian/g16/l1101.exe)
 Using compressed storage, NAtomX=    11.
 Will process     12 centers per pass.
 Leave Link 1101 at Wed Sep 25 10:35:41 2019, MaxMem=   671088640 cpu:              50.0 elap:              25.0
 (Enter /shared/centos7/gaussian/g16/l1102.exe)
 Symmetrizing basis deriv contribution to polar:
 IMax=3 JMax=2 DiffMx= 0.00D+00
 Leave Link 1102 at Wed Sep 25 10:35:44 2019, MaxMem=   671088640 cpu:               6.0 elap:               3.1
 (Enter /shared/centos7/gaussian/g16/l1110.exe)
 Forming Gx(P) for the SCF density, NAtomX=    11.
 Integral derivatives from FoFJK, PRISM(SPDF).
 Do as many integral derivatives as possible in FoFJK.
 G2DrvN: MDV=     671087712.
 G2DrvN: will do    12 centers at a time, making    1 passes.
 Calling FoFCou, ICntrl=  3107 FMM=F I1Cent=   0 AccDes= 0.00D+00.
 FoFJK:  IHMeth= 1 ICntrl=    3107 DoSepK=F KAlg= 0 I1Cent=           0 FoldK=F
 IRaf=         0 NMat=       1 IRICut=       1 DoRegI=T DoRafI=F ISym2E= 0 IDoP0=0 IntGTp=1.
 FoFCou: FMM=F IPFlag=           0 FMFlag=      100000 FMFlg1=           0
         NFxFlg=           0 DoJE=F BraDBF=F KetDBF=F FulRan=T
         wScrn=  0.000000 ICntrl=      3107 IOpCl=  0 I1Cent=           0 NGrid=           0
         NMat0=    1 NMatS0=      1 NMatT0=    0 NMatD0=    1 NMtDS0=    0 NMtDT0=    0
 Symmetry not used in FoFCou.
 End of G2Drv F.D. properties file   721 does not exist.
 End of G2Drv F.D. properties file   722 does not exist.
 End of G2Drv F.D. properties file   788 does not exist.
 Leave Link 1110 at Wed Sep 25 10:42:51 2019, MaxMem=   671088640 cpu:             854.9 elap:             427.6
 (Enter /shared/centos7/gaussian/g16/l1002.exe)
 Minotr:  Closed shell wavefunction.
          IDoAtm=11111111111
          Direct CPHF calculation.
          Differentiating once with respect to nuclear coordinates.
          Requested convergence is 1.0D-08 RMS, and 1.0D-07 maximum.
          Secondary convergence is 1.0D-12 RMS, and 1.0D-12 maximum.
          NewPWx=T KeepS1=F KeepF1=F KeepIn=T MapXYZ=F SortEE=F KeepMc=T.
         3293 words used for storage of precomputed grid.
 Keep R1 ints in memory in canonical form, NReq=399865292.
 FoFCou: FMM=F IPFlag=           0 FMFlag=           0 FMFlg1=           0
         NFxFlg=           0 DoJE=F BraDBF=F KetDBF=F FulRan=T
         wScrn=  0.000000 ICntrl=       600 IOpCl=  0 I1Cent=           0 NGrid=           0
         NMat0=    1 NMatS0=  27495 NMatT0=    0 NMatD0=    1 NMtDS0=    0 NMtDT0=    0
 Symmetry not used in FoFCou.
 Two-electron integral symmetry not used.
          MDV=     671088640 using IRadAn=       1.
          Solving linear equations simultaneously, MaxMat=       0.
          There are    36 degrees of freedom in the 1st order CPHF.  IDoFFX=6 NUNeed=     0.
     30 vectors produced by pass  0 Test12= 1.19D-14 2.78D-09 XBig12= 6.54D-02 6.81D-02.
 AX will form    30 AO Fock derivatives at one time.
     30 vectors produced by pass  1 Test12= 1.19D-14 2.78D-09 XBig12= 7.88D-03 4.25D-02.
     30 vectors produced by pass  2 Test12= 1.19D-14 2.78D-09 XBig12= 2.45D-04 4.19D-03.
     30 vectors produced by pass  3 Test12= 1.19D-14 2.78D-09 XBig12= 4.07D-06 3.51D-04.
     30 vectors produced by pass  4 Test12= 1.19D-14 2.78D-09 XBig12= 2.65D-08 2.42D-05.
     30 vectors produced by pass  5 Test12= 1.19D-14 2.78D-09 XBig12= 1.11D-10 1.62D-06.
     21 vectors produced by pass  6 Test12= 1.19D-14 2.78D-09 XBig12= 4.09D-13 1.15D-07.
      6 vectors produced by pass  7 Test12= 1.19D-14 2.78D-09 XBig12= 1.67D-15 6.17D-09.
 InvSVY:  IOpt=1 It=  1 EMax= 1.78D-15
 Solved reduced A of dimension   207 with    30 vectors.
 End of Minotr F.D. properties file   721 does not exist.
 End of Minotr F.D. properties file   722 does not exist.
 End of Minotr F.D. properties file   788 does not exist.
 Leave Link 1002 at Wed Sep 25 10:53:43 2019, MaxMem=   671088640 cpu:            1303.7 elap:             652.0
 (Enter /shared/centos7/gaussian/g16/l601.exe)
 Copying SCF densities to generalized density rwf, IOpCl= 0 IROHF=0.

 **********************************************************************

            Population analysis using the SCF density.

 **********************************************************************

 Orbital symmetries:
       Occupied  (A) (A) (A) (A) (A) (A) (A) (A) (A) (A) (A) (A)
                 (A) (A) (A) (A) (A) (A) (A) (A)
       Virtual   (A) (A) (A) (A) (A) (A) (A) (A) (A) (A) (A) (A)
                 (A) (A) (A) (A) (A) (A) (A) (A) (A) (A) (A) (A)
                 (A) (A) (A) (A) (A) (A) (A) (A) (A) (A) (A) (A)
                 (A) (A) (A) (A) (A) (A) (A) (A) (A) (A) (A) (A)
                 (A) (A) (A) (A) (A) (A) (A) (A) (A) (A) (A) (A)
                 (A) (A) (A) (A) (A) (A) (A) (A) (A) (A) (A) (A)
                 (A) (A) (A) (A) (A) (A) (A) (A) (A) (A) (A) (A)
                 (A) (A) (A) (A) (A) (A) (A) (A) (A) (A) (A) (A)
                 (A) (A) (A) (A) (A) (A) (A) (A) (A) (A) (A) (A)
                 (A) (A) (A) (A) (A) (A) (A) (A) (A) (A) (A) (A)
                 (A) (A) (A) (A) (A) (A) (A) (A) (A) (A) (A) (A)
                 (A) (A) (A) (A) (A) (A) (A) (A) (A) (A) (A) (A)
                 (A) (A) (A) (A) (A) (A) (A) (A) (A) (A) (A) (A)
                 (A) (A) (A) (A) (A) (A) (A) (A) (A) (A) (A) (A)
                 (A) (A) (A) (A) (A) (A) (A) (A) (A) (A) (A) (A)
                 (A) (A) (A) (A) (A) (A) (A) (A) (A) (A) (A) (A)
                 (A) (A) (A) (A) (A) (A) (A) (A) (A) (A) (A) (A)
                 (A) (A) (A) (A) (A) (A) (A) (A) (A) (A)
 The electronic state is 1-A.
 Alpha  occ. eigenvalues --  -19.65337 -19.65149 -10.59509 -10.58517 -10.58386
 Alpha  occ. eigenvalues --   -1.17900  -1.16328  -0.85165  -0.79214  -0.68170
 Alpha  occ. eigenvalues --   -0.59960  -0.59337  -0.54249  -0.50278  -0.47730
 Alpha  occ. eigenvalues --   -0.46932  -0.45901  -0.40729  -0.40137  -0.27272
 Alpha virt. eigenvalues --    0.05687   0.07681   0.08363   0.09898   0.13148
 Alpha virt. eigenvalues --    0.14229   0.14609   0.16461   0.23412   0.26637
 Alpha virt. eigenvalues --    0.29361   0.30236   0.33826   0.34557   0.38148
 Alpha virt. eigenvalues --    0.39211   0.41401   0.42370   0.43358   0.44565
 Alpha virt. eigenvalues --    0.46974   0.48283   0.49446   0.51316   0.53049
 Alpha virt. eigenvalues --    0.53355   0.55626   0.57305   0.62044   0.63495
 Alpha virt. eigenvalues --    0.63706   0.69169   0.70661   0.71230   0.74839
 Alpha virt. eigenvalues --    0.74987   0.78678   0.81053   0.81629   0.86790
 Alpha virt. eigenvalues --    0.89625   0.89939   0.98405   0.98665   1.00594
 Alpha virt. eigenvalues --    1.01732   1.03758   1.04034   1.10185   1.12163
 Alpha virt. eigenvalues --    1.14345   1.16753   1.19699   1.20653   1.23995
 Alpha virt. eigenvalues --    1.26267   1.29610   1.31501   1.35019   1.35998
 Alpha virt. eigenvalues --    1.37375   1.39720   1.41485   1.47362   1.48825
 Alpha virt. eigenvalues --    1.49574   1.57668   1.59071   1.74649   1.76366
 Alpha virt. eigenvalues --    1.79845   1.87681   1.92154   1.92905   1.97452
 Alpha virt. eigenvalues --    2.03816   2.09860   2.14240   2.15619   2.21819
 Alpha virt. eigenvalues --    2.23344   2.30328   2.30816   2.32852   2.35993
 Alpha virt. eigenvalues --    2.43457   2.50836   2.53339   2.54346   2.55837
 Alpha virt. eigenvalues --    2.61904   2.63840   2.66573   2.73584   2.75773
 Alpha virt. eigenvalues --    2.77101   2.78006   2.82150   2.83771   2.85309
 Alpha virt. eigenvalues --    2.86007   2.89187   2.92875   2.95361   2.96608
 Alpha virt. eigenvalues --    3.00033   3.03166   3.04304   3.07308   3.09846
 Alpha virt. eigenvalues --    3.10704   3.14407   3.17501   3.20484   3.22114
 Alpha virt. eigenvalues --    3.22372   3.23416   3.26129   3.30632   3.30924
 Alpha virt. eigenvalues --    3.33868   3.35885   3.36190   3.36840   3.41819
 Alpha virt. eigenvalues --    3.43885   3.45656   3.49851   3.52777   3.54559
 Alpha virt. eigenvalues --    3.58197   3.61160   3.62096   3.69071   3.72564
 Alpha virt. eigenvalues --    3.73784   3.74140   3.78311   3.79134   3.80850
 Alpha virt. eigenvalues --    3.81520   3.83739   3.88040   3.88513   3.94797
 Alpha virt. eigenvalues --    3.95935   3.98621   4.00618   4.03302   4.04363
 Alpha virt. eigenvalues --    4.07562   4.12648   4.13867   4.22652   4.24090
 Alpha virt. eigenvalues --    4.26903   4.29601   4.39397   4.45691   4.46332
 Alpha virt. eigenvalues --    4.55307   4.58062   4.58834   4.63905   4.70969
 Alpha virt. eigenvalues --    4.75162   4.78996   4.82416   4.86176   4.89209
 Alpha virt. eigenvalues --    4.90314   4.94164   4.99575   5.00908   5.02953
 Alpha virt. eigenvalues --    5.04582   5.09489   5.20257   5.26237   5.28427
 Alpha virt. eigenvalues --    5.36240   5.41899   5.48302   5.50707   5.61136
 Alpha virt. eigenvalues --    5.70726   5.71931   5.79138   5.79169   5.87454
 Alpha virt. eigenvalues --    5.97346   6.02013   6.16907   6.26910   6.31529
 Alpha virt. eigenvalues --    6.39146   6.47689   6.58140   6.69245   6.70188
 Alpha virt. eigenvalues --    6.75969   6.76761   6.82437   6.87646   7.03214
 Alpha virt. eigenvalues --    7.12040   7.23845   7.28196   7.32262  10.46087
 Alpha virt. eigenvalues --   10.92539  11.65615  12.96177  13.96450
          Condensed to atoms (all electrons):
               1          2          3          4          5          6
     1  O    7.814092   0.003240   0.305810   0.362180  -0.072452  -0.028605
     2  O    0.003240   7.797047  -0.000054  -0.069291   0.343732  -0.000002
     3  C    0.305810  -0.000054   4.767343  -0.084886  -0.025078   0.394055
     4  C    0.362180  -0.069291  -0.084886   4.994386   0.516255   0.005543
     5  C   -0.072452   0.343732  -0.025078   0.516255   4.963412   0.001056
     6  H   -0.028605  -0.000002   0.394055   0.005543   0.001056   0.572201
     7  H   -0.046313  -0.000406   0.392574  -0.004479   0.005975  -0.028489
     8  H   -0.046690  -0.000448   0.387703  -0.002117   0.005601  -0.030383
     9  H   -0.032810  -0.003104   0.007396   0.427931  -0.076225  -0.000265
    10  H   -0.005526  -0.032867   0.004049  -0.076278   0.426575  -0.000219
    11  H    0.000170   0.326237   0.000108  -0.006716  -0.052128   0.000008
               7          8          9         10         11
     1  O   -0.046313  -0.046690  -0.032810  -0.005526   0.000170
     2  O   -0.000406  -0.000448  -0.003104  -0.032867   0.326237
     3  C    0.392574   0.387703   0.007396   0.004049   0.000108
     4  C   -0.004479  -0.002117   0.427931  -0.076278  -0.006716
     5  C    0.005975   0.005601  -0.076225   0.426575  -0.052128
     6  H   -0.028489  -0.030383  -0.000265  -0.000219   0.000008
     7  H    0.677954  -0.083687  -0.000127  -0.000031  -0.000074
     8  H   -0.083687   0.673955  -0.000038  -0.000848  -0.000073
     9  H   -0.000127  -0.000038   0.535128   0.002518   0.004390
    10  H   -0.000031  -0.000848   0.002518   0.508051   0.007006
    11  H   -0.000074  -0.000073   0.004390   0.007006   0.457622
 Mulliken charges:
               1
     1  O   -0.253096
     2  O   -0.364084
     3  C   -0.149020
     4  C   -0.062529
     5  C   -0.036722
     6  H    0.115100
     7  H    0.087102
     8  H    0.097025
     9  H    0.135205
    10  H    0.167570
    11  H    0.263449
 Sum of Mulliken charges =  -0.00000
 Mulliken charges with hydrogens summed into heavy atoms:
               1
     1  O   -0.253096
     2  O   -0.100635
     3  C    0.150207
     4  C    0.072676
     5  C    0.130848
 APT charges:
               1
     1  O   -0.147993
     2  O   -0.469507
     3  C   -0.884555
     4  C   -0.400162
     5  C   -0.328248
     6  H    0.521226
     7  H    0.236205
     8  H    0.239711
     9  H    0.387701
    10  H    0.316667
    11  H    0.528955
 Sum of APT charges =  -0.00000
 APT charges with hydrogens summed into heavy atoms:
               1
     1  O   -0.147993
     2  O    0.059448
     3  C    0.112587
     4  C   -0.012461
     5  C   -0.011581
 Electronic spatial extent (au):  <R**2>=            491.2206
 Charge=             -0.0000 electrons
 Dipole moment (field-independent basis, Debye):
    X=              0.2483    Y=              0.0759    Z=             -0.0314  Tot=              0.2615
 Quadrupole moment (field-independent basis, Debye-Ang):
   XX=            -30.3798   YY=            -28.0866   ZZ=            -32.3791
   XY=             -7.2608   XZ=             -0.0545   YZ=              0.0068
 Traceless Quadrupole moment (field-independent basis, Debye-Ang):
   XX=             -0.0979   YY=              2.1952   ZZ=             -2.0973
   XY=             -7.2608   XZ=             -0.0545   YZ=              0.0068
 Octapole moment (field-independent basis, Debye-Ang**2):
  XXX=              3.2011  YYY=              3.0672  ZZZ=             -0.0576  XYY=             -6.0441
  XXY=              7.9741  XXZ=             -0.1771  XZZ=             -0.1219  YZZ=             -0.2645
  YYZ=             -0.0449  XYZ=              0.0426
 Hexadecapole moment (field-independent basis, Debye-Ang**3):
 XXXX=           -428.7592 YYYY=           -107.2563 ZZZZ=            -39.9269 XXXY=            -34.7034
 XXXZ=             -0.4086 YYYX=             -0.6113 YYYZ=              0.1266 ZZZX=             -0.0442
 ZZZY=              0.0599 XXYY=            -92.4963 XXZZ=            -85.9720 YYZZ=            -26.0597
 XXYZ=              0.0592 YYXZ=             -0.0509 ZZXY=              0.3801
 N-N= 1.753908545816D+02 E-N=-9.790039713536D+02  KE= 2.666740682162D+02
  Exact polarizability:   0.000   0.000   0.000   0.000   0.000   0.000
 Approx polarizability:  60.640   5.434  57.724  -0.082  -0.292  39.008
 No NMR shielding tensors so no spin-rotation constants.
 Leave Link  601 at Wed Sep 25 10:54:08 2019, MaxMem=   671088640 cpu:              50.2 elap:              25.1
 (Enter /shared/centos7/gaussian/g16/l701.exe)
 SCFChk:  SCF convergence  2.81D-09 required  1.00D-08
 ... and contract with generalized density number  0.
 Compute integral second derivatives.
 Entering OneElI...
 Calculate overlap and kinetic energy integrals
    NBasis = 265  MinDer = 2  MaxDer = 2
 Requested accuracy = 0.1000D-12
 PrmmSu-InSpLW:  IPartL=    0 NPrtUS=   20 NPrtUL=    1 DoSpLW=F IThBeg=    0 IThEnd=   19 NThAct=   20.
 PrsmSu:  NPrtUS=  20 ThrOK=T IAlg=1 NPAlg=1 LenDen=           0 ISkipM=0 DoSpLW=F IThBeg=    0 IThEnd=   19.
 Prism:   IPart=     0 DynPar=F LinDyn=F Incr=           1.
 PRISM was handed    33439232 working-precision words and  3726 shell-pairs
 PRISM was handed    33439232 working-precision words and  3726 shell-pairs
 PRISM was handed    33439232 working-precision words and  3726 shell-pairs
 PRISM was handed    33439232 working-precision words and  3726 shell-pairs
 PRISM was handed    33439232 working-precision words and  3726 shell-pairs
 PRISM was handed    33439232 working-precision words and  3726 shell-pairs
 PRISM was handed    33439232 working-precision words and  3726 shell-pairs
 PRISM was handed    33439232 working-precision words and  3726 shell-pairs
 PRISM was handed    33439232 working-precision words and  3726 shell-pairs
 PRISM was handed    33439232 working-precision words and  3726 shell-pairs
 PRISM was handed    33439232 working-precision words and  3726 shell-pairs
 PRISM was handed    33439232 working-precision words and  3726 shell-pairs
 PRISM was handed    33439232 working-precision words and  3726 shell-pairs
 PRISM was handed    33439232 working-precision words and  3726 shell-pairs
 PRISM was handed    33439232 working-precision words and  3726 shell-pairs
 PRISM was handed    33439232 working-precision words and  3726 shell-pairs
 PRISM was handed    33439232 working-precision words and  3726 shell-pairs
 PRISM was handed    33439232 working-precision words and  3726 shell-pairs
 IPart= 16 NShTot=         164 NBatch=          25 AvBLen=         6.6
 IPart= 12 NShTot=         175 NBatch=          27 AvBLen=         6.5
 IPart=  6 NShTot=         194 NBatch=          38 AvBLen=         5.1
 PRISM was handed    33439232 working-precision words and  3726 shell-pairs
 PRISM was handed    33439232 working-precision words and  3726 shell-pairs
 IPart= 10 NShTot=         179 NBatch=          28 AvBLen=         6.4
 IPart=  7 NShTot=         190 NBatch=          34 AvBLen=         5.6
 IPart= 19 NShTot=         163 NBatch=          25 AvBLen=         6.5
 IPart= 17 NShTot=         164 NBatch=          25 AvBLen=         6.6
 IPart=  1 NShTot=         220 NBatch=          60 AvBLen=         3.7
 IPart=  2 NShTot=         214 NBatch=          55 AvBLen=         3.9
 IPart=  3 NShTot=         212 NBatch=          53 AvBLen=         4.0
 IPart=  9 NShTot=         182 NBatch=          28 AvBLen=         6.5
 IPart=  4 NShTot=         205 NBatch=          47 AvBLen=         4.4
 IPart=  0 NShTot=         224 NBatch=          64 AvBLen=         3.5
 IPart= 18 NShTot=         164 NBatch=          25 AvBLen=         6.6
 IPart=  8 NShTot=         185 NBatch=          29 AvBLen=         6.4
 IPart= 11 NShTot=         178 NBatch=          28 AvBLen=         6.4
 IPart= 15 NShTot=         170 NBatch=          25 AvBLen=         6.8
 IPart= 14 NShTot=         173 NBatch=          27 AvBLen=         6.4
 IPart=  5 NShTot=         196 NBatch=          40 AvBLen=         4.9
 IPart= 13 NShTot=         174 NBatch=          27 AvBLen=         6.4
 PrSmSu:  NxtVal=             21.
 Entering OneElI...
 Calculate potential energy integrals
    NBasis = 265  MinDer = 2  MaxDer = 2
 Requested accuracy = 0.1000D-12
 PrmmSu-InSpLW:  IPartL=    0 NPrtUS=   20 NPrtUL=    1 DoSpLW=F IThBeg=    0 IThEnd=   19 NThAct=   20.
 PrsmSu:  NPrtUS=  20 ThrOK=T IAlg=1 NPAlg=1 LenDen=           0 ISkipM=0 DoSpLW=F IThBeg=    0 IThEnd=   19.
 Prism:   IPart=     0 DynPar=F LinDyn=F Incr=          19.
 PRISM was handed    33455423 working-precision words and  3534 shell-pairs
 PRISM was handed    33455423 working-precision words and  3534 shell-pairs
 PRISM was handed    33455423 working-precision words and  3534 shell-pairs
 PRISM was handed    33455423 working-precision words and  3534 shell-pairs
 PRISM was handed    33455423 working-precision words and  3534 shell-pairs
 PRISM was handed    33455423 working-precision words and  3534 shell-pairs
 PRISM was handed    33455423 working-precision words and  3534 shell-pairs
 PRISM was handed    33455423 working-precision words and  3534 shell-pairs
 PRISM was handed    33455423 working-precision words and  3534 shell-pairs
 PRISM was handed    33455423 working-precision words and  3534 shell-pairs
 PRISM was handed    33455423 working-precision words and  3534 shell-pairs
 PRISM was handed    33455423 working-precision words and  3534 shell-pairs
 PRISM was handed    33455423 working-precision words and  3534 shell-pairs
 PRISM was handed    33455423 working-precision words and  3534 shell-pairs
 PRISM was handed    33455423 working-precision words and  3534 shell-pairs
 PRISM was handed    33455423 working-precision words and  3534 shell-pairs
 PRISM was handed    33455423 working-precision words and  3534 shell-pairs
 PRISM was handed    33455423 working-precision words and  3534 shell-pairs
 PRISM was handed    33455423 working-precision words and  3534 shell-pairs
 PRISM was handed    33455423 working-precision words and  3534 shell-pairs
 IPart= 16 NShTot=        1771 NBatch=         161 AvBLen=        11.0
 IPart= 17 NShTot=        1760 NBatch=         160 AvBLen=        11.0
 IPart=  1 NShTot=        2310 NBatch=         210 AvBLen=        11.0
 IPart= 19 NShTot=        1760 NBatch=         160 AvBLen=        11.0
 IPart= 10 NShTot=        1870 NBatch=         170 AvBLen=        11.0
 IPart=  2 NShTot=        2244 NBatch=         204 AvBLen=        11.0
 IPart= 12 NShTot=        1826 NBatch=         166 AvBLen=        11.0
 IPart=  7 NShTot=        1914 NBatch=         174 AvBLen=        11.0
 IPart=  6 NShTot=        1958 NBatch=         178 AvBLen=        11.0
 IPart= 18 NShTot=        1760 NBatch=         160 AvBLen=        11.0
 IPart= 14 NShTot=        1793 NBatch=         163 AvBLen=        11.0
 IPart= 15 NShTot=        1771 NBatch=         161 AvBLen=        11.0
 IPart=  3 NShTot=        2178 NBatch=         198 AvBLen=        11.0
 IPart=  8 NShTot=        1903 NBatch=         173 AvBLen=        11.0
 IPart=  0 NShTot=        2387 NBatch=         217 AvBLen=        11.0
 IPart=  9 NShTot=        1892 NBatch=         172 AvBLen=        11.0
 IPart=  4 NShTot=        2112 NBatch=         192 AvBLen=        11.0
 IPart= 13 NShTot=        1826 NBatch=         166 AvBLen=        11.0
 IPart= 11 NShTot=        1848 NBatch=         168 AvBLen=        11.0
 IPart=  5 NShTot=        1991 NBatch=         181 AvBLen=        11.0
 PrSmSu:  NxtVal=            381.
 Polarizability after L701:
                1             2             3 
      1  0.000000D+00
      2  0.000000D+00  0.000000D+00
      3  0.000000D+00  0.000000D+00  0.000000D+00
 Dipole Derivatives after L701:
                 1             2             3             4             5 
      1  -0.859752D-01  0.156528D+00  0.582582D-02 -0.289613D+00  0.141791D+01
      2   0.240744D+00 -0.105452D+00  0.176311D-02  0.312984D+00 -0.724604D+00
      3   0.456008D-03 -0.277836D-03 -0.252552D+00 -0.815673D-03  0.172079D-02
                 6             7             8             9            10 
      1  -0.139570D-02 -0.100035D+01  0.477116D+00 -0.251461D-01 -0.504411D+00
      2   0.109652D-02  0.662154D-01 -0.849504D+00  0.201792D-01  0.563919D-02
      3  -0.394305D+00  0.143320D-02  0.169467D-02 -0.803808D+00 -0.172353D-02
                11            12            13            14            15 
      1  -0.519391D-01 -0.381842D-02 -0.374595D+00 -0.289280D+00  0.237310D-02
      2  -0.729342D+00  0.733598D-03 -0.803037D-01 -0.644846D+00  0.177676D-03
      3  -0.206432D-02  0.332663D-01 -0.692218D-03  0.330288D-02  0.346983D-01
                16            17            18            19            20 
      1   0.133149D+01  0.643282D-01 -0.229386D-01 -0.545961D-01 -0.296193D+00
      2  -0.200118D+00  0.134607D+00  0.531157D-02  0.108057D+00  0.343964D+00
      3  -0.693559D-02  0.146576D-03  0.975848D-01 -0.884288D-01 -0.164947D+00
                21            22            23            24            25 
      1   0.334279D+00 -0.516603D-01 -0.293650D+00 -0.291290D+00  0.221739D+00
      2  -0.260113D+00  0.118005D+00  0.354246D+00  0.233791D+00 -0.255641D+00
      3   0.419248D+00  0.963827D-01  0.164301D+00  0.416547D+00 -0.499985D-04
                26            27            28            29            30 
      1  -0.193330D+00  0.549014D-03  0.106495D+00  0.210507D+00 -0.533256D-03
      2   0.867756D+00 -0.216637D-02 -0.208547D+00  0.744885D+00 -0.246287D-03
      3  -0.262705D-03  0.736077D-01 -0.192160D-03 -0.206818D-02  0.986197D-01
                31            32            33 
      1   0.701485D+00 -0.120199D+01  0.209509D-02
      2  -0.107034D+00  0.608289D+00 -0.527575D-03
      3   0.566030D-03 -0.154600D-02  0.277092D+00
 Hessian after L701:
                1             2             3             4             5 
      1  0.370646D+01
      2  0.246257D+01  0.870549D+01
      3  0.235191D-02 -0.641065D-01  0.151806D+02
      4  0.456130D+00  0.198448D+00  0.138604D-02  0.283484D+01
      5  0.236328D+00 -0.165222D+00  0.567906D-03  0.120902D+01  0.870026D+01
      6  0.100513D-02  0.322156D-03 -0.206294D+00 -0.273526D-01  0.510695D-02
      7 -0.560768D+01 -0.311529D+01 -0.290572D-01  0.206994D+00 -0.105688D-01
      8 -0.286128D+01 -0.462614D-01  0.375759D-01 -0.552223D-02 -0.122312D+00
      9 -0.250196D-01  0.450747D-01 -0.761949D+01 -0.123937D-02 -0.241389D-03
     10  0.110544D+01 -0.359829D+00  0.329439D-01  0.424360D-01  0.335436D+00
     11 -0.560287D+00 -0.822404D+01  0.924980D-02  0.217834D+00 -0.705727D-02
     12  0.256082D-01  0.782444D-02 -0.836266D+01 -0.229458D-02  0.398781D-03
     13  0.971844D-01  0.376235D+00 -0.939580D-02  0.106646D+01 -0.285729D+00
     14  0.381804D+00  0.154816D+00 -0.156401D-02 -0.410496D+00 -0.774129D+01
     15 -0.582353D-02 -0.112187D-02  0.199780D+00  0.268441D-01  0.221617D-02
     16  0.202033D+00  0.445258D-01 -0.363428D-03  0.328378D-01  0.678436D-02
     17  0.102872D+00 -0.151038D+00 -0.293478D-02 -0.435042D-03 -0.693064D-02
     18 -0.179453D-02 -0.742060D-03  0.145961D-01 -0.555032D-03 -0.108215D-03
     19  0.899799D-01  0.142706D+00 -0.323667D-01  0.187496D-01 -0.462930D-02
     20  0.837678D-01 -0.228763D+00 -0.187384D+00 -0.230359D-01 -0.160127D-01
     21 -0.314818D-01 -0.144877D+00  0.383272D+00  0.302701D-01 -0.250195D-02
     22  0.958962D-01  0.145842D+00  0.351302D-01  0.183215D-01 -0.440726D-02
     23  0.857584D-01 -0.236741D+00  0.210573D+00 -0.237350D-01 -0.162553D-01
     24  0.352586D-01  0.158673D+00  0.401494D+00 -0.292974D-01  0.265958D-02
     25 -0.187111D+00  0.816152D-01  0.253761D-03 -0.234709D-01  0.256442D-01
     26  0.377719D-01  0.136974D+00 -0.688359D-03  0.702740D-01  0.797417D-01
     27  0.400140D-03 -0.333829D-03  0.581776D-01 -0.242276D-03 -0.289642D-03
     28 -0.110884D-01  0.232255D-01 -0.108474D-02 -0.181429D+00  0.103549D+00
     29  0.775493D-01  0.749207D-01 -0.112145D-02  0.586988D-01  0.106019D+00
     30 -0.711224D-03 -0.713742D-03 -0.314217D-01 -0.515045D-03  0.564274D-04
     31  0.527559D-01 -0.412203D-04  0.202135D-03 -0.447187D+01 -0.161143D+01
     32 -0.468501D-01 -0.201392D-01 -0.167517D-03 -0.129105D+01 -0.810945D+00
     33  0.206741D-03  0.109831D-05 -0.180991D-01  0.299611D-02 -0.786462D-02
                6             7             8             9            10 
      6  0.132472D+02
      7  0.947290D-03  0.127957D+02
      8 -0.254634D-03  0.255747D+01  0.902493D+01
      9 -0.125733D+00  0.619334D-01 -0.229363D-02  0.151311D+02
     10 -0.601781D-02  0.262459D+00 -0.232557D+00 -0.864592D-02  0.706957D+01
     11 -0.117368D-02 -0.125134D+00  0.727912D-03  0.746565D-02 -0.269206D+01
     12  0.167698D+00 -0.895584D-02  0.894104D-02  0.656665D-01 -0.290705D-01
     13  0.292263D-01  0.195628D+00  0.197568D-01 -0.129394D-01 -0.518399D+01
     14  0.344039D-02 -0.817106D-01 -0.193062D+00  0.251914D-02  0.409132D+01
     15 -0.784819D+01 -0.128762D-01  0.310886D-02 -0.129513D+00  0.114681D-01
     16 -0.116967D-03 -0.109761D+01  0.174893D-01 -0.368947D-01  0.156673D+00
     17  0.218154D-04 -0.590683D-01 -0.325894D+01  0.148882D-02 -0.605728D-01
     18 -0.783429D-02 -0.370373D-01 -0.674791D-03 -0.326688D+01 -0.235376D-02
     19  0.184982D-01 -0.336468D+01  0.270412D+00 -0.361815D+00 -0.237816D-01
     20 -0.819470D-02  0.415413D+00 -0.264666D+01 -0.122910D+01 -0.296802D-01
     21 -0.478813D-02 -0.525341D+00 -0.112279D+01 -0.180464D+01  0.182398D-02
     22 -0.192759D-01 -0.350126D+01  0.297248D+00  0.386214D+00 -0.178814D-01
     23  0.850645D-02  0.453042D+00 -0.281603D+01  0.117509D+01 -0.425902D-01
     24 -0.489431D-02  0.551355D+00  0.107684D+01 -0.212075D+01 -0.289942D-02
     25 -0.800910D-04  0.511695D-01 -0.108417D+00 -0.549085D-03 -0.360532D+01
     26 -0.999665D-04 -0.121718D+00  0.798707D-01  0.797011D-03 -0.865792D+00
     27 -0.476033D-01  0.328531D-05 -0.167875D-04 -0.466070D-01  0.267087D-02
     28 -0.215254D-03  0.389787D-01  0.490088D-01 -0.811474D-03  0.249058D+00
     29 -0.383931D-03  0.111893D+00 -0.155913D-01 -0.118081D-02 -0.128816D+00
     30  0.524268D-01 -0.102240D-02 -0.422232D-03 -0.753493D-01  0.300187D-03
     31  0.338163D-02  0.202674D-01 -0.360503D-02 -0.232450D-03 -0.546584D-01
     32 -0.729085D-02 -0.243222D-01 -0.667642D-02  0.386062D-03 -0.148574D-01
     33 -0.522200D+01  0.504585D-04 -0.136817D-04 -0.784973D-02 -0.219520D-03
               11            12            13            14            15 
     11  0.137323D+02
     12 -0.702472D-02  0.243823D+02
     13  0.422830D+01  0.125427D-01  0.702748D+01
     14 -0.350388D+01 -0.160878D-02 -0.302222D+01  0.133786D+02
     15 -0.188797D-02 -0.124076D+02 -0.310790D-01  0.796614D-02  0.242337D+02
     16 -0.596086D-01 -0.192151D-02  0.680548D-01  0.344954D-02 -0.382624D-03
     17 -0.249144D-01  0.485982D-03  0.900143D-03 -0.205302D-01  0.245635D-04
     18  0.737786D-03 -0.388447D-01 -0.119946D-02  0.107983D-03 -0.166305D-01
     19 -0.124084D-01 -0.245992D-01  0.102452D+00 -0.960666D-01 -0.419760D-01
     20  0.233185D-01  0.142236D-01 -0.122182D+00 -0.672877D-02  0.232866D-02
     21 -0.986817D-02 -0.292568D-01  0.178419D-01 -0.243446D-01 -0.932575D-01
     22 -0.230645D-01  0.253901D-01  0.105613D+00 -0.933961D-01  0.523310D-01
     23  0.250396D-01 -0.167490D-01 -0.121301D+00 -0.937247D-02 -0.750843D-02
     24  0.807309D-02 -0.393667D-01 -0.718120D-02  0.195478D-01 -0.100205D+00
     25 -0.866066D+00  0.309573D-02  0.239320D+00 -0.112327D+00 -0.872508D-04
     26 -0.162729D+01 -0.793180D-02 -0.121857D+00 -0.350567D+00  0.124598D-03
     27 -0.679474D-02 -0.395766D+01 -0.141563D-03 -0.477762D-03  0.214914D+00
     28 -0.176122D+00  0.237692D-03 -0.385630D+01 -0.779619D+00  0.164594D-02
     29 -0.380646D+00  0.169235D-02 -0.925190D+00 -0.175085D+01 -0.548749D-02
     30  0.108870D-02  0.226268D+00  0.200681D-02 -0.598654D-02 -0.414292D+01
     31  0.686138D-01 -0.327366D-04  0.138102D+00  0.119262D+00 -0.644193D-04
     32 -0.135282D-01 -0.251942D-03 -0.267178D-01  0.429055D-01  0.236782D-03
     33  0.134252D-03 -0.651318D-02  0.318705D-03  0.400191D-03  0.899829D-01
               16            17            18            19            20 
     16  0.781341D+00
     17  0.163398D+00  0.336048D+01
     18  0.504918D-01  0.164165D-02  0.328360D+01
     19 -0.657005D-01 -0.697237D-01  0.117968D+00  0.295990D+01
     20 -0.795093D-01  0.469030D-01  0.501704D-01 -0.237977D+00  0.253033D+01
     21  0.112523D+00  0.397345D-01  0.116509D-01  0.361996D+00  0.130615D+01
     22 -0.848425D-01 -0.780201D-01 -0.125294D+00  0.282400D+00  0.436933D-02
     23 -0.914322D-01  0.543201D-01 -0.512456D-01  0.376482D-02  0.298105D+00
     24 -0.123342D+00 -0.404665D-01  0.243641D-01 -0.392692D-01  0.564249D-01
     25  0.328864D-02  0.169350D-02 -0.101953D-03 -0.615000D-03 -0.563339D-02
     26 -0.917238D-02  0.350469D-03  0.189031D-03 -0.273384D-02  0.937088D-02
     27  0.294155D-04  0.377872D-05 -0.797543D-03  0.106502D-02 -0.190834D-02
     28 -0.118930D-02 -0.239497D-03 -0.424787D-04  0.696377D-03 -0.232786D-02
     29  0.119429D-01  0.298835D-03 -0.210427D-03  0.868459D-02 -0.143327D-01
     30 -0.316543D-04  0.130004D-05 -0.268337D-02 -0.828104D-04 -0.231330D-02
     31  0.511732D-02 -0.804633D-03 -0.817888D-04  0.604923D-03 -0.320512D-02
     32 -0.786753D-02 -0.181175D-05  0.134246D-03 -0.202891D-02  0.447228D-02
     33  0.797902D-05 -0.112873D-05 -0.545459D-03  0.581666D-03 -0.394683D-03
               21            22            23            24            25 
     21  0.205674D+01
     22  0.209552D-01  0.310209D+01
     23 -0.384619D-01 -0.251657D+00  0.269909D+01
     24 -0.510797D+00 -0.375109D+00 -0.128514D+01  0.235880D+01
     25  0.361901D-02 -0.480647D-03 -0.641905D-02 -0.360137D-02  0.351029D+01
     26 -0.728687D-02 -0.331046D-02  0.103564D-01  0.711129D-02  0.982158D+00
     27 -0.129502D-02 -0.119313D-02  0.211673D-02 -0.153247D-02 -0.260306D-02
     28  0.470876D-02 -0.456233D-03 -0.213634D-02 -0.303435D-02 -0.125633D-01
     29  0.929397D-02  0.837825D-02 -0.131054D-01 -0.838396D-02 -0.802213D-02
     30 -0.713546D-02  0.144105D-02  0.243216D-02 -0.657936D-02 -0.396240D-05
     31  0.308411D-02  0.595902D-03 -0.329505D-02 -0.287996D-02  0.254879D-01
     32 -0.505026D-02 -0.198167D-02  0.458918D-02  0.466854D-02  0.157737D-01
     33 -0.495629D-03 -0.589435D-03  0.394622D-03 -0.533533D-03  0.582713D-04
               26            27            28            29            30 
     26  0.162739D+01
     27  0.776040D-02  0.380561D+01
     28 -0.834825D-02 -0.158548D-05  0.374261D+01
     29  0.556633D-01 -0.108032D-03  0.859976D+00  0.187713D+01
     30 -0.523368D-04 -0.298775D-02 -0.158780D-02  0.615303D-02  0.401212D+01
     31  0.427269D-01  0.128912D-04  0.316853D-01 -0.750941D-01  0.206857D-03
     32 -0.218605D-01  0.482209D-04 -0.669659D-01  0.604952D-01 -0.243462D-03
     33  0.770094D-04 -0.202229D-01  0.185290D-03 -0.263235D-03 -0.217301D-01
               31            32            33 
     31  0.425191D+01
     32  0.146687D+01  0.760689D+00
     33 -0.359626D-02  0.753017D-02  0.520801D+01
 Leave Link  701 at Wed Sep 25 10:54:33 2019, MaxMem=   671088640 cpu:              48.2 elap:              24.1
 (Enter /shared/centos7/gaussian/g16/l702.exe)
 L702 exits ... SP integral derivatives will be done elsewhere.
 Leave Link  702 at Wed Sep 25 10:54:34 2019, MaxMem=   671088640 cpu:               2.3 elap:               1.2
 (Enter /shared/centos7/gaussian/g16/l703.exe)
 Integral derivatives from FoFJK, PRISM(SPDF).
 Compute integral second derivatives, UseDBF=F ICtDFT=           0.
 ICntrl=    100147.
 Calling FoFJK, ICntrl=    100147 FMM=F ISym2X=0 I1Cent= 0 IOpClX= 0 NMat=1 NMatS=1 NMatT=0.
 FoFJK:  IHMeth= 1 ICntrl=  100147 DoSepK=F KAlg= 0 I1Cent=           0 FoldK=F
 IRaf=         0 NMat=       1 IRICut=       1 DoRegI=T DoRafI=F ISym2E= 0 IDoP0=0 IntGTp=1.
 FoFCou: FMM=F IPFlag=           0 FMFlag=      100000 FMFlg1=         800
         NFxFlg=           0 DoJE=F BraDBF=F KetDBF=F FulRan=T
         wScrn=  0.000000 ICntrl=    100147 IOpCl=  0 I1Cent=           0 NGrid=           0
         NMat0=    1 NMatS0=      1 NMatT0=    0 NMatD0=    1 NMtDS0=    0 NMtDT0=    0
 Symmetry not used in FoFCou.
 FoFCou:  KetSym=F NOpSet=  1 NOpAb=1 NOp=  1.
 FoFCou:  CnvScl= 1.00D+00 Thresh= 1.00D-08 IAcrcy=      12.
 PrismS was handed   670741550 working-precision words and  3627 shell-pairs
 FoFCou: LinMIO=F DoNuc=F BraDBF=F KetDBF=F HaveP=T PDBF=F HaveZ=T HaveW=F
         NIJTC =      10 NIJTAt=       0 NIJTCD=       0 NIJTT =      10
         IJTBeg=       1 IJTEnd=      10 KLTBeg=       1 KLTEnd=      10
         IPTBeg=       1 IPTEnd=      10 IPTBCv=       1 IPTECv=      10
         IZTBeg=       1 IZTEnd=      10 IZTBCv=       1 IZTECv=      10
         IWTBeg=      11 IWTEnd=      10 IWTBCv=      11 IWTECv=      10
         INTBeg=       1 INTEnd=       0 IFTBCv=       1 IFTECv=      10
 NCel replicated for PrismC:     1
 CoulSu-InSpLW:  IPartL=    0 NPrtUS=   20 NPrtUL=    1 DoSpLW=F IThBeg=    0 IThEnd=   19 NThAct=   20.
 CoulSu:  IncDef=  1024 NBBP=        6579378 NTPThr=   100 NPartT=   20 Incr=        1024 LDynOK=F GPUOK=T.
 CoulSu:  NPrtUS=  20 ThrOK=T IAlg=1 NPAlg=1 LenDen=           0 LWGrdD=           0 DoCopy=F ISkipM=0
          DoSpLW=F IThBeg=    0 IThEnd=   19.
 Enter PrismC:  IPart=  0 JobTyp=22 DoJE=F Cont=F.
 PrismC:  IPart=     0 DynPar=T LinDyn=F Incr=        1024 UseFst=F UseS4=T ISplat=2.
 PrismC was handed    33456624 working-precision words and  3627 shell-pairs
 Enter PrismC:  IPart=  1 JobTyp=22 DoJE=F Cont=F.
 PrismC:  IPart=     1 DynPar=T LinDyn=F Incr=        1024 UseFst=F UseS4=T ISplat=2.
 PrismC was handed    33456624 working-precision words and  3627 shell-pairs
 Enter PrismC:  IPart=  2 JobTyp=22 DoJE=F Cont=F.
 PrismC:  IPart=     2 DynPar=T LinDyn=F Incr=        1024 UseFst=F UseS4=T ISplat=2.
 Enter PrismC:  IPart=  5 JobTyp=22 DoJE=F Cont=F.
 PrismC was handed    33456624 working-precision words and  3627 shell-pairs
 PrismC:  IPart=     5 DynPar=T LinDyn=F Incr=        1024 UseFst=F UseS4=T ISplat=2.
 PrismC was handed    33456624 working-precision words and  3627 shell-pairs
 Enter PrismC:  IPart=  9 JobTyp=22 DoJE=F Cont=F.
 PrismC:  IPart=     9 DynPar=T LinDyn=F Incr=        1024 UseFst=F UseS4=T ISplat=2.
 PrismC was handed    33456624 working-precision words and  3627 shell-pairs
 Enter PrismC:  IPart=  8 JobTyp=22 DoJE=F Cont=F.
 PrismC:  IPart=     8 DynPar=T LinDyn=F Incr=        1024 UseFst=F UseS4=T ISplat=2.
 PrismC was handed    33456624 working-precision words and  3627 shell-pairs
 Enter PrismC:  IPart= 15 JobTyp=22 DoJE=F Cont=F.
 PrismC:  IPart=    15 DynPar=T LinDyn=F Incr=        1024 UseFst=F UseS4=T ISplat=2.
 PrismC was handed    33456624 working-precision words and  3627 shell-pairs
 Enter PrismC:  IPart= 10 JobTyp=22 DoJE=F Cont=F.
 PrismC:  IPart=    10 DynPar=T LinDyn=F Incr=        1024 UseFst=F UseS4=T ISplat=2.
 PrismC was handed    33456624 working-precision words and  3627 shell-pairs
 Enter PrismC:  IPart= 12 JobTyp=22 DoJE=F Cont=F.
 PrismC:  IPart=    12 DynPar=T LinDyn=F Incr=        1024 UseFst=F UseS4=T ISplat=2.
 PrismC was handed    33456624 working-precision words and  3627 shell-pairs
 Enter PrismC:  IPart= 13 JobTyp=22 DoJE=F Cont=F.
 PrismC:  IPart=    13 DynPar=T LinDyn=F Incr=        1024 UseFst=F UseS4=T ISplat=2.
 PrismC was handed    33456624 working-precision words and  3627 shell-pairs
 Enter PrismC:  IPart=  6 JobTyp=22 DoJE=F Cont=F.
 PrismC:  IPart=     6 DynPar=T LinDyn=F Incr=        1024 UseFst=F UseS4=T ISplat=2.
 PrismC was handed    33456624 working-precision words and  3627 shell-pairs
 Enter PrismC:  IPart= 18 JobTyp=22 DoJE=F Cont=F.
 PrismC:  IPart=    18 DynPar=T LinDyn=F Incr=        1024 UseFst=F UseS4=T ISplat=2.
 PrismC was handed    33456624 working-precision words and  3627 shell-pairs
 Enter PrismC:  IPart=  4 JobTyp=22 DoJE=F Cont=F.
 PrismC:  IPart=     4 DynPar=T LinDyn=F Incr=        1024 UseFst=F UseS4=T ISplat=2.
 PrismC was handed    33456624 working-precision words and  3627 shell-pairs
 Enter PrismC:  IPart=  3 JobTyp=22 DoJE=F Cont=F.
 PrismC:  IPart=     3 DynPar=T LinDyn=F Incr=        1024 UseFst=F UseS4=T ISplat=2.
 PrismC was handed    33456624 working-precision words and  3627 shell-pairs
 Enter PrismC:  IPart= 14 JobTyp=22 DoJE=F Cont=F.
 PrismC:  IPart=    14 DynPar=T LinDyn=F Incr=        1024 UseFst=F UseS4=T ISplat=2.
 PrismC was handed    33456624 working-precision words and  3627 shell-pairs
 Enter PrismC:  IPart= 19 JobTyp=22 DoJE=F Cont=F.
 PrismC:  IPart=    19 DynPar=T LinDyn=F Incr=        1024 UseFst=F UseS4=T ISplat=2.
 PrismC was handed    33456624 working-precision words and  3627 shell-pairs
 Enter PrismC:  IPart= 11 JobTyp=22 DoJE=F Cont=F.
 PrismC:  IPart=    11 DynPar=T LinDyn=F Incr=        1024 UseFst=F UseS4=T ISplat=2.
 PrismC was handed    33456624 working-precision words and  3627 shell-pairs
 Enter PrismC:  IPart= 16 JobTyp=22 DoJE=F Cont=F.
 PrismC:  IPart=    16 DynPar=T LinDyn=F Incr=        1024 UseFst=F UseS4=T ISplat=2.
 PrismC was handed    33456624 working-precision words and  3627 shell-pairs
 Enter PrismC:  IPart=  7 JobTyp=22 DoJE=F Cont=F.
 PrismC:  IPart=     7 DynPar=T LinDyn=F Incr=        1024 UseFst=F UseS4=T ISplat=2.
 PrismC was handed    33456624 working-precision words and  3627 shell-pairs
 Enter PrismC:  IPart= 17 JobTyp=22 DoJE=F Cont=F.
 PrismC:  IPart=    17 DynPar=T LinDyn=F Incr=        1024 UseFst=F UseS4=T ISplat=2.
 PrismC was handed    33456624 working-precision words and  3627 shell-pairs
 IPart= 17 NShTot=      213783 NShNF=      213783 NShFF=           0 MinMC=       7
           NShCPU=      213783 NBCPU=        9358 AvBCPU=        22.8
           NShGPU=           0 NBGPU=           0 AvBGPU=         0.0
 IPart=  6 NShTot=      239234 NShNF=      239234 NShFF=           0 MinMC=       7
           NShCPU=      239234 NBCPU=        9518 AvBCPU=        25.1
           NShGPU=           0 NBGPU=           0 AvBGPU=         0.0
 IPart=  2 NShTot=      245121 NShNF=      245121 NShFF=           0 MinMC=       7
           NShCPU=      245121 NBCPU=       10197 AvBCPU=        24.0
           NShGPU=           0 NBGPU=           0 AvBGPU=         0.0
 IPart=  3 NShTot=      221846 NShNF=      221846 NShFF=           0 MinMC=       7
           NShCPU=      221846 NBCPU=        8917 AvBCPU=        24.9
           NShGPU=           0 NBGPU=           0 AvBGPU=         0.0
 IPart= 18 NShTot=      236491 NShNF=      236491 NShFF=           0 MinMC=       7
           NShCPU=      236491 NBCPU=       10058 AvBCPU=        23.5
           NShGPU=           0 NBGPU=           0 AvBGPU=         0.0
 IPart=  1 NShTot=      219947 NShNF=      219947 NShFF=           0 MinMC=       7
           NShCPU=      219947 NBCPU=        9237 AvBCPU=        23.8
           NShGPU=           0 NBGPU=           0 AvBGPU=         0.0
 IPart= 13 NShTot=      231031 NShNF=      231031 NShFF=           0 MinMC=       7
           NShCPU=      231031 NBCPU=        9452 AvBCPU=        24.4
           NShGPU=           0 NBGPU=           0 AvBGPU=         0.0
 IPart=  0 NShTot=      205304 NShNF=      205304 NShFF=           0 MinMC=       7
           NShCPU=      205304 NBCPU=        8976 AvBCPU=        22.9
           NShGPU=           0 NBGPU=           0 AvBGPU=         0.0
 IPart= 11 NShTot=      224231 NShNF=      224231 NShFF=           0 MinMC=       7
           NShCPU=      224231 NBCPU=        9661 AvBCPU=        23.2
           NShGPU=           0 NBGPU=           0 AvBGPU=         0.0
 IPart= 12 NShTot=      214956 NShNF=      214956 NShFF=           0 MinMC=       7
           NShCPU=      214956 NBCPU=        8766 AvBCPU=        24.5
           NShGPU=           0 NBGPU=           0 AvBGPU=         0.0
 IPart=  7 NShTot=      225565 NShNF=      225565 NShFF=           0 MinMC=       7
           NShCPU=      225565 NBCPU=        9926 AvBCPU=        22.7
           NShGPU=           0 NBGPU=           0 AvBGPU=         0.0
 IPart=  5 NShTot=      236340 NShNF=      236340 NShFF=           0 MinMC=       7
           NShCPU=      236340 NBCPU=        9823 AvBCPU=        24.1
           NShGPU=           0 NBGPU=           0 AvBGPU=         0.0
 IPart= 14 NShTot=      209637 NShNF=      209637 NShFF=           0 MinMC=       7
           NShCPU=      209637 NBCPU=        9410 AvBCPU=        22.3
           NShGPU=           0 NBGPU=           0 AvBGPU=         0.0
 IPart=  4 NShTot=      243725 NShNF=      243725 NShFF=           0 MinMC=       7
           NShCPU=      243725 NBCPU=        9835 AvBCPU=        24.8
           NShGPU=           0 NBGPU=           0 AvBGPU=         0.0
 IPart= 16 NShTot=      235300 NShNF=      235300 NShFF=           0 MinMC=       7
           NShCPU=      235300 NBCPU=        9565 AvBCPU=        24.6
           NShGPU=           0 NBGPU=           0 AvBGPU=         0.0
 IPart= 10 NShTot=      238405 NShNF=      238405 NShFF=           0 MinMC=       7
           NShCPU=      238405 NBCPU=       10039 AvBCPU=        23.7
           NShGPU=           0 NBGPU=           0 AvBGPU=         0.0
 IPart=  8 NShTot=      245880 NShNF=      245880 NShFF=           0 MinMC=       7
           NShCPU=      245880 NBCPU=       10251 AvBCPU=        24.0
           NShGPU=           0 NBGPU=           0 AvBGPU=         0.0
 IPart= 15 NShTot=      218442 NShNF=      218442 NShFF=           0 MinMC=       7
           NShCPU=      218442 NBCPU=        9262 AvBCPU=        23.6
           NShGPU=           0 NBGPU=           0 AvBGPU=         0.0
 IPart=  9 NShTot=      248404 NShNF=      248404 NShFF=           0 MinMC=       7
           NShCPU=      248404 NBCPU=        9994 AvBCPU=        24.9
           NShGPU=           0 NBGPU=           0 AvBGPU=         0.0
 IPart= 19 NShTot=      212557 NShNF=      212557 NShFF=           0 MinMC=       7
           NShCPU=      212557 NBCPU=        9363 AvBCPU=        22.7
           NShGPU=           0 NBGPU=           0 AvBGPU=         0.0
 CoulSu:  NxtVal=        7017473 LenVP=       33456625 MinMC=       7.
 ReadGW:  IGet=0 IStart=           1 Next=           1 LGW=           0.
 Remaining memory in FofDFT      639.93 Mw
 CkSvGd:  ISavGI=        -1 IRadAn=       5 IRASav=       5 ISavGd=        -1.
 CalDSu-InSpLW:  IPartL=    0 NPrtUS=   20 NPrtUL=    1 DoSpLW=F IThBeg=    0 IThEnd=   19 NThAct=   20.
 CalDSu:  NPrtUS=  20 ThrOK=T IAlg=1 NPAlg=2 DoDPD=T LenP=       35245 LenD1P=             0 GPUOK=F
          ISkipM=0 DoSpLW=F IThBeg=    0 IThEnd=   19.
 IPart=  0 IRanGd=          0 ScrnBf=T ScrnGd=T RCrit=4.00D+00 DoMicB=T.
 IPart= 13         8319 of         8660 points in       9 batches and       34 microbatches, Max-NSigAt=      11 Max-NSgAt2=      11
 IPart=  1        21813 of        24750 points in      27 batches and      136 microbatches, Max-NSigAt=      11 Max-NSgAt2=      11
 IPart= 15        21192 of        24468 points in      28 batches and      146 microbatches, Max-NSigAt=      11 Max-NSgAt2=      11
 IPart= 19        19977 of        21970 points in      22 batches and       97 microbatches, Max-NSigAt=      11 Max-NSgAt2=      11
 IPart= 11        19827 of        21632 points in      22 batches and      120 microbatches, Max-NSigAt=      11 Max-NSgAt2=      11
 IPart=  7        10640 of        12892 points in      15 batches and       86 microbatches, Max-NSigAt=      11 Max-NSgAt2=      11
 IPart=  4         8014 of         8450 points in       8 batches and       42 microbatches, Max-NSigAt=      11 Max-NSgAt2=      11
 IPart=  2         8521 of         8934 points in       9 batches and       48 microbatches, Max-NSigAt=      11 Max-NSgAt2=      11
 IPart= 16         8588 of         8858 points in       8 batches and       31 microbatches, Max-NSigAt=      11 Max-NSgAt2=      11
 IPart=  6         9284 of        10728 points in      11 batches and       50 microbatches, Max-NSigAt=      11 Max-NSgAt2=      11
 IPart= 10         9601 of        10268 points in      10 batches and       53 microbatches, Max-NSigAt=      11 Max-NSgAt2=      11
 IPart=  8         8660 of         9504 points in      10 batches and       40 microbatches, Max-NSigAt=      11 Max-NSgAt2=      11
 IPart=  3         8269 of         8920 points in       9 batches and       51 microbatches, Max-NSigAt=      11 Max-NSgAt2=      11
 IPart=  0        10261 of        10880 points in      10 batches and       37 microbatches, Max-NSigAt=      11 Max-NSgAt2=      11
 IPart= 12         8186 of         8814 points in       9 batches and       57 microbatches, Max-NSigAt=      11 Max-NSgAt2=      11
 IPart=  9         8668 of         9400 points in      10 batches and       57 microbatches, Max-NSigAt=      11 Max-NSgAt2=      11
 IPart= 14         8441 of         9018 points in      10 batches and       58 microbatches, Max-NSigAt=      11 Max-NSgAt2=      11
 IPart= 17         8248 of         9292 points in      10 batches and       84 microbatches, Max-NSigAt=      11 Max-NSgAt2=      11
 IPart=  5         9355 of         9892 points in       9 batches and       46 microbatches, Max-NSigAt=      11 Max-NSgAt2=      11
 IPart= 18         8390 of         9070 points in       9 batches and       61 microbatches, Max-NSigAt=      11 Max-NSgAt2=      11
 Polarizability after L703:
                1             2             3 
      1  0.000000D+00
      2  0.000000D+00  0.000000D+00
      3  0.000000D+00  0.000000D+00  0.000000D+00
 Dipole Derivatives after L703:
                 1             2             3             4             5 
      1  -0.859752D-01  0.156528D+00  0.582582D-02 -0.289613D+00  0.141791D+01
      2   0.240744D+00 -0.105452D+00  0.176311D-02  0.312984D+00 -0.724604D+00
      3   0.456008D-03 -0.277836D-03 -0.252552D+00 -0.815673D-03  0.172079D-02
                 6             7             8             9            10 
      1  -0.139570D-02 -0.100035D+01  0.477116D+00 -0.251461D-01 -0.504411D+00
      2   0.109652D-02  0.662154D-01 -0.849504D+00  0.201792D-01  0.563919D-02
      3  -0.394305D+00  0.143320D-02  0.169467D-02 -0.803808D+00 -0.172353D-02
                11            12            13            14            15 
      1  -0.519391D-01 -0.381842D-02 -0.374595D+00 -0.289280D+00  0.237310D-02
      2  -0.729342D+00  0.733598D-03 -0.803037D-01 -0.644846D+00  0.177676D-03
      3  -0.206432D-02  0.332663D-01 -0.692218D-03  0.330288D-02  0.346983D-01
                16            17            18            19            20 
      1   0.133149D+01  0.643282D-01 -0.229386D-01 -0.545961D-01 -0.296193D+00
      2  -0.200118D+00  0.134607D+00  0.531157D-02  0.108057D+00  0.343964D+00
      3  -0.693559D-02  0.146576D-03  0.975848D-01 -0.884288D-01 -0.164947D+00
                21            22            23            24            25 
      1   0.334279D+00 -0.516603D-01 -0.293650D+00 -0.291290D+00  0.221739D+00
      2  -0.260113D+00  0.118005D+00  0.354246D+00  0.233791D+00 -0.255641D+00
      3   0.419248D+00  0.963827D-01  0.164301D+00  0.416547D+00 -0.499985D-04
                26            27            28            29            30 
      1  -0.193330D+00  0.549014D-03  0.106495D+00  0.210507D+00 -0.533256D-03
      2   0.867756D+00 -0.216637D-02 -0.208547D+00  0.744885D+00 -0.246287D-03
      3  -0.262705D-03  0.736077D-01 -0.192160D-03 -0.206818D-02  0.986197D-01
                31            32            33 
      1   0.701485D+00 -0.120199D+01  0.209509D-02
      2  -0.107034D+00  0.608289D+00 -0.527575D-03
      3   0.566030D-03 -0.154600D-02  0.277092D+00
 Hessian after L703:
                1             2             3             4             5 
      1  0.443817D+00
      2 -0.593445D-01  0.371029D+00
      3  0.232916D-03  0.223014D-02  0.868292D-01
      4 -0.230721D-01  0.156229D-02 -0.934250D-04  0.453070D+00
      5 -0.123896D-02 -0.277935D-02  0.586482D-04 -0.600035D-01  0.433194D+00
      6 -0.110892D-03  0.223516D-04  0.125298D-01  0.983334D-03 -0.503207D-03
      7 -0.976376D-01  0.125528D-01 -0.581115D-03  0.306315D-02  0.156864D-02
      8  0.537735D-01 -0.202889D+00 -0.799535D-03 -0.100426D-01 -0.231392D-02
      9  0.736285D-03 -0.335720D-02 -0.672686D-01  0.130778D-03 -0.298016D-04
     10 -0.266373D+00  0.144245D-01 -0.346459D-03 -0.354167D-01 -0.360092D-01
     11 -0.309633D-01 -0.104645D+00 -0.299268D-03  0.542787D-03  0.998557D-02
     12 -0.631006D-03 -0.235718D-03 -0.431989D-01  0.216617D-04 -0.119895D-03
     13 -0.268447D-01 -0.311553D-01  0.190831D-03 -0.307115D+00  0.251488D-01
     14 -0.742373D-02  0.915778D-02 -0.992407D-04 -0.211499D-01 -0.105899D+00
     15  0.256365D-04 -0.646712D-04  0.338082D-02 -0.645454D-03  0.180107D-03
     16 -0.138618D-01  0.505154D-02  0.499226D-04 -0.698976D-03  0.154442D-03
     17  0.408075D-01 -0.367336D-02 -0.381689D-03  0.662620D-03  0.809942D-03
     18  0.251498D-03  0.832740D-05 -0.503868D-03 -0.107044D-04 -0.339648D-05
     19  0.162098D-02  0.920304D-02 -0.114842D-01  0.565416D-03  0.322421D-03
     20  0.141677D-02 -0.338443D-01  0.263248D-01  0.113922D-02  0.151171D-03
     21 -0.420103D-02  0.491268D-02  0.663286D-02 -0.801198D-03 -0.741022D-03
     22  0.198821D-02  0.103170D-01  0.119674D-01  0.542401D-03  0.330962D-03
     23  0.166508D-03 -0.345172D-01 -0.270138D-01  0.106103D-02  0.130649D-03
     24  0.374285D-02 -0.361502D-02  0.652699D-02  0.661450D-03  0.763838D-03
     25 -0.207743D-01  0.351807D-01  0.498459D-04  0.382001D-02 -0.148049D-02
     26  0.304428D-02  0.233482D-02 -0.206388D-04  0.831200D-03  0.270171D-02
     27 -0.407607D-04  0.739935D-04  0.421812D-03  0.159428D-04 -0.165810D-04
     28 -0.290790D-03  0.329399D-02  0.208432D-04 -0.193188D-01  0.344686D-01
     29  0.164917D-02  0.656474D-03  0.113140D-04  0.287478D-02  0.289647D-02
     30 -0.171299D-04  0.274995D-04 -0.404802D-02 -0.707554D-04  0.697129D-04
     31  0.142854D-02 -0.108599D-02 -0.654637D-05 -0.754395D-01  0.367383D-01
     32 -0.188721D-02 -0.828881D-03 -0.107301D-04  0.825221D-01 -0.338877D+00
     33  0.116404D-04 -0.239139D-05 -0.130213D-02 -0.191630D-03  0.341596D-03
                6             7             8             9            10 
      6  0.538303D-01
      7 -0.251654D-05  0.553162D+00
      8 -0.174045D-04  0.347659D-01  0.460973D+00
      9 -0.137108D-03  0.211389D-01  0.323546D-01  0.548793D+00
     10  0.903460D-04 -0.372006D-01  0.195639D-01 -0.169295D-03  0.665096D+00
     11  0.248647D-04  0.461064D-01 -0.130286D-01  0.186567D-03  0.136543D+00
     12  0.410716D-02  0.276650D-03  0.995441D-04  0.244288D-04  0.321442D-03
     13 -0.728959D-03 -0.716004D-02 -0.136728D-02 -0.622070D-05 -0.269886D+00
     14 -0.259985D-04  0.456318D-03  0.754834D-02  0.344437D-04 -0.211318D+00
     15 -0.372220D-01 -0.325515D-04 -0.125893D-04 -0.559481D-03  0.397492D-05
     16  0.257256D-05 -0.249969D+00 -0.204482D-01  0.155557D-02  0.223892D-02
     17  0.967311D-05 -0.327955D-01 -0.580501D-01 -0.193696D-03  0.636674D-04
     18  0.163863D-03  0.263840D-02 -0.396971D-03 -0.591970D-01 -0.280347D-04
[...]
     Eigenvalues ---    0.04427   0.08806   0.08811   0.10931   0.13133
     Eigenvalues ---    0.13659   0.16238   0.17950   0.18678   0.20377
     Eigenvalues ---    0.22501   0.31078   0.33040   0.33499   0.35245
     Eigenvalues ---    0.36308   0.37434   0.40546   0.44209   0.51139
     Eigenvalues ---    0.54165   0.65553
 Angle between quadratic step and forces=  61.12 degrees.
 Linear search not attempted -- first point.
 Iteration  1 RMS(Cart)=  0.00000707 RMS(Int)=  0.00000000
 Iteration  2 RMS(Cart)=  0.00000000 RMS(Int)=  0.00000000
 ITry= 1 IFail=0 DXMaxC= 1.96D-05 DCOld= 1.00D+10 DXMaxT= 3.00D-01 DXLimC= 3.00D+00 Rises=F
 Variable       Old X    -DE/DX   Delta X   Delta X   Delta X     New X
                                 (Linear)    (Quad)   (Total)
    R1        2.65861   0.00000   0.00000   0.00000   0.00000   2.65861
    R2        2.56838   0.00000   0.00000   0.00000   0.00000   2.56838
    R3        2.58763   0.00000   0.00000   0.00000   0.00000   2.58763
    R4        1.81657   0.00000   0.00000   0.00000   0.00000   1.81657
    R5        2.05178  -0.00000   0.00000  -0.00000  -0.00000   2.05178
    R6        2.06763   0.00000   0.00000   0.00000   0.00000   2.06763
    R7        2.06763  -0.00000   0.00000  -0.00000  -0.00000   2.06763
    R8        2.51125  -0.00000   0.00000  -0.00000  -0.00000   2.51125
    R9        2.04733   0.00000   0.00000   0.00000   0.00000   2.04733
   R10        2.03837   0.00000   0.00000  -0.00000  -0.00000   2.03837
    A1        2.01872  -0.00000   0.00000  -0.00000  -0.00000   2.01872
    A2        1.91222   0.00000   0.00000  -0.00000  -0.00000   1.91222
    A3        1.86506   0.00000   0.00000   0.00000   0.00000   1.86506
    A4        1.93529  -0.00000   0.00000  -0.00000  -0.00000   1.93529
    A5        1.93529  -0.00000   0.00000  -0.00000  -0.00000   1.93529
    A6        1.91341   0.00000   0.00000   0.00000   0.00000   1.91341
    A7        1.91341  -0.00000   0.00000   0.00000   0.00000   1.91341
    A8        1.90113  -0.00000   0.00000  -0.00000  -0.00000   1.90113
    A9        2.21963  -0.00000   0.00000  -0.00000  -0.00000   2.21963
   A10        1.94478   0.00000   0.00000  -0.00000  -0.00000   1.94478
   A11        2.11878   0.00000   0.00000   0.00000   0.00000   2.11878
   A12        2.17288  -0.00000   0.00000  -0.00000  -0.00000   2.17288
   A13        1.94814   0.00000   0.00000   0.00000   0.00000   1.94814
   A14        2.16216  -0.00000   0.00000   0.00000   0.00000   2.16216
    D1        3.14158   0.00000   0.00000   0.00001   0.00001   3.14159
    D2       -1.05717   0.00000   0.00000   0.00001   0.00001  -1.05716
    D3        1.05715   0.00000   0.00000   0.00001   0.00001   1.05715
    D4       -0.00000   0.00000   0.00000   0.00001   0.00001   0.00001
    D5        3.14159   0.00000   0.00000   0.00001   0.00001  -3.14159
    D6       -0.00000   0.00000   0.00000   0.00000   0.00000   0.00000
    D7        3.14159   0.00000   0.00000   0.00000   0.00000  -3.14159
    D8       -3.14159   0.00000   0.00000   0.00000   0.00000  -3.14159
    D9       -0.00000   0.00000   0.00000   0.00000   0.00000   0.00000
   D10       -0.00000   0.00000   0.00000   0.00000   0.00000   0.00000
   D11        3.14159   0.00000   0.00000   0.00000   0.00000  -3.14159
         Item               Value     Threshold  Converged?
 Maximum Force            0.000001     0.000015     YES
 RMS     Force            0.000000     0.000010     YES
 Maximum Displacement     0.000020     0.000060     YES
 RMS     Displacement     0.000007     0.000040     YES
 Predicted change in Energy=-5.229570D-12
 Optimization completed.
    -- Stationary point found.
                           ----------------------------
                           !   Optimized Parameters   !
                           ! (Angstroms and Degrees)  !
 --------------------------                            --------------------------
 ! Name  Definition              Value          Derivative Info.                !
 --------------------------------------------------------------------------------
 ! R1    R(1,3)                  1.4069         -DE/DX =    0.0                 !
 ! R2    R(1,4)                  1.3591         -DE/DX =    0.0                 !
 ! R3    R(2,5)                  1.3693         -DE/DX =    0.0                 !
 ! R4    R(2,11)                 0.9613         -DE/DX =    0.0                 !
 ! R5    R(3,6)                  1.0858         -DE/DX =    0.0                 !
 ! R6    R(3,7)                  1.0941         -DE/DX =    0.0                 !
 ! R7    R(3,8)                  1.0941         -DE/DX =    0.0                 !
 ! R8    R(4,5)                  1.3289         -DE/DX =    0.0                 !
 ! R9    R(4,9)                  1.0834         -DE/DX =    0.0                 !
 ! R10   R(5,10)                 1.0787         -DE/DX =    0.0                 !
 ! A1    A(3,1,4)              115.664          -DE/DX =    0.0                 !
 ! A2    A(5,2,11)             109.5622         -DE/DX =    0.0                 !
 ! A3    A(1,3,6)              106.86           -DE/DX =    0.0                 !
 ! A4    A(1,3,7)              110.8841         -DE/DX =    0.0                 !
 ! A5    A(1,3,8)              110.8841         -DE/DX =    0.0                 !
 ! A6    A(6,3,7)              109.6301         -DE/DX =    0.0                 !
 ! A7    A(6,3,8)              109.63           -DE/DX =    0.0                 !
 ! A8    A(7,3,8)              108.9266         -DE/DX =    0.0                 !
 ! A9    A(1,4,5)              127.1756         -DE/DX =    0.0                 !
 ! A10   A(1,4,9)              111.4274         -DE/DX =    0.0                 !
 ! A11   A(5,4,9)              121.397          -DE/DX =    0.0                 !
 ! A12   A(2,5,4)              124.497          -DE/DX =    0.0                 !
 ! A13   A(2,5,10)             111.6203         -DE/DX =    0.0                 !
 ! A14   A(4,5,10)             123.8827         -DE/DX =    0.0                 !
 ! D1    D(4,1,3,6)            179.9995         -DE/DX =    0.0                 !
 ! D2    D(4,1,3,7)            -60.5712         -DE/DX =    0.0                 !
 ! D3    D(4,1,3,8)             60.5702         -DE/DX =    0.0                 !
 ! D4    D(3,1,4,5)             -0.0002         -DE/DX =    0.0                 !
 ! D5    D(3,1,4,9)           -180.0002         -DE/DX =    0.0                 !
 ! D6    D(11,2,5,4)            -0.0001         -DE/DX =    0.0                 !
 ! D7    D(11,2,5,10)         -180.0001         -DE/DX =    0.0                 !
 ! D8    D(1,4,5,2)           -180.0            -DE/DX =    0.0                 !
 ! D9    D(1,4,5,10)             0.0            -DE/DX =    0.0                 !
 ! D10   D(9,4,5,2)              0.0            -DE/DX =    0.0                 !
 ! D11   D(9,4,5,10)          -180.0            -DE/DX =    0.0                 !
 --------------------------------------------------------------------------------
 GradGradGradGradGradGradGradGradGradGradGradGradGradGradGradGradGradGrad

 Leave Link  103 at Wed Sep 25 12:31:26 2019, MaxMem=   671088640 cpu:             106.9 elap:              54.2
 (Enter /shared/centos7/gaussian/g16/l9999.exe)

 ----------------------------------------------------------------------

 Electric dipole moment (input orientation):
 (Debye = 10**-18 statcoulomb cm , SI units = C m)
                  (au)            (Debye)         (10**-30 SI)
   Tot        0.167482D+00      0.425697D+00      0.141997D+01
   x         -0.259428D-01     -0.659399D-01     -0.219952D+00
   y         -0.151738D+00     -0.385680D+00     -0.128649D+01
   z         -0.659761D-01     -0.167695D+00     -0.559369D+00

 Dipole polarizability, Alpha (input orientation).
 (esu units = cm**3 , SI units = C**2 m**2 J**-1)
 Alpha(0;0):
               (au)            (10**-24 esu)      (10**-40 SI)
   iso        0.437928D+02      0.648942D+01      0.722046D+01
   aniso      0.213475D+02      0.316337D+01      0.351972D+01
   xx         0.435716D+02      0.645665D+01      0.718399D+01
   yx         0.548292D+01      0.812485D+00      0.904011D+00
   yy         0.512944D+02      0.760105D+01      0.845731D+01
   zx        -0.268499D+01     -0.397875D+00     -0.442695D+00
   zy         0.774397D+01      0.114754D+01      0.127681D+01
   zz         0.365123D+02      0.541057D+01      0.602007D+01

 ----------------------------------------------------------------------

 Dipole orientation:
     8          0.26186260          1.19882751          0.69044091
     8          0.32862653          1.17949908         -6.23970545
     6         -2.25700780          1.93157827          1.12236117
     6          0.95462612          0.99733324         -1.77452750
     6         -0.48000612          1.41470078         -3.79295145
     1         -2.51451956          2.00644223          3.15654063
     1         -2.63342048          3.79336970          0.30556818
     1         -3.57337591          0.56226920          0.30549099
     1          2.91264256          0.42774050         -1.95699379
     1         -2.43518026          1.98346691         -3.69950967
     1          2.07280626          0.67211301         -6.25775693

 Electric dipole moment (dipole orientation):
 (Debye = 10**-18 statcoulomb cm , SI units = C m)
                  (au)            (Debye)         (10**-30 SI)
   Tot        0.167482D+00      0.425697D+00      0.141997D+01
   x          0.000000D+00      0.000000D+00      0.000000D+00
   y          0.000000D+00      0.000000D+00      0.000000D+00
   z          0.167482D+00      0.425697D+00      0.141997D+01

 Dipole polarizability, Alpha (dipole orientation).
 (esu units = cm**3 , SI units = C**2 m**2 J**-1)
 Alpha(0;0):
               (au)            (10**-24 esu)      (10**-40 SI)
   iso        0.437928D+02      0.648942D+01      0.722046D+01
   aniso      0.213475D+02      0.316337D+01      0.351972D+01
   xx         0.434546D+02      0.643930D+01      0.716469D+01
   yx        -0.352270D+01     -0.522010D+00     -0.580814D+00
   yy         0.323698D+02      0.479670D+01      0.533705D+01
   zx        -0.215386D+01     -0.319169D+00     -0.355123D+00
   zy         0.626255D+00      0.928014D-01      0.103255D+00
   zz         0.555541D+02      0.823227D+01      0.915963D+01

 ----------------------------------------------------------------------

 Test job not archived.
 1\1\GINC-C0207\Freq\RM062X\CC-pVTZ\C3H6O2\HARMS.N\25-Sep-2019\0\\#P Ge
 om=AllCheck Guess=TCheck SCRF=Check Test GenChk RM062X/CC-pVTZ Freq\\G
 aussian input prepared by ASE\\0,1\O,0.1434608991,-0.6057955908,0.4093
 632512\O,0.7452085109,2.7173847387,1.8392705506\C,-1.1628901347,-0.838
 0983531,0.8770985487\C,0.6950609776,0.5829191498,0.7698186575\C,0.1366
 373621,1.5362420093,1.508270149\H,-1.4595646096,-1.8159171992,0.510057
 0368\H,-1.1925098235,-0.831512353,1.9708217847\H,-1.8534855414,-0.0784
 173425,0.498792772\H,1.6979745238,0.6900081411,0.3742782475\H,-0.85754
 47983,1.4718626041,1.9217391737\H,1.6267495695,2.7435063499,1.45680829
 17\\Version=EM64L-G16RevA.03\State=1-A\HF=-268.3193098\RMSD=5.815e-09\
 RMSF=3.237e-07\ZeroPoint=0.0911027\Thermal=0.0968973\Dipole=-0.0259428
 ,-0.151738,-0.0659761\DipoleDeriv=-0.8514834,-0.6172119,-0.0525456,-0.
 3037968,-1.1435421,-0.3128928,0.1077926,-0.1721656,-0.4017696,-0.42049
 19,-0.5539609,-0.2552885,-0.2467789,-1.1708405,-0.3050905,-0.0981379,-
 0.1671604,-0.3993375,0.6997437,0.3162687,0.0040307,0.0444693,0.3256894
 ,-0.0315784,-0.1350182,-0.1536208,0.33042,0.2750056,0.4875742,0.059982
 3,0.2679648,0.804803,0.3665728,-0.0523671,0.2679653,0.0136751,0.168944
 2,0.556994,0.1395774,0.2085108,0.8223146,0.4062639,-0.0387019,0.249788
 1,-0.0096488,0.0364962,-0.0470747,-0.003051,-0.0771876,-0.0786011,-0.0
 48188,-0.0184571,-0.0617097,0.0600522,-0.0099825,-0.0384106,-0.0512259
 ,0.0156542,0.0584678,-0.031278,0.0485649,0.0569271,-0.1368195,-0.05993
 78,-0.0127098,-0.0249167,0.1310226,-0.0374099,0.0689185,-0.0235155,0.0
 695289,0.0090137,-0.0578095,-0.0888023,0.0588058,-0.0844925,0.036177,-
 0.0327403,0.0610104,-0.0308047,0.1311784,-0.0037173,-0.0651401,0.04737
 52,-0.0340252,0.077399,-0.0351695,0.0632931,-0.021198,0.1367438,0.2232
 326,0.0624733,0.0772562,0.0786592,0.3055428,-0.0448179,0.0855367,-0.03
 75504,0.2664921\Polar=43.571648,5.4829172,51.2944384,-2.6849903,7.7439
 696,36.5123364\Quadrupole=4.2284231,-2.0661558,-2.1622673,3.4195429,-0
 .9047667,-1.7316401\PG=C01 [X(C3H6O2)]\NImag=0\\0.43808002,0.15640165,
 0.40234313,-0.08281062,0.09700258,0.16226915,-0.00495807,-0.01032577,0
 .00294180,0.57892673,-0.01150117,-0.01730855,-0.01052465,0.12989061,0.
 34528764,0.00234049,-0.01105238,0.00665313,-0.18203237,0.10526020,0.16
 111743,-0.22661478,-0.03689669,0.05408536,0.00253304,0.00952979,0.0037
 1589,0.50200483,-0.00417081,-0.08614650,-0.00939304,-0.00006021,0.0011
 1764,0.00062393,0.00350741,0.62493952,0.07082755,0.00530169,-0.0932161
 7,-0.00119029,-0.00368212,-0.00139845,0.03176307,0.02717284,0.56838787
 ,-0.12705934,-0.06726370,0.00635947,0.01430488,-0.01876615,-0.01515145
 ,-0.03486057,-0.04348586,-0.00731148,0.65397461,-0.10510517,-0.2671463
 9,-0.07092504,0.01309015,-0.03023466,-0.02233922,-0.01870613,-0.018354
 73,-0.00017323,0.00455747,0.66278018,-0.01299980,-0.08791662,-0.075399
 59,0.00114592,-0.00803515,-0.00268264,0.00536557,0.01095352,0.00159629
 ,-0.24047987,0.27910586,0.36398082,0.01708853,-0.00796926,-0.01075365,
 -0.13715790,-0.07314416,0.00947064,0.00491875,-0.00311698,-0.00392893,
 -0.21428144,0.11053791,0.13020959,0.66201878,0.01252002,-0.02597279,-0
 .02004429,-0.11472848,-0.25804265,-0.06375294,-0.00176682,-0.00263134,
 -0.00040968,0.12332851,-0.31490207,-0.19077730,-0.00105660,0.65435924,
 -0.00027154,-0.01084431,-0.00320694,-0.01180342,-0.08242496,-0.0695966
 4,-0.00323827,0.00019671,0.00127463,0.13675310,-0.18503405,-0.20630132
 ,-0.24770445,0.27816273,0.36509227,-0.02151897,-0.03825805,-0.00996789
 ,0.00017996,-0.00086116,-0.00046189,-0.06213759,-0.05175972,-0.0218313
 0,-0.00439124,0.00135664,0.00302886,-0.00068198,0.00094330,0.00094665,
 0.08035020,-0.00557348,-0.00419000,0.00042469,-0.00038754,-0.00033972,
 -0.00006755,-0.06373043,-0.27796627,-0.08709941,0.00000598,0.00222303,
 0.00072085,0.00039266,0.00036994,-0.00016691,0.07304116,0.29567063,0.0
 0675353,0.01510075,0.00456480,-0.00021958,0.00014512,0.00030529,-0.027
 95554,-0.09247453,-0.08654112,0.00233797,0.00011447,-0.00018252,0.0006
 6496,-0.00041413,-0.00015890,0.02253403,0.09426294,0.08542085,-0.01647
 485,-0.00592013,0.04246789,-0.00053682,-0.00029664,-0.00021409,-0.0499
 6500,-0.00031351,-0.01123351,0.00284058,0.00615996,0.00279765,0.001720
 47,-0.00068976,-0.00173521,0.00095216,0.00145578,-0.00721479,0.0599179
 5,-0.00332677,-0.00017747,0.00560414,0.00006686,0.00051009,-0.00023714
 ,-0.00024496,-0.05331179,-0.00442990,0.00046378,0.00339931,0.00257721,
 0.00108743,-0.00089778,-0.00022311,-0.00009433,0.00207553,-0.02891733,
 0.00131913,0.04971030,0.01562751,0.00267678,-0.01038481,0.00008580,0.0
 0149197,0.00065759,-0.00531595,-0.00190354,-0.30352866,-0.00229978,-0.
 00214606,0.00089285,0.00108747,-0.00123165,-0.00130174,-0.00145089,0.0
 0040901,-0.00860041,-0.00559893,0.00176939,0.33258625,-0.04210154,0.01
 626650,-0.00460004,-0.00022077,-0.00119795,-0.00018820,-0.13733914,0.1
 0307075,-0.05560144,0.00336427,0.00713229,0.00172991,0.00098286,-0.000
 09690,-0.00038912,0.00712040,-0.00489083,0.00337662,0.00200538,0.00085
 842,-0.00157122,0.16649846,-0.00334616,0.00783339,-0.00583749,0.000206
 13,0.00096806,0.00084554,0.10878410,-0.18190352,0.06722932,-0.00141949
 ,0.00375747,0.00092824,0.00190959,-0.00155260,-0.00179749,0.01656814,-
 0.01768537,0.01177494,-0.00100067,0.00043468,-0.00109303,-0.12038257,0
 .18867851,0.01353313,-0.01055229,0.00723094,0.00041621,-0.00008989,-0.
 00011639,-0.05856100,0.06729904,-0.08756182,-0.00046181,-0.00074610,0.
 00001104,-0.00127615,0.00091012,0.00009053,0.00779818,-0.00861180,0.00
 499228,-0.01933059,0.02328171,-0.01081968,0.05795288,-0.07123505,0.087
 03676,-0.01585090,-0.00846746,0.00312754,0.00183935,0.00109403,-0.0029
 2297,0.00335752,-0.00167054,-0.00113626,-0.29130905,-0.01981281,0.1044
 0382,-0.01016009,-0.00527313,0.00521085,-0.00063347,-0.00017263,0.0003
 5301,-0.00036085,-0.00002881,0.00020513,-0.00004840,0.00021962,-0.0000
 0847,0.31192192,-0.03590572,-0.00990786,0.01066390,0.00255835,0.001856
 72,0.00282812,-0.00010315,-0.00338930,-0.00308447,-0.01468213,-0.05127
 415,-0.00110937,0.01864963,0.00573513,-0.00925279,-0.00137435,-0.00017
 829,0.00034716,0.00006083,0.00001487,0.00024025,-0.00049514,-0.0000403
 4,0.00003826,0.03247491,0.05932710,-0.01090960,-0.00165638,0.00481298,
 -0.00217383,0.00348564,-0.00315753,-0.00033436,-0.00238065,0.00166259,
 0.10702862,0.00119438,-0.08366605,0.01744948,0.00148896,0.00037949,-0.
 00026178,-0.00019244,0.00036847,-0.00045856,-0.00022185,0.00006137,0.0
 0033540,0.00021966,-0.00019587,-0.11343765,0.00436774,0.07545653,-0.00
 115467,-0.00011907,-0.00123278,-0.01529358,-0.00689390,0.00408525,-0.0
 0091127,-0.00187003,-0.00097843,-0.00690455,-0.00187020,0.00508072,-0.
 30044895,-0.01040960,0.11342369,0.00058037,-0.00018306,-0.00059508,-0.
 00004597,-0.00002426,-0.00053395,-0.00035696,-0.00142669,-0.00011722,0
 .00142506,-0.00022680,0.00303989,0.32180524,-0.00136709,0.00041802,0.0
 0275360,-0.03383690,-0.00698431,0.01077140,0.00044648,-0.00235702,-0.0
 0091541,0.01970251,0.00907974,-0.00754826,-0.00623548,-0.05058612,-0.0
 0467011,0.00024362,-0.00001189,0.00015893,-0.00081706,-0.00179681,-0.0
 0009745,-0.00036287,-0.00031303,-0.00034983,0.00007406,-0.00170762,-0.
 00523161,0.02519893,0.05851836,-0.00187125,0.00219318,-0.00180230,-0.0
 0969848,-0.00132647,0.00533539,0.00020671,0.00012478,-0.00098853,0.016
 11709,0.00213833,0.00039857,0.11555908,-0.00279589,-0.08930292,-0.0003
 7681,0.00035052,-0.00018786,0.00056174,0.00086126,0.00051820,-0.001074
 31,-0.00118689,-0.00065468,0.00319382,-0.00509652,0.00441217,-0.121535
 47,0.00715036,0.08065437,0.00056457,0.00255197,0.00038292,-0.43961682,
 -0.02785330,0.18135872,-0.00098579,-0.00013049,0.00062103,0.00432184,0
 .00265988,-0.00028235,-0.02399904,-0.00277053,0.00880772,0.00018016,0.
 00004240,-0.00003512,-0.00005304,-0.00007650,-0.00023519,0.00009545,-0
 .00011203,0.00005485,-0.00018111,-0.00095642,-0.00027760,0.00130528,-0
 .00304621,-0.00108214,0.45836850,0.00137470,0.00025503,0.00027561,0.01
 352678,-0.03683027,-0.02287998,-0.00081960,0.00000331,0.00009038,-0.00
 244093,0.00067229,0.00110102,-0.04105475,-0.00587894,0.01605428,0.0001
 9477,0.00003241,-0.00009831,0.00004208,0.00003907,-0.00011567,0.000098
 29,-0.00017725,0.00005584,0.00156276,-0.00043627,-0.00107345,-0.002175
 34,-0.00425934,-0.00241266,0.02969124,0.04657996,-0.00021938,-0.000253
 01,-0.00152120,0.20252825,-0.00429969,-0.09711718,0.00026851,-0.000219
 05,0.00031337,-0.00289185,-0.00118933,0.00135257,-0.01077802,-0.001135
 92,0.00303153,0.00004283,-0.00002990,0.00001911,-0.00004160,-0.0000643
 8,-0.00008095,0.00002952,0.00015224,-0.00001311,0.00101120,0.00005771,
 -0.00013415,-0.00063661,-0.00202162,0.00161757,-0.18931284,0.00900295,
 0.09253244\\-0.00000072,0.00000021,0.00000043,0.00000020,-0.00000016,-
 0.00000017,0.00000069,0.00000071,0.00000045,-0.00000011,-0.00000073,-0
 .00000031,0.00000019,0.00000036,0.00000002,-0.00000036,-0.00000042,-0.
 00000007,-0.00000007,0.00000003,-0.00000027,-0.00000006,0.00000020,0.0
 0000015,-0.00000003,-0.00000019,-0.00000005,0.00000011,0.00000017,-0.0
 0000006,0.00000018,-0.00000017,-0.00000013\\\@


 MAN IS THE MEASURE OF ALL THINGS.
  -- PROTAGORAS (5TH CENTURY B.C.)
 Job cpu time:       0 days  1 hours 10 minutes 15.4 seconds.
 Elapsed time:       0 days  0 hours 35 minutes  9.8 seconds.
 File lengths (MBytes):  RWF=   1312 Int=      0 D2E=      0 Chk=     32 Scr=     32
 Normal termination of Gaussian 16 at Wed Sep 25 12:31:27 2019.
