 Entering Gaussian System, Link 0=g16
 Input=verytight/species/COC=CO/conformers/COC=CO_11.com
 Output=verytight/species/COC=CO/conformers/COC=CO_11.log
 Initial command:
 /shared/centos7/gaussian/g16/l1.exe "/scratch/harms.n/gauss_scrdir/Gau-48980.inp" -scrdir="/scratch/harms.n/gauss_scrdir/"
 Entering Link 1 = /shared/centos7/gaussian/g16/l1.exe PID=     48992.
  
 Copyright (c) 1988,1990,1992,1993,1995,1998,2003,2009,2016,
            Gaussian, Inc.  All Rights Reserved.
  
 This is part of the Gaussian(R) 16 program.  It is based on
 the Gaussian(R) 09 system (copyright 2009, Gaussian, Inc.),
 the Gaussian(R) 03 system (copyright 2003, Gaussian, Inc.),
 the Gaussian(R) 98 system (copyright 1998, Gaussian, Inc.),
 the Gaussian(R) 94 system (copyright 1995, Gaussian, Inc.),
 the Gaussian 92(TM) system (copyright 1992, Gaussian, Inc.),
 the Gaussian 90(TM) system (copyright 1990, Gaussian, Inc.),
 the Gaussian 88(TM) system (copyright 1988, Gaussian, Inc.),
 the Gaussian 86(TM) system (copyright 1986, Carnegie Mellon
 University), and the Gaussian 82(TM) system (copyright 1983,
 Carnegie Mellon University). Gaussian is a federally registered
 trademark of Gaussian, Inc.
  
 This software contains proprietary and confidential information,
 including trade secrets, belonging to Gaussian, Inc.
  
 This software is provided under written license and may be
 used, copied, transmitted, or stored only in accord with that
 written license.
  
 The following legend is applicable only to US Government
 contracts under FAR:
  
                    RESTRICTED RIGHTS LEGEND
  
 Use, reproduction and disclosure by the US Government is
 subject to restrictions as set forth in subparagraphs (a)
 and (c) of the Commercial Computer Software - Restricted
 Rights clause in FAR 52.227-19.
  
 Gaussian, Inc.
 340 Quinnipiac St., Bldg. 40, Wallingford CT 06492
  
  
 ---------------------------------------------------------------
 Warning -- This program may not be used in any manner that
 competes with the business of Gaussian, Inc. or will provide
 assistance to any competitor of Gaussian, Inc.  The licensee
 of this program is prohibited from giving any competitor of
 Gaussian, Inc. access to this program.  By using this program,
 the user acknowledges that Gaussian, Inc. is engaged in the
 business of creating and licensing software in the field of
 computational chemistry and represents and warrants to the
 licensee that it is not a competitor of Gaussian, Inc. and that
 it will not use this program in any manner prohibited above.
 ---------------------------------------------------------------
  

 Cite this work as:
 Gaussian 16, Revision A.03,
 M. J. Frisch, G. W. Trucks, H. B. Schlegel, G. E. Scuseria, 
 M. A. Robb, J. R. Cheeseman, G. Scalmani, V. Barone, 
 G. A. Petersson, H. Nakatsuji, X. Li, M. Caricato, A. V. Marenich, 
 J. Bloino, B. G. Janesko, R. Gomperts, B. Mennucci, H. P. Hratchian, 
 J. V. Ortiz, A. F. Izmaylov, J. L. Sonnenberg, D. Williams-Young, 
 F. Ding, F. Lipparini, F. Egidi, J. Goings, B. Peng, A. Petrone, 
 T. Henderson, D. Ranasinghe, V. G. Zakrzewski, J. Gao, N. Rega, 
 G. Zheng, W. Liang, M. Hada, M. Ehara, K. Toyota, R. Fukuda, 
 J. Hasegawa, M. Ishida, T. Nakajima, Y. Honda, O. Kitao, H. Nakai, 
 T. Vreven, K. Throssell, J. A. Montgomery, Jr., J. E. Peralta, 
 F. Ogliaro, M. J. Bearpark, J. J. Heyd, E. N. Brothers, K. N. Kudin, 
 V. N. Staroverov, T. A. Keith, R. Kobayashi, J. Normand, 
 K. Raghavachari, A. P. Rendell, J. C. Burant, S. S. Iyengar, 
 J. Tomasi, M. Cossi, J. M. Millam, M. Klene, C. Adamo, R. Cammi, 
 J. W. Ochterski, R. L. Martin, K. Morokuma, O. Farkas, 
 J. B. Foresman, and D. J. Fox, Gaussian, Inc., Wallingford CT, 2016.
 
 ******************************************
 Gaussian 16:  EM64L-G16RevA.03 25-Dec-2016
                25-Sep-2019 
 ******************************************
 %nprocshared=20
 Will use up to   20 processors via shared memory.
 %mem=5GB
 ----------------------------------------------------------------------
 #p m062x/cc-pVTZ opt=(calcfc,maxcycles=900,Tight) freq IOP(7/33=1,2/16
 =3) scf=(maxcycle=900)
 ----------------------------------------------------------------------
 1/6=900,7=10,10=4,18=20,19=15,26=3,38=1/1,3;
 2/9=110,12=2,16=3,17=6,18=5,40=1/2;
 3/5=16,6=1,11=2,25=1,30=1,71=2,74=-55,140=1/1,2,3;
 4//1;
 5/5=2,7=900,38=5/2;
 8/6=4,10=90,11=11/1;
 11/6=1,8=1,9=11,15=111,16=1/1,2,10;
 10/6=1,13=1/2;
 6/7=2,8=2,9=2,10=2,28=1/1;
 7/10=1,18=20,25=1,33=1/1,2,3,16;
 1/6=900,7=10,10=4,18=20,19=15,26=3/3(2);
 2/9=110,16=3/2;
 99//99;
 2/9=110,16=3/2;
 3/5=16,6=1,11=2,25=1,30=1,71=1,74=-55/1,2,3;
 4/5=5,16=3,69=1/1;
 5/5=2,7=900,38=5/2;
 7/33=1/1,2,3,16;
 1/6=900,7=10,18=20,19=15,26=3/3(-5);
 2/9=110,16=3/2;
 6/7=2,8=2,9=2,10=2,19=2,28=1/1;
 99/9=1/99;
 Leave Link    1 at Wed Sep 25 09:38:42 2019, MaxMem=   671088640 cpu:               4.2 elap:               2.1
 (Enter /shared/centos7/gaussian/g16/l101.exe)
 ------------------------------
 Gaussian input prepared by ASE
 ------------------------------
 Symbolic Z-matrix:
 Charge =  0 Multiplicity = 1
 O                     0.20795  -0.74138   0.69835 
 O                    -0.88667   1.46677   2.46164 
 C                    -1.20723  -0.86222   0.85967 
 C                     0.69698   0.54452   0.89043 
 C                     0.22871   1.50233   1.65482 
 H                    -1.53083  -1.78001   0.28925 
 H                    -1.48056  -1.01396   1.9427 
 H                    -1.72817   0.01276   0.47041 
 H                     1.61774   0.70075   0.33165 
 H                     0.71956   2.45117   1.6953 
 H                    -1.25571   0.52061   2.41061 
 
 ITRead=  0  0  0  0  0  0  0  0  0  0  0
 MicOpt= -1 -1 -1 -1 -1 -1 -1 -1 -1 -1 -1
 NAtoms=     11 NQM=       11 NQMF=       0 NMMI=      0 NMMIF=      0
                NMic=       0 NMicF=      0.
                    Isotopes and Nuclear Properties:
 (Nuclear quadrupole moments (NQMom) in fm**2, nuclear magnetic moments (NMagM)
  in nuclear magnetons)

  Atom         1           2           3           4           5           6           7           8           9          10
 IAtWgt=          16          16          12          12          12           1           1           1           1           1
 AtmWgt=  15.9949146  15.9949146  12.0000000  12.0000000  12.0000000   1.0078250   1.0078250   1.0078250   1.0078250   1.0078250
 NucSpn=           0           0           0           0           0           1           1           1           1           1
 AtZEff=  -0.0000000  -0.0000000  -0.0000000  -0.0000000  -0.0000000  -0.0000000  -0.0000000  -0.0000000  -0.0000000  -0.0000000
 NQMom=    0.0000000   0.0000000   0.0000000   0.0000000   0.0000000   0.0000000   0.0000000   0.0000000   0.0000000   0.0000000
 NMagM=    0.0000000   0.0000000   0.0000000   0.0000000   0.0000000   2.7928460   2.7928460   2.7928460   2.7928460   2.7928460
 AtZNuc=   8.0000000   8.0000000   6.0000000   6.0000000   6.0000000   1.0000000   1.0000000   1.0000000   1.0000000   1.0000000

  Atom        11
 IAtWgt=           1
 AtmWgt=   1.0078250
 NucSpn=           1
 AtZEff=  -0.0000000
 NQMom=    0.0000000
 NMagM=    2.7928460
 AtZNuc=   1.0000000
 Leave Link  101 at Wed Sep 25 09:38:44 2019, MaxMem=   671088640 cpu:               3.3 elap:               1.7
 (Enter /shared/centos7/gaussian/g16/l103.exe)

 GradGradGradGradGradGradGradGradGradGradGradGradGradGradGradGradGradGrad
 Berny optimization.
 Initialization pass.
                           ----------------------------
                           !    Initial Parameters    !
                           ! (Angstroms and Degrees)  !
 --------------------------                            --------------------------
 ! Name  Definition              Value          Derivative Info.                !
 --------------------------------------------------------------------------------
 ! R1    R(1,3)                  1.4295         calculate D2E/DX2 analytically  !
 ! R2    R(1,4)                  1.3891         calculate D2E/DX2 analytically  !
 ! R3    R(2,5)                  1.3771         calculate D2E/DX2 analytically  !
 ! R4    R(2,11)                 1.0169         calculate D2E/DX2 analytically  !
 ! R5    R(3,6)                  1.128          calculate D2E/DX2 analytically  !
 ! R6    R(3,7)                  1.1272         calculate D2E/DX2 analytically  !
 ! R7    R(3,8)                  1.0902         calculate D2E/DX2 analytically  !
 ! R8    R(4,5)                  1.3119         calculate D2E/DX2 analytically  !
 ! R9    R(4,9)                  1.0883         calculate D2E/DX2 analytically  !
 ! R10   R(5,10)                 1.0691         calculate D2E/DX2 analytically  !
 ! A1    A(3,1,4)              114.2791         calculate D2E/DX2 analytically  !
 ! A2    A(5,2,11)             106.7727         calculate D2E/DX2 analytically  !
 ! A3    A(1,3,6)              107.201          calculate D2E/DX2 analytically  !
 ! A4    A(1,3,7)              111.0911         calculate D2E/DX2 analytically  !
 ! A5    A(1,3,8)              111.4035         calculate D2E/DX2 analytically  !
 ! A6    A(6,3,7)              107.8637         calculate D2E/DX2 analytically  !
 ! A7    A(6,3,8)              109.5959         calculate D2E/DX2 analytically  !
 ! A8    A(7,3,8)              109.5863         calculate D2E/DX2 analytically  !
 ! A9    A(1,4,5)              129.1077         calculate D2E/DX2 analytically  !
 ! A10   A(1,4,9)              111.0841         calculate D2E/DX2 analytically  !
 ! A11   A(5,4,9)              119.7592         calculate D2E/DX2 analytically  !
 ! A12   A(2,5,4)              127.7097         calculate D2E/DX2 analytically  !
 ! A13   A(2,5,10)             111.8777         calculate D2E/DX2 analytically  !
 ! A14   A(4,5,10)             120.4103         calculate D2E/DX2 analytically  !
 ! D1    D(4,1,3,6)            157.1601         calculate D2E/DX2 analytically  !
 ! D2    D(4,1,3,7)            -85.2222         calculate D2E/DX2 analytically  !
 ! D3    D(4,1,3,8)             37.2635         calculate D2E/DX2 analytically  !
 ! D4    D(3,1,4,5)             29.309          calculate D2E/DX2 analytically  !
 ! D5    D(3,1,4,9)           -153.2857         calculate D2E/DX2 analytically  !
 ! D6    D(11,2,5,4)             4.0651         calculate D2E/DX2 analytically  !
 ! D7    D(11,2,5,10)         -176.4977         calculate D2E/DX2 analytically  !
 ! D8    D(1,4,5,2)             -0.4064         calculate D2E/DX2 analytically  !
 ! D9    D(1,4,5,10)          -179.8009         calculate D2E/DX2 analytically  !
 ! D10   D(9,4,5,2)           -177.6175         calculate D2E/DX2 analytically  !
 ! D11   D(9,4,5,10)             2.9881         calculate D2E/DX2 analytically  !
 --------------------------------------------------------------------------------
 Trust Radius=3.00D-01 FncErr=1.00D-07 GrdErr=1.00D-06 EigMax=2.50D+02 EigMin=1.00D-04
 Number of steps in this run=    100 maximum allowed number of steps=    100.
 GradGradGradGradGradGradGradGradGradGradGradGradGradGradGradGradGradGrad

 Leave Link  103 at Wed Sep 25 09:38:45 2019, MaxMem=   671088640 cpu:               1.2 elap:               0.6
 (Enter /shared/centos7/gaussian/g16/l202.exe)
                          Input orientation:                          
 ---------------------------------------------------------------------
 Center     Atomic      Atomic             Coordinates (Angstroms)
 Number     Number       Type             X           Y           Z
 ---------------------------------------------------------------------
      1          8           0        0.207953   -0.741379    0.698353
      2          8           0       -0.886672    1.466771    2.461640
      3          6           0       -1.207230   -0.862217    0.859665
      4          6           0        0.696983    0.544521    0.890427
      5          6           0        0.228712    1.502329    1.654822
      6          1           0       -1.530831   -1.780010    0.289254
      7          1           0       -1.480558   -1.013958    1.942697
      8          1           0       -1.728170    0.012763    0.470408
      9          1           0        1.617737    0.700748    0.331649
     10          1           0        0.719556    2.451174    1.695298
     11          1           0       -1.255710    0.520609    2.410607
 ---------------------------------------------------------------------
                    Distance matrix (angstroms):
                    1          2          3          4          5
     1  O    0.000000
     2  O    3.030399   0.000000
     3  C    1.429464   2.844866   0.000000
     4  C    1.389094   2.413963   2.367675   0.000000
     5  C    2.439158   1.377063   2.878416   1.311858   0.000000
     6  H    2.066273   3.959266   1.128020   3.275364   3.966675
     7  H    2.115127   2.603079   1.127250   2.877119   3.055516
     8  H    2.090278   2.605237   1.090179   2.518044   2.729657
     9  H    2.049803   3.375755   3.271406   1.088314   2.079113
    10  H    3.383494   2.033789   3.922925   2.069698   1.069052
    11  H    2.582003   1.016866   2.078456   2.474778   1.933518
                    6          7          8          9         10
     6  H    0.000000
     7  H    1.822974   0.000000
     8  H    1.812676   1.811934   0.000000
     9  H    4.008670   3.890389   3.418723   0.000000
    10  H    4.994408   4.112037   3.665728   2.393796   0.000000
    11  H    3.141445   1.619998   2.060461   3.551227   2.853143
                   11
    11  H    0.000000
 Stoichiometry    C3H6O2
 Framework group  C1[X(C3H6O2)]
 Deg. of freedom    27
 Full point group                 C1      NOp   1
 Largest Abelian subgroup         C1      NOp   1
 Largest concise Abelian subgroup C1      NOp   1
                         Standard orientation:                         
 ---------------------------------------------------------------------
 Center     Atomic      Atomic             Coordinates (Angstroms)
 Number     Number       Type             X           Y           Z
 ---------------------------------------------------------------------
      1          8           0       -1.180286    0.589741   -0.235247
      2          8           0        1.437824   -0.929532   -0.091646
      3          6           0       -1.391121   -0.767316    0.161378
      4          6           0        0.094272    1.072046    0.033947
      5          6           0        1.230531    0.419134    0.093906
      6          1           0       -2.502481   -0.907064    0.294714
      7          1           0       -1.046306   -1.482139   -0.639136
      8          1           0       -0.879423   -0.992333    1.097339
      9          1           0        0.084469    2.152396    0.164999
     10          1           0        2.139821    0.934839    0.317768
     11          1           0        0.541527   -1.330554   -0.355935
 ---------------------------------------------------------------------
 Rotational constants (GHZ):           8.9560365           4.4336279           3.0887848
 Leave Link  202 at Wed Sep 25 09:38:46 2019, MaxMem=   671088640 cpu:               3.2 elap:               1.6
 (Enter /shared/centos7/gaussian/g16/l301.exe)
 Standard basis: CC-pVTZ (5D, 7F)
 Ernie: Thresh=  0.10000D-02 Tol=  0.10000D-05 Strict=F.
 Ernie:  15 primitive shells out of 178 were deleted.
 There are   265 symmetry adapted cartesian basis functions of A   symmetry.
 There are   234 symmetry adapted basis functions of A   symmetry.
   234 basis functions,   362 primitive gaussians,   265 cartesian basis functions
    20 alpha electrons       20 beta electrons
       nuclear repulsion energy       180.6229001948 Hartrees.
 IExCor= 4336 DFT=T Ex+Corr=M062X ExCW=0 ScaHFX=  0.540000
 ScaDFX=  1.000000  1.000000  1.000000  1.000000 ScalE2=  1.000000  1.000000
 IRadAn=      5 IRanWt=     -1 IRanGd=            0 ICorTp=0 IEmpDi=  4
 NAtoms=   11 NActive=   11 NUniq=   11 SFac= 1.00D+00 NAtFMM=   60 NAOKFM=F Big=F
 Integral buffers will be    131072 words long.
 Raffenetti 2 integral format.
 Two-electron integral symmetry is turned on.
 Leave Link  301 at Wed Sep 25 09:38:47 2019, MaxMem=   671088640 cpu:               1.9 elap:               0.9
 (Enter /shared/centos7/gaussian/g16/l302.exe)
 NPDir=0 NMtPBC=     1 NCelOv=     1 NCel=       1 NClECP=     1 NCelD=      1
         NCelK=      1 NCelE2=     1 NClLst=     1 CellRange=     0.0.
 One-electron integrals computed using PRISM.
 One-electron integral symmetry used in STVInt
 NBasis=   234 RedAO= T EigKep=  3.62D-04  NBF=   234
 NBsUse=   234 1.00D-06 EigRej= -1.00D+00 NBFU=   234
 Precomputing XC quadrature grid using
 IXCGrd= 4 IRadAn=           5 IRanWt=          -1 IRanGd=           0 AccXCQ= 0.00D+00.
 Generated NRdTot=       0 NPtTot=           0 NUsed=           0 NTot=          32
 NSgBfM=   265   265   265   265   265 MxSgAt=    11 MxSgA2=    11.
 Leave Link  302 at Wed Sep 25 09:39:56 2019, MaxMem=   671088640 cpu:             137.8 elap:              69.3
 (Enter /shared/centos7/gaussian/g16/l303.exe)
 DipDrv:  MaxL=1.
 Leave Link  303 at Wed Sep 25 09:40:01 2019, MaxMem=   671088640 cpu:               8.5 elap:               4.3
 (Enter /shared/centos7/gaussian/g16/l401.exe)
 ExpMin= 1.03D-01 ExpMax= 1.53D+04 ExpMxC= 5.22D+02 IAcc=3 IRadAn=         5 AccDes= 0.00D+00
 Harris functional with IExCor= 1009 and IRadAn=       5 diagonalized for initial guess.
 HarFok:  IExCor= 1009 AccDes= 0.00D+00 IRadAn=         5 IDoV= 1 UseB2=F ITyADJ=14
 ICtDFT=  3500011 ScaDFX=  1.000000  1.000000  1.000000  1.000000
 FoFCou: FMM=F IPFlag=           0 FMFlag=      100000 FMFlg1=           0
         NFxFlg=           0 DoJE=T BraDBF=F KetDBF=T FulRan=T
         wScrn=  0.000000 ICntrl=       500 IOpCl=  0 I1Cent=   200000004 NGrid=           0
         NMat0=    1 NMatS0=      1 NMatT0=    0 NMatD0=    1 NMtDS0=    0 NMtDT0=    0
 Petite list used in FoFCou.
 Harris En= -268.190254787753    
 JPrj=0 DoOrth=F DoCkMO=F.
 Leave Link  401 at Wed Sep 25 09:40:28 2019, MaxMem=   671088640 cpu:              54.8 elap:              27.4
 (Enter /shared/centos7/gaussian/g16/l502.exe)
 Keep R1 ints in memory in canonical form, NReq=399924305.
 FoFCou: FMM=F IPFlag=           0 FMFlag=           0 FMFlg1=           0
         NFxFlg=           0 DoJE=F BraDBF=F KetDBF=F FulRan=T
         wScrn=  0.000000 ICntrl=       600 IOpCl=  0 I1Cent=           0 NGrid=           0
         NMat0=    1 NMatS0=  27495 NMatT0=    0 NMatD0=    1 NMtDS0=    0 NMtDT0=    0
 Symmetry not used in FoFCou.
 Two-electron integral symmetry not used.
 Closed shell SCF:
 Using DIIS extrapolation, IDIIS=  1040.
 NGot=   671088640 LenX=   292939207 LenY=   292868541
 Requested convergence on RMS density matrix=1.00D-08 within 900 cycles.
 Requested convergence on MAX density matrix=1.00D-06.
 Requested convergence on             energy=1.00D-06.
 No special actions if energy rises.
 Integral accuracy reduced to 1.0D-05 until final iterations.

 Cycle   1  Pass 0  IDiag  1:
 E= -268.188602557016    
 DIIS: error= 1.80D-02 at cycle   1 NSaved=   1.
 NSaved= 1 IEnMin= 1 EnMin= -268.188602557016     IErMin= 1 ErrMin= 1.80D-02
 ErrMax= 1.80D-02  0.00D+00 EMaxC= 1.00D-01 BMatC= 1.68D-01 BMatP= 1.68D-01
 IDIUse=3 WtCom= 8.20D-01 WtEn= 1.80D-01
 Coeff-Com:  0.100D+01
 Coeff-En:   0.100D+01
 Coeff:      0.100D+01
 Gap=     0.364 Goal=   None    Shift=    0.000
 GapD=    0.364 DampG=1.000 DampE=0.500 DampFc=0.5000 IDamp=-1.
 Damping current iteration by 5.00D-01
 RMSDP=1.87D-03 MaxDP=5.71D-02              OVMax= 1.11D-01

 Cycle   2  Pass 0  IDiag  1:
 E= -268.251328411774     Delta-E=       -0.062725854758 Rises=F Damp=T
 DIIS: error= 5.06D-03 at cycle   2 NSaved=   2.
 NSaved= 2 IEnMin= 2 EnMin= -268.251328411774     IErMin= 2 ErrMin= 5.06D-03
 ErrMax= 5.06D-03  0.00D+00 EMaxC= 1.00D-01 BMatC= 1.65D-02 BMatP= 1.68D-01
 IDIUse=3 WtCom= 9.49D-01 WtEn= 5.06D-02
 Coeff-Com: -0.195D+00 0.120D+01
 Coeff-En:   0.000D+00 0.100D+01
 Coeff:     -0.185D+00 0.119D+01
 Gap=     0.338 Goal=   None    Shift=    0.000
 RMSDP=3.98D-04 MaxDP=9.35D-03 DE=-6.27D-02 OVMax= 4.88D-02

 Cycle   3  Pass 0  IDiag  1:
 E= -268.305106093914     Delta-E=       -0.053777682140 Rises=F Damp=F
 DIIS: error= 3.51D-03 at cycle   3 NSaved=   3.
 NSaved= 3 IEnMin= 3 EnMin= -268.305106093914     IErMin= 3 ErrMin= 3.51D-03
 ErrMax= 3.51D-03  0.00D+00 EMaxC= 1.00D-01 BMatC= 3.77D-03 BMatP= 1.65D-02
 IDIUse=3 WtCom= 9.65D-01 WtEn= 3.51D-02
 Coeff-Com: -0.124D+00 0.407D+00 0.716D+00
 Coeff-En:   0.000D+00 0.000D+00 0.100D+01
 Coeff:     -0.119D+00 0.393D+00 0.726D+00
 Gap=     0.336 Goal=   None    Shift=    0.000
 RMSDP=1.88D-04 MaxDP=6.08D-03 DE=-5.38D-02 OVMax= 1.77D-02

 Cycle   4  Pass 0  IDiag  1:
 E= -268.306962621581     Delta-E=       -0.001856527667 Rises=F Damp=F
 DIIS: error= 1.33D-03 at cycle   4 NSaved=   4.
 NSaved= 4 IEnMin= 4 EnMin= -268.306962621581     IErMin= 4 ErrMin= 1.33D-03
 ErrMax= 1.33D-03  0.00D+00 EMaxC= 1.00D-01 BMatC= 8.43D-04 BMatP= 3.77D-03
 IDIUse=3 WtCom= 9.87D-01 WtEn= 1.33D-02
 Coeff-Com: -0.373D-01 0.934D-01 0.365D+00 0.579D+00
 Coeff-En:   0.000D+00 0.000D+00 0.177D+00 0.823D+00
 Coeff:     -0.368D-01 0.921D-01 0.363D+00 0.582D+00
 Gap=     0.332 Goal=   None    Shift=    0.000
 RMSDP=7.45D-05 MaxDP=2.47D-03 DE=-1.86D-03 OVMax= 7.99D-03

 Cycle   5  Pass 0  IDiag  1:
 E= -268.307595056086     Delta-E=       -0.000632434505 Rises=F Damp=F
 DIIS: error= 2.36D-04 at cycle   5 NSaved=   5.
 NSaved= 5 IEnMin= 5 EnMin= -268.307595056086     IErMin= 5 ErrMin= 2.36D-04
 ErrMax= 2.36D-04  0.00D+00 EMaxC= 1.00D-01 BMatC= 2.10D-05 BMatP= 8.43D-04
 IDIUse=3 WtCom= 9.98D-01 WtEn= 2.36D-03
 Coeff-Com: -0.722D-02 0.139D-01 0.976D-01 0.224D+00 0.672D+00
 Coeff-En:   0.000D+00 0.000D+00 0.000D+00 0.000D+00 0.100D+01
 Coeff:     -0.721D-02 0.139D-01 0.973D-01 0.223D+00 0.673D+00
 Gap=     0.332 Goal=   None    Shift=    0.000
 RMSDP=1.37D-05 MaxDP=4.51D-04 DE=-6.32D-04 OVMax= 1.66D-03

 Cycle   6  Pass 0  IDiag  1:
 E= -268.307612026132     Delta-E=       -0.000016970046 Rises=F Damp=F
 DIIS: error= 4.85D-05 at cycle   6 NSaved=   6.
 NSaved= 6 IEnMin= 6 EnMin= -268.307612026132     IErMin= 6 ErrMin= 4.85D-05
 ErrMax= 4.85D-05  0.00D+00 EMaxC= 1.00D-01 BMatC= 1.37D-06 BMatP= 2.10D-05
 IDIUse=1 WtCom= 1.00D+00 WtEn= 0.00D+00
 Coeff-Com: -0.140D-02 0.180D-02 0.251D-01 0.728D-01 0.274D+00 0.627D+00
 Coeff:     -0.140D-02 0.180D-02 0.251D-01 0.728D-01 0.274D+00 0.627D+00
 Gap=     0.332 Goal=   None    Shift=    0.000
 RMSDP=3.99D-06 MaxDP=1.20D-04 DE=-1.70D-05 OVMax= 4.64D-04

 Initial convergence to 1.0D-05 achieved.  Increase integral accuracy.
 Cycle   7  Pass 1  IDiag  1:
 E= -268.307581969292     Delta-E=        0.000030056840 Rises=F Damp=F
 DIIS: error= 2.02D-05 at cycle   1 NSaved=   1.
 NSaved= 1 IEnMin= 1 EnMin= -268.307581969292     IErMin= 1 ErrMin= 2.02D-05
 ErrMax= 2.02D-05  0.00D+00 EMaxC= 1.00D-01 BMatC= 4.18D-07 BMatP= 4.18D-07
 IDIUse=1 WtCom= 1.00D+00 WtEn= 0.00D+00
 Coeff-Com:  0.100D+01
 Coeff:      0.100D+01
 Gap=     0.332 Goal=   None    Shift=    0.000
 RMSDP=3.99D-06 MaxDP=1.20D-04 DE= 3.01D-05 OVMax= 4.33D-04

 Cycle   8  Pass 1  IDiag  1:
 E= -268.307581969007     Delta-E=        0.000000000285 Rises=F Damp=F
 DIIS: error= 2.64D-05 at cycle   2 NSaved=   2.
 NSaved= 2 IEnMin= 1 EnMin= -268.307581969292     IErMin= 1 ErrMin= 2.02D-05
 ErrMax= 2.64D-05  0.00D+00 EMaxC= 1.00D-01 BMatC= 4.50D-07 BMatP= 4.18D-07
 IDIUse=1 WtCom= 1.00D+00 WtEn= 0.00D+00
 Coeff-Com:  0.511D+00 0.489D+00
 Coeff:      0.511D+00 0.489D+00
 Gap=     0.332 Goal=   None    Shift=    0.000
 RMSDP=2.00D-06 MaxDP=6.23D-05 DE= 2.85D-10 OVMax= 2.61D-04

 Cycle   9  Pass 1  IDiag  1:
 E= -268.307582302932     Delta-E=       -0.000000333926 Rises=F Damp=F
 DIIS: error= 5.72D-06 at cycle   3 NSaved=   3.
 NSaved= 3 IEnMin= 3 EnMin= -268.307582302932     IErMin= 3 ErrMin= 5.72D-06
 ErrMax= 5.72D-06  0.00D+00 EMaxC= 1.00D-01 BMatC= 1.81D-08 BMatP= 4.18D-07
 IDIUse=1 WtCom= 1.00D+00 WtEn= 0.00D+00
 Coeff-Com: -0.294D-01 0.147D+00 0.882D+00
 Coeff:     -0.294D-01 0.147D+00 0.882D+00
 Gap=     0.332 Goal=   None    Shift=    0.000
 RMSDP=5.78D-07 MaxDP=2.12D-05 DE=-3.34D-07 OVMax= 5.64D-05

 Cycle  10  Pass 1  IDiag  1:
 E= -268.307582318325     Delta-E=       -0.000000015392 Rises=F Damp=F
 DIIS: error= 1.68D-06 at cycle   4 NSaved=   4.
 NSaved= 4 IEnMin= 4 EnMin= -268.307582318325     IErMin= 4 ErrMin= 1.68D-06
 ErrMax= 1.68D-06  0.00D+00 EMaxC= 1.00D-01 BMatC= 8.46D-10 BMatP= 1.81D-08
 IDIUse=1 WtCom= 1.00D+00 WtEn= 0.00D+00
 Coeff-Com: -0.212D-01 0.411D-01 0.332D+00 0.648D+00
 Coeff:     -0.212D-01 0.411D-01 0.332D+00 0.648D+00
 Gap=     0.332 Goal=   None    Shift=    0.000
 RMSDP=1.03D-07 MaxDP=2.35D-06 DE=-1.54D-08 OVMax= 7.73D-06

 Cycle  11  Pass 1  IDiag  1:
 E= -268.307582318974     Delta-E=       -0.000000000650 Rises=F Damp=F
 DIIS: error= 5.81D-07 at cycle   5 NSaved=   5.
 NSaved= 5 IEnMin= 5 EnMin= -268.307582318974     IErMin= 5 ErrMin= 5.81D-07
 ErrMax= 5.81D-07  0.00D+00 EMaxC= 1.00D-01 BMatC= 1.22D-10 BMatP= 8.46D-10
 IDIUse=1 WtCom= 1.00D+00 WtEn= 0.00D+00
 Coeff-Com: -0.356D-02-0.910D-02-0.364D-02 0.244D+00 0.773D+00
 Coeff:     -0.356D-02-0.910D-02-0.364D-02 0.244D+00 0.773D+00
 Gap=     0.332 Goal=   None    Shift=    0.000
 RMSDP=5.02D-08 MaxDP=1.66D-06 DE=-6.50D-10 OVMax= 3.19D-06

 Cycle  12  Pass 1  IDiag  1:
 E= -268.307582319082     Delta-E=       -0.000000000108 Rises=F Damp=F
 DIIS: error= 2.18D-07 at cycle   6 NSaved=   6.
 NSaved= 6 IEnMin= 6 EnMin= -268.307582319082     IErMin= 6 ErrMin= 2.18D-07
 ErrMax= 2.18D-07  0.00D+00 EMaxC= 1.00D-01 BMatC= 1.56D-11 BMatP= 1.22D-10
 IDIUse=1 WtCom= 1.00D+00 WtEn= 0.00D+00
 Coeff-Com:  0.152D-02-0.102D-01-0.474D-01 0.974D-02 0.324D+00 0.722D+00
 Coeff:      0.152D-02-0.102D-01-0.474D-01 0.974D-02 0.324D+00 0.722D+00
 Gap=     0.332 Goal=   None    Shift=    0.000
 RMSDP=1.57D-08 MaxDP=4.11D-07 DE=-1.08D-10 OVMax= 1.42D-06

 Cycle  13  Pass 1  IDiag  1:
 E= -268.307582319094     Delta-E=       -0.000000000012 Rises=F Damp=F
 DIIS: error= 3.80D-08 at cycle   7 NSaved=   7.
 NSaved= 7 IEnMin= 7 EnMin= -268.307582319094     IErMin= 7 ErrMin= 3.80D-08
 ErrMax= 3.80D-08  0.00D+00 EMaxC= 1.00D-01 BMatC= 8.41D-13 BMatP= 1.56D-11
 IDIUse=1 WtCom= 1.00D+00 WtEn= 0.00D+00
 Coeff-Com:  0.767D-03-0.304D-02-0.162D-01-0.123D-01 0.682D-01 0.248D+00
 Coeff-Com:  0.715D+00
 Coeff:      0.767D-03-0.304D-02-0.162D-01-0.123D-01 0.682D-01 0.248D+00
 Coeff:      0.715D+00
 Gap=     0.332 Goal=   None    Shift=    0.000
 RMSDP=4.28D-09 MaxDP=1.13D-07 DE=-1.21D-11 OVMax= 4.81D-07

 SCF Done:  E(RM062X) =  -268.307582319     A.U. after   13 cycles
            NFock= 13  Conv=0.43D-08     -V/T= 2.0060
 KE= 2.667044524874D+02 PE=-9.893414659948D+02 EE= 2.737065309936D+02
 Leave Link  502 at Wed Sep 25 09:45:36 2019, MaxMem=   671088640 cpu:             609.3 elap:             308.2
 (Enter /shared/centos7/gaussian/g16/l801.exe)
 DoSCS=F DFT=T ScalE2(SS,OS)=  1.000000  1.000000
 Range of M.O.s used for correlation:     1   234
 NBasis=   234 NAE=    20 NBE=    20 NFC=     0 NFV=     0
 NROrb=    234 NOA=    20 NOB=    20 NVA=   214 NVB=   214

 **** Warning!!: The largest alpha MO coefficient is  0.11468507D+02

 Leave Link  801 at Wed Sep 25 09:45:37 2019, MaxMem=   671088640 cpu:               1.7 elap:               0.8
 (Enter /shared/centos7/gaussian/g16/l1101.exe)
 Using compressed storage, NAtomX=    11.
 Will process     12 centers per pass.
 Leave Link 1101 at Wed Sep 25 09:46:02 2019, MaxMem=   671088640 cpu:              48.8 elap:              24.4
 (Enter /shared/centos7/gaussian/g16/l1102.exe)
 Symmetrizing basis deriv contribution to polar:
 IMax=3 JMax=2 DiffMx= 0.00D+00
 Leave Link 1102 at Wed Sep 25 09:46:04 2019, MaxMem=   671088640 cpu:               5.0 elap:               2.5
 (Enter /shared/centos7/gaussian/g16/l1110.exe)
 Forming Gx(P) for the SCF density, NAtomX=    11.
 Integral derivatives from FoFJK, PRISM(SPDF).
 Do as many integral derivatives as possible in FoFJK.
 G2DrvN: MDV=     671087712.
 G2DrvN: will do    12 centers at a time, making    1 passes.
 Calling FoFCou, ICntrl=  3107 FMM=F I1Cent=   0 AccDes= 0.00D+00.
 FoFJK:  IHMeth= 1 ICntrl=    3107 DoSepK=F KAlg= 0 I1Cent=           0 FoldK=F
 IRaf=         0 NMat=       1 IRICut=       1 DoRegI=T DoRafI=F ISym2E= 0 IDoP0=0 IntGTp=1.
 FoFCou: FMM=F IPFlag=           0 FMFlag=      100000 FMFlg1=           0
         NFxFlg=           0 DoJE=F BraDBF=F KetDBF=F FulRan=T
         wScrn=  0.000000 ICntrl=      3107 IOpCl=  0 I1Cent=           0 NGrid=           0
         NMat0=    1 NMatS0=      1 NMatT0=    0 NMatD0=    1 NMtDS0=    0 NMtDT0=    0
 Symmetry not used in FoFCou.
 End of G2Drv F.D. properties file   721 does not exist.
 End of G2Drv F.D. properties file   722 does not exist.
 End of G2Drv F.D. properties file   788 does not exist.
 Leave Link 1110 at Wed Sep 25 09:52:07 2019, MaxMem=   671088640 cpu:             726.0 elap:             363.1
 (Enter /shared/centos7/gaussian/g16/l1002.exe)
 Minotr:  Closed shell wavefunction.
          IDoAtm=11111111111
          Direct CPHF calculation.
          Differentiating once with respect to nuclear coordinates.
          Requested convergence is 1.0D-08 RMS, and 1.0D-07 maximum.
          Secondary convergence is 1.0D-12 RMS, and 1.0D-12 maximum.
          NewPWx=T KeepS1=F KeepF1=F KeepIn=T MapXYZ=F SortEE=F KeepMc=T.
         3265 words used for storage of precomputed grid.
 Keep R1 ints in memory in canonical form, NReq=399865264.
 FoFCou: FMM=F IPFlag=           0 FMFlag=           0 FMFlg1=           0
         NFxFlg=           0 DoJE=F BraDBF=F KetDBF=F FulRan=T
         wScrn=  0.000000 ICntrl=       600 IOpCl=  0 I1Cent=           0 NGrid=           0
         NMat0=    1 NMatS0=  27495 NMatT0=    0 NMatD0=    1 NMtDS0=    0 NMtDT0=    0
 Symmetry not used in FoFCou.
 Two-electron integral symmetry not used.
          MDV=     671088640 using IRadAn=       1.
          Solving linear equations simultaneously, MaxMat=       0.
          There are    36 degrees of freedom in the 1st order CPHF.  IDoFFX=6 NUNeed=     0.
     30 vectors produced by pass  0 Test12= 1.19D-14 2.78D-09 XBig12= 5.85D-02 8.24D-02.
 AX will form    30 AO Fock derivatives at one time.
     30 vectors produced by pass  1 Test12= 1.19D-14 2.78D-09 XBig12= 1.15D-02 3.15D-02.
     30 vectors produced by pass  2 Test12= 1.19D-14 2.78D-09 XBig12= 4.34D-04 4.25D-03.
     30 vectors produced by pass  3 Test12= 1.19D-14 2.78D-09 XBig12= 6.53D-06 4.59D-04.
     30 vectors produced by pass  4 Test12= 1.19D-14 2.78D-09 XBig12= 4.82D-08 2.89D-05.
     30 vectors produced by pass  5 Test12= 1.19D-14 2.78D-09 XBig12= 2.47D-10 1.59D-06.
     18 vectors produced by pass  6 Test12= 1.19D-14 2.78D-09 XBig12= 1.03D-12 1.31D-07.
      4 vectors produced by pass  7 Test12= 1.19D-14 2.78D-09 XBig12= 3.66D-15 6.58D-09.
 InvSVY:  IOpt=1 It=  1 EMax= 1.55D-15
 Solved reduced A of dimension   202 with    30 vectors.
 End of Minotr F.D. properties file   721 does not exist.
 End of Minotr F.D. properties file   722 does not exist.
 End of Minotr F.D. properties file   788 does not exist.
 Leave Link 1002 at Wed Sep 25 10:00:34 2019, MaxMem=   671088640 cpu:            1013.7 elap:             506.9
 (Enter /shared/centos7/gaussian/g16/l601.exe)
 Copying SCF densities to generalized density rwf, IOpCl= 0 IROHF=0.

 **********************************************************************

            Population analysis using the SCF density.

 **********************************************************************

 Orbital symmetries:
       Occupied  (A) (A) (A) (A) (A) (A) (A) (A) (A) (A) (A) (A)
                 (A) (A) (A) (A) (A) (A) (A) (A)
       Virtual   (A) (A) (A) (A) (A) (A) (A) (A) (A) (A) (A) (A)
                 (A) (A) (A) (A) (A) (A) (A) (A) (A) (A) (A) (A)
                 (A) (A) (A) (A) (A) (A) (A) (A) (A) (A) (A) (A)
                 (A) (A) (A) (A) (A) (A) (A) (A) (A) (A) (A) (A)
                 (A) (A) (A) (A) (A) (A) (A) (A) (A) (A) (A) (A)
                 (A) (A) (A) (A) (A) (A) (A) (A) (A) (A) (A) (A)
                 (A) (A) (A) (A) (A) (A) (A) (A) (A) (A) (A) (A)
                 (A) (A) (A) (A) (A) (A) (A) (A) (A) (A) (A) (A)
                 (A) (A) (A) (A) (A) (A) (A) (A) (A) (A) (A) (A)
                 (A) (A) (A) (A) (A) (A) (A) (A) (A) (A) (A) (A)
                 (A) (A) (A) (A) (A) (A) (A) (A) (A) (A) (A) (A)
                 (A) (A) (A) (A) (A) (A) (A) (A) (A) (A) (A) (A)
                 (A) (A) (A) (A) (A) (A) (A) (A) (A) (A) (A) (A)
                 (A) (A) (A) (A) (A) (A) (A) (A) (A) (A) (A) (A)
                 (A) (A) (A) (A) (A) (A) (A) (A) (A) (A) (A) (A)
                 (A) (A) (A) (A) (A) (A) (A) (A) (A) (A) (A) (A)
                 (A) (A) (A) (A) (A) (A) (A) (A) (A) (A) (A) (A)
                 (A) (A) (A) (A) (A) (A) (A) (A) (A) (A)
 The electronic state is 1-A.
 Alpha  occ. eigenvalues --  -19.65659 -19.64845 -10.61171 -10.58553 -10.58125
 Alpha  occ. eigenvalues --   -1.18705  -1.15829  -0.86271  -0.79390  -0.69097
 Alpha  occ. eigenvalues --   -0.60245  -0.58644  -0.55346  -0.51752  -0.48070
 Alpha  occ. eigenvalues --   -0.46884  -0.45816  -0.42544  -0.38766  -0.27574
 Alpha virt. eigenvalues --    0.05656   0.08069   0.09279   0.11617   0.12112
 Alpha virt. eigenvalues --    0.12890   0.14150   0.16171   0.21993   0.27434
 Alpha virt. eigenvalues --    0.30781   0.32140   0.33119   0.34775   0.35651
 Alpha virt. eigenvalues --    0.36677   0.39300   0.41766   0.42645   0.45085
 Alpha virt. eigenvalues --    0.46413   0.47396   0.48347   0.50218   0.51610
 Alpha virt. eigenvalues --    0.54917   0.55676   0.57126   0.60875   0.64225
 Alpha virt. eigenvalues --    0.66649   0.68849   0.70965   0.74358   0.76165
 Alpha virt. eigenvalues --    0.77786   0.80714   0.84427   0.85633   0.86357
 Alpha virt. eigenvalues --    0.89685   0.95029   0.96444   0.98617   1.01527
 Alpha virt. eigenvalues --    1.02450   1.05188   1.05735   1.09557   1.13101
 Alpha virt. eigenvalues --    1.14854   1.18001   1.20577   1.21917   1.23577
 Alpha virt. eigenvalues --    1.27971   1.29486   1.30548   1.32390   1.35949
 Alpha virt. eigenvalues --    1.38050   1.42018   1.43510   1.48724   1.52294
 Alpha virt. eigenvalues --    1.54524   1.57692   1.58668   1.66134   1.83805
 Alpha virt. eigenvalues --    1.88132   1.92039   1.97117   2.00782   2.03943
 Alpha virt. eigenvalues --    2.07159   2.09398   2.10156   2.12462   2.18360
 Alpha virt. eigenvalues --    2.25114   2.27882   2.30498   2.34621   2.36074
 Alpha virt. eigenvalues --    2.39869   2.48444   2.50522   2.54229   2.57148
 Alpha virt. eigenvalues --    2.59950   2.68105   2.72425   2.73797   2.75403
 Alpha virt. eigenvalues --    2.76952   2.80212   2.81654   2.84210   2.86765
 Alpha virt. eigenvalues --    2.91834   2.93021   2.94649   2.96339   2.99729
 Alpha virt. eigenvalues --    3.00022   3.02649   3.05951   3.08214   3.09997
 Alpha virt. eigenvalues --    3.11091   3.13295   3.16761   3.17845   3.21440
 Alpha virt. eigenvalues --    3.22631   3.25734   3.26865   3.28767   3.30467
 Alpha virt. eigenvalues --    3.31279   3.32617   3.35847   3.40090   3.41266
 Alpha virt. eigenvalues --    3.46506   3.46989   3.49751   3.54275   3.57677
 Alpha virt. eigenvalues --    3.59731   3.61554   3.66202   3.68025   3.71025
 Alpha virt. eigenvalues --    3.73019   3.75761   3.76543   3.79102   3.83101
 Alpha virt. eigenvalues --    3.84391   3.86358   3.86691   3.90576   3.94176
 Alpha virt. eigenvalues --    3.98790   4.02176   4.07030   4.08187   4.10733
 Alpha virt. eigenvalues --    4.12223   4.13283   4.18588   4.24190   4.27521
 Alpha virt. eigenvalues --    4.28571   4.35080   4.37252   4.41044   4.45723
 Alpha virt. eigenvalues --    4.58318   4.61270   4.65021   4.65506   4.70935
 Alpha virt. eigenvalues --    4.76859   4.77233   4.81133   4.87993   4.90219
 Alpha virt. eigenvalues --    4.91917   4.96406   4.99243   5.01354   5.04613
 Alpha virt. eigenvalues --    5.06259   5.09239   5.11773   5.21499   5.31373
 Alpha virt. eigenvalues --    5.37633   5.43433   5.46902   5.51418   5.58090
 Alpha virt. eigenvalues --    5.69659   5.72010   5.76899   5.78843   5.88611
 Alpha virt. eigenvalues --    6.01453   6.07333   6.16497   6.29705   6.33796
 Alpha virt. eigenvalues --    6.38143   6.58908   6.60221   6.68585   6.70595
 Alpha virt. eigenvalues --    6.76653   6.78217   6.83588   6.92352   7.01077
 Alpha virt. eigenvalues --    7.14578   7.22542   7.29788   7.35861   9.94877
 Alpha virt. eigenvalues --   11.00650  11.93198  13.00020  14.03594
          Condensed to atoms (all electrons):
               1          2          3          4          5          6
     1  O    7.836768   0.002345   0.296417   0.343136  -0.069819  -0.030796
     2  O    0.002345   7.798667  -0.004512  -0.078647   0.340623   0.001005
     3  C    0.296417  -0.004512   4.739059  -0.072559  -0.010653   0.390944
     4  C    0.343136  -0.078647  -0.072559   5.008581   0.532645   0.004121
     5  C   -0.069819   0.340623  -0.010653   0.532645   4.935674  -0.000343
     6  H   -0.030796   0.001005   0.390944   0.004121  -0.000343   0.581655
     7  H   -0.040174  -0.009532   0.381503  -0.005935   0.007280  -0.038043
     8  H   -0.043151  -0.000216   0.407338  -0.001555   0.003888  -0.025989
     9  H   -0.038736   0.003852   0.006457   0.409083  -0.066710  -0.000039
    10  H    0.003883  -0.037054  -0.000405  -0.059385   0.401873   0.000101
    11  H    0.001242   0.339708   0.006313  -0.013710  -0.037326   0.001269
               7          8          9         10         11
     1  O   -0.040174  -0.043151  -0.038736   0.003883   0.001242
     2  O   -0.009532  -0.000216   0.003852  -0.037054   0.339708
     3  C    0.381503   0.407338   0.006457  -0.000405   0.006313
     4  C   -0.005935  -0.001555   0.409083  -0.059385  -0.013710
     5  C    0.007280   0.003888  -0.066710   0.401873  -0.037326
     6  H   -0.038043  -0.025989  -0.000039   0.000101   0.001269
     7  H    0.701079  -0.064771  -0.000899  -0.000412   0.007454
     8  H   -0.064771   0.610931   0.001484  -0.000491  -0.006186
     9  H   -0.000899   0.001484   0.547095  -0.004213  -0.000482
    10  H   -0.000412  -0.000491  -0.004213   0.532972   0.006585
    11  H    0.007454  -0.006186  -0.000482   0.006585   0.431903
 Mulliken charges:
               1
     1  O   -0.261116
     2  O   -0.356240
     3  C   -0.139900
     4  C   -0.065776
     5  C   -0.037132
     6  H    0.116115
     7  H    0.062450
     8  H    0.118718
     9  H    0.143107
    10  H    0.156545
    11  H    0.263230
 Sum of Mulliken charges =  -0.00000
 Mulliken charges with hydrogens summed into heavy atoms:
               1
     1  O   -0.261116
     2  O   -0.093010
     3  C    0.157382
     4  C    0.077331
     5  C    0.119413
 APT charges:
               1
     1  O   -0.168020
     2  O   -0.326905
     3  C   -0.819964
     4  C   -0.470918
     5  C   -0.394662
     6  H    0.480824
     7  H    0.233478
     8  H    0.236765
     9  H    0.453125
    10  H    0.487801
    11  H    0.288478
 Sum of APT charges =  -0.00000
 APT charges with hydrogens summed into heavy atoms:
               1
     1  O   -0.168020
     2  O   -0.038427
     3  C    0.131103
     4  C   -0.017793
     5  C    0.093138
 Electronic spatial extent (au):  <R**2>=            413.1885
 Charge=             -0.0000 electrons
 Dipole moment (field-independent basis, Debye):
    X=             -1.0070    Y=             -0.6794    Z=              0.4645  Tot=              1.3005
 Quadrupole moment (field-independent basis, Debye-Ang):
   XX=            -31.7692   YY=            -28.1478   ZZ=            -31.9342
   XY=              5.4118   XZ=             -0.3599   YZ=              1.1269
 Traceless Quadrupole moment (field-independent basis, Debye-Ang):
   XX=             -1.1521   YY=              2.4693   ZZ=             -1.3172
   XY=              5.4118   XZ=             -0.3599   YZ=              1.1269
 Octapole moment (field-independent basis, Debye-Ang**2):
  XXX=             -3.5928  YYY=              0.1410  ZZZ=             -1.3200  XYY=             -1.6378
  XXY=              1.4680  XXZ=              2.8628  XZZ=             -0.9274  YZZ=             -3.0037
  YYZ=             -0.7512  XYZ=              0.5434
 Hexadecapole moment (field-independent basis, Debye-Ang**3):
 XXXX=           -286.8000 YYYY=           -160.1967 ZZZZ=            -43.4808 XXXY=             14.8864
 XXXZ=              1.2479 YYYX=             -4.3852 YYYZ=              3.9536 ZZZX=             -0.0422
 ZZZY=             -0.4407 XXYY=            -84.5095 XXZZ=            -60.3914 YYZZ=            -37.4641
 XXYZ=              0.8406 YYXZ=              0.3538 ZZXY=             -2.3194
 N-N= 1.806229001948D+02 E-N=-9.893414560814D+02  KE= 2.667044524874D+02
  Exact polarizability:   0.000   0.000   0.000   0.000   0.000   0.000
 Approx polarizability:  62.904  -4.766  54.110   1.506   1.170  39.105
 No NMR shielding tensors so no spin-rotation constants.
 Leave Link  601 at Wed Sep 25 10:00:59 2019, MaxMem=   671088640 cpu:              50.3 elap:              25.2
 (Enter /shared/centos7/gaussian/g16/l701.exe)
 SCFChk:  SCF convergence  4.28D-09 required  1.00D-08
 ... and contract with generalized density number  0.
 Compute integral second derivatives.
 Entering OneElI...
 Calculate overlap and kinetic energy integrals
    NBasis = 265  MinDer = 2  MaxDer = 2
 Requested accuracy = 0.1000D-12
 PrmmSu-InSpLW:  IPartL=    0 NPrtUS=   20 NPrtUL=    1 DoSpLW=F IThBeg=    0 IThEnd=   19 NThAct=   20.
 PrsmSu:  NPrtUS=  20 ThrOK=T IAlg=1 NPAlg=1 LenDen=           0 ISkipM=0 DoSpLW=F IThBeg=    0 IThEnd=   19.
 Prism:   IPart=     0 DynPar=F LinDyn=F Incr=           1.
 PRISM was handed    33437713 working-precision words and  3740 shell-pairs
 PRISM was handed    33437713 working-precision words and  3740 shell-pairs
 PRISM was handed    33437713 working-precision words and  3740 shell-pairs
 PRISM was handed    33437713 working-precision words and  3740 shell-pairs
 PRISM was handed    33437713 working-precision words and  3740 shell-pairs
 PRISM was handed    33437713 working-precision words and  3740 shell-pairs
 PRISM was handed    33437713 working-precision words and  3740 shell-pairs
 PRISM was handed    33437713 working-precision words and  3740 shell-pairs
 PRISM was handed    33437713 working-precision words and  3740 shell-pairs
 PRISM was handed    33437713 working-precision words and  3740 shell-pairs
 PRISM was handed    33437713 working-precision words and  3740 shell-pairs
 PRISM was handed    33437713 working-precision words and  3740 shell-pairs
 PRISM was handed    33437713 working-precision words and  3740 shell-pairs
 PRISM was handed    33437713 working-precision words and  3740 shell-pairs
 IPart=  0 NShTot=         227 NBatch=          67 AvBLen=         3.4
 PRISM was handed    33437713 working-precision words and  3740 shell-pairs
 PRISM was handed    33437713 working-precision words and  3740 shell-pairs
 PRISM was handed    33437713 working-precision words and  3740 shell-pairs
 IPart=  6 NShTot=         192 NBatch=          37 AvBLen=         5.2
 PRISM was handed    33437713 working-precision words and  3740 shell-pairs
 IPart= 15 NShTot=         170 NBatch=          26 AvBLen=         6.5
 IPart=  5 NShTot=         196 NBatch=          40 AvBLen=         4.9
 PRISM was handed    33437713 working-precision words and  3740 shell-pairs
 IPart= 18 NShTot=         167 NBatch=          26 AvBLen=         6.4
 IPart= 12 NShTot=         175 NBatch=          28 AvBLen=         6.3
 IPart= 16 NShTot=         169 NBatch=          26 AvBLen=         6.5
 PRISM was handed    33437713 working-precision words and  3740 shell-pairs
 IPart= 13 NShTot=         173 NBatch=          27 AvBLen=         6.4
 IPart=  4 NShTot=         204 NBatch=          45 AvBLen=         4.5
 IPart= 14 NShTot=         172 NBatch=          27 AvBLen=         6.4
 IPart= 11 NShTot=         179 NBatch=          29 AvBLen=         6.2
 IPart= 19 NShTot=         165 NBatch=          26 AvBLen=         6.3
 IPart= 10 NShTot=         181 NBatch=          30 AvBLen=         6.0
 IPart=  1 NShTot=         223 NBatch=          64 AvBLen=         3.5
 IPart= 17 NShTot=         168 NBatch=          26 AvBLen=         6.5
 IPart=  3 NShTot=         207 NBatch=          48 AvBLen=         4.3
 IPart=  2 NShTot=         210 NBatch=          51 AvBLen=         4.1
 IPart=  9 NShTot=         186 NBatch=          31 AvBLen=         6.0
 IPart=  7 NShTot=         190 NBatch=          35 AvBLen=         5.4
 IPart=  8 NShTot=         186 NBatch=          31 AvBLen=         6.0
 PrSmSu:  NxtVal=             21.
 Entering OneElI...
 Calculate potential energy integrals
    NBasis = 265  MinDer = 2  MaxDer = 2
 Requested accuracy = 0.1000D-12
 PrmmSu-InSpLW:  IPartL=    0 NPrtUS=   20 NPrtUL=    1 DoSpLW=F IThBeg=    0 IThEnd=   19 NThAct=   20.
 PrsmSu:  NPrtUS=  20 ThrOK=T IAlg=1 NPAlg=1 LenDen=           0 ISkipM=0 DoSpLW=F IThBeg=    0 IThEnd=   19.
 Prism:   IPart=     0 DynPar=F LinDyn=F Incr=          19.
 PRISM was handed    33453449 working-precision words and  3614 shell-pairs
 PRISM was handed    33453449 working-precision words and  3614 shell-pairs
 PRISM was handed    33453449 working-precision words and  3614 shell-pairs
 PRISM was handed    33453449 working-precision words and  3614 shell-pairs
 PRISM was handed    33453449 working-precision words and  3614 shell-pairs
 PRISM was handed    33453449 working-precision words and  3614 shell-pairs
 PRISM was handed    33453449 working-precision words and  3614 shell-pairs
 PRISM was handed    33453449 working-precision words and  3614 shell-pairs
 PRISM was handed    33453449 working-precision words and  3614 shell-pairs
 PRISM was handed    33453449 working-precision words and  3614 shell-pairs
 PRISM was handed    33453449 working-precision words and  3614 shell-pairs
 PRISM was handed    33453449 working-precision words and  3614 shell-pairs
 PRISM was handed    33453449 working-precision words and  3614 shell-pairs
 PRISM was handed    33453449 working-precision words and  3614 shell-pairs
 PRISM was handed    33453449 working-precision words and  3614 shell-pairs
 PRISM was handed    33453449 working-precision words and  3614 shell-pairs
 PRISM was handed    33453449 working-precision words and  3614 shell-pairs
 PRISM was handed    33453449 working-precision words and  3614 shell-pairs
 PRISM was handed    33453449 working-precision words and  3614 shell-pairs
 PRISM was handed    33453449 working-precision words and  3614 shell-pairs
 IPart=  0 NShTot=        2486 NBatch=         226 AvBLen=        11.0
 IPart=  5 NShTot=        2024 NBatch=         184 AvBLen=        11.0
 IPart=  4 NShTot=        2156 NBatch=         196 AvBLen=        11.0
 IPart= 18 NShTot=        1793 NBatch=         163 AvBLen=        11.0
 IPart=  6 NShTot=        2013 NBatch=         183 AvBLen=        11.0
 IPart= 13 NShTot=        1859 NBatch=         169 AvBLen=        11.0
 IPart=  9 NShTot=        1903 NBatch=         173 AvBLen=        11.0
 IPart=  3 NShTot=        2211 NBatch=         201 AvBLen=        11.0
 IPart= 16 NShTot=        1815 NBatch=         165 AvBLen=        11.0
 IPart=  7 NShTot=        1980 NBatch=         180 AvBLen=        11.0
 IPart= 10 NShTot=        1892 NBatch=         172 AvBLen=        11.0
 IPart=  8 NShTot=        1947 NBatch=         177 AvBLen=        11.0
 IPart= 17 NShTot=        1793 NBatch=         163 AvBLen=        11.0
 IPart= 12 NShTot=        1859 NBatch=         169 AvBLen=        11.0
 IPart= 19 NShTot=        1782 NBatch=         162 AvBLen=        11.0
 IPart=  1 NShTot=        2398 NBatch=         218 AvBLen=        11.0
 IPart=  2 NShTot=        2310 NBatch=         210 AvBLen=        11.0
 IPart= 11 NShTot=        1859 NBatch=         169 AvBLen=        11.0
 IPart= 14 NShTot=        1848 NBatch=         168 AvBLen=        11.0
 IPart= 15 NShTot=        1826 NBatch=         166 AvBLen=        11.0
 PrSmSu:  NxtVal=            381.
 Polarizability after L701:
                1             2             3 
      1  0.000000D+00
      2  0.000000D+00  0.000000D+00
      3  0.000000D+00  0.000000D+00  0.000000D+00
 Dipole Derivatives after L701:
                 1             2             3             4             5 
      1  -0.865119D-01 -0.721447D-01  0.974187D-01  0.192749D-01 -0.171756D+00
      2  -0.192379D+00 -0.196633D+00 -0.540647D-01 -0.647633D+00 -0.553441D+00
      3   0.827730D-01 -0.279814D-01 -0.220916D+00 -0.182213D+00 -0.948300D-01
                 6             7             8             9            10 
      1   0.256944D-02 -0.799244D+00 -0.417185D+00  0.138214D+00 -0.584797D+00
      2  -0.144463D+00 -0.261007D-01 -0.855334D+00  0.500160D-01 -0.700387D-01
      3  -0.446550D+00  0.286100D-01  0.422495D-01 -0.805314D+00 -0.116066D+00
                11            12            13            14            15 
      1   0.130045D+00 -0.142714D+00 -0.700039D+00 -0.267793D+00 -0.102646D+00
      2  -0.800402D+00 -0.181109D+00  0.106879D-01 -0.520251D+00 -0.114547D-02
      3  -0.155116D+00 -0.275553D-01 -0.898747D-01 -0.577593D-01  0.363041D-01
                16            17            18            19            20 
      1   0.113179D+01  0.127921D+00 -0.145330D+00 -0.369412D-01  0.245401D+00
      2   0.336880D+00  0.196172D+00 -0.552192D-01 -0.163823D+00  0.427386D+00
      3  -0.112746D+00 -0.180712D-01  0.114515D+00 -0.905563D-01  0.143690D+00
                21            22            23            24            25 
      1   0.192689D+00 -0.465040D-01  0.114348D+00 -0.212131D+00  0.186932D+00
      2   0.307423D+00 -0.159206D+00  0.253070D+00 -0.235684D+00  0.801398D-02
      3   0.309988D+00  0.205936D+00 -0.910884D-01  0.503728D+00 -0.752696D-02
                26            27            28            29            30 
      1   0.162325D-01 -0.671719D-02  0.957376D+00  0.435740D+00  0.217770D+00
      2   0.108601D+01  0.820232D-01  0.322760D+00  0.378199D+00  0.993446D-01
      3   0.966082D-01  0.864330D-01  0.121164D+00  0.763699D-01  0.127827D+00
                31            32            33 
      1  -0.413306D-01 -0.140809D+00 -0.391238D-01
      2   0.580838D+00  0.585224D+00  0.132879D+00
      3   0.160499D+00  0.859280D-01  0.321541D+00
 Hessian after L701:
                1             2             3             4             5 
      1  0.598118D+01
      2 -0.344835D+01  0.742401D+01
      3 -0.112402D+01  0.138497D+01  0.144657D+02
      4  0.562774D+00 -0.563335D+00  0.582943D-01  0.819693D+01
      5 -0.476100D+00 -0.621288D-01 -0.236210D-01  0.146396D+00  0.471028D+01
      6  0.795480D-01 -0.465712D-01 -0.388871D+00 -0.886489D+00 -0.173986D+01
      7 -0.677529D+01  0.159984D+01 -0.371321D+00  0.530997D+00 -0.278743D-02
      8  0.135987D+01  0.171294D+00 -0.214942D+01 -0.167083D+00 -0.354356D+00
      9 -0.281024D+00 -0.210599D+01 -0.694775D+01 -0.349478D-01 -0.163436D-01
     10 -0.667970D+00  0.299384D+01  0.156158D+01  0.279248D+00 -0.336708D+00
     11  0.322399D+01 -0.691018D+01  0.429476D+00 -0.223617D+00 -0.396998D-01
     12  0.145510D+01  0.405098D+00 -0.786791D+01 -0.114182D+00 -0.437838D-01
     13  0.397862D+00 -0.201662D+00 -0.156818D+00 -0.792909D+01 -0.102205D+01
     14 -0.321524D+00 -0.120951D+00 -0.540859D-01 -0.131635D+01  0.419917D+00
     15 -0.112226D+00 -0.219554D-01  0.122518D+00 -0.791007D-01  0.124400D+01
     16  0.235851D+00  0.175698D-01 -0.460150D-01  0.942864D-01 -0.538180D-03
     17 -0.277303D-01 -0.179391D+00  0.334326D-01  0.100452D-01 -0.183828D-01
     18 -0.274084D-01  0.314961D-01  0.277521D-01 -0.140301D-01 -0.258580D-03
     19  0.112383D+00 -0.128522D+00 -0.461706D-01 -0.246666D-01  0.160193D-01
     20 -0.793410D-01 -0.166241D+00  0.278999D+00  0.565426D-01 -0.478931D-02
     21 -0.606801D-01  0.254159D+00  0.235991D+00  0.465629D-01  0.178480D-01
     22  0.145641D+00 -0.516911D-01  0.979553D-01  0.436815D-01 -0.378526D-02
     23  0.154835D-01 -0.231178D+00  0.341414D-01  0.190424D-01 -0.543819D-01
     24  0.610857D-01  0.562308D-01  0.333338D+00 -0.112048D+00 -0.606146D-02
     25 -0.109116D+00 -0.199803D+00 -0.393748D-03 -0.208533D-01 -0.520431D-01
     26 -0.176688D+00  0.443633D-01  0.472506D-01 -0.904889D-01  0.140077D+00
     27 -0.102472D-01  0.131883D-01  0.100043D+00 -0.116856D-01  0.166692D-01
     28  0.154934D+00  0.293698D-01  0.361397D-01  0.158901D+00 -0.839835D-02
     29  0.523886D-01 -0.357318D-01  0.751050D-02 -0.330353D-01 -0.236419D+00
     30  0.415572D-01  0.523527D-02 -0.249915D-01  0.773748D-02 -0.467852D-01
     31 -0.382527D-01 -0.472620D-01 -0.922797D-02 -0.189221D+01  0.173999D+01
     32 -0.122002D+00  0.661306D-01  0.113436D-01  0.216188D+01 -0.450012D+01
     33 -0.216890D-01  0.241330D-01 -0.558039D-01  0.113989D+01  0.598202D+00
                6             7             8             9            10 
      6  0.139381D+02
      7  0.254175D-02  0.139594D+02
      8  0.795433D-04 -0.138362D+01  0.929066D+01
      9 -0.346374D+00  0.398678D+00  0.169898D+01  0.154174D+02
     10 -0.152834D+00  0.159445D+00  0.305403D+00 -0.416167D-01  0.656691D+01
     11 -0.778446D-03  0.216382D+00  0.177004D+00 -0.595195D-01  0.552460D+00
     12  0.244486D+00 -0.319245D-01 -0.711930D-01 -0.577397D-01 -0.232770D+01
     13 -0.142911D-01  0.185254D+00  0.168986D+00 -0.498861D-01 -0.230557D+01
     14  0.118212D+01  0.169617D+00 -0.118988D+00 -0.286466D-01 -0.365204D+01
     15 -0.793682D+01 -0.748368D-01 -0.316817D-01 -0.156731D+00  0.104448D+01
     16 -0.590366D-02 -0.127085D+01  0.387719D+00 -0.358947D+00  0.932944D-01
     17  0.149429D-03  0.462450D+00 -0.326241D+01 -0.716130D-01  0.769344D-01
     18 -0.195874D-01 -0.354455D+00 -0.552157D-01 -0.329598D+01 -0.205637D-01
     19 -0.458025D-02 -0.340450D+01 -0.429055D+00 -0.399229D+00 -0.362101D-01
     20  0.112984D-01 -0.621224D+00 -0.229487D+01  0.127206D+01  0.162370D-02
     21 -0.100928D-01 -0.537903D+00  0.117823D+01 -0.246542D+01  0.933230D-02
     22 -0.343254D-01 -0.343581D+01 -0.270490D+00  0.807132D+00 -0.113525D-01
     23 -0.458148D-02 -0.414061D+00 -0.366074D+01 -0.726664D+00  0.530560D-01
     24 -0.121044D-01  0.104355D+01 -0.609189D+00 -0.197801D+01 -0.343690D-01
     25 -0.121081D-01 -0.119129D-01  0.680852D-01 -0.365854D-02 -0.377328D+01
     26  0.253064D-01  0.878938D-01  0.134736D+00  0.310414D-02  0.135849D-01
     27 -0.310458D-01  0.187583D-02  0.790218D-02 -0.477536D-01  0.115177D-01
     28  0.116703D-01  0.291971D-01  0.126339D-01  0.361006D-02 -0.327805D+00
     29 -0.566143D-01  0.210323D-01 -0.732820D-02  0.255426D-02  0.237075D-01
     30  0.628976D-01  0.367238D-02 -0.652648D-04 -0.132941D-01 -0.411056D-01
     31  0.101677D+01  0.340986D-01 -0.524534D-01 -0.401115D-01  0.232824D-01
     32  0.629460D+00 -0.135529D+00 -0.750046D-01  0.320750D-01 -0.318625D-01
     33 -0.550054D+01 -0.798727D-01  0.315699D-01 -0.108394D+00 -0.871764D-02
               11            12            13            14            15 
     11  0.146220D+02
     12 -0.831567D+00  0.235145D+02
     13 -0.402468D+01  0.105428D+01  0.115649D+02
     14 -0.668813D+01  0.288886D+00  0.370293D+01  0.974455D+01
     15  0.219419D+00 -0.122001D+02 -0.128213D+01 -0.158130D+01  0.237722D+02
     16  0.835772D-01 -0.146139D-01  0.346165D-01  0.777026D-02  0.334178D-02
     17  0.132135D-01 -0.483037D-02  0.122846D-01 -0.132886D-01  0.400160D-03
     18 -0.126527D-01 -0.352342D-01 -0.183951D-02 -0.200605D-03 -0.117500D-01
     19 -0.176981D-01  0.997402D-03  0.467291D-01  0.932021D-01  0.465160D-02
     20  0.350674D-01  0.269704D-01  0.122334D+00  0.494562D-01  0.130751D-01
     21  0.393374D-01  0.575721D-02  0.334740D-01  0.241451D-01 -0.452011D-01
     22  0.284056D-01 -0.481862D-02  0.390277D-01  0.594192D-01  0.267599D-02
     23  0.102751D-01 -0.175818D-01  0.828824D-01 -0.503933D-02 -0.339329D-02
     24 -0.446329D-01 -0.961566D-02 -0.447580D-01 -0.195758D-01 -0.537323D-01
     25  0.611721D-01  0.167809D-01  0.388418D-01  0.251466D+00  0.483871D-01
     26 -0.128317D+01  0.259278D+00  0.285171D+00 -0.163511D+00 -0.685953D-01
     27  0.273506D+00 -0.376974D+01  0.542917D-01 -0.540583D-01  0.164643D+00
     28  0.511359D-01 -0.379485D-01 -0.211756D+01  0.973031D+00  0.445414D+00
     29  0.202336D+00  0.131811D-01  0.996528D+00 -0.322069D+01  0.258802D+00
     30  0.109444D-01  0.146819D+00  0.443253D+00  0.253965D+00 -0.369809D+01
     31  0.488731D-01  0.402520D-02  0.449904D-01  0.324781D-01 -0.655037D-03
     32 -0.138683D+00 -0.244567D-01 -0.122722D+00  0.116676D+00 -0.287674D-01
     33 -0.235316D-01  0.287490D-01 -0.355747D-01 -0.112444D-01  0.430519D-01
               16            17            18            19            20 
     16  0.101761D+01
     17 -0.630810D+00  0.329506D+01
     18  0.409461D+00  0.848743D-01  0.328856D+01
     19 -0.964611D-01  0.845387D-01  0.146048D+00  0.311019D+01
     20  0.103007D+00  0.820797D-01 -0.561858D-01  0.418886D+00  0.218930D+01
     21  0.145491D+00 -0.435189D-01  0.217486D-01  0.362947D+00 -0.131947D+01
     22 -0.131772D+00  0.126017D-01 -0.130395D+00  0.237016D+00 -0.185246D-01
     23  0.253529D-01  0.839163D-01  0.810176D-02 -0.264864D-01  0.192833D+00
     24 -0.125257D+00  0.522634D-03  0.334232D-01 -0.782096D-01 -0.227067D+00
     25  0.218700D-02  0.943733D-03 -0.267183D-03 -0.989606D-03 -0.354232D-02
     26  0.125500D-01  0.438763D-02 -0.154873D-02 -0.572040D-02 -0.248065D-02
     27  0.373551D-03 -0.119813D-04 -0.182897D-02 -0.989716D-03 -0.139711D-02
     28  0.108847D-01  0.340827D-02 -0.863561D-03 -0.274274D-02  0.339098D-02
     29  0.576945D-02  0.111860D-02 -0.413705D-03 -0.199079D-02  0.215264D-02
     30  0.141055D-02  0.331542D-04 -0.131447D-02 -0.762504D-03  0.152664D-02
     31  0.103550D-01 -0.466668D-02 -0.568701D-02  0.592554D-01  0.168477D-01
     32 -0.119677D-01 -0.630577D-02  0.200376D-02 -0.317256D-02 -0.825036D-01
     33 -0.934089D-02  0.561990D-03 -0.579249D-02  0.152970D-01  0.194786D-03
               21            22            23            24            25 
     21  0.274248D+01
     22 -0.272593D-01  0.314541D+01
     23 -0.151071D+00  0.230316D+00  0.362011D+01
     24 -0.413575D+00 -0.746424D+00  0.875229D+00  0.212348D+01
     25 -0.833157D-05 -0.454748D-02  0.970761D-02 -0.414946D-02  0.390646D+01
     26  0.312848D-02  0.635222D-02  0.307284D-01 -0.193275D-01 -0.155860D+00
     27  0.466728D-03 -0.208314D-02 -0.749129D-02 -0.365293D-02 -0.442146D-01
     28  0.329869D-02 -0.349522D-02  0.245599D-02 -0.515989D-02 -0.246109D-01
     29  0.268123D-02 -0.153297D-02  0.102410D-02 -0.341762D-02  0.205066D-01
     30  0.617550D-03 -0.102740D-04  0.503856D-03 -0.178179D-02 -0.184225D-03
     31  0.247450D-01 -0.238006D-01  0.225105D-02  0.457437D-01 -0.218100D-02
     32 -0.546741D-02  0.892991D-02  0.124501D-01 -0.271212D-02 -0.633929D-03
     33 -0.727687D-01  0.375513D-01 -0.719387D-02 -0.177749D-01 -0.183815D-03
               26            27            28            29            30 
     26  0.109532D+01
     27 -0.251493D+00  0.358943D+01
     28  0.110946D-01 -0.120605D-04  0.209242D+01
     29 -0.736385D-02  0.232109D-02 -0.114785D+01  0.324754D+01
     30 -0.329919D-03  0.470598D-03 -0.477177D+00 -0.250982D+00  0.354225D+01
     31  0.121112D-01  0.117353D-02  0.298835D-01  0.644782D-01  0.216096D-01
     32  0.691983D-02  0.864746D-03  0.697295D-01  0.533620D-01  0.259545D-01
     33  0.322762D-02 -0.103627D-02  0.210287D-01  0.243781D-01 -0.135825D-01
               31            32            33 
     31  0.175457D+01
     32 -0.181265D+01  0.454708D+01
     33 -0.105839D+01 -0.640298D+00  0.570390D+01
 Leave Link  701 at Wed Sep 25 10:01:21 2019, MaxMem=   671088640 cpu:              42.6 elap:              21.3
 (Enter /shared/centos7/gaussian/g16/l702.exe)
 L702 exits ... SP integral derivatives will be done elsewhere.
 Leave Link  702 at Wed Sep 25 10:01:22 2019, MaxMem=   671088640 cpu:               1.6 elap:               0.8
 (Enter /shared/centos7/gaussian/g16/l703.exe)
 Integral derivatives from FoFJK, PRISM(SPDF).
 Compute integral second derivatives, UseDBF=F ICtDFT=           0.
 ICntrl=    100147.
 Calling FoFJK, ICntrl=    100147 FMM=F ISym2X=0 I1Cent= 0 IOpClX= 0 NMat=1 NMatS=1 NMatT=0.
 FoFJK:  IHMeth= 1 ICntrl=  100147 DoSepK=F KAlg= 0 I1Cent=           0 FoldK=F
 IRaf=         0 NMat=       1 IRICut=       1 DoRegI=T DoRafI=F ISym2E= 0 IDoP0=0 IntGTp=1.
 FoFCou: FMM=F IPFlag=           0 FMFlag=      100000 FMFlg1=         800
         NFxFlg=           0 DoJE=F BraDBF=F KetDBF=F FulRan=T
         wScrn=  0.000000 ICntrl=    100147 IOpCl=  0 I1Cent=           0 NGrid=           0
         NMat0=    1 NMatS0=      1 NMatT0=    0 NMatD0=    1 NMtDS0=    0 NMtDT0=    0
 Symmetry not used in FoFCou.
 FoFCou:  KetSym=F NOpSet=  1 NOpAb=1 NOp=  1.
 FoFCou:  CnvScl= 1.00D+00 Thresh= 1.00D-08 IAcrcy=      12.
 PrismS was handed   670737329 working-precision words and  3704 shell-pairs
 FoFCou: LinMIO=F DoNuc=F BraDBF=F KetDBF=F HaveP=T PDBF=F HaveZ=T HaveW=F
         NIJTC =      10 NIJTAt=       0 NIJTCD=       0 NIJTT =      10
         IJTBeg=       1 IJTEnd=      10 KLTBeg=       1 KLTEnd=      10
         IPTBeg=       1 IPTEnd=      10 IPTBCv=       1 IPTECv=      10
         IZTBeg=       1 IZTEnd=      10 IZTBCv=       1 IZTECv=      10
         IWTBeg=      11 IWTEnd=      10 IWTBCv=      11 IWTECv=      10
         INTBeg=       1 INTEnd=       0 IFTBCv=       1 IFTECv=      10
 NCel replicated for PrismC:     1
 CoulSu-InSpLW:  IPartL=    0 NPrtUS=   20 NPrtUL=    1 DoSpLW=F IThBeg=    0 IThEnd=   19 NThAct=   20.
 CoulSu:  IncDef=  1024 NBBP=        6861660 NTPThr=   100 NPartT=   20 Incr=        1024 LDynOK=F GPUOK=T.
 CoulSu:  NPrtUS=  20 ThrOK=T IAlg=1 NPAlg=1 LenDen=           0 LWGrdD=           0 DoCopy=F ISkipM=0
          DoSpLW=F IThBeg=    0 IThEnd=   19.
 Enter PrismC:  IPart=  0 JobTyp=22 DoJE=F Cont=F.
 PrismC:  IPart=     0 DynPar=T LinDyn=F Incr=        1024 UseFst=F UseS4=T ISplat=2.
 PrismC was handed    33454662 working-precision words and  3704 shell-pairs
 Enter PrismC:  IPart=  1 JobTyp=22 DoJE=F Cont=F.
 Enter PrismC:  IPart=  8 JobTyp=22 DoJE=F Cont=F.
 Enter PrismC:  IPart=  9 JobTyp=22 DoJE=F Cont=F.
 PrismC:  IPart=     8 DynPar=T LinDyn=F Incr=        1024 UseFst=F UseS4=T ISplat=2.
 PrismC was handed    33454662 working-precision words and  3704 shell-pairs
 PrismC:  IPart=     1 DynPar=T LinDyn=F Incr=        1024 UseFst=F UseS4=T ISplat=2.
 PrismC was handed    33454662 working-precision words and  3704 shell-pairs
 PrismC:  IPart=     9 DynPar=T LinDyn=F Incr=        1024 UseFst=F UseS4=T ISplat=2.
 PrismC was handed    33454662 working-precision words and  3704 shell-pairs
 Enter PrismC:  IPart=  4 JobTyp=22 DoJE=F Cont=F.
 PrismC:  IPart=     4 DynPar=T LinDyn=F Incr=        1024 UseFst=F UseS4=T ISplat=2.
 PrismC was handed    33454662 working-precision words and  3704 shell-pairs
 Enter PrismC:  IPart=  6 JobTyp=22 DoJE=F Cont=F.
 Enter PrismC:  IPart=  2 JobTyp=22 DoJE=F Cont=F.
 PrismC:  IPart=     6 DynPar=T LinDyn=F Incr=        1024 UseFst=F UseS4=T ISplat=2.
 PrismC was handed    33454662 working-precision words and  3704 shell-pairs
 PrismC:  IPart=     2 DynPar=T LinDyn=F Incr=        1024 UseFst=F UseS4=T ISplat=2.
 PrismC was handed    33454662 working-precision words and  3704 shell-pairs
 Enter PrismC:  IPart= 12 JobTyp=22 DoJE=F Cont=F.
 PrismC:  IPart=    12 DynPar=T LinDyn=F Incr=        1024 UseFst=F UseS4=T ISplat=2.
 PrismC was handed    33454662 working-precision words and  3704 shell-pairs
 Enter PrismC:  IPart= 16 JobTyp=22 DoJE=F Cont=F.
 PrismC:  IPart=    16 DynPar=T LinDyn=F Incr=        1024 UseFst=F UseS4=T ISplat=2.
 PrismC was handed    33454662 working-precision words and  3704 shell-pairs
 Enter PrismC:  IPart=  7 JobTyp=22 DoJE=F Cont=F.
 Enter PrismC:  IPart= 14 JobTyp=22 DoJE=F Cont=F.
 PrismC:  IPart=     7 DynPar=T LinDyn=F Incr=        1024 UseFst=F UseS4=T ISplat=2.
 PrismC was handed    33454662 working-precision words and  3704 shell-pairs
 Enter PrismC:  IPart= 15 JobTyp=22 DoJE=F Cont=F.
 PrismC:  IPart=    15 DynPar=T LinDyn=F Incr=        1024 UseFst=F UseS4=T ISplat=2.
 PrismC was handed    33454662 working-precision words and  3704 shell-pairs
 PrismC:  IPart=    14 DynPar=T LinDyn=F Incr=        1024 UseFst=F UseS4=T ISplat=2.
 PrismC was handed    33454662 working-precision words and  3704 shell-pairs
 Enter PrismC:  IPart= 11 JobTyp=22 DoJE=F Cont=F.
 PrismC:  IPart=    11 DynPar=T LinDyn=F Incr=        1024 UseFst=F UseS4=T ISplat=2.
 PrismC was handed    33454662 working-precision words and  3704 shell-pairs
 Enter PrismC:  IPart=  5 JobTyp=22 DoJE=F Cont=F.
 PrismC:  IPart=     5 DynPar=T LinDyn=F Incr=        1024 UseFst=F UseS4=T ISplat=2.
 PrismC was handed    33454662 working-precision words and  3704 shell-pairs
 Enter PrismC:  IPart= 19 JobTyp=22 DoJE=F Cont=F.
 PrismC:  IPart=    19 DynPar=T LinDyn=F Incr=        1024 UseFst=F UseS4=T ISplat=2.
 PrismC was handed    33454662 working-precision words and  3704 shell-pairs
 Enter PrismC:  IPart= 17 JobTyp=22 DoJE=F Cont=F.
 Enter PrismC:  IPart= 10 JobTyp=22 DoJE=F Cont=F.
 PrismC:  IPart=    10 DynPar=T LinDyn=F Incr=        1024 UseFst=F UseS4=T ISplat=2.
 PrismC was handed    33454662 working-precision words and  3704 shell-pairs
 PrismC:  IPart=    17 DynPar=T LinDyn=F Incr=        1024 UseFst=F UseS4=T ISplat=2.
 PrismC was handed    33454662 working-precision words and  3704 shell-pairs
 Enter PrismC:  IPart= 18 JobTyp=22 DoJE=F Cont=F.
 PrismC:  IPart=    18 DynPar=T LinDyn=F Incr=        1024 UseFst=F UseS4=T ISplat=2.
 PrismC was handed    33454662 working-precision words and  3704 shell-pairs
 Enter PrismC:  IPart= 13 JobTyp=22 DoJE=F Cont=F.
 PrismC:  IPart=    13 DynPar=T LinDyn=F Incr=        1024 UseFst=F UseS4=T ISplat=2.
 PrismC was handed    33454662 working-precision words and  3704 shell-pairs
 Enter PrismC:  IPart=  3 JobTyp=22 DoJE=F Cont=F.
 PrismC:  IPart=     3 DynPar=T LinDyn=F Incr=        1024 UseFst=F UseS4=T ISplat=2.
 PrismC was handed    33454662 working-precision words and  3704 shell-pairs
 IPart=  8 NShTot=      317698 NShNF=      317698 NShFF=           0 MinMC=       7
           NShCPU=      317698 NBCPU=       13225 AvBCPU=        24.0
           NShGPU=           0 NBGPU=           0 AvBGPU=         0.0
 IPart=  1 NShTot=      191155 NShNF=      191155 NShFF=           0 MinMC=       7
           NShCPU=      191155 NBCPU=        8170 AvBCPU=        23.4
           NShGPU=           0 NBGPU=           0 AvBGPU=         0.0
 IPart= 16 NShTot=      177637 NShNF=      177637 NShFF=           0 MinMC=       7
           NShCPU=      177637 NBCPU=        8255 AvBCPU=        21.5
           NShGPU=           0 NBGPU=           0 AvBGPU=         0.0
 IPart= 12 NShTot=      187224 NShNF=      187224 NShFF=           0 MinMC=       7
           NShCPU=      187224 NBCPU=        8160 AvBCPU=        22.9
           NShGPU=           0 NBGPU=           0 AvBGPU=         0.0
 IPart=  4 NShTot=      318850 NShNF=      318850 NShFF=           0 MinMC=       7
           NShCPU=      318850 NBCPU=       12677 AvBCPU=        25.2
           NShGPU=           0 NBGPU=           0 AvBGPU=         0.0
 IPart=  9 NShTot=      196562 NShNF=      196562 NShFF=           0 MinMC=       7
           NShCPU=      196562 NBCPU=        8129 AvBCPU=        24.2
           NShGPU=           0 NBGPU=           0 AvBGPU=         0.0
 IPart= 13 NShTot=      204626 NShNF=      204626 NShFF=           0 MinMC=       7
           NShCPU=      204626 NBCPU=        8305 AvBCPU=        24.6
           NShGPU=           0 NBGPU=           0 AvBGPU=         0.0
 IPart= 14 NShTot=      319835 NShNF=      319835 NShFF=           0 MinMC=       7
           NShCPU=      319835 NBCPU=       13383 AvBCPU=        23.9
           NShGPU=           0 NBGPU=           0 AvBGPU=         0.0
 IPart= 18 NShTot=      326525 NShNF=      326525 NShFF=           0 MinMC=       7
           NShCPU=      326525 NBCPU=       13553 AvBCPU=        24.1
           NShGPU=           0 NBGPU=           0 AvBGPU=         0.0
 IPart=  3 NShTot=      311380 NShNF=      311380 NShFF=           0 MinMC=       7
           NShCPU=      311380 NBCPU=       13403 AvBCPU=        23.2
           NShGPU=           0 NBGPU=           0 AvBGPU=         0.0
 IPart=  6 NShTot=      305592 NShNF=      305592 NShFF=           0 MinMC=       7
           NShCPU=      305592 NBCPU=       12909 AvBCPU=        23.7
           NShGPU=           0 NBGPU=           0 AvBGPU=         0.0
 IPart= 15 NShTot=      199935 NShNF=      199935 NShFF=           0 MinMC=       7
           NShCPU=      199935 NBCPU=        8183 AvBCPU=        24.4
           NShGPU=           0 NBGPU=           0 AvBGPU=         0.0
 IPart=  0 NShTot=      188883 NShNF=      188883 NShFF=           0 MinMC=       7
           NShCPU=      188883 NBCPU=        8163 AvBCPU=        23.1
           NShGPU=           0 NBGPU=           0 AvBGPU=         0.0
 IPart= 11 NShTot=      189222 NShNF=      189222 NShFF=           0 MinMC=       7
           NShCPU=      189222 NBCPU=        7913 AvBCPU=        23.9
           NShGPU=           0 NBGPU=           0 AvBGPU=         0.0
 IPart= 19 NShTot=      194719 NShNF=      194719 NShFF=           0 MinMC=       7
           NShCPU=      194719 NBCPU=        8188 AvBCPU=        23.8
           NShGPU=           0 NBGPU=           0 AvBGPU=         0.0
 IPart=  2 NShTot=      208996 NShNF=      208996 NShFF=           0 MinMC=       7
           NShCPU=      208996 NBCPU=        9021 AvBCPU=        23.2
           NShGPU=           0 NBGPU=           0 AvBGPU=         0.0
 IPart= 17 NShTot=      199979 NShNF=      199979 NShFF=           0 MinMC=       7
           NShCPU=      199979 NBCPU=        8540 AvBCPU=        23.4
           NShGPU=           0 NBGPU=           0 AvBGPU=         0.0
 IPart= 10 NShTot=      326462 NShNF=      326462 NShFF=           0 MinMC=       7
           NShCPU=      326462 NBCPU=       13301 AvBCPU=        24.5
           NShGPU=           0 NBGPU=           0 AvBGPU=         0.0
 IPart=  5 NShTot=      196567 NShNF=      196567 NShFF=           0 MinMC=       7
           NShCPU=      196567 NBCPU=        8268 AvBCPU=        23.8
           NShGPU=           0 NBGPU=           0 AvBGPU=         0.0
 IPart=  7 NShTot=      309676 NShNF=      309676 NShFF=           0 MinMC=       7
           NShCPU=      309676 NBCPU=       12943 AvBCPU=        23.9
           NShGPU=           0 NBGPU=           0 AvBGPU=         0.0
 CoulSu:  NxtVal=        7311361 LenVP=       33454663 MinMC=       7.
 ReadGW:  IGet=0 IStart=           1 Next=           1 LGW=           0.
 Remaining memory in FofDFT      639.93 Mw
 CkSvGd:  ISavGI=        -1 IRadAn=       5 IRASav=       5 ISavGd=        -1.
 CalDSu-InSpLW:  IPartL=    0 NPrtUS=   20 NPrtUL=    1 DoSpLW=F IThBeg=    0 IThEnd=   19 NThAct=   20.
 CalDSu:  NPrtUS=  20 ThrOK=T IAlg=1 NPAlg=2 DoDPD=T LenP=       35245 LenD1P=             0 GPUOK=F
          ISkipM=0 DoSpLW=F IThBeg=    0 IThEnd=   19.
 IPart=  0 IRanGd=          0 ScrnBf=T ScrnGd=T RCrit=4.00D+00 DoMicB=T.
 IPart=  2        11222 of        12916 points in      14 batches and       75 microbatches, Max-NSigAt=      11 Max-NSgAt2=      11
 IPart= 16        10264 of        11034 points in      11 batches and       63 microbatches, Max-NSigAt=      11 Max-NSgAt2=      11
 IPart= 19        11430 of        12630 points in      13 batches and       57 microbatches, Max-NSigAt=      11 Max-NSgAt2=      11
 IPart=  6        11063 of        11772 points in      13 batches and       54 microbatches, Max-NSigAt=      11 Max-NSgAt2=      11
 IPart=  4        11102 of        12468 points in      13 batches and       63 microbatches, Max-NSigAt=      11 Max-NSgAt2=      11
 IPart= 18         9950 of        10704 points in      11 batches and       61 microbatches, Max-NSigAt=      11 Max-NSgAt2=      11
 IPart=  3        10156 of        10654 points in      10 batches and       48 microbatches, Max-NSigAt=      11 Max-NSgAt2=      11
 IPart= 13        13440 of        15660 points in      18 batches and       79 microbatches, Max-NSigAt=      11 Max-NSgAt2=      11
 IPart=  8        11192 of        11648 points in      11 batches and       51 microbatches, Max-NSigAt=      11 Max-NSgAt2=      11
 IPart= 14        10603 of        11336 points in      11 batches and       67 microbatches, Max-NSigAt=      11 Max-NSgAt2=      11
 IPart=  7        10617 of        11514 points in      12 batches and       75 microbatches, Max-NSigAt=      11 Max-NSgAt2=      11
 IPart=  5        11755 of        13084 points in      14 batches and       76 microbatches, Max-NSigAt=      11 Max-NSgAt2=      11
 IPart= 15        10993 of        12234 points in      13 batches and       68 microbatches, Max-NSigAt=      11 Max-NSgAt2=      11
 IPart= 12        12016 of        13416 points in      15 batches and       61 microbatches, Max-NSigAt=      11 Max-NSgAt2=      11
 IPart= 11        11324 of        13596 points in      16 batches and      104 microbatches, Max-NSigAt=      11 Max-NSgAt2=      11
 IPart= 10        11267 of        11950 points in      11 batches and       48 microbatches, Max-NSigAt=      11 Max-NSgAt2=      11
 IPart= 17        10928 of        12210 points in      13 batches and       68 microbatches, Max-NSigAt=      11 Max-NSgAt2=      11
 IPart=  0        11807 of        12766 points in      13 batches and       57 microbatches, Max-NSigAt=      11 Max-NSgAt2=      11
 IPart=  9        11396 of        12426 points in      12 batches and       83 microbatches, Max-NSigAt=      11 Max-NSgAt2=      11
 IPart=  1        11378 of        12080 points in      11 batches and       67 microbatches, Max-NSigAt=      11 Max-NSgAt2=      11
 Polarizability after L703:
                1             2             3 
      1  0.000000D+00
      2  0.000000D+00  0.000000D+00
      3  0.000000D+00  0.000000D+00  0.000000D+00
 Dipole Derivatives after L703:
                 1             2             3             4             5 
      1  -0.865119D-01 -0.721447D-01  0.974187D-01  0.192749D-01 -0.171756D+00
      2  -0.192379D+00 -0.196633D+00 -0.540647D-01 -0.647633D+00 -0.553441D+00
      3   0.827730D-01 -0.279814D-01 -0.220916D+00 -0.182213D+00 -0.948300D-01
                 6             7             8             9            10 
      1   0.256944D-02 -0.799244D+00 -0.417185D+00  0.138214D+00 -0.584797D+00
      2  -0.144463D+00 -0.261007D-01 -0.855334D+00  0.500160D-01 -0.700387D-01
      3  -0.446550D+00  0.286100D-01  0.422495D-01 -0.805314D+00 -0.116066D+00
                11            12            13            14            15 
      1   0.130045D+00 -0.142714D+00 -0.700039D+00 -0.267793D+00 -0.102646D+00
      2  -0.800402D+00 -0.181109D+00  0.106879D-01 -0.520251D+00 -0.114547D-02
      3  -0.155116D+00 -0.275553D-01 -0.898747D-01 -0.577593D-01  0.363041D-01
                16            17            18            19            20 
      1   0.113179D+01  0.127921D+00 -0.145330D+00 -0.369412D-01  0.245401D+00
      2   0.336880D+00  0.196172D+00 -0.552192D-01 -0.163823D+00  0.427386D+00
      3  -0.112746D+00 -0.180712D-01  0.114515D+00 -0.905563D-01  0.143690D+00
                21            22            23            24            25 
      1   0.192689D+00 -0.465040D-01  0.114348D+00 -0.212131D+00  0.186932D+00
      2   0.307423D+00 -0.159206D+00  0.253070D+00 -0.235684D+00  0.801398D-02
      3   0.309988D+00  0.205936D+00 -0.910884D-01  0.503728D+00 -0.752696D-02
                26            27            28            29            30 
      1   0.162325D-01 -0.671719D-02  0.957376D+00  0.435740D+00  0.217770D+00
      2   0.108601D+01  0.820232D-01  0.322760D+00  0.378199D+00  0.993446D-01
      3   0.966082D-01  0.864330D-01  0.121164D+00  0.763699D-01  0.127827D+00
                31            32            33 
      1  -0.413306D-01 -0.140809D+00 -0.391238D-01
      2   0.580838D+00  0.585224D+00  0.132879D+00
      3   0.160499D+00  0.859280D-01  0.321541D+00
 Hessian after L703:
                1             2             3             4             5 
      1  0.381712D+00
      2  0.109308D+00  0.389880D+00
      3  0.609604D-01 -0.618715D-01  0.107787D+00
      4  0.890899D-02  0.113934D-02 -0.108186D-02  0.397060D+00
      5  0.171713D-01  0.218499D-01  0.907956D-02  0.411685D-01  0.449301D+00
      6  0.447361D-02  0.646912D-03 -0.264019D-02  0.760040D-01  0.812935D-01
      7 -0.858358D-01  0.507332D-02 -0.109654D-01 -0.824251D-02 -0.249708D-02
      8 -0.221464D-01 -0.196882D+00  0.363242D-01 -0.896065D-02 -0.144444D-01
      9  0.385365D-02  0.571395D-01 -0.766227D-01  0.153166D-03 -0.150712D-02
     10 -0.248460D+00 -0.694528D-01 -0.388989D-01  0.390524D-02 -0.924097D-02
     11 -0.314047D-01 -0.114983D+00  0.193999D-02  0.390754D-01 -0.546654D-01
     12 -0.521872D-01 -0.113320D-01 -0.521622D-01  0.574723D-02 -0.146837D-01
     13 -0.471982D-01  0.809929D-02 -0.492836D-02 -0.112853D+00  0.553635D-01
     14 -0.426601D-01 -0.462613D-02 -0.614687D-02  0.167260D-01 -0.289077D+00
     15 -0.160967D-01  0.125614D-02  0.407889D-02 -0.956745D-02 -0.292377D-01
     16 -0.218870D-02 -0.674319D-02 -0.136385D-03 -0.137240D-03  0.734743D-04
     17 -0.391452D-01 -0.161410D-01  0.365752D-02  0.240689D-02  0.261429D-02
     18  0.965186D-02  0.517339D-02  0.747291D-03  0.681800D-03 -0.565586D-04
     19  0.674393D-02 -0.796811D-03 -0.554719D-02 -0.639200D-02 -0.189695D-02
     20  0.258242D-02 -0.396274D-01 -0.147230D-01  0.259464D-02  0.470203D-02
     21 -0.655825D-02  0.573066D-02  0.131571D-01  0.402941D-02  0.316360D-02
     22  0.316454D-02 -0.369896D-02  0.566482D-02 -0.200414D-02  0.729533D-03
     23  0.101027D-01 -0.237687D-01  0.332549D-01 -0.229684D-03  0.477559D-03
     24 -0.105730D-02  0.102213D-01 -0.476109D-02 -0.143975D-02 -0.279190D-02
     25 -0.925537D-02 -0.372075D-01 -0.200500D-02 -0.376608D-02  0.253492D-02
     26 -0.789708D-02 -0.113323D-01 -0.296468D-03  0.197948D-02  0.225622D-02
     27 -0.248857D-02 -0.689314D-02  0.241094D-02 -0.160327D-02 -0.227849D-02
     28 -0.121750D-02  0.346646D-02 -0.939944D-03  0.912661D-02  0.244665D-02
     29  0.407657D-02 -0.284527D-03 -0.153050D-02 -0.299426D-01 -0.260946D-01
     30 -0.704016D-03 -0.125388D-03  0.100886D-01 -0.382931D-02 -0.569465D-02
     31 -0.637376D-02 -0.918728D-02 -0.212209D-02 -0.285606D+00 -0.105853D+00
     32  0.124283D-04 -0.408533D-02  0.312143D-03 -0.659574D-01 -0.969191D-01
     33  0.152486D-03  0.541473D-04 -0.208378D-02 -0.690939D-01 -0.372866D-01
                6             7             8             9            10 
      6  0.860501D-01
      7  0.134966D-02  0.557129D+00
      8 -0.171932D-02 -0.103921D-01  0.439848D+00
      9 -0.631790D-02  0.436313D-01  0.174225D-02  0.549713D+00
     10 -0.126566D-02 -0.142237D-01 -0.205188D-01  0.308861D-03  0.799076D+00
     11 -0.369555D-02 -0.418455D-01 -0.325327D-01 -0.717714D-02 -0.177144D+00
     12  0.959506D-02  0.100878D-01  0.158191D-03 -0.137435D-02  0.709693D-01
     13 -0.385956D-02 -0.167608D-02  0.620915D-02 -0.218616D-02 -0.483559D+00
     14 -0.410689D-01  0.165037D-02  0.204730D-01 -0.239742D-02  0.234928D+00
     15 -0.499811D-01  0.121145D-02  0.328466D-02  0.287849D-02 -0.288696D-01
     16  0.504906D-03 -0.250697D+00 -0.176062D-01  0.198716D-01  0.183667D-02
     17  0.529197D-03 -0.621273D-02 -0.524946D-01  0.669367D-03  0.134835D-02
     18  0.918309D-03  0.185966D-01  0.183085D-02 -0.612532D-01 -0.141289D-02
[...]
 Angle between quadratic step and forces=  68.42 degrees.
 Linear search not attempted -- first point.
 Iteration  1 RMS(Cart)=  0.00001608 RMS(Int)=  0.00000000
 Iteration  2 RMS(Cart)=  0.00000000 RMS(Int)=  0.00000000
 ITry= 1 IFail=0 DXMaxC= 4.36D-05 DCOld= 1.00D+10 DXMaxT= 3.00D-01 DXLimC= 3.00D+00 Rises=F
 Variable       Old X    -DE/DX   Delta X   Delta X   Delta X     New X
                                 (Linear)    (Quad)   (Total)
    R1        2.67120   0.00000   0.00000   0.00000   0.00000   2.67120
    R2        2.59481  -0.00000   0.00000  -0.00000  -0.00000   2.59481
    R3        2.56333   0.00000   0.00000   0.00000   0.00000   2.56333
    R4        1.82347   0.00000   0.00000   0.00000   0.00000   1.82347
    R5        2.05345  -0.00000   0.00000  -0.00000  -0.00000   2.05345
    R6        2.06457  -0.00000   0.00000  -0.00000  -0.00000   2.06457
    R7        2.06653   0.00000   0.00000   0.00000   0.00000   2.06653
    R8        2.50502  -0.00000   0.00000  -0.00000  -0.00000   2.50502
    R9        2.04478  -0.00000   0.00000   0.00000   0.00000   2.04478
   R10        2.03835   0.00000   0.00000   0.00000   0.00000   2.03835
    A1        1.98208  -0.00000   0.00000  -0.00000  -0.00000   1.98208
    A2        1.87243   0.00000   0.00000  -0.00000  -0.00000   1.87243
    A3        1.87229   0.00000   0.00000   0.00000   0.00000   1.87229
    A4        1.93727   0.00000   0.00000  -0.00000  -0.00000   1.93727
    A5        1.93110  -0.00000   0.00000  -0.00000  -0.00000   1.93110
    A6        1.91450  -0.00000   0.00000   0.00000   0.00000   1.91450
    A7        1.90554  -0.00000   0.00000  -0.00000  -0.00000   1.90554
    A8        1.90277  -0.00000   0.00000  -0.00000  -0.00000   1.90277
    A9        2.08155  -0.00000   0.00000   0.00000   0.00000   2.08155
   A10        2.05343   0.00000   0.00000   0.00000   0.00000   2.05343
   A11        2.14729  -0.00000   0.00000  -0.00000  -0.00000   2.14729
   A12        2.16215  -0.00000   0.00000  -0.00000  -0.00000   2.16215
   A13        1.98815   0.00000   0.00000  -0.00000  -0.00000   1.98815
   A14        2.13269   0.00000   0.00000   0.00000   0.00000   2.13269
    D1        3.10482   0.00000   0.00000   0.00001   0.00001   3.10483
    D2       -1.08702   0.00000   0.00000   0.00001   0.00001  -1.08701
    D3        1.02788   0.00000   0.00000   0.00001   0.00001   1.02788
    D4        2.45359  -0.00000   0.00000  -0.00003  -0.00003   2.45356
    D5       -0.73250  -0.00000   0.00000  -0.00003  -0.00003  -0.73254
    D6        0.00097   0.00000   0.00000   0.00001   0.00001   0.00098
    D7       -3.11981  -0.00000   0.00000   0.00000   0.00000  -3.11981
    D8       -0.03797  -0.00000   0.00000  -0.00000  -0.00000  -0.03797
    D9        3.08115  -0.00000   0.00000  -0.00000  -0.00000   3.08114
   D10       -3.13254   0.00000   0.00000   0.00000   0.00000  -3.13254
   D11       -0.01343   0.00000   0.00000   0.00000   0.00000  -0.01342
         Item               Value     Threshold  Converged?
 Maximum Force            0.000000     0.000015     YES
 RMS     Force            0.000000     0.000010     YES
 Maximum Displacement     0.000044     0.000060     YES
 RMS     Displacement     0.000016     0.000040     YES
 Predicted change in Energy=-4.944290D-12
 Optimization completed.
    -- Stationary point found.
                           ----------------------------
                           !   Optimized Parameters   !
                           ! (Angstroms and Degrees)  !
 --------------------------                            --------------------------
 ! Name  Definition              Value          Derivative Info.                !
 --------------------------------------------------------------------------------
 ! R1    R(1,3)                  1.4135         -DE/DX =    0.0                 !
 ! R2    R(1,4)                  1.3731         -DE/DX =    0.0                 !
 ! R3    R(2,5)                  1.3565         -DE/DX =    0.0                 !
 ! R4    R(2,11)                 0.9649         -DE/DX =    0.0                 !
 ! R5    R(3,6)                  1.0866         -DE/DX =    0.0                 !
 ! R6    R(3,7)                  1.0925         -DE/DX =    0.0                 !
 ! R7    R(3,8)                  1.0936         -DE/DX =    0.0                 !
 ! R8    R(4,5)                  1.3256         -DE/DX =    0.0                 !
 ! R9    R(4,9)                  1.0821         -DE/DX =    0.0                 !
 ! R10   R(5,10)                 1.0786         -DE/DX =    0.0                 !
 ! A1    A(3,1,4)              113.565          -DE/DX =    0.0                 !
 ! A2    A(5,2,11)             107.2822         -DE/DX =    0.0                 !
 ! A3    A(1,3,6)              107.2744         -DE/DX =    0.0                 !
 ! A4    A(1,3,7)              110.9976         -DE/DX =    0.0                 !
 ! A5    A(1,3,8)              110.6436         -DE/DX =    0.0                 !
 ! A6    A(6,3,7)              109.6929         -DE/DX =    0.0                 !
 ! A7    A(6,3,8)              109.1795         -DE/DX =    0.0                 !
 ! A8    A(7,3,8)              109.021          -DE/DX =    0.0                 !
 ! A9    A(1,4,5)              119.2639         -DE/DX =    0.0                 !
 ! A10   A(1,4,9)              117.6531         -DE/DX =    0.0                 !
 ! A11   A(5,4,9)              123.0307         -DE/DX =    0.0                 !
 ! A12   A(2,5,4)              123.8823         -DE/DX =    0.0                 !
 ! A13   A(2,5,10)             113.9125         -DE/DX =    0.0                 !
 ! A14   A(4,5,10)             122.194          -DE/DX =    0.0                 !
 ! D1    D(4,1,3,6)            177.8932         -DE/DX =    0.0                 !
 ! D2    D(4,1,3,7)            -62.2817         -DE/DX =    0.0                 !
 ! D3    D(4,1,3,8)             58.893          -DE/DX =    0.0                 !
 ! D4    D(3,1,4,5)            140.5804         -DE/DX =    0.0                 !
 ! D5    D(3,1,4,9)            -41.9694         -DE/DX =    0.0                 !
 ! D6    D(11,2,5,4)             0.0557         -DE/DX =    0.0                 !
 ! D7    D(11,2,5,10)         -178.7522         -DE/DX =    0.0                 !
 ! D8    D(1,4,5,2)             -2.1755         -DE/DX =    0.0                 !
 ! D9    D(1,4,5,10)           176.5366         -DE/DX =    0.0                 !
 ! D10   D(9,4,5,2)           -179.4814         -DE/DX =    0.0                 !
 ! D11   D(9,4,5,10)            -0.7693         -DE/DX =    0.0                 !
 --------------------------------------------------------------------------------
 GradGradGradGradGradGradGradGradGradGradGradGradGradGradGradGradGradGrad

 Leave Link  103 at Wed Sep 25 13:37:51 2019, MaxMem=   671088640 cpu:             106.7 elap:              53.5
 (Enter /shared/centos7/gaussian/g16/l9999.exe)

 ----------------------------------------------------------------------

 Electric dipole moment (input orientation):
 (Debye = 10**-18 statcoulomb cm , SI units = C m)
                  (au)            (Debye)         (10**-30 SI)
   Tot        0.864551D+00      0.219747D+01      0.732997D+01
   x         -0.382430D+00     -0.972041D+00     -0.324238D+01
   y         -0.352549D+00     -0.896089D+00     -0.298903D+01
   z         -0.690583D+00     -0.175529D+01     -0.585501D+01

 Dipole polarizability, Alpha (input orientation).
 (esu units = cm**3 , SI units = C**2 m**2 J**-1)
 Alpha(0;0):
               (au)            (10**-24 esu)      (10**-40 SI)
   iso        0.445369D+02      0.659969D+01      0.734314D+01
   aniso      0.248253D+02      0.367874D+01      0.409315D+01
   xx         0.357452D+02      0.529689D+01      0.589358D+01
   yx         0.810107D+01      0.120045D+01      0.133569D+01
   yy         0.491880D+02      0.728890D+01      0.811000D+01
   zx         0.233773D+01      0.346416D+00      0.385440D+00
   zy         0.873523D+01      0.129443D+01      0.144025D+01
   zz         0.486776D+02      0.721327D+01      0.802585D+01

 ----------------------------------------------------------------------

 Dipole orientation:
     8         -1.52061555          1.85237101         -1.41116604
     8         -2.86986584          0.03238744         -6.09713730
     6         -2.25871564          1.93355330          1.15475181
     6         -0.74936481         -0.49794639         -2.19489349
     6         -1.39866235         -1.30202535         -4.47678111
     1         -2.75875200          3.87834319          1.58417131
     1         -3.88304450          0.70586968          1.49649651
     1         -0.70133878          1.34664323          2.37976718
     1          0.43893681         -1.57790608         -0.92889081
     1         -0.75646602         -3.08695699         -5.22275420
     1         -3.30684716          1.59699532         -5.26883974

 Electric dipole moment (dipole orientation):
 (Debye = 10**-18 statcoulomb cm , SI units = C m)
                  (au)            (Debye)         (10**-30 SI)
   Tot        0.864551D+00      0.219747D+01      0.732997D+01
   x          0.000000D+00      0.000000D+00      0.000000D+00
   y          0.000000D+00      0.000000D+00      0.000000D+00
   z          0.864551D+00      0.219747D+01      0.732997D+01

 Dipole polarizability, Alpha (dipole orientation).
 (esu units = cm**3 , SI units = C**2 m**2 J**-1)
 Alpha(0;0):
               (au)            (10**-24 esu)      (10**-40 SI)
   iso        0.445369D+02      0.659969D+01      0.734314D+01
   aniso      0.248253D+02      0.367874D+01      0.409315D+01
   xx         0.358946D+02      0.531903D+01      0.591822D+01
   yx        -0.384774D+01     -0.570176D+00     -0.634406D+00
   yy         0.412190D+02      0.610802D+01      0.679609D+01
   zx         0.360300D+01      0.533909D+00      0.594054D+00
   zy         0.795446D+01      0.117873D+01      0.131151D+01
   zz         0.564971D+02      0.837201D+01      0.931512D+01

 ----------------------------------------------------------------------

 Test job not archived.
 1\1\GINC-C0284\Freq\RM062X\CC-pVTZ\C3H6O2\HARMS.N\25-Sep-2019\0\\#P Ge
 om=AllCheck Guess=TCheck SCRF=Check Test GenChk RM062X/CC-pVTZ Freq\\G
 aussian input prepared by ASE\\0,1\O,-0.2885210799,-0.5044088128,1.352
 1579172\O,0.0754636884,1.452433272,3.2559900833\C,-1.2329392032,-1.057
 9266578,0.4578511555\C,0.1339443311,0.7525424447,0.9957283063\C,0.3192
 001259,1.6655697048,1.9387447769\H,-1.4660796832,-2.0580565254,0.81305
 0643\H,-2.1441381853,-0.4558705892,0.4286984129\H,-0.8163543808,-1.123
 0468555,-0.5511542478\H,0.3407099007,0.9349538227,-0.0506041239\H,0.70
 19668056,2.6496914042,1.7185696784\H,-0.2414828709,0.5454691744,3.3457
 870522\\Version=EM64L-G16RevA.03\State=1-A\HF=-268.3241864\RMSD=6.311e
 -09\RMSF=9.042e-07\ZeroPoint=0.0911284\Thermal=0.0969967\Dipole=-0.382
 4303,-0.3525486,-0.690583\DipoleDeriv=-0.5869225,-0.4281819,-0.2547347
 ,-0.4706632,-1.2459595,-0.4552208,-0.1152266,-0.0330043,-0.5748453,-0.
 3251312,0.0543775,0.2109984,-0.011997,-0.2742903,0.2639236,-0.0063668,
 -0.2595915,-1.3309684,0.6043611,0.2437121,0.2280747,0.1453263,0.462615
 6,0.1835466,0.2467679,0.3175867,0.5809213,-0.0838078,0.2776663,-0.0566
 955,0.3818631,0.8195476,0.1208268,-0.1821026,-0.2121585,-0.117537,-0.0
 747146,0.0276321,-0.2156348,0.0455996,0.0736344,-0.1155893,-0.0215057,
 0.2241575,1.1832342,0.0445709,-0.0451365,-0.0243162,-0.0674409,-0.1026
 838,0.0111107,0.0026747,0.0570833,0.0327164,-0.1178278,0.0031986,-0.04
 63131,0.1313055,-0.0100815,0.0168359,-0.0163029,-0.0684099,0.0105103,-
 0.0255078,-0.019438,0.0956446,-0.0181258,0.0428825,0.0096663,0.0123325
 ,-0.0728627,-0.1422243,0.1485001,-0.0154697,0.046364,-0.0554188,0.0101
 152,-0.031263,0.06006,0.0539828,-0.0433998,0.122858,-0.0665466,0.03009
 12,-0.0587039,0.0067428,0.0390557,0.0148137,0.0126375,0.0387378,0.2936
 214,-0.0318138,-0.0134785,-0.0217449,0.217477,-0.0428926,0.0048556,-0.
 0194208,0.3628548\Polar=35.7451714,8.1010716,49.1879598,2.3377314,8.73
 52329,48.6775758\Quadrupole=-0.6487116,0.6044133,0.0442983,2.0151351,-
 0.3769886,-1.2933269\PG=C01 [X(C3H6O2)]\NImag=0\\0.24371396,0.17813788
 ,0.44004459,0.11580460,-0.00749325,0.28744265,-0.00498818,0.00673796,-
 0.00350919,0.10463683,0.00385513,0.00888346,-0.00442569,0.18208600,0.5
 5232892,-0.00594123,-0.01138631,0.00840539,-0.07373542,-0.06345447,0.4
 4380479,-0.14308634,-0.05533883,-0.07506921,-0.00094970,0.00166624,0.0
 0248357,0.53466503,-0.03515064,-0.09664378,-0.01673525,-0.00039574,-0.
 00009492,0.00246681,-0.01385333,0.60624690,-0.08906447,-0.04477347,-0.
 15559225,-0.00091319,-0.00260134,0.00484755,-0.04291416,-0.04288428,0.
 54184455,-0.07044262,-0.06056958,0.00032887,0.01371056,0.00085524,0.01
 490952,-0.01751777,-0.03389547,0.00460159,0.18208237,-0.08370191,-0.26
 562615,0.04440964,-0.00225183,0.00730003,0.01670906,-0.01822273,-0.036
 38073,-0.00407392,0.17361696,0.66497367,0.01451894,0.06983178,-0.11457
 259,0.00474901,-0.01980454,-0.07132205,-0.00593199,-0.02651753,0.00788
 595,-0.02178594,0.15923917,0.82889824,0.00387261,-0.02274156,-0.008079
 87,-0.05899285,-0.02916333,0.03781331,0.00155863,-0.00182025,0.0021620
 2,-0.07198713,-0.06103116,-0.03883035,0.20317065,-0.02064553,-0.061171
 09,-0.02529514,-0.02452966,-0.11008321,0.00474953,0.00358895,0.0001449
 0,0.00701035,-0.06113658,-0.31271416,-0.21388187,0.21598567,0.79248625
 ,0.00863116,0.02227191,0.00740904,0.05310703,0.05316977,-0.32657785,-0
 .00123018,0.00126080,-0.00699148,-0.04673747,-0.24581450,-0.32906767,-
 0.03541453,0.13236512,0.74441225,-0.01046521,-0.02815500,0.00504194,0.
 00000587,0.00019528,-0.00042585,-0.05976702,-0.04146485,0.01717265,-0.
 00154347,-0.00091511,-0.00385477,-0.00056814,-0.00135576,0.00093363,0.
 06633600,-0.00736822,-0.01469081,0.00073274,0.00024285,0.00025754,-0.0
 0095319,-0.04964319,-0.28039067,0.08661287,-0.00133687,0.00131229,-0.0
 0336253,-0.00070121,-0.00038728,0.00154966,0.06034039,0.30452982,-0.01
 042165,-0.02776957,0.00632091,-0.00006000,0.00026622,-0.00013863,0.022
 94729,0.09668969,-0.08533237,-0.00214072,-0.00093622,-0.00297235,-0.00
 046906,-0.00119277,0.00115360,-0.01482737,-0.09140513,0.08797096,-0.02
 791753,0.00194251,-0.01311392,0.00015745,0.00014535,-0.00046757,-0.220
 48854,0.11923649,0.00361246,0.00225788,0.00462223,-0.00067404,-0.00022
 591,-0.00154504,0.00045560,0.00792280,-0.00328283,0.00058712,0.2484356
 5,-0.01874419,0.00879193,-0.00315403,-0.00057553,-0.00018256,0.0007250
 9,0.12482796,-0.14073504,0.00150227,-0.00059558,0.00467734,0.00085291,
 0.00100510,-0.00003688,-0.00154636,0.02397315,-0.01418166,-0.00176288,
 -0.13012770,0.14165059,-0.03010409,0.00735484,-0.00509695,0.00019647,0
 .00030657,-0.00086740,0.00598238,-0.00163159,-0.05150982,0.00147418,0.
 00324693,-0.00020773,0.00013806,-0.00085517,0.00068152,-0.00946643,0.0
 0703196,0.00079974,0.00767069,0.00222093,0.05464450,0.00594076,-0.0080
 0281,-0.03220833,0.00021632,-0.00062068,0.00003144,-0.09770751,0.00531
 050,0.10325598,0.00204690,0.00339358,-0.00254653,-0.00034547,-0.000082
 68,-0.00026429,-0.00199890,0.00149224,0.00455871,-0.00930129,0.0000227
 9,0.02441030,0.10126939,-0.00167018,-0.00345415,-0.01729012,-0.0000294
 0,-0.00038847,0.00033775,0.00543943,-0.05345870,-0.00662569,0.00218096
 ,0.00314150,-0.00359233,-0.00007255,-0.00032300,-0.00006967,-0.0124513
 8,0.00389893,0.02685079,0.00907061,0.00016436,-0.01721375,-0.00220290,
 0.05028495,-0.00640469,-0.01007148,-0.02884372,-0.00024379,-0.00025431
 ,0.00005474,0.09753763,-0.00957617,-0.25715043,0.00164371,0.00463073,0
 .00013748,-0.00020595,-0.00094290,0.00018262,0.00542416,-0.00031630,-0
 .00795920,0.00129136,0.00104169,0.00164950,-0.09863608,0.01654977,0.29
 099133,-0.00202113,-0.00638775,0.00811604,0.00934993,-0.00464594,0.001
 32003,0.00140607,0.00086240,0.00274706,-0.04021391,-0.01521473,0.05476
 470,0.00115927,0.00355640,-0.00583951,-0.00009898,0.00022604,-0.000339
 55,-0.00056879,-0.00012655,0.00004822,0.00024805,-0.00011648,-0.000400
 41,0.03519992,-0.01159169,-0.01547386,0.03189302,-0.00408343,-0.001456
 31,-0.00441050,0.00251478,0.00265758,0.00495111,-0.01549159,-0.0586537
 2,0.03543646,0.00670792,0.00932523,-0.01905985,0.00012269,-0.00003400,
 -0.00040114,-0.00026292,-0.00019791,-0.00052442,0.00047194,0.00003654,
 -0.00138920,0.02035870,0.06539994,0.00321841,0.00646213,-0.00514158,-0
 .00043023,-0.00340974,0.00088071,-0.00210510,-0.00103018,0.00182891,0.
 05301914,0.03636481,-0.32661070,0.00534463,0.00802707,-0.01488306,0.00
 015681,0.00006116,0.00038234,0.00040094,0.00001549,-0.00017865,0.00102
 101,0.00084204,0.00035454,-0.05996474,-0.04704639,0.34264499,0.0081123
 6,-0.00543399,0.00195974,-0.00075194,-0.00508649,0.00257324,0.00166882
 ,0.00121566,-0.00030833,0.00014823,-0.00093690,0.00155714,-0.07481917,
 -0.10337528,0.02085894,0.00016582,0.00017798,0.00019434,-0.00009056,0.
 00027287,-0.00004571,-0.00021531,-0.00016253,-0.00005931,-0.00379518,0
 .00144386,-0.00064352,0.06769533,-0.00348577,0.00243050,-0.00412481,-0
 .00162157,-0.00143546,0.00463503,0.00013588,-0.00105740,0.00052973,-0.
 00588125,-0.01272529,0.00874073,-0.10241857,-0.30610873,0.04703993,-0.
 00024824,-0.00014178,-0.00025704,-0.00001036,-0.00008466,0.00003473,0.
 00000253,-0.00002142,-0.00010157,0.00136211,-0.00043547,-0.00049078,0.
 11223384,0.31715004,-0.00050364,-0.00378709,-0.00316234,0.01419429,0.0
 3540961,-0.01192411,0.00082150,-0.00061193,0.00054433,-0.00733736,-0.0
 1733877,0.01168178,0.01938253,0.04168162,-0.06433864,-0.00024564,-0.00
 012171,-0.00025353,-0.00008693,0.00007737,-0.00002837,-0.00010556,-0.0
 0009802,-0.00011384,-0.00049422,0.00050871,-0.00010486,-0.02692105,-0.
 05591805,0.07377625,-0.00271868,-0.00018883,0.00072933,-0.06239429,-0.
 14928680,0.02143897,0.00021834,-0.00004478,-0.00035163,0.00145896,0.00
 064158,-0.00196617,-0.00282250,-0.01046050,0.00549961,0.00001123,-0.00
 014718,-0.00002910,-0.00018115,0.00006767,-0.00030407,-0.00015295,0.00
 001440,0.00005337,-0.00066526,-0.00019027,-0.00001737,0.00188160,-0.00
 006860,0.00129607,0.06536470,0.00036510,-0.00309064,0.00148288,-0.1555
 7966,-0.45512903,0.05058119,-0.00111516,-0.00028814,0.00035237,0.00225
 375,0.00469522,-0.00694225,-0.00575007,-0.01113202,0.00883319,-0.00004
 118,-0.00017238,-0.00008194,0.00021165,0.00013449,0.00002896,0.0002154
 9,0.00011945,0.00042974,0.00012580,-0.00116802,0.00020439,-0.00034902,
 0.00242967,0.00019826,0.15966331,0.46360140,0.00026667,-0.00063951,0.0
 0283145,0.00664503,0.00479791,-0.04716313,-0.00252175,-0.00143038,-0.0
 0037494,0.00202445,0.00356307,-0.00385037,0.01815920,0.04833417,-0.011
 98033,0.00009088,0.00017048,0.00002853,0.00032428,0.00002753,0.0001136
 7,0.00048335,0.00030922,0.00069699,0.00004238,0.00004219,0.00082737,0.
 00083452,-0.00008791,-0.00607667,-0.02634902,-0.05508679,0.06494744\\-
 0.00000108,-0.00000016,0.00000063,-0.00000109,0.00000090,-0.00000038,-
 0.00000002,0.00000023,-0.00000028,0.00000110,-0.00000047,0.00000033,0.
 00000029,-0.00000021,0.00000028,-0.00000149,0.00000045,0.00000034,0.00
 000019,0.00000106,-0.00000146,0.00000082,-0.00000073,0.00000041,0.0000
 0187,-0.00000145,0.00000034,0.00000149,-0.00000075,-0.00000018,-0.0000
 0208,0.00000113,-0.00000004\\\@


 GETTING A SIMPLE ANSWER FROM A PROFESSOR IS LIKE
 GETTING A THIMBLE OF WATER FROM A FIRE HYDRANT.
     -- PROF. LEN SHAPIRO, NDSU
 Job cpu time:       0 days  0 hours 55 minutes 30.4 seconds.
 Elapsed time:       0 days  0 hours 27 minutes 47.2 seconds.
 File lengths (MBytes):  RWF=   1312 Int=      0 D2E=      0 Chk=     32 Scr=     32
 Normal termination of Gaussian 16 at Wed Sep 25 13:37:52 2019.
RY", WALTER KETTILBY, LONDON, 1686
 Job cpu time:       0 days  1 hours  9 minutes 31.9 seconds.
 Elapsed time:       0 days  0 hours 34 minutes 49.4 seconds.
 File lengths (MBytes):  RWF=   1312 Int=      0 D2E=      0 Chk=     32 Scr=     32
 Normal termination of Gaussian 16 at Wed Sep 25 10:35:03 2019.
