 Entering Gaussian System, Link 0=g16
 Input=verytight/species/COC=CO/conformers/COC=CO_14.com
 Output=verytight/species/COC=CO/conformers/COC=CO_14.log
 Initial command:
 /shared/centos7/gaussian/g16/l1.exe "/scratch/harms.n/gauss_scrdir/Gau-19148.inp" -scrdir="/scratch/harms.n/gauss_scrdir/"
 Entering Link 1 = /shared/centos7/gaussian/g16/l1.exe PID=     19150.
  
 Copyright (c) 1988,1990,1992,1993,1995,1998,2003,2009,2016,
            Gaussian, Inc.  All Rights Reserved.
  
 This is part of the Gaussian(R) 16 program.  It is based on
 the Gaussian(R) 09 system (copyright 2009, Gaussian, Inc.),
 the Gaussian(R) 03 system (copyright 2003, Gaussian, Inc.),
 the Gaussian(R) 98 system (copyright 1998, Gaussian, Inc.),
 the Gaussian(R) 94 system (copyright 1995, Gaussian, Inc.),
 the Gaussian 92(TM) system (copyright 1992, Gaussian, Inc.),
 the Gaussian 90(TM) system (copyright 1990, Gaussian, Inc.),
 the Gaussian 88(TM) system (copyright 1988, Gaussian, Inc.),
 the Gaussian 86(TM) system (copyright 1986, Carnegie Mellon
 University), and the Gaussian 82(TM) system (copyright 1983,
 Carnegie Mellon University). Gaussian is a federally registered
 trademark of Gaussian, Inc.
  
 This software contains proprietary and confidential information,
 including trade secrets, belonging to Gaussian, Inc.
  
 This software is provided under written license and may be
 used, copied, transmitted, or stored only in accord with that
 written license.
  
 The following legend is applicable only to US Government
 contracts under FAR:
  
                    RESTRICTED RIGHTS LEGEND
  
 Use, reproduction and disclosure by the US Government is
 subject to restrictions as set forth in subparagraphs (a)
 and (c) of the Commercial Computer Software - Restricted
 Rights clause in FAR 52.227-19.
  
 Gaussian, Inc.
 340 Quinnipiac St., Bldg. 40, Wallingford CT 06492
  
  
 ---------------------------------------------------------------
 Warning -- This program may not be used in any manner that
 competes with the business of Gaussian, Inc. or will provide
 assistance to any competitor of Gaussian, Inc.  The licensee
 of this program is prohibited from giving any competitor of
 Gaussian, Inc. access to this program.  By using this program,
 the user acknowledges that Gaussian, Inc. is engaged in the
 business of creating and licensing software in the field of
 computational chemistry and represents and warrants to the
 licensee that it is not a competitor of Gaussian, Inc. and that
 it will not use this program in any manner prohibited above.
 ---------------------------------------------------------------
  

 Cite this work as:
 Gaussian 16, Revision A.03,
 M. J. Frisch, G. W. Trucks, H. B. Schlegel, G. E. Scuseria, 
 M. A. Robb, J. R. Cheeseman, G. Scalmani, V. Barone, 
 G. A. Petersson, H. Nakatsuji, X. Li, M. Caricato, A. V. Marenich, 
 J. Bloino, B. G. Janesko, R. Gomperts, B. Mennucci, H. P. Hratchian, 
 J. V. Ortiz, A. F. Izmaylov, J. L. Sonnenberg, D. Williams-Young, 
 F. Ding, F. Lipparini, F. Egidi, J. Goings, B. Peng, A. Petrone, 
 T. Henderson, D. Ranasinghe, V. G. Zakrzewski, J. Gao, N. Rega, 
 G. Zheng, W. Liang, M. Hada, M. Ehara, K. Toyota, R. Fukuda, 
 J. Hasegawa, M. Ishida, T. Nakajima, Y. Honda, O. Kitao, H. Nakai, 
 T. Vreven, K. Throssell, J. A. Montgomery, Jr., J. E. Peralta, 
 F. Ogliaro, M. J. Bearpark, J. J. Heyd, E. N. Brothers, K. N. Kudin, 
 V. N. Staroverov, T. A. Keith, R. Kobayashi, J. Normand, 
 K. Raghavachari, A. P. Rendell, J. C. Burant, S. S. Iyengar, 
 J. Tomasi, M. Cossi, J. M. Millam, M. Klene, C. Adamo, R. Cammi, 
 J. W. Ochterski, R. L. Martin, K. Morokuma, O. Farkas, 
 J. B. Foresman, and D. J. Fox, Gaussian, Inc., Wallingford CT, 2016.
 
 ******************************************
 Gaussian 16:  EM64L-G16RevA.03 25-Dec-2016
                29-Sep-2019 
 ******************************************
 %nprocshared=20
 Will use up to   20 processors via shared memory.
 %mem=5GB
 ----------------------------------------------------------------------
 #p m062x/cc-pVTZ opt=(calcfc,maxcycles=900,Tight) freq IOP(7/33=1,2/16
 =3) scf=(maxcycle=900)
 ----------------------------------------------------------------------
 1/6=900,7=10,10=4,18=20,19=15,26=3,38=1/1,3;
 2/9=110,12=2,16=3,17=6,18=5,40=1/2;
 3/5=16,6=1,11=2,25=1,30=1,71=2,74=-55,140=1/1,2,3;
 4//1;
 5/5=2,7=900,38=5/2;
 8/6=4,10=90,11=11/1;
 11/6=1,8=1,9=11,15=111,16=1/1,2,10;
 10/6=1,13=1/2;
 6/7=2,8=2,9=2,10=2,28=1/1;
 7/10=1,18=20,25=1,33=1/1,2,3,16;
 1/6=900,7=10,10=4,18=20,19=15,26=3/3(2);
 2/9=110,16=3/2;
 99//99;
 2/9=110,16=3/2;
 3/5=16,6=1,11=2,25=1,30=1,71=1,74=-55/1,2,3;
 4/5=5,16=3,69=1/1;
 5/5=2,7=900,38=5/2;
 7/33=1/1,2,3,16;
 1/6=900,7=10,18=20,19=15,26=3/3(-5);
 2/9=110,16=3/2;
 6/7=2,8=2,9=2,10=2,19=2,28=1/1;
 99/9=1/99;
 Leave Link    1 at Sun Sep 29 05:59:49 2019, MaxMem=   671088640 cpu:               4.5 elap:               2.4
 (Enter /shared/centos7/gaussian/g16/l101.exe)
 ------------------------------
 Gaussian input prepared by ASE
 ------------------------------
 Symbolic Z-matrix:
 Charge =  0 Multiplicity = 1
 O                     0.1706   -0.75972   1.09339 
 O                    -0.76804   1.6259    2.5282 
 C                    -1.2278   -0.86157   0.81504 
 C                     0.65625   0.53288   0.94201 
 C                     0.24967   1.59174   1.60117 
 H                    -1.83747  -0.26625   1.55418 
 H                    -1.45957  -0.4871   -0.22263 
 H                    -1.50212  -1.91378   0.89311 
 H                     1.50071   0.5974    0.25852 
 H                     0.6881    2.5537    1.44219 
 H                    -1.0865    0.66744   2.64624 
 
 ITRead=  0  0  0  0  0  0  0  0  0  0  0
 MicOpt= -1 -1 -1 -1 -1 -1 -1 -1 -1 -1 -1
 NAtoms=     11 NQM=       11 NQMF=       0 NMMI=      0 NMMIF=      0
                NMic=       0 NMicF=      0.
                    Isotopes and Nuclear Properties:
 (Nuclear quadrupole moments (NQMom) in fm**2, nuclear magnetic moments (NMagM)
  in nuclear magnetons)

  Atom         1           2           3           4           5           6           7           8           9          10
 IAtWgt=          16          16          12          12          12           1           1           1           1           1
 AtmWgt=  15.9949146  15.9949146  12.0000000  12.0000000  12.0000000   1.0078250   1.0078250   1.0078250   1.0078250   1.0078250
 NucSpn=           0           0           0           0           0           1           1           1           1           1
 AtZEff=  -0.0000000  -0.0000000  -0.0000000  -0.0000000  -0.0000000  -0.0000000  -0.0000000  -0.0000000  -0.0000000  -0.0000000
 NQMom=    0.0000000   0.0000000   0.0000000   0.0000000   0.0000000   0.0000000   0.0000000   0.0000000   0.0000000   0.0000000
 NMagM=    0.0000000   0.0000000   0.0000000   0.0000000   0.0000000   2.7928460   2.7928460   2.7928460   2.7928460   2.7928460
 AtZNuc=   8.0000000   8.0000000   6.0000000   6.0000000   6.0000000   1.0000000   1.0000000   1.0000000   1.0000000   1.0000000

  Atom        11
 IAtWgt=           1
 AtmWgt=   1.0078250
 NucSpn=           1
 AtZEff=  -0.0000000
 NQMom=    0.0000000
 NMagM=    2.7928460
 AtZNuc=   1.0000000
 Leave Link  101 at Sun Sep 29 05:59:50 2019, MaxMem=   671088640 cpu:               2.7 elap:               1.4
 (Enter /shared/centos7/gaussian/g16/l103.exe)

 GradGradGradGradGradGradGradGradGradGradGradGradGradGradGradGradGradGrad
 Berny optimization.
 Initialization pass.
                           ----------------------------
                           !    Initial Parameters    !
                           ! (Angstroms and Degrees)  !
 --------------------------                            --------------------------
 ! Name  Definition              Value          Derivative Info.                !
 --------------------------------------------------------------------------------
 ! R1    R(1,3)                  1.4295         calculate D2E/DX2 analytically  !
 ! R2    R(1,4)                  1.3891         calculate D2E/DX2 analytically  !
 ! R3    R(2,5)                  1.3771         calculate D2E/DX2 analytically  !
 ! R4    R(2,11)                 1.0169         calculate D2E/DX2 analytically  !
 ! R5    R(3,6)                  1.128          calculate D2E/DX2 analytically  !
 ! R6    R(3,7)                  1.1272         calculate D2E/DX2 analytically  !
 ! R7    R(3,8)                  1.0902         calculate D2E/DX2 analytically  !
 ! R8    R(4,5)                  1.3119         calculate D2E/DX2 analytically  !
 ! R9    R(4,9)                  1.0883         calculate D2E/DX2 analytically  !
 ! R10   R(5,10)                 1.0691         calculate D2E/DX2 analytically  !
 ! A1    A(3,1,4)              112.774          calculate D2E/DX2 analytically  !
 ! A2    A(5,2,11)             106.6314         calculate D2E/DX2 analytically  !
 ! A3    A(1,3,6)              111.3175         calculate D2E/DX2 analytically  !
 ! A4    A(1,3,7)              110.8985         calculate D2E/DX2 analytically  !
 ! A5    A(1,3,8)              107.5167         calculate D2E/DX2 analytically  !
 ! A6    A(6,3,7)              108.4659         calculate D2E/DX2 analytically  !
 ! A7    A(6,3,8)              109.0534         calculate D2E/DX2 analytically  !
 ! A8    A(7,3,8)              109.5609         calculate D2E/DX2 analytically  !
 ! A9    A(1,4,5)              126.0127         calculate D2E/DX2 analytically  !
 ! A10   A(1,4,9)              113.2587         calculate D2E/DX2 analytically  !
 ! A11   A(5,4,9)              120.5431         calculate D2E/DX2 analytically  !
 ! A12   A(2,5,4)              125.9678         calculate D2E/DX2 analytically  !
 ! A13   A(2,5,10)             112.3877         calculate D2E/DX2 analytically  !
 ! A14   A(4,5,10)             121.6327         calculate D2E/DX2 analytically  !
 ! D1    D(4,1,3,6)            -64.377          calculate D2E/DX2 analytically  !
 ! D2    D(4,1,3,7)             56.4836         calculate D2E/DX2 analytically  !
 ! D3    D(4,1,3,8)            176.2409         calculate D2E/DX2 analytically  !
 ! D4    D(3,1,4,5)             59.7755         calculate D2E/DX2 analytically  !
 ! D5    D(3,1,4,9)           -125.1872         calculate D2E/DX2 analytically  !
 ! D6    D(11,2,5,4)             4.0999         calculate D2E/DX2 analytically  !
 ! D7    D(11,2,5,10)         -177.1436         calculate D2E/DX2 analytically  !
 ! D8    D(1,4,5,2)             -2.6224         calculate D2E/DX2 analytically  !
 ! D9    D(1,4,5,10)           178.728          calculate D2E/DX2 analytically  !
 ! D10   D(9,4,5,2)           -177.3276         calculate D2E/DX2 analytically  !
 ! D11   D(9,4,5,10)             4.0229         calculate D2E/DX2 analytically  !
 --------------------------------------------------------------------------------
 Trust Radius=3.00D-01 FncErr=1.00D-07 GrdErr=1.00D-06 EigMax=2.50D+02 EigMin=1.00D-04
 Number of steps in this run=    100 maximum allowed number of steps=    100.
 GradGradGradGradGradGradGradGradGradGradGradGradGradGradGradGradGradGrad

 Leave Link  103 at Sun Sep 29 05:59:51 2019, MaxMem=   671088640 cpu:               1.7 elap:               0.9
 (Enter /shared/centos7/gaussian/g16/l202.exe)
                          Input orientation:                          
 ---------------------------------------------------------------------
 Center     Atomic      Atomic             Coordinates (Angstroms)
 Number     Number       Type             X           Y           Z
 ---------------------------------------------------------------------
      1          8           0        0.170597   -0.759720    1.093388
      2          8           0       -0.768042    1.625905    2.528202
      3          6           0       -1.227801   -0.861567    0.815040
      4          6           0        0.656247    0.532879    0.942011
      5          6           0        0.249670    1.591737    1.601166
      6          1           0       -1.837469   -0.266247    1.554181
      7          1           0       -1.459567   -0.487102   -0.222627
      8          1           0       -1.502123   -1.913775    0.893110
      9          1           0        1.500706    0.597398    0.258523
     10          1           0        0.688097    2.553705    1.442188
     11          1           0       -1.086503    0.667435    2.646244
 ---------------------------------------------------------------------
                    Distance matrix (angstroms):
                    1          2          3          4          5
     1  O    0.000000
     2  O    2.937846   0.000000
     3  C    1.429464   3.055129   0.000000
     4  C    1.389094   2.395686   2.347389   0.000000
     5  C    2.406957   1.377063   2.969784   1.311858   0.000000
     6  H    2.118531   2.381728   1.128020   2.689233   2.794721
     7  H    2.112735   3.536956   1.127250   2.621719   3.251043
     8  H    2.042045   3.967585   1.090179   3.262985   3.982303
     9  H    2.075562   3.369939   3.143730   1.088314   2.087221
    10  H    3.371684   2.039750   3.965861   2.082049   1.069052
    11  H    2.455287   1.016866   2.389795   2.441249   1.931808
                    6          7          8          9         10
     6  H    0.000000
     7  H    1.829926   0.000000
     8  H    1.806605   1.811650   0.000000
     9  H    3.683480   3.189178   3.965561   0.000000
    10  H    3.787235   4.078060   5.005689   2.426630   0.000000
    11  H    1.621208   3.114892   3.147835   3.521330   2.856041
                   11
    11  H    0.000000
 Stoichiometry    C3H6O2
 Framework group  C1[X(C3H6O2)]
 Deg. of freedom    27
 Full point group                 C1      NOp   1
 Largest Abelian subgroup         C1      NOp   1
 Largest concise Abelian subgroup C1      NOp   1
                         Standard orientation:                         
 ---------------------------------------------------------------------
 Center     Atomic      Atomic             Coordinates (Angstroms)
 Number     Number       Type             X           Y           Z
 ---------------------------------------------------------------------
      1          8           0       -1.075309    0.481409   -0.460620
      2          8           0        1.490126   -0.912748   -0.135327
      3          6           0       -1.526693   -0.658432    0.274487
      4          6           0        0.094400    1.025047    0.054959
      5          6           0        1.244255    0.405558    0.177592
      6          1           0       -0.790457   -1.510099    0.203408
      7          1           0       -1.673167   -0.402964    1.362592
      8          1           0       -2.476947   -0.972442   -0.157838
      9          1           0        0.009250    2.084506    0.288893
     10          1           0        2.108543    0.899587    0.567227
     11          1           0        0.632471   -1.280917   -0.538930
 ---------------------------------------------------------------------
 Rotational constants (GHZ):           9.3190796           4.1047071           3.1153600
 Leave Link  202 at Sun Sep 29 05:59:53 2019, MaxMem=   671088640 cpu:               3.9 elap:               2.0
 (Enter /shared/centos7/gaussian/g16/l301.exe)
 Standard basis: CC-pVTZ (5D, 7F)
 Ernie: Thresh=  0.10000D-02 Tol=  0.10000D-05 Strict=F.
 Ernie:  15 primitive shells out of 178 were deleted.
 There are   265 symmetry adapted cartesian basis functions of A   symmetry.
 There are   234 symmetry adapted basis functions of A   symmetry.
   234 basis functions,   362 primitive gaussians,   265 cartesian basis functions
    20 alpha electrons       20 beta electrons
       nuclear repulsion energy       179.9266445402 Hartrees.
 IExCor= 4336 DFT=T Ex+Corr=M062X ExCW=0 ScaHFX=  0.540000
 ScaDFX=  1.000000  1.000000  1.000000  1.000000 ScalE2=  1.000000  1.000000
 IRadAn=      5 IRanWt=     -1 IRanGd=            0 ICorTp=0 IEmpDi=  4
 NAtoms=   11 NActive=   11 NUniq=   11 SFac= 1.00D+00 NAtFMM=   60 NAOKFM=F Big=F
 Integral buffers will be    131072 words long.
 Raffenetti 2 integral format.
 Two-electron integral symmetry is turned on.
 Leave Link  301 at Sun Sep 29 05:59:54 2019, MaxMem=   671088640 cpu:               2.0 elap:               1.0
 (Enter /shared/centos7/gaussian/g16/l302.exe)
 NPDir=0 NMtPBC=     1 NCelOv=     1 NCel=       1 NClECP=     1 NCelD=      1
         NCelK=      1 NCelE2=     1 NClLst=     1 CellRange=     0.0.
 One-electron integrals computed using PRISM.
 One-electron integral symmetry used in STVInt
 NBasis=   234 RedAO= T EigKep=  3.60D-04  NBF=   234
 NBsUse=   234 1.00D-06 EigRej= -1.00D+00 NBFU=   234
 Precomputing XC quadrature grid using
 IXCGrd= 4 IRadAn=           5 IRanWt=          -1 IRanGd=           0 AccXCQ= 0.00D+00.
 Generated NRdTot=       0 NPtTot=           0 NUsed=           0 NTot=          32
 NSgBfM=   265   265   265   265   265 MxSgAt=    11 MxSgA2=    11.
 Leave Link  302 at Sun Sep 29 06:00:53 2019, MaxMem=   671088640 cpu:             118.0 elap:              59.0
 (Enter /shared/centos7/gaussian/g16/l303.exe)
 DipDrv:  MaxL=1.
 Leave Link  303 at Sun Sep 29 06:00:58 2019, MaxMem=   671088640 cpu:               9.2 elap:               4.6
 (Enter /shared/centos7/gaussian/g16/l401.exe)
 ExpMin= 1.03D-01 ExpMax= 1.53D+04 ExpMxC= 5.22D+02 IAcc=3 IRadAn=         5 AccDes= 0.00D+00
 Harris functional with IExCor= 1009 and IRadAn=       5 diagonalized for initial guess.
 HarFok:  IExCor= 1009 AccDes= 0.00D+00 IRadAn=         5 IDoV= 1 UseB2=F ITyADJ=14
 ICtDFT=  3500011 ScaDFX=  1.000000  1.000000  1.000000  1.000000
 FoFCou: FMM=F IPFlag=           0 FMFlag=      100000 FMFlg1=           0
         NFxFlg=           0 DoJE=T BraDBF=F KetDBF=T FulRan=T
         wScrn=  0.000000 ICntrl=       500 IOpCl=  0 I1Cent=   200000004 NGrid=           0
         NMat0=    1 NMatS0=      1 NMatT0=    0 NMatD0=    1 NMtDS0=    0 NMtDT0=    0
 Petite list used in FoFCou.
 Harris En= -268.192281575742    
 JPrj=0 DoOrth=F DoCkMO=F.
 Leave Link  401 at Sun Sep 29 06:01:29 2019, MaxMem=   671088640 cpu:              62.9 elap:              31.5
 (Enter /shared/centos7/gaussian/g16/l502.exe)
 Keep R1 ints in memory in canonical form, NReq=399924305.
 FoFCou: FMM=F IPFlag=           0 FMFlag=           0 FMFlg1=           0
         NFxFlg=           0 DoJE=F BraDBF=F KetDBF=F FulRan=T
         wScrn=  0.000000 ICntrl=       600 IOpCl=  0 I1Cent=           0 NGrid=           0
         NMat0=    1 NMatS0=  27495 NMatT0=    0 NMatD0=    1 NMtDS0=    0 NMtDT0=    0
 Symmetry not used in FoFCou.
 Two-electron integral symmetry not used.
 Closed shell SCF:
 Using DIIS extrapolation, IDIIS=  1040.
 NGot=   671088640 LenX=   292939207 LenY=   292868541
 Requested convergence on RMS density matrix=1.00D-08 within 900 cycles.
 Requested convergence on MAX density matrix=1.00D-06.
 Requested convergence on             energy=1.00D-06.
 No special actions if energy rises.
 Integral accuracy reduced to 1.0D-05 until final iterations.

 Cycle   1  Pass 0  IDiag  1:
 E= -268.190948353767    
 DIIS: error= 1.59D-02 at cycle   1 NSaved=   1.
 NSaved= 1 IEnMin= 1 EnMin= -268.190948353767     IErMin= 1 ErrMin= 1.59D-02
 ErrMax= 1.59D-02  0.00D+00 EMaxC= 1.00D-01 BMatC= 1.67D-01 BMatP= 1.67D-01
 IDIUse=3 WtCom= 8.41D-01 WtEn= 1.59D-01
 Coeff-Com:  0.100D+01
 Coeff-En:   0.100D+01
 Coeff:      0.100D+01
 Gap=     0.366 Goal=   None    Shift=    0.000
 GapD=    0.366 DampG=1.000 DampE=0.500 DampFc=0.5000 IDamp=-1.
 Damping current iteration by 5.00D-01
 RMSDP=2.14D-03 MaxDP=7.76D-02              OVMax= 1.14D-01

 Cycle   2  Pass 0  IDiag  1:
 E= -268.253562883890     Delta-E=       -0.062614530123 Rises=F Damp=T
 DIIS: error= 5.36D-03 at cycle   2 NSaved=   2.
 NSaved= 2 IEnMin= 2 EnMin= -268.253562883890     IErMin= 2 ErrMin= 5.36D-03
 ErrMax= 5.36D-03  0.00D+00 EMaxC= 1.00D-01 BMatC= 1.64D-02 BMatP= 1.67D-01
 IDIUse=3 WtCom= 9.46D-01 WtEn= 5.36D-02
 Coeff-Com: -0.197D+00 0.120D+01
 Coeff-En:   0.000D+00 0.100D+01
 Coeff:     -0.186D+00 0.119D+01
 Gap=     0.345 Goal=   None    Shift=    0.000
 RMSDP=4.24D-04 MaxDP=8.95D-03 DE=-6.26D-02 OVMax= 4.87D-02

 Cycle   3  Pass 0  IDiag  1:
 E= -268.307372247399     Delta-E=       -0.053809363509 Rises=F Damp=F
 DIIS: error= 3.05D-03 at cycle   3 NSaved=   3.
 NSaved= 3 IEnMin= 3 EnMin= -268.307372247399     IErMin= 3 ErrMin= 3.05D-03
 ErrMax= 3.05D-03  0.00D+00 EMaxC= 1.00D-01 BMatC= 3.55D-03 BMatP= 1.64D-02
 IDIUse=3 WtCom= 9.69D-01 WtEn= 3.05D-02
 Coeff-Com: -0.122D+00 0.399D+00 0.724D+00
 Coeff-En:   0.000D+00 0.000D+00 0.100D+01
 Coeff:     -0.119D+00 0.386D+00 0.732D+00
 Gap=     0.343 Goal=   None    Shift=    0.000
 RMSDP=1.96D-04 MaxDP=5.45D-03 DE=-5.38D-02 OVMax= 1.29D-02

 Cycle   4  Pass 0  IDiag  1:
 E= -268.309116170233     Delta-E=       -0.001743922834 Rises=F Damp=F
 DIIS: error= 1.34D-03 at cycle   4 NSaved=   4.
 NSaved= 4 IEnMin= 4 EnMin= -268.309116170233     IErMin= 4 ErrMin= 1.34D-03
 ErrMax= 1.34D-03  0.00D+00 EMaxC= 1.00D-01 BMatC= 7.92D-04 BMatP= 3.55D-03
 IDIUse=3 WtCom= 9.87D-01 WtEn= 1.34D-02
 Coeff-Com: -0.376D-01 0.940D-01 0.367D+00 0.577D+00
 Coeff-En:   0.000D+00 0.000D+00 0.166D+00 0.834D+00
 Coeff:     -0.371D-01 0.928D-01 0.364D+00 0.580D+00
 Gap=     0.339 Goal=   None    Shift=    0.000
 RMSDP=6.67D-05 MaxDP=1.79D-03 DE=-1.74D-03 OVMax= 6.24D-03

 Cycle   5  Pass 0  IDiag  1:
 E= -268.309692627638     Delta-E=       -0.000576457405 Rises=F Damp=F
 DIIS: error= 2.05D-04 at cycle   5 NSaved=   5.
 NSaved= 5 IEnMin= 5 EnMin= -268.309692627638     IErMin= 5 ErrMin= 2.05D-04
 ErrMax= 2.05D-04  0.00D+00 EMaxC= 1.00D-01 BMatC= 1.92D-05 BMatP= 7.92D-04
 IDIUse=3 WtCom= 9.98D-01 WtEn= 2.05D-03
 Coeff-Com: -0.702D-02 0.135D-01 0.951D-01 0.219D+00 0.679D+00
 Coeff-En:   0.000D+00 0.000D+00 0.000D+00 0.000D+00 0.100D+01
 Coeff:     -0.701D-02 0.134D-01 0.949D-01 0.219D+00 0.680D+00
 Gap=     0.339 Goal=   None    Shift=    0.000
 RMSDP=1.37D-05 MaxDP=3.50D-04 DE=-5.76D-04 OVMax= 1.33D-03

 Cycle   6  Pass 0  IDiag  1:
 E= -268.309707665001     Delta-E=       -0.000015037363 Rises=F Damp=F
 DIIS: error= 3.94D-05 at cycle   6 NSaved=   6.
 NSaved= 6 IEnMin= 6 EnMin= -268.309707665001     IErMin= 6 ErrMin= 3.94D-05
 ErrMax= 3.94D-05  0.00D+00 EMaxC= 1.00D-01 BMatC= 8.99D-07 BMatP= 1.92D-05
 IDIUse=1 WtCom= 1.00D+00 WtEn= 0.00D+00
 Coeff-Com: -0.918D-03 0.100D-02 0.190D-01 0.599D-01 0.231D+00 0.690D+00
 Coeff:     -0.918D-03 0.100D-02 0.190D-01 0.599D-01 0.231D+00 0.690D+00
 Gap=     0.340 Goal=   None    Shift=    0.000
 RMSDP=4.08D-06 MaxDP=1.20D-04 DE=-1.50D-05 OVMax= 5.39D-04

 Initial convergence to 1.0D-05 achieved.  Increase integral accuracy.
 Cycle   7  Pass 1  IDiag  1:
 E= -268.309737842563     Delta-E=       -0.000030177562 Rises=F Damp=F
 DIIS: error= 2.44D-05 at cycle   1 NSaved=   1.
 NSaved= 1 IEnMin= 1 EnMin= -268.309737842563     IErMin= 1 ErrMin= 2.44D-05
 ErrMax= 2.44D-05  0.00D+00 EMaxC= 1.00D-01 BMatC= 4.20D-07 BMatP= 4.20D-07
 IDIUse=1 WtCom= 1.00D+00 WtEn= 0.00D+00
 Coeff-Com:  0.100D+01
 Coeff:      0.100D+01
 Gap=     0.340 Goal=   None    Shift=    0.000
 RMSDP=4.08D-06 MaxDP=1.20D-04 DE=-3.02D-05 OVMax= 4.70D-04

 Cycle   8  Pass 1  IDiag  1:
 E= -268.309737779170     Delta-E=        0.000000063393 Rises=F Damp=F
 DIIS: error= 2.75D-05 at cycle   2 NSaved=   2.
 NSaved= 2 IEnMin= 1 EnMin= -268.309737842563     IErMin= 1 ErrMin= 2.44D-05
 ErrMax= 2.75D-05  0.00D+00 EMaxC= 1.00D-01 BMatC= 4.95D-07 BMatP= 4.20D-07
 IDIUse=1 WtCom= 1.00D+00 WtEn= 0.00D+00
 Coeff-Com:  0.524D+00 0.476D+00
 Coeff:      0.524D+00 0.476D+00
 Gap=     0.340 Goal=   None    Shift=    0.000
 RMSDP=2.34D-06 MaxDP=7.04D-05 DE= 6.34D-08 OVMax= 3.18D-04

 Cycle   9  Pass 1  IDiag  1:
 E= -268.309738187773     Delta-E=       -0.000000408602 Rises=F Damp=F
 DIIS: error= 4.87D-06 at cycle   3 NSaved=   3.
 NSaved= 3 IEnMin= 3 EnMin= -268.309738187773     IErMin= 3 ErrMin= 4.87D-06
 ErrMax= 4.87D-06  0.00D+00 EMaxC= 1.00D-01 BMatC= 1.52D-08 BMatP= 4.20D-07
 IDIUse=1 WtCom= 1.00D+00 WtEn= 0.00D+00
 Coeff-Com: -0.302D-01 0.128D+00 0.903D+00
 Coeff:     -0.302D-01 0.128D+00 0.903D+00
 Gap=     0.340 Goal=   None    Shift=    0.000
 RMSDP=5.07D-07 MaxDP=1.32D-05 DE=-4.09D-07 OVMax= 4.10D-05

 Cycle  10  Pass 1  IDiag  1:
 E= -268.309738200722     Delta-E=       -0.000000012950 Rises=F Damp=F
 DIIS: error= 1.52D-06 at cycle   4 NSaved=   4.
 NSaved= 4 IEnMin= 4 EnMin= -268.309738200722     IErMin= 4 ErrMin= 1.52D-06
 ErrMax= 1.52D-06  0.00D+00 EMaxC= 1.00D-01 BMatC= 9.57D-10 BMatP= 1.52D-08
 IDIUse=1 WtCom= 1.00D+00 WtEn= 0.00D+00
 Coeff-Com: -0.230D-01 0.457D-01 0.377D+00 0.600D+00
 Coeff:     -0.230D-01 0.457D-01 0.377D+00 0.600D+00
 Gap=     0.340 Goal=   None    Shift=    0.000
 RMSDP=9.52D-08 MaxDP=3.16D-06 DE=-1.29D-08 OVMax= 8.78D-06

 Cycle  11  Pass 1  IDiag  1:
 E= -268.309738201525     Delta-E=       -0.000000000802 Rises=F Damp=F
 DIIS: error= 4.16D-07 at cycle   5 NSaved=   5.
 NSaved= 5 IEnMin= 5 EnMin= -268.309738201525     IErMin= 5 ErrMin= 4.16D-07
 ErrMax= 4.16D-07  0.00D+00 EMaxC= 1.00D-01 BMatC= 8.33D-11 BMatP= 9.57D-10
 IDIUse=1 WtCom= 1.00D+00 WtEn= 0.00D+00
 Coeff-Com:  0.308D-03-0.133D-01-0.843D-01 0.148D+00 0.950D+00
 Coeff:      0.308D-03-0.133D-01-0.843D-01 0.148D+00 0.950D+00
 Gap=     0.340 Goal=   None    Shift=    0.000
 RMSDP=6.07D-08 MaxDP=1.16D-06 DE=-8.02D-10 OVMax= 6.61D-06

 Cycle  12  Pass 1  IDiag  1:
 E= -268.309738201642     Delta-E=       -0.000000000117 Rises=F Damp=F
 DIIS: error= 1.47D-07 at cycle   6 NSaved=   6.
 NSaved= 6 IEnMin= 6 EnMin= -268.309738201642     IErMin= 6 ErrMin= 1.47D-07
 ErrMax= 1.47D-07  0.00D+00 EMaxC= 1.00D-01 BMatC= 8.08D-12 BMatP= 8.33D-11
 IDIUse=1 WtCom= 1.00D+00 WtEn= 0.00D+00
 Coeff-Com:  0.185D-02-0.788D-02-0.576D-01 0.336D-02 0.332D+00 0.729D+00
 Coeff:      0.185D-02-0.788D-02-0.576D-01 0.336D-02 0.332D+00 0.729D+00
 Gap=     0.340 Goal=   None    Shift=    0.000
 RMSDP=1.54D-08 MaxDP=3.82D-07 DE=-1.17D-10 OVMax= 1.70D-06

 Cycle  13  Pass 1  IDiag  1:
 E= -268.309738201653     Delta-E=       -0.000000000012 Rises=F Damp=F
 DIIS: error= 4.31D-08 at cycle   7 NSaved=   7.
 NSaved= 7 IEnMin= 7 EnMin= -268.309738201653     IErMin= 7 ErrMin= 4.31D-08
 ErrMax= 4.31D-08  0.00D+00 EMaxC= 1.00D-01 BMatC= 1.01D-12 BMatP= 8.08D-12
 IDIUse=1 WtCom= 1.00D+00 WtEn= 0.00D+00
 Coeff-Com:  0.758D-03-0.196D-02-0.163D-01-0.148D-01 0.438D-01 0.280D+00
 Coeff-Com:  0.709D+00
 Coeff:      0.758D-03-0.196D-02-0.163D-01-0.148D-01 0.438D-01 0.280D+00
 Coeff:      0.709D+00
 Gap=     0.340 Goal=   None    Shift=    0.000
 RMSDP=5.27D-09 MaxDP=1.70D-07 DE=-1.18D-11 OVMax= 5.40D-07

 SCF Done:  E(RM062X) =  -268.309738202     A.U. after   13 cycles
            NFock= 13  Conv=0.53D-08     -V/T= 2.0061
 KE= 2.666924496703D+02 PE=-9.879795968933D+02 EE= 2.730507644812D+02
 Leave Link  502 at Sun Sep 29 06:07:16 2019, MaxMem=   671088640 cpu:             684.0 elap:             346.2
 (Enter /shared/centos7/gaussian/g16/l801.exe)
 DoSCS=F DFT=T ScalE2(SS,OS)=  1.000000  1.000000
 Range of M.O.s used for correlation:     1   234
 NBasis=   234 NAE=    20 NBE=    20 NFC=     0 NFV=     0
 NROrb=    234 NOA=    20 NOB=    20 NVA=   214 NVB=   214

 **** Warning!!: The largest alpha MO coefficient is  0.11432279D+02

 Leave Link  801 at Sun Sep 29 06:07:17 2019, MaxMem=   671088640 cpu:               1.6 elap:               0.8
 (Enter /shared/centos7/gaussian/g16/l1101.exe)
 Using compressed storage, NAtomX=    11.
 Will process     12 centers per pass.
 Leave Link 1101 at Sun Sep 29 06:07:40 2019, MaxMem=   671088640 cpu:              47.8 elap:              23.9
 (Enter /shared/centos7/gaussian/g16/l1102.exe)
 Symmetrizing basis deriv contribution to polar:
 IMax=3 JMax=2 DiffMx= 0.00D+00
 Leave Link 1102 at Sun Sep 29 06:07:43 2019, MaxMem=   671088640 cpu:               5.1 elap:               2.6
 (Enter /shared/centos7/gaussian/g16/l1110.exe)
 Forming Gx(P) for the SCF density, NAtomX=    11.
 Integral derivatives from FoFJK, PRISM(SPDF).
 Do as many integral derivatives as possible in FoFJK.
 G2DrvN: MDV=     671087712.
 G2DrvN: will do    12 centers at a time, making    1 passes.
 Calling FoFCou, ICntrl=  3107 FMM=F I1Cent=   0 AccDes= 0.00D+00.
 FoFJK:  IHMeth= 1 ICntrl=    3107 DoSepK=F KAlg= 0 I1Cent=           0 FoldK=F
 IRaf=         0 NMat=       1 IRICut=       1 DoRegI=T DoRafI=F ISym2E= 0 IDoP0=0 IntGTp=1.
 FoFCou: FMM=F IPFlag=           0 FMFlag=      100000 FMFlg1=           0
         NFxFlg=           0 DoJE=F BraDBF=F KetDBF=F FulRan=T
         wScrn=  0.000000 ICntrl=      3107 IOpCl=  0 I1Cent=           0 NGrid=           0
         NMat0=    1 NMatS0=      1 NMatT0=    0 NMatD0=    1 NMtDS0=    0 NMtDT0=    0
 Symmetry not used in FoFCou.
 End of G2Drv F.D. properties file   721 does not exist.
 End of G2Drv F.D. properties file   722 does not exist.
 End of G2Drv F.D. properties file   788 does not exist.
 Leave Link 1110 at Sun Sep 29 06:15:49 2019, MaxMem=   671088640 cpu:             971.4 elap:             485.8
 (Enter /shared/centos7/gaussian/g16/l1002.exe)
 Minotr:  Closed shell wavefunction.
          IDoAtm=11111111111
          Direct CPHF calculation.
          Differentiating once with respect to nuclear coordinates.
          Requested convergence is 1.0D-08 RMS, and 1.0D-07 maximum.
          Secondary convergence is 1.0D-12 RMS, and 1.0D-12 maximum.
          NewPWx=T KeepS1=F KeepF1=F KeepIn=T MapXYZ=F SortEE=F KeepMc=T.
         3265 words used for storage of precomputed grid.
 Keep R1 ints in memory in canonical form, NReq=399865264.
 FoFCou: FMM=F IPFlag=           0 FMFlag=           0 FMFlg1=           0
         NFxFlg=           0 DoJE=F BraDBF=F KetDBF=F FulRan=T
         wScrn=  0.000000 ICntrl=       600 IOpCl=  0 I1Cent=           0 NGrid=           0
         NMat0=    1 NMatS0=  27495 NMatT0=    0 NMatD0=    1 NMtDS0=    0 NMtDT0=    0
 Symmetry not used in FoFCou.
 Two-electron integral symmetry not used.
          MDV=     671088640 using IRadAn=       1.
          Solving linear equations simultaneously, MaxMat=       0.
          There are    36 degrees of freedom in the 1st order CPHF.  IDoFFX=6 NUNeed=     0.
     30 vectors produced by pass  0 Test12= 1.19D-14 2.78D-09 XBig12= 5.80D-02 6.31D-02.
 AX will form    30 AO Fock derivatives at one time.
     30 vectors produced by pass  1 Test12= 1.19D-14 2.78D-09 XBig12= 1.19D-02 2.43D-02.
     30 vectors produced by pass  2 Test12= 1.19D-14 2.78D-09 XBig12= 4.03D-04 4.44D-03.
     30 vectors produced by pass  3 Test12= 1.19D-14 2.78D-09 XBig12= 4.40D-06 2.58D-04.
     30 vectors produced by pass  4 Test12= 1.19D-14 2.78D-09 XBig12= 3.29D-08 2.09D-05.
     30 vectors produced by pass  5 Test12= 1.19D-14 2.78D-09 XBig12= 1.82D-10 1.71D-06.
     18 vectors produced by pass  6 Test12= 1.19D-14 2.78D-09 XBig12= 9.06D-13 1.28D-07.
      2 vectors produced by pass  7 Test12= 1.19D-14 2.78D-09 XBig12= 3.33D-15 7.32D-09.
 InvSVY:  IOpt=1 It=  1 EMax= 1.44D-15
 Solved reduced A of dimension   200 with    30 vectors.
 End of Minotr F.D. properties file   721 does not exist.
 End of Minotr F.D. properties file   722 does not exist.
 End of Minotr F.D. properties file   788 does not exist.
 Leave Link 1002 at Sun Sep 29 06:26:16 2019, MaxMem=   671088640 cpu:            1254.7 elap:             627.5
 (Enter /shared/centos7/gaussian/g16/l601.exe)
 Copying SCF densities to generalized density rwf, IOpCl= 0 IROHF=0.

 **********************************************************************

            Population analysis using the SCF density.

 **********************************************************************

 Orbital symmetries:
       Occupied  (A) (A) (A) (A) (A) (A) (A) (A) (A) (A) (A) (A)
                 (A) (A) (A) (A) (A) (A) (A) (A)
       Virtual   (A) (A) (A) (A) (A) (A) (A) (A) (A) (A) (A) (A)
                 (A) (A) (A) (A) (A) (A) (A) (A) (A) (A) (A) (A)
                 (A) (A) (A) (A) (A) (A) (A) (A) (A) (A) (A) (A)
                 (A) (A) (A) (A) (A) (A) (A) (A) (A) (A) (A) (A)
                 (A) (A) (A) (A) (A) (A) (A) (A) (A) (A) (A) (A)
                 (A) (A) (A) (A) (A) (A) (A) (A) (A) (A) (A) (A)
                 (A) (A) (A) (A) (A) (A) (A) (A) (A) (A) (A) (A)
                 (A) (A) (A) (A) (A) (A) (A) (A) (A) (A) (A) (A)
                 (A) (A) (A) (A) (A) (A) (A) (A) (A) (A) (A) (A)
                 (A) (A) (A) (A) (A) (A) (A) (A) (A) (A) (A) (A)
                 (A) (A) (A) (A) (A) (A) (A) (A) (A) (A) (A) (A)
                 (A) (A) (A) (A) (A) (A) (A) (A) (A) (A) (A) (A)
                 (A) (A) (A) (A) (A) (A) (A) (A) (A) (A) (A) (A)
                 (A) (A) (A) (A) (A) (A) (A) (A) (A) (A) (A) (A)
                 (A) (A) (A) (A) (A) (A) (A) (A) (A) (A) (A) (A)
                 (A) (A) (A) (A) (A) (A) (A) (A) (A) (A) (A) (A)
                 (A) (A) (A) (A) (A) (A) (A) (A) (A) (A) (A) (A)
                 (A) (A) (A) (A) (A) (A) (A) (A) (A) (A)
 The electronic state is 1-A.
 Alpha  occ. eigenvalues --  -19.65629 -19.65166 -10.60419 -10.59039 -10.57910
 Alpha  occ. eigenvalues --   -1.18672  -1.16077  -0.86109  -0.78662  -0.68706
 Alpha  occ. eigenvalues --   -0.60651  -0.58564  -0.54201  -0.52184  -0.48750
 Alpha  occ. eigenvalues --   -0.46897  -0.46270  -0.42358  -0.36577  -0.28710
 Alpha virt. eigenvalues --    0.05251   0.07334   0.09399   0.11229   0.12835
 Alpha virt. eigenvalues --    0.13588   0.13725   0.19175   0.20652   0.26134
 Alpha virt. eigenvalues --    0.28034   0.30581   0.32613   0.34752   0.35608
 Alpha virt. eigenvalues --    0.37991   0.39126   0.40602   0.42926   0.44148
 Alpha virt. eigenvalues --    0.46614   0.46927   0.48202   0.49935   0.51836
 Alpha virt. eigenvalues --    0.54452   0.57648   0.58085   0.60354   0.64779
 Alpha virt. eigenvalues --    0.65142   0.68664   0.70351   0.72507   0.77959
 Alpha virt. eigenvalues --    0.79916   0.80129   0.82922   0.84310   0.86565
 Alpha virt. eigenvalues --    0.87291   0.94312   0.97340   0.99981   1.03566
 Alpha virt. eigenvalues --    1.06093   1.06608   1.07391   1.09478   1.12891
 Alpha virt. eigenvalues --    1.13610   1.15330   1.18769   1.22999   1.24344
 Alpha virt. eigenvalues --    1.27345   1.29575   1.30519   1.32374   1.35906
 Alpha virt. eigenvalues --    1.36804   1.38350   1.42321   1.44782   1.52207
 Alpha virt. eigenvalues --    1.52896   1.53876   1.54231   1.63931   1.83431
 Alpha virt. eigenvalues --    1.91961   1.94698   1.95981   1.98916   2.03341
 Alpha virt. eigenvalues --    2.07360   2.08435   2.10089   2.14932   2.15098
 Alpha virt. eigenvalues --    2.21593   2.24392   2.27753   2.31645   2.35811
 Alpha virt. eigenvalues --    2.37086   2.41237   2.50236   2.52595   2.57293
 Alpha virt. eigenvalues --    2.62027   2.66420   2.68651   2.74998   2.77123
 Alpha virt. eigenvalues --    2.78496   2.80383   2.81466   2.83889   2.86387
 Alpha virt. eigenvalues --    2.88937   2.90923   2.94943   2.96616   2.98879
 Alpha virt. eigenvalues --    3.01855   3.02227   3.06022   3.07200   3.09229
 Alpha virt. eigenvalues --    3.10161   3.14336   3.17060   3.17967   3.19985
 Alpha virt. eigenvalues --    3.23623   3.26013   3.27124   3.28988   3.32286
 Alpha virt. eigenvalues --    3.32949   3.33753   3.35577   3.39145   3.40791
 Alpha virt. eigenvalues --    3.44998   3.45832   3.49892   3.51070   3.57256
 Alpha virt. eigenvalues --    3.61806   3.64187   3.67930   3.68424   3.70561
 Alpha virt. eigenvalues --    3.72176   3.75062   3.75562   3.77958   3.79831
 Alpha virt. eigenvalues --    3.82878   3.87261   3.91188   3.94418   3.95288
 Alpha virt. eigenvalues --    3.98436   3.99578   4.01409   4.06056   4.07835
 Alpha virt. eigenvalues --    4.09248   4.13039   4.19082   4.21762   4.28700
 Alpha virt. eigenvalues --    4.33581   4.37747   4.40633   4.43917   4.47941
 Alpha virt. eigenvalues --    4.50815   4.57127   4.62237   4.64311   4.70952
 Alpha virt. eigenvalues --    4.71370   4.75149   4.80658   4.83026   4.87371
 Alpha virt. eigenvalues --    4.92717   4.96777   4.97498   4.99536   5.02597
 Alpha virt. eigenvalues --    5.04485   5.09313   5.11893   5.15119   5.29965
 Alpha virt. eigenvalues --    5.36642   5.42593   5.48756   5.49867   5.59335
 Alpha virt. eigenvalues --    5.68568   5.71557   5.75289   5.79630   5.85621
 Alpha virt. eigenvalues --    5.95860   6.14509   6.20299   6.31988   6.33683
 Alpha virt. eigenvalues --    6.35879   6.52443   6.59684   6.70994   6.71635
 Alpha virt. eigenvalues --    6.74006   6.77589   6.81894   6.95931   7.03164
 Alpha virt. eigenvalues --    7.13303   7.20079   7.26608   7.31632   9.93301
 Alpha virt. eigenvalues --   10.74100  11.86291  12.85943  14.01679
          Condensed to atoms (all electrons):
               1          2          3          4          5          6
     1  O    7.854493   0.002023   0.312887   0.339397  -0.074194  -0.051143
     2  O    0.002023   7.783799  -0.005593  -0.072341   0.339976   0.001209
     3  C    0.312887  -0.005593   4.739437  -0.074680  -0.009804   0.371263
     4  C    0.339397  -0.072341  -0.074680   5.049398   0.490810  -0.048149
     5  C   -0.074194   0.339976  -0.009804   0.490810   4.980552   0.032083
     6  H   -0.051143   0.001209   0.371263  -0.048149   0.032083   0.785560
     7  H   -0.048914  -0.000438   0.394930   0.019523  -0.007588  -0.078929
     8  H   -0.028041   0.000311   0.401007   0.005325  -0.000399  -0.042005
     9  H   -0.047227   0.005094   0.003321   0.420139  -0.084511  -0.003356
    10  H    0.003897  -0.033723  -0.000569  -0.056741   0.402695  -0.000685
    11  H    0.012834   0.334864   0.000196  -0.000800  -0.062614  -0.022329
               7          8          9         10         11
     1  O   -0.048914  -0.028041  -0.047227   0.003897   0.012834
     2  O   -0.000438   0.000311   0.005094  -0.033723   0.334864
     3  C    0.394930   0.401007   0.003321  -0.000569   0.000196
     4  C    0.019523   0.005325   0.420139  -0.056741  -0.000800
     5  C   -0.007588  -0.000399  -0.084511   0.402695  -0.062614
     6  H   -0.078929  -0.042005  -0.003356  -0.000685  -0.022329
     7  H    0.640586  -0.027671   0.005667  -0.000080   0.003903
     8  H   -0.027671   0.567700  -0.000336   0.000061   0.000594
     9  H    0.005667  -0.000336   0.573637  -0.004451   0.001470
    10  H   -0.000080   0.000061  -0.004451   0.522126   0.006699
    11  H    0.003903   0.000594   0.001470   0.006699   0.452985
 Mulliken charges:
               1
     1  O   -0.276011
     2  O   -0.355180
     3  C   -0.132394
     4  C   -0.071880
     5  C   -0.007005
     6  H    0.056480
     7  H    0.099011
     8  H    0.123453
     9  H    0.130554
    10  H    0.160772
    11  H    0.272201
 Sum of Mulliken charges =  -0.00000
 Mulliken charges with hydrogens summed into heavy atoms:
               1
     1  O   -0.276011
     2  O   -0.082979
     3  C    0.146550
     4  C    0.058673
     5  C    0.153766
 APT charges:
               1
     1  O   -0.192738
     2  O   -0.313681
     3  C   -0.853142
     4  C   -0.468160
     5  C   -0.366968
     6  H    0.183808
     7  H    0.307576
     8  H    0.477632
     9  H    0.426013
    10  H    0.491558
    11  H    0.308102
 Sum of APT charges =  -0.00000
 APT charges with hydrogens summed into heavy atoms:
               1
     1  O   -0.192738
     2  O   -0.005579
     3  C    0.115874
     4  C   -0.042146
     5  C    0.124590
 Electronic spatial extent (au):  <R**2>=            419.6466
 Charge=             -0.0000 electrons
 Dipole moment (field-independent basis, Debye):
    X=             -0.9555    Y=             -0.4035    Z=              0.8046  Tot=              1.3127
 Quadrupole moment (field-independent basis, Debye-Ang):
   XX=            -31.1248   YY=            -28.5098   ZZ=            -31.8630
   XY=              4.5615   XZ=             -0.4491   YZ=              1.9989
 Traceless Quadrupole moment (field-independent basis, Debye-Ang):
   XX=             -0.6256   YY=              1.9894   ZZ=             -1.3638
   XY=              4.5615   XZ=             -0.4491   YZ=              1.9989
 Octapole moment (field-independent basis, Debye-Ang**2):
  XXX=             -3.8675  YYY=             -0.6828  ZZZ=             -2.3446  XYY=             -1.4293
  XXY=              1.7668  XXZ=              3.2914  XZZ=             -0.0648  YZZ=             -2.4788
  YYZ=             -1.1750  XYZ=              0.5548
 Hexadecapole moment (field-independent basis, Debye-Ang**3):
 XXXX=           -306.9375 YYYY=           -146.5617 ZZZZ=            -53.9471 XXXY=             14.4397
 XXXZ=              8.0867 YYYX=             -5.6863 YYYZ=              5.4650 ZZZX=             -0.8577
 ZZZY=              0.4676 XXYY=            -83.8178 XXZZ=            -62.4772 YYZZ=            -36.1975
 XXYZ=              3.2488 YYXZ=              0.8529 ZZXY=             -1.9736
 N-N= 1.799266445402D+02 E-N=-9.879795877178D+02  KE= 2.666924496703D+02
  Exact polarizability:   0.000   0.000   0.000   0.000   0.000   0.000
 Approx polarizability:  61.875  -4.589  53.178   2.265   1.410  41.303
 No NMR shielding tensors so no spin-rotation constants.
 Leave Link  601 at Sun Sep 29 06:26:46 2019, MaxMem=   671088640 cpu:              59.4 elap:              29.7
 (Enter /shared/centos7/gaussian/g16/l701.exe)
 SCFChk:  SCF convergence  5.27D-09 required  1.00D-08
 ... and contract with generalized density number  0.
 Compute integral second derivatives.
 Entering OneElI...
 Calculate overlap and kinetic energy integrals
    NBasis = 265  MinDer = 2  MaxDer = 2
 Requested accuracy = 0.1000D-12
 PrmmSu-InSpLW:  IPartL=    0 NPrtUS=   20 NPrtUL=    1 DoSpLW=F IThBeg=    0 IThEnd=   19 NThAct=   20.
 PrsmSu:  NPrtUS=  20 ThrOK=T IAlg=1 NPAlg=1 LenDen=           0 ISkipM=0 DoSpLW=F IThBeg=    0 IThEnd=   19.
 Prism:   IPart=     0 DynPar=F LinDyn=F Incr=           1.
 PRISM was handed    33437896 working-precision words and  3740 shell-pairs
 PRISM was handed    33437896 working-precision words and  3740 shell-pairs
 PRISM was handed    33437896 working-precision words and  3740 shell-pairs
 PRISM was handed    33437896 working-precision words and  3740 shell-pairs
 PRISM was handed    33437896 working-precision words and  3740 shell-pairs
 PRISM was handed    33437896 working-precision words and  3740 shell-pairs
 PRISM was handed    33437896 working-precision words and  3740 shell-pairs
 PRISM was handed    33437896 working-precision words and  3740 shell-pairs
 PRISM was handed    33437896 working-precision words and  3740 shell-pairs
 PRISM was handed    33437896 working-precision words and  3740 shell-pairs
 PRISM was handed    33437896 working-precision words and  3740 shell-pairs
 PRISM was handed    33437896 working-precision words and  3740 shell-pairs
 PRISM was handed    33437896 working-precision words and  3740 shell-pairs
 PRISM was handed    33437896 working-precision words and  3740 shell-pairs
 PRISM was handed    33437896 working-precision words and  3740 shell-pairs
 IPart= 14 NShTot=         173 NBatch=          27 AvBLen=         6.4
 PRISM was handed    33437896 working-precision words and  3740 shell-pairs
 PRISM was handed    33437896 working-precision words and  3740 shell-pairs
 PRISM was handed    33437896 working-precision words and  3740 shell-pairs
 PRISM was handed    33437896 working-precision words and  3740 shell-pairs
 IPart=  0 NShTot=         226 NBatch=          66 AvBLen=         3.4
 IPart=  8 NShTot=         185 NBatch=          30 AvBLen=         6.2
 PRISM was handed    33437896 working-precision words and  3740 shell-pairs
 IPart=  1 NShTot=         223 NBatch=          63 AvBLen=         3.5
 IPart= 18 NShTot=         168 NBatch=          26 AvBLen=         6.5
 IPart=  3 NShTot=         207 NBatch=          48 AvBLen=         4.3
 IPart= 19 NShTot=         167 NBatch=          26 AvBLen=         6.4
 IPart= 15 NShTot=         169 NBatch=          26 AvBLen=         6.5
 IPart=  6 NShTot=         194 NBatch=          39 AvBLen=         5.0
 IPart=  9 NShTot=         185 NBatch=          30 AvBLen=         6.2
 IPart= 13 NShTot=         173 NBatch=          27 AvBLen=         6.4
 IPart= 16 NShTot=         168 NBatch=          26 AvBLen=         6.5
 IPart= 17 NShTot=         168 NBatch=          26 AvBLen=         6.5
 IPart=  7 NShTot=         190 NBatch=          35 AvBLen=         5.4
 IPart= 12 NShTot=         175 NBatch=          28 AvBLen=         6.3
 IPart= 11 NShTot=         178 NBatch=          28 AvBLen=         6.4
 IPart=  2 NShTot=         212 NBatch=          53 AvBLen=         4.0
 IPart=  4 NShTot=         205 NBatch=          46 AvBLen=         4.5
 IPart= 10 NShTot=         178 NBatch=          28 AvBLen=         6.4
 IPart=  5 NShTot=         196 NBatch=          40 AvBLen=         4.9
 PrSmSu:  NxtVal=             21.
 Entering OneElI...
 Calculate potential energy integrals
    NBasis = 265  MinDer = 2  MaxDer = 2
 Requested accuracy = 0.1000D-12
 PrmmSu-InSpLW:  IPartL=    0 NPrtUS=   20 NPrtUL=    1 DoSpLW=F IThBeg=    0 IThEnd=   19 NThAct=   20.
 PrsmSu:  NPrtUS=  20 ThrOK=T IAlg=1 NPAlg=1 LenDen=           0 ISkipM=0 DoSpLW=F IThBeg=    0 IThEnd=   19.
 Prism:   IPart=     0 DynPar=F LinDyn=F Incr=          19.
 PRISM was handed    33454040 working-precision words and  3611 shell-pairs
 PRISM was handed    33454040 working-precision words and  3611 shell-pairs
 PRISM was handed    33454040 working-precision words and  3611 shell-pairs
 PRISM was handed    33454040 working-precision words and  3611 shell-pairs
 PRISM was handed    33454040 working-precision words and  3611 shell-pairs
 PRISM was handed    33454040 working-precision words and  3611 shell-pairs
 PRISM was handed    33454040 working-precision words and  3611 shell-pairs
 PRISM was handed    33454040 working-precision words and  3611 shell-pairs
 PRISM was handed    33454040 working-precision words and  3611 shell-pairs
 PRISM was handed    33454040 working-precision words and  3611 shell-pairs
 PRISM was handed    33454040 working-precision words and  3611 shell-pairs
 PRISM was handed    33454040 working-precision words and  3611 shell-pairs
 PRISM was handed    33454040 working-precision words and  3611 shell-pairs
 PRISM was handed    33454040 working-precision words and  3611 shell-pairs
 PRISM was handed    33454040 working-precision words and  3611 shell-pairs
 PRISM was handed    33454040 working-precision words and  3611 shell-pairs
 PRISM was handed    33454040 working-precision words and  3611 shell-pairs
 PRISM was handed    33454040 working-precision words and  3611 shell-pairs
 PRISM was handed    33454040 working-precision words and  3611 shell-pairs
 PRISM was handed    33454040 working-precision words and  3611 shell-pairs
 IPart=  5 NShTot=        2046 NBatch=         186 AvBLen=        11.0
 IPart=  2 NShTot=        2277 NBatch=         207 AvBLen=        11.0
 IPart= 12 NShTot=        1848 NBatch=         168 AvBLen=        11.0
 IPart= 17 NShTot=        1815 NBatch=         165 AvBLen=        11.0
 IPart=  7 NShTot=        1969 NBatch=         179 AvBLen=        11.0
 IPart=  8 NShTot=        1958 NBatch=         178 AvBLen=        11.0
 IPart= 10 NShTot=        1881 NBatch=         171 AvBLen=        11.0
 IPart=  3 NShTot=        2189 NBatch=         199 AvBLen=        11.0
 IPart= 18 NShTot=        1804 NBatch=         164 AvBLen=        11.0
 IPart=  4 NShTot=        2156 NBatch=         196 AvBLen=        11.0
 IPart= 11 NShTot=        1870 NBatch=         170 AvBLen=        11.0
 IPart= 14 NShTot=        1848 NBatch=         168 AvBLen=        11.0
 IPart= 19 NShTot=        1782 NBatch=         162 AvBLen=        11.0
 IPart=  0 NShTot=        2431 NBatch=         221 AvBLen=        11.0
 IPart= 13 NShTot=        1848 NBatch=         168 AvBLen=        11.0
 IPart= 15 NShTot=        1837 NBatch=         167 AvBLen=        11.0
 IPart=  1 NShTot=        2398 NBatch=         218 AvBLen=        11.0
 IPart=  9 NShTot=        1925 NBatch=         175 AvBLen=        11.0
 IPart= 16 NShTot=        1826 NBatch=         166 AvBLen=        11.0
 IPart=  6 NShTot=        2013 NBatch=         183 AvBLen=        11.0
 PrSmSu:  NxtVal=            381.
 Polarizability after L701:
                1             2             3 
      1  0.000000D+00
      2  0.000000D+00  0.000000D+00
      3  0.000000D+00  0.000000D+00  0.000000D+00
 Dipole Derivatives after L701:
                 1             2             3             4             5 
      1  -0.180931D+00 -0.681731D-01  0.105516D+00  0.830618D-01 -0.234908D+00
      2  -0.135690D+00 -0.234542D+00 -0.588387D-01 -0.648603D+00 -0.485760D+00
      3   0.131037D+00 -0.997469D-02 -0.162742D+00 -0.263158D+00 -0.170436D+00
                 6             7             8             9            10 
      1   0.520594D-01 -0.964868D+00 -0.332666D+00  0.209087D+00 -0.486918D+00
      2  -0.245559D+00 -0.383880D-01 -0.807144D+00  0.261360D-01 -0.471573D-01
      3  -0.538345D+00  0.768094D-01  0.254739D-01 -0.787414D+00 -0.207782D+00
                11            12            13            14            15 
      1   0.172887D+00 -0.224758D+00 -0.656536D+00 -0.163709D+00 -0.234561D+00
      2  -0.748423D+00 -0.340026D+00  0.520638D-01 -0.523141D+00  0.298243D-01
      3  -0.293833D+00 -0.169139D+00 -0.155675D+00 -0.293545D-01  0.787716D-01
                16            17            18            19            20 
      1  -0.193225D-01  0.158476D+00 -0.510871D-01  0.176300D+00 -0.115696D+00
      2  -0.314342D+00  0.428015D+00  0.437128D-01  0.377527D-02  0.138171D+00
      3  -0.317497D-01 -0.390389D-01  0.142731D+00 -0.929507D-01  0.108007D+00
                21            22            23            24            25 
      1  -0.579052D+00  0.100569D+01  0.344425D+00  0.419923D+00  0.180194D+00
      2  -0.107676D+00  0.324867D+00  0.264187D+00  0.129506D+00 -0.544022D-01
      3   0.608258D+00  0.877294D-01 -0.151209D-02  0.163014D+00 -0.571739D-03
                26            27            28            29            30 
      1  -0.216991D-01  0.554893D-02  0.913234D+00  0.418872D+00  0.370767D+00
      2   0.101307D+01  0.162139D+00  0.293576D+00  0.358773D+00  0.170609D+00
      3   0.153743D+00  0.847795D-01  0.206030D+00  0.137034D+00  0.202666D+00
                31            32            33 
      1  -0.499104D-01 -0.157808D+00 -0.734439D-01
      2   0.564301D+00  0.596797D+00  0.190173D+00
      3   0.250281D+00  0.119892D+00  0.377420D+00
 Hessian after L701:
                1             2             3             4             5 
      1  0.641360D+01
      2 -0.428045D+01  0.901597D+01
      3 -0.159480D+01  0.177577D+01  0.126247D+02
      4  0.602266D+00 -0.563883D+00  0.161897D+00  0.829841D+01
      5 -0.483730D+00 -0.127756D+00 -0.685084D-01  0.567557D+00  0.488114D+01
      6  0.193737D+00 -0.100030D+00 -0.394639D+00 -0.133047D+01 -0.274718D+01
      7 -0.632494D+01  0.253748D+01 -0.123767D+01  0.485210D+00 -0.402769D-01
      8  0.234773D+01 -0.206689D+01 -0.339456D+01 -0.175596D+00 -0.261131D+00
      9 -0.113509D+01 -0.332718D+01 -0.537167D+01 -0.112227D+00 -0.572387D-02
     10 -0.185389D+01  0.331805D+01  0.276568D+01  0.292704D+00 -0.261941D+00
     11  0.353722D+01 -0.667405D+01  0.106999D+01 -0.179283D+00 -0.102977D+00
     12  0.262055D+01  0.100120D+01 -0.702273D+01 -0.203231D+00 -0.758055D-01
     13  0.598194D+00 -0.358999D+00 -0.237494D+00 -0.785230D+01 -0.129629D+01
     14 -0.452508D+00 -0.111248D+00 -0.120101D+00 -0.158420D+01  0.282936D+00
     15 -0.164555D+00 -0.736658D-01 -0.779172D-02 -0.210654D+00  0.204739D+01
     16  0.264202D+00 -0.279317D+00  0.351535D-01  0.130938D-01 -0.245064D-01
     17 -0.217475D+00  0.730154D-01  0.400947D+00  0.432764D-01 -0.675055D-01
     18 -0.715445D-02  0.335075D+00 -0.633929D-01  0.728323D-01  0.128718D-01
     19  0.105064D+00 -0.114560D+00  0.557481D-02  0.418877D-01 -0.802157D-02
     20 -0.791059D-01 -0.116832D+00  0.252844D+00 -0.802573D-02 -0.211679D-01
     21 -0.192451D-01  0.255566D+00  0.248697D+00 -0.736018D-01  0.752599D-02
     22  0.189016D+00  0.314702D-01  0.820004D-01  0.771831D-01  0.821748D-03
     23  0.907186D-02 -0.977167D-01  0.898992D-01  0.170257D-01 -0.158021D-01
     24  0.119211D+00  0.127962D+00 -0.131475D-01  0.136000D-01 -0.333505D-03
     25 -0.104731D+00 -0.230664D+00 -0.666636D-01 -0.131764D-01 -0.670090D-01
     26 -0.242951D+00  0.710178D-01  0.138654D-01 -0.107810D+00  0.145578D+00
     27 -0.750070D-01 -0.121359D-01  0.131145D+00 -0.232868D-01  0.298843D-01
     28  0.143981D+00  0.322921D-01  0.561172D-01  0.139841D+00  0.118358D-01
     29  0.526439D-01 -0.341374D-01  0.137861D-01 -0.197825D-01 -0.186864D+00
     30  0.684832D-01  0.865186D-02 -0.124297D-01  0.147529D-01 -0.754687D-01
     31 -0.327675D-01 -0.914174D-01  0.301991D-01 -0.208512D+01  0.160156D+01
     32 -0.190437D+00  0.686216D-01 -0.339331D-01  0.201072D+01 -0.452644D+01
     33 -0.613344D-02  0.879008D-02 -0.118766D+00  0.169039D+01  0.875350D+00
                6             7             8             9            10 
      6  0.133021D+02
      7 -0.686550D-01  0.134852D+02
      8  0.174399D-04 -0.206171D+01  0.105748D+02
      9 -0.266294D+00  0.129448D+01  0.263974D+01  0.138873D+02
     10 -0.262532D+00  0.132221D+00  0.337918D+00 -0.109034D+00  0.767554D+01
     11 -0.236333D-01  0.263283D+00  0.239507D+00 -0.543031D-01  0.441499D+00
     12  0.168866D+00 -0.947532D-01 -0.313412D-01 -0.367209D-01 -0.405020D+01
     13 -0.103092D+00  0.222662D+00  0.146616D+00 -0.452102D-01 -0.235398D+01
     14  0.197753D+01  0.138552D+00 -0.152317D+00 -0.100610D-01 -0.370010D+01
     15 -0.773845D+01 -0.630534D-01  0.550310D-02 -0.151904D+00  0.190300D+01
     16  0.884753D-01 -0.270830D+01 -0.120093D+01 -0.507875D-01  0.505876D-01
     17  0.275947D-01 -0.150352D+01 -0.174103D+01  0.913281D-01 -0.116605D+00
     18 -0.984506D-01 -0.209459D-01  0.309778D-01 -0.362508D+01 -0.872918D-02
     19 -0.380325D-01 -0.341116D+01 -0.118494D+00 -0.524606D+00  0.601528D-01
     20  0.511487D-02 -0.679054D-01 -0.340640D+01  0.337053D+00  0.704315D-01
     21  0.721680D-02 -0.383727D+00  0.473139D+00 -0.108017D+01 -0.127612D+00
     22  0.963330D-02 -0.189368D+01  0.658300D+00  0.700581D+00  0.908368D-01
     23  0.372465D-03  0.699271D+00 -0.326188D+01  0.301165D+00  0.876682D-01
     24 -0.167895D-01  0.629531D+00  0.250436D+00 -0.326851D+01  0.215176D-01
     25 -0.189256D-01 -0.139438D-01  0.497344D-01 -0.628872D-03 -0.380331D+01
     26  0.336569D-01  0.692363D-01  0.114806D+00  0.918607D-02 -0.143568D+00
     27 -0.337147D-01  0.558064D-02  0.104702D-01 -0.443556D-01 -0.191864D-01
     28  0.185133D-01  0.235447D-01  0.119393D-01  0.652326D-02 -0.283421D+00
     29 -0.958880D-01  0.193800D-01 -0.629797D-02  0.502722D-02  0.321504D-01
     30  0.290817D-01  0.666454D-02  0.154312D-02 -0.106472D-01 -0.784114D-01
     31  0.151135D+01  0.321225D-02  0.449351D-02 -0.239964D-01 -0.744039D-02
     32  0.922450D+00 -0.537898D-01 -0.331477D-01  0.137673D-01 -0.655097D-01
     33 -0.495888D+01 -0.674504D-01  0.140748D-01 -0.319324D-01 -0.344968D-01
               11            12            13            14            15 
     11  0.147877D+02
     12 -0.179443D+01  0.220279D+02
     13 -0.407397D+01  0.190257D+01  0.114369D+02
     14 -0.688092D+01  0.376626D+00  0.417391D+01  0.101559D+02
     15  0.273704D+00 -0.116269D+02 -0.224373D+01 -0.250133D+01  0.227895D+02
     16 -0.135930D+00 -0.233230D-01  0.546078D-01  0.218787D+00 -0.686081D-01
     17 -0.119930D+00 -0.667315D-01  0.275844D+00  0.141547D+00 -0.643906D-01
     18 -0.202997D-01  0.106987D+00 -0.546118D-01 -0.467116D-01 -0.120189D+00
     19  0.838257D-01 -0.818404D-01 -0.170845D-01 -0.995956D-02  0.408912D-01
     20 -0.652963D-01 -0.260613D-01 -0.156060D-01 -0.764271D-02  0.150892D-01
     21 -0.647350D-01 -0.174419D-01  0.224830D-01  0.131287D-01 -0.244867D-01
     22  0.897602D-01  0.210117D-01  0.301426D-01  0.814914D-02  0.976477D-02
     23  0.222716D-01  0.156828D-01  0.166359D-01 -0.125394D-01  0.255390D-02
     24  0.154727D-01 -0.369842D-01  0.129864D-01  0.203191D-02 -0.754723D-02
     25 -0.100367D+00 -0.908221D-02  0.561682D-01  0.318139D+00  0.730288D-01
     26 -0.127364D+01  0.560621D+00  0.375224D+00 -0.230522D+00 -0.906586D-01
     27  0.561285D+00 -0.370248D+01  0.845973D-01 -0.766581D-01  0.228433D+00
     28  0.549786D-01 -0.704436D-01 -0.229706D+01  0.871421D+00  0.710466D+00
     29  0.184933D+00  0.257231D-01  0.899059D+00 -0.327875D+01  0.417490D+00
     30  0.238410D-01  0.131390D+00  0.704885D+00  0.404044D+00 -0.345875D+01
     31  0.189865D-01 -0.112614D-01  0.121754D+00  0.178095D-01  0.134508D-01
     32 -0.117605D+00  0.145200D-01 -0.142420D+00  0.935545D-01 -0.316824D-01
     33  0.131084D-01  0.818806D-02 -0.433817D-01 -0.184935D-01  0.118111D+00
               16            17            18            19            20 
     16  0.244015D+01
     17  0.118053D+01  0.162853D+01
     18 -0.111052D+00 -0.115192D+00  0.369021D+01
     19  0.940015D-01  0.219730D+00  0.211929D+00  0.305611D+01
     20  0.154059D+00  0.111905D-01 -0.228310D+00 -0.471060D-01  0.352380D+01
     21  0.198365D+00 -0.299775D+00 -0.207378D-01  0.528885D+00 -0.279317D+00
     22 -0.218965D+00  0.139980D+00 -0.788303D-01  0.477760D-01 -0.320795D-01
     23  0.109376D+00  0.105870D+00  0.297811D-01 -0.390079D-01  0.533467D-01
     24 -0.559695D-01  0.287417D-01  0.116845D+00 -0.105873D+00 -0.669662D-01
     25  0.363780D-02 -0.105916D-01  0.419489D-03  0.692630D-02  0.312638D-01
     26 -0.166888D-01 -0.342859D-01  0.129364D-02  0.446031D-01  0.375677D-01
     27 -0.128360D-02 -0.271097D-02  0.604239D-02 -0.128052D-01 -0.170172D-01
     28 -0.677780D-02  0.900011D-03  0.837030D-03  0.552242D-02  0.595698D-03
     29 -0.530863D-02  0.830104D-03  0.682189D-03  0.338682D-02 -0.749527D-03
     30 -0.212057D-02  0.200379D-02  0.242991D-03  0.416139D-03 -0.837245D-04
     31  0.137613D-01 -0.120661D-01 -0.469461D-02  0.108050D-01 -0.652141D-02
     32 -0.703797D-04  0.176185D-02 -0.168959D-03 -0.143958D-01 -0.781129D-02
     33 -0.885000D-02 -0.181579D-02  0.752729D-02 -0.245390D-01  0.765463D-02
               21            22            23            24            25 
     21  0.993697D+00
     22 -0.105032D+00  0.166759D+01
     23 -0.797864D-01 -0.900384D+00  0.320711D+01
     24 -0.109105D+00 -0.636569D+00 -0.361425D+00  0.333999D+01
     25 -0.178465D-01 -0.504996D-03 -0.116861D-02  0.138282D-02  0.390016D+01
     26 -0.390673D-01  0.794030D-02  0.341829D-02  0.391362D-02 -0.324428D-02
     27 -0.793822D-02  0.137923D-02  0.284634D-03 -0.537924D-03  0.410719D-01
     28 -0.715120D-02  0.883176D-02  0.418193D-02  0.295325D-02 -0.243110D-01
     29 -0.389995D-02  0.500428D-02  0.156782D-02  0.136191D-02  0.191890D-01
     30 -0.295202D-02  0.302092D-02  0.114806D-02  0.174471D-03 -0.944128D-03
     31 -0.155174D-01  0.177075D-02 -0.266919D-02 -0.276983D-02 -0.691751D-02
     32  0.172225D-01 -0.896183D-02 -0.564653D-02 -0.119469D-02 -0.528058D-02
     33  0.132172D-01 -0.695942D-02  0.324465D-03 -0.439187D-02 -0.181216D-02
               26            27            28            29            30 
     26  0.114267D+01
     27 -0.505447D+00  0.342574D+01
     28  0.113614D-01 -0.174969D-02  0.226638D+01
     29 -0.675872D-02  0.373196D-02 -0.106305D+01  0.327929D+01
     30 -0.167350D-03  0.118433D-02 -0.748495D+00 -0.405554D+00  0.332321D+01
     31  0.589631D-02  0.689744D-03  0.234682D-01  0.573285D-01  0.317481D-01
     32  0.301503D-01  0.831295D-02  0.635450D-01  0.469303D-01  0.400414D-01
     33  0.128032D-01 -0.352024D-02  0.324290D-01  0.375389D-01 -0.504436D-03
               31            32            33 
     31  0.195747D+01
     32 -0.159340D+01  0.444964D+01
     33 -0.152920D+01 -0.949335D+00  0.497095D+01
 Leave Link  701 at Sun Sep 29 06:27:08 2019, MaxMem=   671088640 cpu:              44.1 elap:              22.1
 (Enter /shared/centos7/gaussian/g16/l702.exe)
 L702 exits ... SP integral derivatives will be done elsewhere.
 Leave Link  702 at Sun Sep 29 06:27:09 2019, MaxMem=   671088640 cpu:               2.3 elap:               1.2
 (Enter /shared/centos7/gaussian/g16/l703.exe)
 Integral derivatives from FoFJK, PRISM(SPDF).
 Compute integral second derivatives, UseDBF=F ICtDFT=           0.
 ICntrl=    100147.
 Calling FoFJK, ICntrl=    100147 FMM=F ISym2X=0 I1Cent= 0 IOpClX= 0 NMat=1 NMatS=1 NMatT=0.
 FoFJK:  IHMeth= 1 ICntrl=  100147 DoSepK=F KAlg= 0 I1Cent=           0 FoldK=F
 IRaf=         0 NMat=       1 IRICut=       1 DoRegI=T DoRafI=F ISym2E= 0 IDoP0=0 IntGTp=1.
 FoFCou: FMM=F IPFlag=           0 FMFlag=      100000 FMFlg1=         800
         NFxFlg=           0 DoJE=F BraDBF=F KetDBF=F FulRan=T
         wScrn=  0.000000 ICntrl=    100147 IOpCl=  0 I1Cent=           0 NGrid=           0
         NMat0=    1 NMatS0=      1 NMatT0=    0 NMatD0=    1 NMtDS0=    0 NMtDT0=    0
 Symmetry not used in FoFCou.
 FoFCou:  KetSym=F NOpSet=  1 NOpAb=1 NOp=  1.
 FoFCou:  CnvScl= 1.00D+00 Thresh= 1.00D-08 IAcrcy=      12.
 PrismS was handed   670737913 working-precision words and  3700 shell-pairs
 FoFCou: LinMIO=F DoNuc=F BraDBF=F KetDBF=F HaveP=T PDBF=F HaveZ=T HaveW=F
         NIJTC =      10 NIJTAt=       0 NIJTCD=       0 NIJTT =      10
         IJTBeg=       1 IJTEnd=      10 KLTBeg=       1 KLTEnd=      10
         IPTBeg=       1 IPTEnd=      10 IPTBCv=       1 IPTECv=      10
         IZTBeg=       1 IZTEnd=      10 IZTBCv=       1 IZTECv=      10
         IWTBeg=      11 IWTEnd=      10 IWTBCv=      11 IWTECv=      10
         INTBeg=       1 INTEnd=       0 IFTBCv=       1 IFTECv=      10
 NCel replicated for PrismC:     1
 CoulSu-InSpLW:  IPartL=    0 NPrtUS=   20 NPrtUL=    1 DoSpLW=F IThBeg=    0 IThEnd=   19 NThAct=   20.
 CoulSu:  IncDef=  1024 NBBP=        6846850 NTPThr=   100 NPartT=   20 Incr=        1024 LDynOK=F GPUOK=T.
 CoulSu:  NPrtUS=  20 ThrOK=T IAlg=1 NPAlg=1 LenDen=           0 LWGrdD=           0 DoCopy=F ISkipM=0
          DoSpLW=F IThBeg=    0 IThEnd=   19.
 Enter PrismC:  IPart=  0 JobTyp=22 DoJE=F Cont=F.
 PrismC:  IPart=     0 DynPar=T LinDyn=F Incr=        1024 UseFst=F UseS4=T ISplat=2.
 PrismC was handed    33454980 working-precision words and  3700 shell-pairs
 Enter PrismC:  IPart=  8 JobTyp=22 DoJE=F Cont=F.
 PrismC:  IPart=     8 DynPar=T LinDyn=F Incr=        1024 UseFst=F UseS4=T ISplat=2.
 PrismC was handed    33454980 working-precision words and  3700 shell-pairs
 Enter PrismC:  IPart=  2 JobTyp=22 DoJE=F Cont=F.
 PrismC:  IPart=     2 DynPar=T LinDyn=F Incr=        1024 UseFst=F UseS4=T ISplat=2.
 PrismC was handed    33454980 working-precision words and  3700 shell-pairs
 Enter PrismC:  IPart= 12 JobTyp=22 DoJE=F Cont=F.
 PrismC:  IPart=    12 DynPar=T LinDyn=F Incr=        1024 UseFst=F UseS4=T ISplat=2.
 PrismC was handed    33454980 working-precision words and  3700 shell-pairs
 Enter PrismC:  IPart= 11 JobTyp=22 DoJE=F Cont=F.
 PrismC:  IPart=    11 DynPar=T LinDyn=F Incr=        1024 UseFst=F UseS4=T ISplat=2.
 PrismC was handed    33454980 working-precision words and  3700 shell-pairs
 Enter PrismC:  IPart= 16 JobTyp=22 DoJE=F Cont=F.
 PrismC:  IPart=    16 DynPar=T LinDyn=F Incr=        1024 UseFst=F UseS4=T ISplat=2.
 PrismC was handed    33454980 working-precision words and  3700 shell-pairs
 Enter PrismC:  IPart= 15 JobTyp=22 DoJE=F Cont=F.
 PrismC:  IPart=    15 DynPar=T LinDyn=F Incr=        1024 UseFst=F UseS4=T ISplat=2.
 PrismC was handed    33454980 working-precision words and  3700 shell-pairs
 Enter PrismC:  IPart=  6 JobTyp=22 DoJE=F Cont=F.
 PrismC:  IPart=     6 DynPar=T LinDyn=F Incr=        1024 UseFst=F UseS4=T ISplat=2.
 PrismC was handed    33454980 working-precision words and  3700 shell-pairs
 Enter PrismC:  IPart=  1 JobTyp=22 DoJE=F Cont=F.
 PrismC:  IPart=     1 DynPar=T LinDyn=F Incr=        1024 UseFst=F UseS4=T ISplat=2.
 PrismC was handed    33454980 working-precision words and  3700 shell-pairs
 Enter PrismC:  IPart= 14 JobTyp=22 DoJE=F Cont=F.
 PrismC:  IPart=    14 DynPar=T LinDyn=F Incr=        1024 UseFst=F UseS4=T ISplat=2.
 PrismC was handed    33454980 working-precision words and  3700 shell-pairs
 Enter PrismC:  IPart= 19 JobTyp=22 DoJE=F Cont=F.
 PrismC:  IPart=    19 DynPar=T LinDyn=F Incr=        1024 UseFst=F UseS4=T ISplat=2.
 PrismC was handed    33454980 working-precision words and  3700 shell-pairs
 Enter PrismC:  IPart=  5 JobTyp=22 DoJE=F Cont=F.
 PrismC:  IPart=     5 DynPar=T LinDyn=F Incr=        1024 UseFst=F UseS4=T ISplat=2.
 PrismC was handed    33454980 working-precision words and  3700 shell-pairs
 Enter PrismC:  IPart=  9 JobTyp=22 DoJE=F Cont=F.
 PrismC:  IPart=     9 DynPar=T LinDyn=F Incr=        1024 UseFst=F UseS4=T ISplat=2.
 PrismC was handed    33454980 working-precision words and  3700 shell-pairs
 Enter PrismC:  IPart=  3 JobTyp=22 DoJE=F Cont=F.
 PrismC:  IPart=     3 DynPar=T LinDyn=F Incr=        1024 UseFst=F UseS4=T ISplat=2.
 PrismC was handed    33454980 working-precision words and  3700 shell-pairs
 Enter PrismC:  IPart= 18 JobTyp=22 DoJE=F Cont=F.
 PrismC:  IPart=    18 DynPar=T LinDyn=F Incr=        1024 UseFst=F UseS4=T ISplat=2.
 PrismC was handed    33454980 working-precision words and  3700 shell-pairs
 Enter PrismC:  IPart= 13 JobTyp=22 DoJE=F Cont=F.
 PrismC:  IPart=    13 DynPar=T LinDyn=F Incr=        1024 UseFst=F UseS4=T ISplat=2.
 PrismC was handed    33454980 working-precision words and  3700 shell-pairs
 Enter PrismC:  IPart= 17 JobTyp=22 DoJE=F Cont=F.
 PrismC:  IPart=    17 DynPar=T LinDyn=F Incr=        1024 UseFst=F UseS4=T ISplat=2.
 PrismC was handed    33454980 working-precision words and  3700 shell-pairs
 Enter PrismC:  IPart= 10 JobTyp=22 DoJE=F Cont=F.
 PrismC:  IPart=    10 DynPar=T LinDyn=F Incr=        1024 UseFst=F UseS4=T ISplat=2.
 PrismC was handed    33454980 working-precision words and  3700 shell-pairs
 Enter PrismC:  IPart=  4 JobTyp=22 DoJE=F Cont=F.
 PrismC:  IPart=     4 DynPar=T LinDyn=F Incr=        1024 UseFst=F UseS4=T ISplat=2.
 PrismC was handed    33454980 working-precision words and  3700 shell-pairs
 Enter PrismC:  IPart=  7 JobTyp=22 DoJE=F Cont=F.
 PrismC:  IPart=     7 DynPar=T LinDyn=F Incr=        1024 UseFst=F UseS4=T ISplat=2.
 PrismC was handed    33454980 working-precision words and  3700 shell-pairs
 IPart= 19 NShTot=      320423 NShNF=      320423 NShFF=           0 MinMC=       7
           NShCPU=      320423 NBCPU=       13294 AvBCPU=        24.1
           NShGPU=           0 NBGPU=           0 AvBGPU=         0.0
 IPart= 13 NShTot=      199656 NShNF=      199656 NShFF=           0 MinMC=       7
           NShCPU=      199656 NBCPU=        8573 AvBCPU=        23.3
           NShGPU=           0 NBGPU=           0 AvBGPU=         0.0
 IPart= 15 NShTot=      202900 NShNF=      202900 NShFF=           0 MinMC=       7
           NShCPU=      202900 NBCPU=        8585 AvBCPU=        23.6
           NShGPU=           0 NBGPU=           0 AvBGPU=         0.0
 IPart= 18 NShTot=      316820 NShNF=      316820 NShFF=           0 MinMC=       7
           NShCPU=      316820 NBCPU=       13275 AvBCPU=        23.9
           NShGPU=           0 NBGPU=           0 AvBGPU=         0.0
 IPart= 11 NShTot=      208829 NShNF=      208829 NShFF=           0 MinMC=       7
           NShCPU=      208829 NBCPU=        8213 AvBCPU=        25.4
           NShGPU=           0 NBGPU=           0 AvBGPU=         0.0
 IPart=  5 NShTot=      216749 NShNF=      216749 NShFF=           0 MinMC=       7
           NShCPU=      216749 NBCPU=        8977 AvBCPU=        24.1
           NShGPU=           0 NBGPU=           0 AvBGPU=         0.0
 IPart=  6 NShTot=      212224 NShNF=      212224 NShFF=           0 MinMC=       7
           NShCPU=      212224 NBCPU=        8864 AvBCPU=        23.9
           NShGPU=           0 NBGPU=           0 AvBGPU=         0.0
 IPart=  0 NShTot=      208261 NShNF=      208261 NShFF=           0 MinMC=       7
           NShCPU=      208261 NBCPU=        8520 AvBCPU=        24.4
           NShGPU=           0 NBGPU=           0 AvBGPU=         0.0
 IPart=  9 NShTot=      201678 NShNF=      201678 NShFF=           0 MinMC=       7
           NShCPU=      201678 NBCPU=        8696 AvBCPU=        23.2
           NShGPU=           0 NBGPU=           0 AvBGPU=         0.0
 IPart=  8 NShTot=      287923 NShNF=      287923 NShFF=           0 MinMC=       7
           NShCPU=      287923 NBCPU=       12701 AvBCPU=        22.7
           NShGPU=           0 NBGPU=           0 AvBGPU=         0.0
 IPart=  2 NShTot=      209441 NShNF=      209441 NShFF=           0 MinMC=       7
           NShCPU=      209441 NBCPU=        8526 AvBCPU=        24.6
           NShGPU=           0 NBGPU=           0 AvBGPU=         0.0
 IPart= 10 NShTot=      215375 NShNF=      215375 NShFF=           0 MinMC=       7
           NShCPU=      215375 NBCPU=        9477 AvBCPU=        22.7
           NShGPU=           0 NBGPU=           0 AvBGPU=         0.0
 IPart= 14 NShTot=      307087 NShNF=      307087 NShFF=           0 MinMC=       7
           NShCPU=      307087 NBCPU=       13170 AvBCPU=        23.3
           NShGPU=           0 NBGPU=           0 AvBGPU=         0.0
 IPart=  1 NShTot=      210271 NShNF=      210271 NShFF=           0 MinMC=       7
           NShCPU=      210271 NBCPU=        9052 AvBCPU=        23.2
           NShGPU=           0 NBGPU=           0 AvBGPU=         0.0
 IPart= 12 NShTot=      207918 NShNF=      207918 NShFF=           0 MinMC=       7
           NShCPU=      207918 NBCPU=        8602 AvBCPU=        24.2
           NShGPU=           0 NBGPU=           0 AvBGPU=         0.0
 IPart=  7 NShTot=      202437 NShNF=      202437 NShFF=           0 MinMC=       7
           NShCPU=      202437 NBCPU=        8624 AvBCPU=        23.5
           NShGPU=           0 NBGPU=           0 AvBGPU=         0.0
 IPart=  3 NShTot=      306572 NShNF=      306572 NShFF=           0 MinMC=       7
           NShCPU=      306572 NBCPU=       13002 AvBCPU=        23.6
           NShGPU=           0 NBGPU=           0 AvBGPU=         0.0
 IPart= 17 NShTot=      219275 NShNF=      219275 NShFF=           0 MinMC=       7
           NShCPU=      219275 NBCPU=        9016 AvBCPU=        24.3
           NShGPU=           0 NBGPU=           0 AvBGPU=         0.0
 IPart= 16 NShTot=      321368 NShNF=      321368 NShFF=           0 MinMC=       7
           NShCPU=      321368 NBCPU=       13465 AvBCPU=        23.9
           NShGPU=           0 NBGPU=           0 AvBGPU=         0.0
 IPart=  4 NShTot=      208817 NShNF=      208817 NShFF=           0 MinMC=       7
           NShCPU=      208817 NBCPU=        8249 AvBCPU=        25.3
           NShGPU=           0 NBGPU=           0 AvBGPU=         0.0
 CoulSu:  NxtVal=        7297025 LenVP=       33454981 MinMC=       7.
 ReadGW:  IGet=0 IStart=           1 Next=           1 LGW=           0.
 Remaining memory in FofDFT      639.93 Mw
 CkSvGd:  ISavGI=        -1 IRadAn=       5 IRASav=       5 ISavGd=        -1.
 CalDSu-InSpLW:  IPartL=    0 NPrtUS=   20 NPrtUL=    1 DoSpLW=F IThBeg=    0 IThEnd=   19 NThAct=   20.
 CalDSu:  NPrtUS=  20 ThrOK=T IAlg=1 NPAlg=2 DoDPD=T LenP=       35245 LenD1P=             0 GPUOK=F
          ISkipM=0 DoSpLW=F IThBeg=    0 IThEnd=   19.
 IPart=  0 IRanGd=          0 ScrnBf=T ScrnGd=T RCrit=4.00D+00 DoMicB=T.
 IPart= 12        13467 of        14840 points in      15 batches and       79 microbatches, Max-NSigAt=      11 Max-NSgAt2=      11
 IPart=  7        14019 of        15244 points in      15 batches and       86 microbatches, Max-NSigAt=      11 Max-NSgAt2=      11
 IPart= 17        10543 of        11922 points in      14 batches and       61 microbatches, Max-NSigAt=      11 Max-NSgAt2=      11
 IPart=  2        12657 of        13488 points in      14 batches and       91 microbatches, Max-NSigAt=      11 Max-NSgAt2=      11
 IPart= 13        17133 of        20562 points in      25 batches and      119 microbatches, Max-NSigAt=      11 Max-NSgAt2=      11
 IPart=  9         8839 of         9482 points in      10 batches and       61 microbatches, Max-NSigAt=      11 Max-NSgAt2=      11
 IPart=  4        10669 of        11632 points in      12 batches and       49 microbatches, Max-NSigAt=      11 Max-NSgAt2=      11
 IPart=  1         9519 of        10100 points in      10 batches and       48 microbatches, Max-NSigAt=      11 Max-NSgAt2=      11
 IPart= 16         9948 of        10882 points in      11 batches and       79 microbatches, Max-NSigAt=      11 Max-NSgAt2=      11
 IPart=  8        10871 of        12508 points in      13 batches and       60 microbatches, Max-NSigAt=      11 Max-NSgAt2=      11
 IPart= 18        11370 of        12472 points in      13 batches and       46 microbatches, Max-NSigAt=      11 Max-NSgAt2=      11
 IPart=  3        10164 of        11562 points in      12 batches and       83 microbatches, Max-NSigAt=      11 Max-NSgAt2=      11
 IPart= 15        10029 of        10674 points in      11 batches and       62 microbatches, Max-NSigAt=      11 Max-NSgAt2=      11
 IPart=  6        10576 of        11468 points in      12 batches and       62 microbatches, Max-NSigAt=      11 Max-NSgAt2=      11
 IPart= 14         9849 of        10688 points in      11 batches and       84 microbatches, Max-NSigAt=      11 Max-NSgAt2=      11
 IPart= 19        10393 of        11590 points in      12 batches and       73 microbatches, Max-NSigAt=      11 Max-NSgAt2=      11
 IPart= 11         9894 of        10142 points in      10 batches and       37 microbatches, Max-NSigAt=      11 Max-NSgAt2=      11
 IPart=  5        11059 of        11404 points in      10 batches and       42 microbatches, Max-NSigAt=      11 Max-NSgAt2=      11
 IPart= 10        11465 of        12288 points in      12 batches and       62 microbatches, Max-NSigAt=      11 Max-NSgAt2=      11
 IPart=  0        11935 of        13150 points in      13 batches and       59 microbatches, Max-NSigAt=      11 Max-NSgAt2=      11
 Polarizability after L703:
                1             2             3 
      1  0.000000D+00
      2  0.000000D+00  0.000000D+00
      3  0.000000D+00  0.000000D+00  0.000000D+00
 Dipole Derivatives after L703:
                 1             2             3             4             5 
      1  -0.180931D+00 -0.681731D-01  0.105516D+00  0.830618D-01 -0.234908D+00
      2  -0.135690D+00 -0.234542D+00 -0.588387D-01 -0.648603D+00 -0.485760D+00
      3   0.131037D+00 -0.997469D-02 -0.162742D+00 -0.263158D+00 -0.170436D+00
                 6             7             8             9            10 
      1   0.520594D-01 -0.964868D+00 -0.332666D+00  0.209087D+00 -0.486918D+00
      2  -0.245559D+00 -0.383880D-01 -0.807144D+00  0.261360D-01 -0.471573D-01
      3  -0.538345D+00  0.768094D-01  0.254739D-01 -0.787414D+00 -0.207782D+00
                11            12            13            14            15 
      1   0.172887D+00 -0.224758D+00 -0.656536D+00 -0.163709D+00 -0.234561D+00
      2  -0.748423D+00 -0.340026D+00  0.520638D-01 -0.523141D+00  0.298243D-01
      3  -0.293833D+00 -0.169139D+00 -0.155675D+00 -0.293545D-01  0.787716D-01
                16            17            18            19            20 
      1  -0.193225D-01  0.158476D+00 -0.510871D-01  0.176300D+00 -0.115696D+00
      2  -0.314342D+00  0.428015D+00  0.437128D-01  0.377527D-02  0.138171D+00
      3  -0.317497D-01 -0.390389D-01  0.142731D+00 -0.929507D-01  0.108007D+00
                21            22            23            24            25 
      1  -0.579052D+00  0.100569D+01  0.344425D+00  0.419923D+00  0.180194D+00
      2  -0.107676D+00  0.324867D+00  0.264187D+00  0.129506D+00 -0.544022D-01
      3   0.608258D+00  0.877294D-01 -0.151209D-02  0.163014D+00 -0.571739D-03
                26            27            28            29            30 
      1  -0.216991D-01  0.554893D-02  0.913234D+00  0.418872D+00  0.370767D+00
      2   0.101307D+01  0.162139D+00  0.293576D+00  0.358773D+00  0.170609D+00
      3   0.153743D+00  0.847795D-01  0.206030D+00  0.137034D+00  0.202666D+00
                31            32            33 
      1  -0.499104D-01 -0.157808D+00 -0.734439D-01
      2   0.564301D+00  0.596797D+00  0.190173D+00
      3   0.250281D+00  0.119892D+00  0.377420D+00
 Hessian after L703:
                1             2             3             4             5 
      1  0.350046D+00
      2  0.155533D+00  0.315985D+00
      3  0.762228D-01 -0.828474D-01  0.211125D+00
      4  0.709442D-02  0.209080D-03  0.408079D-02  0.379789D+00
      5  0.744657D-02  0.191664D-01  0.908014D-02  0.191234D-01  0.423671D+00
      6  0.290422D-02  0.471859D-02 -0.235814D-02  0.109786D+00  0.120081D+00
      7 -0.857200D-01 -0.258771D-01 -0.483716D-03  0.937139D-04  0.595778D-03
      8 -0.376377D-01 -0.154496D+00  0.641570D-01 -0.696894D-02 -0.135923D-01
      9  0.185980D-01  0.804198D-01 -0.115867D+00  0.313226D-03  0.321690D-02
     10 -0.214813D+00 -0.741091D-01 -0.649870D-01  0.638028D-03  0.403622D-02
     11 -0.480739D-01 -0.112486D+00 -0.113654D-01  0.414619D-01 -0.548610D-01
     12 -0.846189D-01 -0.284149D-01 -0.892277D-01  0.746352D-02 -0.227800D-01
     13 -0.456254D-01  0.369212D-02 -0.119211D-01 -0.114257D+00  0.603949D-01
     14 -0.346458D-01 -0.387919D-02 -0.105405D-01  0.208074D-01 -0.272737D+00
     15 -0.263597D-01 -0.166917D-02 -0.932432D-03 -0.133364D-01 -0.466335D-01
     16  0.121019D-01 -0.109685D-01 -0.874529D-03 -0.791580D-02 -0.239298D-02
     17  0.594639D-02 -0.341052D-01  0.973664D-02  0.303940D-02  0.486130D-02
     18 -0.104144D-01  0.210079D-01  0.478812D-03  0.242253D-02  0.360140D-03
     19 -0.213986D-02 -0.521835D-02  0.117067D-01 -0.682889D-03 -0.104699D-02
     20 -0.110649D-01 -0.335843D-02  0.345856D-01  0.610519D-03  0.744699D-03
     21  0.727179D-02  0.108122D-01 -0.187788D-01 -0.862150D-04 -0.898886D-03
     22 -0.915404D-02 -0.729743D-02 -0.194319D-02 -0.648981D-03 -0.200116D-03
     23 -0.305673D-01 -0.152245D-01 -0.923669D-02  0.150527D-02  0.236031D-02
     24  0.204608D-01  0.978565D-02  0.724718D-02  0.385915D-03  0.429171D-04
     25 -0.731441D-02 -0.339710D-01 -0.790053D-02 -0.352104D-02  0.324290D-02
     26 -0.959617D-02 -0.105982D-01 -0.398980D-02  0.235663D-02  0.264900D-02
     27 -0.633744D-02 -0.126109D-01  0.193034D-02 -0.369297D-02 -0.235931D-02
     28 -0.227607D-02  0.395055D-02 -0.196426D-02  0.977747D-02  0.340821D-02
     29  0.433964D-02  0.480784D-03 -0.241312D-02 -0.272014D-01 -0.229367D-01
     30 -0.707200D-03 -0.252718D-02  0.941590D-02 -0.562348D-02 -0.696980D-02
     31 -0.219966D-02 -0.594327D-02 -0.193598D-02 -0.270368D+00 -0.946079D-01
     32 -0.167986D-02 -0.148482D-02  0.283343D-02 -0.549432D-01 -0.893266D-01
     33  0.298006D-02  0.132528D-02 -0.303347D-02 -0.101713D+00 -0.531398D-01
                6             7             8             9            10 
      6  0.133767D+00
      7  0.285456D-02  0.581525D+00
      8  0.133622D-02  0.167104D-01  0.461811D+00
      9 -0.544842D-03  0.524382D-01  0.398246D-01  0.500362D+00
     10 -0.427275D-03 -0.259856D-01 -0.231789D-01  0.666994D-03  0.787525D+00
     11 -0.810184D-02 -0.337092D-01 -0.288809D-01 -0.105461D-01 -0.184361D+00
     12  0.101662D-01  0.159264D-01 -0.260323D-02  0.686004D-02  0.121479D+00
     13 -0.369010D-02  0.708394D-05  0.495595D-02 -0.236967D-02 -0.488882D+00
     14 -0.633639D-01 -0.242473D-02  0.156680D-01 -0.465350D-02  0.223483D+00
     15 -0.671003D-01  0.387772D-03  0.580431D-02  0.647604D-03 -0.543659D-01
     16  0.167548D-02 -0.147860D+00  0.944849D-01  0.127588D-01  0.215106D-02
     17 -0.495371D-03  0.907020D-01 -0.148158D+00 -0.166183D-01  0.508084D-02
     18 -0.850683D-03  0.140343D-01 -0.150853D-01 -0.597525D-01 -0.100514D-02
[...]
     Eigenvalues ---    0.22138   0.23301   0.33222   0.33591   0.35088
     Eigenvalues ---    0.36355   0.37354   0.39844   0.45086   0.45698
     Eigenvalues ---    0.53342   0.66236
 Angle between quadratic step and forces=  71.34 degrees.
 Linear search not attempted -- first point.
 Iteration  1 RMS(Cart)=  0.00002225 RMS(Int)=  0.00000000
 Iteration  2 RMS(Cart)=  0.00000000 RMS(Int)=  0.00000000
 ITry= 1 IFail=0 DXMaxC= 6.37D-05 DCOld= 1.00D+10 DXMaxT= 3.00D-01 DXLimC= 3.00D+00 Rises=F
 Variable       Old X    -DE/DX   Delta X   Delta X   Delta X     New X
                                 (Linear)    (Quad)   (Total)
    R1        2.67120  -0.00000   0.00000  -0.00000  -0.00000   2.67120
    R2        2.59481   0.00000   0.00000   0.00000   0.00000   2.59481
    R3        2.56333  -0.00000   0.00000  -0.00000  -0.00000   2.56333
    R4        1.82347  -0.00000   0.00000  -0.00000  -0.00000   1.82347
    R5        2.06457   0.00000   0.00000   0.00000   0.00000   2.06457
    R6        2.06653  -0.00000   0.00000  -0.00000  -0.00000   2.06653
    R7        2.05345  -0.00000   0.00000  -0.00000  -0.00000   2.05345
    R8        2.50502  -0.00000   0.00000  -0.00000  -0.00000   2.50502
    R9        2.04478  -0.00000   0.00000  -0.00000  -0.00000   2.04478
   R10        2.03835  -0.00000   0.00000  -0.00000  -0.00000   2.03835
    A1        1.98208   0.00000   0.00000   0.00000   0.00000   1.98208
    A2        1.87243   0.00000   0.00000   0.00000   0.00000   1.87243
    A3        1.93727  -0.00000   0.00000   0.00000   0.00000   1.93727
    A4        1.93109   0.00000   0.00000   0.00000   0.00000   1.93110
    A5        1.87229   0.00000   0.00000  -0.00000  -0.00000   1.87229
    A6        1.90277   0.00000   0.00000   0.00000   0.00000   1.90277
    A7        1.91451  -0.00000   0.00000  -0.00000  -0.00000   1.91450
    A8        1.90554   0.00000   0.00000   0.00000   0.00000   1.90554
    A9        2.08155  -0.00000   0.00000  -0.00000  -0.00000   2.08155
   A10        2.05344  -0.00000   0.00000  -0.00000  -0.00000   2.05343
   A11        2.14728   0.00000   0.00000   0.00001   0.00001   2.14729
   A12        2.16216  -0.00000   0.00000  -0.00000  -0.00000   2.16215
   A13        1.98815   0.00000   0.00000   0.00000   0.00000   1.98815
   A14        2.13269   0.00000   0.00000   0.00000   0.00000   2.13269
    D1       -1.08703  -0.00000   0.00000   0.00001   0.00001  -1.08701
    D2        1.02787   0.00000   0.00000   0.00002   0.00002   1.02789
    D3        3.10481   0.00000   0.00000   0.00002   0.00002   3.10483
    D4        2.45354   0.00000   0.00000   0.00003   0.00003   2.45357
    D5       -0.73256   0.00000   0.00000   0.00003   0.00003  -0.73253
    D6        0.00098   0.00000   0.00000  -0.00000  -0.00000   0.00098
    D7       -3.11980  -0.00000   0.00000  -0.00001  -0.00001  -3.11981
    D8       -0.03798   0.00000   0.00000   0.00000   0.00000  -0.03797
    D9        3.08114   0.00000   0.00000   0.00001   0.00001   3.08114
   D10       -3.13254   0.00000   0.00000   0.00000   0.00000  -3.13254
   D11       -0.01343   0.00000   0.00000   0.00000   0.00000  -0.01342
         Item               Value     Threshold  Converged?
 Maximum Force            0.000001     0.000015     YES
 RMS     Force            0.000000     0.000010     YES
 Maximum Displacement     0.000064     0.000060     NO 
 RMS     Displacement     0.000022     0.000040     YES
 Predicted change in Energy=-1.595043D-11
                           ----------------------------
                           ! Non-Optimized Parameters !
                           ! (Angstroms and Degrees)  !
 --------------------------                            --------------------------
 ! Name  Definition              Value          Derivative Info.                !
 --------------------------------------------------------------------------------
 ! R1    R(1,3)                  1.4135         -DE/DX =    0.0                 !
 ! R2    R(1,4)                  1.3731         -DE/DX =    0.0                 !
 ! R3    R(2,5)                  1.3565         -DE/DX =    0.0                 !
 ! R4    R(2,11)                 0.9649         -DE/DX =    0.0                 !
 ! R5    R(3,6)                  1.0925         -DE/DX =    0.0                 !
 ! R6    R(3,7)                  1.0936         -DE/DX =    0.0                 !
 ! R7    R(3,8)                  1.0866         -DE/DX =    0.0                 !
 ! R8    R(4,5)                  1.3256         -DE/DX =    0.0                 !
 ! R9    R(4,9)                  1.0821         -DE/DX =    0.0                 !
 ! R10   R(5,10)                 1.0786         -DE/DX =    0.0                 !
 ! A1    A(3,1,4)              113.5649         -DE/DX =    0.0                 !
 ! A2    A(5,2,11)             107.2822         -DE/DX =    0.0                 !
 ! A3    A(1,3,6)              110.9976         -DE/DX =    0.0                 !
 ! A4    A(1,3,7)              110.6436         -DE/DX =    0.0                 !
 ! A5    A(1,3,8)              107.2744         -DE/DX =    0.0                 !
 ! A6    A(6,3,7)              109.021          -DE/DX =    0.0                 !
 ! A7    A(6,3,8)              109.6929         -DE/DX =    0.0                 !
 ! A8    A(7,3,8)              109.1795         -DE/DX =    0.0                 !
 ! A9    A(1,4,5)              119.2639         -DE/DX =    0.0                 !
 ! A10   A(1,4,9)              117.6531         -DE/DX =    0.0                 !
 ! A11   A(5,4,9)              123.0307         -DE/DX =    0.0                 !
 ! A12   A(2,5,4)              123.8823         -DE/DX =    0.0                 !
 ! A13   A(2,5,10)             113.9126         -DE/DX =    0.0                 !
 ! A14   A(4,5,10)             122.194          -DE/DX =    0.0                 !
 ! D1    D(4,1,3,6)            -62.2812         -DE/DX =    0.0                 !
 ! D2    D(4,1,3,7)             58.8935         -DE/DX =    0.0                 !
 ! D3    D(4,1,3,8)            177.8937         -DE/DX =    0.0                 !
 ! D4    D(3,1,4,5)            140.5791         -DE/DX =    0.0                 !
 ! D5    D(3,1,4,9)            -41.971          -DE/DX =    0.0                 !
 ! D6    D(11,2,5,4)             0.0559         -DE/DX =    0.0                 !
 ! D7    D(11,2,5,10)         -178.752          -DE/DX =    0.0                 !
 ! D8    D(1,4,5,2)             -2.1756         -DE/DX =    0.0                 !
 ! D9    D(1,4,5,10)           176.5366         -DE/DX =    0.0                 !
 ! D10   D(9,4,5,2)           -179.4813         -DE/DX =    0.0                 !
 ! D11   D(9,4,5,10)            -0.769          -DE/DX =    0.0                 !
 --------------------------------------------------------------------------------
 GradGradGradGradGradGradGradGradGradGradGradGradGradGradGradGradGradGrad

 Leave Link  103 at Sun Sep 29 09:27:38 2019, MaxMem=   671088640 cpu:             111.8 elap:              56.9
 (Enter /shared/centos7/gaussian/g16/l9999.exe)

 ----------------------------------------------------------------------

 Electric dipole moment (input orientation):
 (Debye = 10**-18 statcoulomb cm , SI units = C m)
                  (au)            (Debye)         (10**-30 SI)
   Tot        0.864535D+00      0.219743D+01      0.732983D+01
   x         -0.316899D+00     -0.805476D+00     -0.268678D+01
   y         -0.406644D+00     -0.103359D+01     -0.344767D+01
   z         -0.694000D+00     -0.176397D+01     -0.588398D+01

 Dipole polarizability, Alpha (input orientation).
 (esu units = cm**3 , SI units = C**2 m**2 J**-1)
 Alpha(0;0):
               (au)            (10**-24 esu)      (10**-40 SI)
   iso        0.445369D+02      0.659968D+01      0.734314D+01
   aniso      0.248251D+02      0.367869D+01      0.409310D+01
   xx         0.372865D+02      0.552529D+01      0.614772D+01
   yx         0.837116D+01      0.124048D+01      0.138022D+01
   yy         0.497523D+02      0.737253D+01      0.820305D+01
   zx         0.499305D+00      0.739893D-01      0.823242D-01
   zy         0.965130D+01      0.143018D+01      0.159128D+01
   zz         0.465718D+02      0.690122D+01      0.767865D+01

 ----------------------------------------------------------------------

 Dipole orientation:
     8         -1.63471573          1.96020644         -1.52846793
     8         -2.61784086         -0.08109541         -6.21438440
     6         -2.37496098          1.90114621          1.03743893
     6         -0.43534341         -0.20320098         -2.31219046
     6         -0.92193704         -1.11505996         -4.59404998
     1         -3.73953208          0.38998096          1.37913928
     1         -0.73503319          1.61745718          2.26247530
     1         -3.23169116          3.71725277          1.46687276
     1          0.93485718         -1.04045976         -1.04621795
     1          0.04439606         -2.74742226         -5.34001791
     1         -3.34117622          1.37347020         -5.38609861

 Electric dipole moment (dipole orientation):
 (Debye = 10**-18 statcoulomb cm , SI units = C m)
                  (au)            (Debye)         (10**-30 SI)
   Tot        0.864535D+00      0.219743D+01      0.732983D+01
   x          0.000000D+00      0.000000D+00      0.000000D+00
   y          0.000000D+00      0.000000D+00      0.000000D+00
   z          0.864535D+00      0.219743D+01      0.732983D+01

 Dipole polarizability, Alpha (dipole orientation).
 (esu units = cm**3 , SI units = C**2 m**2 J**-1)
 Alpha(0;0):
               (au)            (10**-24 esu)      (10**-40 SI)
   iso        0.445369D+02      0.659968D+01      0.734314D+01
   aniso      0.248251D+02      0.367869D+01      0.409310D+01
   xx         0.375042D+02      0.555754D+01      0.618360D+01
   yx        -0.455879D+01     -0.675543D+00     -0.751643D+00
   yy         0.396099D+02      0.586957D+01      0.653078D+01
   zx         0.204354D+01      0.302821D+00      0.336934D+00
   zy         0.849029D+01      0.125813D+01      0.139986D+01
   zz         0.564966D+02      0.837193D+01      0.931502D+01

 ----------------------------------------------------------------------

 Test job not archived.
 1\1\GINC-C0203\Freq\RM062X\CC-pVTZ\C3H6O2\HARMS.N\29-Sep-2019\0\\#P Ge
 om=AllCheck Guess=TCheck SCRF=Check Test GenChk RM062X/CC-pVTZ Freq\\G
 aussian input prepared by ASE\\0,1\O,-0.4048936208,-0.4468186402,1.454
 2778343\O,-0.0807394277,1.7169274331,3.1274343772\C,-1.2681222674,-1.0
 206037654,0.4931833534\C,0.225012852,0.6918812353,1.0160706792\C,0.383
 1779479,1.7077900719,1.8528096179\H,-2.0791633461,-0.3350587808,0.2365
 834932\H,-0.7169700419,-1.2768201687,-0.4159162353\H,-1.6790791596,-1.
 9272316459,0.9289821974\H,0.6081130746,0.6961126219,0.0041149977\H,0.9
 185095201,2.6023574421,1.5759474005\H,-0.5220317956,0.8721119113,3.277
 9392293\\Version=EM64L-G16RevA.03\State=1-A\HF=-268.3241864\RMSD=2.036
 e-09\RMSF=9.940e-07\ZeroPoint=0.0911284\Thermal=0.0969967\Dipole=-0.31
 68988,-0.4066444,-0.6939998\DipoleDeriv=-0.6476614,-0.5323037,-0.24705
 93,-0.4858804,-1.1936144,-0.411828,-0.0583815,-0.009634,-0.5664396,-0.
 3716733,0.1544841,0.370349,-0.0251456,-0.3045193,0.0849517,0.1101506,-
 0.3901764,-1.2541924,0.5712669,0.2087318,0.2201912,0.1371909,0.4903371
 ,0.1941416,0.2673313,0.337865,0.586277,0.0508749,0.4003638,-0.0749294,
 0.4309273,0.7101692,0.0700238,-0.2491965,-0.255782,-0.1428516,-0.00194
 99,-0.0491991,-0.4057739,0.0495743,0.1072664,0.0758933,-0.1810541,0.38
 11481,1.0768507,-0.0859163,0.0156418,-0.0613177,0.1305528,-0.0314997,0
 .0483001,-0.0596746,-0.0583346,0.0000211,-0.0463826,0.0175831,0.109215
 7,-0.0054549,0.0313247,-0.027549,0.0182422,-0.0978797,-0.1097891,0.029
 4512,-0.0726687,-0.0125449,-0.083401,-0.0760805,0.0173235,0.0221899,0.
 0622424,0.0212327,0.1168224,-0.0284548,0.0711679,-0.0516014,0.0196344,
 -0.0538619,0.0996187,0.0339177,-0.0212458,0.0955698,-0.0728195,0.05492
 52,-0.0714865,0.0286998,0.0265207,0.0359217,0.0014226,0.0440673,0.2895
 983,-0.0413587,-0.0242239,-0.0252756,0.2182824,-0.023916,-0.0051478,-0
 .0047892,0.3660697\Polar=37.2865111,8.3711592,49.7523055,0.4993048,9.6
 513029,46.5717631\Quadrupole=0.0590409,-0.2071945,0.1481536,2.1648223,
 -0.8701865,-0.8899409\PG=C01 [X(C3H6O2)]\NImag=0\\0.25935368,0.2126539
 1,0.39115985,0.07899723,-0.00315356,0.32068574,-0.00141949,0.00890679,
 -0.00694035,0.18996557,0.00462101,0.00547101,-0.00291894,0.21884133,0.
 49052033,-0.00965696,-0.00899530,0.00824874,-0.15393748,-0.02916583,0.
 42028061,-0.12874803,-0.05258951,-0.06548661,-0.00087254,0.00236451,0.
 00158508,0.54678105,-0.03929114,-0.09516179,-0.02365279,-0.00092669,-0
 .00017699,0.00281755,-0.00555595,0.59598683,-0.08520799,-0.05235369,-0
 .17141068,-0.00199735,-0.00140222,0.00485231,-0.04709675,-0.04736935,0
 .53998791,-0.09735401,-0.09022975,0.02232761,0.00868725,0.00735368,0.0
 2831962,-0.02307380,-0.03098000,0.00396089,0.24888127,-0.10681741,-0.2
 2874518,0.04532557,-0.00304990,0.00508697,0.00327628,-0.02072657,-0.03
 409788,-0.00150222,0.18818305,0.67278403,0.04239050,0.07187808,-0.1245
 4308,0.01486647,-0.03073671,-0.06408485,-0.01109623,-0.02448968,0.0111
 5898,-0.11786424,0.21473091,0.75428863,-0.00264952,-0.03475634,-0.0077
 8614,-0.08713930,-0.02987342,0.07970814,0.00126998,-0.00156024,0.00459
 294,-0.07577498,-0.05704861,-0.01981752,0.28514696,-0.02267005,-0.0548
 2426,-0.01872341,-0.01534342,-0.10155945,-0.03536969,0.00234188,0.0009
 9662,0.00597773,-0.06346807,-0.36217008,-0.21562748,0.24555344,0.77830
 141,0.01344222,0.02542962,0.00758477,0.09926264,0.00942264,-0.30695367
 ,-0.00015041,-0.00003039,-0.00755419,-0.03100205,-0.24589089,-0.275824
 00,-0.12514237,0.16958407,0.67661893,-0.02265235,0.00278931,-0.0166700
 5,0.00009416,0.00003198,-0.00023035,-0.18586518,0.12052633,-0.03478994
 ,0.00255581,0.00429008,-0.00078075,-0.00031143,-0.00133480,0.00029979,
 0.20700691,-0.01785321,0.01112635,-0.00689516,-0.00065799,0.00000468,0
 .00054922,0.12577445,-0.16565838,0.03745557,-0.00014087,0.00469730,0.0
 0017677,0.00123340,-0.00032130,-0.00126612,-0.13202269,0.16886891,-0.0
 2922759,0.00870090,-0.01269653,0.00048326,0.00016129,-0.00099132,-0.03
 361274,0.03323962,-0.06121136,0.00235132,0.00302798,-0.00052563,-0.000
 31117,-0.00092980,0.00105157,0.05107077,-0.03591750,0.06885615,0.00997
 985,-0.01168317,-0.02687438,0.00014988,-0.00062674,0.00018443,-0.12837
 207,0.03180745,0.11761396,0.00284075,0.00233316,-0.00296194,-0.0002642
 1,0.00000904,-0.00034392,-0.01120848,0.00389886,0.01964248,0.13246053,
 -0.00100800,-0.00619644,-0.01739630,-0.00018208,-0.00028813,0.00035960
 ,0.03071542,-0.06493135,-0.04201617,0.00304781,0.00264007,-0.00324057,
 -0.00011878,-0.00043428,0.00003294,0.01284027,-0.00359970,-0.01723686,
 -0.03057163,0.06433093,-0.00164992,-0.01460270,-0.03014054,-0.00023621
 ,-0.00027383,0.00002093,0.11165510,-0.04418901,-0.21501228,0.00221814,
 0.00446033,-0.00015493,-0.00038170,-0.00083208,0.00021260,-0.00245798,
 0.00228825,0.00732072,-0.11641642,0.05666102,0.24575333,-0.01334311,-0
 .02328183,0.00561795,0.00014702,0.00010077,-0.00052413,-0.08500148,-0.
 07653639,0.04014890,-0.00084909,-0.00098192,-0.00383624,-0.00086212,-0
 .00098061,0.00097830,0.01121631,0.01954870,-0.00988653,-0.00540221,-0.
 01425655,0.00791877,0.09397301,-0.00966190,-0.01424869,0.00177828,0.00
 039664,0.00010880,-0.00088814,-0.08212346,-0.23835387,0.09551370,-0.00
 077273,0.00090131,-0.00365656,-0.00097510,-0.00009538,0.00149340,-0.00
 728653,-0.01489268,0.00933953,0.00378486,0.00839159,-0.00277726,0.0964
 9935,0.25861879,-0.01568491,-0.02727815,0.00875693,-0.00004051,0.00025
 277,-0.00013104,0.04810411,0.10587091,-0.10213526,-0.00182863,-0.00143
 638,-0.00325580,-0.00079095,-0.00111168,0.00115569,0.00304140,0.003504
 57,-0.00178250,0.00794307,0.02187488,-0.00904854,-0.04044482,-0.101022
 40,0.10624506,-0.00700049,-0.00677295,0.01307656,0.00789458,-0.0050074
 6,0.00256475,0.00169388,0.00155148,0.00315522,-0.06807544,-0.00650765,
 0.10019017,0.00252108,0.00242988,-0.00606688,-0.00065926,-0.00007859,-
 0.00008288,0.00021132,-0.00033935,-0.00055618,-0.00000948,0.00015116,-
 0.00047605,0.06721455,-0.01671435,-0.00786471,0.02903020,-0.00451369,-
 0.00149990,-0.00491657,0.00155536,0.00282285,0.00476783,-0.00684621,-0
 .05229751,-0.01243280,0.01143969,0.00605261,-0.01990524,-0.00007730,-0
 .00024092,-0.00053527,0.00078790,-0.00008006,-0.00116750,0.00019013,-0
 .00010864,-0.00026363,0.01292993,0.05503656,0.00629411,0.00551529,-0.0
 0777094,0.00086847,-0.00379381,0.00237963,-0.00249946,-0.00071593,0.00
 137577,0.09861313,-0.01125632,-0.30510446,0.00737595,0.00472879,-0.012
 97255,0.00034183,-0.00003113,-0.00004518,0.00099502,0.00074781,0.00050
 788,0.00007679,0.00014091,0.00036748,-0.11048687,0.00424775,0.32099276
 ,0.00657408,-0.00491163,0.00364673,-0.00510314,-0.00925844,0.00562203,
 0.00169534,0.00091769,-0.00019984,0.00034515,0.00011669,0.00096029,-0.
 11213331,-0.12979957,0.03920594,-0.00003852,0.00024386,-0.00007926,-0.
 00020195,-0.00013196,-0.00006665,0.00015726,0.00018212,0.00019661,-0.0
 0313403,0.00153445,-0.00140380,0.11049529,-0.00326384,0.00215649,-0.00
 565894,0.00072660,0.00455076,0.00202725,-0.00018434,-0.00115429,0.0007
 9225,-0.01018731,-0.01248209,0.01067143,-0.12994286,-0.26445007,0.0550
 2281,-0.00003122,-0.00009300,0.00004482,0.00002413,-0.00003487,-0.0001
 0376,-0.00026815,-0.00018686,-0.00033089,0.00163975,-0.00074254,-0.000
 07629,0.14108866,0.27016846,0.00097552,-0.00530191,-0.00134981,0.01984
 393,0.03017268,-0.01355919,0.00094675,-0.00031082,0.00061453,-0.009860
 59,-0.01300221,0.01124162,0.03703951,0.04981783,-0.06868320,-0.0000738
 1,0.00013440,-0.00007208,-0.00013589,-0.00011904,-0.00011374,-0.000159
 25,-0.00007750,-0.00019984,-0.00113783,0.00089641,-0.00045893,-0.04984
 192,-0.06102208,0.07795785,-0.00274060,-0.00012484,0.00009145,-0.11240
 397,-0.18854724,0.04636489,0.00049287,0.00004746,-0.00018004,0.0018170
 9,0.00020907,-0.00205053,-0.00980314,-0.01673770,0.00951673,-0.0001379
 8,0.00005408,-0.00034765,-0.00019340,0.00000482,-0.00002695,-0.0000261
 0,-0.00019440,-0.00001931,-0.00065671,-0.00028590,-0.00017517,0.001343
 83,0.00039858,0.00240356,0.12230812,0.00000499,-0.00287263,0.00226506,
 -0.20419759,-0.40221808,0.07030563,-0.00157180,-0.00027175,0.00013657,
 0.00404039,0.00368307,-0.00727340,-0.00395119,-0.00149583,0.00610716,0
 .00027456,0.00010875,0.00010528,0.00023614,0.00020224,0.00053654,-0.00
 003350,-0.00013435,-0.00006000,0.00000379,-0.00107773,0.00049292,0.000
 01813,0.00226801,-0.00118777,0.20517607,0.40180828,-0.00067220,0.00016
 142,0.00263540,0.02782713,0.02828197,-0.05006216,-0.00234884,-0.001170
 11,-0.00066574,0.00276479,0.00226697,-0.00319646,0.02551331,0.04248572
 ,-0.01463595,0.00024907,0.00000112,0.00009617,0.00035359,0.00033267,0.
 00065458,0.00011026,0.00015604,0.00002782,-0.00018002,0.00027881,0.000
 72854,0.00195986,-0.00136661,-0.00537721,-0.05557697,-0.07142799,0.069
 79502\\-0.00000038,0.00000019,0.00000087,-0.00000099,0.00000192,0.0000
 0023,-0.00000129,0.00000069,0.00000036,0.00000006,-0.00000141,0.000000
 11,0.00000043,-0.00000047,-0.00000053,0.00000105,0.00000061,-0.0000016
 3,0.00000092,-0.00000080,0.00000013,-0.00000115,0.00000063,-0.00000013
 ,0.00000189,-0.00000111,0.00000098,0.00000162,-0.00000093,0.00000012,-
 0.00000215,0.00000068,-0.00000050\\\@


 WE HAVE LEARNED THAT NOTHING IS SIMPLE AND
 RATIONAL EXCEPT WHAT WE OURSELVES HAVE INVENTED;
 THAT GOD THINKS IN TERMS NEITHER OF EUCLID OR RIEMANN; THAT SCIENCE HAS "EXPLAINED" NOTHING;
 THAT THE MORE WE KNOW THE MORE FANTASTIC THE WORLD BECOMES
 AND THE PROFOUNDER THE SURROUNDING DARKNESS.
   --  ALDOUS HUXLEY
 Job cpu time:       0 days  1 hours 10 minutes 43.7 seconds.
 Elapsed time:       0 days  0 hours 35 minutes 24.5 seconds.
 File lengths (MBytes):  RWF=   1312 Int=      0 D2E=      0 Chk=     32 Scr=     32
 Normal termination of Gaussian 16 at Sun Sep 29 09:27:39 2019.
