 Entering Gaussian System, Link 0=g16
 Input=verytight/species/COC=CO/conformers/COC=CO_3.com
 Output=verytight/species/COC=CO/conformers/COC=CO_3.log
 Initial command:
 /shared/centos7/gaussian/g16/l1.exe "/scratch/harms.n/gauss_scrdir/Gau-8337.inp" -scrdir="/scratch/harms.n/gauss_scrdir/"
 Entering Link 1 = /shared/centos7/gaussian/g16/l1.exe PID=      8408.
  
 Copyright (c) 1988,1990,1992,1993,1995,1998,2003,2009,2016,
            Gaussian, Inc.  All Rights Reserved.
  
 This is part of the Gaussian(R) 16 program.  It is based on
 the Gaussian(R) 09 system (copyright 2009, Gaussian, Inc.),
 the Gaussian(R) 03 system (copyright 2003, Gaussian, Inc.),
 the Gaussian(R) 98 system (copyright 1998, Gaussian, Inc.),
 the Gaussian(R) 94 system (copyright 1995, Gaussian, Inc.),
 the Gaussian 92(TM) system (copyright 1992, Gaussian, Inc.),
 the Gaussian 90(TM) system (copyright 1990, Gaussian, Inc.),
 the Gaussian 88(TM) system (copyright 1988, Gaussian, Inc.),
 the Gaussian 86(TM) system (copyright 1986, Carnegie Mellon
 University), and the Gaussian 82(TM) system (copyright 1983,
 Carnegie Mellon University). Gaussian is a federally registered
 trademark of Gaussian, Inc.
  
 This software contains proprietary and confidential information,
 including trade secrets, belonging to Gaussian, Inc.
  
 This software is provided under written license and may be
 used, copied, transmitted, or stored only in accord with that
 written license.
  
 The following legend is applicable only to US Government
 contracts under FAR:
  
                    RESTRICTED RIGHTS LEGEND
  
 Use, reproduction and disclosure by the US Government is
 subject to restrictions as set forth in subparagraphs (a)
 and (c) of the Commercial Computer Software - Restricted
 Rights clause in FAR 52.227-19.
  
 Gaussian, Inc.
 340 Quinnipiac St., Bldg. 40, Wallingford CT 06492
  
  
 ---------------------------------------------------------------
 Warning -- This program may not be used in any manner that
 competes with the business of Gaussian, Inc. or will provide
 assistance to any competitor of Gaussian, Inc.  The licensee
 of this program is prohibited from giving any competitor of
 Gaussian, Inc. access to this program.  By using this program,
 the user acknowledges that Gaussian, Inc. is engaged in the
 business of creating and licensing software in the field of
 computational chemistry and represents and warrants to the
 licensee that it is not a competitor of Gaussian, Inc. and that
 it will not use this program in any manner prohibited above.
 ---------------------------------------------------------------
  

 Cite this work as:
 Gaussian 16, Revision A.03,
 M. J. Frisch, G. W. Trucks, H. B. Schlegel, G. E. Scuseria, 
 M. A. Robb, J. R. Cheeseman, G. Scalmani, V. Barone, 
 G. A. Petersson, H. Nakatsuji, X. Li, M. Caricato, A. V. Marenich, 
 J. Bloino, B. G. Janesko, R. Gomperts, B. Mennucci, H. P. Hratchian, 
 J. V. Ortiz, A. F. Izmaylov, J. L. Sonnenberg, D. Williams-Young, 
 F. Ding, F. Lipparini, F. Egidi, J. Goings, B. Peng, A. Petrone, 
 T. Henderson, D. Ranasinghe, V. G. Zakrzewski, J. Gao, N. Rega, 
 G. Zheng, W. Liang, M. Hada, M. Ehara, K. Toyota, R. Fukuda, 
 J. Hasegawa, M. Ishida, T. Nakajima, Y. Honda, O. Kitao, H. Nakai, 
 T. Vreven, K. Throssell, J. A. Montgomery, Jr., J. E. Peralta, 
 F. Ogliaro, M. J. Bearpark, J. J. Heyd, E. N. Brothers, K. N. Kudin, 
 V. N. Staroverov, T. A. Keith, R. Kobayashi, J. Normand, 
 K. Raghavachari, A. P. Rendell, J. C. Burant, S. S. Iyengar, 
 J. Tomasi, M. Cossi, J. M. Millam, M. Klene, C. Adamo, R. Cammi, 
 J. W. Ochterski, R. L. Martin, K. Morokuma, O. Farkas, 
 J. B. Foresman, and D. J. Fox, Gaussian, Inc., Wallingford CT, 2016.
 
 ******************************************
 Gaussian 16:  EM64L-G16RevA.03 25-Dec-2016
                25-Sep-2019 
 ******************************************
 %nprocshared=20
 Will use up to   20 processors via shared memory.
 %mem=5GB
 ----------------------------------------------------------------------
 #p m062x/cc-pVTZ opt=(calcfc,maxcycles=900,Tight) freq IOP(7/33=1,2/16
 =3) scf=(maxcycle=900)
 ----------------------------------------------------------------------
 1/6=900,7=10,10=4,18=20,19=15,26=3,38=1/1,3;
 2/9=110,12=2,16=3,17=6,18=5,40=1/2;
 3/5=16,6=1,11=2,25=1,30=1,71=2,74=-55,140=1/1,2,3;
 4//1;
 5/5=2,7=900,38=5/2;
 8/6=4,10=90,11=11/1;
 11/6=1,8=1,9=11,15=111,16=1/1,2,10;
 10/6=1,13=1/2;
 6/7=2,8=2,9=2,10=2,28=1/1;
 7/10=1,18=20,25=1,33=1/1,2,3,16;
 1/6=900,7=10,10=4,18=20,19=15,26=3/3(2);
 2/9=110,16=3/2;
 99//99;
 2/9=110,16=3/2;
 3/5=16,6=1,11=2,25=1,30=1,71=1,74=-55/1,2,3;
 4/5=5,16=3,69=1/1;
 5/5=2,7=900,38=5/2;
 7/33=1/1,2,3,16;
 1/6=900,7=10,18=20,19=15,26=3/3(-5);
 2/9=110,16=3/2;
 6/7=2,8=2,9=2,10=2,19=2,28=1/1;
 99/9=1/99;
 Leave Link    1 at Wed Sep 25 09:58:06 2019, MaxMem=   671088640 cpu:               7.2 elap:               3.9
 (Enter /shared/centos7/gaussian/g16/l101.exe)
 ------------------------------
 Gaussian input prepared by ASE
 ------------------------------
 Symbolic Z-matrix:
 Charge =  0 Multiplicity = 1
 O                     0.15454  -0.64749   1.3845 
 O                     0.50122   2.8004    0.15981 
 C                    -1.18554  -0.83039   0.92179 
 C                     0.64329   0.61655   1.07971 
 C                    -0.01614   1.55655   0.44525 
 H                    -1.87812  -0.07716   1.39657 
 H                    -1.24152  -0.71223  -0.19785 
 H                    -1.49426  -1.83817   1.20026 
 H                     1.66379   0.74933   1.4338 
 H                    -1.01835   1.44149   0.0914 
 H                     1.44821   2.81933   0.52977 
 
 ITRead=  0  0  0  0  0  0  0  0  0  0  0
 MicOpt= -1 -1 -1 -1 -1 -1 -1 -1 -1 -1 -1
 NAtoms=     11 NQM=       11 NQMF=       0 NMMI=      0 NMMIF=      0
                NMic=       0 NMicF=      0.
                    Isotopes and Nuclear Properties:
 (Nuclear quadrupole moments (NQMom) in fm**2, nuclear magnetic moments (NMagM)
  in nuclear magnetons)

  Atom         1           2           3           4           5           6           7           8           9          10
 IAtWgt=          16          16          12          12          12           1           1           1           1           1
 AtmWgt=  15.9949146  15.9949146  12.0000000  12.0000000  12.0000000   1.0078250   1.0078250   1.0078250   1.0078250   1.0078250
 NucSpn=           0           0           0           0           0           1           1           1           1           1
 AtZEff=  -0.0000000  -0.0000000  -0.0000000  -0.0000000  -0.0000000  -0.0000000  -0.0000000  -0.0000000  -0.0000000  -0.0000000
 NQMom=    0.0000000   0.0000000   0.0000000   0.0000000   0.0000000   0.0000000   0.0000000   0.0000000   0.0000000   0.0000000
 NMagM=    0.0000000   0.0000000   0.0000000   0.0000000   0.0000000   2.7928460   2.7928460   2.7928460   2.7928460   2.7928460
 AtZNuc=   8.0000000   8.0000000   6.0000000   6.0000000   6.0000000   1.0000000   1.0000000   1.0000000   1.0000000   1.0000000

  Atom        11
 IAtWgt=           1
 AtmWgt=   1.0078250
 NucSpn=           1
 AtZEff=  -0.0000000
 NQMom=    0.0000000
 NMagM=    2.7928460
 AtZNuc=   1.0000000
 Leave Link  101 at Wed Sep 25 09:58:10 2019, MaxMem=   671088640 cpu:               7.3 elap:               3.7
 (Enter /shared/centos7/gaussian/g16/l103.exe)

 GradGradGradGradGradGradGradGradGradGradGradGradGradGradGradGradGradGrad
 Berny optimization.
 Initialization pass.
                           ----------------------------
                           !    Initial Parameters    !
                           ! (Angstroms and Degrees)  !
 --------------------------                            --------------------------
 ! Name  Definition              Value          Derivative Info.                !
 --------------------------------------------------------------------------------
 ! R1    R(1,3)                  1.4295         calculate D2E/DX2 analytically  !
 ! R2    R(1,4)                  1.3891         calculate D2E/DX2 analytically  !
 ! R3    R(2,5)                  1.3771         calculate D2E/DX2 analytically  !
 ! R4    R(2,11)                 1.0169         calculate D2E/DX2 analytically  !
 ! R5    R(3,6)                  1.128          calculate D2E/DX2 analytically  !
 ! R6    R(3,7)                  1.1272         calculate D2E/DX2 analytically  !
 ! R7    R(3,8)                  1.0902         calculate D2E/DX2 analytically  !
 ! R8    R(4,5)                  1.3119         calculate D2E/DX2 analytically  !
 ! R9    R(4,9)                  1.0883         calculate D2E/DX2 analytically  !
 ! R10   R(5,10)                 1.0691         calculate D2E/DX2 analytically  !
 ! A1    A(3,1,4)              112.0399         calculate D2E/DX2 analytically  !
 ! A2    A(5,2,11)             106.9348         calculate D2E/DX2 analytically  !
 ! A3    A(1,3,6)              110.7264         calculate D2E/DX2 analytically  !
 ! A4    A(1,3,7)              110.7724         calculate D2E/DX2 analytically  !
 ! A5    A(1,3,8)              107.5219         calculate D2E/DX2 analytically  !
 ! A6    A(6,3,7)              108.5162         calculate D2E/DX2 analytically  !
 ! A7    A(6,3,8)              109.6274         calculate D2E/DX2 analytically  !
 ! A8    A(7,3,8)              109.6661         calculate D2E/DX2 analytically  !
 ! A9    A(1,4,5)              125.541          calculate D2E/DX2 analytically  !
 ! A10   A(1,4,9)              111.6884         calculate D2E/DX2 analytically  !
 ! A11   A(5,4,9)              122.7707         calculate D2E/DX2 analytically  !
 ! A12   A(2,5,4)              123.9602         calculate D2E/DX2 analytically  !
 ! A13   A(2,5,10)             112.3838         calculate D2E/DX2 analytically  !
 ! A14   A(4,5,10)             123.6561         calculate D2E/DX2 analytically  !
 ! D1    D(4,1,3,6)            -60.1071         calculate D2E/DX2 analytically  !
 ! D2    D(4,1,3,7)             60.3361         calculate D2E/DX2 analytically  !
 ! D3    D(4,1,3,8)           -179.8486         calculate D2E/DX2 analytically  !
 ! D4    D(3,1,4,5)              0.0278         calculate D2E/DX2 analytically  !
 ! D5    D(3,1,4,9)           -179.9581         calculate D2E/DX2 analytically  !
 ! D6    D(11,2,5,4)             0.0041         calculate D2E/DX2 analytically  !
 ! D7    D(11,2,5,10)          179.9939         calculate D2E/DX2 analytically  !
 ! D8    D(1,4,5,2)           -179.9982         calculate D2E/DX2 analytically  !
 ! D9    D(1,4,5,10)             0.013          calculate D2E/DX2 analytically  !
 ! D10   D(9,4,5,2)             -0.0138         calculate D2E/DX2 analytically  !
 ! D11   D(9,4,5,10)           179.9974         calculate D2E/DX2 analytically  !
 --------------------------------------------------------------------------------
 Trust Radius=3.00D-01 FncErr=1.00D-07 GrdErr=1.00D-06 EigMax=2.50D+02 EigMin=1.00D-04
 Number of steps in this run=    100 maximum allowed number of steps=    100.
 GradGradGradGradGradGradGradGradGradGradGradGradGradGradGradGradGradGrad

 Leave Link  103 at Wed Sep 25 09:58:11 2019, MaxMem=   671088640 cpu:               1.7 elap:               0.9
 (Enter /shared/centos7/gaussian/g16/l202.exe)
                          Input orientation:                          
 ---------------------------------------------------------------------
 Center     Atomic      Atomic             Coordinates (Angstroms)
 Number     Number       Type             X           Y           Z
 ---------------------------------------------------------------------
      1          8           0        0.154540   -0.647491    1.384500
      2          8           0        0.501218    2.800398    0.159815
      3          6           0       -1.185541   -0.830386    0.921791
      4          6           0        0.643289    0.616554    1.079711
      5          6           0       -0.016143    1.556547    0.445255
      6          1           0       -1.878115   -0.077155    1.396570
      7          1           0       -1.241524   -0.712234   -0.197850
      8          1           0       -1.494261   -1.838174    1.200260
      9          1           0        1.663790    0.749334    1.433796
     10          1           0       -1.018352    1.441494    0.091402
     11          1           0        1.448207    2.819329    0.529772
 ---------------------------------------------------------------------
                    Distance matrix (angstroms):
                    1          2          3          4          5
     1  O    0.000000
     2  O    3.675320   0.000000
     3  C    1.429464   4.075335   0.000000
     4  C    1.389094   2.373935   2.337348   0.000000
     5  C    2.401895   1.377063   2.700376   1.311858   0.000000
     6  H    2.111189   3.933332   1.128020   2.634220   2.653474
     7  H    2.111165   3.937468   1.127250   2.636354   2.657539
     8  H    2.042111   5.155658   1.090179   3.257199   3.778757
     9  H    2.057033   2.679826   3.297931   1.088314   2.109735
    10  H    2.722433   2.039704   2.424652   2.101983   1.069052
    11  H    3.797759   1.016866   4.517823   2.408846   1.935479
                    6          7          8          9         10
     6  H    0.000000
     7  H    1.830505   0.000000
     8  H    1.813028   1.812824   0.000000
     9  H    3.637247   3.638585   4.089379   0.000000
    10  H    2.179209   2.184495   3.494607   3.078148   0.000000
    11  H    4.495039   4.498447   5.549775   2.269056   2.859110
                   11
    11  H    0.000000
 Stoichiometry    C3H6O2
 Framework group  C1[X(C3H6O2)]
 Deg. of freedom    27
 Full point group                 C1      NOp   1
 Largest Abelian subgroup         C1      NOp   1
 Largest concise Abelian subgroup C1      NOp   1
                         Standard orientation:                         
 ---------------------------------------------------------------------
 Center     Atomic      Atomic             Coordinates (Angstroms)
 Number     Number       Type             X           Y           Z
 ---------------------------------------------------------------------
      1          8           0       -1.296961    0.704715   -0.000142
      2          8           0        2.241581   -0.288612    0.000054
      3          6           0       -1.819788   -0.625706    0.000275
      4          6           0        0.092061    0.718924   -0.000024
      5          6           0        0.865503   -0.340680   -0.000104
      6          1           0       -1.476352   -1.189888   -0.914153
      7          1           0       -1.480610   -1.188256    0.916346
      8          1           0       -2.907398   -0.550954   -0.002594
      9          1           0        0.483891    1.734255    0.000396
     10          1           0        0.496066   -1.343869   -0.000474
     11          1           0        2.500785    0.694662    0.000303
 ---------------------------------------------------------------------
 Rotational constants (GHZ):          16.1113002           2.8429147           2.4561705
 Leave Link  202 at Wed Sep 25 09:58:13 2019, MaxMem=   671088640 cpu:               4.1 elap:               2.1
 (Enter /shared/centos7/gaussian/g16/l301.exe)
 Standard basis: CC-pVTZ (5D, 7F)
 Ernie: Thresh=  0.10000D-02 Tol=  0.10000D-05 Strict=F.
 Ernie:  15 primitive shells out of 178 were deleted.
 There are   265 symmetry adapted cartesian basis functions of A   symmetry.
 There are   234 symmetry adapted basis functions of A   symmetry.
   234 basis functions,   362 primitive gaussians,   265 cartesian basis functions
    20 alpha electrons       20 beta electrons
       nuclear repulsion energy       175.3987619303 Hartrees.
 IExCor= 4336 DFT=T Ex+Corr=M062X ExCW=0 ScaHFX=  0.540000
 ScaDFX=  1.000000  1.000000  1.000000  1.000000 ScalE2=  1.000000  1.000000
 IRadAn=      5 IRanWt=     -1 IRanGd=            0 ICorTp=0 IEmpDi=  4
 NAtoms=   11 NActive=   11 NUniq=   11 SFac= 1.00D+00 NAtFMM=   60 NAOKFM=F Big=F
 Integral buffers will be    131072 words long.
 Raffenetti 2 integral format.
 Two-electron integral symmetry is turned on.
 Leave Link  301 at Wed Sep 25 09:58:14 2019, MaxMem=   671088640 cpu:               1.9 elap:               1.0
 (Enter /shared/centos7/gaussian/g16/l302.exe)
 NPDir=0 NMtPBC=     1 NCelOv=     1 NCel=       1 NClECP=     1 NCelD=      1
         NCelK=      1 NCelE2=     1 NClLst=     1 CellRange=     0.0.
 One-electron integrals computed using PRISM.
 One-electron integral symmetry used in STVInt
 NBasis=   234 RedAO= T EigKep=  3.62D-04  NBF=   234
 NBsUse=   234 1.00D-06 EigRej= -1.00D+00 NBFU=   234
 Precomputing XC quadrature grid using
 IXCGrd= 4 IRadAn=           5 IRanWt=          -1 IRanGd=           0 AccXCQ= 0.00D+00.
 Generated NRdTot=       0 NPtTot=           0 NUsed=           0 NTot=          32
 NSgBfM=   265   265   265   265   265 MxSgAt=    11 MxSgA2=    11.
 Leave Link  302 at Wed Sep 25 09:59:08 2019, MaxMem=   671088640 cpu:             107.3 elap:              53.7
 (Enter /shared/centos7/gaussian/g16/l303.exe)
 DipDrv:  MaxL=1.
 Leave Link  303 at Wed Sep 25 09:59:14 2019, MaxMem=   671088640 cpu:              11.3 elap:               5.6
 (Enter /shared/centos7/gaussian/g16/l401.exe)
 ExpMin= 1.03D-01 ExpMax= 1.53D+04 ExpMxC= 5.22D+02 IAcc=3 IRadAn=         5 AccDes= 0.00D+00
 Harris functional with IExCor= 1009 and IRadAn=       5 diagonalized for initial guess.
 HarFok:  IExCor= 1009 AccDes= 0.00D+00 IRadAn=         5 IDoV= 1 UseB2=F ITyADJ=14
 ICtDFT=  3500011 ScaDFX=  1.000000  1.000000  1.000000  1.000000
 FoFCou: FMM=F IPFlag=           0 FMFlag=      100000 FMFlg1=           0
         NFxFlg=           0 DoJE=T BraDBF=F KetDBF=T FulRan=T
         wScrn=  0.000000 ICntrl=       500 IOpCl=  0 I1Cent=   200000004 NGrid=           0
         NMat0=    1 NMatS0=      1 NMatT0=    0 NMatD0=    1 NMtDS0=    0 NMtDT0=    0
 Petite list used in FoFCou.
 Harris En= -268.198350955789    
 JPrj=0 DoOrth=F DoCkMO=F.
 Leave Link  401 at Wed Sep 25 09:59:40 2019, MaxMem=   671088640 cpu:              51.9 elap:              26.0
 (Enter /shared/centos7/gaussian/g16/l502.exe)
 Keep R1 ints in memory in canonical form, NReq=399924305.
 FoFCou: FMM=F IPFlag=           0 FMFlag=           0 FMFlg1=           0
         NFxFlg=           0 DoJE=F BraDBF=F KetDBF=F FulRan=T
         wScrn=  0.000000 ICntrl=       600 IOpCl=  0 I1Cent=           0 NGrid=           0
         NMat0=    1 NMatS0=  27495 NMatT0=    0 NMatD0=    1 NMtDS0=    0 NMtDT0=    0
 Symmetry not used in FoFCou.
 Two-electron integral symmetry not used.
 Closed shell SCF:
 Using DIIS extrapolation, IDIIS=  1040.
 NGot=   671088640 LenX=   292939207 LenY=   292868541
 Requested convergence on RMS density matrix=1.00D-08 within 900 cycles.
 Requested convergence on MAX density matrix=1.00D-06.
 Requested convergence on             energy=1.00D-06.
 No special actions if energy rises.
 Integral accuracy reduced to 1.0D-05 until final iterations.

 Cycle   1  Pass 0  IDiag  1:
 E= -268.189926908423    
 DIIS: error= 2.37D-02 at cycle   1 NSaved=   1.
 NSaved= 1 IEnMin= 1 EnMin= -268.189926908423     IErMin= 1 ErrMin= 2.37D-02
 ErrMax= 2.37D-02  0.00D+00 EMaxC= 1.00D-01 BMatC= 1.70D-01 BMatP= 1.70D-01
 IDIUse=3 WtCom= 7.63D-01 WtEn= 2.37D-01
 Coeff-Com:  0.100D+01
 Coeff-En:   0.100D+01
 Coeff:      0.100D+01
 Gap=     0.359 Goal=   None    Shift=    0.000
 GapD=    0.359 DampG=1.000 DampE=0.500 DampFc=0.5000 IDamp=-1.
 Damping current iteration by 5.00D-01
 RMSDP=1.95D-03 MaxDP=6.37D-02              OVMax= 1.16D-01

 Cycle   2  Pass 0  IDiag  1:
 E= -268.254331660939     Delta-E=       -0.064404752515 Rises=F Damp=T
 DIIS: error= 6.53D-03 at cycle   2 NSaved=   2.
 NSaved= 2 IEnMin= 2 EnMin= -268.254331660939     IErMin= 2 ErrMin= 6.53D-03
 ErrMax= 6.53D-03  0.00D+00 EMaxC= 1.00D-01 BMatC= 1.65D-02 BMatP= 1.70D-01
 IDIUse=3 WtCom= 9.35D-01 WtEn= 6.53D-02
 Coeff-Com: -0.175D+00 0.118D+01
 Coeff-En:   0.000D+00 0.100D+01
 Coeff:     -0.164D+00 0.116D+01
 Gap=     0.333 Goal=   None    Shift=    0.000
 RMSDP=3.89D-04 MaxDP=9.16D-03 DE=-6.44D-02 OVMax= 5.32D-02

 Cycle   3  Pass 0  IDiag  1:
 E= -268.310757945957     Delta-E=       -0.056426285019 Rises=F Damp=F
 DIIS: error= 4.03D-03 at cycle   3 NSaved=   3.
 NSaved= 3 IEnMin= 3 EnMin= -268.310757945957     IErMin= 3 ErrMin= 4.03D-03
 ErrMax= 4.03D-03  0.00D+00 EMaxC= 1.00D-01 BMatC= 3.42D-03 BMatP= 1.65D-02
 IDIUse=3 WtCom= 9.60D-01 WtEn= 4.03D-02
 Coeff-Com: -0.113D+00 0.376D+00 0.737D+00
 Coeff-En:   0.000D+00 0.000D+00 0.100D+01
 Coeff:     -0.109D+00 0.361D+00 0.748D+00
 Gap=     0.334 Goal=   None    Shift=    0.000
 RMSDP=1.65D-04 MaxDP=5.85D-03 DE=-5.64D-02 OVMax= 1.92D-02

 Cycle   4  Pass 0  IDiag  1:
 E= -268.312321923380     Delta-E=       -0.001563977423 Rises=F Damp=F
 DIIS: error= 1.87D-03 at cycle   4 NSaved=   4.
 NSaved= 4 IEnMin= 4 EnMin= -268.312321923380     IErMin= 4 ErrMin= 1.87D-03
 ErrMax= 1.87D-03  0.00D+00 EMaxC= 1.00D-01 BMatC= 9.04D-04 BMatP= 3.42D-03
 IDIUse=3 WtCom= 9.81D-01 WtEn= 1.87D-02
 Coeff-Com: -0.380D-01 0.965D-01 0.387D+00 0.554D+00
 Coeff-En:   0.000D+00 0.000D+00 0.217D+00 0.783D+00
 Coeff:     -0.373D-01 0.947D-01 0.384D+00 0.558D+00
 Gap=     0.329 Goal=   None    Shift=    0.000
 RMSDP=7.82D-05 MaxDP=2.95D-03 DE=-1.56D-03 OVMax= 9.35D-03

 Cycle   5  Pass 0  IDiag  1:
 E= -268.313014428018     Delta-E=       -0.000692504639 Rises=F Damp=F
 DIIS: error= 2.69D-04 at cycle   5 NSaved=   5.
 NSaved= 5 IEnMin= 5 EnMin= -268.313014428018     IErMin= 5 ErrMin= 2.69D-04
 ErrMax= 2.69D-04  0.00D+00 EMaxC= 1.00D-01 BMatC= 1.77D-05 BMatP= 9.04D-04
 IDIUse=3 WtCom= 9.97D-01 WtEn= 2.69D-03
 Coeff-Com: -0.574D-02 0.112D-01 0.853D-01 0.193D+00 0.716D+00
 Coeff-En:   0.000D+00 0.000D+00 0.000D+00 0.000D+00 0.100D+01
 Coeff:     -0.572D-02 0.112D-01 0.851D-01 0.192D+00 0.717D+00
 Gap=     0.329 Goal=   None    Shift=    0.000
 RMSDP=1.43D-05 MaxDP=4.37D-04 DE=-6.93D-04 OVMax= 1.82D-03

 Cycle   6  Pass 0  IDiag  1:
 E= -268.313027956147     Delta-E=       -0.000013528128 Rises=F Damp=F
 DIIS: error= 8.01D-05 at cycle   6 NSaved=   6.
 NSaved= 6 IEnMin= 6 EnMin= -268.313027956147     IErMin= 6 ErrMin= 8.01D-05
 ErrMax= 8.01D-05  0.00D+00 EMaxC= 1.00D-01 BMatC= 2.77D-06 BMatP= 1.77D-05
 IDIUse=1 WtCom= 1.00D+00 WtEn= 0.00D+00
 Coeff-Com: -0.116D-02 0.112D-02 0.265D-01 0.773D-01 0.378D+00 0.518D+00
 Coeff:     -0.116D-02 0.112D-02 0.265D-01 0.773D-01 0.378D+00 0.518D+00
 Gap=     0.330 Goal=   None    Shift=    0.000
 RMSDP=4.44D-06 MaxDP=1.34D-04 DE=-1.35D-05 OVMax= 4.95D-04

 Initial convergence to 1.0D-05 achieved.  Increase integral accuracy.
 Cycle   7  Pass 1  IDiag  1:
 E= -268.313055769226     Delta-E=       -0.000027813079 Rises=F Damp=F
 DIIS: error= 2.25D-05 at cycle   1 NSaved=   1.
 NSaved= 1 IEnMin= 1 EnMin= -268.313055769226     IErMin= 1 ErrMin= 2.25D-05
 ErrMax= 2.25D-05  0.00D+00 EMaxC= 1.00D-01 BMatC= 2.67D-07 BMatP= 2.67D-07
 IDIUse=1 WtCom= 1.00D+00 WtEn= 0.00D+00
 Coeff-Com:  0.100D+01
 Coeff:      0.100D+01
 Gap=     0.330 Goal=   None    Shift=    0.000
 RMSDP=4.44D-06 MaxDP=1.34D-04 DE=-2.78D-05 OVMax= 1.98D-04

 Cycle   8  Pass 1  IDiag  1:
 E= -268.313055887463     Delta-E=       -0.000000118237 Rises=F Damp=F
 DIIS: error= 1.97D-05 at cycle   2 NSaved=   2.
 NSaved= 2 IEnMin= 2 EnMin= -268.313055887463     IErMin= 2 ErrMin= 1.97D-05
 ErrMax= 1.97D-05  0.00D+00 EMaxC= 1.00D-01 BMatC= 1.40D-07 BMatP= 2.67D-07
 IDIUse=1 WtCom= 1.00D+00 WtEn= 0.00D+00
 Coeff-Com:  0.385D+00 0.615D+00
 Coeff:      0.385D+00 0.615D+00
 Gap=     0.330 Goal=   None    Shift=    0.000
 RMSDP=1.34D-06 MaxDP=3.52D-05 DE=-1.18D-07 OVMax= 1.44D-04

 Cycle   9  Pass 1  IDiag  1:
 E= -268.313055963615     Delta-E=       -0.000000076152 Rises=F Damp=F
 DIIS: error= 1.02D-05 at cycle   3 NSaved=   3.
 NSaved= 3 IEnMin= 3 EnMin= -268.313055963615     IErMin= 3 ErrMin= 1.02D-05
 ErrMax= 1.02D-05  0.00D+00 EMaxC= 1.00D-01 BMatC= 3.35D-08 BMatP= 1.40D-07
 IDIUse=1 WtCom= 1.00D+00 WtEn= 0.00D+00
 Coeff-Com: -0.386D-01 0.321D+00 0.717D+00
 Coeff:     -0.386D-01 0.321D+00 0.717D+00
 Gap=     0.330 Goal=   None    Shift=    0.000
 RMSDP=5.18D-07 MaxDP=1.53D-05 DE=-7.62D-08 OVMax= 6.05D-05

 Cycle  10  Pass 1  IDiag  1:
 E= -268.313055989065     Delta-E=       -0.000000025451 Rises=F Damp=F
 DIIS: error= 1.25D-06 at cycle   4 NSaved=   4.
 NSaved= 4 IEnMin= 4 EnMin= -268.313055989065     IErMin= 4 ErrMin= 1.25D-06
 ErrMax= 1.25D-06  0.00D+00 EMaxC= 1.00D-01 BMatC= 4.67D-10 BMatP= 3.35D-08
 IDIUse=1 WtCom= 1.00D+00 WtEn= 0.00D+00
 Coeff-Com: -0.189D-01 0.848D-01 0.229D+00 0.705D+00
 Coeff:     -0.189D-01 0.848D-01 0.229D+00 0.705D+00
 Gap=     0.330 Goal=   None    Shift=    0.000
 RMSDP=7.83D-08 MaxDP=2.99D-06 DE=-2.55D-08 OVMax= 8.32D-06

 Cycle  11  Pass 1  IDiag  1:
 E= -268.313055989467     Delta-E=       -0.000000000402 Rises=F Damp=F
 DIIS: error= 5.53D-07 at cycle   5 NSaved=   5.
 NSaved= 5 IEnMin= 5 EnMin= -268.313055989467     IErMin= 5 ErrMin= 5.53D-07
 ErrMax= 5.53D-07  0.00D+00 EMaxC= 1.00D-01 BMatC= 1.20D-10 BMatP= 4.67D-10
 IDIUse=1 WtCom= 1.00D+00 WtEn= 0.00D+00
 Coeff-Com: -0.273D-02-0.183D-01-0.144D-01 0.321D+00 0.714D+00
 Coeff:     -0.273D-02-0.183D-01-0.144D-01 0.321D+00 0.714D+00
 Gap=     0.330 Goal=   None    Shift=    0.000
 RMSDP=3.62D-08 MaxDP=9.73D-07 DE=-4.02D-10 OVMax= 3.21D-06

 Cycle  12  Pass 1  IDiag  1:
 E= -268.313055989556     Delta-E=       -0.000000000089 Rises=F Damp=F
 DIIS: error= 2.41D-07 at cycle   6 NSaved=   6.
 NSaved= 6 IEnMin= 6 EnMin= -268.313055989556     IErMin= 6 ErrMin= 2.41D-07
 ErrMax= 2.41D-07  0.00D+00 EMaxC= 1.00D-01 BMatC= 1.09D-11 BMatP= 1.20D-10
 IDIUse=1 WtCom= 1.00D+00 WtEn= 0.00D+00
 Coeff-Com:  0.166D-02-0.198D-01-0.362D-01 0.375D-01 0.286D+00 0.731D+00
 Coeff:      0.166D-02-0.198D-01-0.362D-01 0.375D-01 0.286D+00 0.731D+00
 Gap=     0.330 Goal=   None    Shift=    0.000
 RMSDP=1.21D-08 MaxDP=4.14D-07 DE=-8.87D-11 OVMax= 1.37D-06

 Cycle  13  Pass 1  IDiag  1:
 E= -268.313055989570     Delta-E=       -0.000000000014 Rises=F Damp=F
 DIIS: error= 4.47D-08 at cycle   7 NSaved=   7.
 NSaved= 7 IEnMin= 7 EnMin= -268.313055989570     IErMin= 7 ErrMin= 4.47D-08
 ErrMax= 4.47D-08  0.00D+00 EMaxC= 1.00D-01 BMatC= 3.97D-13 BMatP= 1.09D-11
 IDIUse=1 WtCom= 1.00D+00 WtEn= 0.00D+00
 Coeff-Com:  0.614D-03-0.440D-02-0.876D-02-0.838D-02 0.378D-01 0.204D+00
 Coeff-Com:  0.779D+00
 Coeff:      0.614D-03-0.440D-02-0.876D-02-0.838D-02 0.378D-01 0.204D+00
 Coeff:      0.779D+00
 Gap=     0.330 Goal=   None    Shift=    0.000
 RMSDP=2.80D-09 MaxDP=8.41D-08 DE=-1.40D-11 OVMax= 1.97D-07

 SCF Done:  E(RM062X) =  -268.313055990     A.U. after   13 cycles
            NFock= 13  Conv=0.28D-08     -V/T= 2.0061
 KE= 2.666730936701D+02 PE=-9.790191401186D+02 EE= 2.686342285287D+02
 Leave Link  502 at Wed Sep 25 10:05:16 2019, MaxMem=   671088640 cpu:             664.4 elap:             336.4
 (Enter /shared/centos7/gaussian/g16/l801.exe)
 DoSCS=F DFT=T ScalE2(SS,OS)=  1.000000  1.000000
 Range of M.O.s used for correlation:     1   234
 NBasis=   234 NAE=    20 NBE=    20 NFC=     0 NFV=     0
 NROrb=    234 NOA=    20 NOB=    20 NVA=   214 NVB=   214

 **** Warning!!: The largest alpha MO coefficient is  0.12649145D+02

 Leave Link  801 at Wed Sep 25 10:05:17 2019, MaxMem=   671088640 cpu:               1.5 elap:               0.8
 (Enter /shared/centos7/gaussian/g16/l1101.exe)
 Using compressed storage, NAtomX=    11.
 Will process     12 centers per pass.
 Leave Link 1101 at Wed Sep 25 10:05:39 2019, MaxMem=   671088640 cpu:              45.0 elap:              22.5
 (Enter /shared/centos7/gaussian/g16/l1102.exe)
 Symmetrizing basis deriv contribution to polar:
 IMax=3 JMax=2 DiffMx= 0.00D+00
 Leave Link 1102 at Wed Sep 25 10:05:42 2019, MaxMem=   671088640 cpu:               5.2 elap:               2.6
 (Enter /shared/centos7/gaussian/g16/l1110.exe)
 Forming Gx(P) for the SCF density, NAtomX=    11.
 Integral derivatives from FoFJK, PRISM(SPDF).
 Do as many integral derivatives as possible in FoFJK.
 G2DrvN: MDV=     671087712.
 G2DrvN: will do    12 centers at a time, making    1 passes.
 Calling FoFCou, ICntrl=  3107 FMM=F I1Cent=   0 AccDes= 0.00D+00.
 FoFJK:  IHMeth= 1 ICntrl=    3107 DoSepK=F KAlg= 0 I1Cent=           0 FoldK=F
 IRaf=         0 NMat=       1 IRICut=       1 DoRegI=T DoRafI=F ISym2E= 0 IDoP0=0 IntGTp=1.
 FoFCou: FMM=F IPFlag=           0 FMFlag=      100000 FMFlg1=           0
         NFxFlg=           0 DoJE=F BraDBF=F KetDBF=F FulRan=T
         wScrn=  0.000000 ICntrl=      3107 IOpCl=  0 I1Cent=           0 NGrid=           0
         NMat0=    1 NMatS0=      1 NMatT0=    0 NMatD0=    1 NMtDS0=    0 NMtDT0=    0
 Symmetry not used in FoFCou.
 End of G2Drv F.D. properties file   721 does not exist.
 End of G2Drv F.D. properties file   722 does not exist.
 End of G2Drv F.D. properties file   788 does not exist.
 Leave Link 1110 at Wed Sep 25 10:12:38 2019, MaxMem=   671088640 cpu:             832.7 elap:             416.4
 (Enter /shared/centos7/gaussian/g16/l1002.exe)
 Minotr:  Closed shell wavefunction.
          IDoAtm=11111111111
          Direct CPHF calculation.
          Differentiating once with respect to nuclear coordinates.
          Requested convergence is 1.0D-08 RMS, and 1.0D-07 maximum.
          Secondary convergence is 1.0D-12 RMS, and 1.0D-12 maximum.
          NewPWx=T KeepS1=F KeepF1=F KeepIn=T MapXYZ=F SortEE=F KeepMc=T.
         3293 words used for storage of precomputed grid.
 Keep R1 ints in memory in canonical form, NReq=399865292.
 FoFCou: FMM=F IPFlag=           0 FMFlag=           0 FMFlg1=           0
         NFxFlg=           0 DoJE=F BraDBF=F KetDBF=F FulRan=T
         wScrn=  0.000000 ICntrl=       600 IOpCl=  0 I1Cent=           0 NGrid=           0
         NMat0=    1 NMatS0=  27495 NMatT0=    0 NMatD0=    1 NMtDS0=    0 NMtDT0=    0
 Symmetry not used in FoFCou.
 Two-electron integral symmetry not used.
          MDV=     671088640 using IRadAn=       1.
          Solving linear equations simultaneously, MaxMat=       0.
          There are    36 degrees of freedom in the 1st order CPHF.  IDoFFX=6 NUNeed=     0.
     30 vectors produced by pass  0 Test12= 1.19D-14 2.78D-09 XBig12= 6.52D-02 6.86D-02.
 AX will form    30 AO Fock derivatives at one time.
     30 vectors produced by pass  1 Test12= 1.19D-14 2.78D-09 XBig12= 7.78D-03 4.22D-02.
     30 vectors produced by pass  2 Test12= 1.19D-14 2.78D-09 XBig12= 2.39D-04 4.27D-03.
     30 vectors produced by pass  3 Test12= 1.19D-14 2.78D-09 XBig12= 3.88D-06 3.41D-04.
     30 vectors produced by pass  4 Test12= 1.19D-14 2.78D-09 XBig12= 2.47D-08 2.44D-05.
     30 vectors produced by pass  5 Test12= 1.19D-14 2.78D-09 XBig12= 9.86D-11 1.43D-06.
     22 vectors produced by pass  6 Test12= 1.19D-14 2.78D-09 XBig12= 4.18D-13 1.13D-07.
      5 vectors produced by pass  7 Test12= 1.19D-14 2.78D-09 XBig12= 1.71D-15 6.15D-09.
 InvSVY:  IOpt=1 It=  1 EMax= 8.88D-16
 Solved reduced A of dimension   207 with    30 vectors.
 End of Minotr F.D. properties file   721 does not exist.
 End of Minotr F.D. properties file   722 does not exist.
 End of Minotr F.D. properties file   788 does not exist.
 Leave Link 1002 at Wed Sep 25 10:23:19 2019, MaxMem=   671088640 cpu:            1280.3 elap:             640.1
 (Enter /shared/centos7/gaussian/g16/l601.exe)
 Copying SCF densities to generalized density rwf, IOpCl= 0 IROHF=0.

 **********************************************************************

            Population analysis using the SCF density.

 **********************************************************************

 Orbital symmetries:
       Occupied  (A) (A) (A) (A) (A) (A) (A) (A) (A) (A) (A) (A)
                 (A) (A) (A) (A) (A) (A) (A) (A)
       Virtual   (A) (A) (A) (A) (A) (A) (A) (A) (A) (A) (A) (A)
                 (A) (A) (A) (A) (A) (A) (A) (A) (A) (A) (A) (A)
                 (A) (A) (A) (A) (A) (A) (A) (A) (A) (A) (A) (A)
                 (A) (A) (A) (A) (A) (A) (A) (A) (A) (A) (A) (A)
                 (A) (A) (A) (A) (A) (A) (A) (A) (A) (A) (A) (A)
                 (A) (A) (A) (A) (A) (A) (A) (A) (A) (A) (A) (A)
                 (A) (A) (A) (A) (A) (A) (A) (A) (A) (A) (A) (A)
                 (A) (A) (A) (A) (A) (A) (A) (A) (A) (A) (A) (A)
                 (A) (A) (A) (A) (A) (A) (A) (A) (A) (A) (A) (A)
                 (A) (A) (A) (A) (A) (A) (A) (A) (A) (A) (A) (A)
                 (A) (A) (A) (A) (A) (A) (A) (A) (A) (A) (A) (A)
                 (A) (A) (A) (A) (A) (A) (A) (A) (A) (A) (A) (A)
                 (A) (A) (A) (A) (A) (A) (A) (A) (A) (A) (A) (A)
                 (A) (A) (A) (A) (A) (A) (A) (A) (A) (A) (A) (A)
                 (A) (A) (A) (A) (A) (A) (A) (A) (A) (A) (A) (A)
                 (A) (A) (A) (A) (A) (A) (A) (A) (A) (A) (A) (A)
                 (A) (A) (A) (A) (A) (A) (A) (A) (A) (A) (A) (A)
                 (A) (A) (A) (A) (A) (A) (A) (A) (A) (A)
 The electronic state is 1-A.
 Alpha  occ. eigenvalues --  -19.65374 -19.65144 -10.59509 -10.58509 -10.58377
 Alpha  occ. eigenvalues --   -1.17904  -1.16325  -0.85197  -0.79190  -0.68156
 Alpha  occ. eigenvalues --   -0.59861  -0.59467  -0.53972  -0.50431  -0.47713
 Alpha  occ. eigenvalues --   -0.46867  -0.46217  -0.40764  -0.39964  -0.27276
 Alpha virt. eigenvalues --    0.05691   0.07643   0.08375   0.09948   0.13286
 Alpha virt. eigenvalues --    0.14267   0.14341   0.16534   0.23433   0.26597
 Alpha virt. eigenvalues --    0.29414   0.30267   0.33825   0.34618   0.38149
 Alpha virt. eigenvalues --    0.39207   0.41495   0.42297   0.43360   0.44803
 Alpha virt. eigenvalues --    0.46860   0.47737   0.49800   0.51213   0.53041
 Alpha virt. eigenvalues --    0.53091   0.55684   0.57520   0.62056   0.63526
 Alpha virt. eigenvalues --    0.63738   0.69195   0.70734   0.71174   0.74809
 Alpha virt. eigenvalues --    0.75046   0.78733   0.81003   0.81640   0.86788
 Alpha virt. eigenvalues --    0.89706   0.89775   0.98635   0.99019   1.00748
 Alpha virt. eigenvalues --    1.01491   1.03739   1.04298   1.10009   1.12181
 Alpha virt. eigenvalues --    1.14205   1.16864   1.19480   1.20745   1.24409
 Alpha virt. eigenvalues --    1.26504   1.29595   1.32172   1.34331   1.36028
 Alpha virt. eigenvalues --    1.36628   1.39989   1.41354   1.47829   1.49135
 Alpha virt. eigenvalues --    1.49670   1.57144   1.58644   1.74628   1.76417
 Alpha virt. eigenvalues --    1.79900   1.87655   1.92050   1.93035   1.97376
 Alpha virt. eigenvalues --    2.03903   2.09539   2.14368   2.14803   2.21919
 Alpha virt. eigenvalues --    2.24000   2.30039   2.30906   2.32745   2.35315
 Alpha virt. eigenvalues --    2.43563   2.50850   2.53367   2.54410   2.56938
 Alpha virt. eigenvalues --    2.62349   2.63939   2.66946   2.74254   2.75568
 Alpha virt. eigenvalues --    2.76987   2.77800   2.82308   2.83906   2.85285
 Alpha virt. eigenvalues --    2.85637   2.89315   2.92806   2.95152   2.96869
 Alpha virt. eigenvalues --    2.98486   3.04433   3.04853   3.07530   3.08637
 Alpha virt. eigenvalues --    3.10486   3.15230   3.17677   3.20471   3.22010
 Alpha virt. eigenvalues --    3.22504   3.23697   3.26176   3.30705   3.31077
 Alpha virt. eigenvalues --    3.33918   3.35557   3.35815   3.35994   3.41513
 Alpha virt. eigenvalues --    3.43576   3.47359   3.49550   3.52731   3.54464
 Alpha virt. eigenvalues --    3.57864   3.61056   3.62074   3.69623   3.72393
 Alpha virt. eigenvalues --    3.73946   3.74092   3.78043   3.79226   3.80967
 Alpha virt. eigenvalues --    3.81659   3.83714   3.88129   3.88262   3.93389
 Alpha virt. eigenvalues --    3.96122   3.99423   4.00792   4.02597   4.04072
 Alpha virt. eigenvalues --    4.07711   4.13039   4.13647   4.22637   4.23514
 Alpha virt. eigenvalues --    4.26855   4.31034   4.39597   4.46137   4.46894
 Alpha virt. eigenvalues --    4.56289   4.58397   4.59306   4.61365   4.70377
 Alpha virt. eigenvalues --    4.76022   4.77788   4.84519   4.86052   4.90033
 Alpha virt. eigenvalues --    4.90442   4.90770   4.99879   5.03134   5.03975
 Alpha virt. eigenvalues --    5.06856   5.08028   5.18316   5.26164   5.28539
 Alpha virt. eigenvalues --    5.36353   5.41930   5.48182   5.50680   5.61363
 Alpha virt. eigenvalues --    5.71030   5.71948   5.78936   5.78979   5.86758
 Alpha virt. eigenvalues --    5.96621   6.02053   6.17683   6.26916   6.31508
 Alpha virt. eigenvalues --    6.39135   6.47782   6.58148   6.69417   6.70069
 Alpha virt. eigenvalues --    6.75969   6.76813   6.82477   6.87272   7.03295
 Alpha virt. eigenvalues --    7.12052   7.23792   7.28254   7.32253  10.46075
 Alpha virt. eigenvalues --   10.92410  11.65563  12.93475  13.96654
          Condensed to atoms (all electrons):
               1          2          3          4          5          6
     1  O    7.813010   0.003234   0.305750   0.362487  -0.072537  -0.046205
     2  O    0.003234   7.796812  -0.000042  -0.069238   0.343848  -0.000433
     3  C    0.305750  -0.000042   4.765235  -0.085031  -0.024627   0.389368
     4  C    0.362487  -0.069238  -0.085031   4.996239   0.514898  -0.004020
     5  C   -0.072537   0.343848  -0.024627   0.514898   4.964019   0.005846
     6  H   -0.046205  -0.000433   0.389368  -0.004020   0.005846   0.678771
     7  H   -0.046122  -0.000428   0.389729  -0.004039   0.005915  -0.079320
     8  H   -0.028701  -0.000004   0.397734   0.005634   0.001004  -0.030131
     9  H   -0.032788  -0.003096   0.007351   0.428144  -0.076185  -0.000093
    10  H   -0.005466  -0.032803   0.003581  -0.076212   0.426888  -0.000419
    11  H    0.000172   0.326266   0.000105  -0.006705  -0.052184  -0.000076
               7          8          9         10         11
     1  O   -0.046122  -0.028701  -0.032788  -0.005466   0.000172
     2  O   -0.000428  -0.000004  -0.003096  -0.032803   0.326266
     3  C    0.389729   0.397734   0.007351   0.003581   0.000105
     4  C   -0.004039   0.005634   0.428144  -0.076212  -0.006705
     5  C    0.005915   0.001004  -0.076185   0.426888  -0.052184
     6  H   -0.079320  -0.030131  -0.000093  -0.000419  -0.000076
     7  H    0.677690  -0.030181  -0.000087  -0.000380  -0.000074
     8  H   -0.030181   0.560842  -0.000251  -0.000192   0.000008
     9  H   -0.000087  -0.000251   0.534847   0.002495   0.004382
    10  H   -0.000380  -0.000192   0.002495   0.507288   0.007006
    11  H   -0.000074   0.000008   0.004382   0.007006   0.457690
 Mulliken charges:
               1
     1  O   -0.252836
     2  O   -0.364116
     3  C   -0.149154
     4  C   -0.062157
     5  C   -0.036886
     6  H    0.086713
     7  H    0.087297
     8  H    0.124237
     9  H    0.135280
    10  H    0.168212
    11  H    0.263410
 Sum of Mulliken charges =  -0.00000
 Mulliken charges with hydrogens summed into heavy atoms:
               1
     1  O   -0.252836
     2  O   -0.100706
     3  C    0.149093
     4  C    0.073123
     5  C    0.131326
 APT charges:
               1
     1  O   -0.148601
     2  O   -0.469276
     3  C   -0.877853
     4  C   -0.398719
     5  C   -0.329147
     6  H    0.233463
     7  H    0.234863
     8  H    0.521232
     9  H    0.387890
    10  H    0.317332
    11  H    0.528816
 Sum of APT charges =  -0.00000
 APT charges with hydrogens summed into heavy atoms:
               1
     1  O   -0.148601
     2  O    0.059540
     3  C    0.111705
     4  C   -0.010829
     5  C   -0.011815
 Electronic spatial extent (au):  <R**2>=            490.7418
 Charge=             -0.0000 electrons
 Dipole moment (field-independent basis, Debye):
    X=             -0.2681    Y=              0.0883    Z=              0.0011  Tot=              0.2823
 Quadrupole moment (field-independent basis, Debye-Ang):
   XX=            -30.3071   YY=            -28.1035   ZZ=            -32.3912
   XY=              7.2467   XZ=              0.0006   YZ=              0.0010
 Traceless Quadrupole moment (field-independent basis, Debye-Ang):
   XX=             -0.0398   YY=              2.1638   ZZ=             -2.1240
   XY=              7.2467   XZ=              0.0006   YZ=              0.0010
 Octapole moment (field-independent basis, Debye-Ang**2):
  XXX=             -3.4939  YYY=              3.1563  ZZZ=              0.0066  XYY=              6.0198
  XXY=              7.9576  XXZ=             -0.0018  XZZ=              0.1020  YZZ=             -0.2447
  YYZ=              0.0021  XYZ=              0.0049
 Hexadecapole moment (field-independent basis, Debye-Ang**3):
 XXXX=           -426.6520 YYYY=           -107.7501 ZZZZ=            -40.3340 XXXY=             34.7657
 XXXZ=              0.0419 YYYX=              0.5623 YYYZ=              0.0013 ZZZX=             -0.0089
 ZZZY=             -0.0071 XXYY=            -92.1749 XXZZ=            -85.6920 YYZZ=            -26.1784
 XXYZ=             -0.0004 YYXZ=             -0.0042 ZZXY=             -0.4077
 N-N= 1.753987619303D+02 E-N=-9.790191307703D+02  KE= 2.666730936701D+02
  Exact polarizability:   0.000   0.000   0.000   0.000   0.000   0.000
 Approx polarizability:  60.146  -5.460  57.932  -0.002   0.006  39.412
 No NMR shielding tensors so no spin-rotation constants.
 Leave Link  601 at Wed Sep 25 10:23:41 2019, MaxMem=   671088640 cpu:              45.3 elap:              22.7
 (Enter /shared/centos7/gaussian/g16/l701.exe)
 SCFChk:  SCF convergence  2.80D-09 required  1.00D-08
 ... and contract with generalized density number  0.
 Compute integral second derivatives.
 Entering OneElI...
 Calculate overlap and kinetic energy integrals
    NBasis = 265  MinDer = 2  MaxDer = 2
 Requested accuracy = 0.1000D-12
 PrmmSu-InSpLW:  IPartL=    0 NPrtUS=   20 NPrtUL=    1 DoSpLW=F IThBeg=    0 IThEnd=   19 NThAct=   20.
 PrsmSu:  NPrtUS=  20 ThrOK=T IAlg=1 NPAlg=1 LenDen=           0 ISkipM=0 DoSpLW=F IThBeg=    0 IThEnd=   19.
 Prism:   IPart=     0 DynPar=F LinDyn=F Incr=           1.
 PRISM was handed    33439232 working-precision words and  3726 shell-pairs
 PRISM was handed    33439232 working-precision words and  3726 shell-pairs
 PRISM was handed    33439232 working-precision words and  3726 shell-pairs
 PRISM was handed    33439232 working-precision words and  3726 shell-pairs
 PRISM was handed    33439232 working-precision words and  3726 shell-pairs
 PRISM was handed    33439232 working-precision words and  3726 shell-pairs
 PRISM was handed    33439232 working-precision words and  3726 shell-pairs
 PRISM was handed    33439232 working-precision words and  3726 shell-pairs
 PRISM was handed    33439232 working-precision words and  3726 shell-pairs
 PRISM was handed    33439232 working-precision words and  3726 shell-pairs
 PRISM was handed    33439232 working-precision words and  3726 shell-pairs
 PRISM was handed    33439232 working-precision words and  3726 shell-pairs
 PRISM was handed    33439232 working-precision words and  3726 shell-pairs
 PRISM was handed    33439232 working-precision words and  3726 shell-pairs
 PRISM was handed    33439232 working-precision words and  3726 shell-pairs
 PRISM was handed    33439232 working-precision words and  3726 shell-pairs
 PRISM was handed    33439232 working-precision words and  3726 shell-pairs
 PRISM was handed    33439232 working-precision words and  3726 shell-pairs
 IPart= 10 NShTot=         180 NBatch=          29 AvBLen=         6.2
 PRISM was handed    33439232 working-precision words and  3726 shell-pairs
 IPart= 16 NShTot=         164 NBatch=          25 AvBLen=         6.6
 IPart=  2 NShTot=         214 NBatch=          55 AvBLen=         3.9
 IPart=  6 NShTot=         193 NBatch=          37 AvBLen=         5.2
 PRISM was handed    33439232 working-precision words and  3726 shell-pairs
 IPart=  3 NShTot=         212 NBatch=          53 AvBLen=         4.0
 IPart=  1 NShTot=         220 NBatch=          60 AvBLen=         3.7
 IPart=  9 NShTot=         183 NBatch=          29 AvBLen=         6.3
 IPart=  0 NShTot=         224 NBatch=          64 AvBLen=         3.5
 IPart= 13 NShTot=         174 NBatch=          27 AvBLen=         6.4
 IPart=  7 NShTot=         189 NBatch=          33 AvBLen=         5.7
 IPart= 12 NShTot=         175 NBatch=          27 AvBLen=         6.5
 IPart= 17 NShTot=         164 NBatch=          25 AvBLen=         6.6
 IPart= 14 NShTot=         173 NBatch=          27 AvBLen=         6.4
 IPart= 11 NShTot=         178 NBatch=          28 AvBLen=         6.4
 IPart=  4 NShTot=         205 NBatch=          47 AvBLen=         4.4
 IPart=  8 NShTot=         185 NBatch=          29 AvBLen=         6.4
 IPart= 19 NShTot=         163 NBatch=          25 AvBLen=         6.5
 IPart=  5 NShTot=         196 NBatch=          40 AvBLen=         4.9
 IPart= 18 NShTot=         164 NBatch=          25 AvBLen=         6.6
 IPart= 15 NShTot=         170 NBatch=          25 AvBLen=         6.8
 PrSmSu:  NxtVal=             21.
 Entering OneElI...
 Calculate potential energy integrals
    NBasis = 265  MinDer = 2  MaxDer = 2
 Requested accuracy = 0.1000D-12
 PrmmSu-InSpLW:  IPartL=    0 NPrtUS=   20 NPrtUL=    1 DoSpLW=F IThBeg=    0 IThEnd=   19 NThAct=   20.
 PrsmSu:  NPrtUS=  20 ThrOK=T IAlg=1 NPAlg=1 LenDen=           0 ISkipM=0 DoSpLW=F IThBeg=    0 IThEnd=   19.
 Prism:   IPart=     0 DynPar=F LinDyn=F Incr=          19.
 PRISM was handed    33455388 working-precision words and  3536 shell-pairs
 PRISM was handed    33455388 working-precision words and  3536 shell-pairs
 PRISM was handed    33455388 working-precision words and  3536 shell-pairs
 PRISM was handed    33455388 working-precision words and  3536 shell-pairs
 PRISM was handed    33455388 working-precision words and  3536 shell-pairs
 PRISM was handed    33455388 working-precision words and  3536 shell-pairs
 PRISM was handed    33455388 working-precision words and  3536 shell-pairs
 PRISM was handed    33455388 working-precision words and  3536 shell-pairs
 PRISM was handed    33455388 working-precision words and  3536 shell-pairs
 PRISM was handed    33455388 working-precision words and  3536 shell-pairs
 PRISM was handed    33455388 working-precision words and  3536 shell-pairs
 PRISM was handed    33455388 working-precision words and  3536 shell-pairs
 PRISM was handed    33455388 working-precision words and  3536 shell-pairs
 PRISM was handed    33455388 working-precision words and  3536 shell-pairs
 PRISM was handed    33455388 working-precision words and  3536 shell-pairs
 PRISM was handed    33455388 working-precision words and  3536 shell-pairs
 PRISM was handed    33455388 working-precision words and  3536 shell-pairs
 PRISM was handed    33455388 working-precision words and  3536 shell-pairs
 PRISM was handed    33455388 working-precision words and  3536 shell-pairs
 PRISM was handed    33455388 working-precision words and  3536 shell-pairs
 IPart=  1 NShTot=        2310 NBatch=         210 AvBLen=        11.0
 IPart= 16 NShTot=        1771 NBatch=         161 AvBLen=        11.0
 IPart= 10 NShTot=        1881 NBatch=         171 AvBLen=        11.0
 IPart=  3 NShTot=        2178 NBatch=         198 AvBLen=        11.0
 IPart=  4 NShTot=        2090 NBatch=         190 AvBLen=        11.0
 IPart= 18 NShTot=        1771 NBatch=         161 AvBLen=        11.0
 IPart=  8 NShTot=        1903 NBatch=         173 AvBLen=        11.0
 IPart= 12 NShTot=        1826 NBatch=         166 AvBLen=        11.0
 IPart= 11 NShTot=        1870 NBatch=         170 AvBLen=        11.0
 IPart= 17 NShTot=        1771 NBatch=         161 AvBLen=        11.0
 IPart=  6 NShTot=        1958 NBatch=         178 AvBLen=        11.0
 IPart=  9 NShTot=        1881 NBatch=         171 AvBLen=        11.0
 IPart=  2 NShTot=        2233 NBatch=         203 AvBLen=        11.0
 IPart=  5 NShTot=        1991 NBatch=         181 AvBLen=        11.0
 IPart= 14 NShTot=        1793 NBatch=         163 AvBLen=        11.0
 IPart= 19 NShTot=        1771 NBatch=         161 AvBLen=        11.0
 IPart= 13 NShTot=        1815 NBatch=         165 AvBLen=        11.0
 IPart=  0 NShTot=        2409 NBatch=         219 AvBLen=        11.0
 IPart=  7 NShTot=        1903 NBatch=         173 AvBLen=        11.0
 IPart= 15 NShTot=        1771 NBatch=         161 AvBLen=        11.0
 PrSmSu:  NxtVal=            381.
 Polarizability after L701:
                1             2             3 
      1  0.000000D+00
      2  0.000000D+00  0.000000D+00
      3  0.000000D+00  0.000000D+00  0.000000D+00
 Dipole Derivatives after L701:
                 1             2             3             4             5 
      1  -0.891048D-01 -0.159362D+00  0.220769D-03 -0.288365D+00 -0.141773D+01
      2  -0.239282D+00 -0.105536D+00  0.267974D-04 -0.313131D+00 -0.725107D+00
      3   0.219863D-03  0.102349D-03 -0.251163D+00 -0.110304D-04 -0.155392D-03
                 6             7             8             9            10 
      1  -0.338408D-03 -0.973762D+00 -0.487135D+00 -0.100946D-02 -0.502739D+00
      2  -0.931262D-04 -0.567195D-01 -0.856292D+00  0.728466D-04 -0.405788D-02
      3  -0.394356D+00 -0.364817D-03  0.364735D-03 -0.803503D+00  0.690103D-05
                11            12            13            14            15 
      1   0.536253D-01  0.154687D-03 -0.375576D+00  0.289436D+00 -0.728098D-04
      2  -0.727872D+00 -0.336710D-04  0.807149D-01 -0.646202D+00 -0.164001D-03
      3  -0.335296D-03  0.344537D-01 -0.731936D-04 -0.136370D-03  0.343359D-01
                16            17            18            19            20 
      1  -0.579488D-01  0.292049D+00  0.321514D+00 -0.561102D-01  0.293278D+00
      2  -0.117509D+00  0.346200D+00  0.256282D+00 -0.115348D+00  0.346408D+00
      3  -0.958709D-01  0.166508D+00  0.412137D+00  0.947293D-01 -0.166728D+00
                21            22            23            24            25 
      1  -0.324209D+00  0.131437D+01 -0.484731D-01  0.351041D-02  0.221532D+00
      2  -0.257011D+00  0.193481D+00  0.145508D+00  0.455156D-03  0.255617D+00
      3   0.414292D+00  0.113760D-02 -0.217111D-03  0.103821D+00  0.323113D-04
                26            27            28            29            30 
      1   0.193072D+00 -0.461438D-04  0.106945D+00 -0.210242D+00 -0.712458D-04
      2   0.868464D+00  0.916082D-04  0.209201D+00  0.745799D+00  0.287963D-03
      3   0.308339D-03  0.736733D-01  0.132846D-03  0.148147D-03  0.992530D-01
                31            32            33 
      1   0.700763D+00  0.120148D+01  0.347368D-03
      2   0.107032D+00  0.608630D+00  0.857858D-04
      3   0.611291D-04  0.140524D-03  0.277056D+00
 Hessian after L701:
                1             2             3             4             5 
      1  0.369435D+01
      2 -0.247655D+01  0.870319D+01
      3 -0.243988D-04  0.273845D-02  0.152023D+02
      4  0.455888D+00 -0.198764D+00  0.441161D-04  0.283472D+01
      5 -0.236187D+00 -0.165121D+00 -0.192987D-04 -0.121004D+01  0.870078D+01
      6  0.463211D-04 -0.215025D-04 -0.206235D+00 -0.124210D-02 -0.134494D-02
      7 -0.561034D+01  0.313431D+01 -0.486212D-03  0.207800D+00  0.103543D-01
      8  0.288006D+01 -0.456617D-01 -0.360142D-02  0.533788D-02 -0.122319D+00
      9 -0.560234D-03 -0.349426D-02 -0.760919D+01 -0.464273D-04 -0.351699D-04
     10  0.110619D+01  0.357950D+00 -0.341436D-03  0.425365D-01 -0.335379D+00
     11  0.557704D+00 -0.822910D+01 -0.269045D-04 -0.217314D+00 -0.772091D-02
     12 -0.767857D-04 -0.775476D-04 -0.836556D+01 -0.313043D-05 -0.550458D-04
     13  0.987944D-01 -0.379043D+00  0.125369D-03  0.106680D+01  0.287093D+00
     14 -0.383553D+00  0.156118D+00 -0.768472D-04  0.411400D+00 -0.774175D+01
     15 -0.705060D-04  0.277961D-04  0.199134D+00  0.933153D-03  0.212978D-03
     16  0.933737D-01 -0.141938D+00 -0.377541D-01  0.182995D-01  0.457644D-02
     17 -0.841891D-01 -0.223780D+00  0.184949D+00  0.234968D-01 -0.161717D-01
     18 -0.363021D-01  0.143037D+00  0.377814D+00  0.305034D-01  0.265742D-02
     19  0.923266D-01 -0.141830D+00  0.370985D-01  0.184304D-01  0.458943D-02
     20 -0.843911D-01 -0.223691D+00 -0.184418D+00  0.234365D-01 -0.161433D-01
     21  0.357951D-01 -0.142760D+00  0.378203D+00 -0.305180D-01 -0.261485D-02
     22  0.213781D+00 -0.484467D-01  0.899898D-03  0.325776D-01 -0.669078D-02
     23 -0.103610D+00 -0.163830D+00  0.236169D-03  0.871783D-03 -0.705428D-02
     24  0.926324D-03  0.399702D-03  0.154179D-01  0.627340D-04 -0.150564D-04
     25 -0.186237D+00 -0.818250D-01  0.352208D-03 -0.234782D-01 -0.256579D-01
     26 -0.376797D-01  0.136449D+00  0.280892D-03 -0.703911D-01  0.798106D-01
     27  0.230082D-03  0.161464D-03  0.578994D-01  0.657416D-05  0.245507D-04
     28 -0.108957D-01 -0.238869D-01  0.693956D-04 -0.180471D+00 -0.103169D+00
     29 -0.784231D-01  0.756163D-01 -0.701210D-04 -0.581485D-01  0.105878D+00
     30  0.953474D-05 -0.911590D-05 -0.316524D-01 -0.127664D-03 -0.399788D-04
     31  0.527720D-01  0.215039D-04  0.166800D-04 -0.447310D+01  0.161051D+01
     32  0.468250D-01 -0.201851D-01  0.798296D-05  0.129011D+01 -0.810189D+00
     33  0.266421D-04 -0.178346D-05 -0.181166D-01  0.387256D-03  0.122939D-02
                6             7             8             9            10 
      6  0.132514D+02
      7 -0.156449D-03  0.128805D+02
      8 -0.271793D-04 -0.258008D+01  0.900545D+01
      9 -0.125610D+00  0.656384D-03  0.284439D-02  0.150702D+02
     10  0.240188D-03  0.266527D+00  0.231559D+00  0.472904D-03  0.706525D+01
     11 -0.164633D-03  0.124406D+00  0.461719D-03  0.776641D-03  0.270440D+01
     12  0.167545D+00  0.767298D-03  0.105486D-02  0.661571D-01  0.382219D-04
     13  0.734146D-03  0.197278D+00 -0.189770D-01  0.613257D-03 -0.517989D+01
     14  0.306934D-03  0.833473D-01 -0.193808D+00  0.142525D-03 -0.409226D+01
     15 -0.785156D+01  0.870258D-03  0.294264D-03 -0.133312D+00 -0.542406D-03
     16  0.188394D-01 -0.333038D+01 -0.299038D+00 -0.398995D+00 -0.236283D-01
     17  0.846545D-02 -0.450070D+00 -0.263060D+01  0.121849D+01  0.310867D-01
     18 -0.488346D-02 -0.566268D+00  0.111919D+01 -0.184846D+01  0.214702D-02
     19 -0.187524D-01 -0.333758D+01 -0.293413D+00  0.392022D+00 -0.234368D-01
     20 -0.841612D-02 -0.443354D+00 -0.263638D+01 -0.121901D+01  0.309945D-01
     21 -0.484563D-02  0.559233D+00 -0.111981D+01 -0.184537D+01 -0.244713D-02
     22  0.187737D-04 -0.138184D+01  0.112280D-01  0.591591D-02  0.159190D+00
     23 -0.183400D-05  0.855737D-01 -0.343610D+01  0.254823D-03  0.633589D-01
     24 -0.790040D-02  0.545249D-02  0.278455D-04 -0.344640D+01  0.298489D-03
     25 -0.389836D-04  0.512199D-01  0.108167D+00 -0.973874D-05 -0.360678D+01
     26  0.831291D-04  0.121793D+00  0.795280D-01  0.131902D-04  0.865261D+00
     27 -0.476272D-01 -0.130835D-04  0.345930D-05 -0.464950D-01  0.942652D-04
     28 -0.168156D-03  0.364723D-01 -0.483311D-01 -0.652319D-04  0.248794D+00
     29 -0.866720D-04 -0.110791D+00 -0.137708D-01  0.210442D-04  0.128119D+00
     30  0.521187D-01 -0.542260D-04  0.158118D-04 -0.736443D-01  0.444093D-04
     31  0.479271D-03  0.203244D-01  0.349220D-02 -0.326881D-05 -0.547450D-01
     32  0.120736D-02  0.245076D-01 -0.679399D-02  0.000000D+00  0.149007D-01
     33 -0.522242D+01  0.000000D+00  0.000000D+00 -0.782737D-02 -0.452760D-05
               11            12            13            14            15 
     11  0.137365D+02
     12 -0.249086D-02  0.243733D+02
     13 -0.422845D+01 -0.635920D-03  0.702634D+01
     14 -0.350089D+01  0.201814D-02  0.301972D+01  0.133726D+02
     15  0.209608D-02 -0.124006D+02 -0.506716D-03 -0.247512D-02  0.242338D+02
     16  0.129093D-01 -0.248688D-01  0.102392D+00  0.970535D-01 -0.441338D-01
     17  0.228673D-01 -0.147158D-01  0.124207D+00 -0.629814D-02 -0.315873D-02
     18  0.949544D-02 -0.313349D-01  0.168761D-01  0.242747D-01 -0.963155D-01
     19  0.129231D-01  0.245178D-01  0.102724D+00  0.963143D-01  0.431112D-01
     20  0.226202D-01  0.142987D-01  0.123445D+00 -0.691277D-02  0.286119D-02
     21 -0.979523D-02 -0.308236D-01 -0.177293D-01 -0.242798D-01 -0.955694D-01
     22  0.608111D-01  0.230604D-03  0.663387D-01 -0.379845D-02  0.387054D-04
     23 -0.251102D-01  0.521423D-04 -0.393651D-03 -0.206379D-01 -0.879065D-05
     24  0.775371D-04 -0.397146D-01  0.111938D-03 -0.532422D-05 -0.167104D-01
     25  0.865702D+00  0.432503D-04  0.238948D+00  0.112089D+00  0.127376D-03
     26 -0.162613D+01  0.115867D-04  0.121462D+00 -0.349672D+00 -0.666627D-03
     27  0.187961D-03 -0.395839D+01  0.160109D-03 -0.649321D-03  0.214535D+00
     28  0.175509D+00  0.335819D-04 -0.385804D+01  0.779041D+00  0.243578D-03
     29 -0.379978D+00 -0.759650D-04  0.924340D+00 -0.175180D+01  0.842956D-03
     30 -0.147837D-03  0.225940D+00  0.282091D-03  0.787907D-03 -0.414362D+01
     31 -0.686020D-01 -0.461390D-04  0.138310D+00 -0.119358D+00 -0.708145D-04
     32 -0.134876D-01 -0.201892D-04  0.265995D-01  0.430520D-01 -0.259933D-04
     33 -0.818794D-05 -0.652983D-02 -0.311554D-04 -0.438225D-04  0.902116D-01
               16            17            18            19            20 
     16  0.295662D+01
     17  0.254966D+00  0.252834D+01
     18  0.383158D+00 -0.129837D+01  0.207033D+01
     19  0.259047D+00 -0.364690D-02  0.307880D-01  0.296353D+01
     20 -0.391060D-02  0.273203D+00  0.421286D-01  0.249638D+00  0.253434D+01
     21 -0.271981D-01 -0.435868D-01 -0.472857D+00 -0.376783D+00  0.129992D+01
     22 -0.760462D-01  0.927433D-01  0.128067D+00 -0.753487D-01  0.927153D-01
     23  0.791550D-01  0.520726D-01 -0.455539D-01  0.790776D-01  0.524904D-01
     24  0.129787D+00 -0.568106D-01  0.146430D-01 -0.130829D+00  0.573926D-01
     25 -0.609331D-03  0.592466D-02  0.366050D-02 -0.560736D-03  0.598714D-02
     26  0.285104D-02  0.979471D-02  0.737482D-02  0.295894D-02  0.985507D-02
     27  0.109233D-02  0.199649D-02 -0.139134D-02 -0.111736D-02 -0.202613D-02
     28  0.404070D-03  0.223925D-02  0.430672D-02  0.305729D-03  0.219222D-02
     29 -0.856067D-02 -0.139815D-01 -0.924824D-02 -0.858250D-02 -0.139180D-01
     30 -0.506041D-03  0.235180D-02 -0.702642D-02  0.525023D-03 -0.233333D-02
     31  0.525145D-03  0.324190D-02  0.306306D-02  0.562790D-03  0.324719D-02
     32  0.193567D-02  0.454525D-02  0.501265D-02  0.197122D-02  0.454061D-02
     33  0.579301D-03  0.395556D-03 -0.515892D-03 -0.580449D-03 -0.394161D-03
               21            22            23            24            25 
     21  0.206681D+01
     22 -0.129341D+00  0.105391D+01
     23  0.461099D-01 -0.203653D+00  0.354736D+01
     24  0.133266D-01 -0.583628D-02 -0.108875D-02  0.347152D+01
     25 -0.370199D-02  0.344930D-02 -0.151972D-02  0.149254D-04  0.351108D+01
     26 -0.743490D-02  0.919973D-02  0.580231D-03  0.239493D-04 -0.981120D+00
     27 -0.138980D-02  0.000000D+00  0.156865D-05 -0.822542D-03 -0.446585D-03
     28 -0.423244D-02 -0.105766D-02  0.251279D-03  0.000000D+00 -0.124984D-01
     29  0.928407D-02 -0.118636D-01  0.126488D-03 -0.183632D-04  0.800289D-02
     30 -0.696795D-02  0.290388D-05 -0.151857D-05 -0.280530D-02  0.111722D-05
     31 -0.307719D-02  0.504752D-02  0.888320D-03  0.110826D-04  0.254711D-01
     32 -0.503169D-02  0.775518D-02  0.111136D-03  0.164136D-04 -0.157506D-01
     33 -0.517491D-03  0.346523D-05  0.000000D+00 -0.548269D-03 -0.208645D-05
               26            27            28            29            30 
     26  0.162624D+01
     27  0.288712D-03  0.380683D+01
     28  0.836414D-02 -0.415529D-05  0.374537D+01
     29  0.554181D-01  0.684797D-05 -0.859142D+00  0.187591D+01
     30  0.269371D-04 -0.294475D-02 -0.206187D-03 -0.683013D-03  0.401232D+01
     31 -0.427001D-01 -0.151555D-05  0.316246D-01  0.750487D-01  0.290394D-04
     32 -0.218734D-01  0.439435D-05  0.669306D-01  0.605053D-01  0.323420D-04
     33 -0.168127D-05 -0.202034D-01  0.227128D-04  0.274528D-04 -0.217180D-01
               31            32            33 
     31  0.425321D+01
     32 -0.146579D+01  0.759775D+00
     33 -0.400209D-03 -0.120264D-02  0.520818D+01
 Leave Link  701 at Wed Sep 25 10:24:06 2019, MaxMem=   671088640 cpu:              50.0 elap:              25.0
 (Enter /shared/centos7/gaussian/g16/l702.exe)
 L702 exits ... SP integral derivatives will be done elsewhere.
 Leave Link  702 at Wed Sep 25 10:24:07 2019, MaxMem=   671088640 cpu:               1.7 elap:               0.8
 (Enter /shared/centos7/gaussian/g16/l703.exe)
 Integral derivatives from FoFJK, PRISM(SPDF).
 Compute integral second derivatives, UseDBF=F ICtDFT=           0.
 ICntrl=    100147.
 Calling FoFJK, ICntrl=    100147 FMM=F ISym2X=0 I1Cent= 0 IOpClX= 0 NMat=1 NMatS=1 NMatT=0.
 FoFJK:  IHMeth= 1 ICntrl=  100147 DoSepK=F KAlg= 0 I1Cent=           0 FoldK=F
 IRaf=         0 NMat=       1 IRICut=       1 DoRegI=T DoRafI=F ISym2E= 0 IDoP0=0 IntGTp=1.
 FoFCou: FMM=F IPFlag=           0 FMFlag=      100000 FMFlg1=         800
         NFxFlg=           0 DoJE=F BraDBF=F KetDBF=F FulRan=T
         wScrn=  0.000000 ICntrl=    100147 IOpCl=  0 I1Cent=           0 NGrid=           0
         NMat0=    1 NMatS0=      1 NMatT0=    0 NMatD0=    1 NMtDS0=    0 NMtDT0=    0
 Symmetry not used in FoFCou.
 FoFCou:  KetSym=F NOpSet=  1 NOpAb=1 NOp=  1.
 FoFCou:  CnvScl= 1.00D+00 Thresh= 1.00D-08 IAcrcy=      12.
 PrismS was handed   670741520 working-precision words and  3625 shell-pairs
 FoFCou: LinMIO=F DoNuc=F BraDBF=F KetDBF=F HaveP=T PDBF=F HaveZ=T HaveW=F
         NIJTC =      10 NIJTAt=       0 NIJTCD=       0 NIJTT =      10
         IJTBeg=       1 IJTEnd=      10 KLTBeg=       1 KLTEnd=      10
         IPTBeg=       1 IPTEnd=      10 IPTBCv=       1 IPTECv=      10
         IZTBeg=       1 IZTEnd=      10 IZTBCv=       1 IZTECv=      10
         IWTBeg=      11 IWTEnd=      10 IWTBCv=      11 IWTECv=      10
         INTBeg=       1 INTEnd=       0 IFTBCv=       1 IFTECv=      10
 NCel replicated for PrismC:     1
 CoulSu-InSpLW:  IPartL=    0 NPrtUS=   20 NPrtUL=    1 DoSpLW=F IThBeg=    0 IThEnd=   19 NThAct=   20.
 CoulSu:  IncDef=  1024 NBBP=        6572125 NTPThr=   100 NPartT=   20 Incr=        1024 LDynOK=F GPUOK=T.
 CoulSu:  NPrtUS=  20 ThrOK=T IAlg=1 NPAlg=1 LenDen=           0 LWGrdD=           0 DoCopy=F ISkipM=0
          DoSpLW=F IThBeg=    0 IThEnd=   19.
 Enter PrismC:  IPart=  0 JobTyp=22 DoJE=F Cont=F.
 PrismC:  IPart=     0 DynPar=T LinDyn=F Incr=        1024 UseFst=F UseS4=T ISplat=2.
 PrismC was handed    33456593 working-precision words and  3625 shell-pairs
 Enter PrismC:  IPart=  4 JobTyp=22 DoJE=F Cont=F.
 Enter PrismC:  IPart=  8 JobTyp=22 DoJE=F Cont=F.
 PrismC:  IPart=     4 DynPar=T LinDyn=F Incr=        1024 UseFst=F UseS4=T ISplat=2.
 PrismC was handed    33456593 working-precision words and  3625 shell-pairs
 PrismC:  IPart=     8 DynPar=T LinDyn=F Incr=        1024 UseFst=F UseS4=T ISplat=2.
 PrismC was handed    33456593 working-precision words and  3625 shell-pairs
 Enter PrismC:  IPart=  6 JobTyp=22 DoJE=F Cont=F.
 PrismC:  IPart=     6 DynPar=T LinDyn=F Incr=        1024 UseFst=F UseS4=T ISplat=2.
 PrismC was handed    33456593 working-precision words and  3625 shell-pairs
 Enter PrismC:  IPart=  9 JobTyp=22 DoJE=F Cont=F.
 PrismC:  IPart=     9 DynPar=T LinDyn=F Incr=        1024 UseFst=F UseS4=T ISplat=2.
 PrismC was handed    33456593 working-precision words and  3625 shell-pairs
 Enter PrismC:  IPart= 15 JobTyp=22 DoJE=F Cont=F.
 PrismC:  IPart=    15 DynPar=T LinDyn=F Incr=        1024 UseFst=F UseS4=T ISplat=2.
 PrismC was handed    33456593 working-precision words and  3625 shell-pairs
 Enter PrismC:  IPart=  2 JobTyp=22 DoJE=F Cont=F.
 PrismC:  IPart=     2 DynPar=T LinDyn=F Incr=        1024 UseFst=F UseS4=T ISplat=2.
 PrismC was handed    33456593 working-precision words and  3625 shell-pairs
 Enter PrismC:  IPart=  7 JobTyp=22 DoJE=F Cont=F.
 PrismC:  IPart=     7 DynPar=T LinDyn=F Incr=        1024 UseFst=F UseS4=T ISplat=2.
 PrismC was handed    33456593 working-precision words and  3625 shell-pairs
 Enter PrismC:  IPart=  5 JobTyp=22 DoJE=F Cont=F.
 PrismC:  IPart=     5 DynPar=T LinDyn=F Incr=        1024 UseFst=F UseS4=T ISplat=2.
 PrismC was handed    33456593 working-precision words and  3625 shell-pairs
 Enter PrismC:  IPart= 11 JobTyp=22 DoJE=F Cont=F.
 PrismC:  IPart=    11 DynPar=T LinDyn=F Incr=        1024 UseFst=F UseS4=T ISplat=2.
 PrismC was handed    33456593 working-precision words and  3625 shell-pairs
 Enter PrismC:  IPart= 16 JobTyp=22 DoJE=F Cont=F.
 PrismC:  IPart=    16 DynPar=T LinDyn=F Incr=        1024 UseFst=F UseS4=T ISplat=2.
 PrismC was handed    33456593 working-precision words and  3625 shell-pairs
 Enter PrismC:  IPart=  1 JobTyp=22 DoJE=F Cont=F.
 PrismC:  IPart=     1 DynPar=T LinDyn=F Incr=        1024 UseFst=F UseS4=T ISplat=2.
 PrismC was handed    33456593 working-precision words and  3625 shell-pairs
 Enter PrismC:  IPart=  3 JobTyp=22 DoJE=F Cont=F.
 PrismC:  IPart=     3 DynPar=T LinDyn=F Incr=        1024 UseFst=F UseS4=T ISplat=2.
 PrismC was handed    33456593 working-precision words and  3625 shell-pairs
 Enter PrismC:  IPart= 17 JobTyp=22 DoJE=F Cont=F.
 PrismC:  IPart=    17 DynPar=T LinDyn=F Incr=        1024 UseFst=F UseS4=T ISplat=2.
 PrismC was handed    33456593 working-precision words and  3625 shell-pairs
 Enter PrismC:  IPart= 19 JobTyp=22 DoJE=F Cont=F.
 PrismC:  IPart=    19 DynPar=T LinDyn=F Incr=        1024 UseFst=F UseS4=T ISplat=2.
 PrismC was handed    33456593 working-precision words and  3625 shell-pairs
 Enter PrismC:  IPart= 13 JobTyp=22 DoJE=F Cont=F.
 PrismC:  IPart=    13 DynPar=T LinDyn=F Incr=        1024 UseFst=F UseS4=T ISplat=2.
 PrismC was handed    33456593 working-precision words and  3625 shell-pairs
 Enter PrismC:  IPart= 18 JobTyp=22 DoJE=F Cont=F.
 PrismC:  IPart=    18 DynPar=T LinDyn=F Incr=        1024 UseFst=F UseS4=T ISplat=2.
 PrismC was handed    33456593 working-precision words and  3625 shell-pairs
 Enter PrismC:  IPart= 12 JobTyp=22 DoJE=F Cont=F.
 PrismC:  IPart=    12 DynPar=T LinDyn=F Incr=        1024 UseFst=F UseS4=T ISplat=2.
 PrismC was handed    33456593 working-precision words and  3625 shell-pairs
 Enter PrismC:  IPart= 14 JobTyp=22 DoJE=F Cont=F.
 PrismC:  IPart=    14 DynPar=T LinDyn=F Incr=        1024 UseFst=F UseS4=T ISplat=2.
 PrismC was handed    33456593 working-precision words and  3625 shell-pairs
 Enter PrismC:  IPart= 10 JobTyp=22 DoJE=F Cont=F.
 PrismC:  IPart=    10 DynPar=T LinDyn=F Incr=        1024 UseFst=F UseS4=T ISplat=2.
 PrismC was handed    33456593 working-precision words and  3625 shell-pairs
 IPart=  5 NShTot=      190231 NShNF=      190231 NShFF=           0 MinMC=       7
           NShCPU=      190231 NBCPU=        8475 AvBCPU=        22.4
           NShGPU=           0 NBGPU=           0 AvBGPU=         0.0
 IPart=  2 NShTot=      174481 NShNF=      174481 NShFF=           0 MinMC=       7
           NShCPU=      174481 NBCPU=        7942 AvBCPU=        22.0
           NShGPU=           0 NBGPU=           0 AvBGPU=         0.0
 IPart= 16 NShTot=      252619 NShNF=      252619 NShFF=           0 MinMC=       7
           NShCPU=      252619 NBCPU=       11091 AvBCPU=        22.8
           NShGPU=           0 NBGPU=           0 AvBGPU=         0.0
 IPart=  3 NShTot=      263014 NShNF=      263014 NShFF=           0 MinMC=       7
           NShCPU=      263014 NBCPU=       10973 AvBCPU=        24.0
           NShGPU=           0 NBGPU=           0 AvBGPU=         0.0
 IPart= 19 NShTot=      256749 NShNF=      256749 NShFF=           0 MinMC=       7
           NShCPU=      256749 NBCPU=       10588 AvBCPU=        24.2
           NShGPU=           0 NBGPU=           0 AvBGPU=         0.0
 IPart= 14 NShTot=      253321 NShNF=      253321 NShFF=           0 MinMC=       7
           NShCPU=      253321 NBCPU=       10637 AvBCPU=        23.8
           NShGPU=           0 NBGPU=           0 AvBGPU=         0.0
 IPart=  8 NShTot=      259627 NShNF=      259627 NShFF=           0 MinMC=       7
           NShCPU=      259627 NBCPU=       10379 AvBCPU=        25.0
           NShGPU=           0 NBGPU=           0 AvBGPU=         0.0
 IPart=  1 NShTot=      195146 NShNF=      195146 NShFF=           0 MinMC=       7
           NShCPU=      195146 NBCPU=        7976 AvBCPU=        24.5
           NShGPU=           0 NBGPU=           0 AvBGPU=         0.0
 IPart= 15 NShTot=      189778 NShNF=      189778 NShFF=           0 MinMC=       7
           NShCPU=      189778 NBCPU=        8558 AvBCPU=        22.2
           NShGPU=           0 NBGPU=           0 AvBGPU=         0.0
 IPart=  4 NShTot=      269532 NShNF=      269532 NShFF=           0 MinMC=       7
           NShCPU=      269532 NBCPU=       11156 AvBCPU=        24.2
           NShGPU=           0 NBGPU=           0 AvBGPU=         0.0
 IPart=  9 NShTot=      193866 NShNF=      193866 NShFF=           0 MinMC=       7
           NShCPU=      193866 NBCPU=        8134 AvBCPU=        23.8
           NShGPU=           0 NBGPU=           0 AvBGPU=         0.0
 IPart= 13 NShTot=      252852 NShNF=      252852 NShFF=           0 MinMC=       7
           NShCPU=      252852 NBCPU=       10565 AvBCPU=        23.9
           NShGPU=           0 NBGPU=           0 AvBGPU=         0.0
 IPart= 11 NShTot=      268576 NShNF=      268576 NShFF=           0 MinMC=       7
           NShCPU=      268576 NBCPU=       10533 AvBCPU=        25.5
           NShGPU=           0 NBGPU=           0 AvBGPU=         0.0
 IPart= 18 NShTot=      256256 NShNF=      256256 NShFF=           0 MinMC=       7
           NShCPU=      256256 NBCPU=       10614 AvBCPU=        24.1
           NShGPU=           0 NBGPU=           0 AvBGPU=         0.0
 IPart=  6 NShTot=      195003 NShNF=      195003 NShFF=           0 MinMC=       7
           NShCPU=      195003 NBCPU=        8118 AvBCPU=        24.0
           NShGPU=           0 NBGPU=           0 AvBGPU=         0.0
 IPart= 12 NShTot=      264648 NShNF=      264648 NShFF=           0 MinMC=       7
           NShCPU=      264648 NBCPU=       10799 AvBCPU=        24.5
           NShGPU=           0 NBGPU=           0 AvBGPU=         0.0
 IPart=  0 NShTot=      255572 NShNF=      255572 NShFF=           0 MinMC=       7
           NShCPU=      255572 NBCPU=       10731 AvBCPU=        23.8
           NShGPU=           0 NBGPU=           0 AvBGPU=         0.0
 IPart= 10 NShTot=      194574 NShNF=      194574 NShFF=           0 MinMC=       7
           NShCPU=      194574 NBCPU=        8051 AvBCPU=        24.2
           NShGPU=           0 NBGPU=           0 AvBGPU=         0.0
 IPart= 17 NShTot=      192058 NShNF=      192058 NShFF=           0 MinMC=       7
           NShCPU=      192058 NBCPU=        8212 AvBCPU=        23.4
           NShGPU=           0 NBGPU=           0 AvBGPU=         0.0
 IPart=  7 NShTot=      191883 NShNF=      191883 NShFF=           0 MinMC=       7
           NShCPU=      191883 NBCPU=        8255 AvBCPU=        23.2
           NShGPU=           0 NBGPU=           0 AvBGPU=         0.0
 CoulSu:  NxtVal=        7008257 LenVP=       33456594 MinMC=       7.
 ReadGW:  IGet=0 IStart=           1 Next=           1 LGW=           0.
 Remaining memory in FofDFT      639.93 Mw
 CkSvGd:  ISavGI=        -1 IRadAn=       5 IRASav=       5 ISavGd=        -1.
 CalDSu-InSpLW:  IPartL=    0 NPrtUS=   20 NPrtUL=    1 DoSpLW=F IThBeg=    0 IThEnd=   19 NThAct=   20.
 CalDSu:  NPrtUS=  20 ThrOK=T IAlg=1 NPAlg=2 DoDPD=T LenP=       35245 LenD1P=             0 GPUOK=F
          ISkipM=0 DoSpLW=F IThBeg=    0 IThEnd=   19.
 IPart=  0 IRanGd=          0 ScrnBf=T ScrnGd=T RCrit=4.00D+00 DoMicB=T.
 IPart=  9        13358 of        15480 points in      18 batches and       89 microbatches, Max-NSigAt=      11 Max-NSgAt2=      11
 IPart=  4        12101 of        12642 points in      12 batches and       60 microbatches, Max-NSigAt=      11 Max-NSgAt2=      11
 IPart=  5         9499 of        10704 points in      12 batches and       59 microbatches, Max-NSigAt=      11 Max-NSgAt2=      11
 IPart=  8        12469 of        13106 points in      13 batches and       54 microbatches, Max-NSigAt=      11 Max-NSgAt2=      11
 IPart=  1         9520 of        10458 points in      11 batches and       77 microbatches, Max-NSigAt=      11 Max-NSgAt2=      11
 IPart= 17        10396 of        12180 points in      14 batches and       89 microbatches, Max-NSigAt=      11 Max-NSgAt2=      11
 IPart= 18        12586 of        13066 points in      12 batches and       58 microbatches, Max-NSigAt=      11 Max-NSgAt2=      11
 IPart= 13        12651 of        14598 points in      16 batches and       81 microbatches, Max-NSigAt=      11 Max-NSgAt2=      11
 IPart=  6        10835 of        12344 points in      13 batches and       61 microbatches, Max-NSigAt=      11 Max-NSgAt2=      11
 IPart= 19        12266 of        13262 points in      13 batches and       95 microbatches, Max-NSigAt=      11 Max-NSgAt2=      11
 IPart= 14         9679 of        10472 points in      10 batches and       77 microbatches, Max-NSigAt=      11 Max-NSgAt2=      11
 IPart=  3        12293 of        13446 points in      14 batches and       68 microbatches, Max-NSigAt=      11 Max-NSgAt2=      11
 IPart= 16        11932 of        12992 points in      13 batches and       65 microbatches, Max-NSigAt=      11 Max-NSgAt2=      11
 IPart=  0        10826 of        11360 points in      11 batches and       58 microbatches, Max-NSigAt=      11 Max-NSgAt2=      11
 IPart=  7         8718 of         9534 points in      11 batches and       62 microbatches, Max-NSigAt=      11 Max-NSgAt2=      11
 IPart= 15        10390 of        12524 points in      15 batches and       94 microbatches, Max-NSigAt=      11 Max-NSgAt2=      11
 IPart= 11        11438 of        12192 points in      12 batches and       39 microbatches, Max-NSigAt=      11 Max-NSgAt2=      11
 IPart= 12        13113 of        14516 points in      15 batches and       44 microbatches, Max-NSigAt=      11 Max-NSgAt2=      11
 IPart= 10        10390 of        11068 points in      10 batches and       50 microbatches, Max-NSigAt=      11 Max-NSgAt2=      11
 IPart=  2         9785 of        10456 points in      10 batches and       60 microbatches, Max-NSigAt=      11 Max-NSgAt2=      11
 Polarizability after L703:
                1             2             3 
      1  0.000000D+00
      2  0.000000D+00  0.000000D+00
      3  0.000000D+00  0.000000D+00  0.000000D+00
 Dipole Derivatives after L703:
                 1             2             3             4             5 
      1  -0.891048D-01 -0.159362D+00  0.220769D-03 -0.288365D+00 -0.141773D+01
      2  -0.239282D+00 -0.105536D+00  0.267974D-04 -0.313131D+00 -0.725107D+00
      3   0.219863D-03  0.102349D-03 -0.251163D+00 -0.110304D-04 -0.155392D-03
                 6             7             8             9            10 
      1  -0.338408D-03 -0.973762D+00 -0.487135D+00 -0.100946D-02 -0.502739D+00
      2  -0.931262D-04 -0.567195D-01 -0.856292D+00  0.728466D-04 -0.405788D-02
      3  -0.394356D+00 -0.364817D-03  0.364735D-03 -0.803503D+00  0.690103D-05
                11            12            13            14            15 
      1   0.536253D-01  0.154687D-03 -0.375576D+00  0.289436D+00 -0.728098D-04
      2  -0.727872D+00 -0.336710D-04  0.807149D-01 -0.646202D+00 -0.164001D-03
      3  -0.335296D-03  0.344537D-01 -0.731936D-04 -0.136370D-03  0.343359D-01
                16            17            18            19            20 
      1  -0.579488D-01  0.292049D+00  0.321514D+00 -0.561102D-01  0.293278D+00
      2  -0.117509D+00  0.346200D+00  0.256282D+00 -0.115348D+00  0.346408D+00
      3  -0.958709D-01  0.166508D+00  0.412137D+00  0.947293D-01 -0.166728D+00
                21            22            23            24            25 
      1  -0.324209D+00  0.131437D+01 -0.484731D-01  0.351041D-02  0.221532D+00
      2  -0.257011D+00  0.193481D+00  0.145508D+00  0.455156D-03  0.255617D+00
      3   0.414292D+00  0.113760D-02 -0.217111D-03  0.103821D+00  0.323113D-04
                26            27            28            29            30 
      1   0.193072D+00 -0.461438D-04  0.106945D+00 -0.210242D+00 -0.712458D-04
      2   0.868464D+00  0.916082D-04  0.209201D+00  0.745799D+00  0.287963D-03
      3   0.308339D-03  0.736733D-01  0.132846D-03  0.148147D-03  0.992530D-01
                31            32            33 
      1   0.700763D+00  0.120148D+01  0.347368D-03
      2   0.107032D+00  0.608630D+00  0.857858D-04
      3   0.611291D-04  0.140524D-03  0.277056D+00
 Hessian after L703:
                1             2             3             4             5 
      1  0.445241D+00
      2  0.595617D-01  0.369448D+00
      3 -0.584119D-05 -0.670629D-04  0.871721D-01
      4 -0.230277D-01 -0.167999D-02 -0.990860D-05  0.452958D+00
      5  0.126067D-02 -0.276007D-02 -0.400656D-05  0.600010D-01  0.433267D+00
      6 -0.293754D-05 -0.122932D-04  0.125099D-01  0.609672D-04  0.936819D-04
      7 -0.996955D-01 -0.142824D-01 -0.156700D-04  0.289392D-02 -0.161347D-02
      8 -0.520494D-01 -0.201465D+00  0.659259D-04  0.101988D-01 -0.236608D-02
      9  0.239135D-04  0.715738D-04 -0.664954D-01  0.416272D-05 -0.117081D-04
     10 -0.266396D+00 -0.145521D-01 -0.417520D-05 -0.355274D-01  0.359800D-01
     11  0.311347D-01 -0.104539D+00  0.517964D-05 -0.466134D-03  0.995924D-02
     12 -0.177397D-04  0.130842D-04 -0.434535D-01 -0.727685D-05  0.346991D-05
     13 -0.268918D-01  0.310573D-01  0.000000D+00 -0.306985D+00 -0.251960D-01
     14  0.749775D-02  0.901538D-02  0.368561D-05  0.209934D-01 -0.105963D+00
     15 -0.584958D-05  0.207727D-04  0.334593D-02 -0.263283D-04 -0.183421D-04
     16  0.193661D-02 -0.908847D-02 -0.113281D-01  0.600982D-03 -0.345200D-03
     17 -0.827404D-03 -0.338661D-01 -0.261926D-01 -0.112364D-02  0.152071D-03
     18 -0.414656D-02 -0.492525D-02  0.620252D-02 -0.771234D-03  0.758223D-03
     19  0.188066D-02 -0.908899D-02  0.113707D-01  0.598538D-03 -0.334427D-03
     20 -0.914760D-03 -0.337739D-01  0.262550D-01 -0.112809D-02  0.147482D-03
     21  0.414056D-02  0.490347D-02  0.624243D-02  0.770205D-03 -0.751785D-03
     22 -0.133034D-01 -0.448609D-02 -0.530334D-05 -0.615668D-03 -0.144503D-03
     23 -0.428291D-01 -0.420937D-02 -0.712428D-04 -0.676682D-03  0.840155D-03
     24  0.111111D-04 -0.295614D-05 -0.599719D-03  0.000000D+00  0.286891D-05
     25 -0.208098D-01 -0.352045D-01 -0.245246D-05  0.382005D-02  0.148358D-02
     26 -0.304855D-02  0.233201D-02  0.231634D-05 -0.829696D-03  0.270241D-02
     27  0.840876D-05 -0.537795D-05  0.391448D-03  0.579343D-05  0.283758D-05
     28 -0.364662D-03 -0.333027D-02  0.130262D-05 -0.193004D-01 -0.344372D-01
     29 -0.166533D-02  0.637442D-03  0.000000D+00 -0.286018D-02  0.292527D-02
     30 -0.731842D-05  0.538455D-05 -0.400315D-02 -0.287987D-05  0.000000D+00
     31  0.143100D-02  0.109377D-02  0.000000D+00 -0.754159D-01 -0.366545D-01
     32  0.187973D-02 -0.819009D-03  0.195560D-05 -0.824288D-01 -0.338904D+00
     33  0.224409D-05 -0.134437D-05 -0.131263D-02 -0.242877D-04 -0.747968D-04
                6             7             8             9            10 
      6  0.539026D-01
      7 -0.581696D-05  0.627054D+00
      8  0.692392D-05 -0.287728D-01  0.440843D+00
      9 -0.135621D-03  0.672536D-03 -0.728158D-03  0.494960D+00
     10  0.127736D-05 -0.371108D-01 -0.196284D-01 -0.335008D-04  0.665113D+00
     11  0.382796D-05 -0.462842D-01 -0.128998D-01 -0.873414D-05 -0.136602D+00
     12  0.413105D-02  0.438158D-05 -0.153989D-04 -0.242200D-05  0.443174D-04
     13 -0.323814D-04 -0.710408D-02  0.131191D-02 -0.269449D-04 -0.269694D+00
     14 -0.145247D-04 -0.444275D-03  0.769672D-02  0.205187D-04  0.211291D+00
     15 -0.373066D-01  0.768491D-05 -0.153934D-04 -0.606449D-03  0.106654D-04
     16  0.362144D-03 -0.792775D-01  0.301581D-01  0.543855D-01  0.474675D-02
     17  0.154152D-03  0.271724D-01 -0.909605D-01 -0.677512D-01  0.661217D-02
     18  0.110250D-03  0.509654D-01 -0.718947D-01 -0.188695D+00  0.121381D-02
[...]
     Eigenvalues ---    0.22501   0.31078   0.33039   0.33499   0.35245
     Eigenvalues ---    0.36308   0.37434   0.40546   0.44210   0.51139
     Eigenvalues ---    0.54165   0.65553
 Angle between quadratic step and forces=  73.24 degrees.
 Linear search not attempted -- first point.
 Iteration  1 RMS(Cart)=  0.00001830 RMS(Int)=  0.00000000
 Iteration  2 RMS(Cart)=  0.00000000 RMS(Int)=  0.00000000
 ITry= 1 IFail=0 DXMaxC= 4.41D-05 DCOld= 1.00D+10 DXMaxT= 3.00D-01 DXLimC= 3.00D+00 Rises=F
 Variable       Old X    -DE/DX   Delta X   Delta X   Delta X     New X
                                 (Linear)    (Quad)   (Total)
    R1        2.65860   0.00000   0.00000   0.00001   0.00001   2.65861
    R2        2.56838   0.00000   0.00000   0.00000   0.00000   2.56838
    R3        2.58763   0.00000   0.00000   0.00000   0.00000   2.58763
    R4        1.81657   0.00000   0.00000   0.00000   0.00000   1.81657
    R5        2.06763   0.00000   0.00000  -0.00000  -0.00000   2.06763
    R6        2.06763   0.00000   0.00000  -0.00000  -0.00000   2.06763
    R7        2.05178   0.00000   0.00000  -0.00000  -0.00000   2.05178
    R8        2.51126  -0.00000   0.00000  -0.00000  -0.00000   2.51125
    R9        2.04733  -0.00000   0.00000   0.00000   0.00000   2.04733
   R10        2.03837   0.00000   0.00000  -0.00000  -0.00000   2.03837
    A1        2.01872  -0.00000   0.00000  -0.00000  -0.00000   2.01872
    A2        1.91222  -0.00000   0.00000  -0.00000  -0.00000   1.91222
    A3        1.93529   0.00000   0.00000  -0.00000  -0.00000   1.93529
    A4        1.93529  -0.00000   0.00000  -0.00000  -0.00000   1.93529
    A5        1.86506   0.00000   0.00000  -0.00000  -0.00000   1.86506
    A6        1.90113  -0.00000   0.00000   0.00000   0.00000   1.90113
    A7        1.91341  -0.00000   0.00000  -0.00000  -0.00000   1.91341
    A8        1.91340   0.00000   0.00000   0.00000   0.00000   1.91341
    A9        2.21963   0.00000   0.00000   0.00000   0.00000   2.21963
   A10        1.94478   0.00000   0.00000  -0.00000  -0.00000   1.94478
   A11        2.11878  -0.00000   0.00000  -0.00000  -0.00000   2.11878
   A12        2.17288  -0.00000   0.00000  -0.00000  -0.00000   2.17288
   A13        1.94814   0.00000   0.00000   0.00000   0.00000   1.94814
   A14        2.16216   0.00000   0.00000   0.00000   0.00000   2.16216
    D1       -1.05712  -0.00000   0.00000  -0.00004  -0.00004  -1.05716
    D2        1.05720  -0.00000   0.00000  -0.00004  -0.00004   1.05716
    D3       -3.14155  -0.00000   0.00000  -0.00004  -0.00004   3.14159
    D4       -0.00004   0.00000   0.00000   0.00004   0.00004   0.00000
    D5        3.14156   0.00000   0.00000   0.00003   0.00003  -3.14159
    D6        0.00000   0.00000   0.00000  -0.00000  -0.00000   0.00000
    D7       -3.14159  -0.00000   0.00000  -0.00000  -0.00000  -3.14159
    D8       -3.14159  -0.00000   0.00000  -0.00000  -0.00000  -3.14159
    D9        0.00000  -0.00000   0.00000  -0.00000  -0.00000   0.00000
   D10       -0.00000  -0.00000   0.00000   0.00000   0.00000   0.00000
   D11        3.14159   0.00000   0.00000   0.00000   0.00000  -3.14159
         Item               Value     Threshold  Converged?
 Maximum Force            0.000002     0.000015     YES
 RMS     Force            0.000000     0.000010     YES
 Maximum Displacement     0.000044     0.000060     YES
 RMS     Displacement     0.000018     0.000040     YES
 Predicted change in Energy=-3.322812D-11
 Optimization completed.
    -- Stationary point found.
                           ----------------------------
                           !   Optimized Parameters   !
                           ! (Angstroms and Degrees)  !
 --------------------------                            --------------------------
 ! Name  Definition              Value          Derivative Info.                !
 --------------------------------------------------------------------------------
 ! R1    R(1,3)                  1.4069         -DE/DX =    0.0                 !
 ! R2    R(1,4)                  1.3591         -DE/DX =    0.0                 !
 ! R3    R(2,5)                  1.3693         -DE/DX =    0.0                 !
 ! R4    R(2,11)                 0.9613         -DE/DX =    0.0                 !
 ! R5    R(3,6)                  1.0941         -DE/DX =    0.0                 !
 ! R6    R(3,7)                  1.0941         -DE/DX =    0.0                 !
 ! R7    R(3,8)                  1.0858         -DE/DX =    0.0                 !
 ! R8    R(4,5)                  1.3289         -DE/DX =    0.0                 !
 ! R9    R(4,9)                  1.0834         -DE/DX =    0.0                 !
 ! R10   R(5,10)                 1.0787         -DE/DX =    0.0                 !
 ! A1    A(3,1,4)              115.6641         -DE/DX =    0.0                 !
 ! A2    A(5,2,11)             109.5623         -DE/DX =    0.0                 !
 ! A3    A(1,3,6)              110.8841         -DE/DX =    0.0                 !
 ! A4    A(1,3,7)              110.8842         -DE/DX =    0.0                 !
 ! A5    A(1,3,8)              106.86           -DE/DX =    0.0                 !
 ! A6    A(6,3,7)              108.9265         -DE/DX =    0.0                 !
 ! A7    A(6,3,8)              109.6302         -DE/DX =    0.0                 !
 ! A8    A(7,3,8)              109.6299         -DE/DX =    0.0                 !
 ! A9    A(1,4,5)              127.1755         -DE/DX =    0.0                 !
 ! A10   A(1,4,9)              111.4275         -DE/DX =    0.0                 !
 ! A11   A(5,4,9)              121.397          -DE/DX =    0.0                 !
 ! A12   A(2,5,4)              124.497          -DE/DX =    0.0                 !
 ! A13   A(2,5,10)             111.6203         -DE/DX =    0.0                 !
 ! A14   A(4,5,10)             123.8826         -DE/DX =    0.0                 !
 ! D1    D(4,1,3,6)            -60.5684         -DE/DX =    0.0                 !
 ! D2    D(4,1,3,7)             60.573          -DE/DX =    0.0                 !
 ! D3    D(4,1,3,8)            180.0022         -DE/DX =    0.0                 !
 ! D4    D(3,1,4,5)             -0.0021         -DE/DX =    0.0                 !
 ! D5    D(3,1,4,9)           -180.0018         -DE/DX =    0.0                 !
 ! D6    D(11,2,5,4)             0.0001         -DE/DX =    0.0                 !
 ! D7    D(11,2,5,10)         -179.9998         -DE/DX =    0.0                 !
 ! D8    D(1,4,5,2)           -179.9999         -DE/DX =    0.0                 !
 ! D9    D(1,4,5,10)             0.0001         -DE/DX =    0.0                 !
 ! D10   D(9,4,5,2)             -0.0001         -DE/DX =    0.0                 !
 ! D11   D(9,4,5,10)          -180.0002         -DE/DX =    0.0                 !
 --------------------------------------------------------------------------------
 GradGradGradGradGradGradGradGradGradGradGradGradGradGradGradGradGradGrad

 Leave Link  103 at Wed Sep 25 11:56:38 2019, MaxMem=   671088640 cpu:             121.4 elap:              62.0
 (Enter /shared/centos7/gaussian/g16/l9999.exe)

 ----------------------------------------------------------------------

 Electric dipole moment (input orientation):
 (Debye = 10**-18 statcoulomb cm , SI units = C m)
                  (au)            (Debye)         (10**-30 SI)
   Tot        0.167479D+00      0.425690D+00      0.141995D+01
   x         -0.186639D-01     -0.474388D-01     -0.158239D+00
   y         -0.157168D+00     -0.399482D+00     -0.133253D+01
   z          0.547642D-01      0.139197D+00      0.464311D+00

 Dipole polarizability, Alpha (input orientation).
 (esu units = cm**3 , SI units = C**2 m**2 J**-1)
 Alpha(0;0):
               (au)            (10**-24 esu)      (10**-40 SI)
   iso        0.437928D+02      0.648942D+01      0.722046D+01
   aniso      0.213475D+02      0.316337D+01      0.351972D+01
   xx         0.434919D+02      0.644484D+01      0.717085D+01
   yx         0.469837D+01      0.696227D+00      0.774657D+00
   yy         0.527399D+02      0.781525D+01      0.869564D+01
   zx         0.298918D+01      0.442950D+00      0.492848D+00
   zy        -0.659128D+01     -0.976727D+00     -0.108676D+01
   zz         0.351465D+02      0.520818D+01      0.579488D+01

 ----------------------------------------------------------------------

 Dipole orientation:
     8          0.60227221          2.00012342          1.91277085
     8          0.66909627          2.01992549         -5.01737403
     6         -1.92008068          1.27942564          2.34461829
     6          1.29597985          2.19859822         -0.55217754
     6         -0.14063496          1.78830386         -2.57064256
     1         -3.22986324          2.65511201          1.52787742
     1         -2.30542336         -0.58046163          1.52764810
     1         -2.17795041          1.20559892          4.37878858
     1          3.25668998          2.75886711         -0.73458645
     1         -2.09849716          1.22885203         -2.47725293
     1          2.41567328          2.51899193         -5.03538023

 Electric dipole moment (dipole orientation):
 (Debye = 10**-18 statcoulomb cm , SI units = C m)
                  (au)            (Debye)         (10**-30 SI)
   Tot        0.167479D+00      0.425690D+00      0.141995D+01
   x          0.000000D+00      0.000000D+00      0.000000D+00
   y          0.000000D+00      0.000000D+00      0.000000D+00
   z          0.167479D+00      0.425690D+00      0.141995D+01

 Dipole polarizability, Alpha (dipole orientation).
 (esu units = cm**3 , SI units = C**2 m**2 J**-1)
 Alpha(0;0):
               (au)            (10**-24 esu)      (10**-40 SI)
   iso        0.437928D+02      0.648942D+01      0.722046D+01
   aniso      0.213475D+02      0.316337D+01      0.351972D+01
   xx         0.434879D+02      0.644424D+01      0.717019D+01
   yx         0.346984D+01      0.514178D+00      0.572100D+00
   yy         0.323365D+02      0.479178D+01      0.533157D+01
   zx        -0.215641D+01     -0.319546D+00     -0.355543D+00
   zy        -0.618455D+00     -0.916456D-01     -0.101970D+00
   zz         0.555540D+02      0.823225D+01      0.915961D+01

 ----------------------------------------------------------------------

 Test job not archived.
 1\1\GINC-C0325\Freq\RM062X\CC-pVTZ\C3H6O2\HARMS.N\25-Sep-2019\0\\#P Ge
 om=AllCheck Guess=TCheck SCRF=Check Test GenChk RM062X/CC-pVTZ Freq\\G
 aussian input prepared by ASE\\0,1\O,0.1195142308,-0.618995613,1.35975
 2391\O,0.5623996327,2.8232365984,0.1743603949\C,-1.198176506,-0.856534
 0516,0.9278340435\C,0.6202572927,0.6114881748,1.0726979926\C,0.0032907
 512,1.6007381685,0.4349598901\H,-1.8940042335,-0.1514627132,1.39243132
 2\H,-1.2744401948,-0.7657969782,-0.1598714957\H,-1.4502372428,-1.86908
 46152,1.2279501418\H,1.6355017225,0.72002419,1.4349887544\H,-1.0052452
 004,1.5364355864,0.0578392598\H,1.45824749,2.8481674459,0.5220780575\\
 Version=EM64L-G16RevA.03\State=1-A\HF=-268.3193098\RMSD=1.582e-09\RMSF
 =6.548e-07\ZeroPoint=0.0911027\Thermal=0.0968973\Dipole=-0.0186639,-0.
 1571682,0.0547642\DipoleDeriv=-0.8269467,-0.6030973,0.0144828,-0.27259
 32,-1.2060785,0.2634904,-0.1163008,0.131559,-0.3637704,-0.3832731,-0.5
 411319,0.2040072,-0.2172021,-1.2288571,0.2579712,0.075818,0.1286675,-0
 .3785406,0.6935431,0.3338913,0.0056372,0.0472656,0.3231052,0.0288707,0
 .1190557,0.14327,0.3392112,0.2533587,0.4628932,-0.0234027,0.2313132,0.
 8731827,-0.3113547,0.0682413,-0.2189051,-0.0330603,0.1433305,0.5350027
 ,-0.0927078,0.1675183,0.8925437,-0.3476033,0.0527172,-0.2009198,-0.054
 2618,-0.0610224,-0.0186642,0.0285363,0.1246388,-0.0227013,-0.075929,0.
 0383501,-0.0704694,-0.0046085,-0.0093442,-0.0462056,0.0413888,0.019078
 1,0.0584568,0.0474091,-0.0509688,-0.0413009,-0.1374532,0.0408489,-0.04
 0981,-0.0007408,-0.0727365,-0.0902452,0.0396637,0.0118267,0.0523385,0.
 0673421,-0.0574815,-0.0857886,-0.0585801,-0.0812432,0.0264114,0.026107
 8,-0.0603802,0.0242951,0.1406168,-0.0052587,-0.0630469,-0.0474046,-0.0
 302352,0.070366,0.029736,-0.0603889,0.016639,0.1453184,0.2122454,0.067
 1282,-0.0712163,0.0841961,0.3038163,0.0416379,-0.0779703,0.034826,0.27
 92064\Polar=43.4919496,4.6983704,52.7399289,2.9891756,-6.591281,35.146
 5293\Quadrupole=4.0839453,-2.1116781,-1.9722672,3.6125209,0.8721734,1.
 6116697\PG=C01 [X(C3H6O2)]\NImag=0\\0.43568257,0.14678857,0.42569513,0
 .08568761,-0.08000522,0.14131845,-0.00456028,-0.00922499,-0.00350196,0
 .58608438,-0.01046450,-0.01951832,0.00883306,0.11873466,0.36824915,-0.
 00301122,0.00932776,0.00846509,0.17676226,-0.08822778,0.13100114,-0.23
 036460,-0.03734747,-0.05157138,0.00213684,0.00998264,-0.00307782,0.499
 39963,-0.00283606,-0.08766995,0.00818482,-0.00013038,0.00117992,-0.000
 53842,0.00089593,0.62907331,-0.06522685,-0.00558899,-0.08794694,0.0009
 2421,0.00349807,-0.00106453,-0.02803177,-0.02351434,0.56686350,-0.1219
 6182,-0.05852098,-0.01104914,0.01495842,-0.01811949,0.01236563,-0.0328
 6639,-0.04489711,0.00528631,0.67429172,-0.09842684,-0.28376213,0.05865
 528,0.01547382,-0.03259607,0.01984448,-0.01876553,-0.01943531,-0.00043
 135,-0.02558333,0.70334032,0.00474163,0.07458211,-0.06388045,-0.000927
 78,0.00643558,-0.00097449,-0.00505404,-0.01086092,0.00068242,0.2340802
 0,-0.24373913,0.30310171,0.01731091,-0.00694926,0.00877475,-0.13172798
 ,-0.06498618,-0.01379963,0.00535248,-0.00317621,0.00350488,-0.23298563
 ,0.13099084,-0.12478241,0.68324606,0.01465683,-0.02806595,0.01783520,-
 0.10883798,-0.27420921,0.05211596,-0.00175235,-0.00279265,0.00029489,0
 .14447900,-0.33503461,0.17037121,-0.03116914,0.69444974,0.00022400,0.0
 0921046,-0.00133620,0.00355333,0.06961968,-0.05886071,0.00294163,-0.00
 027342,0.00100220,-0.13011960,0.16498784,-0.16746379,0.24052622,-0.243
 10314,0.30377418,-0.04274718,0.01465465,0.00771860,-0.00019931,-0.0012
 4064,0.00012009,-0.13846585,0.09635264,0.06742444,0.00313800,0.0072631
 5,-0.00127286,0.00099570,-0.00008428,0.00029214,0.16831373,-0.00363487
 ,0.00694652,0.00612257,0.00016826,0.00098731,-0.00076062,0.10181238,-0
 .16427539,-0.07577967,-0.00149576,0.00393695,-0.00061434,0.00195261,-0
 .00155433,0.00159901,-0.11245850,0.16948166,-0.01202999,0.00946691,0.0
 0876281,-0.00040324,0.00021555,-0.00015708,0.07082061,-0.07551989,-0.1
 0406324,0.00019076,0.00075834,0.00005804,0.00142019,-0.00099373,0.0000
 7941,-0.07245462,0.08061244,0.10441872,-0.01863535,-0.00322961,-0.0423
 1518,-0.00052005,-0.00040919,0.00022595,-0.04971513,-0.00015036,0.0002
 8980,0.00262327,0.00642520,-0.00230076,0.00172681,-0.00068476,0.001550
 44,0.00289985,-0.00241564,0.01929105,0.06080461,-0.00288739,0.00023336
 ,-0.00603974,0.00004594,0.00059946,0.00023773,0.00048726,-0.05537587,0
 .02417048,0.00015887,0.00363279,-0.00246198,0.00126834,-0.00099902,0.0
 0024933,-0.00013559,0.00203166,-0.02164941,0.00020037,0.05176700,-0.01
 546370,-0.00222043,-0.00863487,0.00001168,-0.00148245,0.00055144,-0.00
 551898,0.02147737,-0.30171304,0.00218128,0.00216197,0.00087650,-0.0011
 5666,0.00124950,-0.00120683,0.00094717,0.00225216,-0.01331126,0.017279
 39,-0.02354186,0.32964182,-0.02002027,-0.04008239,0.00792279,0.0002452
 8,-0.00088344,0.00039460,-0.05710114,-0.04261481,0.01474282,-0.0046446
 1,0.00136903,-0.00271803,-0.00078827,0.00099648,-0.00084933,0.00628360
 ,0.01734461,-0.00677129,0.00122850,0.00102458,0.00112736,0.07459574,-0
 .00561508,-0.00437938,-0.00055904,-0.00038399,-0.00037144,0.00004615,-
 0.05523845,-0.29437623,0.07395993,-0.00005545,0.00232400,-0.00062160,0
 .00041580,0.00036793,0.00015949,-0.00356266,-0.01686963,0.00680399,0.0
 0093725,-0.00017953,0.00025636,0.06383246,0.31364071,-0.00571727,-0.01
 431559,0.00325520,0.00019697,-0.00015322,0.00027170,0.01973861,0.07899
 838,-0.07516891,-0.00215473,-0.00005348,-0.00003008,-0.00061957,0.0003
 9125,-0.00005059,-0.00337308,-0.01433830,0.00501349,0.00603788,0.02977
 834,-0.00662199,-0.01437286,-0.07992273,0.07320692,-0.01416956,-0.0083
 2944,-0.00266347,0.00194758,0.00072401,0.00285260,0.00345615,-0.001439
 99,0.00085927,-0.29868932,-0.01947073,-0.09706152,-0.01148941,-0.00542
 468,-0.00541426,-0.00005413,0.00020877,0.00001990,-0.00034996,-0.00001
 568,-0.00018228,-0.00058972,-0.00015192,-0.00031472,0.31901483,-0.0372
 6403,-0.01058395,-0.01038396,0.00226815,0.00242162,-0.00239436,0.00021
 315,-0.00383682,0.00268357,-0.01406026,-0.05230070,0.00075128,0.019802
 42,0.00557459,0.00864759,-0.00046866,-0.00002934,-0.00000496,0.0000025
 5,0.00001657,-0.00025066,-0.00141916,-0.00021335,-0.00034374,0.0315794
 0,0.06190046,0.00878632,0.00116500,0.00380775,0.00224162,-0.00301070,-
 0.00383066,0.00020557,0.00202408,0.00201150,-0.09920255,-0.00140834,-0
 .07525928,-0.01539747,-0.00142193,0.00186955,-0.00037251,-0.00022657,-
 0.00020106,0.00047101,0.00023410,0.00004872,0.00018676,0.00016208,0.00
 035978,0.10594417,-0.00307107,0.06579013,-0.00097320,-0.00035334,0.001
 25400,-0.01380808,-0.00677603,-0.00349245,-0.00083926,-0.00189839,0.00
 079942,-0.00830517,-0.00207096,-0.00510664,-0.30908991,-0.00955431,-0.
 10523168,-0.00025651,-0.00137625,-0.00001728,-0.00002205,-0.00005269,0
 .00055140,0.00061858,-0.00022352,0.00054942,0.00115491,0.00031537,-0.0
 0303810,0.32999950,-0.00166943,0.00073065,-0.00244515,-0.03518806,-0.0
 0752027,-0.01041307,0.00054438,-0.00245663,0.00080977,0.02067805,0.009
 22227,0.00719296,-0.00515265,-0.05162406,0.00413222,-0.00042585,-0.000
 49534,0.00038440,-0.00071730,-0.00174889,-0.00003166,0.00022643,0.0000
 2667,-0.00013246,0.00063264,-0.00245761,0.00457034,0.02393182,0.061058
 65,0.00177479,-0.00191979,-0.00229643,0.00775087,0.00092783,0.00438587
 ,-0.00016748,-0.00016536,-0.00096094,-0.01410895,-0.00188738,0.0016567
 1,-0.10697343,0.00237511,-0.07962397,0.00099197,0.00129356,-0.00057287
 ,-0.00057092,-0.00105484,0.00044642,0.00037140,-0.00031207,-0.00026464
 ,-0.00316360,0.00444370,0.00543229,0.11330075,-0.00573592,0.06991977,0
 .00043879,0.00259427,-0.00025661,-0.45455679,-0.02656184,-0.16934003,-
 0.00099272,-0.00010526,-0.00057253,0.00444152,0.00279537,0.00040219,-0
 .02255076,-0.00262481,-0.00747289,0.00009210,-0.00010561,-0.00006609,-
 0.00004048,-0.00009400,0.00022334,0.00017232,0.00004554,0.00002934,-0.
 00023137,-0.00096891,0.00017518,0.00152118,-0.00286004,0.00079461,0.47
 170622,0.00135281,0.00037403,-0.00019782,0.01707457,-0.03922215,0.0207
 6217,-0.00083195,-0.00003436,-0.00010236,-0.00258354,0.00067249,-0.001
 03517,-0.04299656,-0.00611242,-0.01522906,0.00010573,-0.00016006,-0.00
 007365,0.00004150,0.00002247,0.00012971,0.00020623,0.00003025,0.000091
 57,0.00168762,-0.00049146,0.00098302,-0.00194171,-0.00473545,0.0020351
 5,0.02788529,0.04965666,0.00023468,0.00029778,-0.00151440,-0.18660797,
 0.00334438,-0.07978777,-0.00028495,0.00018769,0.00035796,0.00253077,0.
 00111178,0.00123269,0.00850315,0.00088569,0.00181676,-0.00002134,-0.00
 016024,-0.00002695,0.00004133,0.00007786,-0.00007690,-0.00003423,0.000
 02745,0.00002912,-0.00087609,-0.00007737,-0.00002872,0.00043116,0.0016
 6857,0.00187779,0.17608350,-0.00736357,0.07612042\\-0.00000198,-0.0000
 0052,-0.00000148,0.00000105,-0.00000032,0.00000049,0.00000155,0.000000
 66,0.00000096,0.00000003,-0.00000058,0.00000083,0.00000010,0.00000071,
 -0.00000030,0.00000003,0.00000032,-0.00000024,-0.00000007,-0.00000015,
 0.,-0.00000011,0.00000010,-0.00000019,-0.00000003,-0.00000020,0.000000
 15,0.00000014,0.00000009,0.,-0.00000072,-0.00000011,-0.00000023\\\@


 SCIENCE IS A VERY HUMAN FORM OF KNOWLEDGE.
 WE ARE ALWAYS AT THE BRINK OF THE KNOWN,
 WE ALWAYS FEEL FORWARD FOR WHAT IS HOPED.
 EVERY JUDGEMENT IN SCIENCE STANDS ON THE EDGE OF ERROR, AND IS PERSONAL.
 SCIENCE IS A TRIBUTE TO WHAT WE CAN KNOW ALTHOUGH WE ARE FALLIBLE.

                     -- J. BRONOWSKI
 Job cpu time:       0 days  1 hours 14 minutes 21.4 seconds.
 Elapsed time:       0 days  0 hours 37 minutes 13.1 seconds.
 File lengths (MBytes):  RWF=    400 Int=      0 D2E=      0 Chk=     32 Scr=     32
 Normal termination of Gaussian 16 at Wed Sep 25 11:56:39 2019.
