 Entering Gaussian System, Link 0=g16
 Input=verytight/species/CC(C)OC=CO/conformers/CC(C)OC=CO_36.com
 Output=verytight/species/CC(C)OC=CO/conformers/CC(C)OC=CO_36.log
 Initial command:
 /shared/centos7/gaussian/g16/l1.exe "/scratch/harms.n/gauss_scrdir/Gau-28600.inp" -scrdir="/scratch/harms.n/gauss_scrdir/"
 Entering Link 1 = /shared/centos7/gaussian/g16/l1.exe PID=     28602.
  
 Copyright (c) 1988,1990,1992,1993,1995,1998,2003,2009,2016,
            Gaussian, Inc.  All Rights Reserved.
  
 This is part of the Gaussian(R) 16 program.  It is based on
 the Gaussian(R) 09 system (copyright 2009, Gaussian, Inc.),
 the Gaussian(R) 03 system (copyright 2003, Gaussian, Inc.),
 the Gaussian(R) 98 system (copyright 1998, Gaussian, Inc.),
 the Gaussian(R) 94 system (copyright 1995, Gaussian, Inc.),
 the Gaussian 92(TM) system (copyright 1992, Gaussian, Inc.),
 the Gaussian 90(TM) system (copyright 1990, Gaussian, Inc.),
 the Gaussian 88(TM) system (copyright 1988, Gaussian, Inc.),
 the Gaussian 86(TM) system (copyright 1986, Carnegie Mellon
 University), and the Gaussian 82(TM) system (copyright 1983,
 Carnegie Mellon University). Gaussian is a federally registered
 trademark of Gaussian, Inc.
  
 This software contains proprietary and confidential information,
 including trade secrets, belonging to Gaussian, Inc.
  
 This software is provided under written license and may be
 used, copied, transmitted, or stored only in accord with that
 written license.
  
 The following legend is applicable only to US Government
 contracts under FAR:
  
                    RESTRICTED RIGHTS LEGEND
  
 Use, reproduction and disclosure by the US Government is
 subject to restrictions as set forth in subparagraphs (a)
 and (c) of the Commercial Computer Software - Restricted
 Rights clause in FAR 52.227-19.
  
 Gaussian, Inc.
 340 Quinnipiac St., Bldg. 40, Wallingford CT 06492
  
  
 ---------------------------------------------------------------
 Warning -- This program may not be used in any manner that
 competes with the business of Gaussian, Inc. or will provide
 assistance to any competitor of Gaussian, Inc.  The licensee
 of this program is prohibited from giving any competitor of
 Gaussian, Inc. access to this program.  By using this program,
 the user acknowledges that Gaussian, Inc. is engaged in the
 business of creating and licensing software in the field of
 computational chemistry and represents and warrants to the
 licensee that it is not a competitor of Gaussian, Inc. and that
 it will not use this program in any manner prohibited above.
 ---------------------------------------------------------------
  

 Cite this work as:
 Gaussian 16, Revision A.03,
 M. J. Frisch, G. W. Trucks, H. B. Schlegel, G. E. Scuseria, 
 M. A. Robb, J. R. Cheeseman, G. Scalmani, V. Barone, 
 G. A. Petersson, H. Nakatsuji, X. Li, M. Caricato, A. V. Marenich, 
 J. Bloino, B. G. Janesko, R. Gomperts, B. Mennucci, H. P. Hratchian, 
 J. V. Ortiz, A. F. Izmaylov, J. L. Sonnenberg, D. Williams-Young, 
 F. Ding, F. Lipparini, F. Egidi, J. Goings, B. Peng, A. Petrone, 
 T. Henderson, D. Ranasinghe, V. G. Zakrzewski, J. Gao, N. Rega, 
 G. Zheng, W. Liang, M. Hada, M. Ehara, K. Toyota, R. Fukuda, 
 J. Hasegawa, M. Ishida, T. Nakajima, Y. Honda, O. Kitao, H. Nakai, 
 T. Vreven, K. Throssell, J. A. Montgomery, Jr., J. E. Peralta, 
 F. Ogliaro, M. J. Bearpark, J. J. Heyd, E. N. Brothers, K. N. Kudin, 
 V. N. Staroverov, T. A. Keith, R. Kobayashi, J. Normand, 
 K. Raghavachari, A. P. Rendell, J. C. Burant, S. S. Iyengar, 
 J. Tomasi, M. Cossi, J. M. Millam, M. Klene, C. Adamo, R. Cammi, 
 J. W. Ochterski, R. L. Martin, K. Morokuma, O. Farkas, 
 J. B. Foresman, and D. J. Fox, Gaussian, Inc., Wallingford CT, 2016.
 
 ******************************************
 Gaussian 16:  EM64L-G16RevA.03 25-Dec-2016
                28-Sep-2019 
 ******************************************
 %nprocshared=20
 Will use up to   20 processors via shared memory.
 %mem=5GB
 ----------------------------------------------------------------------
 #p m062x/cc-pVTZ opt=(calcfc,maxcycles=900,Tight) freq IOP(7/33=1,2/16
 =3) scf=(maxcycle=900)
 ----------------------------------------------------------------------
 1/6=900,7=10,10=4,18=20,19=15,26=3,38=1/1,3;
 2/9=110,12=2,16=3,17=6,18=5,40=1/2;
 3/5=16,6=1,11=2,25=1,30=1,71=2,74=-55,140=1/1,2,3;
 4//1;
 5/5=2,7=900,38=5/2;
 8/6=4,10=90,11=11/1;
 11/6=1,8=1,9=11,15=111,16=1/1,2,10;
 10/6=1,13=1/2;
 6/7=2,8=2,9=2,10=2,28=1/1;
 7/10=1,18=20,25=1,33=1/1,2,3,16;
 1/6=900,7=10,10=4,18=20,19=15,26=3/3(2);
 2/9=110,16=3/2;
 99//99;
 2/9=110,16=3/2;
 3/5=16,6=1,11=2,25=1,30=1,71=1,74=-55/1,2,3;
 4/5=5,16=3,69=1/1;
 5/5=2,7=900,38=5/2;
 7/33=1/1,2,3,16;
 1/6=900,7=10,18=20,19=15,26=3/3(-5);
 2/9=110,16=3/2;
 6/7=2,8=2,9=2,10=2,19=2,28=1/1;
 99/9=1/99;
 Leave Link    1 at Sat Sep 28 04:11:18 2019, MaxMem=   671088640 cpu:               4.0 elap:               2.0
 (Enter /shared/centos7/gaussian/g16/l101.exe)
 ------------------------------
 Gaussian input prepared by ASE
 ------------------------------
 Symbolic Z-matrix:
 Charge =  0 Multiplicity = 1
 O                     0.20126  -0.41945   3.01159 
 O                     0.2168   -0.99769   0.22201 
 C                     0.2722    0.20511   4.27601 
 C                    -0.1903    1.66065   4.20891 
 C                     1.62099   0.06786   4.90212 
 C                     1.14345   0.06324   2.13228 
 C                     1.16384  -0.21051   0.86 
 H                    -0.46922  -0.35222   4.91322 
 H                    -1.22022   1.72401   3.7997 
 H                    -0.18567   2.12073   5.21379 
 H                     0.4852    2.26658   3.5462 
 H                     2.41299   0.53176   4.24318 
 H                     1.88592  -0.99948   5.05271 
 H                     1.65865   0.58217   5.90393 
 H                     1.93297   0.68677   2.58129 
 H                     1.94605   0.17604   0.22347 
 H                     0.47331  -1.03256  -0.74483 
 
 ITRead=  0  0  0  0  0  0  0  0  0  0  0  0  0  0  0  0  0
 MicOpt= -1 -1 -1 -1 -1 -1 -1 -1 -1 -1 -1 -1 -1 -1 -1 -1 -1
 NAtoms=     17 NQM=       17 NQMF=       0 NMMI=      0 NMMIF=      0
                NMic=       0 NMicF=      0.
                    Isotopes and Nuclear Properties:
 (Nuclear quadrupole moments (NQMom) in fm**2, nuclear magnetic moments (NMagM)
  in nuclear magnetons)

  Atom         1           2           3           4           5           6           7           8           9          10
 IAtWgt=          16          16          12          12          12          12          12           1           1           1
 AtmWgt=  15.9949146  15.9949146  12.0000000  12.0000000  12.0000000  12.0000000  12.0000000   1.0078250   1.0078250   1.0078250
 NucSpn=           0           0           0           0           0           0           0           1           1           1
 AtZEff=  -0.0000000  -0.0000000  -0.0000000  -0.0000000  -0.0000000  -0.0000000  -0.0000000  -0.0000000  -0.0000000  -0.0000000
 NQMom=    0.0000000   0.0000000   0.0000000   0.0000000   0.0000000   0.0000000   0.0000000   0.0000000   0.0000000   0.0000000
 NMagM=    0.0000000   0.0000000   0.0000000   0.0000000   0.0000000   0.0000000   0.0000000   2.7928460   2.7928460   2.7928460
 AtZNuc=   8.0000000   8.0000000   6.0000000   6.0000000   6.0000000   6.0000000   6.0000000   1.0000000   1.0000000   1.0000000

  Atom        11          12          13          14          15          16          17
 IAtWgt=           1           1           1           1           1           1           1
 AtmWgt=   1.0078250   1.0078250   1.0078250   1.0078250   1.0078250   1.0078250   1.0078250
 NucSpn=           1           1           1           1           1           1           1
 AtZEff=  -0.0000000  -0.0000000  -0.0000000  -0.0000000  -0.0000000  -0.0000000  -0.0000000
 NQMom=    0.0000000   0.0000000   0.0000000   0.0000000   0.0000000   0.0000000   0.0000000
 NMagM=    2.7928460   2.7928460   2.7928460   2.7928460   2.7928460   2.7928460   2.7928460
 AtZNuc=   1.0000000   1.0000000   1.0000000   1.0000000   1.0000000   1.0000000   1.0000000
 Leave Link  101 at Sat Sep 28 04:11:19 2019, MaxMem=   671088640 cpu:               2.1 elap:               1.1
 (Enter /shared/centos7/gaussian/g16/l103.exe)

 GradGradGradGradGradGradGradGradGradGradGradGradGradGradGradGradGradGrad
 Berny optimization.
 Initialization pass.
                           ----------------------------
                           !    Initial Parameters    !
                           ! (Angstroms and Degrees)  !
 --------------------------                            --------------------------
 ! Name  Definition              Value          Derivative Info.                !
 --------------------------------------------------------------------------------
 ! R1    R(1,3)                  1.412          calculate D2E/DX2 analytically  !
 ! R2    R(1,6)                  1.3762         calculate D2E/DX2 analytically  !
 ! R3    R(2,7)                  1.3869         calculate D2E/DX2 analytically  !
 ! R4    R(2,17)                 1.0009         calculate D2E/DX2 analytically  !
 ! R5    R(3,4)                  1.5287         calculate D2E/DX2 analytically  !
 ! R6    R(3,5)                  1.4933         calculate D2E/DX2 analytically  !
 ! R7    R(3,8)                  1.1253         calculate D2E/DX2 analytically  !
 ! R8    R(4,9)                  1.1101         calculate D2E/DX2 analytically  !
 ! R9    R(4,10)                 1.1052         calculate D2E/DX2 analytically  !
 ! R10   R(4,11)                 1.1237         calculate D2E/DX2 analytically  !
 ! R11   R(5,12)                 1.1299         calculate D2E/DX2 analytically  !
 ! R12   R(5,13)                 1.11           calculate D2E/DX2 analytically  !
 ! R13   R(5,14)                 1.1267         calculate D2E/DX2 analytically  !
 ! R14   R(6,7)                  1.3016         calculate D2E/DX2 analytically  !
 ! R15   R(6,15)                 1.1017         calculate D2E/DX2 analytically  !
 ! R16   R(7,16)                 1.08           calculate D2E/DX2 analytically  !
 ! A1    A(3,1,6)              112.4958         calculate D2E/DX2 analytically  !
 ! A2    A(7,2,17)             106.806          calculate D2E/DX2 analytically  !
 ! A3    A(1,3,4)              111.5075         calculate D2E/DX2 analytically  !
 ! A4    A(1,3,5)              112.3433         calculate D2E/DX2 analytically  !
 ! A5    A(1,3,8)              104.7673         calculate D2E/DX2 analytically  !
 ! A6    A(4,3,5)              112.2819         calculate D2E/DX2 analytically  !
 ! A7    A(4,3,8)              107.2823         calculate D2E/DX2 analytically  !
 ! A8    A(5,3,8)              108.1888         calculate D2E/DX2 analytically  !
 ! A9    A(3,4,9)              110.5626         calculate D2E/DX2 analytically  !
 ! A10   A(3,4,10)             110.8043         calculate D2E/DX2 analytically  !
 ! A11   A(3,4,11)             110.9434         calculate D2E/DX2 analytically  !
 ! A12   A(9,4,10)             108.3785         calculate D2E/DX2 analytically  !
 ! A13   A(9,4,11)             108.0334         calculate D2E/DX2 analytically  !
 ! A14   A(10,4,11)            108.0134         calculate D2E/DX2 analytically  !
 ! A15   A(3,5,12)             110.5397         calculate D2E/DX2 analytically  !
 ! A16   A(3,5,13)             111.1516         calculate D2E/DX2 analytically  !
 ! A17   A(3,5,14)             111.1623         calculate D2E/DX2 analytically  !
 ! A18   A(12,5,13)            107.855          calculate D2E/DX2 analytically  !
 ! A19   A(12,5,14)            107.9195         calculate D2E/DX2 analytically  !
 ! A20   A(13,5,14)            108.0781         calculate D2E/DX2 analytically  !
 ! A21   A(1,6,7)              124.1614         calculate D2E/DX2 analytically  !
 ! A22   A(1,6,15)             115.3878         calculate D2E/DX2 analytically  !
 ! A23   A(7,6,15)             120.4112         calculate D2E/DX2 analytically  !
 ! A24   A(2,7,6)              123.9406         calculate D2E/DX2 analytically  !
 ! A25   A(2,7,16)             115.2501         calculate D2E/DX2 analytically  !
 ! A26   A(6,7,16)             120.8094         calculate D2E/DX2 analytically  !
 ! D1    D(6,1,3,4)             69.9179         calculate D2E/DX2 analytically  !
 ! D2    D(6,1,3,5)            -57.1374         calculate D2E/DX2 analytically  !
 ! D3    D(6,1,3,8)           -174.3542         calculate D2E/DX2 analytically  !
 ! D4    D(3,1,6,7)           -169.9248         calculate D2E/DX2 analytically  !
 ! D5    D(3,1,6,15)            12.3622         calculate D2E/DX2 analytically  !
 ! D6    D(17,2,7,6)           179.5363         calculate D2E/DX2 analytically  !
 ! D7    D(17,2,7,16)           -0.4937         calculate D2E/DX2 analytically  !
 ! D8    D(1,3,4,9)             56.544          calculate D2E/DX2 analytically  !
 ! D9    D(1,3,4,10)           176.7272         calculate D2E/DX2 analytically  !
 ! D10   D(1,3,4,11)           -63.2973         calculate D2E/DX2 analytically  !
 ! D11   D(5,3,4,9)           -176.3672         calculate D2E/DX2 analytically  !
 ! D12   D(5,3,4,10)           -56.184          calculate D2E/DX2 analytically  !
 ! D13   D(5,3,4,11)            63.7914         calculate D2E/DX2 analytically  !
 ! D14   D(8,3,4,9)            -57.6311         calculate D2E/DX2 analytically  !
 ! D15   D(8,3,4,10)            62.5521         calculate D2E/DX2 analytically  !
 ! D16   D(8,3,4,11)          -177.4725         calculate D2E/DX2 analytically  !
 ! D17   D(1,3,5,12)            59.562          calculate D2E/DX2 analytically  !
 ! D18   D(1,3,5,13)           -60.1762         calculate D2E/DX2 analytically  !
 ! D19   D(1,3,5,14)           179.3883         calculate D2E/DX2 analytically  !
 ! D20   D(4,3,5,12)           -67.0781         calculate D2E/DX2 analytically  !
 ! D21   D(4,3,5,13)           173.1837         calculate D2E/DX2 analytically  !
 ! D22   D(4,3,5,14)            52.7482         calculate D2E/DX2 analytically  !
 ! D23   D(8,3,5,12)           174.7205         calculate D2E/DX2 analytically  !
 ! D24   D(8,3,5,13)            54.9823         calculate D2E/DX2 analytically  !
 ! D25   D(8,3,5,14)           -65.4532         calculate D2E/DX2 analytically  !
 ! D26   D(1,6,7,2)              1.7097         calculate D2E/DX2 analytically  !
 ! D27   D(1,6,7,16)          -178.2587         calculate D2E/DX2 analytically  !
 ! D28   D(15,6,7,2)           179.3138         calculate D2E/DX2 analytically  !
 ! D29   D(15,6,7,16)           -0.6546         calculate D2E/DX2 analytically  !
 --------------------------------------------------------------------------------
 Trust Radius=3.00D-01 FncErr=1.00D-07 GrdErr=1.00D-06 EigMax=2.50D+02 EigMin=1.00D-04
 Number of steps in this run=    102 maximum allowed number of steps=    102.
 GradGradGradGradGradGradGradGradGradGradGradGradGradGradGradGradGradGrad

 Leave Link  103 at Sat Sep 28 04:11:20 2019, MaxMem=   671088640 cpu:               1.6 elap:               0.8
 (Enter /shared/centos7/gaussian/g16/l202.exe)
                          Input orientation:                          
 ---------------------------------------------------------------------
 Center     Atomic      Atomic             Coordinates (Angstroms)
 Number     Number       Type             X           Y           Z
 ---------------------------------------------------------------------
      1          8           0        0.201262   -0.419448    3.011586
      2          8           0        0.216803   -0.997693    0.222005
      3          6           0        0.272199    0.205107    4.276013
      4          6           0       -0.190297    1.660651    4.208907
      5          6           0        1.620986    0.067858    4.902118
      6          6           0        1.143454    0.063243    2.132280
      7          6           0        1.163845   -0.210507    0.859999
      8          1           0       -0.469219   -0.352219    4.913220
      9          1           0       -1.220223    1.724015    3.799701
     10          1           0       -0.185673    2.120732    5.213790
     11          1           0        0.485202    2.266582    3.546201
     12          1           0        2.412993    0.531763    4.243178
     13          1           0        1.885922   -0.999478    5.052710
     14          1           0        1.658646    0.582170    5.903930
     15          1           0        1.932973    0.686772    2.581287
     16          1           0        1.946048    0.176036    0.223473
     17          1           0        0.473306   -1.032562   -0.744831
 ---------------------------------------------------------------------
                    Distance matrix (angstroms):
                    1          2          3          4          5
     1  O    0.000000
     2  O    2.848925   0.000000
     3  C    1.412047   4.229040   0.000000
     4  C    2.431811   4.809148   1.528729   0.000000
     5  C    2.413958   5.001059   1.493342   2.509637   0.000000
     6  C    1.376189   2.373482   2.318362   2.939895   2.810705
     7  C    2.366336   1.386935   3.554844   4.068183   4.077400
     8  H    2.017493   4.784847   1.125320   2.150698   2.132028
     9  H    2.690014   4.719390   2.182035   1.110050   3.468522
    10  H    3.384070   5.899532   2.181442   1.105209   2.752353
    11  H    2.753396   4.666670   2.197197   1.123668   2.821862
    12  H    2.704325   4.830354   2.165821   2.837724   1.129905
    13  H    2.709373   5.110936   2.158329   3.478358   1.109989
    14  H    3.390112   6.071173   2.171295   2.730350   1.126748
    15  H    2.099453   3.368809   2.421212   2.847080   2.422117
    16  H    3.342522   2.089960   4.384712   4.759383   4.691171
    17  H    3.815834   1.000891   5.175051   5.677436   5.866527
                    6          7          8          9         10
     6  C    0.000000
     7  C    1.301558   0.000000
     8  H    3.241443   4.372137   0.000000
     9  H    3.335479   4.250647   2.472788   0.000000
    10  H    3.936438   5.119703   2.507235   1.796476   0.000000
    11  H    2.699476   3.716477   3.104477   1.807516   1.803385
    12  H    2.507415   3.682015   3.088288   3.849466   3.196869
    13  H    3.195238   4.326973   2.446444   4.316895   3.748755
    14  H    3.841881   5.129756   2.526340   3.744259   2.498996
    15  H    1.101697   2.087941   3.505416   3.535965   3.670827
    16  H    2.073746   1.080011   5.301537   5.021047   5.764489
    17  H    3.150818   1.930829   5.776224   5.578488   6.773676
                   11         12         13         14         15
    11  H    0.000000
    12  H    2.685470   0.000000
    13  H    3.859887   1.810482   0.000000
    14  H    3.126195   1.824740   1.810481   0.000000
    15  H    2.350085   1.736758   2.992255   3.335589   0.000000
    16  H    4.188672   4.062340   4.970612   5.702204   2.412531
    17  H    5.412712   5.575817   5.967250   6.943948   4.018682
                   16         17
    16  H    0.000000
    17  H    2.137123   0.000000
 Stoichiometry    C5H10O2
 Framework group  C1[X(C5H10O2)]
 Deg. of freedom    45
 Full point group                 C1      NOp   1
 Largest Abelian subgroup         C1      NOp   1
 Largest concise Abelian subgroup C1      NOp   1
                         Standard orientation:                         
 ---------------------------------------------------------------------
 Center     Atomic      Atomic             Coordinates (Angstroms)
 Number     Number       Type             X           Y           Z
 ---------------------------------------------------------------------
      1          8           0       -0.010696    0.064700   -0.697621
      2          8           0        2.820529    0.248446   -0.439217
      3          6           0       -1.406016    0.110909   -0.485904
      4          6           0       -1.797894    1.283230    0.413601
      5          6           0       -1.948353   -1.189146    0.009875
      6          6           0        0.682196   -0.295266    0.435613
      7          6           0        1.976683   -0.227801    0.553104
      8          1           0       -1.844101    0.309164   -1.503314
      9          1           0       -1.436369    2.241292   -0.014920
     10          1           0       -2.895921    1.343264    0.524133
     11          1           0       -1.351168    1.169996    1.438415
     12          1           0       -1.460208   -1.475174    0.987929
     13          1           0       -1.757914   -2.005939   -0.717212
     14          1           0       -3.060061   -1.126815    0.182451
     15          1           0        0.067641   -0.694773    1.258081
     16          1           0        2.467484   -0.551178    1.459175
     17          1           0        3.752256    0.193428   -0.077775
 ---------------------------------------------------------------------
 Rotational constants (GHZ):           5.7554990           1.3674409           1.2814128
 Leave Link  202 at Sat Sep 28 04:11:22 2019, MaxMem=   671088640 cpu:               3.9 elap:               2.0
 (Enter /shared/centos7/gaussian/g16/l301.exe)
 Standard basis: CC-pVTZ (5D, 7F)
 Ernie: Thresh=  0.10000D-02 Tol=  0.10000D-05 Strict=F.
 Ernie:  21 primitive shells out of 262 were deleted.
 There are   395 symmetry adapted cartesian basis functions of A   symmetry.
 There are   350 symmetry adapted basis functions of A   symmetry.
   350 basis functions,   534 primitive gaussians,   395 cartesian basis functions
    28 alpha electrons       28 beta electrons
       nuclear repulsion energy       314.4439291507 Hartrees.
 IExCor= 4336 DFT=T Ex+Corr=M062X ExCW=0 ScaHFX=  0.540000
 ScaDFX=  1.000000  1.000000  1.000000  1.000000 ScalE2=  1.000000  1.000000
 IRadAn=      5 IRanWt=     -1 IRanGd=            0 ICorTp=0 IEmpDi=  4
 NAtoms=   17 NActive=   17 NUniq=   17 SFac= 1.00D+00 NAtFMM=   60 NAOKFM=F Big=F
 Integral buffers will be    131072 words long.
 Raffenetti 2 integral format.
 Two-electron integral symmetry is turned on.
 Leave Link  301 at Sat Sep 28 04:11:24 2019, MaxMem=   671088640 cpu:               3.2 elap:               1.6
 (Enter /shared/centos7/gaussian/g16/l302.exe)
 NPDir=0 NMtPBC=     1 NCelOv=     1 NCel=       1 NClECP=     1 NCelD=      1
         NCelK=      1 NCelE2=     1 NClLst=     1 CellRange=     0.0.
 One-electron integrals computed using PRISM.
 One-electron integral symmetry used in STVInt
 NBasis=   350 RedAO= T EigKep=  1.91D-04  NBF=   350
 NBsUse=   350 1.00D-06 EigRej= -1.00D+00 NBFU=   350
 Precomputing XC quadrature grid using
 IXCGrd= 4 IRadAn=           5 IRanWt=          -1 IRanGd=           0 AccXCQ= 0.00D+00.
 Generated NRdTot=       0 NPtTot=           0 NUsed=           0 NTot=          32
 NSgBfM=   395   395   395   395   395 MxSgAt=    17 MxSgA2=    17.
 Leave Link  302 at Sat Sep 28 04:12:42 2019, MaxMem=   671088640 cpu:             157.2 elap:              78.6
 (Enter /shared/centos7/gaussian/g16/l303.exe)
 DipDrv:  MaxL=1.
 Leave Link  303 at Sat Sep 28 04:12:46 2019, MaxMem=   671088640 cpu:               7.3 elap:               3.7
 (Enter /shared/centos7/gaussian/g16/l401.exe)
 ExpMin= 1.03D-01 ExpMax= 1.53D+04 ExpMxC= 5.22D+02 IAcc=3 IRadAn=         5 AccDes= 0.00D+00
 Harris functional with IExCor= 1009 and IRadAn=       5 diagonalized for initial guess.
 HarFok:  IExCor= 1009 AccDes= 0.00D+00 IRadAn=         5 IDoV= 1 UseB2=F ITyADJ=14
 ICtDFT=  3500011 ScaDFX=  1.000000  1.000000  1.000000  1.000000
 FoFCou: FMM=F IPFlag=           0 FMFlag=      100000 FMFlg1=           0
         NFxFlg=           0 DoJE=T BraDBF=F KetDBF=T FulRan=T
         wScrn=  0.000000 ICntrl=       500 IOpCl=  0 I1Cent=   200000004 NGrid=           0
         NMat0=    1 NMatS0=      1 NMatT0=    0 NMatD0=    1 NMtDS0=    0 NMtDT0=    0
 Petite list used in FoFCou.
 Harris En= -346.811722028255    
 JPrj=0 DoOrth=F DoCkMO=F.
 Leave Link  401 at Sat Sep 28 04:13:15 2019, MaxMem=   671088640 cpu:              57.3 elap:              28.7
 (Enter /shared/centos7/gaussian/g16/l502.exe)
 Integral symmetry usage will be decided dynamically.
 Closed shell SCF:
 Using DIIS extrapolation, IDIIS=  1040.
 NGot=   671088640 LenX=   670765141 LenY=   670608675
 Requested convergence on RMS density matrix=1.00D-08 within 900 cycles.
 Requested convergence on MAX density matrix=1.00D-06.
 Requested convergence on             energy=1.00D-06.
 No special actions if energy rises.
 Fock matrices will be formed incrementally for  20 cycles.
 Integral accuracy reduced to 1.0D-05 until final iterations.

 Cycle   1  Pass 0  IDiag  1:
 FoFJK:  IHMeth= 1 ICntrl=       0 DoSepK=F KAlg= 0 I1Cent=           0 FoldK=F
 IRaf= 940000000 NMat=       1 IRICut=       1 DoRegI=T DoRafI=F ISym2E= 0 IDoP0=0 IntGTp=1.
 FoFCou: FMM=F IPFlag=           0 FMFlag=      100000 FMFlg1=           0
         NFxFlg=           0 DoJE=F BraDBF=F KetDBF=F FulRan=T
         wScrn=  0.000000 ICntrl=         0 IOpCl=  0 I1Cent=           0 NGrid=           0
         NMat0=    1 NMatS0=      1 NMatT0=    0 NMatD0=    1 NMtDS0=    0 NMtDT0=    0
 Symmetry not used in FoFCou.
 E= -346.694157811999    
 DIIS: error= 2.47D-02 at cycle   1 NSaved=   1.
 NSaved= 1 IEnMin= 1 EnMin= -346.694157811999     IErMin= 1 ErrMin= 2.47D-02
 ErrMax= 2.47D-02  0.00D+00 EMaxC= 1.00D-01 BMatC= 2.88D-01 BMatP= 2.88D-01
 IDIUse=3 WtCom= 7.53D-01 WtEn= 2.47D-01
 Coeff-Com:  0.100D+01
 Coeff-En:   0.100D+01
 Coeff:      0.100D+01
 Gap=     0.350 Goal=   None    Shift=    0.000
 GapD=    0.350 DampG=1.000 DampE=0.500 DampFc=0.5000 IDamp=-1.
 Damping current iteration by 5.00D-01
 RMSDP=2.44D-03 MaxDP=1.68D-01              OVMax= 1.32D-01

 Cycle   2  Pass 0  IDiag  1:
 RMSU=  1.22D-03    CP:  1.00D+00
 E= -346.814474334520     Delta-E=       -0.120316522521 Rises=F Damp=T
 DIIS: error= 3.73D-03 at cycle   2 NSaved=   2.
 NSaved= 2 IEnMin= 2 EnMin= -346.814474334520     IErMin= 2 ErrMin= 3.73D-03
 ErrMax= 3.73D-03  0.00D+00 EMaxC= 1.00D-01 BMatC= 2.12D-02 BMatP= 2.88D-01
 IDIUse=3 WtCom= 9.63D-01 WtEn= 3.73D-02
 Coeff-Com: -0.124D+00 0.112D+01
 Coeff-En:   0.000D+00 0.100D+01
 Coeff:     -0.119D+00 0.112D+01
 Gap=     0.319 Goal=   None    Shift=    0.000
 RMSDP=4.85D-04 MaxDP=2.60D-02 DE=-1.20D-01 OVMax= 6.98D-02

 Cycle   3  Pass 0  IDiag  1:
 RMSU=  4.57D-04    CP:  1.00D+00  8.70D-01
 E= -346.923575333465     Delta-E=       -0.109100998946 Rises=F Damp=F
 DIIS: error= 2.67D-03 at cycle   3 NSaved=   3.
 NSaved= 3 IEnMin= 3 EnMin= -346.923575333465     IErMin= 3 ErrMin= 2.67D-03
 ErrMax= 2.67D-03  0.00D+00 EMaxC= 1.00D-01 BMatC= 3.89D-03 BMatP= 2.12D-02
 IDIUse=3 WtCom= 9.73D-01 WtEn= 2.67D-02
 Coeff-Com: -0.819D-01 0.317D+00 0.765D+00
 Coeff-En:   0.000D+00 0.000D+00 0.100D+01
 Coeff:     -0.797D-01 0.309D+00 0.771D+00
 Gap=     0.316 Goal=   None    Shift=    0.000
 RMSDP=2.08D-04 MaxDP=1.56D-02 DE=-1.09D-01 OVMax= 1.22D-02

 Cycle   4  Pass 0  IDiag  1:
 RMSU=  1.32D-04    CP:  1.00D+00  9.92D-01  8.71D-01
 E= -346.925600157729     Delta-E=       -0.002024824264 Rises=F Damp=F
 DIIS: error= 1.28D-03 at cycle   4 NSaved=   4.
 NSaved= 4 IEnMin= 4 EnMin= -346.925600157729     IErMin= 4 ErrMin= 1.28D-03
 ErrMax= 1.28D-03  0.00D+00 EMaxC= 1.00D-01 BMatC= 1.08D-03 BMatP= 3.89D-03
 IDIUse=3 WtCom= 9.87D-01 WtEn= 1.28D-02
 Coeff-Com: -0.281D-01 0.750D-01 0.387D+00 0.566D+00
 Coeff-En:   0.000D+00 0.000D+00 0.170D+00 0.830D+00
 Coeff:     -0.277D-01 0.740D-01 0.384D+00 0.569D+00
 Gap=     0.314 Goal=   None    Shift=    0.000
 RMSDP=7.81D-05 MaxDP=5.79D-03 DE=-2.02D-03 OVMax= 5.36D-03

 Cycle   5  Pass 0  IDiag  1:
 RMSU=  2.76D-05    CP:  1.00D+00  9.58D-01  9.30D-01  5.91D-01
 E= -346.926355273642     Delta-E=       -0.000755115913 Rises=F Damp=F
 DIIS: error= 2.42D-04 at cycle   5 NSaved=   5.
 NSaved= 5 IEnMin= 5 EnMin= -346.926355273642     IErMin= 5 ErrMin= 2.42D-04
 ErrMax= 2.42D-04  0.00D+00 EMaxC= 1.00D-01 BMatC= 2.73D-05 BMatP= 1.08D-03
 IDIUse=3 WtCom= 9.98D-01 WtEn= 2.42D-03
 Coeff-Com: -0.475D-02 0.842D-02 0.944D-01 0.208D+00 0.694D+00
 Coeff-En:   0.000D+00 0.000D+00 0.000D+00 0.000D+00 0.100D+01
 Coeff:     -0.474D-02 0.840D-02 0.942D-01 0.208D+00 0.695D+00
 Gap=     0.314 Goal=   None    Shift=    0.000
 RMSDP=1.01D-05 MaxDP=2.69D-04 DE=-7.55D-04 OVMax= 7.83D-04

 Cycle   6  Pass 0  IDiag  1:
 RMSU=  7.49D-06    CP:  1.00D+00  9.58D-01  9.35D-01  6.28D-01  8.55D-01
 E= -346.926374241945     Delta-E=       -0.000018968303 Rises=F Damp=F
 DIIS: error= 4.01D-05 at cycle   6 NSaved=   6.
 NSaved= 6 IEnMin= 6 EnMin= -346.926374241945     IErMin= 6 ErrMin= 4.01D-05
 ErrMax= 4.01D-05  0.00D+00 EMaxC= 1.00D-01 BMatC= 1.55D-06 BMatP= 2.73D-05
 IDIUse=1 WtCom= 1.00D+00 WtEn= 0.00D+00
 Coeff-Com: -0.101D-03-0.938D-03 0.136D-01 0.491D-01 0.236D+00 0.703D+00
 Coeff:     -0.101D-03-0.938D-03 0.136D-01 0.491D-01 0.236D+00 0.703D+00
 Gap=     0.314 Goal=   None    Shift=    0.000
 RMSDP=3.26D-06 MaxDP=1.04D-04 DE=-1.90D-05 OVMax= 2.92D-04

 Initial convergence to 1.0D-05 achieved.  Increase integral accuracy.
 Cycle   7  Pass 1  IDiag  1:
 E= -346.926360850009     Delta-E=        0.000013391936 Rises=F Damp=F
 DIIS: error= 2.59D-05 at cycle   1 NSaved=   1.
 NSaved= 1 IEnMin= 1 EnMin= -346.926360850009     IErMin= 1 ErrMin= 2.59D-05
 ErrMax= 2.59D-05  0.00D+00 EMaxC= 1.00D-01 BMatC= 6.94D-07 BMatP= 6.94D-07
 IDIUse=1 WtCom= 1.00D+00 WtEn= 0.00D+00
 Coeff-Com:  0.100D+01
 Coeff:      0.100D+01
 Gap=     0.314 Goal=   None    Shift=    0.000
 RMSDP=3.26D-06 MaxDP=1.04D-04 DE= 1.34D-05 OVMax= 1.58D-04

 Cycle   8  Pass 1  IDiag  1:
 RMSU=  6.88D-06    CP:  1.00D+00
 E= -346.926360973777     Delta-E=       -0.000000123768 Rises=F Damp=F
 DIIS: error= 2.41D-05 at cycle   2 NSaved=   2.
 NSaved= 2 IEnMin= 2 EnMin= -346.926360973777     IErMin= 2 ErrMin= 2.41D-05
 ErrMax= 2.41D-05  0.00D+00 EMaxC= 1.00D-01 BMatC= 4.45D-07 BMatP= 6.94D-07
 IDIUse=1 WtCom= 1.00D+00 WtEn= 0.00D+00
 Coeff-Com:  0.431D+00 0.569D+00
 Coeff:      0.431D+00 0.569D+00
 Gap=     0.314 Goal=   None    Shift=    0.000
 RMSDP=1.24D-06 MaxDP=5.64D-05 DE=-1.24D-07 OVMax= 1.15D-04

 Cycle   9  Pass 1  IDiag  1:
 RMSU=  1.23D-06    CP:  1.00D+00  9.84D-01
 E= -346.926361249468     Delta-E=       -0.000000275692 Rises=F Damp=F
 DIIS: error= 7.91D-06 at cycle   3 NSaved=   3.
 NSaved= 3 IEnMin= 3 EnMin= -346.926361249468     IErMin= 3 ErrMin= 7.91D-06
 ErrMax= 7.91D-06  0.00D+00 EMaxC= 1.00D-01 BMatC= 4.15D-08 BMatP= 4.45D-07
 IDIUse=1 WtCom= 1.00D+00 WtEn= 0.00D+00
 Coeff-Com: -0.103D-01 0.225D+00 0.785D+00
 Coeff:     -0.103D-01 0.225D+00 0.785D+00
 Gap=     0.314 Goal=   None    Shift=    0.000
 RMSDP=3.83D-07 MaxDP=1.47D-05 DE=-2.76D-07 OVMax= 2.74D-05

 Cycle  10  Pass 1  IDiag  1:
 RMSU=  2.27D-07    CP:  1.00D+00  1.02D+00  8.35D-01
 E= -346.926361275864     Delta-E=       -0.000000026395 Rises=F Damp=F
 DIIS: error= 1.50D-06 at cycle   4 NSaved=   4.
 NSaved= 4 IEnMin= 4 EnMin= -346.926361275864     IErMin= 4 ErrMin= 1.50D-06
 ErrMax= 1.50D-06  0.00D+00 EMaxC= 1.00D-01 BMatC= 1.35D-09 BMatP= 4.15D-08
 IDIUse=1 WtCom= 1.00D+00 WtEn= 0.00D+00
 Coeff-Com: -0.124D-01 0.861D-01 0.329D+00 0.597D+00
 Coeff:     -0.124D-01 0.861D-01 0.329D+00 0.597D+00
 Gap=     0.314 Goal=   None    Shift=    0.000
 RMSDP=8.12D-08 MaxDP=4.20D-06 DE=-2.64D-08 OVMax= 1.29D-05

 Cycle  11  Pass 1  IDiag  1:
 RMSU=  7.89D-08    CP:  1.00D+00  1.02D+00  8.47D-01  9.86D-01
 E= -346.926361276964     Delta-E=       -0.000000001100 Rises=F Damp=F
 DIIS: error= 4.60D-07 at cycle   5 NSaved=   5.
 NSaved= 5 IEnMin= 5 EnMin= -346.926361276964     IErMin= 5 ErrMin= 4.60D-07
 ErrMax= 4.60D-07  0.00D+00 EMaxC= 1.00D-01 BMatC= 1.36D-10 BMatP= 1.35D-09
 IDIUse=1 WtCom= 1.00D+00 WtEn= 0.00D+00
 Coeff-Com: -0.240D-02-0.401D-02-0.127D-01 0.210D+00 0.809D+00
 Coeff:     -0.240D-02-0.401D-02-0.127D-01 0.210D+00 0.809D+00
 Gap=     0.314 Goal=   None    Shift=    0.000
 RMSDP=3.58D-08 MaxDP=1.95D-06 DE=-1.10D-09 OVMax= 4.34D-06

 Cycle  12  Pass 1  IDiag  1:
 RMSU=  2.32D-08    CP:  1.00D+00  1.02D+00  8.44D-01  1.09D+00  9.09D-01
 E= -346.926361277092     Delta-E=       -0.000000000129 Rises=F Damp=F
 DIIS: error= 1.65D-07 at cycle   6 NSaved=   6.
 NSaved= 6 IEnMin= 6 EnMin= -346.926361277092     IErMin= 6 ErrMin= 1.65D-07
 ErrMax= 1.65D-07  0.00D+00 EMaxC= 1.00D-01 BMatC= 1.21D-11 BMatP= 1.36D-10
 IDIUse=1 WtCom= 1.00D+00 WtEn= 0.00D+00
 Coeff-Com:  0.589D-03-0.114D-01-0.435D-01 0.116D-01 0.292D+00 0.751D+00
 Coeff:      0.589D-03-0.114D-01-0.435D-01 0.116D-01 0.292D+00 0.751D+00
 Gap=     0.314 Goal=   None    Shift=    0.000
 RMSDP=1.24D-08 MaxDP=5.89D-07 DE=-1.29D-10 OVMax= 1.45D-06

 Cycle  13  Pass 1  IDiag  1:
 RMSU=  8.53D-09    CP:  1.00D+00  1.02D+00  8.45D-01  1.12D+00  9.82D-01
                    CP:  1.04D+00
 E= -346.926361277115     Delta-E=       -0.000000000022 Rises=F Damp=F
 DIIS: error= 4.98D-08 at cycle   7 NSaved=   7.
 NSaved= 7 IEnMin= 7 EnMin= -346.926361277115     IErMin= 7 ErrMin= 4.98D-08
 ErrMax= 4.98D-08  0.00D+00 EMaxC= 1.00D-01 BMatC= 1.39D-12 BMatP= 1.21D-11
 IDIUse=1 WtCom= 1.00D+00 WtEn= 0.00D+00
 Coeff-Com:  0.422D-03-0.458D-02-0.178D-01-0.101D-01 0.684D-01 0.324D+00
 Coeff-Com:  0.640D+00
 Coeff:      0.422D-03-0.458D-02-0.178D-01-0.101D-01 0.684D-01 0.324D+00
 Coeff:      0.640D+00
 Gap=     0.314 Goal=   None    Shift=    0.000
 RMSDP=2.84D-09 MaxDP=1.48D-07 DE=-2.24D-11 OVMax= 4.98D-07

 SCF Done:  E(RM062X) =  -346.926361277     A.U. after   13 cycles
            NFock= 13  Conv=0.28D-08     -V/T= 2.0063
 KE= 3.447473614597D+02 PE=-1.439068764357D+03 EE= 4.329511124696D+02
 Leave Link  502 at Sat Sep 28 04:23:07 2019, MaxMem=   671088640 cpu:            1184.3 elap:             592.2
 (Enter /shared/centos7/gaussian/g16/l801.exe)
 DoSCS=F DFT=T ScalE2(SS,OS)=  1.000000  1.000000
 Range of M.O.s used for correlation:     1   350
 NBasis=   350 NAE=    28 NBE=    28 NFC=     0 NFV=     0
 NROrb=    350 NOA=    28 NOB=    28 NVA=   322 NVB=   322

 **** Warning!!: The largest alpha MO coefficient is  0.11935069D+02

 Leave Link  801 at Sat Sep 28 04:23:08 2019, MaxMem=   671088640 cpu:               1.5 elap:               0.7
 (Enter /shared/centos7/gaussian/g16/l1101.exe)
 Using compressed storage, NAtomX=    17.
 Will process     18 centers per pass.
 Leave Link 1101 at Sat Sep 28 04:23:40 2019, MaxMem=   671088640 cpu:              64.3 elap:              32.2
 (Enter /shared/centos7/gaussian/g16/l1102.exe)
 Symmetrizing basis deriv contribution to polar:
 IMax=3 JMax=2 DiffMx= 0.00D+00
 Leave Link 1102 at Sat Sep 28 04:23:43 2019, MaxMem=   671088640 cpu:               6.0 elap:               3.0
 (Enter /shared/centos7/gaussian/g16/l1110.exe)
 Forming Gx(P) for the SCF density, NAtomX=    17.
 Integral derivatives from FoFJK, PRISM(SPDF).
 Do as many integral derivatives as possible in FoFJK.
 G2DrvN: MDV=     671087280.
 G2DrvN: will do    18 centers at a time, making    1 passes.
 Calling FoFCou, ICntrl=  3107 FMM=F I1Cent=   0 AccDes= 0.00D+00.
 FoFJK:  IHMeth= 1 ICntrl=    3107 DoSepK=F KAlg= 0 I1Cent=           0 FoldK=F
 IRaf=         0 NMat=       1 IRICut=       1 DoRegI=T DoRafI=F ISym2E= 0 IDoP0=0 IntGTp=1.
 FoFCou: FMM=F IPFlag=           0 FMFlag=      100000 FMFlg1=           0
         NFxFlg=           0 DoJE=F BraDBF=F KetDBF=F FulRan=T
         wScrn=  0.000000 ICntrl=      3107 IOpCl=  0 I1Cent=           0 NGrid=           0
         NMat0=    1 NMatS0=      1 NMatT0=    0 NMatD0=    1 NMtDS0=    0 NMtDT0=    0
 Symmetry not used in FoFCou.
 End of G2Drv F.D. properties file   721 does not exist.
 End of G2Drv F.D. properties file   722 does not exist.
 End of G2Drv F.D. properties file   788 does not exist.
 Leave Link 1110 at Sat Sep 28 04:40:53 2019, MaxMem=   671088640 cpu:            2061.0 elap:            1030.6
 (Enter /shared/centos7/gaussian/g16/l1002.exe)
 Minotr:  Closed shell wavefunction.
          IDoAtm=11111111111111111
          Direct CPHF calculation.
          Differentiating once with respect to nuclear coordinates.
          Requested convergence is 1.0D-08 RMS, and 1.0D-07 maximum.
          Secondary convergence is 1.0D-12 RMS, and 1.0D-12 maximum.
          NewPWx=T KeepS1=F KeepF1=F KeepIn=T MapXYZ=F SortEE=F KeepMc=T.
         5130 words used for storage of precomputed grid.
 Two-electron integrals replicated using symmetry.
          MDV=     671088640 using IRadAn=       1.
          Solving linear equations simultaneously, MaxMat=     380.
 FoF2E skips out because all densities are zero.
 CalDSu exits because no D1Ps are significant.
 FoFJK:  IHMeth= 1 ICntrl=       0 DoSepK=F KAlg= 0 I1Cent=           0 FoldK=F
 IRaf= 930000000 NMat=      51 IRICut=     127 DoRegI=T DoRafI=T ISym2E= 2 IDoP0=3 IntGTp=3.
 FoFCou: FMM=F IPFlag=           0 FMFlag=      100000 FMFlg1=           0
         NFxFlg=           0 DoJE=F BraDBF=F KetDBF=F FulRan=T
         wScrn=  0.000000 ICntrl=         0 IOpCl=  0 I1Cent=           0 NGrid=           0
         NMat0=   51 NMatS0=     51 NMatT0=    0 NMatD0=   51 NMtDS0=    0 NMtDT0=    0
 Integrals replicated using symmetry in FoFCou.
 Raff kept on since  89.67% of shell-pairs survive, threshold=   0.20 IRatSp=90.
          There are    54 degrees of freedom in the 1st order CPHF.  IDoFFX=6 NUNeed=     0.
     48 vectors produced by pass  0 Test12= 1.67D-14 1.85D-09 XBig12= 7.02D-02 6.31D-02.
 AX will form    48 AO Fock derivatives at one time.
     48 vectors produced by pass  1 Test12= 1.67D-14 1.85D-09 XBig12= 7.46D-03 1.69D-02.
     48 vectors produced by pass  2 Test12= 1.67D-14 1.85D-09 XBig12= 1.30D-04 2.23D-03.
     48 vectors produced by pass  3 Test12= 1.67D-14 1.85D-09 XBig12= 1.30D-06 1.91D-04.
     48 vectors produced by pass  4 Test12= 1.67D-14 1.85D-09 XBig12= 8.43D-09 1.30D-05.
     48 vectors produced by pass  5 Test12= 1.67D-14 1.85D-09 XBig12= 4.46D-11 9.72D-07.
     26 vectors produced by pass  6 Test12= 1.67D-14 1.85D-09 XBig12= 2.13D-13 6.37D-08.
      6 vectors produced by pass  7 Test12= 1.67D-14 1.85D-09 XBig12= 9.16D-16 3.18D-09.
 InvSVY:  IOpt=1 It=  1 EMax= 4.44D-16
 Solved reduced A of dimension   320 with    54 vectors.
 End of Minotr F.D. properties file   721 does not exist.
 End of Minotr F.D. properties file   722 does not exist.
 End of Minotr F.D. properties file   788 does not exist.
 Leave Link 1002 at Sat Sep 28 05:10:56 2019, MaxMem=   671088640 cpu:            3605.3 elap:            1802.8
 (Enter /shared/centos7/gaussian/g16/l601.exe)
 Copying SCF densities to generalized density rwf, IOpCl= 0 IROHF=0.

 **********************************************************************

            Population analysis using the SCF density.

 **********************************************************************

 Orbital symmetries:
       Occupied  (A) (A) (A) (A) (A) (A) (A) (A) (A) (A) (A) (A)
                 (A) (A) (A) (A) (A) (A) (A) (A) (A) (A) (A) (A)
                 (A) (A) (A) (A)
       Virtual   (A) (A) (A) (A) (A) (A) (A) (A) (A) (A) (A) (A)
                 (A) (A) (A) (A) (A) (A) (A) (A) (A) (A) (A) (A)
                 (A) (A) (A) (A) (A) (A) (A) (A) (A) (A) (A) (A)
                 (A) (A) (A) (A) (A) (A) (A) (A) (A) (A) (A) (A)
                 (A) (A) (A) (A) (A) (A) (A) (A) (A) (A) (A) (A)
                 (A) (A) (A) (A) (A) (A) (A) (A) (A) (A) (A) (A)
                 (A) (A) (A) (A) (A) (A) (A) (A) (A) (A) (A) (A)
                 (A) (A) (A) (A) (A) (A) (A) (A) (A) (A) (A) (A)
                 (A) (A) (A) (A) (A) (A) (A) (A) (A) (A) (A) (A)
                 (A) (A) (A) (A) (A) (A) (A) (A) (A) (A) (A) (A)
                 (A) (A) (A) (A) (A) (A) (A) (A) (A) (A) (A) (A)
                 (A) (A) (A) (A) (A) (A) (A) (A) (A) (A) (A) (A)
                 (A) (A) (A) (A) (A) (A) (A) (A) (A) (A) (A) (A)
                 (A) (A) (A) (A) (A) (A) (A) (A) (A) (A) (A) (A)
                 (A) (A) (A) (A) (A) (A) (A) (A) (A) (A) (A) (A)
                 (A) (A) (A) (A) (A) (A) (A) (A) (A) (A) (A) (A)
                 (A) (A) (A) (A) (A) (A) (A) (A) (A) (A) (A) (A)
                 (A) (A) (A) (A) (A) (A) (A) (A) (A) (A) (A) (A)
                 (A) (A) (A) (A) (A) (A) (A) (A) (A) (A) (A) (A)
                 (A) (A) (A) (A) (A) (A) (A) (A) (A) (A) (A) (A)
                 (A) (A) (A) (A) (A) (A) (A) (A) (A) (A) (A) (A)
                 (A) (A) (A) (A) (A) (A) (A) (A) (A) (A) (A) (A)
                 (A) (A) (A) (A) (A) (A) (A) (A) (A) (A) (A) (A)
                 (A) (A) (A) (A) (A) (A) (A) (A) (A) (A) (A) (A)
                 (A) (A) (A) (A) (A) (A) (A) (A) (A) (A) (A) (A)
                 (A) (A) (A) (A) (A) (A) (A) (A) (A) (A) (A) (A)
                 (A) (A) (A) (A) (A) (A) (A) (A) (A) (A)
 The electronic state is 1-A.
 Alpha  occ. eigenvalues --  -19.64140 -19.63778 -10.59445 -10.57593 -10.57191
 Alpha  occ. eigenvalues --  -10.53662 -10.53232  -1.17956  -1.15164  -0.89015
 Alpha  occ. eigenvalues --   -0.83920  -0.78113  -0.69961  -0.64105  -0.59972
 Alpha  occ. eigenvalues --   -0.57399  -0.54464  -0.52208  -0.49239  -0.47426
 Alpha  occ. eigenvalues --   -0.46135  -0.44781  -0.43303  -0.42724  -0.42223
 Alpha  occ. eigenvalues --   -0.38164  -0.36979  -0.26215
 Alpha virt. eigenvalues --    0.05182   0.07193   0.08962   0.09022   0.11188
 Alpha virt. eigenvalues --    0.12081   0.12795   0.14337   0.16133   0.17072
 Alpha virt. eigenvalues --    0.17460   0.20256   0.21494   0.22727   0.25658
 Alpha virt. eigenvalues --    0.28122   0.28626   0.30375   0.33129   0.33963
 Alpha virt. eigenvalues --    0.34311   0.36427   0.37032   0.38825   0.40256
 Alpha virt. eigenvalues --    0.40892   0.42641   0.43515   0.45894   0.46899
 Alpha virt. eigenvalues --    0.47279   0.48599   0.49558   0.50083   0.50433
 Alpha virt. eigenvalues --    0.51517   0.52190   0.52381   0.53147   0.53895
 Alpha virt. eigenvalues --    0.57306   0.58326   0.59164   0.61370   0.64208
 Alpha virt. eigenvalues --    0.65486   0.67621   0.68964   0.70870   0.71654
 Alpha virt. eigenvalues --    0.73999   0.76962   0.79437   0.80633   0.81725
 Alpha virt. eigenvalues --    0.82937   0.84104   0.87556   0.89232   0.90624
 Alpha virt. eigenvalues --    0.91539   0.92205   0.93894   0.95500   0.98511
 Alpha virt. eigenvalues --    1.00365   1.02335   1.04319   1.04766   1.06386
 Alpha virt. eigenvalues --    1.06845   1.07806   1.10245   1.11874   1.15045
 Alpha virt. eigenvalues --    1.15255   1.17886   1.19021   1.20037   1.22642
 Alpha virt. eigenvalues --    1.23666   1.24561   1.25721   1.27314   1.28293
 Alpha virt. eigenvalues --    1.29838   1.30368   1.31063   1.35235   1.36320
 Alpha virt. eigenvalues --    1.37014   1.38537   1.40083   1.42041   1.43229
 Alpha virt. eigenvalues --    1.45624   1.46666   1.47370   1.50631   1.51476
 Alpha virt. eigenvalues --    1.53870   1.56810   1.58210   1.60627   1.61651
 Alpha virt. eigenvalues --    1.63827   1.71121   1.71884   1.78780   1.82969
 Alpha virt. eigenvalues --    1.86762   1.93240   1.98126   1.99688   2.05475
 Alpha virt. eigenvalues --    2.09106   2.11200   2.14995   2.18702   2.20666
 Alpha virt. eigenvalues --    2.23226   2.26129   2.29422   2.34178   2.35875
 Alpha virt. eigenvalues --    2.38630   2.39997   2.40730   2.42817   2.48695
 Alpha virt. eigenvalues --    2.51698   2.54479   2.55888   2.56425   2.58125
 Alpha virt. eigenvalues --    2.61012   2.61817   2.63585   2.64993   2.68550
 Alpha virt. eigenvalues --    2.69063   2.73159   2.75728   2.78531   2.80443
 Alpha virt. eigenvalues --    2.81966   2.83075   2.84473   2.86324   2.87933
 Alpha virt. eigenvalues --    2.89949   2.91559   2.91900   2.93050   2.94564
 Alpha virt. eigenvalues --    2.96873   2.98151   2.98498   3.01648   3.02263
 Alpha virt. eigenvalues --    3.03899   3.04622   3.05866   3.07761   3.08465
 Alpha virt. eigenvalues --    3.08800   3.09703   3.11292   3.12103   3.13487
 Alpha virt. eigenvalues --    3.14889   3.17669   3.19057   3.21174   3.22449
 Alpha virt. eigenvalues --    3.23408   3.23655   3.26540   3.27532   3.27858
 Alpha virt. eigenvalues --    3.29766   3.31964   3.34665   3.35181   3.36341
 Alpha virt. eigenvalues --    3.38069   3.40332   3.40692   3.41531   3.43324
 Alpha virt. eigenvalues --    3.45982   3.46720   3.48425   3.49615   3.51050
 Alpha virt. eigenvalues --    3.52259   3.54958   3.57693   3.60353   3.62020
 Alpha virt. eigenvalues --    3.63097   3.65867   3.70491   3.71812   3.72608
 Alpha virt. eigenvalues --    3.74144   3.75189   3.76368   3.77464   3.79466
 Alpha virt. eigenvalues --    3.81641   3.82863   3.83978   3.86015   3.88324
 Alpha virt. eigenvalues --    3.89541   3.89952   3.90380   3.92034   3.93187
 Alpha virt. eigenvalues --    3.94343   3.96302   3.98114   3.99908   4.01060
 Alpha virt. eigenvalues --    4.01752   4.04004   4.06605   4.07234   4.08557
 Alpha virt. eigenvalues --    4.10297   4.13400   4.14750   4.16216   4.19156
 Alpha virt. eigenvalues --    4.21108   4.23792   4.25743   4.27677   4.27912
 Alpha virt. eigenvalues --    4.30881   4.32507   4.33458   4.38229   4.41452
 Alpha virt. eigenvalues --    4.44807   4.48776   4.51605   4.53051   4.53950
 Alpha virt. eigenvalues --    4.55906   4.60693   4.64238   4.66124   4.68542
 Alpha virt. eigenvalues --    4.70835   4.72409   4.73135   4.75777   4.78699
 Alpha virt. eigenvalues --    4.84382   4.86088   4.91047   4.93428   4.97036
 Alpha virt. eigenvalues --    4.97651   5.00633   5.00769   5.03826   5.06742
 Alpha virt. eigenvalues --    5.07056   5.09123   5.12035   5.13512   5.20348
 Alpha virt. eigenvalues --    5.22266   5.22907   5.24002   5.26836   5.30942
 Alpha virt. eigenvalues --    5.32358   5.33631   5.37972   5.43956   5.48539
 Alpha virt. eigenvalues --    5.54864   5.59296   5.63020   5.66107   5.73778
 Alpha virt. eigenvalues --    5.78479   5.80519   5.81053   5.82029   5.87058
 Alpha virt. eigenvalues --    5.96112   6.00666   6.03449   6.09318   6.28424
 Alpha virt. eigenvalues --    6.33267   6.48436   6.56663   6.57887   6.71443
 Alpha virt. eigenvalues --    6.73484   6.75152   6.79428   6.84671   6.97482
 Alpha virt. eigenvalues --    7.05239   7.21604   7.28015   7.34100   7.45644
 Alpha virt. eigenvalues --   10.41325  11.18242  11.60321  11.92042  13.13581
 Alpha virt. eigenvalues --   13.30573  14.61875
          Condensed to atoms (all electrons):
               1          2          3          4          5          6
     1  O    7.828643   0.003532   0.320540  -0.053272  -0.050204   0.315348
     2  O    0.003532   7.772617   0.000392   0.000010  -0.000054  -0.084295
     3  C    0.320540   0.000392   4.832007   0.337444   0.326926  -0.063497
     4  C   -0.053272   0.000010   0.337444   5.038124  -0.087596  -0.009445
     5  C   -0.050204  -0.000054   0.326926  -0.087596   5.071316  -0.031481
     6  C    0.315348  -0.084295  -0.063497  -0.009445  -0.031481   5.113286
     7  C   -0.051136   0.364024  -0.000523   0.003742  -0.000717   0.473618
     8  H   -0.030527  -0.000004   0.411750  -0.050705  -0.050877   0.007648
     9  H    0.003230   0.000048  -0.033541   0.396838   0.009186  -0.001436
    10  H    0.004830   0.000002  -0.028893   0.389291   0.001033  -0.000649
    11  H   -0.005296  -0.000101  -0.035742   0.393260  -0.008118   0.008960
    12  H   -0.000232  -0.000049  -0.040685  -0.007830   0.402977  -0.009918
    13  H    0.002970   0.000016  -0.036122   0.010049   0.394503   0.000311
    14  H    0.004330   0.000001  -0.030101  -0.000858   0.387943   0.001482
    15  H   -0.053689   0.003158   0.004959  -0.002617  -0.004078   0.398515
    16  H    0.003571  -0.051306  -0.000323   0.000115  -0.000007  -0.120667
    17  H   -0.000101   0.326266  -0.000004   0.000005   0.000009   0.020174
               7          8          9         10         11         12
     1  O   -0.051136  -0.030527   0.003230   0.004830  -0.005296  -0.000232
     2  O    0.364024  -0.000004   0.000048   0.000002  -0.000101  -0.000049
     3  C   -0.000523   0.411750  -0.033541  -0.028893  -0.035742  -0.040685
     4  C    0.003742  -0.050705   0.396838   0.389291   0.393260  -0.007830
     5  C   -0.000717  -0.050877   0.009186   0.001033  -0.008118   0.402977
     6  C    0.473618   0.007648  -0.001436  -0.000649   0.008960  -0.009918
     7  C    4.896657   0.000666  -0.000776  -0.000223   0.004400   0.001682
     8  H    0.000666   0.586953  -0.006868  -0.005067   0.007471   0.008216
     9  H   -0.000776  -0.006868   0.555998  -0.024937  -0.030840  -0.000193
    10  H   -0.000223  -0.005067  -0.024937   0.588322  -0.039037   0.000735
    11  H    0.004400   0.007471  -0.030840  -0.039037   0.595662   0.002720
    12  H    0.001682   0.008216  -0.000193   0.000735   0.002720   0.616549
    13  H   -0.000221  -0.008000  -0.000481  -0.000351   0.000037  -0.034193
    14  H    0.000011  -0.005067  -0.000035  -0.000953   0.000320  -0.035769
    15  H   -0.060885  -0.001257   0.001002   0.000165  -0.005521  -0.011754
    16  H    0.473112   0.000046  -0.000002  -0.000003   0.000107   0.000122
    17  H   -0.045960  -0.000001  -0.000002  -0.000000   0.000007   0.000009
              13         14         15         16         17
     1  O    0.002970   0.004330  -0.053689   0.003571  -0.000101
     2  O    0.000016   0.000001   0.003158  -0.051306   0.326266
     3  C   -0.036122  -0.030101   0.004959  -0.000323  -0.000004
     4  C    0.010049  -0.000858  -0.002617   0.000115   0.000005
     5  C    0.394503   0.387943  -0.004078  -0.000007   0.000009
     6  C    0.000311   0.001482   0.398515  -0.120667   0.020174
     7  C   -0.000221   0.000011  -0.060885   0.473112  -0.045960
     8  H   -0.008000  -0.005067  -0.001257   0.000046  -0.000001
     9  H   -0.000481  -0.000035   0.001002  -0.000002  -0.000002
    10  H   -0.000351  -0.000953   0.000165  -0.000003  -0.000000
    11  H    0.000037   0.000320  -0.005521   0.000107   0.000007
    12  H   -0.034193  -0.035769  -0.011754   0.000122   0.000009
    13  H    0.556926  -0.023109   0.001088  -0.000011  -0.000001
    14  H   -0.023109   0.588148  -0.000381  -0.000008  -0.000000
    15  H    0.001088  -0.000381   0.610645  -0.002557  -0.000561
    16  H   -0.000011  -0.000008  -0.002557   0.617473  -0.014534
    17  H   -0.000001  -0.000000  -0.000561  -0.014534   0.453342
 Mulliken charges:
               1
     1  O   -0.242538
     2  O   -0.334255
     3  C    0.035412
     4  C   -0.356554
     5  C   -0.360761
     6  C   -0.017954
     7  C   -0.057472
     8  H    0.135622
     9  H    0.132810
    10  H    0.115735
    11  H    0.111712
    12  H    0.107613
    13  H    0.136591
    14  H    0.114047
    15  H    0.123769
    16  H    0.094871
    17  H    0.261351
 Sum of Mulliken charges =  -0.00000
 Mulliken charges with hydrogens summed into heavy atoms:
               1
     1  O   -0.242538
     2  O   -0.072904
     3  C    0.171035
     4  C    0.003703
     5  C   -0.002510
     6  C    0.105815
     7  C    0.037399
 APT charges:
               1
     1  O   -0.175845
     2  O   -0.887809
     3  C   -0.296796
     4  C   -1.084356
     5  C   -1.101736
     6  C   -0.346629
     7  C   -0.345684
     8  H    0.446565
     9  H    0.345705
    10  H    0.508979
    11  H    0.230477
    12  H    0.194471
    13  H    0.364549
    14  H    0.506569
    15  H    0.289449
    16  H    0.442129
    17  H    0.909963
 Sum of APT charges =  -0.00000
 APT charges with hydrogens summed into heavy atoms:
               1
     1  O   -0.175845
     2  O    0.022155
     3  C    0.149768
     4  C    0.000806
     5  C   -0.036148
     6  C   -0.057181
     7  C    0.096445
 Electronic spatial extent (au):  <R**2>=            988.6726
 Charge=             -0.0000 electrons
 Dipole moment (field-independent basis, Debye):
    X=             -0.1806    Y=             -0.6000    Z=              2.0754  Tot=              2.1679
 Quadrupole moment (field-independent basis, Debye-Ang):
   XX=            -32.4120   YY=            -45.2076   ZZ=            -44.4952
   XY=             -0.9455   XZ=              4.9418   YZ=             -0.6767
 Traceless Quadrupole moment (field-independent basis, Debye-Ang):
   XX=              8.2929   YY=             -4.5027   ZZ=             -3.7903
   XY=             -0.9455   XZ=              4.9418   YZ=             -0.6767
 Octapole moment (field-independent basis, Debye-Ang**2):
  XXX=             57.3376  YYY=              3.0951  ZZZ=             -3.1591  XYY=              1.7039
  XXY=             -0.0654  XXZ=              7.4338  XZZ=              2.7870  YZZ=             -1.6004
  YYZ=             -3.0346  XYZ=             -0.4442
 Hexadecapole moment (field-independent basis, Debye-Ang**3):
 XXXX=           -680.6100 YYYY=           -228.0328 ZZZZ=           -136.3329 XXXY=              3.5339
 XXXZ=             27.9315 YYYX=              3.7105 YYYZ=             -0.6395 ZZZX=              3.9742
 ZZZY=             -4.1979 XXYY=           -201.3144 XXZZ=           -180.6532 YYZZ=            -60.8506
 XXYZ=             -1.5029 YYXZ=              1.0810 ZZXY=             -1.0262
 N-N= 3.144439291507D+02 E-N=-1.439068759448D+03  KE= 3.447473614597D+02
  Exact polarizability:   0.000   0.000   0.000   0.000   0.000   0.000
 Approx polarizability:  98.109   0.864  67.511   2.972  -2.995  74.989
 No NMR shielding tensors so no spin-rotation constants.
 Leave Link  601 at Sat Sep 28 05:11:27 2019, MaxMem=   671088640 cpu:              61.0 elap:              30.6
 (Enter /shared/centos7/gaussian/g16/l701.exe)
 SCFChk:  SCF convergence  2.84D-09 required  1.00D-08
 ... and contract with generalized density number  0.
 Compute integral second derivatives.
 Entering OneElI...
 Calculate overlap and kinetic energy integrals
    NBasis = 395  MinDer = 2  MaxDer = 2
 Requested accuracy = 0.1000D-12
 PrmmSu-InSpLW:  IPartL=    0 NPrtUS=   20 NPrtUL=    1 DoSpLW=F IThBeg=    0 IThEnd=   19 NThAct=   20.
 PrsmSu:  NPrtUS=  20 ThrOK=T IAlg=1 NPAlg=1 LenDen=           0 ISkipM=0 DoSpLW=F IThBeg=    0 IThEnd=   19.
 Prism:   IPart=     0 DynPar=F LinDyn=F Incr=           4.
 PRISM was handed    33314742 working-precision words and  8401 shell-pairs
 PRISM was handed    33314742 working-precision words and  8401 shell-pairs
 PRISM was handed    33314742 working-precision words and  8401 shell-pairs
 PRISM was handed    33314742 working-precision words and  8401 shell-pairs
 PRISM was handed    33314742 working-precision words and  8401 shell-pairs
 PRISM was handed    33314742 working-precision words and  8401 shell-pairs
 PRISM was handed    33314742 working-precision words and  8401 shell-pairs
 PRISM was handed    33314742 working-precision words and  8401 shell-pairs
 PRISM was handed    33314742 working-precision words and  8401 shell-pairs
 PRISM was handed    33314742 working-precision words and  8401 shell-pairs
 PRISM was handed    33314742 working-precision words and  8401 shell-pairs
 PRISM was handed    33314742 working-precision words and  8401 shell-pairs
 PRISM was handed    33314742 working-precision words and  8401 shell-pairs
 PRISM was handed    33314742 working-precision words and  8401 shell-pairs
 PRISM was handed    33314742 working-precision words and  8401 shell-pairs
 PRISM was handed    33314742 working-precision words and  8401 shell-pairs
 PRISM was handed    33314742 working-precision words and  8401 shell-pairs
 IPart=  0 NShTot=         465 NBatch=          84 AvBLen=         5.5
 IPart= 12 NShTot=         404 NBatch=          41 AvBLen=         9.9
 PRISM was handed    33314742 working-precision words and  8401 shell-pairs
 PRISM was handed    33314742 working-precision words and  8401 shell-pairs
 IPart=  9 NShTot=         415 NBatch=          49 AvBLen=         8.5
 PRISM was handed    33314742 working-precision words and  8401 shell-pairs
 IPart= 11 NShTot=         415 NBatch=          49 AvBLen=         8.5
 IPart=  8 NShTot=         420 NBatch=          53 AvBLen=         7.9
 IPart= 10 NShTot=         415 NBatch=          49 AvBLen=         8.5
 IPart=  5 NShTot=         436 NBatch=          61 AvBLen=         7.1
 IPart=  4 NShTot=         440 NBatch=          65 AvBLen=         6.8
 IPart=  6 NShTot=         430 NBatch=          60 AvBLen=         7.2
 IPart=  7 NShTot=         421 NBatch=          53 AvBLen=         7.9
 IPart=  3 NShTot=         445 NBatch=          69 AvBLen=         6.4
 IPart=  2 NShTot=         450 NBatch=          74 AvBLen=         6.1
 IPart= 19 NShTot=         391 NBatch=          35 AvBLen=        11.2
 IPart= 15 NShTot=         401 NBatch=          39 AvBLen=        10.3
 IPart= 14 NShTot=         402 NBatch=          40 AvBLen=        10.1
 IPart= 17 NShTot=         397 NBatch=          37 AvBLen=        10.7
 IPart= 13 NShTot=         403 NBatch=          40 AvBLen=        10.1
 IPart= 16 NShTot=         399 NBatch=          38 AvBLen=        10.5
 IPart=  1 NShTot=         460 NBatch=          81 AvBLen=         5.7
 IPart= 18 NShTot=         392 NBatch=          36 AvBLen=        10.9
 PrSmSu:  NxtVal=             81.
 Entering OneElI...
 Calculate potential energy integrals
    NBasis = 395  MinDer = 2  MaxDer = 2
 Requested accuracy = 0.1000D-12
 PrmmSu-InSpLW:  IPartL=    0 NPrtUS=   20 NPrtUL=    1 DoSpLW=F IThBeg=    0 IThEnd=   19 NThAct=   20.
 PrsmSu:  NPrtUS=  20 ThrOK=T IAlg=1 NPAlg=1 LenDen=           0 ISkipM=0 DoSpLW=F IThBeg=    0 IThEnd=   19.
 Prism:   IPart=     0 DynPar=F LinDyn=F Incr=          64.
 PRISM was handed    33358240 working-precision words and  7567 shell-pairs
 PRISM was handed    33358240 working-precision words and  7567 shell-pairs
 PRISM was handed    33358240 working-precision words and  7567 shell-pairs
 PRISM was handed    33358240 working-precision words and  7567 shell-pairs
 PRISM was handed    33358240 working-precision words and  7567 shell-pairs
 PRISM was handed    33358240 working-precision words and  7567 shell-pairs
 PRISM was handed    33358240 working-precision words and  7567 shell-pairs
 PRISM was handed    33358240 working-precision words and  7567 shell-pairs
 PRISM was handed    33358240 working-precision words and  7567 shell-pairs
 PRISM was handed    33358240 working-precision words and  7567 shell-pairs
 PRISM was handed    33358240 working-precision words and  7567 shell-pairs
 PRISM was handed    33358240 working-precision words and  7567 shell-pairs
 PRISM was handed    33358240 working-precision words and  7567 shell-pairs
 PRISM was handed    33358240 working-precision words and  7567 shell-pairs
 PRISM was handed    33358240 working-precision words and  7567 shell-pairs
 PRISM was handed    33358240 working-precision words and  7567 shell-pairs
 PRISM was handed    33358240 working-precision words and  7567 shell-pairs
 PRISM was handed    33358240 working-precision words and  7567 shell-pairs
 PRISM was handed    33358240 working-precision words and  7567 shell-pairs
 PRISM was handed    33358240 working-precision words and  7567 shell-pairs
 IPart=  0 NShTot=        7123 NBatch=         419 AvBLen=        17.0
 IPart= 11 NShTot=        6256 NBatch=         368 AvBLen=        17.0
 IPart=  8 NShTot=        6409 NBatch=         377 AvBLen=        17.0
 IPart=  2 NShTot=        6919 NBatch=         407 AvBLen=        17.0
 IPart= 12 NShTot=        6222 NBatch=         366 AvBLen=        17.0
 IPart= 10 NShTot=        6273 NBatch=         369 AvBLen=        17.0
 IPart=  7 NShTot=        6460 NBatch=         380 AvBLen=        17.0
 IPart=  6 NShTot=        6613 NBatch=         389 AvBLen=        17.0
 IPart=  5 NShTot=        6681 NBatch=         393 AvBLen=        17.0
 IPart= 16 NShTot=        6120 NBatch=         360 AvBLen=        17.0
 IPart= 17 NShTot=        6069 NBatch=         357 AvBLen=        17.0
 IPart= 18 NShTot=        6035 NBatch=         355 AvBLen=        17.0
 IPart= 19 NShTot=        6018 NBatch=         354 AvBLen=        17.0
 IPart=  9 NShTot=        6307 NBatch=         371 AvBLen=        17.0
 IPart= 13 NShTot=        6222 NBatch=         366 AvBLen=        17.0
 IPart= 14 NShTot=        6205 NBatch=         365 AvBLen=        17.0
 IPart= 15 NShTot=        6120 NBatch=         360 AvBLen=        17.0
 IPart=  4 NShTot=        6749 NBatch=         397 AvBLen=        17.0
 IPart=  1 NShTot=        7021 NBatch=         413 AvBLen=        17.0
 IPart=  3 NShTot=        6817 NBatch=         401 AvBLen=        17.0
 PrSmSu:  NxtVal=           1281.
 Polarizability after L701:
                1             2             3 
      1  0.000000D+00
      2  0.000000D+00  0.000000D+00
      3  0.000000D+00  0.000000D+00  0.000000D+00
 Dipole Derivatives after L701:
                 1             2             3             4             5 
      1  -0.239906D+00  0.192197D-01 -0.722707D-01 -0.209364D+01  0.254966D+00
      2   0.132294D-01 -0.234292D+00 -0.610977D-02 -0.593850D-01 -0.343946D+00
      3  -0.725478D-01 -0.363870D-01 -0.533359D-01 -0.473709D-01 -0.715045D-01
                 6             7             8             9            10 
      1  -0.999786D+00 -0.406387D+00  0.226267D+00 -0.680461D+00 -0.112788D+01
      2  -0.993434D-01  0.461315D-01  0.971941D-01  0.115769D+00  0.111787D+00
      3  -0.225836D+00 -0.109428D+00  0.127032D+00 -0.581197D+00  0.139724D-01
                11            12            13            14            15 
      1   0.742325D+00  0.476245D+00 -0.124005D+01 -0.922733D+00  0.259194D+00
      2  -0.122222D+01 -0.152758D+00 -0.132456D+00 -0.118086D+01  0.520063D-01
      3   0.199660D-01 -0.902971D+00 -0.308331D-01 -0.114954D+00 -0.884300D+00
                16            17            18            19            20 
      1  -0.654921D+00  0.601190D-01 -0.101950D+00 -0.284805D-01  0.360498D-01
      2   0.656481D-01 -0.116869D-02  0.187145D+00 -0.105420D+00 -0.110746D+00
      3  -0.178796D+00  0.177502D+00 -0.383799D+00  0.110087D+00  0.331935D+00
                21            22            23            24            25 
      1  -0.322532D+00  0.483392D+00 -0.119680D+00  0.591402D+00 -0.344383D-01
      2   0.357080D+00 -0.470676D-01  0.192421D+00 -0.100860D+00  0.273871D+00
      3  -0.897826D+00  0.220167D+00 -0.974550D-01  0.663881D+00 -0.142408D-01
                26            27            28            29            30 
      1  -0.453924D+00  0.187799D+00  0.124789D+01 -0.921453D-01 -0.153603D+00
      2   0.924287D+00 -0.346705D+00 -0.469011D+00  0.145164D+00  0.748517D-01
      3  -0.363945D-01  0.147266D+00 -0.179057D+00  0.195806D-01  0.133879D+00
                31            32            33            34            35 
      1  -0.482105D-01  0.433993D-02 -0.406882D+00 -0.125883D+00  0.140110D+00
      2   0.124558D+00  0.912822D-01  0.368597D+00 -0.265400D+00  0.231040D+00
      3   0.224059D+00 -0.499327D-01  0.648360D+00  0.239840D+00 -0.888687D-01
                36            37            38            39            40 
      1  -0.411227D+00  0.169152D-01  0.482089D+00  0.416790D+00  0.130205D+01
      2  -0.471883D+00 -0.122097D+00  0.726391D+00  0.522803D+00  0.383918D+00
      3   0.478255D+00 -0.481960D-01  0.237139D+00  0.350340D+00 -0.686571D-01
                41            42            43            44            45 
      1  -0.350525D-01 -0.219807D+00  0.180816D+00  0.969331D-02  0.128398D-01
      2   0.101657D+00 -0.816922D-01  0.180525D+00  0.192643D+00 -0.222870D+00
      3  -0.241564D-02  0.115998D+00 -0.301192D+00 -0.205395D+00  0.494887D+00
                46            47            48            49            50 
      1   0.612108D+00 -0.289875D+00  0.852344D+00  0.215662D+01 -0.617686D-01
      2  -0.947508D-01  0.114530D+00 -0.214284D+00  0.959188D-01  0.276622D+00
      3   0.276239D+00 -0.200288D+00  0.599749D+00 -0.340443D-01 -0.955949D-02
                51 
      1   0.571903D+00
      2   0.182535D-01
      3   0.296648D+00
 Hessian after L701:
                1             2             3             4             5 
      1  0.519595D+01
      2  0.154294D+01  0.178453D+02
      3 -0.281091D+01  0.180009D+01  0.126809D+02
      4  0.915162D+00  0.109246D+00  0.124416D+00  0.434232D+01
      5  0.132011D+00 -0.482194D+00 -0.122498D-01 -0.193991D+01  0.139046D+02
      6  0.764311D-01 -0.172298D-01 -0.428622D+00  0.261258D+01  0.211282D+01
      7 -0.139493D-01 -0.401905D+00 -0.105188D+01  0.201054D+00  0.174853D-01
      8 -0.427737D+00 -0.927329D+01 -0.928390D-01  0.166952D-01 -0.978954D-01
      9 -0.874246D+00 -0.985540D-01 -0.866922D+01 -0.220810D-01 -0.283729D-02
     10 -0.136643D+00 -0.334161D+00 -0.320192D+00  0.109894D+00 -0.413913D-01
     11 -0.240723D+00  0.234608D+00  0.292283D+00 -0.245768D-01 -0.677960D-01
     12 -0.294641D+00  0.312537D+00  0.140670D+00 -0.275501D-01  0.780718D-02
     13  0.672448D-02  0.527099D+00 -0.184384D+00  0.876007D-01  0.537356D-01
     14  0.419168D+00  0.331585D+00 -0.164548D+00  0.305059D-01 -0.551713D-01
     15 -0.205499D+00 -0.198471D+00 -0.645967D-01 -0.109670D-01 -0.383324D-02
     16 -0.644000D+01 -0.156403D+01  0.432929D+01  0.210605D+00 -0.173443D+00
     17 -0.153676D+01 -0.911812D+01 -0.208531D+01 -0.265695D+00  0.162797D+00
     18  0.423420D+01 -0.205364D+01 -0.345193D+01  0.612349D+00  0.382123D+00
     19  0.873731D-01  0.251984D-01  0.783195D-01 -0.506418D+01  0.207510D+01
     20  0.359228D-01  0.105390D+00  0.191957D+00  0.215195D+01 -0.752545D+01
     21 -0.256665D-01  0.205398D+00 -0.195962D+00 -0.458822D+01 -0.238870D+01
     22 -0.271194D+00  0.685985D-02  0.969502D-01  0.234396D-01  0.449371D-03
     23 -0.344071D-02  0.793631D-01 -0.397913D-01 -0.310090D-02 -0.973109D-02
     24  0.143349D+00 -0.412594D-01  0.280805D+00  0.210202D-01  0.805877D-03
     25 -0.554890D-02 -0.538396D-01 -0.345938D-01  0.115753D-01 -0.927646D-02
     26 -0.103758D+00  0.525359D-01  0.600156D-01 -0.262072D-01  0.246527D-02
     27 -0.224505D-01  0.164263D-01 -0.503094D-01  0.238615D-02 -0.218051D-02
     28  0.139082D+00 -0.528169D-01 -0.721687D-01  0.159945D-01 -0.336304D-02
     29 -0.573935D-01 -0.350135D-01  0.212846D-01 -0.361320D-02 -0.466803D-02
     30 -0.642196D-01  0.160909D-01 -0.224851D-01 -0.427947D-02  0.515455D-03
     31 -0.311622D-01 -0.270784D-01  0.819483D-02  0.667807D-02 -0.489870D-02
     32 -0.219747D-01  0.196362D-01  0.360181D-01 -0.437931D-02 -0.912695D-02
     33 -0.253791D-01  0.686593D-01  0.359387D-01 -0.245624D-01  0.478005D-02
     34 -0.255624D-01  0.500701D-01  0.397740D-02  0.285969D-02  0.553429D-02
     35  0.677525D-01  0.470326D-01 -0.493819D-01  0.115571D-01 -0.385562D-02
     36 -0.514905D-01 -0.851277D-01 -0.100204D-01 -0.198358D-01 -0.105026D-01
     37  0.234927D-01  0.711173D-01 -0.248678D-01  0.987801D-02  0.921818D-02
     38  0.110168D+00  0.396855D-01 -0.268922D-01  0.191121D-01  0.406103D-02
     39  0.923120D-02  0.144861D-01 -0.608664D-01  0.848469D-02  0.648113D-02
     40  0.143045D+00  0.521755D-01 -0.609841D-01  0.149446D-01  0.598173D-02
     41  0.483911D-01 -0.351385D-01 -0.163568D-01  0.331300D-02 -0.403183D-02
     42 -0.519611D-01 -0.131964D-01 -0.287467D-01 -0.355223D-02 -0.106209D-02
     43  0.290974D+00  0.811841D-01 -0.203233D+00  0.713344D-01  0.451951D-01
     44  0.700188D-01  0.234116D+00  0.115620D+00  0.471034D-01 -0.172406D-01
     45 -0.162808D+00  0.104238D+00 -0.205472D+00 -0.904795D-01 -0.324232D-01
     46  0.522080D-01 -0.316786D-01  0.987550D-01  0.163435D+00 -0.636039D-01
     47 -0.358605D-01 -0.293484D-01 -0.297106D-01 -0.810838D-01  0.124515D+00
     48  0.109064D+00 -0.299461D-01  0.600435D-01  0.198614D+00  0.104250D+00
     49  0.700456D-01 -0.376611D-03  0.233157D-01 -0.112259D+01 -0.108826D+00
     50  0.127643D-02 -0.161894D-01 -0.187327D-03 -0.409178D-01 -0.592128D+01
     51  0.169987D-01 -0.506140D-03 -0.101538D-01  0.121168D+01 -0.165796D+00
                6             7             8             9            10 
      6  0.102251D+02
      7 -0.164777D-01  0.143976D+02
      8 -0.296642D-02  0.202857D+00  0.201738D+02
      9 -0.970891D-01  0.977879D+00 -0.228283D+00  0.214727D+02
     10 -0.480303D-01 -0.570793D+01 -0.122475D+01 -0.907008D+00  0.141869D+02
     11  0.387938D-02 -0.116194D+01 -0.325164D+01  0.208321D+01  0.129411D+01
     12 -0.712691D-01 -0.832300D+00  0.205292D+01 -0.458404D+01  0.653389D+00
     13 -0.236166D-01 -0.562991D+01  0.179683D+01 -0.667891D+00  0.521696D-01
     14 -0.991622D-03  0.172459D+01 -0.300493D+01 -0.126746D+01  0.786493D-01
     15 -0.660748D-01 -0.606567D+00 -0.123976D+01 -0.595499D+01 -0.183677D-02
     16  0.416768D+00  0.238192D+00 -0.377102D-01  0.133741D+00  0.452739D-01
     17  0.385624D+00 -0.573914D-01  0.669289D-01  0.284193D-02 -0.163824D+00
     18 -0.540779D+00  0.250392D+00 -0.763597D-03  0.180983D-01  0.657670D-02
     19 -0.444413D+01  0.234851D+00 -0.245518D-01  0.110695D+00  0.222049D+00
     20 -0.240327D+01 -0.277948D-01 -0.979784D-01  0.530956D-02 -0.107466D+00
     21 -0.367048D+01  0.126740D+00  0.521195D-02 -0.104499D+00  0.146844D-01
     22  0.449214D-02 -0.398334D+01 -0.220661D+00  0.111195D+01  0.154046D+00
     23 -0.314651D-03 -0.202393D+00 -0.442148D+01 -0.429233D+00  0.107451D-02
     24 -0.747933D-02  0.101478D+01 -0.428242D+00 -0.233545D+01  0.382963D-01
     25 -0.290396D-02  0.613131D-01  0.173179D-01 -0.150974D-01 -0.377258D+01
     26  0.672907D-02 -0.444722D-01 -0.175100D-01 -0.374911D-01  0.790362D+00
     27 -0.118381D-01 -0.229567D-01 -0.663879D-01  0.668432D-01 -0.265212D+00
     28 -0.728554D-02 -0.175955D-01  0.337951D-01  0.337496D-01 -0.146447D+01
     29  0.100416D-02  0.790056D-01  0.174531D-01 -0.948992D-02 -0.289507D+00
     30 -0.389990D-02  0.479848D-01  0.245159D-02  0.245787D-01 -0.315815D+00
     31 -0.854671D-02  0.759333D-01  0.174818D-02  0.338268D-01 -0.367198D+01
     32  0.178318D-02 -0.310026D-01  0.372486D-01 -0.109851D+00  0.235850D-02
     33  0.720285D-02 -0.175724D-01 -0.480861D-01 -0.170376D-01  0.109828D+01
     34 -0.248140D-02  0.993688D-01 -0.294606D-01  0.521635D-01 -0.165460D-03
     35 -0.517573D-02  0.281014D-01 -0.308965D-01  0.117217D+00  0.401495D-02
     36  0.246104D-02  0.276419D-02  0.686033D-01  0.495103D-01 -0.485275D-03
     37 -0.201152D-04  0.737490D-01 -0.376427D-01 -0.177230D-01 -0.568770D-01
     38 -0.157858D-02  0.211531D-01 -0.774537D-01  0.612797D-02 -0.137528D-01
     39 -0.915949D-02 -0.407303D-02  0.270381D-01  0.106589D+00 -0.158374D-02
     40 -0.573446D-02 -0.330113D-01 -0.496041D-01  0.276287D-01  0.162343D-01
     41 -0.680546D-03 -0.913149D-01  0.294454D-01  0.135201D-01  0.515158D-01
     42 -0.370656D-02  0.232246D-01 -0.221046D-02  0.279733D-01 -0.207436D-02
     43 -0.859866D-01 -0.327610D-01 -0.171904D-01  0.210172D-01 -0.138437D-01
     44 -0.317239D-01 -0.473904D-01 -0.407457D-01 -0.429044D-01 -0.302457D-01
     45  0.248417D-01  0.828304D-01 -0.456856D-01  0.526793D-02  0.325238D-01
     46  0.155354D+00  0.131039D-01 -0.232411D-02  0.541206D-02  0.175269D-01
     47  0.103446D+00 -0.719930D-02 -0.636561D-02 -0.219841D-02 -0.143631D-01
     48 -0.550102D-01  0.196601D-01 -0.146100D-02 -0.339840D-02  0.158810D-01
     49  0.137959D+01  0.233024D-01  0.238458D-02 -0.401875D-02  0.204095D-01
     50 -0.151357D+00 -0.391505D-03 -0.468013D-02  0.849494D-04 -0.262361D-02
     51 -0.529421D+01  0.557435D-02  0.462020D-03 -0.583226D-02  0.260741D-02
               11            12            13            14            15 
     11  0.128836D+02
     12 -0.125051D+01  0.141534D+02
     13 -0.434604D-01 -0.240729D-01  0.139076D+02
     14  0.558206D-01 -0.356239D-01 -0.155005D+01  0.130488D+02
     15  0.332979D-01  0.631953D-01  0.245820D+00  0.670952D+00  0.149662D+02
     16 -0.142367D+00  0.579299D-01  0.164555D+00 -0.117422D-01  0.709662D-01
     17 -0.587192D-01 -0.210461D-02  0.522177D-01 -0.960857D-01  0.104857D-01
     18  0.267696D-01 -0.189527D+00 -0.310443D-01 -0.368492D-01 -0.138677D+00
     19 -0.105464D+00  0.387464D-01  0.159627D+00  0.195727D-01  0.317912D-01
     20 -0.648074D-01 -0.371360D-02  0.445548D-01 -0.779231D-01  0.644535D-02
     21  0.342775D-03 -0.108498D+00  0.778178D-02  0.166635D-02 -0.976669D-01
     22 -0.720765D-02  0.238039D-01  0.156713D+00 -0.139470D-01  0.366802D-01
     23  0.541079D-01 -0.161930D+00 -0.284769D-01 -0.587915D-01  0.179826D+00
     24 -0.175862D+00 -0.878683D-01  0.498704D-01  0.196147D+00  0.806233D-02
     25  0.606973D+00 -0.228808D+00 -0.473617D-01  0.321494D-01  0.123436D-02
     26 -0.198636D+01 -0.879039D+00  0.454248D-01  0.178050D+00 -0.355188D-02
     27 -0.770717D+00 -0.368156D+01  0.162258D-02 -0.738006D-02 -0.519384D-01
     28 -0.162723D+00 -0.265317D+00  0.550977D-02 -0.799665D-01 -0.277746D-01
     29 -0.387648D+01 -0.810788D-02 -0.583157D-01  0.556059D-01  0.359363D-01
     30 -0.174031D-01 -0.383874D+01 -0.175822D-01  0.339922D-01 -0.326420D-01
     31 -0.660232D-01  0.869386D+00  0.200336D-02  0.178216D-01  0.129623D-01
     32 -0.409822D+01 -0.919923D-01  0.198132D-02 -0.114309D-01 -0.204893D-01
     33 -0.290679D+00 -0.172971D+01  0.456702D-03 -0.142922D-01 -0.874428D-02
     34 -0.213306D-01  0.926861D-02 -0.364513D+01 -0.300921D+00  0.926721D+00
     35 -0.150823D-01  0.139903D-01 -0.460425D+00 -0.396576D+01 -0.759976D+00
     36  0.664491D-02  0.890741D-03  0.115871D+01 -0.590690D+00 -0.201545D+01
     37  0.822879D-03  0.187474D-02 -0.392466D+01 -0.232993D+00 -0.166951D+00
     38  0.171521D+00  0.799484D-01 -0.379955D+00 -0.251237D+01  0.128516D+01
     39  0.840399D-01 -0.249318D-01 -0.269252D+00  0.119228D+01 -0.296398D+01
     40  0.768026D-01 -0.376238D-02 -0.135444D+01 -0.106114D+00 -0.393640D+00
     41  0.431084D-01 -0.200540D-02  0.249984D-01 -0.381266D+01  0.180726D-01
     42 -0.293449D-02 -0.386809D-01 -0.389556D+00  0.395322D-01 -0.368764D+01
     43  0.225716D-02  0.916607D-02  0.241603D-01 -0.219021D-01  0.730854D-01
     44 -0.143331D-01 -0.260963D-01 -0.285447D-01 -0.638744D-01 -0.131622D-01
     45 -0.209339D-01  0.550224D-03  0.121856D+00 -0.111051D-01  0.473622D-01
     46 -0.730606D-02  0.102736D-01  0.174871D-01 -0.185805D-02  0.116389D-01
     47 -0.542010D-02 -0.607518D-02  0.127423D-03 -0.763686D-02 -0.797130D-03
     48 -0.247029D-02 -0.820438D-03  0.183305D-01 -0.440787D-02  0.535269D-03
     49  0.215842D-02  0.261338D-02  0.173708D-01 -0.296738D-02  0.233648D-02
     50 -0.390454D-02 -0.192732D-05  0.225545D-02 -0.319241D-02 -0.139301D-03
     51  0.104872D-02 -0.304686D-02  0.295443D-02 -0.121659D-02 -0.299527D-02
               16            17            18            19            20 
     16  0.961138D+01
     17  0.409026D+00  0.265756D+02
     18 -0.421116D+01  0.396894D+01  0.173781D+02
     19 -0.163020D+00  0.927462D+00  0.669904D+00  0.890020D+01
     20  0.769804D+00 -0.134455D+02 -0.142269D+01 -0.229631D+01  0.251976D+02
     21  0.100839D+01 -0.141922D+01 -0.103291D+02  0.219504D+01  0.441021D+01
     22  0.705361D-01 -0.375435D-01  0.123055D+00  0.374236D-01 -0.506876D-02
     23 -0.359887D-01 -0.439117D-01 -0.326532D-01 -0.989032D-02 -0.101752D-01
     24  0.132467D+00 -0.359215D-01  0.653509D-01  0.411882D-01 -0.460161D-02
     25 -0.391919D-03 -0.178242D-01  0.562300D-02 -0.348515D-03 -0.528246D-02
     26 -0.323556D-01  0.291026D-01 -0.925999D-02 -0.278939D-01  0.785479D-02
     27  0.101370D-01 -0.146999D-01 -0.150750D-01  0.953651D-02 -0.503397D-02
     28  0.286731D-01 -0.143080D-01 -0.272627D-02  0.200003D-01 -0.553649D-02
     29 -0.141505D-01 -0.554195D-02 -0.101597D-03 -0.600254D-02 -0.379083D-02
     30 -0.429011D-02  0.258355D-02 -0.134139D-01 -0.184737D-02  0.915043D-03
     31 -0.189999D-01 -0.327323D-01 -0.339720D-01  0.719212D-01 -0.339208D-01
     32 -0.458562D-01 -0.439233D-01  0.311954D-01 -0.424889D-01 -0.161226D-01
     33 -0.748032D-01  0.546519D-01 -0.280106D-01 -0.600860D-01  0.198162D-01
     34 -0.541951D-01 -0.325227D-01 -0.339651D-01  0.404263D-01  0.148546D-01
     35 -0.164861D-01 -0.174348D-01 -0.264688D-01  0.313357D-01 -0.135010D-01
     36 -0.597649D-01 -0.331437D-01  0.196545D-01 -0.419509D-01 -0.118474D-01
     37  0.506811D-02  0.295539D-01  0.230808D-01  0.918430D-02  0.975335D-02
     38  0.428638D-01  0.159400D-01  0.288801D-01  0.275435D-01  0.308640D-02
     39  0.341884D-01  0.329473D-01 -0.551655D-02  0.210554D-01  0.966403D-02
     40  0.653350D-01  0.153742D-01  0.447785D-02  0.281154D-01  0.482073D-02
     41  0.169523D-01 -0.161306D-01  0.411571D-02  0.380027D-02 -0.499810D-02
     42  0.623807D-04  0.453444D-03 -0.211348D-01 -0.105555D-02 -0.282190D-03
     43 -0.394776D+01  0.522353D+00 -0.108025D+01 -0.303941D+00 -0.153201D+00
     44  0.627159D+00 -0.430302D+01 -0.918337D+00 -0.171945D+00  0.167963D+00
     45 -0.130876D+01 -0.921789D+00 -0.278237D+01  0.216929D+00  0.447018D-01
     46 -0.216926D+00  0.127065D+00 -0.463249D+00 -0.396012D+01 -0.385939D+00
     47  0.142347D+00  0.379990D+00  0.681495D-01 -0.362144D+00 -0.431253D+01
     48 -0.487129D+00  0.609759D-01  0.120660D+00  0.104889D+01 -0.829192D+00
     49  0.401667D+00  0.755501D-01 -0.732902D-01 -0.319551D+00 -0.111407D-01
     50  0.659818D-01 -0.819972D-01 -0.940923D-02 -0.633209D-01  0.908589D-01
     51 -0.480321D-01 -0.731128D-02 -0.863149D-01  0.869774D-01 -0.838798D-02
               21            22            23            24            25 
     21  0.165544D+02
     22  0.189935D-01  0.382566D+01
     23 -0.378316D-02  0.295896D+00  0.448242D+01
     24  0.583794D-02 -0.150454D+01  0.536156D+00  0.189413D+01
     25  0.644082D-03  0.166696D-01 -0.602021D-02 -0.233053D-02  0.372447D+01
     26 -0.202954D-02 -0.469088D-02 -0.218600D-01 -0.244304D-01 -0.452680D+00
     27 -0.827451D-02 -0.886263D-02 -0.292755D-01 -0.838879D-02  0.212330D+00
     28 -0.185814D-02 -0.370966D-04  0.119349D-01  0.131386D-01 -0.104680D+00
     29  0.935557D-03  0.105848D-01  0.226629D-02 -0.196129D-01 -0.135512D+00
     30 -0.512634D-02  0.196540D-01 -0.186658D-01 -0.225344D-01  0.829870D-01
     31 -0.212837D-01 -0.228154D-01  0.589242D-02  0.230855D-01  0.114934D+00
     32  0.948723D-02  0.110372D-01 -0.214736D-01  0.391046D-01  0.282001D-01
     33 -0.159512D-01  0.348843D-01  0.285503D-01  0.116610D+00 -0.233393D-01
     34 -0.848318D-02 -0.267649D-01 -0.121637D-01  0.181800D-01 -0.201691D-02
     35 -0.493175D-02 -0.212270D-01  0.175573D-01 -0.807431D-01  0.763886D-03
     36 -0.150339D-01  0.280899D-01 -0.707947D-01  0.868113D-01 -0.107980D-02
     37  0.658229D-02  0.204807D-01 -0.928308D-03  0.163609D-02  0.442799D-03
     38  0.781939D-02  0.860174D-03 -0.428062D-01  0.193299D-01  0.178862D-02
     39 -0.422512D-02 -0.444507D-02  0.232241D-01  0.859543D-02  0.852711D-03
     40  0.590252D-04 -0.295146D-02 -0.138764D-01  0.106561D-01  0.304101D-02
     41  0.125324D-03 -0.145946D-01 -0.516462D-02  0.209334D-01  0.364648D-02
     42 -0.580878D-02  0.169583D-01  0.184607D-01 -0.913259D-02 -0.102109D-02
     43  0.168092D+00 -0.655538D-02  0.383131D-02 -0.124230D-01 -0.113495D-02
     44  0.328025D-01  0.112429D-02  0.609605D-03  0.531952D-03 -0.892542D-02
     45  0.187050D+00 -0.432258D-02  0.201982D-02 -0.207350D-02  0.454843D-02
     46  0.112848D+01  0.318035D-02 -0.117038D-02  0.521940D-02  0.511004D-03
     47 -0.836098D+00 -0.174340D-02 -0.474475D-03 -0.215865D-02 -0.105423D-02
     48 -0.230520D+01  0.511180D-02 -0.145826D-02  0.541188D-02  0.806822D-03
     49 -0.299734D-01  0.550452D-02 -0.117965D-02  0.641110D-02  0.110416D-02
     50 -0.192386D-01 -0.128417D-03 -0.457756D-03 -0.177198D-03 -0.424999D-03
     51  0.118615D+00  0.154897D-02 -0.337869D-03  0.131418D-02  0.147631D-03
               26            27            28            29            30 
     26  0.169637D+01
     27  0.702181D+00  0.380056D+01
     28 -0.139177D+00  0.710235D-01  0.153022D+01
     29  0.263853D-01  0.377251D-01  0.437074D+00  0.366606D+01
     30  0.457199D-01  0.638824D-01  0.442953D+00 -0.808457D-01  0.381782D+01
[...]
   yx        -0.656529D+01     -0.972876D+00     -0.108247D+01
   yy         0.702638D+02      0.104120D+02      0.115849D+02
   zx        -0.678957D+01     -0.100611D+01     -0.111945D+01
   zy         0.113530D+02      0.168234D+01      0.187186D+01
   zz         0.614752D+02      0.910969D+01      0.101359D+02

 ----------------------------------------------------------------------

 Test job not archived.
 1\1\GINC-C0181\Freq\RM062X\CC-pVTZ\C5H10O2\HARMS.N\28-Sep-2019\0\\#P G
 eom=AllCheck Guess=TCheck SCRF=Check Test GenChk RM062X/CC-pVTZ Freq\\
 Gaussian input prepared by ASE\\0,1\O,0.5889701768,-0.8591566147,3.204
 7056263\O,-0.1366798619,0.0742169928,0.6755321076\C,0.3708859311,0.070
 6940238,4.2751486021\C,-0.3052356809,1.3290276223,3.7602286876\C,1.654
 2963383,0.3698928429,5.0324123281\C,1.5075455895,-0.4898586531,2.26512
 13045\C,1.163179546,-0.0870939591,1.0499693753\H,-0.3138963516,-0.4660
 960911,4.9319476844\H,-1.2130791377,1.0735337817,3.2172512509\H,-0.556
 2221572,1.9900504008,4.590158731\H,0.3602132038,1.8652789305,3.0819601
 881\H,2.3379852765,0.9630061855,4.4234715837\H,2.1530781346,-0.5544465
 554,5.3226613261\H,1.4289891357,0.9401738455,5.9332026537\H,2.55657040
 33,-0.5913934715,2.5179714105\H,1.9274665254,0.1242365202,0.3131673499
 \H,-0.1758412959,0.3209562003,-0.2493426176\\Version=EM64L-G16RevA.03\
 State=1-A\HF=-346.9391847\RMSD=9.631e-10\RMSF=5.907e-07\ZeroPoint=0.14
 71512\Thermal=0.1557551\Dipole=0.3851969,0.6353562,-0.4428609\DipoleDe
 riv=-0.6191449,0.0640685,0.5071147,0.0362832,-0.4975589,-0.0161897,0.1
 990335,-0.1199513,-1.2767713,-0.9643326,0.1769781,-0.8511541,0.0819589
 ,-0.3594198,0.1055441,-0.2574797,0.0368019,-0.6042566,0.4312355,-0.113
 8182,0.0125444,-0.1483001,0.5323341,0.3640334,-0.0142471,0.1981062,0.8
 584977,-0.032561,0.0884969,-0.040007,0.0677381,-0.0914901,-0.0303114,-
 0.0504103,0.076494,-0.0230879,-0.0837781,-0.0392636,-0.1112769,0.01227
 52,0.0254955,-0.0693945,-0.0674319,-0.0479555,-0.0555413,0.3641932,-0.
 014105,-0.5713087,0.1102246,-0.1568237,-0.3370392,-0.2992507,-0.117941
 ,0.515143,0.8023307,-0.1404724,0.7618972,-0.1089539,-0.039861,-0.19249
 3,0.2942864,-0.1445622,0.3729136,-0.0535814,-0.0442175,0.0712805,-0.05
 31608,-0.0338551,0.0427448,0.048969,0.0376482,-0.0783982,-0.0463648,-0
 .0047103,-0.0709247,-0.0349302,0.0356976,0.0002958,-0.0931339,0.013667
 6,0.0318936,0.0622077,0.0298096,0.0301746,0.0423718,-0.006091,-0.09378
 64,0.0464568,-0.111103,-0.0613399,-0.0268221,-0.0624851,0.0652367,-0.0
 225551,0.0271685,0.0608044,0.0363733,0.0750327,0.0070461,-0.0162334,-0
 .0420213,0.0309172,-0.0576562,0.0109314,0.0678619,0.0788008,0.0747343,
 0.0029116,-0.0120413,0.0566808,-0.0440712,0.0848657,-0.0663683,0.06007
 06,-0.0311886,0.0260261,0.0599945,0.0536421,0.0322351,0.0440872,0.0155
 99,0.0194841,-0.0994088,0.0133429,-0.0787039,-0.077146,-0.098942,0.023
 0551,0.0488151,-0.0034317,0.1307956,0.0852875,-0.0222752,0.0308293,0.0
 349992,-0.0493993,-0.0036806,0.0282514,-0.0086992,0.1392784,0.049485,0
 .0556663,0.0348576,-0.0102802,0.2895916,-0.0065502,0.0884237,-0.013629
 2,0.3302827,0.0024952,0.0624885,0.0160187,0.3034224\Polar=63.9841825,-
 4.2738059,55.1878797,2.7752655,-1.3450837,84.152631\Quadrupole=-1.7769
 28,-4.7625548,6.5394828,-0.7570732,-0.7284338,-1.1537772\PG=C01 [X(C5H
 10O2)]\NImag=0\\0.27280834,0.05597443,0.24564659,-0.18000334,0.0557339
 0,0.39906455,0.01276803,0.00173589,-0.01110394,0.40852801,-0.00111360,
 -0.00713951,-0.00348614,-0.04390480,0.06487925,0.00186419,-0.00371531,
 0.00082262,0.09883843,-0.16872418,0.63107872,-0.07153537,-0.00848963,0
 .01263264,-0.00105232,0.00134259,-0.00001811,0.55549108,0.00179775,-0.
 13308582,-0.06908659,0.00431884,-0.00036357,0.00141138,0.05470026,0.50
 647959,0.01798334,-0.05393949,-0.12585607,0.00536559,-0.00161061,0.002
 00192,-0.05269375,-0.07280872,0.51858908,-0.00172049,0.01164333,0.0025
 4846,-0.00043091,0.00000576,0.00092608,-0.10496105,0.03820754,-0.01885
 010,0.56631238,0.01564694,-0.03091587,-0.00863522,-0.00094561,0.000226
 29,-0.00056061,0.04055952,-0.15596433,0.04351401,0.03749523,0.51309488
 ,0.01779930,-0.03525220,-0.00255003,-0.00075247,-0.00029288,-0.0009087
 9,-0.02285995,0.05072230,-0.09948278,-0.00748054,0.03417621,0.57693398
 ,0.00797889,0.00203297,0.00353556,0.00018427,0.00006883,-0.00004714,-0
 .17753356,-0.02098418,-0.04810175,-0.01819213,-0.00044019,-0.00989910,
 0.51208021,-0.01678853,-0.01076541,-0.02399940,-0.00143206,0.00068493,
 -0.00039873,-0.01805925,-0.08262493,-0.00396102,0.02643669,0.00683757,
 0.01641274,-0.02250708,0.58446753,-0.02164485,-0.01859420,-0.02904014,
 -0.00036584,0.00012882,-0.00025635,-0.04052041,-0.00309625,-0.10112693
 ,-0.01507363,0.00223793,-0.00530149,-0.04195532,-0.00809099,0.55481624
 ,-0.18574589,-0.04662765,0.10706276,-0.03751232,0.01885301,-0.05735040
 ,-0.01309561,0.01089334,0.02165698,-0.00053213,-0.00111649,-0.00231683
 ,0.00474918,-0.00122342,-0.00480085,0.66590201,-0.06012070,-0.08932294
 ,0.05104399,0.00349928,0.00994563,0.00736038,0.01482753,0.01248363,-0.
 00584974,0.00205679,-0.00145858,-0.00448771,0.00030825,-0.00133159,-0.
 00218792,-0.03640106,0.20855652,0.10408095,0.03122578,-0.17734613,-0.0
 1319307,0.00898819,-0.00787617,0.02661697,0.00039378,-0.04758713,-0.00
 105207,0.00010614,0.00524141,-0.00125635,0.00024128,0.00028593,0.08408
 742,-0.19830397,0.80319365,-0.00686227,-0.01198846,0.05032850,-0.31665
 533,0.03243417,-0.08008544,0.00041863,-0.00841842,-0.00374107,0.001009
 51,0.00174197,0.00093886,-0.00081593,0.00156433,0.00067952,-0.12548421
 ,0.04010787,-0.12014187,0.65637320,-0.00572226,0.00446167,0.02142861,0
 .02006433,-0.04381298,0.02876064,0.00045407,-0.00288330,-0.00333615,-0
 .00030483,-0.00047700,-0.00005704,-0.00031138,-0.00063906,-0.00010535,
 0.03485523,-0.09975500,0.13675773,-0.02643277,0.19835096,0.01066578,0.
 01634607,-0.04026209,-0.03183490,0.02579253,-0.12255470,-0.00144931,0.
 00363163,0.00327916,-0.00005157,0.00040354,-0.00017442,0.00036607,0.00
 043330,-0.00006810,-0.09897826,0.13823198,-0.48893839,0.03716751,-0.23
 390125,0.86046868,-0.00414761,0.00015533,0.00853166,0.00054244,-0.0000
 4046,0.00021184,-0.15474590,-0.08304446,0.09747899,0.01024369,0.009051
 52,-0.01058702,-0.01998189,-0.01585735,0.01479806,0.00184911,0.0012658
 7,-0.00012911,-0.00080390,0.00001828,0.00003266,0.16875328,0.01846521,
 0.00672297,-0.02348372,-0.00052796,0.00000202,-0.00012123,-0.08872558,
 -0.11758014,0.08737617,-0.01645804,-0.01536013,0.01750133,-0.00389852,
 -0.00240430,0.00317696,0.00022901,-0.00158951,-0.00347847,0.00144277,0
 .00021812,-0.00023910,0.08706321,0.13078530,0.02313154,0.00347821,-0.0
 2907793,-0.00089862,-0.00019355,-0.00032988,0.09318064,0.07890069,-0.1
 3636332,0.00630930,0.00778615,-0.00590680,-0.01231761,-0.00885219,0.01
 080745,-0.00197430,-0.00341338,-0.00195533,0.00182951,0.00025340,-0.00
 003017,-0.10635040,-0.07950978,0.16254287,0.00128666,-0.00108330,0.000
 98321,0.00098486,-0.00049200,-0.00028603,-0.01305951,-0.00428585,-0.00
 718270,-0.23826778,-0.05565428,-0.11229077,-0.00019667,0.00353765,-0.0
 0069228,-0.00011419,0.00022065,0.00050677,-0.00154548,0.00053040,-0.00
 043192,0.00077142,0.00030159,0.00023361,0.25658175,-0.00185164,0.00234
 069,0.00037428,0.00031761,-0.00028081,-0.00003333,0.02593953,0.0070504
 8,0.01490150,-0.05839148,-0.06375509,-0.03424678,0.00210889,-0.0051563
 7,0.00110736,0.00037761,0.00003102,-0.00028576,-0.00017887,0.00009798,
 -0.00005182,-0.00068716,0.00122053,-0.00035271,0.05965925,0.06737741,0
 .00137243,-0.00032841,0.00091578,-0.00071919,0.00037451,-0.00046193,-0
 .00944701,-0.00427392,-0.00754551,-0.11363478,-0.03213520,-0.11394885,
 -0.00040161,0.00264662,-0.00008556,-0.00025031,0.00005674,-0.00020587,
 0.00092080,-0.00021442,0.00060416,0.00018293,-0.00031796,-0.00008928,0
 .12533875,0.03385778,0.12057557,-0.00116379,0.00358637,0.00084628,0.00
 053897,-0.00011055,-0.00014799,-0.00418661,0.00477017,0.01209078,-0.06
 113228,0.03765405,0.04588953,0.00023389,-0.00043324,0.00008476,0.00095
 958,0.00067278,-0.00065785,-0.00071001,0.00004117,-0.00037173,0.000418
 99,-0.00019749,-0.00019261,0.00863482,-0.01659492,-0.01996333,0.061641
 46,0.00485246,-0.00710360,-0.00061778,-0.00066684,0.00012730,-0.000321
 23,0.00365499,-0.01238791,-0.02333295,0.03813052,-0.14400587,-0.122935
 21,-0.00049133,0.00082685,-0.00040351,-0.00176343,-0.00053466,0.002437
 10,0.00053135,0.00035936,-0.00009228,-0.00095411,0.00053011,0.00022477
 ,0.00184061,-0.00492340,-0.00428560,-0.04256568,0.15592679,-0.00144688
 ,0.00322422,0.00182370,0.00051025,-0.00023265,-0.00023058,-0.00270774,
 0.00595387,0.00793996,0.04714273,-0.12465035,-0.20455762,-0.00007751,-
 0.00015126,-0.00020713,0.00008027,0.00033909,-0.00052913,-0.00070091,-
 0.00004119,0.00012256,0.00057708,-0.00066988,0.00041340,0.00481760,-0.
 00779870,-0.01117017,-0.05120099,0.13605635,0.22032522,0.00051619,-0.0
 0162793,0.00010986,-0.00101265,0.00035231,-0.00041277,0.00959882,0.006
 83904,-0.01102095,-0.14942089,-0.08089729,0.10185533,0.00183384,0.0002
 5924,-0.00034561,-0.00061482,0.00047346,0.00093126,0.00058416,0.000470
 51,0.00082434,-0.00067658,0.00306149,-0.00111785,-0.01550060,-0.011920
 09,0.01755114,-0.00492690,-0.00300700,0.00306995,0.15976080,0.00019245
 ,0.00227076,-0.00126770,0.00017802,-0.00000924,0.00025029,-0.01925814,
 -0.01587703,0.02063445,-0.07977805,-0.10874386,0.07934430,-0.00117881,
 0.00076230,-0.00128516,-0.00000227,-0.00051483,0.00056091,0.00033478,-
 0.00005649,-0.00122352,0.00337551,-0.00403273,0.00158806,-0.00408023,-
 0.00430229,0.00481491,0.01314645,0.01083169,-0.01213791,0.08624232,0.1
 1895878,-0.00040847,-0.00023473,0.00028322,-0.00017093,0.00047319,0.00
 032222,0.00783828,0.00633412,-0.00930090,0.10115032,0.08080137,-0.1487
 5196,0.00095144,-0.00022877,0.00013081,0.00032079,-0.00084929,-0.00028
 701,0.00076856,-0.00115083,-0.00037815,-0.00158573,0.00158383,0.000231
 28,-0.01008373,-0.00851159,0.01114880,0.01415545,0.01259598,-0.0143631
 3,-0.11186472,-0.09070366,0.16080497,0.00169208,0.00069187,-0.00048000
 ,0.00032709,-0.00013952,0.00014620,-0.02087514,-0.01556416,0.01934685,
 0.00150106,-0.00084279,0.00132557,-0.14935854,-0.08896073,0.09270901,0
 .00000190,0.00002001,0.00066127,-0.00010226,0.00038384,-0.00044114,-0.
 00401431,-0.00078219,-0.00392420,0.00049312,0.00011938,-0.00019005,-0.
 00009619,0.00002457,-0.00001363,-0.00009683,0.00074798,-0.00075820,0.1
 6430990,0.00064200,0.00025873,-0.00059825,0.00070175,-0.00026551,0.000
 33240,-0.00473036,-0.00478533,0.00424141,0.00110004,0.00047108,-0.0006
 1496,-0.08926246,-0.12665823,0.08276318,-0.00124136,-0.00012891,0.0006
 7627,-0.00024462,0.00031624,-0.00055027,-0.00075660,0.00078326,-0.0008
 9738,0.00005683,-0.00007713,-0.00010278,0.00004116,-0.00004674,-0.0001
 5484,-0.00009404,0.00056723,0.00004339,0.09958259,0.13353698,0.0013101
 5,0.00113545,0.00100106,0.00019829,0.00011506,0.00012154,-0.01123042,-
 0.00951630,0.01099949,0.00036030,-0.00085103,0.00100271,0.09373752,0.0
 8325885,-0.13228543,0.00094999,-0.00084396,-0.00109922,-0.00034851,-0.
 00005653,-0.00025203,-0.00336178,-0.00078867,-0.00100073,0.00011779,-0
 .00014153,0.00006698,0.00012853,0.00007952,-0.00003755,0.00031567,0.00
 011800,-0.00005811,-0.10195668,-0.09010335,0.14251623,0.00240395,-0.00
 073626,0.00232717,0.00023804,-0.00008880,0.00000821,-0.01321946,0.0273
 6387,-0.00644745,-0.00462649,-0.00303760,-0.00285412,-0.10194507,0.102
 11294,-0.03125240,0.00057719,-0.00002572,-0.00063594,-0.00033863,0.000
 03687,-0.00000882,0.00071130,0.00003863,0.00076946,-0.00060689,0.00158
 939,-0.00090715,0.00019571,-0.00033686,0.00019766,0.00008151,0.0000596
 6,-0.00019281,0.01020977,-0.01790988,0.00442016,0.11022224,-0.00024500
 ,0.00110836,0.00114221,0.00005992,0.00000451,-0.00001709,-0.00370178,0
 .00605274,-0.00297502,-0.00066077,0.00050357,-0.00088938,0.10418810,-0
 .24479577,0.06190852,0.00051197,0.00011205,-0.00002615,-0.00024176,0.0
 0005803,-0.00001225,0.00068570,0.00048804,0.00029907,-0.00019748,0.000
 34513,-0.00013882,-0.00021884,0.00006925,0.00003389,-0.00011725,0.0001
 1656,-0.00026532,0.00770829,-0.01360653,0.00286568,-0.11377185,0.26264
 280,0.00129904,0.00020953,0.00173560,0.00033666,-0.00012753,0.00016143
 ,-0.00739762,0.01509372,-0.00609375,-0.00317193,-0.00181875,-0.0014695
 5,-0.03061264,0.06089185,-0.06547247,-0.00017600,0.00031889,-0.0005603
 6,-0.00011285,-0.00000207,-0.00009915,0.00048891,-0.00050242,0.0003918
 1,-0.00074483,0.00094765,0.00004451,-0.00004879,0.00024465,0.00024710,
 0.00014624,-0.00034949,0.00029811,-0.00933528,0.01508606,-0.00505307,0
 .03658660,-0.06707853,0.06742359,-0.00421246,-0.00342056,-0.00668220,0
 .00006615,-0.00009597,0.00015055,0.00919785,-0.01358882,-0.02163860,0.
 00053712,0.00038142,0.00055339,-0.05890760,0.03160286,0.04831126,-0.00
 229762,-0.00019961,0.00175003,0.00047638,0.00025615,-0.00044028,0.0010
 6935,-0.00019462,0.00096229,0.00010758,-0.00020267,0.00028088,-0.00042
 529,0.00041032,-0.00035958,-0.00004118,0.00003940,0.00001479,-0.004494
 73,0.01164641,0.01580705,-0.00372801,0.00609624,0.01253662,0.06203481,
 -0.00191696,0.00040683,-0.00234121,-0.00010130,-0.00002408,-0.00003552
 ,0.00296427,-0.00535656,-0.00433579,0.00025653,-0.00010045,0.00020021,
 0.03041361,-0.11952547,-0.11747625,-0.00097222,-0.00005625,0.00122713,
 0.00024081,0.00013785,-0.00019114,-0.00003146,-0.00006548,0.00021941,-
 0.00017507,-0.00001781,0.00008557,0.00030517,0.00028320,0.00028638,-0.
 00003552,0.00000868,0.00010335,-0.00310760,0.01015079,0.01560635,0.004
 60962,-0.01302752,-0.02306985,-0.03271777,0.12727654,-0.00275479,-0.00
 119183,-0.00250536,-0.00057399,0.00017320,-0.00023203,0.00736461,-0.00
 703352,-0.01274503,0.00070238,-0.00003134,0.00021112,0.04670816,-0.116
 99184,-0.23183542,-0.00111137,-0.00045679,0.00121833,0.00056299,-0.000
 09486,0.00016293,-0.00013653,-0.00006027,0.00076711,-0.00011695,0.0001
 3481,0.00033856,-0.00059187,0.00054974,0.00018607,-0.00006091,-0.00012
 210,-0.00003542,0.00298879,-0.00947054,-0.01454372,-0.00176197,0.00493
 126,0.00873990,-0.05120277,0.12947421,0.25011248,-0.02501810,-0.002202
 15,0.01018828,0.00255564,0.00016031,-0.00048577,-0.00047974,-0.0031831
 2,-0.00379588,-0.00003814,0.00031264,0.00066946,-0.00011645,-0.0002501
 3,0.00003970,-0.30943449,0.03134432,-0.07662171,-0.00592338,0.00016175
 ,0.00069487,-0.00000756,0.00028300,0.00041498,0.00011283,-0.00013256,0
 .00004375,-0.00007366,0.00031353,-0.00005099,-0.00002119,0.00009081,-0
 .00007937,0.00051389,0.00046821,-0.00044020,-0.00019385,-0.00007137,0.
 00020442,0.00060177,0.00025880,-0.00003169,0.33738294,-0.01205281,0.00
 351492,0.00159782,0.00069358,0.00691758,0.00460899,-0.00033077,-0.0002
 4530,-0.00089295,-0.00005254,0.00002733,0.00034110,0.00004703,0.000425
 51,-0.00009544,0.03050772,-0.03649082,0.01465835,0.00840062,-0.0005399
 0,0.00027132,-0.00013736,0.00005411,0.00005502,-0.00010559,-0.00004617
 ,0.00005628,-0.00006779,0.00014193,-0.00002113,0.00011410,-0.00003456,
 0.00010572,0.00008692,-0.00059787,-0.00082029,0.00006271,-0.00005845,0
 .00010836,-0.00008049,-0.00011801,0.00024327,-0.02756307,0.02944849,0.
 03001459,-0.00114539,0.00336234,0.00117816,0.00375287,-0.00448357,0.00
 113064,0.00207563,0.00283816,0.00002226,-0.00024066,-0.00047658,-0.000
 73918,-0.00112113,-0.00015302,-0.07128210,0.01574030,-0.07413025,-0.02
 860240,0.00137917,-0.00041326,-0.00012942,-0.00023070,-0.00029440,-0.0
 0007160,0.00010383,-0.00005487,0.00002230,-0.00018626,0.00002384,-0.00
 000614,-0.00008055,0.00003873,0.00000262,-0.00058179,-0.00133730,-0.00
 027416,0.00023081,-0.00032487,0.00004845,0.00028082,0.00015858,0.06982
 394,-0.01957881,0.07598310,0.00038202,0.00088239,-0.00265022,-0.030780
 07,-0.00356406,0.01480243,-0.00001743,0.00053962,0.00015599,-0.0001600
 2,-0.00007349,-0.00002257,0.00002092,-0.00008389,-0.00003572,0.0085407
 3,0.00192072,-0.00568585,-0.18906616,-0.03840957,0.13455735,0.00003470
 ,-0.00010583,-0.00011939,0.00012782,-0.00002753,-0.00009871,0.00005676
 ,-0.00000379,0.00005029,-0.00002933,-0.00003384,0.00000711,-0.00000760
 ,-0.00000291,0.00000728,0.00002502,-0.00000066,0.00000849,-0.00001996,
 -0.00001565,-0.00001957,0.00043443,-0.00016068,0.00015406,0.20971890,0
 .00113592,0.01174544,0.00327001,0.00526811,0.00432759,-0.00253290,-0.0
 0099866,-0.00124430,0.00188921,0.00006676,-0.00025284,0.00014989,-0.00
 009133,-0.00006506,0.00001873,-0.00657143,-0.00047730,0.00442715,-0.03
 848341,-0.04903745,0.04709824,-0.00012998,0.00028023,0.00043205,-0.000
 03873,0.00001041,-0.00002830,-0.00000280,-0.00001552,-0.00000032,0.000
 06549,-0.00002978,-0.00010380,0.00004398,0.00007072,-0.00009768,0.0000
 0145,-0.00000402,0.00003382,0.00008362,0.00004108,-0.00003059,-0.00001
 097,-0.00422296,-0.00117584,0.03972799,0.03831705,-0.00207115,0.003633
 75,-0.00402546,-0.01336483,-0.00167513,0.01038797,-0.00043906,0.001599
 97,0.00094870,-0.00005530,-0.00019253,0.00007594,0.00010207,-0.0001879
 3,-0.00024767,0.02382486,0.00345710,-0.01082637,0.13612567,0.04838180,
 -0.19874877,0.00002072,-0.00025066,-0.00020699,-0.00000997,0.00001115,
 -0.00002801,0.00004045,-0.00005979,-0.00000052,0.00005235,-0.00006026,
 -0.00000729,-0.00004006,-0.00000752,-0.00002323,0.00001963,0.00000965,
 0.00004376,-0.00007701,-0.00004255,-0.00005636,-0.00072733,-0.00123715
 ,-0.00062711,-0.14351503,-0.05252838,0.20025823,0.00056983,-0.00052666
 ,0.00182533,-0.03928988,-0.00366724,0.02188571,0.00005531,-0.00036142,
 -0.00060628,-0.00012145,0.00016444,0.00003193,-0.00003336,0.00008200,0
 .00006459,-0.00774842,0.00002957,0.00073915,-0.01055433,0.01390822,-0.
 05030067,-0.00001652,0.00000531,0.00006366,0.00019027,-0.00012475,-0.0
 0007853,0.00003455,0.00003070,0.00011241,-0.00003436,-0.00007607,-0.00
 006277,-0.00000322,0.00000325,-0.00001515,-0.00000631,-0.00002346,-0.0
 0000705,0.00003585,0.00002474,0.00003550,-0.00029494,0.00063842,-0.001
 29200,0.00073929,-0.00006602,0.00011399,0.05647770,0.00110434,-0.00014
 378,-0.00107481,0.01074124,-0.03521939,0.13373605,-0.00014858,0.000332
 10,0.00048568,0.00024652,-0.00012668,-0.00007192,-0.00000240,-0.000038
 48,-0.00000642,-0.00030859,0.00053154,0.00039455,-0.00081038,-0.006799
 04,0.00405304,0.00002352,-0.00005241,-0.00001786,-0.00003444,0.0000854
 4,-0.00006702,-0.00002601,-0.00007878,-0.00003560,-0.00017884,0.000084
 81,0.00000706,-0.00001245,0.00001124,0.00004042,0.00003184,-0.00000874
 ,0.00001414,-0.00001591,-0.00001332,-0.00002280,0.00002002,0.00182417,
 0.00077769,-0.00058882,0.00055670,-0.00085151,-0.01004105,0.03905462,-
 0.00119181,-0.00058536,0.00165434,-0.03344960,0.13654430,-0.50756241,-
 0.00000042,-0.00030178,-0.00049504,0.00020810,0.00009034,0.00006371,0.
 00000741,0.00009861,0.00003930,0.00025736,-0.00015571,0.00140204,0.004
 41112,0.00199836,-0.01271826,-0.00004285,0.00001457,0.00010091,-0.0000
 8693,-0.00001612,-0.00010431,-0.00008292,0.00004650,0.00001398,-0.0000
 2717,-0.00008056,-0.00007619,-0.00004109,-0.00006105,-0.00001763,0.000
 00591,-0.00001853,-0.00001258,-0.00001488,0.00000889,0.00005826,0.0001
 5355,0.00059954,-0.00010952,0.00240406,-0.00082130,0.00308318,0.027490
 16,-0.13736070,0.51468022\\-0.00000071,0.00000019,0.00000043,0.0000000
 8,0.00000009,0.00000005,-0.00000026,0.00000038,-0.00000065,0.00000035,
 0.00000081,-0.00000028,-0.00000031,-0.00000006,0.00000026,-0.00000046,
 -0.00000077,0.00000057,0.00000046,-0.00000076,0.00000028,-0.00000086,0
 .00000106,-0.00000006,0.00000036,0.00000127,-0.00000042,0.00000088,0.0
 0000123,-0.00000059,0.00000083,0.00000019,-0.00000056,0.00000016,-0.00
 000065,0.00000024,-0.00000089,-0.00000033,0.00000039,-0.00000013,0.000
 00015,0.00000010,-0.00000048,-0.00000132,0.00000038,0.00000039,-0.0000
 0113,0.00000033,0.00000057,-0.00000034,-0.00000047\\\@


 One man practicing sportsmanship is far better than 50 preaching it.
 -- Knute K. Rockne
 Job cpu time:       0 days  2 hours 57 minutes 34.1 seconds.
 Elapsed time:       0 days  1 hours 28 minutes 50.1 seconds.
 File lengths (MBytes):  RWF=   1392 Int=      0 D2E=      0 Chk=     32 Scr=     32
 Normal termination of Gaussian 16 at Sat Sep 28 12:13:50 2019.
