 Entering Gaussian System, Link 0=g16
 Input=verytight/species/CC(C)OC=CO/conformers/CC(C)OC=CO_50.com
 Output=verytight/species/CC(C)OC=CO/conformers/CC(C)OC=CO_50.log
 Initial command:
 /shared/centos7/gaussian/g16/l1.exe "/scratch/harms.n/gauss_scrdir/Gau-39871.inp" -scrdir="/scratch/harms.n/gauss_scrdir/"
 Entering Link 1 = /shared/centos7/gaussian/g16/l1.exe PID=     39872.
  
 Copyright (c) 1988,1990,1992,1993,1995,1998,2003,2009,2016,
            Gaussian, Inc.  All Rights Reserved.
  
 This is part of the Gaussian(R) 16 program.  It is based on
 the Gaussian(R) 09 system (copyright 2009, Gaussian, Inc.),
 the Gaussian(R) 03 system (copyright 2003, Gaussian, Inc.),
 the Gaussian(R) 98 system (copyright 1998, Gaussian, Inc.),
 the Gaussian(R) 94 system (copyright 1995, Gaussian, Inc.),
 the Gaussian 92(TM) system (copyright 1992, Gaussian, Inc.),
 the Gaussian 90(TM) system (copyright 1990, Gaussian, Inc.),
 the Gaussian 88(TM) system (copyright 1988, Gaussian, Inc.),
 the Gaussian 86(TM) system (copyright 1986, Carnegie Mellon
 University), and the Gaussian 82(TM) system (copyright 1983,
 Carnegie Mellon University). Gaussian is a federally registered
 trademark of Gaussian, Inc.
  
 This software contains proprietary and confidential information,
 including trade secrets, belonging to Gaussian, Inc.
  
 This software is provided under written license and may be
 used, copied, transmitted, or stored only in accord with that
 written license.
  
 The following legend is applicable only to US Government
 contracts under FAR:
  
                    RESTRICTED RIGHTS LEGEND
  
 Use, reproduction and disclosure by the US Government is
 subject to restrictions as set forth in subparagraphs (a)
 and (c) of the Commercial Computer Software - Restricted
 Rights clause in FAR 52.227-19.
  
 Gaussian, Inc.
 340 Quinnipiac St., Bldg. 40, Wallingford CT 06492
  
  
 ---------------------------------------------------------------
 Warning -- This program may not be used in any manner that
 competes with the business of Gaussian, Inc. or will provide
 assistance to any competitor of Gaussian, Inc.  The licensee
 of this program is prohibited from giving any competitor of
 Gaussian, Inc. access to this program.  By using this program,
 the user acknowledges that Gaussian, Inc. is engaged in the
 business of creating and licensing software in the field of
 computational chemistry and represents and warrants to the
 licensee that it is not a competitor of Gaussian, Inc. and that
 it will not use this program in any manner prohibited above.
 ---------------------------------------------------------------
  

 Cite this work as:
 Gaussian 16, Revision A.03,
 M. J. Frisch, G. W. Trucks, H. B. Schlegel, G. E. Scuseria, 
 M. A. Robb, J. R. Cheeseman, G. Scalmani, V. Barone, 
 G. A. Petersson, H. Nakatsuji, X. Li, M. Caricato, A. V. Marenich, 
 J. Bloino, B. G. Janesko, R. Gomperts, B. Mennucci, H. P. Hratchian, 
 J. V. Ortiz, A. F. Izmaylov, J. L. Sonnenberg, D. Williams-Young, 
 F. Ding, F. Lipparini, F. Egidi, J. Goings, B. Peng, A. Petrone, 
 T. Henderson, D. Ranasinghe, V. G. Zakrzewski, J. Gao, N. Rega, 
 G. Zheng, W. Liang, M. Hada, M. Ehara, K. Toyota, R. Fukuda, 
 J. Hasegawa, M. Ishida, T. Nakajima, Y. Honda, O. Kitao, H. Nakai, 
 T. Vreven, K. Throssell, J. A. Montgomery, Jr., J. E. Peralta, 
 F. Ogliaro, M. J. Bearpark, J. J. Heyd, E. N. Brothers, K. N. Kudin, 
 V. N. Staroverov, T. A. Keith, R. Kobayashi, J. Normand, 
 K. Raghavachari, A. P. Rendell, J. C. Burant, S. S. Iyengar, 
 J. Tomasi, M. Cossi, J. M. Millam, M. Klene, C. Adamo, R. Cammi, 
 J. W. Ochterski, R. L. Martin, K. Morokuma, O. Farkas, 
 J. B. Foresman, and D. J. Fox, Gaussian, Inc., Wallingford CT, 2016.
 
 ******************************************
 Gaussian 16:  EM64L-G16RevA.03 25-Dec-2016
                28-Sep-2019 
 ******************************************
 %nprocshared=20
 Will use up to   20 processors via shared memory.
 %mem=5GB
 ----------------------------------------------------------------------
 #p m062x/cc-pVTZ opt=(calcfc,maxcycles=900,Tight) freq IOP(7/33=1,2/16
 =3) scf=(maxcycle=900)
 ----------------------------------------------------------------------
 1/6=900,7=10,10=4,18=20,19=15,26=3,38=1/1,3;
 2/9=110,12=2,16=3,17=6,18=5,40=1/2;
 3/5=16,6=1,11=2,25=1,30=1,71=2,74=-55,140=1/1,2,3;
 4//1;
 5/5=2,7=900,38=5/2;
 8/6=4,10=90,11=11/1;
 11/6=1,8=1,9=11,15=111,16=1/1,2,10;
 10/6=1,13=1/2;
 6/7=2,8=2,9=2,10=2,28=1/1;
 7/10=1,18=20,25=1,33=1/1,2,3,16;
 1/6=900,7=10,10=4,18=20,19=15,26=3/3(2);
 2/9=110,16=3/2;
 99//99;
 2/9=110,16=3/2;
 3/5=16,6=1,11=2,25=1,30=1,71=1,74=-55/1,2,3;
 4/5=5,16=3,69=1/1;
 5/5=2,7=900,38=5/2;
 7/33=1/1,2,3,16;
 1/6=900,7=10,18=20,19=15,26=3/3(-5);
 2/9=110,16=3/2;
 6/7=2,8=2,9=2,10=2,19=2,28=1/1;
 99/9=1/99;
 Leave Link    1 at Sat Sep 28 06:48:44 2019, MaxMem=   671088640 cpu:               4.1 elap:               2.0
 (Enter /shared/centos7/gaussian/g16/l101.exe)
 ------------------------------
 Gaussian input prepared by ASE
 ------------------------------
 Symbolic Z-matrix:
 Charge =  0 Multiplicity = 1
 O                     0.76095   0.89197   2.49646 
 O                     0.00112   0.46811  -0.38202 
 C                     0.41805   2.20348   2.1012 
 C                    -1.0647    2.32306   1.74883 
 C                     1.31769   2.77383   1.05458 
 C                     1.374     0.09082   1.56039 
 C                     1.03984  -0.12394   0.32092 
 H                     0.57388   2.81932   3.03007 
 H                    -1.51153   1.33064   1.53051 
 H                    -1.63477   2.76135   2.58812 
 H                    -1.22818   2.9791    0.85132 
 H                     1.14103   2.31254   0.03837 
 H                     2.3841    2.62203   1.32253 
 H                     1.14158   3.88248   0.9574 
 H                     2.20302  -0.48556   2.00112 
 H                     1.60823  -0.80087  -0.29965 
 H                    -0.5329    0.99635   0.27947 
 
 ITRead=  0  0  0  0  0  0  0  0  0  0  0  0  0  0  0  0  0
 MicOpt= -1 -1 -1 -1 -1 -1 -1 -1 -1 -1 -1 -1 -1 -1 -1 -1 -1
 NAtoms=     17 NQM=       17 NQMF=       0 NMMI=      0 NMMIF=      0
                NMic=       0 NMicF=      0.
                    Isotopes and Nuclear Properties:
 (Nuclear quadrupole moments (NQMom) in fm**2, nuclear magnetic moments (NMagM)
  in nuclear magnetons)

  Atom         1           2           3           4           5           6           7           8           9          10
 IAtWgt=          16          16          12          12          12          12          12           1           1           1
 AtmWgt=  15.9949146  15.9949146  12.0000000  12.0000000  12.0000000  12.0000000  12.0000000   1.0078250   1.0078250   1.0078250
 NucSpn=           0           0           0           0           0           0           0           1           1           1
 AtZEff=  -0.0000000  -0.0000000  -0.0000000  -0.0000000  -0.0000000  -0.0000000  -0.0000000  -0.0000000  -0.0000000  -0.0000000
 NQMom=    0.0000000   0.0000000   0.0000000   0.0000000   0.0000000   0.0000000   0.0000000   0.0000000   0.0000000   0.0000000
 NMagM=    0.0000000   0.0000000   0.0000000   0.0000000   0.0000000   0.0000000   0.0000000   2.7928460   2.7928460   2.7928460
 AtZNuc=   8.0000000   8.0000000   6.0000000   6.0000000   6.0000000   6.0000000   6.0000000   1.0000000   1.0000000   1.0000000

  Atom        11          12          13          14          15          16          17
 IAtWgt=           1           1           1           1           1           1           1
 AtmWgt=   1.0078250   1.0078250   1.0078250   1.0078250   1.0078250   1.0078250   1.0078250
 NucSpn=           1           1           1           1           1           1           1
 AtZEff=  -0.0000000  -0.0000000  -0.0000000  -0.0000000  -0.0000000  -0.0000000  -0.0000000
 NQMom=    0.0000000   0.0000000   0.0000000   0.0000000   0.0000000   0.0000000   0.0000000
 NMagM=    2.7928460   2.7928460   2.7928460   2.7928460   2.7928460   2.7928460   2.7928460
 AtZNuc=   1.0000000   1.0000000   1.0000000   1.0000000   1.0000000   1.0000000   1.0000000
 Leave Link  101 at Sat Sep 28 06:48:45 2019, MaxMem=   671088640 cpu:               2.9 elap:               1.5
 (Enter /shared/centos7/gaussian/g16/l103.exe)

 GradGradGradGradGradGradGradGradGradGradGradGradGradGradGradGradGradGrad
 Berny optimization.
 Initialization pass.
                           ----------------------------
                           !    Initial Parameters    !
                           ! (Angstroms and Degrees)  !
 --------------------------                            --------------------------
 ! Name  Definition              Value          Derivative Info.                !
 --------------------------------------------------------------------------------
 ! R1    R(1,3)                  1.412          calculate D2E/DX2 analytically  !
 ! R2    R(1,6)                  1.3762         calculate D2E/DX2 analytically  !
 ! R3    R(2,7)                  1.3869         calculate D2E/DX2 analytically  !
 ! R4    R(2,17)                 1.0009         calculate D2E/DX2 analytically  !
 ! R5    R(3,4)                  1.5287         calculate D2E/DX2 analytically  !
 ! R6    R(3,5)                  1.4933         calculate D2E/DX2 analytically  !
 ! R7    R(3,8)                  1.1253         calculate D2E/DX2 analytically  !
 ! R8    R(4,9)                  1.1101         calculate D2E/DX2 analytically  !
 ! R9    R(4,10)                 1.1052         calculate D2E/DX2 analytically  !
 ! R10   R(4,11)                 1.1237         calculate D2E/DX2 analytically  !
 ! R11   R(5,12)                 1.1299         calculate D2E/DX2 analytically  !
 ! R12   R(5,13)                 1.11           calculate D2E/DX2 analytically  !
 ! R13   R(5,14)                 1.1267         calculate D2E/DX2 analytically  !
 ! R14   R(6,7)                  1.3016         calculate D2E/DX2 analytically  !
 ! R15   R(6,15)                 1.1017         calculate D2E/DX2 analytically  !
 ! R16   R(7,16)                 1.08           calculate D2E/DX2 analytically  !
 ! A1    A(3,1,6)              117.2889         calculate D2E/DX2 analytically  !
 ! A2    A(7,2,17)             106.8526         calculate D2E/DX2 analytically  !
 ! A3    A(1,3,4)              111.8831         calculate D2E/DX2 analytically  !
 ! A4    A(1,3,5)              113.8677         calculate D2E/DX2 analytically  !
 ! A5    A(1,3,8)              104.0999         calculate D2E/DX2 analytically  !
 ! A6    A(4,3,5)              113.1344         calculate D2E/DX2 analytically  !
 ! A7    A(4,3,8)              106.3656         calculate D2E/DX2 analytically  !
 ! A8    A(5,3,8)              106.6228         calculate D2E/DX2 analytically  !
 ! A9    A(3,4,9)              111.4582         calculate D2E/DX2 analytically  !
 ! A10   A(3,4,10)             110.8709         calculate D2E/DX2 analytically  !
 ! A11   A(3,4,11)             111.7703         calculate D2E/DX2 analytically  !
 ! A12   A(9,4,10)             107.2338         calculate D2E/DX2 analytically  !
 ! A13   A(9,4,11)             107.8374         calculate D2E/DX2 analytically  !
 ! A14   A(10,4,11)            107.4566         calculate D2E/DX2 analytically  !
 ! A15   A(3,5,12)             112.3472         calculate D2E/DX2 analytically  !
 ! A16   A(3,5,13)             110.9383         calculate D2E/DX2 analytically  !
 ! A17   A(3,5,14)             110.0038         calculate D2E/DX2 analytically  !
 ! A18   A(12,5,13)            108.1488         calculate D2E/DX2 analytically  !
 ! A19   A(12,5,14)            107.4395         calculate D2E/DX2 analytically  !
 ! A20   A(13,5,14)            107.7909         calculate D2E/DX2 analytically  !
 ! A21   A(1,6,7)              129.0081         calculate D2E/DX2 analytically  !
 ! A22   A(1,6,15)             111.5717         calculate D2E/DX2 analytically  !
 ! A23   A(7,6,15)             119.1982         calculate D2E/DX2 analytically  !
 ! A24   A(2,7,6)              127.1926         calculate D2E/DX2 analytically  !
 ! A25   A(2,7,16)             111.7455         calculate D2E/DX2 analytically  !
 ! A26   A(6,7,16)             121.0301         calculate D2E/DX2 analytically  !
 ! D1    D(6,1,3,4)            100.4755         calculate D2E/DX2 analytically  !
 ! D2    D(6,1,3,5)            -29.3692         calculate D2E/DX2 analytically  !
 ! D3    D(6,1,3,8)           -145.0704         calculate D2E/DX2 analytically  !
 ! D4    D(3,1,6,7)            -47.7593         calculate D2E/DX2 analytically  !
 ! D5    D(3,1,6,15)           137.7829         calculate D2E/DX2 analytically  !
 ! D6    D(17,2,7,6)            -8.1353         calculate D2E/DX2 analytically  !
 ! D7    D(17,2,7,16)          173.9155         calculate D2E/DX2 analytically  !
 ! D8    D(1,3,4,9)            -19.5338         calculate D2E/DX2 analytically  !
 ! D9    D(1,3,4,10)            99.8437         calculate D2E/DX2 analytically  !
 ! D10   D(1,3,4,11)          -140.2901         calculate D2E/DX2 analytically  !
 ! D11   D(5,3,4,9)            110.6905         calculate D2E/DX2 analytically  !
 ! D12   D(5,3,4,10)          -129.9321         calculate D2E/DX2 analytically  !
 ! D13   D(5,3,4,11)           -10.0658         calculate D2E/DX2 analytically  !
 ! D14   D(8,3,4,9)           -132.5858         calculate D2E/DX2 analytically  !
 ! D15   D(8,3,4,10)           -13.2084         calculate D2E/DX2 analytically  !
 ! D16   D(8,3,4,11)           106.6579         calculate D2E/DX2 analytically  !
 ! D17   D(1,3,5,12)            73.2811         calculate D2E/DX2 analytically  !
 ! D18   D(1,3,5,13)           -47.9095         calculate D2E/DX2 analytically  !
 ! D19   D(1,3,5,14)          -167.0823         calculate D2E/DX2 analytically  !
 ! D20   D(4,3,5,12)           -55.9352         calculate D2E/DX2 analytically  !
 ! D21   D(4,3,5,13)          -177.1258         calculate D2E/DX2 analytically  !
 ! D22   D(4,3,5,14)            63.7013         calculate D2E/DX2 analytically  !
 ! D23   D(8,3,5,12)          -172.5072         calculate D2E/DX2 analytically  !
 ! D24   D(8,3,5,13)            66.3022         calculate D2E/DX2 analytically  !
 ! D25   D(8,3,5,14)           -52.8706         calculate D2E/DX2 analytically  !
 ! D26   D(1,6,7,2)              3.474          calculate D2E/DX2 analytically  !
 ! D27   D(1,6,7,16)          -178.7491         calculate D2E/DX2 analytically  !
 ! D28   D(15,6,7,2)           177.5686         calculate D2E/DX2 analytically  !
 ! D29   D(15,6,7,16)           -4.6546         calculate D2E/DX2 analytically  !
 --------------------------------------------------------------------------------
 Trust Radius=3.00D-01 FncErr=1.00D-07 GrdErr=1.00D-06 EigMax=2.50D+02 EigMin=1.00D-04
 Number of steps in this run=    102 maximum allowed number of steps=    102.
 GradGradGradGradGradGradGradGradGradGradGradGradGradGradGradGradGradGrad

 Leave Link  103 at Sat Sep 28 06:48:46 2019, MaxMem=   671088640 cpu:               1.6 elap:               0.8
 (Enter /shared/centos7/gaussian/g16/l202.exe)
                          Input orientation:                          
 ---------------------------------------------------------------------
 Center     Atomic      Atomic             Coordinates (Angstroms)
 Number     Number       Type             X           Y           Z
 ---------------------------------------------------------------------
      1          8           0        0.760955    0.891966    2.496462
      2          8           0        0.001119    0.468112   -0.382019
      3          6           0        0.418049    2.203477    2.101201
      4          6           0       -1.064700    2.323058    1.748826
      5          6           0        1.317688    2.773832    1.054581
      6          6           0        1.374000    0.090822    1.560385
      7          6           0        1.039836   -0.123940    0.320924
      8          1           0        0.573879    2.819319    3.030072
      9          1           0       -1.511527    1.330640    1.530507
     10          1           0       -1.634767    2.761345    2.588120
     11          1           0       -1.228176    2.979098    0.851320
     12          1           0        1.141029    2.312537    0.038370
     13          1           0        2.384099    2.622030    1.322531
     14          1           0        1.141580    3.882482    0.957405
     15          1           0        2.203022   -0.485558    2.001116
     16          1           0        1.608234   -0.800867   -0.299653
     17          1           0       -0.532898    0.996350    0.279475
 ---------------------------------------------------------------------
                    Distance matrix (angstroms):
                    1          2          3          4          5
     1  O    0.000000
     2  O    3.007100   0.000000
     3  C    1.412047   3.058055   0.000000
     4  C    2.437212   3.019486   1.528729   0.000000
     5  C    2.435240   3.018860   1.493342   2.522092   0.000000
     6  C    1.376189   2.408336   2.381100   3.311442   2.730852
     7  C    2.417189   1.386935   2.995476   3.529274   3.002088
     8  H    2.008589   4.183132   1.125320   2.138412   2.111372
     9  H    2.507923   2.586465   2.193353   1.110050   3.211505
    10  H    3.040142   4.093503   2.182283   1.105209   3.326994
    11  H    3.319526   3.055706   2.207679   1.123668   2.562201
    12  H    2.864384   2.208625   2.188577   2.791239   1.129905
    13  H    2.646854   3.636406   2.155660   3.487883   1.109989
    14  H    3.384783   3.840915   2.156577   2.815283   1.126748
    15  H    2.054872   3.381893   3.229096   4.316247   3.507616
    16  H    3.376658   2.049369   4.025758   4.593447   3.833646
    17  H    2.569043   1.000891   2.383305   2.049868   2.680466
                    6          7          8          9         10
     6  C    0.000000
     7  C    1.301558   0.000000
     8  H    3.200761   4.027328   0.000000
     9  H    3.140749   3.176215   2.968801   0.000000
    10  H    4.152181   4.540765   2.253175   1.783439   0.000000
    11  H    3.951738   3.879954   2.831942   1.805269   1.796999
    12  H    2.703114   2.454892   3.086871   3.197913   3.795747
    13  H    2.735671   3.217237   2.496302   4.109361   4.215734
    14  H    3.846335   4.057939   2.397613   3.725495   3.409440
    15  H    1.101697   2.075287   3.825581   4.161481   5.061184
    16  H    2.075986   1.080011   5.026202   4.198299   5.616551
    17  H    2.469205   1.931388   3.480511   1.623128   3.107920
                   11         12         13         14         15
    11  H    0.000000
    12  H    2.591974   0.000000
    13  H    3.660338   1.813858   0.000000
    14  H    2.538326   1.819163   1.807183   0.000000
    15  H    5.009890   3.579042   3.185965   4.614734   0.000000
    16  H    4.863959   3.166358   3.866481   4.871521   2.397234
    17  H    2.177546   2.143014   3.498525   3.404882   3.556032
                   16         17
    16  H    0.000000
    17  H    2.854790   0.000000
 Stoichiometry    C5H10O2
 Framework group  C1[X(C5H10O2)]
 Deg. of freedom    45
 Full point group                 C1      NOp   1
 Largest Abelian subgroup         C1      NOp   1
 Largest concise Abelian subgroup C1      NOp   1
                         Standard orientation:                         
 ---------------------------------------------------------------------
 Center     Atomic      Atomic             Coordinates (Angstroms)
 Number     Number       Type             X           Y           Z
 ---------------------------------------------------------------------
      1          8           0       -0.178756   -1.092278   -0.749003
      2          8           0        1.299062    1.385460    0.099244
      3          6           0       -1.176049   -0.406435   -0.021745
      4          6           0       -1.573507    0.905737   -0.697942
      5          6           0       -0.863601   -0.247298    1.429848
      6          6           0        1.117477   -0.982610   -0.299950
      7          6           0        1.778113    0.085101    0.042984
      8          1           0       -2.074585   -1.080902   -0.085577
      9          1           0       -0.795160    1.246479   -1.412284
     10          1           0       -2.512125    0.785873   -1.269007
     11          1           0       -1.737048    1.727546    0.050733
     12          1           0       -0.057037    0.522305    1.613834
     13          1           0       -0.530601   -1.209544    1.871739
     14          1           0       -1.783502    0.087650    1.987659
     15          1           0        1.642333   -1.950531   -0.337258
     16          1           0        2.808219    0.024034    0.361693
     17          1           0        0.382459    1.374658   -0.302633
 ---------------------------------------------------------------------
 Rotational constants (GHZ):           3.5567243           2.3084991           2.0023237
 Leave Link  202 at Sat Sep 28 06:48:48 2019, MaxMem=   671088640 cpu:               4.1 elap:               2.1
 (Enter /shared/centos7/gaussian/g16/l301.exe)
 Standard basis: CC-pVTZ (5D, 7F)
 Ernie: Thresh=  0.10000D-02 Tol=  0.10000D-05 Strict=F.
 Ernie:  21 primitive shells out of 262 were deleted.
 There are   395 symmetry adapted cartesian basis functions of A   symmetry.
 There are   350 symmetry adapted basis functions of A   symmetry.
   350 basis functions,   534 primitive gaussians,   395 cartesian basis functions
    28 alpha electrons       28 beta electrons
       nuclear repulsion energy       331.8441532732 Hartrees.
 IExCor= 4336 DFT=T Ex+Corr=M062X ExCW=0 ScaHFX=  0.540000
 ScaDFX=  1.000000  1.000000  1.000000  1.000000 ScalE2=  1.000000  1.000000
 IRadAn=      5 IRanWt=     -1 IRanGd=            0 ICorTp=0 IEmpDi=  4
 NAtoms=   17 NActive=   17 NUniq=   17 SFac= 1.00D+00 NAtFMM=   60 NAOKFM=F Big=F
 Integral buffers will be    131072 words long.
 Raffenetti 2 integral format.
 Two-electron integral symmetry is turned on.
 Leave Link  301 at Sat Sep 28 06:48:49 2019, MaxMem=   671088640 cpu:               1.8 elap:               0.9
 (Enter /shared/centos7/gaussian/g16/l302.exe)
 NPDir=0 NMtPBC=     1 NCelOv=     1 NCel=       1 NClECP=     1 NCelD=      1
         NCelK=      1 NCelE2=     1 NClLst=     1 CellRange=     0.0.
 One-electron integrals computed using PRISM.
 One-electron integral symmetry used in STVInt
 NBasis=   350 RedAO= T EigKep=  2.82D-04  NBF=   350
 NBsUse=   350 1.00D-06 EigRej= -1.00D+00 NBFU=   350
 Precomputing XC quadrature grid using
 IXCGrd= 4 IRadAn=           5 IRanWt=          -1 IRanGd=           0 AccXCQ= 0.00D+00.
 Generated NRdTot=       0 NPtTot=           0 NUsed=           0 NTot=          32
 NSgBfM=   395   395   395   395   395 MxSgAt=    17 MxSgA2=    17.
 Leave Link  302 at Sat Sep 28 06:49:56 2019, MaxMem=   671088640 cpu:             133.4 elap:              66.7
 (Enter /shared/centos7/gaussian/g16/l303.exe)
 DipDrv:  MaxL=1.
 Leave Link  303 at Sat Sep 28 06:50:02 2019, MaxMem=   671088640 cpu:              12.6 elap:               6.3
 (Enter /shared/centos7/gaussian/g16/l401.exe)
 ExpMin= 1.03D-01 ExpMax= 1.53D+04 ExpMxC= 5.22D+02 IAcc=3 IRadAn=         5 AccDes= 0.00D+00
 Harris functional with IExCor= 1009 and IRadAn=       5 diagonalized for initial guess.
 HarFok:  IExCor= 1009 AccDes= 0.00D+00 IRadAn=         5 IDoV= 1 UseB2=F ITyADJ=14
 ICtDFT=  3500011 ScaDFX=  1.000000  1.000000  1.000000  1.000000
 FoFCou: FMM=F IPFlag=           0 FMFlag=      100000 FMFlg1=           0
         NFxFlg=           0 DoJE=T BraDBF=F KetDBF=T FulRan=T
         wScrn=  0.000000 ICntrl=       500 IOpCl=  0 I1Cent=   200000004 NGrid=           0
         NMat0=    1 NMatS0=      1 NMatT0=    0 NMatD0=    1 NMtDS0=    0 NMtDT0=    0
 Petite list used in FoFCou.
 Harris En= -346.794063562453    
 JPrj=0 DoOrth=F DoCkMO=F.
 Leave Link  401 at Sat Sep 28 06:50:39 2019, MaxMem=   671088640 cpu:              73.8 elap:              36.9
 (Enter /shared/centos7/gaussian/g16/l502.exe)
 Integral symmetry usage will be decided dynamically.
 Closed shell SCF:
 Using DIIS extrapolation, IDIIS=  1040.
 NGot=   671088640 LenX=   670765141 LenY=   670608675
 Requested convergence on RMS density matrix=1.00D-08 within 900 cycles.
 Requested convergence on MAX density matrix=1.00D-06.
 Requested convergence on             energy=1.00D-06.
 No special actions if energy rises.
 Fock matrices will be formed incrementally for  20 cycles.
 Integral accuracy reduced to 1.0D-05 until final iterations.

 Cycle   1  Pass 0  IDiag  1:
 FoFJK:  IHMeth= 1 ICntrl=       0 DoSepK=F KAlg= 0 I1Cent=           0 FoldK=F
 IRaf= 980000000 NMat=       1 IRICut=       1 DoRegI=T DoRafI=F ISym2E= 0 IDoP0=0 IntGTp=1.
 FoFCou: FMM=F IPFlag=           0 FMFlag=      100000 FMFlg1=           0
         NFxFlg=           0 DoJE=F BraDBF=F KetDBF=F FulRan=T
         wScrn=  0.000000 ICntrl=         0 IOpCl=  0 I1Cent=           0 NGrid=           0
         NMat0=    1 NMatS0=      1 NMatT0=    0 NMatD0=    1 NMtDS0=    0 NMtDT0=    0
 Symmetry not used in FoFCou.
 E= -346.708411619093    
 DIIS: error= 2.20D-02 at cycle   1 NSaved=   1.
 NSaved= 1 IEnMin= 1 EnMin= -346.708411619093     IErMin= 1 ErrMin= 2.20D-02
 ErrMax= 2.20D-02  0.00D+00 EMaxC= 1.00D-01 BMatC= 2.73D-01 BMatP= 2.73D-01
 IDIUse=3 WtCom= 7.80D-01 WtEn= 2.20D-01
 Coeff-Com:  0.100D+01
 Coeff-En:   0.100D+01
 Coeff:      0.100D+01
 Gap=     0.362 Goal=   None    Shift=    0.000
 GapD=    0.362 DampG=1.000 DampE=0.500 DampFc=0.5000 IDamp=-1.
 Damping current iteration by 5.00D-01
 RMSDP=1.89D-03 MaxDP=1.10D-01              OVMax= 1.37D-01

 Cycle   2  Pass 0  IDiag  1:
 RMSU=  9.47D-04    CP:  1.00D+00
 E= -346.821039259951     Delta-E=       -0.112627640858 Rises=F Damp=T
 DIIS: error= 4.55D-03 at cycle   2 NSaved=   2.
 NSaved= 2 IEnMin= 2 EnMin= -346.821039259951     IErMin= 2 ErrMin= 4.55D-03
 ErrMax= 4.55D-03  0.00D+00 EMaxC= 1.00D-01 BMatC= 2.15D-02 BMatP= 2.73D-01
 IDIUse=3 WtCom= 9.55D-01 WtEn= 4.55D-02
 Coeff-Com: -0.160D+00 0.116D+01
 Coeff-En:   0.000D+00 0.100D+01
 Coeff:     -0.153D+00 0.115D+01
 Gap=     0.343 Goal=   None    Shift=    0.000
 RMSDP=4.45D-04 MaxDP=1.44D-02 DE=-1.13D-01 OVMax= 6.81D-02

 Cycle   3  Pass 0  IDiag  1:
 RMSU=  4.43D-04    CP:  1.00D+00  9.78D-01
 E= -346.920207010303     Delta-E=       -0.099167750353 Rises=F Damp=F
 DIIS: error= 2.33D-03 at cycle   3 NSaved=   3.
 NSaved= 3 IEnMin= 3 EnMin= -346.920207010303     IErMin= 3 ErrMin= 2.33D-03
 ErrMax= 2.33D-03  0.00D+00 EMaxC= 1.00D-01 BMatC= 2.96D-03 BMatP= 2.15D-02
 IDIUse=3 WtCom= 9.77D-01 WtEn= 2.33D-02
 Coeff-Com: -0.853D-01 0.302D+00 0.783D+00
 Coeff-En:   0.000D+00 0.000D+00 0.100D+01
 Coeff:     -0.833D-01 0.295D+00 0.788D+00
 Gap=     0.339 Goal=   None    Shift=    0.000
 RMSDP=1.40D-04 MaxDP=5.08D-03 DE=-9.92D-02 OVMax= 1.07D-02

 Cycle   4  Pass 0  IDiag  1:
 RMSU=  1.04D-04    CP:  1.00D+00  1.06D+00  8.81D-01
 E= -346.922056763640     Delta-E=       -0.001849753337 Rises=F Damp=F
 DIIS: error= 8.54D-04 at cycle   4 NSaved=   4.
 NSaved= 4 IEnMin= 4 EnMin= -346.922056763640     IErMin= 4 ErrMin= 8.54D-04
 ErrMax= 8.54D-04  0.00D+00 EMaxC= 1.00D-01 BMatC= 6.39D-04 BMatP= 2.96D-03
 IDIUse=3 WtCom= 9.91D-01 WtEn= 8.54D-03
 Coeff-Com: -0.256D-01 0.674D-01 0.362D+00 0.596D+00
 Coeff-En:   0.000D+00 0.000D+00 0.853D-01 0.915D+00
 Coeff:     -0.254D-01 0.668D-01 0.360D+00 0.599D+00
 Gap=     0.337 Goal=   None    Shift=    0.000
 RMSDP=4.87D-05 MaxDP=1.92D-03 DE=-1.85D-03 OVMax= 5.28D-03

 Cycle   5  Pass 0  IDiag  1:
 RMSU=  2.78D-05    CP:  1.00D+00  1.05D+00  9.25D-01  6.73D-01
 E= -346.922515539100     Delta-E=       -0.000458775460 Rises=F Damp=F
 DIIS: error= 2.67D-04 at cycle   5 NSaved=   5.
 NSaved= 5 IEnMin= 5 EnMin= -346.922515539100     IErMin= 5 ErrMin= 2.67D-04
 ErrMax= 2.67D-04  0.00D+00 EMaxC= 1.00D-01 BMatC= 4.35D-05 BMatP= 6.39D-04
 IDIUse=3 WtCom= 9.97D-01 WtEn= 2.67D-03
 Coeff-Com: -0.637D-02 0.126D-01 0.119D+00 0.285D+00 0.590D+00
 Coeff-En:   0.000D+00 0.000D+00 0.000D+00 0.000D+00 0.100D+01
 Coeff:     -0.635D-02 0.126D-01 0.119D+00 0.284D+00 0.591D+00
 Gap=     0.337 Goal=   None    Shift=    0.000
 RMSDP=1.27D-05 MaxDP=4.19D-04 DE=-4.59D-04 OVMax= 1.53D-03

 Cycle   6  Pass 0  IDiag  1:
 RMSU=  8.65D-06    CP:  1.00D+00  1.05D+00  9.31D-01  6.97D-01  7.09D-01
 E= -346.922546312463     Delta-E=       -0.000030773363 Rises=F Damp=F
 DIIS: error= 6.10D-05 at cycle   6 NSaved=   6.
 NSaved= 6 IEnMin= 6 EnMin= -346.922546312463     IErMin= 6 ErrMin= 6.10D-05
 ErrMax= 6.10D-05  0.00D+00 EMaxC= 1.00D-01 BMatC= 1.57D-06 BMatP= 4.35D-05
 IDIUse=1 WtCom= 1.00D+00 WtEn= 0.00D+00
 Coeff-Com: -0.175D-03-0.722D-03 0.163D-01 0.632D-01 0.196D+00 0.726D+00
 Coeff:     -0.175D-03-0.722D-03 0.163D-01 0.632D-01 0.196D+00 0.726D+00
 Gap=     0.337 Goal=   None    Shift=    0.000
 RMSDP=3.49D-06 MaxDP=1.11D-04 DE=-3.08D-05 OVMax= 5.14D-04

 Initial convergence to 1.0D-05 achieved.  Increase integral accuracy.
 Cycle   7  Pass 1  IDiag  1:
 E= -346.922530729744     Delta-E=        0.000015582719 Rises=F Damp=F
 DIIS: error= 4.99D-05 at cycle   1 NSaved=   1.
 NSaved= 1 IEnMin= 1 EnMin= -346.922530729744     IErMin= 1 ErrMin= 4.99D-05
 ErrMax= 4.99D-05  0.00D+00 EMaxC= 1.00D-01 BMatC= 7.62D-07 BMatP= 7.62D-07
 IDIUse=1 WtCom= 1.00D+00 WtEn= 0.00D+00
 Coeff-Com:  0.100D+01
 Coeff:      0.100D+01
 Gap=     0.337 Goal=   None    Shift=    0.000
 RMSDP=3.49D-06 MaxDP=1.11D-04 DE= 1.56D-05 OVMax= 4.05D-04

 Cycle   8  Pass 1  IDiag  1:
 RMSU=  7.14D-06    CP:  1.00D+00
 E= -346.922530834868     Delta-E=       -0.000000105124 Rises=F Damp=F
 DIIS: error= 2.54D-05 at cycle   2 NSaved=   2.
 NSaved= 2 IEnMin= 2 EnMin= -346.922530834868     IErMin= 2 ErrMin= 2.54D-05
 ErrMax= 2.54D-05  0.00D+00 EMaxC= 1.00D-01 BMatC= 4.29D-07 BMatP= 7.62D-07
 IDIUse=1 WtCom= 1.00D+00 WtEn= 0.00D+00
 Coeff-Com:  0.408D+00 0.592D+00
 Coeff:      0.408D+00 0.592D+00
 Gap=     0.337 Goal=   None    Shift=    0.000
 RMSDP=1.91D-06 MaxDP=8.39D-05 DE=-1.05D-07 OVMax= 3.56D-04

 Cycle   9  Pass 1  IDiag  1:
 RMSU=  1.87D-06    CP:  1.00D+00  9.43D-01
 E= -346.922531159541     Delta-E=       -0.000000324673 Rises=F Damp=F
 DIIS: error= 1.12D-05 at cycle   3 NSaved=   3.
 NSaved= 3 IEnMin= 3 EnMin= -346.922531159541     IErMin= 3 ErrMin= 1.12D-05
 ErrMax= 1.12D-05  0.00D+00 EMaxC= 1.00D-01 BMatC= 7.78D-08 BMatP= 4.29D-07
 IDIUse=1 WtCom= 1.00D+00 WtEn= 0.00D+00
 Coeff-Com:  0.304D-03 0.293D+00 0.706D+00
 Coeff:      0.304D-03 0.293D+00 0.706D+00
 Gap=     0.337 Goal=   None    Shift=    0.000
 RMSDP=6.39D-07 MaxDP=2.34D-05 DE=-3.25D-07 OVMax= 1.02D-04

 Cycle  10  Pass 1  IDiag  1:
 RMSU=  3.12D-07    CP:  1.00D+00  9.86D-01  7.51D-01
 E= -346.922531222920     Delta-E=       -0.000000063379 Rises=F Damp=F
 DIIS: error= 2.13D-06 at cycle   4 NSaved=   4.
 NSaved= 4 IEnMin= 4 EnMin= -346.922531222920     IErMin= 4 ErrMin= 2.13D-06
 ErrMax= 2.13D-06  0.00D+00 EMaxC= 1.00D-01 BMatC= 3.66D-09 BMatP= 7.78D-08
 IDIUse=1 WtCom= 1.00D+00 WtEn= 0.00D+00
 Coeff-Com: -0.140D-01 0.124D+00 0.337D+00 0.554D+00
 Coeff:     -0.140D-01 0.124D+00 0.337D+00 0.554D+00
 Gap=     0.337 Goal=   None    Shift=    0.000
 RMSDP=1.04D-07 MaxDP=6.17D-06 DE=-6.34D-08 OVMax= 9.70D-06

 Cycle  11  Pass 1  IDiag  1:
 RMSU=  9.75D-08    CP:  1.00D+00  9.89D-01  7.62D-01  9.35D-01
 E= -346.922531225812     Delta-E=       -0.000000002892 Rises=F Damp=F
 DIIS: error= 3.28D-07 at cycle   5 NSaved=   5.
 NSaved= 5 IEnMin= 5 EnMin= -346.922531225812     IErMin= 5 ErrMin= 3.28D-07
 ErrMax= 3.28D-07  0.00D+00 EMaxC= 1.00D-01 BMatC= 8.23D-11 BMatP= 3.66D-09
 IDIUse=1 WtCom= 1.00D+00 WtEn= 0.00D+00
 Coeff-Com: -0.120D-02-0.158D-01-0.399D-01 0.534D-01 0.100D+01
 Coeff:     -0.120D-02-0.158D-01-0.399D-01 0.534D-01 0.100D+01
 Gap=     0.337 Goal=   None    Shift=    0.000
 RMSDP=4.24D-08 MaxDP=1.50D-06 DE=-2.89D-09 OVMax= 4.20D-06

 Cycle  12  Pass 1  IDiag  1:
 RMSU=  2.29D-08    CP:  1.00D+00  9.90D-01  7.66D-01  1.04D+00  1.11D+00
 E= -346.922531225939     Delta-E=       -0.000000000127 Rises=F Damp=F
 DIIS: error= 1.98D-07 at cycle   6 NSaved=   6.
 NSaved= 6 IEnMin= 6 EnMin= -346.922531225939     IErMin= 6 ErrMin= 1.98D-07
 ErrMax= 1.98D-07  0.00D+00 EMaxC= 1.00D-01 BMatC= 1.65D-11 BMatP= 8.23D-11
 IDIUse=1 WtCom= 1.00D+00 WtEn= 0.00D+00
 Coeff-Com:  0.840D-03-0.168D-01-0.461D-01-0.289D-01 0.389D+00 0.702D+00
 Coeff:      0.840D-03-0.168D-01-0.461D-01-0.289D-01 0.389D+00 0.702D+00
 Gap=     0.337 Goal=   None    Shift=    0.000
 RMSDP=1.24D-08 MaxDP=3.80D-07 DE=-1.27D-10 OVMax= 1.15D-06

 Cycle  13  Pass 1  IDiag  1:
 RMSU=  8.77D-09    CP:  1.00D+00  9.91D-01  7.66D-01  1.06D+00  1.17D+00
                    CP:  9.72D-01
 E= -346.922531225959     Delta-E=       -0.000000000020 Rises=F Damp=F
 DIIS: error= 2.96D-08 at cycle   7 NSaved=   7.
 NSaved= 7 IEnMin= 7 EnMin= -346.922531225959     IErMin= 7 ErrMin= 2.96D-08
 ErrMax= 2.96D-08  0.00D+00 EMaxC= 1.00D-01 BMatC= 1.02D-12 BMatP= 1.65D-11
 IDIUse=1 WtCom= 1.00D+00 WtEn= 0.00D+00
 Coeff-Com:  0.362D-03-0.387D-02-0.113D-01-0.139D-01 0.390D-01 0.219D+00
 Coeff-Com:  0.771D+00
 Coeff:      0.362D-03-0.387D-02-0.113D-01-0.139D-01 0.390D-01 0.219D+00
 Coeff:      0.771D+00
 Gap=     0.337 Goal=   None    Shift=    0.000
 RMSDP=3.00D-09 MaxDP=1.18D-07 DE=-1.97D-11 OVMax= 4.60D-07

 SCF Done:  E(RM062X) =  -346.922531226     A.U. after   13 cycles
            NFock= 13  Conv=0.30D-08     -V/T= 2.0061
 KE= 3.448279425466D+02 PE=-1.473446923015D+03 EE= 4.498522959696D+02
 Leave Link  502 at Sat Sep 28 07:05:49 2019, MaxMem=   671088640 cpu:            1818.4 elap:             909.5
 (Enter /shared/centos7/gaussian/g16/l801.exe)
 DoSCS=F DFT=T ScalE2(SS,OS)=  1.000000  1.000000
 Range of M.O.s used for correlation:     1   350
 NBasis=   350 NAE=    28 NBE=    28 NFC=     0 NFV=     0
 NROrb=    350 NOA=    28 NOB=    28 NVA=   322 NVB=   322
 Leave Link  801 at Sat Sep 28 07:05:49 2019, MaxMem=   671088640 cpu:               1.6 elap:               0.8
 (Enter /shared/centos7/gaussian/g16/l1101.exe)
 Using compressed storage, NAtomX=    17.
 Will process     18 centers per pass.
 Leave Link 1101 at Sat Sep 28 07:06:20 2019, MaxMem=   671088640 cpu:              60.1 elap:              30.1
 (Enter /shared/centos7/gaussian/g16/l1102.exe)
 Symmetrizing basis deriv contribution to polar:
 IMax=3 JMax=2 DiffMx= 0.00D+00
 Leave Link 1102 at Sat Sep 28 07:06:23 2019, MaxMem=   671088640 cpu:               5.8 elap:               2.9
 (Enter /shared/centos7/gaussian/g16/l1110.exe)
 Forming Gx(P) for the SCF density, NAtomX=    17.
 Integral derivatives from FoFJK, PRISM(SPDF).
 Do as many integral derivatives as possible in FoFJK.
 G2DrvN: MDV=     671087280.
 G2DrvN: will do    18 centers at a time, making    1 passes.
 Calling FoFCou, ICntrl=  3107 FMM=F I1Cent=   0 AccDes= 0.00D+00.
 FoFJK:  IHMeth= 1 ICntrl=    3107 DoSepK=F KAlg= 0 I1Cent=           0 FoldK=F
 IRaf=         0 NMat=       1 IRICut=       1 DoRegI=T DoRafI=F ISym2E= 0 IDoP0=0 IntGTp=1.
 FoFCou: FMM=F IPFlag=           0 FMFlag=      100000 FMFlg1=           0
         NFxFlg=           0 DoJE=F BraDBF=F KetDBF=F FulRan=T
         wScrn=  0.000000 ICntrl=      3107 IOpCl=  0 I1Cent=           0 NGrid=           0
         NMat0=    1 NMatS0=      1 NMatT0=    0 NMatD0=    1 NMtDS0=    0 NMtDT0=    0
 Symmetry not used in FoFCou.
 End of G2Drv F.D. properties file   721 does not exist.
 End of G2Drv F.D. properties file   722 does not exist.
 End of G2Drv F.D. properties file   788 does not exist.
 Leave Link 1110 at Sat Sep 28 07:34:48 2019, MaxMem=   671088640 cpu:            3411.0 elap:            1705.8
 (Enter /shared/centos7/gaussian/g16/l1002.exe)
 Minotr:  Closed shell wavefunction.
          IDoAtm=11111111111111111
          Direct CPHF calculation.
          Differentiating once with respect to nuclear coordinates.
          Requested convergence is 1.0D-08 RMS, and 1.0D-07 maximum.
          Secondary convergence is 1.0D-12 RMS, and 1.0D-12 maximum.
          NewPWx=T KeepS1=F KeepF1=F KeepIn=T MapXYZ=F SortEE=F KeepMc=T.
         5067 words used for storage of precomputed grid.
 Two-electron integrals replicated using symmetry.
          MDV=     671088640 using IRadAn=       1.
          Solving linear equations simultaneously, MaxMat=     380.
 FoF2E skips out because all densities are zero.
 CalDSu exits because no D1Ps are significant.
 FoFJK:  IHMeth= 1 ICntrl=       0 DoSepK=F KAlg= 0 I1Cent=           0 FoldK=F
 IRaf= 970000000 NMat=      51 IRICut=     127 DoRegI=T DoRafI=T ISym2E= 2 IDoP0=3 IntGTp=3.
 FoFCou: FMM=F IPFlag=           0 FMFlag=      100000 FMFlg1=           0
         NFxFlg=           0 DoJE=F BraDBF=F KetDBF=F FulRan=T
         wScrn=  0.000000 ICntrl=         0 IOpCl=  0 I1Cent=           0 NGrid=           0
         NMat0=   51 NMatS0=     51 NMatT0=    0 NMatD0=   51 NMtDS0=    0 NMtDT0=    0
 Integrals replicated using symmetry in FoFCou.
 Raff kept on since  95.29% of shell-pairs survive, threshold=   0.20 IRatSp=95.
          There are    54 degrees of freedom in the 1st order CPHF.  IDoFFX=6 NUNeed=     0.
     48 vectors produced by pass  0 Test12= 1.67D-14 1.85D-09 XBig12= 7.89D-02 5.65D-02.
 AX will form    48 AO Fock derivatives at one time.
     48 vectors produced by pass  1 Test12= 1.67D-14 1.85D-09 XBig12= 6.15D-03 2.88D-02.
     48 vectors produced by pass  2 Test12= 1.67D-14 1.85D-09 XBig12= 1.88D-04 2.14D-03.
     48 vectors produced by pass  3 Test12= 1.67D-14 1.85D-09 XBig12= 2.10D-06 1.77D-04.
     48 vectors produced by pass  4 Test12= 1.67D-14 1.85D-09 XBig12= 1.39D-08 1.34D-05.
     48 vectors produced by pass  5 Test12= 1.67D-14 1.85D-09 XBig12= 7.46D-11 8.76D-07.
     26 vectors produced by pass  6 Test12= 1.67D-14 1.85D-09 XBig12= 2.99D-13 7.65D-08.
      5 vectors produced by pass  7 Test12= 1.67D-14 1.85D-09 XBig12= 1.12D-15 3.99D-09.
 InvSVY:  IOpt=1 It=  1 EMax= 4.16D-16
 Solved reduced A of dimension   319 with    54 vectors.
 End of Minotr F.D. properties file   721 does not exist.
 End of Minotr F.D. properties file   722 does not exist.
 End of Minotr F.D. properties file   788 does not exist.
 Leave Link 1002 at Sat Sep 28 08:24:20 2019, MaxMem=   671088640 cpu:            5942.8 elap:            2971.9
 (Enter /shared/centos7/gaussian/g16/l601.exe)
 Copying SCF densities to generalized density rwf, IOpCl= 0 IROHF=0.

 **********************************************************************

            Population analysis using the SCF density.

 **********************************************************************

 Orbital symmetries:
       Occupied  (A) (A) (A) (A) (A) (A) (A) (A) (A) (A) (A) (A)
                 (A) (A) (A) (A) (A) (A) (A) (A) (A) (A) (A) (A)
                 (A) (A) (A) (A)
       Virtual   (A) (A) (A) (A) (A) (A) (A) (A) (A) (A) (A) (A)
                 (A) (A) (A) (A) (A) (A) (A) (A) (A) (A) (A) (A)
                 (A) (A) (A) (A) (A) (A) (A) (A) (A) (A) (A) (A)
                 (A) (A) (A) (A) (A) (A) (A) (A) (A) (A) (A) (A)
                 (A) (A) (A) (A) (A) (A) (A) (A) (A) (A) (A) (A)
                 (A) (A) (A) (A) (A) (A) (A) (A) (A) (A) (A) (A)
                 (A) (A) (A) (A) (A) (A) (A) (A) (A) (A) (A) (A)
                 (A) (A) (A) (A) (A) (A) (A) (A) (A) (A) (A) (A)
                 (A) (A) (A) (A) (A) (A) (A) (A) (A) (A) (A) (A)
                 (A) (A) (A) (A) (A) (A) (A) (A) (A) (A) (A) (A)
                 (A) (A) (A) (A) (A) (A) (A) (A) (A) (A) (A) (A)
                 (A) (A) (A) (A) (A) (A) (A) (A) (A) (A) (A) (A)
                 (A) (A) (A) (A) (A) (A) (A) (A) (A) (A) (A) (A)
                 (A) (A) (A) (A) (A) (A) (A) (A) (A) (A) (A) (A)
                 (A) (A) (A) (A) (A) (A) (A) (A) (A) (A) (A) (A)
                 (A) (A) (A) (A) (A) (A) (A) (A) (A) (A) (A) (A)
                 (A) (A) (A) (A) (A) (A) (A) (A) (A) (A) (A) (A)
                 (A) (A) (A) (A) (A) (A) (A) (A) (A) (A) (A) (A)
                 (A) (A) (A) (A) (A) (A) (A) (A) (A) (A) (A) (A)
                 (A) (A) (A) (A) (A) (A) (A) (A) (A) (A) (A) (A)
                 (A) (A) (A) (A) (A) (A) (A) (A) (A) (A) (A) (A)
                 (A) (A) (A) (A) (A) (A) (A) (A) (A) (A) (A) (A)
                 (A) (A) (A) (A) (A) (A) (A) (A) (A) (A) (A) (A)
                 (A) (A) (A) (A) (A) (A) (A) (A) (A) (A) (A) (A)
                 (A) (A) (A) (A) (A) (A) (A) (A) (A) (A) (A) (A)
                 (A) (A) (A) (A) (A) (A) (A) (A) (A) (A) (A) (A)
                 (A) (A) (A) (A) (A) (A) (A) (A) (A) (A)
 The electronic state is 1-A.
 Alpha  occ. eigenvalues --  -19.64725 -19.64519 -10.60491 -10.58261 -10.57756
 Alpha  occ. eigenvalues --  -10.55074 -10.53655  -1.18956  -1.15866  -0.90240
 Alpha  occ. eigenvalues --   -0.84305  -0.79404  -0.72503  -0.64748  -0.61172
 Alpha  occ. eigenvalues --   -0.57510  -0.54076  -0.53358  -0.50054  -0.49233
 Alpha  occ. eigenvalues --   -0.47890  -0.45945  -0.44232  -0.43185  -0.41376
 Alpha  occ. eigenvalues --   -0.39393  -0.36475  -0.27931
 Alpha virt. eigenvalues --    0.05785   0.08375   0.09017   0.09231   0.10838
 Alpha virt. eigenvalues --    0.11863   0.13167   0.13833   0.14083   0.15840
 Alpha virt. eigenvalues --    0.16671   0.19623   0.20129   0.23109   0.26063
 Alpha virt. eigenvalues --    0.28358   0.29594   0.31335   0.32636   0.32873
 Alpha virt. eigenvalues --    0.33933   0.35102   0.36044   0.36758   0.39503
 Alpha virt. eigenvalues --    0.41488   0.42503   0.43824   0.44934   0.46106
 Alpha virt. eigenvalues --    0.46295   0.47293   0.48604   0.49361   0.50319
 Alpha virt. eigenvalues --    0.51391   0.51739   0.52272   0.52539   0.54029
 Alpha virt. eigenvalues --    0.55486   0.56539   0.59785   0.61041   0.62965
 Alpha virt. eigenvalues --    0.65656   0.66497   0.67795   0.74099   0.74374
 Alpha virt. eigenvalues --    0.76629   0.77914   0.80677   0.83854   0.85078
 Alpha virt. eigenvalues --    0.85480   0.87866   0.89194   0.91104   0.92720
 Alpha virt. eigenvalues --    0.94483   0.96849   0.98964   1.00306   1.00684
 Alpha virt. eigenvalues --    1.02172   1.03116   1.04457   1.06131   1.06595
 Alpha virt. eigenvalues --    1.07238   1.09449   1.10362   1.13576   1.14254
 Alpha virt. eigenvalues --    1.15435   1.16695   1.19252   1.20512   1.20686
 Alpha virt. eigenvalues --    1.22609   1.24651   1.25571   1.29034   1.29357
 Alpha virt. eigenvalues --    1.30857   1.31349   1.32814   1.33652   1.35156
 Alpha virt. eigenvalues --    1.37308   1.39003   1.40675   1.41835   1.42596
 Alpha virt. eigenvalues --    1.45182   1.47026   1.48781   1.51448   1.53131
 Alpha virt. eigenvalues --    1.53872   1.56331   1.57392   1.59528   1.62541
 Alpha virt. eigenvalues --    1.65318   1.68021   1.71808   1.85894   1.89999
 Alpha virt. eigenvalues --    1.95956   1.98305   2.01104   2.02361   2.08975
 Alpha virt. eigenvalues --    2.09743   2.11548   2.14789   2.19260   2.23265
 Alpha virt. eigenvalues --    2.27471   2.30990   2.32152   2.32955   2.33707
 Alpha virt. eigenvalues --    2.36283   2.38104   2.39908   2.44808   2.48412
 Alpha virt. eigenvalues --    2.51008   2.52538   2.55719   2.59064   2.60469
 Alpha virt. eigenvalues --    2.62969   2.63241   2.64484   2.66067   2.67554
 Alpha virt. eigenvalues --    2.71463   2.72614   2.75482   2.78906   2.80766
 Alpha virt. eigenvalues --    2.81857   2.82968   2.83969   2.86149   2.87519
 Alpha virt. eigenvalues --    2.88688   2.89893   2.92343   2.93980   2.96278
 Alpha virt. eigenvalues --    2.96834   2.99619   3.00845   3.01886   3.02398
 Alpha virt. eigenvalues --    3.03949   3.04580   3.06508   3.08169   3.09028
 Alpha virt. eigenvalues --    3.09910   3.10686   3.11494   3.13060   3.13371
 Alpha virt. eigenvalues --    3.14722   3.16602   3.20023   3.23036   3.23786
 Alpha virt. eigenvalues --    3.24779   3.25221   3.26803   3.29664   3.31654
 Alpha virt. eigenvalues --    3.32419   3.33668   3.34729   3.35178   3.37313
 Alpha virt. eigenvalues --    3.37869   3.39665   3.41933   3.44186   3.46866
 Alpha virt. eigenvalues --    3.47382   3.51042   3.51292   3.52615   3.53937
 Alpha virt. eigenvalues --    3.56014   3.56627   3.57898   3.60846   3.63885
 Alpha virt. eigenvalues --    3.66479   3.67075   3.69588   3.70710   3.71373
 Alpha virt. eigenvalues --    3.72657   3.73936   3.76904   3.79269   3.81260
 Alpha virt. eigenvalues --    3.82676   3.83537   3.85642   3.86249   3.86627
 Alpha virt. eigenvalues --    3.90521   3.92361   3.94898   3.96303   3.96911
 Alpha virt. eigenvalues --    3.98494   3.99308   4.00275   4.02437   4.03589
 Alpha virt. eigenvalues --    4.04609   4.06882   4.07962   4.08763   4.10872
 Alpha virt. eigenvalues --    4.13226   4.16022   4.16860   4.17969   4.18673
 Alpha virt. eigenvalues --    4.21966   4.26073   4.27620   4.29117   4.31084
 Alpha virt. eigenvalues --    4.33417   4.33899   4.39226   4.40911   4.44314
 Alpha virt. eigenvalues --    4.45030   4.46986   4.49629   4.55164   4.59629
 Alpha virt. eigenvalues --    4.62711   4.64970   4.67561   4.69968   4.70704
 Alpha virt. eigenvalues --    4.72151   4.74309   4.75824   4.80546   4.83725
 Alpha virt. eigenvalues --    4.84177   4.87812   4.90378   4.93933   4.95636
 Alpha virt. eigenvalues --    4.97661   4.98550   5.00578   5.01446   5.03956
 Alpha virt. eigenvalues --    5.06161   5.07320   5.08731   5.12087   5.15580
 Alpha virt. eigenvalues --    5.17453   5.21596   5.24786   5.27012   5.29145
 Alpha virt. eigenvalues --    5.33334   5.35803   5.40474   5.40874   5.46539
 Alpha virt. eigenvalues --    5.48043   5.52789   5.59870   5.70399   5.72824
 Alpha virt. eigenvalues --    5.76157   5.78324   5.81184   5.84427   5.87864
 Alpha virt. eigenvalues --    5.89705   6.06848   6.16982   6.27120   6.36920
 Alpha virt. eigenvalues --    6.43387   6.48282   6.63320   6.66608   6.72566
 Alpha virt. eigenvalues --    6.72990   6.79284   6.81476   6.85818   7.02781
 Alpha virt. eigenvalues --    7.10233   7.19239   7.25862   7.40160   7.40638
 Alpha virt. eigenvalues --   10.05422  10.90320  11.89843  12.25318  13.08315
 Alpha virt. eigenvalues --   13.50603  14.27856
          Condensed to atoms (all electrons):
               1          2          3          4          5          6
     1  O    7.860269   0.002303   0.303965  -0.053825  -0.063525   0.350417
     2  O    0.002303   7.808424   0.004957  -0.009575  -0.026451  -0.070230
     3  C    0.303965   0.004957   4.937551   0.272957   0.306268  -0.070758
     4  C   -0.053825  -0.009575   0.272957   5.130517  -0.061974  -0.012224
     5  C   -0.063525  -0.026451   0.306268  -0.061974   5.105161  -0.004389
     6  C    0.350417  -0.070230  -0.070758  -0.012224  -0.004389   5.066786
     7  C   -0.075374   0.312926  -0.002510   0.011098   0.009788   0.459549
     8  H   -0.034402  -0.000102   0.414525  -0.062775  -0.045199   0.007828
     9  H    0.005766  -0.003765  -0.036659   0.361773   0.004988   0.005008
    10  H    0.002138   0.000725  -0.031071   0.390075   0.005561  -0.000692
    11  H    0.004377  -0.000260  -0.048738   0.399238  -0.002383   0.001387
    12  H    0.004390   0.022237  -0.033132  -0.002137   0.391833  -0.023845
    13  H    0.001338   0.000489  -0.040344   0.009954   0.396278  -0.002965
    14  H    0.003643   0.000108  -0.028261  -0.001455   0.391261   0.002242
    15  H   -0.043776   0.004190   0.002876  -0.001243   0.002342   0.425777
    16  H    0.003836  -0.037920  -0.000705  -0.000048   0.000205  -0.065377
    17  H    0.003324   0.345316  -0.001550   0.002976   0.000079  -0.008367
               7          8          9         10         11         12
     1  O   -0.075374  -0.034402   0.005766   0.002138   0.004377   0.004390
     2  O    0.312926  -0.000102  -0.003765   0.000725  -0.000260   0.022237
     3  C   -0.002510   0.414525  -0.036659  -0.031071  -0.048738  -0.033132
     4  C    0.011098  -0.062775   0.361773   0.390075   0.399238  -0.002137
     5  C    0.009788  -0.045199   0.004988   0.005561  -0.002383   0.391833
     6  C    0.459549   0.007828   0.005008  -0.000692   0.001387  -0.023845
     7  C    5.054644  -0.001730  -0.003913  -0.000025  -0.001470  -0.017210
     8  H   -0.001730   0.599416   0.005601  -0.013135   0.006175   0.006171
     9  H   -0.003913   0.005601   0.608717  -0.028306  -0.032087  -0.001734
    10  H   -0.000025  -0.013135  -0.028306   0.572595  -0.028932   0.000020
    11  H   -0.001470   0.006175  -0.032087  -0.028932   0.573912   0.001450
    12  H   -0.017210   0.006171  -0.001734   0.000020   0.001450   0.562139
    13  H   -0.000255  -0.006925  -0.000622  -0.000396   0.000259  -0.027338
    14  H    0.000374  -0.009685   0.000255   0.000147  -0.001576  -0.032279
    15  H   -0.081473   0.000376   0.000373   0.000046   0.000079  -0.000608
    16  H    0.411594   0.000059  -0.000129   0.000012  -0.000012   0.000744
    17  H   -0.034739   0.001090   0.010042   0.000948  -0.001552  -0.000740
              13         14         15         16         17
     1  O    0.001338   0.003643  -0.043776   0.003836   0.003324
     2  O    0.000489   0.000108   0.004190  -0.037920   0.345316
     3  C   -0.040344  -0.028261   0.002876  -0.000705  -0.001550
     4  C    0.009954  -0.001455  -0.001243  -0.000048   0.002976
     5  C    0.396278   0.391261   0.002342   0.000205   0.000079
     6  C   -0.002965   0.002242   0.425777  -0.065377  -0.008367
     7  C   -0.000255   0.000374  -0.081473   0.411594  -0.034739
     8  H   -0.006925  -0.009685   0.000376   0.000059   0.001090
     9  H   -0.000622   0.000255   0.000373  -0.000129   0.010042
    10  H   -0.000396   0.000147   0.000046   0.000012   0.000948
    11  H    0.000259  -0.001576   0.000079  -0.000012  -0.001552
    12  H   -0.027338  -0.032279  -0.000608   0.000744  -0.000740
    13  H    0.557389  -0.022351  -0.001206  -0.000055  -0.000038
    14  H   -0.022351   0.575031   0.000016  -0.000011  -0.000279
    15  H   -0.001206   0.000016   0.557026  -0.004971  -0.000689
    16  H   -0.000055  -0.000011  -0.004971   0.529751   0.006663
    17  H   -0.000038  -0.000279  -0.000689   0.006663   0.420024
 Mulliken charges:
               1
     1  O   -0.274863
     2  O   -0.353373
     3  C    0.050631
     4  C   -0.373333
     5  C   -0.409841
     6  C   -0.060147
     7  C   -0.041274
     8  H    0.132712
     9  H    0.104693
    10  H    0.130289
    11  H    0.130133
    12  H    0.150040
    13  H    0.136788
    14  H    0.122821
    15  H    0.140865
    16  H    0.156365
    17  H    0.257493
 Sum of Mulliken charges =  -0.00000
 Mulliken charges with hydrogens summed into heavy atoms:
               1
     1  O   -0.274863
     2  O   -0.095880
     3  C    0.183343
     4  C   -0.008218
     5  C   -0.000192
     6  C    0.080719
     7  C    0.115092
 APT charges:
               1
     1  O   -0.187414
     2  O   -0.269983
     3  C   -0.273039
     4  C   -1.059180
     5  C   -1.058209
     6  C   -0.510928
     7  C   -0.401681
     8  H    0.452763
     9  H    0.214457
    10  H    0.490968
    11  H    0.335913
    12  H    0.221849
    13  H    0.354577
    14  H    0.452071
    15  H    0.501146
    16  H    0.551937
    17  H    0.184752
 Sum of APT charges =  -0.00000
 APT charges with hydrogens summed into heavy atoms:
               1
     1  O   -0.187414
     2  O   -0.085231
     3  C    0.179724
     4  C   -0.017842
     5  C   -0.029712
     6  C   -0.009783
     7  C    0.150257
 Electronic spatial extent (au):  <R**2>=            746.2475
 Charge=              0.0000 electrons
 Dipole moment (field-independent basis, Debye):
    X=             -1.3802    Y=             -0.1474    Z=              0.5307  Tot=              1.4860
 Quadrupole moment (field-independent basis, Debye-Ang):
   XX=            -40.5276   YY=            -46.0605   ZZ=            -45.8065
   XY=             -3.8232   XZ=              0.4698   YZ=             -2.1269
 Traceless Quadrupole moment (field-independent basis, Debye-Ang):
   XX=              3.6039   YY=             -1.9290   ZZ=             -1.6749
   XY=             -3.8232   XZ=              0.4698   YZ=             -2.1269
 Octapole moment (field-independent basis, Debye-Ang**2):
  XXX=              5.0841  YYY=             -3.6691  ZZZ=             -1.8959  XYY=             -1.7968
  XXY=             -5.5367  XXZ=              0.4408  XZZ=             -1.4479  YZZ=              2.6743
  YYZ=             -0.7327  XYZ=              0.4257
 Hexadecapole moment (field-independent basis, Debye-Ang**3):
 XXXX=           -465.8515 YYYY=           -271.8878 ZZZZ=           -216.4878 XXXY=              3.0190
 XXXZ=             14.5744 YYYX=             -8.0599 YYYZ=              0.9752 ZZZX=              2.2178
 ZZZY=              0.3790 XXYY=           -133.0661 XXZZ=           -119.7159 YYZZ=            -81.9005
 XXYZ=              3.4104 YYXZ=             -2.9981 ZZXY=              2.2431
 N-N= 3.318441532732D+02 E-N=-1.473446916915D+03  KE= 3.448279425466D+02
  Exact polarizability:   0.000   0.000   0.000   0.000   0.000   0.000
 Approx polarizability:  85.952   5.120  85.539   3.685   4.441  69.061
 No NMR shielding tensors so no spin-rotation constants.
 Leave Link  601 at Sat Sep 28 08:24:50 2019, MaxMem=   671088640 cpu:              58.9 elap:              29.5
 (Enter /shared/centos7/gaussian/g16/l701.exe)
 SCFChk:  SCF convergence  3.00D-09 required  1.00D-08
 ... and contract with generalized density number  0.
 Compute integral second derivatives.
 Entering OneElI...
 Calculate overlap and kinetic energy integrals
    NBasis = 395  MinDer = 2  MaxDer = 2
 Requested accuracy = 0.1000D-12
 PrmmSu-InSpLW:  IPartL=    0 NPrtUS=   20 NPrtUL=    1 DoSpLW=F IThBeg=    0 IThEnd=   19 NThAct=   20.
 PrsmSu:  NPrtUS=  20 ThrOK=T IAlg=1 NPAlg=1 LenDen=           0 ISkipM=0 DoSpLW=F IThBeg=    0 IThEnd=   19.
 Prism:   IPart=     0 DynPar=F LinDyn=F Incr=           4.
 PRISM was handed    33306383 working-precision words and  8513 shell-pairs
 PRISM was handed    33306383 working-precision words and  8513 shell-pairs
 PRISM was handed    33306383 working-precision words and  8513 shell-pairs
 PRISM was handed    33306383 working-precision words and  8513 shell-pairs
 PRISM was handed    33306383 working-precision words and  8513 shell-pairs
 PRISM was handed    33306383 working-precision words and  8513 shell-pairs
 PRISM was handed    33306383 working-precision words and  8513 shell-pairs
 PRISM was handed    33306383 working-precision words and  8513 shell-pairs
 PRISM was handed    33306383 working-precision words and  8513 shell-pairs
 PRISM was handed    33306383 working-precision words and  8513 shell-pairs
 PRISM was handed    33306383 working-precision words and  8513 shell-pairs
 PRISM was handed    33306383 working-precision words and  8513 shell-pairs
 PRISM was handed    33306383 working-precision words and  8513 shell-pairs
 PRISM was handed    33306383 working-precision words and  8513 shell-pairs
 PRISM was handed    33306383 working-precision words and  8513 shell-pairs
 IPart=  2 NShTot=         458 NBatch=          71 AvBLen=         6.5
 IPart=  0 NShTot=         468 NBatch=          79 AvBLen=         5.9
 PRISM was handed    33306383 working-precision words and  8513 shell-pairs
 IPart=  6 NShTot=         439 NBatch=          59 AvBLen=         7.4
 PRISM was handed    33306383 working-precision words and  8513 shell-pairs
 PRISM was handed    33306383 working-precision words and  8513 shell-pairs
 PRISM was handed    33306383 working-precision words and  8513 shell-pairs
 PRISM was handed    33306383 working-precision words and  8513 shell-pairs
 IPart= 13 NShTot=         408 NBatch=          42 AvBLen=         9.7
 IPart= 10 NShTot=         416 NBatch=          48 AvBLen=         8.7
 IPart=  4 NShTot=         447 NBatch=          64 AvBLen=         7.0
 IPart=  5 NShTot=         445 NBatch=          62 AvBLen=         7.2
 IPart=  8 NShTot=         423 NBatch=          50 AvBLen=         8.5
 IPart= 18 NShTot=         401 NBatch=          39 AvBLen=        10.3
 IPart=  3 NShTot=         453 NBatch=          67 AvBLen=         6.8
 IPart= 14 NShTot=         405 NBatch=          39 AvBLen=        10.4
 IPart= 15 NShTot=         405 NBatch=          39 AvBLen=        10.4
 IPart= 12 NShTot=         410 NBatch=          42 AvBLen=         9.8
 IPart=  1 NShTot=         467 NBatch=          78 AvBLen=         6.0
 IPart=  9 NShTot=         419 NBatch=          50 AvBLen=         8.4
 IPart=  7 NShTot=         430 NBatch=          51 AvBLen=         8.4
 IPart= 19 NShTot=         399 NBatch=          39 AvBLen=        10.2
 IPart= 16 NShTot=         403 NBatch=          39 AvBLen=        10.3
 IPart= 17 NShTot=         403 NBatch=          39 AvBLen=        10.3
 IPart= 11 NShTot=         414 NBatch=          46 AvBLen=         9.0
 PrSmSu:  NxtVal=             81.
 Entering OneElI...
 Calculate potential energy integrals
    NBasis = 395  MinDer = 2  MaxDer = 2
 Requested accuracy = 0.1000D-12
 PrmmSu-InSpLW:  IPartL=    0 NPrtUS=   20 NPrtUL=    1 DoSpLW=F IThBeg=    0 IThEnd=   19 NThAct=   20.
 PrsmSu:  NPrtUS=  20 ThrOK=T IAlg=1 NPAlg=1 LenDen=           0 ISkipM=0 DoSpLW=F IThBeg=    0 IThEnd=   19.
 Prism:   IPart=     0 DynPar=F LinDyn=F Incr=          68.
 PRISM was handed    33346592 working-precision words and  8070 shell-pairs
 PRISM was handed    33346592 working-precision words and  8070 shell-pairs
 PRISM was handed    33346592 working-precision words and  8070 shell-pairs
 PRISM was handed    33346592 working-precision words and  8070 shell-pairs
 PRISM was handed    33346592 working-precision words and  8070 shell-pairs
 PRISM was handed    33346592 working-precision words and  8070 shell-pairs
 PRISM was handed    33346592 working-precision words and  8070 shell-pairs
 PRISM was handed    33346592 working-precision words and  8070 shell-pairs
 PRISM was handed    33346592 working-precision words and  8070 shell-pairs
 PRISM was handed    33346592 working-precision words and  8070 shell-pairs
 PRISM was handed    33346592 working-precision words and  8070 shell-pairs
 PRISM was handed    33346592 working-precision words and  8070 shell-pairs
 PRISM was handed    33346592 working-precision words and  8070 shell-pairs
 PRISM was handed    33346592 working-precision words and  8070 shell-pairs
 PRISM was handed    33346592 working-precision words and  8070 shell-pairs
 PRISM was handed    33346592 working-precision words and  8070 shell-pairs
 PRISM was handed    33346592 working-precision words and  8070 shell-pairs
 PRISM was handed    33346592 working-precision words and  8070 shell-pairs
 PRISM was handed    33346592 working-precision words and  8070 shell-pairs
 PRISM was handed    33346592 working-precision words and  8070 shell-pairs
 IPart= 14 NShTot=        6579 NBatch=         387 AvBLen=        17.0
 IPart= 18 NShTot=        6511 NBatch=         383 AvBLen=        17.0
 IPart=  8 NShTot=        6800 NBatch=         400 AvBLen=        17.0
 IPart=  4 NShTot=        7123 NBatch=         419 AvBLen=        17.0
 IPart= 10 NShTot=        6749 NBatch=         397 AvBLen=        17.0
 IPart= 13 NShTot=        6613 NBatch=         389 AvBLen=        17.0
 IPart=  2 NShTot=        7378 NBatch=         434 AvBLen=        17.0
 IPart=  5 NShTot=        6987 NBatch=         411 AvBLen=        17.0
 IPart=  6 NShTot=        6987 NBatch=         411 AvBLen=        17.0
 IPart=  3 NShTot=        7276 NBatch=         428 AvBLen=        17.0
 IPart= 11 NShTot=        6732 NBatch=         396 AvBLen=        17.0
 IPart= 15 NShTot=        6545 NBatch=         385 AvBLen=        17.0
 IPart=  7 NShTot=        6851 NBatch=         403 AvBLen=        17.0
 IPart= 16 NShTot=        6528 NBatch=         384 AvBLen=        17.0
 IPart=  9 NShTot=        6766 NBatch=         398 AvBLen=        17.0
 IPart= 12 NShTot=        6681 NBatch=         393 AvBLen=        17.0
 IPart= 19 NShTot=        6460 NBatch=         380 AvBLen=        17.0
 IPart=  0 NShTot=        7582 NBatch=         446 AvBLen=        17.0
 IPart= 17 NShTot=        6528 NBatch=         384 AvBLen=        17.0
 IPart=  1 NShTot=        7514 NBatch=         442 AvBLen=        17.0
 PrSmSu:  NxtVal=           1361.
 Polarizability after L701:
                1             2             3 
      1  0.000000D+00
      2  0.000000D+00  0.000000D+00
      3  0.000000D+00  0.000000D+00  0.000000D+00
 Dipole Derivatives after L701:
                 1             2             3             4             5 
      1  -0.294146D+00 -0.331614D-01  0.330850D-01 -0.200842D+00  0.277247D+00
      2   0.114687D+00 -0.118814D+00  0.113551D+00  0.653190D+00 -0.164025D+00
      3   0.135827D+00  0.905575D-01 -0.149282D+00 -0.176242D+00  0.169359D-01
                 6             7             8             9            10 
      1   0.140937D-01 -0.708866D+00 -0.718097D+00  0.170992D-01 -0.109498D+01
      2   0.223174D+00 -0.335990D+00 -0.200248D+00 -0.174629D+00  0.112782D+00
      3  -0.445081D+00  0.119427D+00 -0.127464D+00  0.899982D-01 -0.577960D-01
                11            12            13            14            15 
      1   0.824459D+00 -0.331482D+00 -0.810319D+00  0.133251D+00  0.604991D+00
      2  -0.112293D+01  0.415191D-02  0.983681D-01 -0.949025D+00  0.192689D+00
      3   0.170159D+00 -0.959625D+00 -0.103605D+00 -0.486082D-01 -0.141528D+01
                16            17            18            19            20 
      1  -0.713517D+00  0.198003D+00 -0.339301D+00 -0.863956D+00  0.250392D+00
      2   0.332728D+00 -0.799811D+00 -0.379323D-01 -0.104397D+00 -0.348175D+00
      3  -0.186158D+00 -0.984688D-01 -0.194561D-01 -0.177049D+00 -0.632671D-01
                21            22            23            24            25 
      1  -0.719554D-01  0.782632D+00  0.405558D+00  0.291136D-01 -0.417326D-01
      2  -0.100464D+00  0.306247D+00  0.403726D+00  0.171305D-01  0.297462D+00
      3   0.708897D-02  0.361191D-01  0.239460D-01  0.171930D+00 -0.384236D+00
                26            27            28            29            30 
      1  -0.120431D+00  0.107138D+00  0.987083D+00  0.113177D+00  0.491518D+00
      2   0.244982D+00 -0.261593D+00 -0.227283D+00  0.125794D+00 -0.137137D+00
      3  -0.216296D+00  0.440123D+00  0.451717D+00  0.483562D-01  0.360027D+00
                31            32            33            34            35 
      1   0.189658D+00 -0.512900D+00 -0.411550D+00  0.170658D+00 -0.220064D-01
      2  -0.103733D+00  0.618494D+00  0.437724D+00  0.136369D+00  0.270811D+00
      3  -0.144277D-01  0.518707D-01  0.199586D+00  0.454801D+00  0.355070D+00
                36            37            38            39            40 
      1  -0.123528D-01  0.608940D-01  0.151818D+00 -0.792698D-01  0.703215D+00
      2   0.464683D-01 -0.172873D+00  0.578674D+00 -0.217604D+00 -0.366109D-01
      3   0.224079D+00  0.258438D+00 -0.603853D+00  0.424164D+00 -0.586927D+00
                41            42            43            44            45 
      1  -0.239948D+00 -0.386720D+00  0.516886D+00 -0.576786D+00 -0.272706D-01
      2   0.123549D+00  0.282502D-01 -0.388685D+00  0.897067D+00  0.628466D-01
      3   0.265518D+00  0.529449D+00 -0.545603D-01  0.130972D+00  0.894832D-01
                46            47            48            49            50 
      1   0.131417D+01 -0.909985D-01  0.435307D+00  0.315889D-02 -0.395786D-01
      2   0.210499D-01  0.194074D+00  0.208955D-01 -0.703311D+00  0.245862D+00
      3   0.160512D+00  0.123687D-02  0.147564D+00  0.124159D+00  0.333448D-02
                51 
      1  -0.724429D-01
      2  -0.217522D+00
      3   0.305236D+00
 Hessian after L701:
                1             2             3             4             5 
      1  0.552045D+01
      2  0.176610D+01  0.150474D+02
      3  0.123339D+00 -0.292971D+01  0.152350D+02
      4 -0.411997D-01  0.552036D+00  0.198688D+00  0.888369D+01
      5  0.474684D+00  0.436300D+00  0.276099D+00  0.155139D+01  0.775938D+01
      6  0.186440D+00  0.313073D+00 -0.302571D+00 -0.229104D+01 -0.383029D+00
      7 -0.393599D+01 -0.316206D+01 -0.303171D+01  0.248031D+00  0.413927D+00
      8 -0.301878D+01 -0.714198D+01  0.221523D+01  0.429881D+00  0.209163D-01
      9 -0.291196D+01  0.218337D+01 -0.710866D+01  0.372212D-01  0.255542D-01
     10 -0.184294D+00 -0.231837D+00  0.167204D+00  0.298231D+00  0.332634D-01
     11 -0.174074D+00  0.508756D+00 -0.258712D+00  0.161071D+00 -0.228113D+00
     12  0.902908D-01 -0.158343D+00 -0.125138D+00  0.172235D+00  0.157433D-01
     13 -0.147453D+00  0.239308D-01 -0.466229D-01  0.888515D-01  0.160640D+00
     14  0.201078D-01  0.101303D-01  0.174411D+00  0.207252D+00 -0.515669D-01
     15  0.247472D-01  0.817686D-01  0.538609D+00 -0.887371D-01 -0.318997D-01
     16 -0.620992D+00  0.505159D+00  0.286350D+01  0.508780D-01  0.397805D+00
     17  0.272201D+00 -0.100431D+02  0.309219D+00  0.260400D+00  0.158553D+00
     18  0.261003D+01  0.311361D+00 -0.872543D+01 -0.104367D+00  0.768844D-01
     19 -0.131427D+00  0.368481D+00 -0.258177D+00 -0.769939D+01 -0.334984D+01
     20  0.459166D+00  0.522288D+00  0.332759D-01 -0.298386D+01 -0.100403D+01
     21 -0.130577D+00  0.256211D-01  0.222593D+00  0.967556D-01  0.501820D-01
     22 -0.759617D-01  0.287156D+00  0.721707D-01  0.378373D-01  0.315813D-01
     23  0.288461D+00  0.123214D+00 -0.907930D-01  0.339234D-01  0.997733D-02
     24  0.102426D+00 -0.763435D-01  0.699134D-01 -0.258192D-03  0.822241D-03
     25 -0.784962D-01 -0.319392D-02 -0.220337D-01  0.107568D-01  0.639697D-02
     26 -0.595006D-01  0.102408D+00  0.231883D-01 -0.126690D-01 -0.396284D-01
     27  0.460398D-02 -0.288787D-01 -0.972975D-01  0.360093D-01 -0.446673D-02
     28  0.858153D-01 -0.998492D-01  0.327869D-01  0.701759D-01  0.163475D-01
     29 -0.690693D-01  0.655566D-02 -0.176156D-01  0.733145D-02 -0.161546D-01
     30  0.428912D-01 -0.334728D-01 -0.386797D-01  0.399124D-01  0.647643D-02
     31 -0.442826D-02 -0.806946D-01 -0.363099D-01  0.864296D-01 -0.112867D-01
     32 -0.869035D-01  0.100305D+00  0.662753D-01 -0.565448D-01 -0.317064D-01
     33 -0.366011D-01  0.668511D-01 -0.194690D-01 -0.348605D-01  0.423542D-02
     34 -0.580225D-01  0.257422D-01  0.367461D-01 -0.583299D-01  0.928505D-01
     35  0.834971D-03  0.330848D-01  0.121478D+00  0.794721D-01 -0.116713D+00
     36 -0.113405D-02  0.108689D+00  0.714650D-01 -0.129935D+00 -0.856130D-01
     37 -0.594556D-01 -0.664612D-02  0.374044D-04 -0.127239D-01  0.212878D-01
     38 -0.134758D-03 -0.576136D-01 -0.304502D-01  0.469340D-01  0.447574D-01
     39 -0.225173D-01  0.329804D-01  0.131359D+00 -0.322075D-01 -0.439705D-01
     40  0.157665D-01 -0.446827D-01 -0.947620D-01  0.438341D-01  0.220278D-01
     41 -0.354012D-01 -0.155414D-01  0.585515D-01  0.652684D-02 -0.163522D-01
     42 -0.799840D-01  0.620043D-01  0.829000D-01 -0.455795D-01 -0.154141D-01
     43 -0.334994D+00  0.694706D-01 -0.595049D-01 -0.458759D-01 -0.544489D-01
     44  0.781321D-01  0.257496D+00 -0.226587D-03 -0.145800D-01  0.183873D+00
     45 -0.677177D-01  0.132754D-01  0.155098D+00 -0.632545D-02  0.228307D-01
     46  0.151716D+00  0.667447D-01  0.686652D-01  0.344266D-01  0.230929D+00
     47  0.413920D-01 -0.333290D-01  0.134023D-01  0.239115D+00 -0.162964D+00
     48  0.701616D-01  0.237406D-01 -0.111613D-01  0.295314D-02  0.353174D-01
     49 -0.101029D+00 -0.358630D-01 -0.140218D-01 -0.199562D+01 -0.375575D-01
     50  0.427787D-01  0.143666D+00  0.363793D-01 -0.507683D+00 -0.694653D+01
     51 -0.443992D-02  0.401557D-02 -0.785518D-01  0.214954D+01  0.502482D-01
                6             7             8             9            10 
      6  0.160762D+02
      7  0.700948D-01  0.173788D+02
      8  0.518176D-01  0.230483D+01  0.202137D+02
      9 -0.282860D+00  0.192861D+01 -0.131328D+01  0.193020D+02
     10  0.262580D+00 -0.543042D+01 -0.120728D+01  0.669118D+00  0.139101D+02
     11  0.582432D-01 -0.112748D+01 -0.273380D+01 -0.155305D+01  0.115104D+01
     12 -0.158210D+00  0.658923D+00 -0.157636D+01 -0.517903D+01 -0.806785D+00
     13 -0.183317D+00 -0.656349D+01  0.888189D-01  0.490564D+00  0.656301D-02
     14 -0.123700D+00  0.114907D+00 -0.655627D+01  0.466644D+00 -0.682615D-01
     15 -0.770525D-01  0.585856D+00  0.502633D+00 -0.205343D+01  0.433820D-01
     16 -0.854035D-01  0.363031D+00 -0.946822D-01 -0.117882D+00 -0.197874D-01
     17  0.351382D-01  0.239541D-01  0.330573D-01 -0.178859D-01 -0.146248D+00
     18  0.338542D+00 -0.331680D-01 -0.247737D-01  0.887804D-01 -0.183957D-01
     19  0.992539D-01  0.218289D+00 -0.161379D-01 -0.455317D-01  0.425305D+00
     20  0.149820D+00  0.476007D-01 -0.178103D+00 -0.234072D-01 -0.118544D+00
     21 -0.892910D+01 -0.306640D-01 -0.385762D-01 -0.153805D+00  0.497115D-01
     22  0.513190D-02 -0.280874D+01  0.130545D+01  0.725386D-01  0.224145D+00
     23  0.309521D-02  0.123252D+01 -0.371431D+01  0.652977D-01 -0.357565D-01
     24 -0.135190D-01  0.541889D-01  0.576066D-01 -0.460683D+01  0.268230D-01
     25 -0.562039D-01  0.120217D+00  0.242035D-01 -0.410720D-01 -0.301161D+01
     26 -0.110562D-01 -0.330029D-01 -0.335118D-01  0.906077D-01  0.807177D+00
     27 -0.717843D-01  0.107562D-01  0.963144D-01  0.298229D-01 -0.130091D+01
     28  0.340858D-01  0.114841D+00  0.355733D-01  0.261135D-01 -0.222517D+01
     29  0.317693D-02  0.465882D-01 -0.150274D-01  0.620354D-01  0.585926D-01
     30 -0.269678D-02  0.278590D-01  0.488729D-01  0.373205D-01  0.103709D+01
     31  0.961003D-02  0.692906D-01  0.168312D+00 -0.311674D-02 -0.401527D+01
     32 -0.350630D-02  0.121987D+00 -0.152643D+00  0.173765D-01 -0.253729D+00
     33 -0.369075D-01 -0.135804D-01  0.460935D-01  0.169058D+00 -0.232964D+00
     34 -0.378526D-01  0.306987D-01 -0.111788D-01 -0.710420D-01 -0.250197D-01
     35 -0.285296D-01 -0.225296D-01  0.966258D-01 -0.366919D-01  0.349402D-02
     36 -0.168697D+00 -0.157461D+00 -0.795550D-01 -0.708065D-01 -0.126756D-02
     37 -0.126487D-01  0.488172D-01  0.199080D-01 -0.434831D-01 -0.295058D-01
     38 -0.363718D-01  0.448537D-01  0.960207D-01  0.498795D-01 -0.540602D-01
     39 -0.506080D-03 -0.111039D+00  0.908948D-01 -0.365911D-01  0.654694D-01
     40 -0.297273D-01  0.471922D-01  0.162062D-01  0.320875D-01 -0.215926D-01
     41 -0.419397D-02  0.365700D-02  0.157017D-01 -0.187780D-01  0.110498D-02
     42  0.612831D-03  0.679066D-01 -0.614308D-01 -0.383813D-01 -0.178272D-01
     43 -0.106948D-01  0.808302D-01 -0.777668D-01 -0.199543D-01 -0.404211D-02
     44  0.214390D-01 -0.903966D-01  0.292970D-01  0.126245D-01 -0.780370D-02
     45 -0.365361D-01 -0.108620D-01  0.868004D-02 -0.390478D-01  0.215520D-03
     46 -0.166700D-01  0.227605D-01 -0.520294D-02  0.799860D-03  0.274298D-01
     47  0.574771D-01 -0.102944D-02 -0.950208D-02 -0.117355D-02 -0.567877D-02
     48  0.109262D+00  0.486495D-02 -0.238425D-02 -0.994565D-02  0.115582D-01
     49  0.205636D+01 -0.412634D-02  0.378454D-01 -0.301569D-02  0.749235D-01
     50 -0.102895D+00  0.816762D-01  0.298731D-01 -0.911788D-02  0.745298D-01
     51 -0.644419D+01 -0.205777D-01 -0.217816D-01 -0.476139D-01  0.449932D-01
               11            12            13            14            15 
     11  0.134477D+02
     12  0.965720D+00  0.151185D+02
     13 -0.582174D-01  0.105758D+00  0.154428D+02
     14  0.189058D-01 -0.129099D+00 -0.105100D+00  0.161043D+02
     15  0.723133D-02  0.216942D-01  0.402610D+00 -0.119440D+00  0.130630D+02
     16 -0.120723D+00 -0.464932D-01  0.198262D-01 -0.889368D-01 -0.208913D+00
     17  0.156670D-01  0.167048D-01 -0.109991D+00 -0.199463D+00  0.716257D-01
     18  0.125898D-01 -0.111315D+00 -0.280871D+00  0.865171D-01 -0.444549D-01
     19 -0.103350D+00  0.442252D-01  0.353841D+00  0.222926D-01 -0.230441D+00
     20 -0.173614D+00 -0.116694D-01  0.450506D-01 -0.284900D+00 -0.426277D-02
     21 -0.350072D-03 -0.182334D+00 -0.247627D+00 -0.136543D-01 -0.156113D+00
     22 -0.901395D-01  0.450209D-01  0.124219D+00 -0.394300D-01 -0.123220D+00
     23 -0.215002D+00  0.163380D+00 -0.272289D-01  0.836382D-01 -0.123574D+00
     24  0.148052D+00  0.146432D+00 -0.105947D+00 -0.117059D+00 -0.797815D-01
     25  0.599213D+00 -0.103857D+01 -0.380341D-01  0.116144D-01 -0.141270D-01
     26 -0.394334D+01 -0.623378D+00  0.801453D-02 -0.108536D-01 -0.666702D-01
     27 -0.575793D+00 -0.317028D+01 -0.148403D-01 -0.619667D-01  0.803516D-01
     28  0.133805D+00  0.103674D+01  0.132932D-01 -0.339784D-01  0.848604D-01
     29 -0.402987D+01  0.270097D-01 -0.219883D-01 -0.281043D-01 -0.403575D-01
     30  0.711449D-01 -0.332941D+01  0.728198D-01 -0.438995D-01  0.696295D-01
     31 -0.375956D+00 -0.368180D+00 -0.177764D-01 -0.382821D-01  0.203132D-01
     32 -0.253454D+01  0.142680D+01 -0.475534D-01  0.500722D-01 -0.397321D-01
     33  0.126558D+01 -0.307095D+01  0.116820D-01 -0.393954D-02 -0.287596D-01
     34  0.371394D-02  0.288170D-01 -0.289141D+01  0.138371D+01  0.285599D+00
     35 -0.142963D-01 -0.343778D-02  0.148940D+01 -0.302824D+01  0.275234D+00
     36 -0.126101D-01  0.324481D-01  0.573625D+00  0.521479D+00 -0.437442D+01
     37 -0.456011D-01  0.550811D-01 -0.396699D+01 -0.665665D+00  0.323951D+00
     38  0.487958D-01 -0.125005D+00 -0.780702D+00 -0.239552D+01 -0.922152D+00
     39 -0.125043D+00  0.831947D-01  0.462002D+00 -0.109419D+01 -0.373665D+01
     40  0.243992D-02 -0.389549D-01 -0.246082D+01 -0.651784D+00 -0.107089D+01
     41 -0.298254D-01 -0.101034D-01 -0.610960D+00 -0.369486D+01  0.404955D+00
     42 -0.107583D-01  0.681056D-01 -0.115436D+01  0.476351D+00 -0.322217D+01
     43  0.289977D-02 -0.185939D-02  0.468790D-01 -0.457032D-01 -0.379381D-01
     44 -0.391422D-02  0.401655D-02 -0.637367D-01  0.120388D-01  0.288455D-01
     45  0.410318D-03 -0.717280D-02 -0.424642D-01  0.270614D-01 -0.657135D-02
     46  0.347860D-02  0.412368D-02  0.518739D-01  0.662482D-02 -0.573164D-02
     47 -0.781941D-02 -0.181363D-03 -0.876163D-03 -0.148958D-01 -0.120278D-03
     48  0.111294D-02 -0.821907D-02 -0.698898D-02  0.534881D-04 -0.113770D-01
     49  0.378865D-01  0.596310D-01 -0.621766D-01 -0.293706D-01  0.868405D-02
     50 -0.125686D+00  0.182016D-01  0.105004D-01 -0.144383D-01 -0.240852D-01
     51  0.623198D-02 -0.128334D+00 -0.360232D-01 -0.455690D-01  0.175144D-01
               16            17            18            19            20 
     16  0.118087D+02
     17 -0.267006D+01  0.160307D+02
     18 -0.479483D+01 -0.316226D+01  0.258891D+02
     19 -0.791805D+01  0.403433D+01  0.276777D+01  0.163973D+02
     20  0.352958D+01 -0.376196D+01  0.282069D+01 -0.807756D+00  0.971321D+01
     21  0.254262D+01  0.287660D+01 -0.132054D+02 -0.315676D+01 -0.279572D+01
     22  0.228403D+00  0.318719D-01 -0.387823D-02 -0.126729D-01  0.921828D-02
     23  0.594529D-01 -0.486674D-01 -0.468593D-02  0.616347D-02 -0.523424D-03
     24 -0.105651D-01 -0.389457D-03 -0.589901D-01  0.753050D-02  0.148283D-02
     25 -0.169485D-01 -0.449615D-01  0.463583D-01 -0.376062D-01  0.945483D-02
     26 -0.716361D-01  0.463479D-01 -0.785169D-01 -0.476834D-03 -0.158946D-01
     27  0.644118D-01 -0.832913D-01  0.123500D-01  0.349082D-01 -0.109746D-01
     28  0.137360D-01 -0.837458D-02  0.342969D-02  0.256479D-01 -0.290388D-02
     29 -0.473176D-02 -0.619628D-02 -0.584110D-04 -0.425181D-02 -0.877225D-02
     30  0.507081D-02 -0.135475D-02 -0.742198D-02  0.117767D-01  0.434512D-03
     31  0.277555D-01 -0.370718D-01 -0.438853D-02 -0.196181D-02  0.129720D-02
     32 -0.465563D-01  0.184748D-01  0.449637D-02 -0.105708D-01 -0.724265D-02
     33 -0.109896D-01  0.112702D-01 -0.138550D-01 -0.761863D-02  0.230769D-02
     34  0.187901D-01  0.712854D-01  0.344550D-01 -0.701506D-01  0.288810D-01
     35  0.517168D-01 -0.278272D-01 -0.286925D-01  0.629105D-02 -0.441851D-03
     36  0.299761D-01 -0.732776D-01  0.611999D-01 -0.143505D-01 -0.135394D-01
     37 -0.383117D-01 -0.308345D-02 -0.752998D-02  0.466918D-03  0.737295D-02
     38  0.128942D-01 -0.201310D-01 -0.311945D-01  0.282736D-01 -0.216006D-02
     39 -0.227641D-01 -0.419648D-02  0.369858D-01 -0.368893D-01 -0.209153D-01
     40  0.375440D-01 -0.232963D-01 -0.417439D-01  0.301605D-01  0.280252D-02
     41 -0.252140D-01 -0.126022D-01  0.163650D-01 -0.470072D-02 -0.153402D-01
     42 -0.493035D-01  0.158669D-01  0.824673D-02 -0.251992D-01 -0.177661D-02
     43 -0.372103D+01 -0.135670D+01 -0.314687D-01  0.336530D+00 -0.474094D-03
     44 -0.126968D+01 -0.215625D+01  0.938098D-01 -0.784756D-01 -0.505678D+00
     45 -0.344769D-01  0.107289D+00 -0.448601D+01  0.609386D-02 -0.982936D-01
     46 -0.221649D+00 -0.323959D+00 -0.140546D+00 -0.192044D+01 -0.175791D+00
     47 -0.276932D+00  0.992350D-01 -0.793802D-01 -0.199066D+00 -0.441156D+01
     48 -0.125414D+00 -0.775258D-01  0.187704D+00  0.836532D+00 -0.444579D-01
     49 -0.119382D-01  0.296979D-01 -0.853593D-03  0.420123D-02 -0.510942D-01
     50  0.112552D+00 -0.125864D+00 -0.131479D-01  0.108792D+00  0.134715D+00
     51  0.145371D-02 -0.235316D-01  0.299245D-01 -0.331266D-01  0.170080D-01
               21            22            23            24            25 
     21  0.260962D+02
     22  0.104881D-01  0.218055D+01
     23  0.480044D-02 -0.169291D+01  0.364128D+01
     24 -0.415663D-02 -0.406428D-01 -0.450148D-01  0.466372D+01
     25  0.216093D-01  0.555601D-02  0.409636D-01 -0.200880D-01  0.325694D+01
     26 -0.199498D-01  0.527053D-01  0.482587D-01 -0.367796D-01 -0.656963D+00
     27  0.331422D-01 -0.330166D-01 -0.462446D-01 -0.482627D-03  0.863493D+00
     28  0.117570D-01  0.318782D-01  0.287065D-01 -0.182834D-01 -0.206096D+00
     29 -0.124850D-02  0.216703D-01 -0.694273D-01  0.686805D-01 -0.768219D-01
     30 -0.360784D-02 -0.159853D-01  0.706247D-01 -0.348222D-02  0.310814D-01
     31  0.504232D-02 -0.250623D-01  0.691309D-02  0.623957D-03  0.183956D-01
     32 -0.331229D-02  0.319331D-01  0.100647D+00  0.737370D-02  0.719895D-01
     33 -0.783745D-02  0.606603D-02  0.119917D-01 -0.251984D-01  0.176321D+00
     34 -0.780902D-02  0.414666D-01  0.498542D-01  0.430614D-01 -0.152418D-02
     35  0.131645D-01  0.548247D-01  0.168168D-01  0.369169D-01 -0.743216D-03
     36  0.892784D-01  0.559005D-01  0.421029D-01  0.826957D-02 -0.561249D-02
     37 -0.188080D-01 -0.343677D-02  0.249475D-02 -0.279875D-01 -0.886462D-03
     38 -0.239163D-01 -0.391928D-02  0.156761D-01  0.230642D-02  0.371536D-02
     39  0.714668D-02 -0.312650D-01  0.241352D-02 -0.223992D-01 -0.386260D-02
     40 -0.166242D-01  0.250454D-01 -0.875625D-02 -0.957807D-02  0.203228D-02
     41  0.184665D-02 -0.617683D-02  0.383017D-02 -0.472137D-01  0.218537D-03
     42 -0.161107D-02 -0.144883D-01 -0.514239D-01 -0.632604D-01 -0.739875D-02
     43  0.925743D-02  0.158569D-01  0.124586D-02 -0.436982D-03 -0.148263D-03
     44 -0.857637D-01 -0.118377D-01 -0.503120D-02  0.369047D-03 -0.237800D-02
     45  0.274986D+00 -0.185319D-02  0.340624D-04 -0.315679D-02  0.127545D-02
     46  0.895834D+00  0.104034D-01  0.478887D-02  0.675225D-03 -0.343424D-02
     47 -0.522793D-01  0.429746D-03 -0.639879D-03  0.246893D-03  0.695732D-03
     48 -0.414475D+01  0.219054D-02  0.157380D-02 -0.722459D-03 -0.538357D-03
     49 -0.342098D-01  0.513050D-03  0.916511D-02 -0.154234D-02 -0.191195D-01
     50  0.625552D-01  0.175735D-01  0.102629D-01 -0.105652D-02  0.165968D-01
     51  0.653142D-01 -0.515768D-02 -0.357821D-02 -0.635168D-02  0.693685D-01
               26            27            28            29            30 
     26  0.372136D+01
     27  0.812402D+00  0.323166D+01
     28 -0.100003D+00  0.267759D-01  0.197847D+01
     29  0.842001D-01  0.193994D-02  0.130794D+00  0.408680D+01
     30  0.470434D-02  0.130550D+00 -0.115229D+01  0.357292D-01  0.322799D+01
     31  0.735284D-01  0.225328D+00  0.690462D-01 -0.908838D-01 -0.116720D+00
[...]
   yx        -0.319857D+01     -0.473979D+00     -0.527373D+00
   yy         0.620442D+02      0.919400D+01      0.102297D+02
   zx        -0.116042D+02     -0.171956D+01     -0.191327D+01
   zy         0.458399D+00      0.679278D-01      0.755798D-01
   zz         0.769769D+02      0.114068D+02      0.126918D+02

 ----------------------------------------------------------------------

 Test job not archived.
 1\1\GINC-C0271\Freq\RM062X\CC-pVTZ\C5H10O2\HARMS.N\28-Sep-2019\0\\#P G
 eom=AllCheck Guess=TCheck SCRF=Check Test GenChk RM062X/CC-pVTZ Freq\\
 Gaussian input prepared by ASE\\0,1\O,-0.0122277434,0.8798791141,1.438
 4429697\O,0.7174356442,-0.4629135094,-0.8502226332\C,0.2825326998,2.18
 7634264,1.9424069296\C,-1.0481192574,2.8598453974,2.2003589705\C,1.143
 1798474,2.9521446796,0.9530031891\C,1.0531405053,0.0135500363,1.440752
 1457\C,1.3638640271,-0.6386277595,0.3290387627\H,0.8266065317,2.068227
 4615,2.8867954568\H,-1.6411018414,2.2772316344,2.9028190852\H,-0.89657
 31271,3.8587411829,2.6076851295\H,-1.6043306426,2.947488866,1.26651932
 93\H,0.5961506427,3.0943866538,0.0196223778\H,2.0614218025,2.406781359
 7,0.7374416727\H,1.4070549774,3.9315896848,1.3513820206\H,1.5783756464
 ,-0.1340362058,2.3756419502\H,2.1498194064,-1.3768157152,0.2909695734\
 H,0.0141922522,0.1795932499,-0.6930341278\\Version=EM64L-G16RevA.03\St
 ate=1-A\HF=-346.9495355\RMSD=6.141e-09\RMSF=8.543e-07\ZeroPoint=0.1475
 55\Thermal=0.1559412\Dipole=0.1613704,0.6462925,0.5438596\DipoleDeriv=
 -0.6918248,0.5016219,0.2628675,0.3345454,-1.2821541,-0.3933971,0.05242
 44,-0.2612984,-0.5485067,-0.4291477,-0.1228976,-0.5268155,0.0390928,-0
 .3022827,0.165799,-0.1545688,-0.2522113,-1.1304705,0.3795445,0.0751343
 ,-0.0415462,-0.0823957,0.9695361,0.1973608,-0.1317117,0.2143447,0.4798
 379,-0.0475447,0.0668132,0.0426609,0.0427208,-0.0061706,-0.0160083,0.0
 44275,-0.0134471,0.0612253,-0.0512578,-0.0732093,0.0779459,0.0164186,-
 0.0790973,0.0048323,0.1193342,0.0627663,-0.0180675,0.3397668,-0.732731
 4,-0.1565975,-0.417606,0.3388395,0.1179918,-0.0082666,-0.0122425,-0.01
 16074,0.1484244,0.016972,0.4524803,-0.1328216,-0.0287841,-0.0487527,0.
 2327279,0.2720645,0.9964119,-0.0457874,-0.0139805,-0.0806905,0.0499089
 ,-0.047123,0.0549125,-0.0533209,-0.0011268,-0.1319135,-0.0193943,-0.01
 91056,0.0641629,-0.061223,0.0243206,0.0783824,0.0736522,0.0555616,-0.0
 050994,0.0367967,-0.0355224,-0.0149556,0.0025323,-0.097798,-0.0712947,
 -0.0013561,-0.0623309,0.0471348,0.0100087,0.0251265,-0.02731,0.0024351
 ,0.0680826,-0.0066418,-0.093729,0.0234363,-0.0787675,-0.0060551,0.0168
 144,-0.0952226,-0.0179781,0.0597126,0.0000897,-0.0482524,0.0350916,-0.
 0646836,-0.0587621,0.0638986,0.0483651,0.0781629,0.0547232,-0.0052114,
 0.0385881,-0.000055,0.0296922,0.0786212,-0.0388814,-0.0086478,-0.04154
 18,-0.1032596,-0.0510417,-0.0245764,-0.0694329,0.0357156,0.0339015,0.1
 367129,-0.0177358,0.0442511,0.1054701,-0.0156863,-0.0736822,0.0094924,
 -0.0365868,0.0508279,0.0782655,-0.0396319,0.0957495,0.0571064,-0.00099
 45,-0.0202696,-0.021027,0.0609531,0.2718822,0.054969,0.0606707,0.04774
 89,0.2688784,-0.0103401,0.048732,0.0204145,0.3147319\Polar=61.5619254,
 -8.5238098,72.8186309,-3.3123256,9.529764,69.5334395\Quadrupole=0.7749
 492,0.1868546,-0.9618038,-1.7785482,1.5994963,-1.1651545\PG=C01 [X(C5H
 10O2)]\NImag=0\\0.34702254,-0.11251813,0.44246236,0.03660043,0.1018070
 3,0.15218773,0.00757712,-0.01006742,0.00464112,0.40700265,-0.00962652,
 -0.00030287,-0.00066733,-0.28776764,0.29272940,0.00801036,-0.00519430,
 0.00320807,0.07916324,0.05012947,0.39860373,-0.09586426,-0.04504440,-0
 .03040854,0.00077822,0.00000297,0.00024448,0.55670193,-0.02186887,-0.1
 6485612,-0.04193011,0.00078379,0.00014767,0.00483838,-0.03371032,0.460
 70505,-0.02169673,-0.04748018,-0.08547150,0.00370028,-0.00119649,0.002
 58579,0.04355557,-0.02568614,0.57307075,0.00678015,-0.00156013,-0.0000
 0833,-0.00033646,0.00011054,-0.00047364,-0.19091357,0.05533893,0.01874
 342,0.51473653,0.03592810,-0.03609863,-0.01092955,-0.00036420,0.000108
 86,-0.00064775,0.04208242,-0.09387566,-0.00512900,0.03986671,0.5766933
 0,0.01441305,-0.01530857,-0.00213608,-0.00019869,-0.00000803,0.0000263
 0,0.01137163,-0.00280522,-0.08456586,0.00669826,-0.00631944,0.58257198
 ,-0.00370733,-0.01302447,0.00355739,-0.00026209,0.00061812,-0.00029633
 ,-0.11832476,-0.02636431,0.04410882,-0.02291891,-0.01443822,0.02437138
 ,0.55477802,-0.02354188,-0.04222084,0.01532330,-0.00050596,-0.00002110
 ,-0.00076686,-0.02469688,-0.09839189,0.03872849,0.00720501,0.01172131,
 -0.00927216,-0.02937862,0.56273582,-0.00743412,-0.01382001,0.01099485,
 -0.00050536,0.00072805,-0.00047519,0.05026212,0.04572960,-0.14418677,0
 .00678569,0.00304994,-0.00568762,0.03387353,0.03721377,0.53731939,-0.2
 1458902,0.12509897,-0.01528480,-0.00107437,-0.00260481,-0.04101984,0.0
 0369787,0.01779858,0.00928815,-0.00060917,-0.00186593,-0.00120689,0.00
 041710,-0.00567498,-0.00315438,0.41718766,0.09643539,-0.15200743,-0.01
 530482,0.00848100,0.01276940,0.00920954,0.03133691,-0.04362877,-0.0061
 1458,-0.00120027,-0.00372594,-0.00069015,-0.00034182,0.00036928,0.0016
 2655,-0.23595699,0.42389777,-0.02122449,-0.01055772,-0.07587169,-0.013
 32861,-0.01305977,-0.06234923,0.01511034,-0.01236133,-0.00525838,-0.00
 120073,-0.00443810,-0.00172067,-0.00103436,0.00140127,0.00095976,0.063
 38178,0.20996462,0.83204903,-0.02779134,0.04623776,0.02987185,-0.13477
 820,0.05043146,-0.08418089,-0.00498452,-0.00693694,-0.00506477,0.00105
 848,0.00183955,0.00089299,0.00052885,0.00097749,0.00102618,-0.10229087
 ,0.06738075,0.07161046,0.48737630,0.02757261,-0.02406741,-0.02745062,0
 .03739622,-0.07979614,-0.00516562,0.00344949,0.00265734,0.00146006,-0.
 00058503,-0.00126923,-0.00045520,-0.00042073,-0.00012124,-0.00056591,0
 .07907381,-0.19456569,-0.19174407,-0.31853972,0.48602848,-0.00241532,0
 .00036358,0.00062600,-0.12235546,0.02490964,-0.28052679,-0.00213638,0.
 00101991,-0.00260338,0.00064146,0.00121352,0.00063450,0.00116167,0.000
 84307,0.00074767,0.09492019,-0.21069179,-0.41737023,0.02008018,0.20547
 080,0.76846432,-0.00368140,-0.00589128,-0.00976435,0.00000735,-0.00006
 942,0.00003513,-0.11031833,0.01704946,-0.10316615,-0.01597718,0.005026
 69,-0.02470414,0.00937959,-0.00335126,0.01809295,0.00015042,0.00148377
 ,0.00232574,0.00033653,-0.00021980,-0.00008043,0.12247215,-0.01817371,
 -0.01584736,-0.03642135,0.00059165,-0.00023065,-0.00022243,0.02092741,
 -0.05307159,0.03411763,0.00781445,-0.00095932,0.01344590,0.00833919,-0
 .00096269,0.01537299,-0.00553752,0.00416372,-0.00251193,0.00034037,-0.
 00039517,-0.00014185,-0.01437085,0.06775586,-0.00809276,-0.01263906,-0
 .01266559,0.00026663,-0.00037047,0.00052657,-0.10249575,0.03014674,-0.
 23216692,0.00385753,-0.00010742,0.00667792,-0.01007747,0.00535618,-0.0
 1971745,-0.00226289,0.00252370,0.00088658,0.00057364,-0.00035910,-0.00
 049373,0.11401320,-0.02555523,0.25545593,0.00246374,-0.00102130,-0.001
 52125,-0.00001864,0.00005457,-0.00010077,-0.01710090,-0.01859680,0.020
 57954,-0.12546569,-0.07793748,0.09391306,-0.00483115,0.00449052,0.0000
 5552,-0.00003243,0.00026337,-0.00019348,0.00017230,-0.00012373,0.00000
 205,0.00095185,-0.00047752,-0.00058846,0.13757007,-0.00063845,0.001589
 70,0.00044851,0.00006394,-0.00004411,0.00017275,0.00892868,0.00747874,
 -0.01165644,-0.08097872,-0.12760824,0.09742396,0.00217697,-0.00136576,
 -0.00061762,0.00023604,0.00000228,0.00012566,-0.00014379,0.00013112,-0
 .00018946,-0.00086860,0.00051083,0.00009791,0.08565079,0.13435302,-0.0
 0080724,0.00009633,0.00022970,-0.00000806,-0.00007484,0.00008076,0.001
 80922,0.00259790,-0.00416470,0.09495663,0.09596206,-0.16290403,0.00116
 039,-0.00106909,0.00063289,0.00003928,-0.00035419,0.00008202,-0.000127
 05,0.00007704,-0.00004037,-0.00000999,-0.00065356,0.00055923,-0.104731
 46,-0.10544229,0.17245869,-0.00602640,0.00531168,0.00124052,0.00022484
 ,-0.00004113,0.00027903,0.00839125,0.02412957,0.01096596,-0.05408300,-
 0.03747065,-0.01492462,0.00083302,-0.00031792,-0.00014875,0.00090653,0
 .00093476,0.00125191,-0.00062351,0.00042443,-0.00047822,0.00088935,-0.
 00053095,-0.00084222,-0.00267721,-0.01494933,-0.00819523,0.05560337,0.
 00442229,-0.00210132,-0.00025392,-0.00013278,0.00005389,-0.00029805,-0
 .00628847,-0.01243986,-0.00435708,-0.03454906,-0.27475802,-0.09372729,
 -0.00089584,0.00013102,0.00013094,-0.00091210,0.00045357,-0.00088832,0
 .00051931,-0.00035160,0.00034641,0.00015666,0.00019952,0.00051495,-0.0
 0137210,-0.01412265,-0.00664952,0.03813104,0.29833362,0.00139230,-0.00
 077118,0.00084592,-0.00002737,0.00000180,-0.00008316,-0.00243155,-0.00
 317760,-0.00400856,-0.01383468,-0.09335965,-0.08458114,-0.00034601,0.0
 0002145,0.00004031,-0.00024833,-0.00005184,0.00036650,0.00007551,-0.00
 003371,0.00006545,0.00028783,0.00008172,0.00013639,0.00166373,0.019840
 91,0.00911857,0.01537032,0.10313474,0.08751977,0.00208523,-0.00158681,
 0.00072444,0.00011360,-0.00010369,0.00028042,-0.01882259,0.00222464,-0
 .02879395,-0.11405889,0.00996588,-0.11445135,0.00149344,-0.00001225,-0
 .00165331,0.00008185,0.00005353,0.00014172,-0.00000155,0.00000434,-0.0
 0018406,-0.00443230,0.00295456,0.00195858,0.00968529,-0.00038421,0.015
 62629,-0.00275997,0.00031796,-0.00246334,0.12627334,-0.00092252,0.0016
 5151,0.00037804,-0.00011154,0.00002900,-0.00007216,0.00931923,-0.00281
 688,0.01400312,0.00911822,-0.04786207,0.01762287,-0.00109333,-0.000147
 21,0.00002076,0.00016486,-0.00036621,0.00004143,-0.00009633,0.00006337
 ,0.00007712,0.00260930,-0.00080220,-0.00083638,0.00995372,-0.00157962,
 0.01478418,-0.01543596,0.00393602,-0.02585521,-0.01317900,0.04759131,-
 0.00005456,0.00121099,0.00073459,0.00011187,0.00000037,0.00011229,0.00
 262882,-0.00046277,0.00370303,-0.11640203,0.01813513,-0.24711968,0.000
 43832,-0.00021186,0.00138052,0.00038066,-0.00008628,0.00032539,-0.0001
 6311,0.00007220,-0.00015321,0.00126991,-0.00067534,0.00102980,-0.01046
 560,0.00026768,-0.01671086,-0.00459299,0.00163562,-0.00944105,0.127232
 68,-0.01960981,0.26588803,0.00054615,0.00211018,-0.00056197,0.00031284
 ,-0.00048398,0.00065735,0.00911052,-0.00269352,0.01792602,0.00185579,-
 0.00012728,0.00072616,-0.11713689,0.01753809,-0.11734983,0.00020653,0.
 00015978,0.00017702,-0.00030866,0.00025844,-0.00094296,-0.00163446,-0.
 00226076,0.00285330,0.00012611,0.00002123,-0.00019123,-0.00002620,0.00
 015004,-0.00000689,-0.00017538,-0.00017901,-0.00034885,0.12431113,0.00
 076128,0.00206772,-0.00096266,-0.00027714,0.00044342,-0.00069711,0.008
 39707,-0.00380454,0.01654415,0.00075758,0.00006084,-0.00087710,0.01792
 784,-0.05082178,0.02766626,0.00030358,-0.00051676,-0.00029523,0.000232
 17,-0.00011351,0.00085422,-0.00213701,-0.00107439,0.00219374,0.0000933
 4,-0.00013369,-0.00013304,-0.00010093,-0.00001280,-0.00013050,-0.00027
 083,0.00039963,-0.00028904,-0.01776297,0.05090477,-0.00006893,-0.00049
 253,0.00316733,0.00004684,-0.00025962,0.00013765,-0.01238165,0.0021308
 3,-0.02345647,-0.00137453,-0.00023415,0.00091007,-0.11535379,0.0282473
 0,-0.23886059,0.00027075,0.00010012,-0.00020595,-0.00010161,0.00016181
 ,-0.00032229,0.00331284,0.00252002,-0.00162104,0.00010833,-0.00004963,
 0.00056221,0.00005106,0.00005803,-0.00006596,0.00106871,-0.00024306,0.
 00020113,0.12553266,-0.03346006,0.26195805,0.00099753,0.00058720,-0.00
 078602,0.00006712,-0.00003461,0.00014400,-0.01669917,0.00982757,0.0027
 1561,-0.00087806,-0.00313903,0.00310895,-0.23890411,0.11480380,0.04290
 962,0.00020119,0.00071381,0.00039771,0.00035803,-0.00010184,-0.0007298
 1,0.00072876,-0.00039263,-0.00009208,-0.00094570,0.00068234,0.00036521
 ,0.00018134,0.00017913,-0.00004927,0.00047097,-0.00008205,-0.00000370,
 -0.01272436,0.00740148,0.00362443,0.25910181,0.00165092,0.00112327,-0.
 00084430,0.00049829,0.00028970,0.00059007,-0.01614875,0.00957381,0.002
 64085,-0.00173653,-0.00212851,0.00202152,0.11695382,-0.11610337,-0.026
 53736,-0.00093374,-0.00092482,0.00058597,-0.00017910,-0.00094047,-0.00
 062293,0.00069238,0.00048484,-0.00067902,-0.00096809,0.00054754,0.0003
 9968,0.00000056,0.00019506,0.00020354,0.00002809,-0.00012397,-0.000001
 01,0.00150391,-0.00227255,-0.00054245,-0.12581550,0.12375359,-0.001511
 61,-0.00095458,0.00056559,-0.00026148,0.00036776,-0.00079388,0.0195457
 1,-0.01381917,-0.00476621,0.00163158,0.00330285,-0.00258693,0.04257774
 ,-0.02512723,-0.05805063,0.00000155,0.00000990,0.00011902,0.00000826,-
 0.00000509,0.00091928,-0.00059201,-0.00061001,0.00057616,0.00149773,-0
 .00042869,0.00018217,-0.00032994,0.00024370,0.00004491,0.00037294,0.00
 002569,0.00016024,-0.02324697,0.01477490,0.00662026,-0.04969043,0.0271
 7210,0.06037714,-0.00176768,-0.00473896,0.00285964,-0.00021109,-0.0000
 8403,-0.00025512,-0.00431912,-0.01392953,-0.01017544,0.00037843,0.0002
 5685,-0.00059881,-0.06137725,-0.05809210,-0.02309294,-0.00084614,0.001
 36037,0.00032110,0.00050429,-0.00012552,-0.00023113,0.00063031,0.00039
 815,0.00011511,0.00023420,0.00023234,0.00004203,-0.00058213,0.00016260
 ,0.00058544,-0.00004298,-0.00009776,0.00004610,-0.00458127,-0.01500005
 ,-0.00480525,0.00848012,0.02461089,0.01011175,0.06344673,-0.00197411,-
 0.00369607,0.00266070,-0.00022567,0.00003219,-0.00039122,-0.00078096,-
 0.01315738,-0.00913428,0.00058170,0.00005394,-0.00060386,-0.05927117,-
 0.26468804,-0.08913164,-0.00158870,0.00114637,-0.00009515,0.00034254,0
 .00003544,0.00042405,0.00044003,0.00032328,0.00049813,0.00010896,0.000
 19441,0.00026438,-0.00014241,0.00062135,0.00013441,0.00002331,0.000011
 00,0.00012130,0.00152338,0.00535047,0.00191919,-0.00442393,-0.01338836
 ,-0.00509789,0.06514040,0.28728358,0.00345341,0.00595802,-0.00130039,0
 .00026339,-0.00034557,0.00049298,0.00295291,0.01777173,0.00958088,-0.0
 0036641,-0.00035869,0.00035821,-0.02391844,-0.09101891,-0.08503808,0.0
 0121556,-0.00077524,-0.00005594,-0.00062037,0.00016103,-0.00043365,-0.
 00105181,-0.00057785,0.00044442,-0.00027988,0.00006682,-0.00000494,0.0
 0036654,0.00000122,0.00003215,0.00006051,-0.00009988,-0.00000182,-0.00
 519215,-0.02511599,-0.00906725,-0.00191786,-0.00440074,-0.00320354,0.0
 2492912,0.09827966,0.08827766,-0.01970265,0.01305756,-0.02169604,0.005
 78489,0.00542116,0.00194785,-0.00052143,-0.00396472,-0.00189052,0.0002
 0365,0.00026513,0.00031311,0.00012455,0.00047561,0.00035463,-0.1039119
 2,0.02670112,-0.11933808,0.00487583,-0.00306900,0.00645640,0.00062256,
 0.00057844,0.00085505,-0.00005681,-0.00002844,-0.00001307,-0.00007892,
 0.00010610,0.00009388,0.00016286,-0.00015419,0.00002316,-0.00013605,-0
 .00006191,0.00007910,-0.00007935,0.00003303,0.00006179,0.00012864,0.00
 017086,-0.00009549,0.11517051,0.01573528,-0.00845924,0.01607248,0.0064
 1879,0.00374914,-0.00390967,0.00229431,0.00409291,0.00403037,-0.000034
 62,-0.00025356,-0.00030908,-0.00025280,-0.00038933,-0.00038766,0.02776
 692,-0.04483161,0.02428658,-0.01133048,0.00589646,-0.01208385,-0.00058
 591,0.00009343,-0.00103751,-0.00003471,0.00001930,0.00005324,0.0000321
 9,-0.00007285,-0.00009778,-0.00019672,0.00006059,-0.00012975,-0.000044
 39,0.00015210,-0.00014214,-0.00015245,-0.00006125,0.00023055,-0.000145
 80,-0.00006877,0.00006513,-0.03773346,0.04295696,-0.00127823,0.0013495
 6,0.00575825,0.00002233,-0.00490722,-0.00074985,0.00089596,-0.00050177
 ,0.00162591,0.00036524,0.00013619,0.00031616,-0.00029269,0.00006588,-0
 .00016041,-0.11974316,0.02200596,-0.27516851,-0.01342517,0.00814490,-0
 .01544073,-0.00025852,0.00107135,0.00001089,0.00004187,-0.00002659,-0.
 00003239,-0.00008550,0.00006429,-0.00001459,0.00009523,-0.00014010,-0.
 00011553,0.00005231,-0.00006676,-0.00000014,0.00006294,0.00007474,-0.0
 0021035,0.00006117,0.00000075,-0.00000369,0.13174220,-0.02776170,0.284
 00171,0.00781367,0.00339747,-0.00109542,-0.01308602,0.01152376,-0.0041
 0007,-0.00102870,0.00086969,0.00002752,0.00009970,0.00023026,0.0000552
 1,-0.00016810,-0.00001035,0.00008294,-0.00241612,0.00307683,-0.0010368
 0,-0.20148440,0.15490988,0.01028126,0.00000726,-0.00007407,0.00003882,
 -0.00002445,-0.00000183,0.00002751,-0.00009317,-0.00000266,0.00001955,
 -0.00000142,0.00000716,-0.00000929,0.00002078,-0.00003245,-0.00000599,
 0.00003924,-0.00003598,-0.00002137,0.00000835,-0.00001136,0.00001852,-
 0.00173576,-0.00188005,0.00119715,0.21073637,0.00585034,0.00355864,-0.
 00335402,0.00257695,-0.00022331,0.00200235,-0.00018256,0.00171368,-0.0
 0029120,-0.00001585,-0.00005112,-0.00002844,-0.00013775,-0.00004260,0.
 00016804,0.00831077,-0.00504683,0.00413605,0.15823533,-0.18707927,-0.0
 1727252,-0.00002799,-0.00019138,-0.00006025,-0.00004945,0.00001657,0.0
 0003558,-0.00002652,-0.00005289,0.00001513,-0.00002264,0.00003807,-0.0
 0000355,-0.00002440,0.00003114,-0.00002730,0.00005647,-0.00008573,0.00
 000748,-0.00000529,-0.00002852,0.00000180,-0.00227809,-0.00217938,0.00
 039430,-0.17226990,0.18765264,-0.00217720,-0.00496983,-0.00322645,-0.0
 2749368,0.02384928,-0.00096002,0.00161067,0.00048246,-0.00010948,-0.00
 022317,-0.00053962,-0.00024384,-0.00000199,0.00001812,-0.00010543,0.01
 871804,-0.01468556,0.00740743,0.01458762,-0.01975719,-0.05690117,-0.00
 004967,-0.00009537,-0.00010171,-0.00002032,0.00002097,0.00000469,0.000
 16913,-0.00009909,-0.00001734,-0.00000687,0.00001646,0.00002645,0.0000
 0253,-0.00002124,0.00003820,-0.00003495,0.00001454,0.00003859,-0.00000
 215,-0.00003376,0.00003966,0.00032219,0.00089149,-0.00036851,-0.002420
 29,0.01441809,0.05948929,-0.00215606,-0.00034790,0.00163133,-0.2721017
 8,0.23265324,0.03966478,0.00021753,0.00004279,-0.00082331,0.00012821,-
 0.00011881,0.00022072,0.00007603,0.00009168,-0.00010449,0.00292088,-0.
 00088232,0.00263877,-0.02294758,0.02009615,-0.00398942,-0.00013247,-0.
 00012621,-0.00008021,-0.00005060,0.00000104,0.00005677,-0.00007918,0.0
 0000789,-0.00008113,-0.00007151,0.00017919,-0.00009138,0.00023340,-0.0
 0023103,-0.00000296,-0.00039537,-0.00015422,-0.00015523,-0.00008341,0.
 00008715,0.00018245,-0.00085060,0.00014387,0.00054687,0.00131277,0.000
 01057,-0.00297986,0.29397976,0.00090799,-0.00279592,0.00142863,0.24264
 171,-0.22973448,-0.04957739,0.00011383,-0.00032651,-0.00047929,-0.0001
 3295,-0.00004795,-0.00010971,-0.00039686,0.00031841,-0.00064670,-0.003
 67875,0.00281165,-0.00458996,0.01068962,-0.00611247,0.00548009,0.00006
 385,0.00000327,0.00031308,-0.00003409,0.00001056,0.00010615,0.00005156
 ,-0.00001206,0.00004377,0.00018384,-0.00008234,0.00002612,0.00031124,-
 0.00066009,0.00031363,-0.00010977,0.00006122,-0.00009227,0.00005744,-0
 .00002490,0.00038745,0.00048081,-0.00070489,0.00009620,0.00030360,0.00
 197027,0.00049024,-0.25145308,0.23532620,0.00289166,0.00140246,0.00235
 367,0.07596303,-0.07909703,-0.05983601,-0.00013356,-0.00397343,0.00019
 186,0.00020371,0.00026369,0.00005070,0.00007183,0.00024728,0.00020679,
 -0.00529569,0.00331404,-0.00419514,-0.03504372,0.02998867,0.00282835,0
 .00033949,0.00085530,0.00046255,0.00003943,-0.00005445,-0.00005366,-0.
 00009699,0.00014336,0.00004183,-0.00000862,-0.00011307,-0.00001934,-0.
 00008650,0.00001545,0.00000479,-0.00002433,-0.00007521,0.00000819,0.00
 008937,0.00018522,-0.00011665,0.00078384,0.00022931,0.00055179,-0.0030
 5924,-0.00014154,-0.00501037,-0.03663369,0.04680995,0.06253064\\0.0000
 0015,-0.00000017,-0.00000042,0.00000160,0.00000082,-0.00000031,-0.0000
 0052,-0.00000026,0.00000020,-0.00000084,-0.00000122,0.00000027,-0.0000
 0066,0.00000057,0.00000063,0.00000105,0.00000002,-0.00000042,0.0000012
 2,0.00000087,-0.00000133,-0.00000040,-0.00000039,0.00000027,-0.0000005
 5,-0.00000185,0.00000004,-0.00000147,-0.00000124,0.00000065,-0.0000007
 7,-0.00000120,0.00000036,-0.00000078,0.00000044,0.00000050,-0.00000043
 ,0.00000115,0.00000039,-0.00000140,0.00000046,0.00000089,0.00000101,0.
 00000021,-0.00000041,0.00000182,0.00000138,-0.00000084,0.00000097,0.00
 000040,-0.00000049\\\@


 SIGN SEEN IN A RESTAURANT-
 WE RESERVE THE RIGHT TO SERVE REFUSE TO ANYONE.
 Job cpu time:       0 days  3 hours 45 minutes 13.2 seconds.
 Elapsed time:       0 days  1 hours 52 minutes 39.4 seconds.
 File lengths (MBytes):  RWF=   1392 Int=      0 D2E=      0 Chk=     32 Scr=     32
 Normal termination of Gaussian 16 at Sat Sep 28 23:14:23 2019.
