 Entering Gaussian System, Link 0=g16
 Input=verytight/species/CC(C)OC=CO/conformers/CC(C)OC=CO_16.com
 Output=verytight/species/CC(C)OC=CO/conformers/CC(C)OC=CO_16.log
 Initial command:
 /shared/centos7/gaussian/g16/l1.exe "/scratch/harms.n/gauss_scrdir/Gau-24761.inp" -scrdir="/scratch/harms.n/gauss_scrdir/"
 Entering Link 1 = /shared/centos7/gaussian/g16/l1.exe PID=     24766.
  
 Copyright (c) 1988,1990,1992,1993,1995,1998,2003,2009,2016,
            Gaussian, Inc.  All Rights Reserved.
  
 This is part of the Gaussian(R) 16 program.  It is based on
 the Gaussian(R) 09 system (copyright 2009, Gaussian, Inc.),
 the Gaussian(R) 03 system (copyright 2003, Gaussian, Inc.),
 the Gaussian(R) 98 system (copyright 1998, Gaussian, Inc.),
 the Gaussian(R) 94 system (copyright 1995, Gaussian, Inc.),
 the Gaussian 92(TM) system (copyright 1992, Gaussian, Inc.),
 the Gaussian 90(TM) system (copyright 1990, Gaussian, Inc.),
 the Gaussian 88(TM) system (copyright 1988, Gaussian, Inc.),
 the Gaussian 86(TM) system (copyright 1986, Carnegie Mellon
 University), and the Gaussian 82(TM) system (copyright 1983,
 Carnegie Mellon University). Gaussian is a federally registered
 trademark of Gaussian, Inc.
  
 This software contains proprietary and confidential information,
 including trade secrets, belonging to Gaussian, Inc.
  
 This software is provided under written license and may be
 used, copied, transmitted, or stored only in accord with that
 written license.
  
 The following legend is applicable only to US Government
 contracts under FAR:
  
                    RESTRICTED RIGHTS LEGEND
  
 Use, reproduction and disclosure by the US Government is
 subject to restrictions as set forth in subparagraphs (a)
 and (c) of the Commercial Computer Software - Restricted
 Rights clause in FAR 52.227-19.
  
 Gaussian, Inc.
 340 Quinnipiac St., Bldg. 40, Wallingford CT 06492
  
  
 ---------------------------------------------------------------
 Warning -- This program may not be used in any manner that
 competes with the business of Gaussian, Inc. or will provide
 assistance to any competitor of Gaussian, Inc.  The licensee
 of this program is prohibited from giving any competitor of
 Gaussian, Inc. access to this program.  By using this program,
 the user acknowledges that Gaussian, Inc. is engaged in the
 business of creating and licensing software in the field of
 computational chemistry and represents and warrants to the
 licensee that it is not a competitor of Gaussian, Inc. and that
 it will not use this program in any manner prohibited above.
 ---------------------------------------------------------------
  

 Cite this work as:
 Gaussian 16, Revision A.03,
 M. J. Frisch, G. W. Trucks, H. B. Schlegel, G. E. Scuseria, 
 M. A. Robb, J. R. Cheeseman, G. Scalmani, V. Barone, 
 G. A. Petersson, H. Nakatsuji, X. Li, M. Caricato, A. V. Marenich, 
 J. Bloino, B. G. Janesko, R. Gomperts, B. Mennucci, H. P. Hratchian, 
 J. V. Ortiz, A. F. Izmaylov, J. L. Sonnenberg, D. Williams-Young, 
 F. Ding, F. Lipparini, F. Egidi, J. Goings, B. Peng, A. Petrone, 
 T. Henderson, D. Ranasinghe, V. G. Zakrzewski, J. Gao, N. Rega, 
 G. Zheng, W. Liang, M. Hada, M. Ehara, K. Toyota, R. Fukuda, 
 J. Hasegawa, M. Ishida, T. Nakajima, Y. Honda, O. Kitao, H. Nakai, 
 T. Vreven, K. Throssell, J. A. Montgomery, Jr., J. E. Peralta, 
 F. Ogliaro, M. J. Bearpark, J. J. Heyd, E. N. Brothers, K. N. Kudin, 
 V. N. Staroverov, T. A. Keith, R. Kobayashi, J. Normand, 
 K. Raghavachari, A. P. Rendell, J. C. Burant, S. S. Iyengar, 
 J. Tomasi, M. Cossi, J. M. Millam, M. Klene, C. Adamo, R. Cammi, 
 J. W. Ochterski, R. L. Martin, K. Morokuma, O. Farkas, 
 J. B. Foresman, and D. J. Fox, Gaussian, Inc., Wallingford CT, 2016.
 
 ******************************************
 Gaussian 16:  EM64L-G16RevA.03 25-Dec-2016
                28-Sep-2019 
 ******************************************
 %nprocshared=20
 Will use up to   20 processors via shared memory.
 %mem=5GB
 ----------------------------------------------------------------------
 #p m062x/cc-pVTZ opt=(calcfc,maxcycles=900,Tight) freq IOP(7/33=1,2/16
 =3) scf=(maxcycle=900)
 ----------------------------------------------------------------------
 1/6=900,7=10,10=4,18=20,19=15,26=3,38=1/1,3;
 2/9=110,12=2,16=3,17=6,18=5,40=1/2;
 3/5=16,6=1,11=2,25=1,30=1,71=2,74=-55,140=1/1,2,3;
 4//1;
 5/5=2,7=900,38=5/2;
 8/6=4,10=90,11=11/1;
 11/6=1,8=1,9=11,15=111,16=1/1,2,10;
 10/6=1,13=1/2;
 6/7=2,8=2,9=2,10=2,28=1/1;
 7/10=1,18=20,25=1,33=1/1,2,3,16;
 1/6=900,7=10,10=4,18=20,19=15,26=3/3(2);
 2/9=110,16=3/2;
 99//99;
 2/9=110,16=3/2;
 3/5=16,6=1,11=2,25=1,30=1,71=1,74=-55/1,2,3;
 4/5=5,16=3,69=1/1;
 5/5=2,7=900,38=5/2;
 7/33=1/1,2,3,16;
 1/6=900,7=10,18=20,19=15,26=3/3(-5);
 2/9=110,16=3/2;
 6/7=2,8=2,9=2,10=2,19=2,28=1/1;
 99/9=1/99;
 Leave Link    1 at Sat Sep 28 04:29:42 2019, MaxMem=   671088640 cpu:               4.1 elap:               2.0
 (Enter /shared/centos7/gaussian/g16/l101.exe)
 ------------------------------
 Gaussian input prepared by ASE
 ------------------------------
 Symbolic Z-matrix:
 Charge =  0 Multiplicity = 1
 O                     0.9211   -1.13578  -0.97281 
 O                     2.82788  -1.62658   2.09164 
 C                    -0.24527  -0.37275  -1.19914 
 C                    -0.73898  -0.63515  -2.62197 
 C                    -0.05214   1.0824   -0.92471 
 C                     1.41637  -0.97149   0.30062 
 C                     2.27813  -1.79138   0.82903 
 H                    -1.04322  -0.74635  -0.49911 
 H                    -0.89721  -1.72158  -2.7858 
 H                    -1.69565  -0.11152  -2.80107 
 H                     0.00492  -0.27265  -3.38212 
 H                     0.63808   1.56516  -1.67785 
 H                     0.38681   1.22742   0.08444 
 H                    -1.03663   1.6293   -0.95964 
 H                     1.06722  -0.06856   0.82648 
 H                     2.64607  -2.67695   0.33223 
 H                     2.43896  -0.78716   2.4736 
 
 ITRead=  0  0  0  0  0  0  0  0  0  0  0  0  0  0  0  0  0
 MicOpt= -1 -1 -1 -1 -1 -1 -1 -1 -1 -1 -1 -1 -1 -1 -1 -1 -1
 NAtoms=     17 NQM=       17 NQMF=       0 NMMI=      0 NMMIF=      0
                NMic=       0 NMicF=      0.
                    Isotopes and Nuclear Properties:
 (Nuclear quadrupole moments (NQMom) in fm**2, nuclear magnetic moments (NMagM)
  in nuclear magnetons)

  Atom         1           2           3           4           5           6           7           8           9          10
 IAtWgt=          16          16          12          12          12          12          12           1           1           1
 AtmWgt=  15.9949146  15.9949146  12.0000000  12.0000000  12.0000000  12.0000000  12.0000000   1.0078250   1.0078250   1.0078250
 NucSpn=           0           0           0           0           0           0           0           1           1           1
 AtZEff=  -0.0000000  -0.0000000  -0.0000000  -0.0000000  -0.0000000  -0.0000000  -0.0000000  -0.0000000  -0.0000000  -0.0000000
 NQMom=    0.0000000   0.0000000   0.0000000   0.0000000   0.0000000   0.0000000   0.0000000   0.0000000   0.0000000   0.0000000
 NMagM=    0.0000000   0.0000000   0.0000000   0.0000000   0.0000000   0.0000000   0.0000000   2.7928460   2.7928460   2.7928460
 AtZNuc=   8.0000000   8.0000000   6.0000000   6.0000000   6.0000000   6.0000000   6.0000000   1.0000000   1.0000000   1.0000000

  Atom        11          12          13          14          15          16          17
 IAtWgt=           1           1           1           1           1           1           1
 AtmWgt=   1.0078250   1.0078250   1.0078250   1.0078250   1.0078250   1.0078250   1.0078250
 NucSpn=           1           1           1           1           1           1           1
 AtZEff=  -0.0000000  -0.0000000  -0.0000000  -0.0000000  -0.0000000  -0.0000000  -0.0000000
 NQMom=    0.0000000   0.0000000   0.0000000   0.0000000   0.0000000   0.0000000   0.0000000
 NMagM=    2.7928460   2.7928460   2.7928460   2.7928460   2.7928460   2.7928460   2.7928460
 AtZNuc=   1.0000000   1.0000000   1.0000000   1.0000000   1.0000000   1.0000000   1.0000000
 Leave Link  101 at Sat Sep 28 04:29:43 2019, MaxMem=   671088640 cpu:               2.3 elap:               1.2
 (Enter /shared/centos7/gaussian/g16/l103.exe)

 GradGradGradGradGradGradGradGradGradGradGradGradGradGradGradGradGradGrad
 Berny optimization.
 Initialization pass.
                           ----------------------------
                           !    Initial Parameters    !
                           ! (Angstroms and Degrees)  !
 --------------------------                            --------------------------
 ! Name  Definition              Value          Derivative Info.                !
 --------------------------------------------------------------------------------
 ! R1    R(1,3)                  1.412          calculate D2E/DX2 analytically  !
 ! R2    R(1,6)                  1.3762         calculate D2E/DX2 analytically  !
 ! R3    R(2,7)                  1.3869         calculate D2E/DX2 analytically  !
 ! R4    R(2,17)                 1.0009         calculate D2E/DX2 analytically  !
 ! R5    R(3,4)                  1.5287         calculate D2E/DX2 analytically  !
 ! R6    R(3,5)                  1.4933         calculate D2E/DX2 analytically  !
 ! R7    R(3,8)                  1.1253         calculate D2E/DX2 analytically  !
 ! R8    R(4,9)                  1.1101         calculate D2E/DX2 analytically  !
 ! R9    R(4,10)                 1.1052         calculate D2E/DX2 analytically  !
 ! R10   R(4,11)                 1.1237         calculate D2E/DX2 analytically  !
 ! R11   R(5,12)                 1.1299         calculate D2E/DX2 analytically  !
 ! R12   R(5,13)                 1.11           calculate D2E/DX2 analytically  !
 ! R13   R(5,14)                 1.1267         calculate D2E/DX2 analytically  !
 ! R14   R(6,7)                  1.3016         calculate D2E/DX2 analytically  !
 ! R15   R(6,15)                 1.1017         calculate D2E/DX2 analytically  !
 ! R16   R(7,16)                 1.08           calculate D2E/DX2 analytically  !
 ! A1    A(3,1,6)              112.4008         calculate D2E/DX2 analytically  !
 ! A2    A(7,2,17)             107.04           calculate D2E/DX2 analytically  !
 ! A3    A(1,3,4)              108.8562         calculate D2E/DX2 analytically  !
 ! A4    A(1,3,5)              112.9707         calculate D2E/DX2 analytically  !
 ! A5    A(1,3,8)              107.855          calculate D2E/DX2 analytically  !
 ! A6    A(4,3,5)              112.3378         calculate D2E/DX2 analytically  !
 ! A7    A(4,3,8)              107.0372         calculate D2E/DX2 analytically  !
 ! A8    A(5,3,8)              107.5111         calculate D2E/DX2 analytically  !
 ! A9    A(3,4,9)              110.5727         calculate D2E/DX2 analytically  !
 ! A10   A(3,4,10)             110.4293         calculate D2E/DX2 analytically  !
 ! A11   A(3,4,11)             111.128          calculate D2E/DX2 analytically  !
 ! A12   A(9,4,10)             108.445          calculate D2E/DX2 analytically  !
 ! A13   A(9,4,11)             108.0755         calculate D2E/DX2 analytically  !
 ! A14   A(10,4,11)            108.0938         calculate D2E/DX2 analytically  !
 ! A15   A(3,5,12)             111.891          calculate D2E/DX2 analytically  !
 ! A16   A(3,5,13)             110.2143         calculate D2E/DX2 analytically  !
 ! A17   A(3,5,14)             110.7487         calculate D2E/DX2 analytically  !
 ! A18   A(12,5,13)            107.9754         calculate D2E/DX2 analytically  !
 ! A19   A(12,5,14)            107.7998         calculate D2E/DX2 analytically  !
 ! A20   A(13,5,14)            108.0769         calculate D2E/DX2 analytically  !
 ! A21   A(1,6,7)              122.5983         calculate D2E/DX2 analytically  !
 ! A22   A(1,6,15)             115.1798         calculate D2E/DX2 analytically  !
 ! A23   A(7,6,15)             122.1631         calculate D2E/DX2 analytically  !
 ! A24   A(2,7,6)              123.8614         calculate D2E/DX2 analytically  !
 ! A25   A(2,7,16)             112.4049         calculate D2E/DX2 analytically  !
 ! A26   A(6,7,16)             123.7337         calculate D2E/DX2 analytically  !
 ! D1    D(6,1,3,4)           -178.9401         calculate D2E/DX2 analytically  !
 ! D2    D(6,1,3,5)             55.541          calculate D2E/DX2 analytically  !
 ! D3    D(6,1,3,8)            -63.1365         calculate D2E/DX2 analytically  !
 ! D4    D(3,1,6,7)            163.5632         calculate D2E/DX2 analytically  !
 ! D5    D(3,1,6,15)           -19.17           calculate D2E/DX2 analytically  !
 ! D6    D(17,2,7,6)            -0.2645         calculate D2E/DX2 analytically  !
 ! D7    D(17,2,7,16)          179.693          calculate D2E/DX2 analytically  !
 ! D8    D(1,3,4,9)             55.5622         calculate D2E/DX2 analytically  !
 ! D9    D(1,3,4,10)           175.5907         calculate D2E/DX2 analytically  !
 ! D10   D(1,3,4,11)           -64.4595         calculate D2E/DX2 analytically  !
 ! D11   D(5,3,4,9)           -178.5514         calculate D2E/DX2 analytically  !
 ! D12   D(5,3,4,10)           -58.5229         calculate D2E/DX2 analytically  !
 ! D13   D(5,3,4,11)            61.4269         calculate D2E/DX2 analytically  !
 ! D14   D(8,3,4,9)            -60.7668         calculate D2E/DX2 analytically  !
 ! D15   D(8,3,4,10)            59.2618         calculate D2E/DX2 analytically  !
 ! D16   D(8,3,4,11)           179.2116         calculate D2E/DX2 analytically  !
 ! D17   D(1,3,5,12)            68.5532         calculate D2E/DX2 analytically  !
 ! D18   D(1,3,5,13)           -51.6038         calculate D2E/DX2 analytically  !
 ! D19   D(1,3,5,14)          -171.1474         calculate D2E/DX2 analytically  !
 ! D20   D(4,3,5,12)           -55.0663         calculate D2E/DX2 analytically  !
 ! D21   D(4,3,5,13)          -175.2234         calculate D2E/DX2 analytically  !
 ! D22   D(4,3,5,14)            65.2331         calculate D2E/DX2 analytically  !
 ! D23   D(8,3,5,12)          -172.5696         calculate D2E/DX2 analytically  !
 ! D24   D(8,3,5,13)            67.2733         calculate D2E/DX2 analytically  !
 ! D25   D(8,3,5,14)           -52.2702         calculate D2E/DX2 analytically  !
 ! D26   D(1,6,7,2)            177.7584         calculate D2E/DX2 analytically  !
 ! D27   D(1,6,7,16)            -2.1943         calculate D2E/DX2 analytically  !
 ! D28   D(15,6,7,2)             0.6805         calculate D2E/DX2 analytically  !
 ! D29   D(15,6,7,16)         -179.2722         calculate D2E/DX2 analytically  !
 --------------------------------------------------------------------------------
 Trust Radius=3.00D-01 FncErr=1.00D-07 GrdErr=1.00D-06 EigMax=2.50D+02 EigMin=1.00D-04
 Number of steps in this run=    102 maximum allowed number of steps=    102.
 GradGradGradGradGradGradGradGradGradGradGradGradGradGradGradGradGradGrad

 Leave Link  103 at Sat Sep 28 04:29:44 2019, MaxMem=   671088640 cpu:               1.3 elap:               0.7
 (Enter /shared/centos7/gaussian/g16/l202.exe)
                          Input orientation:                          
 ---------------------------------------------------------------------
 Center     Atomic      Atomic             Coordinates (Angstroms)
 Number     Number       Type             X           Y           Z
 ---------------------------------------------------------------------
      1          8           0        0.921105   -1.135777   -0.972810
      2          8           0        2.827884   -1.626581    2.091641
      3          6           0       -0.245275   -0.372751   -1.199145
      4          6           0       -0.738975   -0.635152   -2.621965
      5          6           0       -0.052138    1.082396   -0.924707
      6          6           0        1.416370   -0.971495    0.300618
      7          6           0        2.278127   -1.791380    0.829026
      8          1           0       -1.043224   -0.746352   -0.499113
      9          1           0       -0.897213   -1.721582   -2.785798
     10          1           0       -1.695645   -0.111521   -2.801073
     11          1           0        0.004923   -0.272649   -3.382121
     12          1           0        0.638079    1.565161   -1.677850
     13          1           0        0.386808    1.227416    0.084437
     14          1           0       -1.036635    1.629303   -0.959635
     15          1           0        1.067216   -0.068556    0.826479
     16          1           0        2.646072   -2.676948    0.332228
     17          1           0        2.438965   -0.787156    2.473597
 ---------------------------------------------------------------------
                    Distance matrix (angstroms):
                    1          2          3          4          5
     1  O    0.000000
     2  O    3.642466   0.000000
     3  C    1.412047   4.673935   0.000000
     4  C    2.392949   5.993622   1.528729   0.000000
     5  C    2.422768   4.973071   1.493342   2.510459   0.000000
     6  C    1.376189   2.372609   2.317077   3.646935   2.806493
     7  C    2.349029   1.386935   3.534621   4.727485   4.094423
     8  H    2.057821   4.740494   1.125320   2.147425   2.123135
     9  H    2.633699   6.137979   2.182164   1.110050   3.469886
    10  H    3.352466   6.833475   2.176692   1.105209   2.765376
    11  H    2.718300   6.305895   2.199546   1.123668   2.806829
    12  H    2.805753   5.402918   2.182882   2.762066   1.129905
    13  H    2.643468   4.258289   2.146543   3.472918   1.109989
    14  H    3.388006   5.903014   2.166064   2.824836   1.126748
    15  H    2.097081   2.669837   2.432760   3.933844   2.375772
    16  H    2.655908   2.057149   4.001789   4.935052   4.795090
    17  H    3.781952   1.000891   4.567922   6.007260   4.609695
                    6          7          8          9         10
     6  C    0.000000
     7  C    1.301558   0.000000
     8  H    2.596125   3.726582   0.000000
     9  H    3.929537   4.811924   2.490245   0.000000
    10  H    4.477129   5.638299   2.475416   1.797227   0.000000
    11  H    4.005388   5.020733   3.103988   1.807999   1.804304
    12  H    3.309787   4.498950   3.091811   3.793066   3.085313
    13  H    2.437610   3.639317   2.506249   4.310864   3.802043
    14  H    3.790728   5.088028   2.419889   3.818736   2.618331
    15  H    1.101697   2.105809   2.582743   4.431707   4.560086
    16  H    2.102793   1.080011   4.246085   4.815566   5.937129
    17  H    2.408635   1.933636   4.578680   6.297974   6.735995
                   11         12         13         14         15
    11  H    0.000000
    12  H    2.585144   0.000000
    13  H    3.796453   1.811867   0.000000
    14  H    3.251262   1.823352   1.810466   0.000000
    15  H    4.345392   3.020737   1.641075   3.240234   0.000000
    16  H    5.152932   5.105677   4.517713   5.811629   3.088815
    17  H    6.362288   5.100108   3.738708   5.450335   2.260769
                   16         17
    16  H    0.000000
    17  H    2.863506   0.000000
 Stoichiometry    C5H10O2
 Framework group  C1[X(C5H10O2)]
 Deg. of freedom    45
 Full point group                 C1      NOp   1
 Largest Abelian subgroup         C1      NOp   1
 Largest concise Abelian subgroup C1      NOp   1
                         Standard orientation:                         
 ---------------------------------------------------------------------
 Center     Atomic      Atomic             Coordinates (Angstroms)
 Number     Number       Type             X           Y           Z
 ---------------------------------------------------------------------
      1          8           0        0.261942   -0.644779    0.219193
      2          8           0       -3.277465    0.160741   -0.082954
      3          6           0        1.388561    0.018387   -0.314491
      4          6           0        2.635043   -0.820720   -0.033079
      5          6           0        1.526048    1.421644    0.177483
      6          6           0       -0.908939    0.039502   -0.014668
      7          6           0       -2.080599   -0.515049    0.102543
      8          1           0        1.265873    0.061954   -1.432255
      9          1           0        2.511652   -1.848813   -0.433094
     10          1           0        3.522478   -0.364705   -0.508469
     11          1           0        2.831051   -0.897278    1.070710
     12          1           0        1.788000    1.459178    1.275963
     13          1           0        0.573890    1.973631    0.033330
     14          1           0        2.334581    1.965551   -0.388203
     15          1           0       -0.787021    1.105834   -0.263280
     16          1           0       -2.229644   -1.554213    0.356209
     17          1           0       -3.047355    1.108575   -0.307550
 ---------------------------------------------------------------------
 Rotational constants (GHZ):           7.2070644           1.1770083           1.0467306
 Leave Link  202 at Sat Sep 28 04:29:45 2019, MaxMem=   671088640 cpu:               3.3 elap:               1.7
 (Enter /shared/centos7/gaussian/g16/l301.exe)
 Standard basis: CC-pVTZ (5D, 7F)
 Ernie: Thresh=  0.10000D-02 Tol=  0.10000D-05 Strict=F.
 Ernie:  21 primitive shells out of 262 were deleted.
 There are   395 symmetry adapted cartesian basis functions of A   symmetry.
 There are   350 symmetry adapted basis functions of A   symmetry.
   350 basis functions,   534 primitive gaussians,   395 cartesian basis functions
    28 alpha electrons       28 beta electrons
       nuclear repulsion energy       308.4339816193 Hartrees.
 IExCor= 4336 DFT=T Ex+Corr=M062X ExCW=0 ScaHFX=  0.540000
 ScaDFX=  1.000000  1.000000  1.000000  1.000000 ScalE2=  1.000000  1.000000
 IRadAn=      5 IRanWt=     -1 IRanGd=            0 ICorTp=0 IEmpDi=  4
 NAtoms=   17 NActive=   17 NUniq=   17 SFac= 1.00D+00 NAtFMM=   60 NAOKFM=F Big=F
 Integral buffers will be    131072 words long.
 Raffenetti 2 integral format.
 Two-electron integral symmetry is turned on.
 Leave Link  301 at Sat Sep 28 04:29:46 2019, MaxMem=   671088640 cpu:               1.5 elap:               0.8
 (Enter /shared/centos7/gaussian/g16/l302.exe)
 NPDir=0 NMtPBC=     1 NCelOv=     1 NCel=       1 NClECP=     1 NCelD=      1
         NCelK=      1 NCelE2=     1 NClLst=     1 CellRange=     0.0.
 One-electron integrals computed using PRISM.
 One-electron integral symmetry used in STVInt
 NBasis=   350 RedAO= T EigKep=  1.95D-04  NBF=   350
 NBsUse=   350 1.00D-06 EigRej= -1.00D+00 NBFU=   350
 Precomputing XC quadrature grid using
 IXCGrd= 4 IRadAn=           5 IRanWt=          -1 IRanGd=           0 AccXCQ= 0.00D+00.
 Generated NRdTot=       0 NPtTot=           0 NUsed=           0 NTot=          32
 NSgBfM=   395   395   395   395   395 MxSgAt=    17 MxSgA2=    17.
 Leave Link  302 at Sat Sep 28 04:31:01 2019, MaxMem=   671088640 cpu:             149.9 elap:              75.0
 (Enter /shared/centos7/gaussian/g16/l303.exe)
 DipDrv:  MaxL=1.
 Leave Link  303 at Sat Sep 28 04:31:06 2019, MaxMem=   671088640 cpu:               8.9 elap:               4.5
 (Enter /shared/centos7/gaussian/g16/l401.exe)
 ExpMin= 1.03D-01 ExpMax= 1.53D+04 ExpMxC= 5.22D+02 IAcc=3 IRadAn=         5 AccDes= 0.00D+00
 Harris functional with IExCor= 1009 and IRadAn=       5 diagonalized for initial guess.
 HarFok:  IExCor= 1009 AccDes= 0.00D+00 IRadAn=         5 IDoV= 1 UseB2=F ITyADJ=14
 ICtDFT=  3500011 ScaDFX=  1.000000  1.000000  1.000000  1.000000
 FoFCou: FMM=F IPFlag=           0 FMFlag=      100000 FMFlg1=           0
         NFxFlg=           0 DoJE=T BraDBF=F KetDBF=T FulRan=T
         wScrn=  0.000000 ICntrl=       500 IOpCl=  0 I1Cent=   200000004 NGrid=           0
         NMat0=    1 NMatS0=      1 NMatT0=    0 NMatD0=    1 NMtDS0=    0 NMtDT0=    0
 Petite list used in FoFCou.
 Harris En= -346.807718746673    
 JPrj=0 DoOrth=F DoCkMO=F.
 Leave Link  401 at Sat Sep 28 04:31:34 2019, MaxMem=   671088640 cpu:              57.0 elap:              28.5
 (Enter /shared/centos7/gaussian/g16/l502.exe)
 Integral symmetry usage will be decided dynamically.
 Closed shell SCF:
 Using DIIS extrapolation, IDIIS=  1040.
 NGot=   671088640 LenX=   670765141 LenY=   670608675
 Requested convergence on RMS density matrix=1.00D-08 within 900 cycles.
 Requested convergence on MAX density matrix=1.00D-06.
 Requested convergence on             energy=1.00D-06.
 No special actions if energy rises.
 Fock matrices will be formed incrementally for  20 cycles.
 Integral accuracy reduced to 1.0D-05 until final iterations.

 Cycle   1  Pass 0  IDiag  1:
 FoFJK:  IHMeth= 1 ICntrl=       0 DoSepK=F KAlg= 0 I1Cent=           0 FoldK=F
 IRaf= 930000000 NMat=       1 IRICut=       1 DoRegI=T DoRafI=F ISym2E= 0 IDoP0=0 IntGTp=1.
 FoFCou: FMM=F IPFlag=           0 FMFlag=      100000 FMFlg1=           0
         NFxFlg=           0 DoJE=F BraDBF=F KetDBF=F FulRan=T
         wScrn=  0.000000 ICntrl=         0 IOpCl=  0 I1Cent=           0 NGrid=           0
         NMat0=    1 NMatS0=      1 NMatT0=    0 NMatD0=    1 NMtDS0=    0 NMtDT0=    0
 Symmetry not used in FoFCou.
 E= -346.699817693061    
 DIIS: error= 2.85D-02 at cycle   1 NSaved=   1.
 NSaved= 1 IEnMin= 1 EnMin= -346.699817693061     IErMin= 1 ErrMin= 2.85D-02
 ErrMax= 2.85D-02  0.00D+00 EMaxC= 1.00D-01 BMatC= 2.82D-01 BMatP= 2.82D-01
 IDIUse=3 WtCom= 7.15D-01 WtEn= 2.85D-01
 Coeff-Com:  0.100D+01
 Coeff-En:   0.100D+01
 Coeff:      0.100D+01
 Gap=     0.342 Goal=   None    Shift=    0.000
 GapD=    0.342 DampG=1.000 DampE=0.500 DampFc=0.5000 IDamp=-1.
 Damping current iteration by 5.00D-01
 RMSDP=1.88D-03 MaxDP=8.29D-02              OVMax= 1.39D-01

 Cycle   2  Pass 0  IDiag  1:
 RMSU=  9.39D-04    CP:  9.97D-01
 E= -346.818018165115     Delta-E=       -0.118200472053 Rises=F Damp=T
 DIIS: error= 3.76D-03 at cycle   2 NSaved=   2.
 NSaved= 2 IEnMin= 2 EnMin= -346.818018165115     IErMin= 2 ErrMin= 3.76D-03
 ErrMax= 3.76D-03  0.00D+00 EMaxC= 1.00D-01 BMatC= 2.10D-02 BMatP= 2.82D-01
 IDIUse=3 WtCom= 9.62D-01 WtEn= 3.76D-02
 Coeff-Com: -0.136D+00 0.114D+01
 Coeff-En:   0.000D+00 0.100D+01
 Coeff:     -0.131D+00 0.113D+01
 Gap=     0.325 Goal=   None    Shift=    0.000
 RMSDP=4.16D-04 MaxDP=1.33D-02 DE=-1.18D-01 OVMax= 6.80D-02

 Cycle   3  Pass 0  IDiag  1:
 RMSU=  4.15D-04    CP:  1.00D+00  1.02D+00
 E= -346.923725846401     Delta-E=       -0.105707681286 Rises=F Damp=F
 DIIS: error= 2.36D-03 at cycle   3 NSaved=   3.
 NSaved= 3 IEnMin= 3 EnMin= -346.923725846401     IErMin= 3 ErrMin= 2.36D-03
 ErrMax= 2.36D-03  0.00D+00 EMaxC= 1.00D-01 BMatC= 3.35D-03 BMatP= 2.10D-02
 IDIUse=3 WtCom= 9.76D-01 WtEn= 2.36D-02
 Coeff-Com: -0.814D-01 0.302D+00 0.780D+00
 Coeff-En:   0.000D+00 0.000D+00 0.100D+01
 Coeff:     -0.795D-01 0.295D+00 0.785D+00
 Gap=     0.327 Goal=   None    Shift=    0.000
 RMSDP=1.17D-04 MaxDP=5.11D-03 DE=-1.06D-01 OVMax= 1.53D-02

 Cycle   4  Pass 0  IDiag  1:
 RMSU=  1.07D-04    CP:  1.00D+00  1.06D+00  9.38D-01
 E= -346.925364744222     Delta-E=       -0.001638897821 Rises=F Damp=F
 DIIS: error= 1.48D-03 at cycle   4 NSaved=   4.
 NSaved= 4 IEnMin= 4 EnMin= -346.925364744222     IErMin= 4 ErrMin= 1.48D-03
 ErrMax= 1.48D-03  0.00D+00 EMaxC= 1.00D-01 BMatC= 1.11D-03 BMatP= 3.35D-03
 IDIUse=3 WtCom= 9.85D-01 WtEn= 1.48D-02
 Coeff-Com: -0.283D-01 0.725D-01 0.408D+00 0.548D+00
 Coeff-En:   0.000D+00 0.000D+00 0.226D+00 0.774D+00
 Coeff:     -0.278D-01 0.714D-01 0.405D+00 0.551D+00
 Gap=     0.323 Goal=   None    Shift=    0.000
 RMSDP=5.07D-05 MaxDP=2.64D-03 DE=-1.64D-03 OVMax= 7.77D-03

 Cycle   5  Pass 0  IDiag  1:
 RMSU=  2.77D-05    CP:  1.00D+00  1.07D+00  9.62D-01  6.21D-01
 E= -346.926187478776     Delta-E=       -0.000822734555 Rises=F Damp=F
 DIIS: error= 2.01D-04 at cycle   5 NSaved=   5.
 NSaved= 5 IEnMin= 5 EnMin= -346.926187478776     IErMin= 5 ErrMin= 2.01D-04
 ErrMax= 2.01D-04  0.00D+00 EMaxC= 1.00D-01 BMatC= 2.19D-05 BMatP= 1.11D-03
 IDIUse=3 WtCom= 9.98D-01 WtEn= 2.01D-03
 Coeff-Com: -0.456D-02 0.894D-02 0.959D-01 0.191D+00 0.709D+00
 Coeff-En:   0.000D+00 0.000D+00 0.000D+00 0.000D+00 0.100D+01
 Coeff:     -0.455D-02 0.893D-02 0.958D-01 0.191D+00 0.709D+00
 Gap=     0.323 Goal=   None    Shift=    0.000
 RMSDP=1.19D-05 MaxDP=4.00D-04 DE=-8.23D-04 OVMax= 1.84D-03

 Cycle   6  Pass 0  IDiag  1:
 RMSU=  9.48D-06    CP:  1.00D+00  1.06D+00  9.69D-01  6.59D-01  8.57D-01
 E= -346.926203941683     Delta-E=       -0.000016462907 Rises=F Damp=F
 DIIS: error= 6.92D-05 at cycle   6 NSaved=   6.
 NSaved= 6 IEnMin= 6 EnMin= -346.926203941683     IErMin= 6 ErrMin= 6.92D-05
 ErrMax= 6.92D-05  0.00D+00 EMaxC= 1.00D-01 BMatC= 3.15D-06 BMatP= 2.19D-05
 IDIUse=1 WtCom= 1.00D+00 WtEn= 0.00D+00
 Coeff-Com:  0.186D-03-0.172D-02 0.137D-01 0.505D-01 0.325D+00 0.612D+00
 Coeff:      0.186D-03-0.172D-02 0.137D-01 0.505D-01 0.325D+00 0.612D+00
 Gap=     0.323 Goal=   None    Shift=    0.000
 RMSDP=3.82D-06 MaxDP=1.66D-04 DE=-1.65D-05 OVMax= 6.22D-04

 Initial convergence to 1.0D-05 achieved.  Increase integral accuracy.
 Cycle   7  Pass 1  IDiag  1:
 E= -346.926208277853     Delta-E=       -0.000004336170 Rises=F Damp=F
 DIIS: error= 2.75D-05 at cycle   1 NSaved=   1.
 NSaved= 1 IEnMin= 1 EnMin= -346.926208277853     IErMin= 1 ErrMin= 2.75D-05
 ErrMax= 2.75D-05  0.00D+00 EMaxC= 1.00D-01 BMatC= 7.77D-07 BMatP= 7.77D-07
 IDIUse=1 WtCom= 1.00D+00 WtEn= 0.00D+00
 Coeff-Com:  0.100D+01
 Coeff:      0.100D+01
 Gap=     0.323 Goal=   None    Shift=    0.000
 RMSDP=3.82D-06 MaxDP=1.66D-04 DE=-4.34D-06 OVMax= 3.73D-04

 Cycle   8  Pass 1  IDiag  1:
 RMSU=  8.98D-06    CP:  1.00D+00
 E= -346.926208428530     Delta-E=       -0.000000150677 Rises=F Damp=F
 DIIS: error= 1.98D-05 at cycle   2 NSaved=   2.
 NSaved= 2 IEnMin= 2 EnMin= -346.926208428530     IErMin= 2 ErrMin= 1.98D-05
 ErrMax= 1.98D-05  0.00D+00 EMaxC= 1.00D-01 BMatC= 3.75D-07 BMatP= 7.77D-07
 IDIUse=1 WtCom= 1.00D+00 WtEn= 0.00D+00
 Coeff-Com:  0.377D+00 0.623D+00
 Coeff:      0.377D+00 0.623D+00
 Gap=     0.323 Goal=   None    Shift=    0.000
 RMSDP=1.71D-06 MaxDP=7.30D-05 DE=-1.51D-07 OVMax= 3.07D-04

 Cycle   9  Pass 1  IDiag  1:
 RMSU=  1.71D-06    CP:  1.00D+00  1.01D+00
 E= -346.926208648360     Delta-E=       -0.000000219830 Rises=F Damp=F
 DIIS: error= 1.04D-05 at cycle   3 NSaved=   3.
 NSaved= 3 IEnMin= 3 EnMin= -346.926208648360     IErMin= 3 ErrMin= 1.04D-05
 ErrMax= 1.04D-05  0.00D+00 EMaxC= 1.00D-01 BMatC= 9.66D-08 BMatP= 3.75D-07
 IDIUse=1 WtCom= 1.00D+00 WtEn= 0.00D+00
 Coeff-Com: -0.128D-01 0.333D+00 0.680D+00
 Coeff:     -0.128D-01 0.333D+00 0.680D+00
 Gap=     0.323 Goal=   None    Shift=    0.000
 RMSDP=6.20D-07 MaxDP=2.53D-05 DE=-2.20D-07 OVMax= 1.11D-04

 Cycle  10  Pass 1  IDiag  1:
 RMSU=  3.60D-07    CP:  1.00D+00  1.04D+00  7.49D-01
 E= -346.926208724523     Delta-E=       -0.000000076163 Rises=F Damp=F
 DIIS: error= 1.29D-06 at cycle   4 NSaved=   4.
 NSaved= 4 IEnMin= 4 EnMin= -346.926208724523     IErMin= 4 ErrMin= 1.29D-06
 ErrMax= 1.29D-06  0.00D+00 EMaxC= 1.00D-01 BMatC= 1.06D-09 BMatP= 9.66D-08
 IDIUse=1 WtCom= 1.00D+00 WtEn= 0.00D+00
 Coeff-Com: -0.987D-02 0.114D+00 0.255D+00 0.642D+00
 Coeff:     -0.987D-02 0.114D+00 0.255D+00 0.642D+00
 Gap=     0.323 Goal=   None    Shift=    0.000
 RMSDP=8.25D-08 MaxDP=3.01D-06 DE=-7.62D-08 OVMax= 6.57D-06

 Cycle  11  Pass 1  IDiag  1:
 RMSU=  7.01D-08    CP:  1.00D+00  1.04D+00  7.63D-01  1.07D+00
 E= -346.926208725341     Delta-E=       -0.000000000818 Rises=F Damp=F
 DIIS: error= 4.48D-07 at cycle   5 NSaved=   5.
 NSaved= 5 IEnMin= 5 EnMin= -346.926208725341     IErMin= 5 ErrMin= 4.48D-07
 ErrMax= 4.48D-07  0.00D+00 EMaxC= 1.00D-01 BMatC= 1.48D-10 BMatP= 1.06D-09
 IDIUse=1 WtCom= 1.00D+00 WtEn= 0.00D+00
 Coeff-Com: -0.169D-02-0.141D-01-0.154D-01 0.235D+00 0.796D+00
 Coeff:     -0.169D-02-0.141D-01-0.154D-01 0.235D+00 0.796D+00
 Gap=     0.323 Goal=   None    Shift=    0.000
 RMSDP=4.38D-08 MaxDP=1.77D-06 DE=-8.18D-10 OVMax= 2.62D-06

 Cycle  12  Pass 1  IDiag  1:
 RMSU=  2.17D-08    CP:  1.00D+00  1.05D+00  7.72D-01  1.16D+00  1.04D+00
 E= -346.926208725469     Delta-E=       -0.000000000128 Rises=F Damp=F
 DIIS: error= 2.02D-07 at cycle   6 NSaved=   6.
 NSaved= 6 IEnMin= 6 EnMin= -346.926208725469     IErMin= 6 ErrMin= 2.02D-07
 ErrMax= 2.02D-07  0.00D+00 EMaxC= 1.00D-01 BMatC= 1.58D-11 BMatP= 1.48D-10
 IDIUse=1 WtCom= 1.00D+00 WtEn= 0.00D+00
 Coeff-Com:  0.610D-03-0.193D-01-0.361D-01 0.164D-01 0.309D+00 0.729D+00
 Coeff:      0.610D-03-0.193D-01-0.361D-01 0.164D-01 0.309D+00 0.729D+00
 Gap=     0.323 Goal=   None    Shift=    0.000
 RMSDP=1.34D-08 MaxDP=5.25D-07 DE=-1.28D-10 OVMax= 1.28D-06

 Cycle  13  Pass 1  IDiag  1:
 RMSU=  7.91D-09    CP:  1.00D+00  1.05D+00  7.74D-01  1.18D+00  1.07D+00
                    CP:  9.02D-01
 E= -346.926208725497     Delta-E=       -0.000000000028 Rises=F Damp=F
 DIIS: error= 3.59D-08 at cycle   7 NSaved=   7.
 NSaved= 7 IEnMin= 7 EnMin= -346.926208725497     IErMin= 7 ErrMin= 3.59D-08
 ErrMax= 3.59D-08  0.00D+00 EMaxC= 1.00D-01 BMatC= 1.05D-12 BMatP= 1.58D-11
 IDIUse=1 WtCom= 1.00D+00 WtEn= 0.00D+00
 Coeff-Com:  0.315D-03-0.652D-02-0.127D-01-0.741D-02 0.687D-01 0.275D+00
 Coeff-Com:  0.682D+00
 Coeff:      0.315D-03-0.652D-02-0.127D-01-0.741D-02 0.687D-01 0.275D+00
 Coeff:      0.682D+00
 Gap=     0.323 Goal=   None    Shift=    0.000
 RMSDP=2.44D-09 MaxDP=8.69D-08 DE=-2.81D-11 OVMax= 2.65D-07

 SCF Done:  E(RM062X) =  -346.926208725     A.U. after   13 cycles
            NFock= 13  Conv=0.24D-08     -V/T= 2.0063
 KE= 3.447554724537D+02 PE=-1.426736598279D+03 EE= 4.266209354800D+02
 Leave Link  502 at Sat Sep 28 04:41:24 2019, MaxMem=   671088640 cpu:            1178.6 elap:             589.4
 (Enter /shared/centos7/gaussian/g16/l801.exe)
 DoSCS=F DFT=T ScalE2(SS,OS)=  1.000000  1.000000
 Range of M.O.s used for correlation:     1   350
 NBasis=   350 NAE=    28 NBE=    28 NFC=     0 NFV=     0
 NROrb=    350 NOA=    28 NOB=    28 NVA=   322 NVB=   322

 **** Warning!!: The largest alpha MO coefficient is  0.13134656D+02

 Leave Link  801 at Sat Sep 28 04:41:25 2019, MaxMem=   671088640 cpu:               1.9 elap:               1.0
 (Enter /shared/centos7/gaussian/g16/l1101.exe)
 Using compressed storage, NAtomX=    17.
 Will process     18 centers per pass.
 Leave Link 1101 at Sat Sep 28 04:41:55 2019, MaxMem=   671088640 cpu:              60.2 elap:              30.1
 (Enter /shared/centos7/gaussian/g16/l1102.exe)
 Symmetrizing basis deriv contribution to polar:
 IMax=3 JMax=2 DiffMx= 0.00D+00
 Leave Link 1102 at Sat Sep 28 04:41:57 2019, MaxMem=   671088640 cpu:               4.3 elap:               2.2
 (Enter /shared/centos7/gaussian/g16/l1110.exe)
 Forming Gx(P) for the SCF density, NAtomX=    17.
 Integral derivatives from FoFJK, PRISM(SPDF).
 Do as many integral derivatives as possible in FoFJK.
 G2DrvN: MDV=     671087280.
 G2DrvN: will do    18 centers at a time, making    1 passes.
 Calling FoFCou, ICntrl=  3107 FMM=F I1Cent=   0 AccDes= 0.00D+00.
 FoFJK:  IHMeth= 1 ICntrl=    3107 DoSepK=F KAlg= 0 I1Cent=           0 FoldK=F
 IRaf=         0 NMat=       1 IRICut=       1 DoRegI=T DoRafI=F ISym2E= 0 IDoP0=0 IntGTp=1.
 FoFCou: FMM=F IPFlag=           0 FMFlag=      100000 FMFlg1=           0
         NFxFlg=           0 DoJE=F BraDBF=F KetDBF=F FulRan=T
         wScrn=  0.000000 ICntrl=      3107 IOpCl=  0 I1Cent=           0 NGrid=           0
         NMat0=    1 NMatS0=      1 NMatT0=    0 NMatD0=    1 NMtDS0=    0 NMtDT0=    0
 Symmetry not used in FoFCou.
 End of G2Drv F.D. properties file   721 does not exist.
 End of G2Drv F.D. properties file   722 does not exist.
 End of G2Drv F.D. properties file   788 does not exist.
 Leave Link 1110 at Sat Sep 28 04:58:30 2019, MaxMem=   671088640 cpu:            1986.3 elap:             993.3
 (Enter /shared/centos7/gaussian/g16/l1002.exe)
 Minotr:  Closed shell wavefunction.
          IDoAtm=11111111111111111
          Direct CPHF calculation.
          Differentiating once with respect to nuclear coordinates.
          Requested convergence is 1.0D-08 RMS, and 1.0D-07 maximum.
          Secondary convergence is 1.0D-12 RMS, and 1.0D-12 maximum.
          NewPWx=T KeepS1=F KeepF1=F KeepIn=T MapXYZ=F SortEE=F KeepMc=T.
         5123 words used for storage of precomputed grid.
 Two-electron integrals replicated using symmetry.
          MDV=     671088640 using IRadAn=       1.
          Solving linear equations simultaneously, MaxMat=     380.
 FoF2E skips out because all densities are zero.
 CalDSu exits because no D1Ps are significant.
 FoFJK:  IHMeth= 1 ICntrl=       0 DoSepK=F KAlg= 0 I1Cent=           0 FoldK=F
 IRaf= 910000000 NMat=      51 IRICut=     127 DoRegI=T DoRafI=T ISym2E= 2 IDoP0=3 IntGTp=3.
 FoFCou: FMM=F IPFlag=           0 FMFlag=      100000 FMFlg1=           0
         NFxFlg=           0 DoJE=F BraDBF=F KetDBF=F FulRan=T
         wScrn=  0.000000 ICntrl=         0 IOpCl=  0 I1Cent=           0 NGrid=           0
         NMat0=   51 NMatS0=     51 NMatT0=    0 NMatD0=   51 NMtDS0=    0 NMtDT0=    0
 Integrals replicated using symmetry in FoFCou.
 Raff kept on since  88.51% of shell-pairs survive, threshold=   0.20 IRatSp=89.
          There are    54 degrees of freedom in the 1st order CPHF.  IDoFFX=6 NUNeed=     0.
     48 vectors produced by pass  0 Test12= 1.67D-14 1.85D-09 XBig12= 7.21D-02 7.41D-02.
 AX will form    48 AO Fock derivatives at one time.
     48 vectors produced by pass  1 Test12= 1.67D-14 1.85D-09 XBig12= 1.04D-02 2.88D-02.
     48 vectors produced by pass  2 Test12= 1.67D-14 1.85D-09 XBig12= 4.10D-04 2.74D-03.
     48 vectors produced by pass  3 Test12= 1.67D-14 1.85D-09 XBig12= 4.47D-06 2.86D-04.
     48 vectors produced by pass  4 Test12= 1.67D-14 1.85D-09 XBig12= 3.78D-08 2.22D-05.
     48 vectors produced by pass  5 Test12= 1.67D-14 1.85D-09 XBig12= 1.67D-10 1.27D-06.
     25 vectors produced by pass  6 Test12= 1.67D-14 1.85D-09 XBig12= 8.16D-13 7.81D-08.
      4 vectors produced by pass  7 Test12= 1.67D-14 1.85D-09 XBig12= 3.66D-15 5.23D-09.
 InvSVY:  IOpt=1 It=  1 EMax= 1.67D-16
 Solved reduced A of dimension   317 with    54 vectors.
 End of Minotr F.D. properties file   721 does not exist.
 End of Minotr F.D. properties file   722 does not exist.
 End of Minotr F.D. properties file   788 does not exist.
 Leave Link 1002 at Sat Sep 28 05:26:59 2019, MaxMem=   671088640 cpu:            3417.8 elap:            1709.1
 (Enter /shared/centos7/gaussian/g16/l601.exe)
 Copying SCF densities to generalized density rwf, IOpCl= 0 IROHF=0.

 **********************************************************************

            Population analysis using the SCF density.

 **********************************************************************

 Orbital symmetries:
       Occupied  (A) (A) (A) (A) (A) (A) (A) (A) (A) (A) (A) (A)
                 (A) (A) (A) (A) (A) (A) (A) (A) (A) (A) (A) (A)
                 (A) (A) (A) (A)
       Virtual   (A) (A) (A) (A) (A) (A) (A) (A) (A) (A) (A) (A)
                 (A) (A) (A) (A) (A) (A) (A) (A) (A) (A) (A) (A)
                 (A) (A) (A) (A) (A) (A) (A) (A) (A) (A) (A) (A)
                 (A) (A) (A) (A) (A) (A) (A) (A) (A) (A) (A) (A)
                 (A) (A) (A) (A) (A) (A) (A) (A) (A) (A) (A) (A)
                 (A) (A) (A) (A) (A) (A) (A) (A) (A) (A) (A) (A)
                 (A) (A) (A) (A) (A) (A) (A) (A) (A) (A) (A) (A)
                 (A) (A) (A) (A) (A) (A) (A) (A) (A) (A) (A) (A)
                 (A) (A) (A) (A) (A) (A) (A) (A) (A) (A) (A) (A)
                 (A) (A) (A) (A) (A) (A) (A) (A) (A) (A) (A) (A)
                 (A) (A) (A) (A) (A) (A) (A) (A) (A) (A) (A) (A)
                 (A) (A) (A) (A) (A) (A) (A) (A) (A) (A) (A) (A)
                 (A) (A) (A) (A) (A) (A) (A) (A) (A) (A) (A) (A)
                 (A) (A) (A) (A) (A) (A) (A) (A) (A) (A) (A) (A)
                 (A) (A) (A) (A) (A) (A) (A) (A) (A) (A) (A) (A)
                 (A) (A) (A) (A) (A) (A) (A) (A) (A) (A) (A) (A)
                 (A) (A) (A) (A) (A) (A) (A) (A) (A) (A) (A) (A)
                 (A) (A) (A) (A) (A) (A) (A) (A) (A) (A) (A) (A)
                 (A) (A) (A) (A) (A) (A) (A) (A) (A) (A) (A) (A)
                 (A) (A) (A) (A) (A) (A) (A) (A) (A) (A) (A) (A)
                 (A) (A) (A) (A) (A) (A) (A) (A) (A) (A) (A) (A)
                 (A) (A) (A) (A) (A) (A) (A) (A) (A) (A) (A) (A)
                 (A) (A) (A) (A) (A) (A) (A) (A) (A) (A) (A) (A)
                 (A) (A) (A) (A) (A) (A) (A) (A) (A) (A) (A) (A)
                 (A) (A) (A) (A) (A) (A) (A) (A) (A) (A) (A) (A)
                 (A) (A) (A) (A) (A) (A) (A) (A) (A) (A) (A) (A)
                 (A) (A) (A) (A) (A) (A) (A) (A) (A) (A)
 The electronic state is 1-A.
 Alpha  occ. eigenvalues --  -19.64697 -19.64482 -10.60058 -10.58133 -10.57752
 Alpha  occ. eigenvalues --  -10.54216 -10.53760  -1.18509  -1.16041  -0.89844
 Alpha  occ. eigenvalues --   -0.83613  -0.78775  -0.69681  -0.66735  -0.59889
 Alpha  occ. eigenvalues --   -0.59723  -0.54372  -0.51920  -0.48269  -0.47737
 Alpha  occ. eigenvalues --   -0.45676  -0.45372  -0.45086  -0.43956  -0.43094
 Alpha  occ. eigenvalues --   -0.38493  -0.37964  -0.26722
 Alpha virt. eigenvalues --    0.05613   0.06648   0.07623   0.10334   0.10758
 Alpha virt. eigenvalues --    0.11949   0.12204   0.13954   0.15386   0.16467
 Alpha virt. eigenvalues --    0.17269   0.20050   0.23061   0.24076   0.25174
 Alpha virt. eigenvalues --    0.26711   0.27277   0.29373   0.31133   0.33251
 Alpha virt. eigenvalues --    0.33565   0.35519   0.37188   0.38096   0.41090
 Alpha virt. eigenvalues --    0.42150   0.42676   0.44071   0.45453   0.45967
 Alpha virt. eigenvalues --    0.46986   0.47466   0.48241   0.49546   0.49954
 Alpha virt. eigenvalues --    0.50608   0.51244   0.52680   0.53905   0.55331
 Alpha virt. eigenvalues --    0.57056   0.59792   0.60448   0.62458   0.63022
 Alpha virt. eigenvalues --    0.64349   0.65522   0.68512   0.70099   0.72973
 Alpha virt. eigenvalues --    0.73588   0.75816   0.77467   0.78355   0.79158
 Alpha virt. eigenvalues --    0.81629   0.82691   0.84889   0.87723   0.89052
 Alpha virt. eigenvalues --    0.92095   0.92605   0.94907   0.96128   0.96743
 Alpha virt. eigenvalues --    0.99855   1.01035   1.02655   1.04108   1.06071
 Alpha virt. eigenvalues --    1.06685   1.07620   1.09793   1.12861   1.13973
 Alpha virt. eigenvalues --    1.14875   1.15765   1.16618   1.18196   1.19572
 Alpha virt. eigenvalues --    1.22297   1.23272   1.24993   1.26724   1.29124
 Alpha virt. eigenvalues --    1.29590   1.30384   1.31522   1.32332   1.33534
 Alpha virt. eigenvalues --    1.34878   1.36783   1.39131   1.39773   1.41756
 Alpha virt. eigenvalues --    1.42227   1.45580   1.46897   1.48858   1.49933
 Alpha virt. eigenvalues --    1.51802   1.53210   1.57663   1.60560   1.61646
 Alpha virt. eigenvalues --    1.65711   1.69357   1.76640   1.81333   1.83281
 Alpha virt. eigenvalues --    1.88388   1.91000   1.96354   2.00117   2.04452
 Alpha virt. eigenvalues --    2.05302   2.12937   2.14189   2.16819   2.21504
 Alpha virt. eigenvalues --    2.26562   2.29172   2.31341   2.33697   2.35120
 Alpha virt. eigenvalues --    2.37965   2.39041   2.41401   2.46317   2.46879
 Alpha virt. eigenvalues --    2.50296   2.51155   2.53607   2.55186   2.58407
 Alpha virt. eigenvalues --    2.59796   2.61159   2.62580   2.64770   2.66185
 Alpha virt. eigenvalues --    2.68542   2.71561   2.73096   2.75875   2.79876
 Alpha virt. eigenvalues --    2.80265   2.80761   2.81731   2.82840   2.85581
 Alpha virt. eigenvalues --    2.86818   2.88690   2.89671   2.91727   2.92413
 Alpha virt. eigenvalues --    2.95143   2.95855   2.97133   2.98486   2.99022
 Alpha virt. eigenvalues --    3.02059   3.03735   3.06392   3.06503   3.08282
 Alpha virt. eigenvalues --    3.09479   3.10073   3.11675   3.13386   3.14108
 Alpha virt. eigenvalues --    3.15178   3.16533   3.18097   3.20720   3.22314
 Alpha virt. eigenvalues --    3.23894   3.24863   3.26998   3.28464   3.28820
 Alpha virt. eigenvalues --    3.29703   3.30391   3.33796   3.33941   3.34811
 Alpha virt. eigenvalues --    3.37368   3.37930   3.39302   3.41341   3.42703
 Alpha virt. eigenvalues --    3.43570   3.45220   3.46419   3.48202   3.49760
 Alpha virt. eigenvalues --    3.52973   3.54748   3.57565   3.59277   3.60354
 Alpha virt. eigenvalues --    3.61153   3.63776   3.65402   3.68460   3.69701
 Alpha virt. eigenvalues --    3.73204   3.75405   3.76467   3.77541   3.79066
 Alpha virt. eigenvalues --    3.80235   3.81639   3.84471   3.84832   3.85503
 Alpha virt. eigenvalues --    3.86631   3.89373   3.90827   3.92073   3.93251
 Alpha virt. eigenvalues --    3.93603   3.96334   3.96545   3.98586   4.00529
 Alpha virt. eigenvalues --    4.01724   4.03004   4.03629   4.04375   4.06654
 Alpha virt. eigenvalues --    4.08615   4.11671   4.13738   4.15039   4.17969
 Alpha virt. eigenvalues --    4.18273   4.21191   4.23300   4.26641   4.28856
 Alpha virt. eigenvalues --    4.29962   4.31099   4.34970   4.39208   4.42503
 Alpha virt. eigenvalues --    4.46016   4.46960   4.48933   4.54959   4.58008
 Alpha virt. eigenvalues --    4.59098   4.62868   4.65985   4.66959   4.71135
 Alpha virt. eigenvalues --    4.72137   4.74617   4.77282   4.78080   4.80281
 Alpha virt. eigenvalues --    4.82091   4.84847   4.87331   4.88156   4.96260
 Alpha virt. eigenvalues --    4.98514   4.99430   5.01477   5.03741   5.05496
 Alpha virt. eigenvalues --    5.06215   5.08685   5.11595   5.17760   5.19405
 Alpha virt. eigenvalues --    5.21165   5.22984   5.24805   5.25299   5.29886
 Alpha virt. eigenvalues --    5.33416   5.35564   5.40563   5.43761   5.48770
 Alpha virt. eigenvalues --    5.51426   5.52214   5.64171   5.67784   5.73073
 Alpha virt. eigenvalues --    5.75591   5.77180   5.78925   5.83242   5.86814
 Alpha virt. eigenvalues --    5.91321   5.97568   6.00568   6.17569   6.32099
 Alpha virt. eigenvalues --    6.38695   6.48306   6.52077   6.58795   6.72866
 Alpha virt. eigenvalues --    6.73418   6.76465   6.78476   6.81232   6.96228
 Alpha virt. eigenvalues --    7.06985   7.12007   7.29450   7.35861   7.38448
 Alpha virt. eigenvalues --   10.66788  11.16926  11.58880  11.70646  13.21463
 Alpha virt. eigenvalues --   13.31196  14.39784
          Condensed to atoms (all electrons):
               1          2          3          4          5          6
     1  O    7.846769   0.002578   0.321545  -0.047222  -0.046590   0.323209
     2  O    0.002578   7.798117  -0.000083  -0.000000   0.000049  -0.076758
     3  C    0.321545  -0.000083   4.861009   0.343892   0.322268  -0.064024
     4  C   -0.047222  -0.000000   0.343892   4.947911  -0.057390   0.003817
     5  C   -0.046590   0.000049   0.322268  -0.057390   5.086235  -0.037150
     6  C    0.323209  -0.076758  -0.064024   0.003817  -0.037150   5.038307
     7  C   -0.057670   0.353404  -0.002985  -0.000192   0.000287   0.591946
     8  H   -0.058552  -0.000142   0.389236  -0.033285  -0.091318   0.013335
     9  H    0.002532   0.000001  -0.032773   0.399169   0.009814  -0.000766
    10  H    0.003494  -0.000000  -0.033774   0.386855   0.000043   0.000081
    11  H    0.001841  -0.000000  -0.037085   0.400235  -0.012623   0.000031
    12  H    0.002524  -0.000000  -0.034474  -0.006591   0.382420   0.001414
    13  H   -0.000908  -0.000101  -0.038623   0.008925   0.412465  -0.013282
    14  H    0.004177  -0.000001  -0.028920  -0.007319   0.391169   0.002562
    15  H   -0.053391  -0.001918  -0.002222  -0.000653  -0.006396   0.367189
    16  H    0.005538  -0.031135   0.000036  -0.000089  -0.000068  -0.079382
    17  H   -0.000005   0.324793   0.000079  -0.000003  -0.000078  -0.012667
               7          8          9         10         11         12
     1  O   -0.057670  -0.058552   0.002532   0.003494   0.001841   0.002524
     2  O    0.353404  -0.000142   0.000001  -0.000000  -0.000000  -0.000000
     3  C   -0.002985   0.389236  -0.032773  -0.033774  -0.037085  -0.034474
     4  C   -0.000192  -0.033285   0.399169   0.386855   0.400235  -0.006591
     5  C    0.000287  -0.091318   0.009814   0.000043  -0.012623   0.382420
     6  C    0.591946   0.013335  -0.000766   0.000081   0.000031   0.001414
     7  C    4.770578   0.006822  -0.000098   0.000015   0.000047   0.000148
     8  H    0.006822   0.672068  -0.009657  -0.002732   0.009394   0.010784
     9  H   -0.000098  -0.009657   0.565187  -0.028018  -0.030134  -0.000184
    10  H    0.000015  -0.002732  -0.028018   0.598212  -0.033569  -0.000020
    11  H    0.000047   0.009394  -0.030134  -0.033569   0.580644   0.005306
    12  H    0.000148   0.010784  -0.000184  -0.000020   0.005306   0.579027
    13  H    0.000126  -0.011602  -0.000416  -0.000172  -0.000392  -0.035204
    14  H   -0.000014  -0.001822  -0.000258  -0.000190   0.000469  -0.027813
    15  H   -0.042431   0.000894   0.000167   0.000190   0.000062   0.001318
    16  H    0.413997   0.000301   0.000045   0.000007   0.000015   0.000038
    17  H   -0.046498  -0.000010   0.000001   0.000000  -0.000000   0.000007
              13         14         15         16         17
     1  O   -0.000908   0.004177  -0.053391   0.005538  -0.000005
     2  O   -0.000101  -0.000001  -0.001918  -0.031135   0.324793
     3  C   -0.038623  -0.028920  -0.002222   0.000036   0.000079
     4  C    0.008925  -0.007319  -0.000653  -0.000089  -0.000003
     5  C    0.412465   0.391169  -0.006396  -0.000068  -0.000078
     6  C   -0.013282   0.002562   0.367189  -0.079382  -0.012667
     7  C    0.000126  -0.000014  -0.042431   0.413997  -0.046498
     8  H   -0.011602  -0.001822   0.000894   0.000301  -0.000010
     9  H   -0.000416  -0.000258   0.000167   0.000045   0.000001
    10  H   -0.000172  -0.000190   0.000190   0.000007   0.000000
    11  H   -0.000392   0.000469   0.000062   0.000015  -0.000000
    12  H   -0.035204  -0.027813   0.001318   0.000038   0.000007
    13  H    0.607220  -0.028964  -0.012888  -0.000252  -0.000429
    14  H   -0.028964   0.575780  -0.000857  -0.000002   0.000001
    15  H   -0.012888  -0.000857   0.641123   0.008165   0.009917
    16  H   -0.000252  -0.000002   0.008165   0.522722   0.007302
    17  H   -0.000429   0.000001   0.009917   0.007302   0.458577
 Mulliken charges:
               1
     1  O   -0.249868
     2  O   -0.368802
     3  C    0.036899
     4  C   -0.338060
     5  C   -0.353138
     6  C   -0.057862
     7  C    0.012517
     8  H    0.106287
     9  H    0.125388
    10  H    0.109578
    11  H    0.115759
    12  H    0.121302
    13  H    0.114497
    14  H    0.122002
    15  H    0.091731
    16  H    0.152758
    17  H    0.259013
 Sum of Mulliken charges =  -0.00000
 Mulliken charges with hydrogens summed into heavy atoms:
               1
     1  O   -0.249868
     2  O   -0.109790
     3  C    0.143186
     4  C    0.012665
     5  C    0.004663
     6  C    0.033869
     7  C    0.165275
 APT charges:
               1
     1  O   -0.159868
     2  O   -0.275415
     3  C   -0.163807
     4  C   -1.226105
     5  C   -1.049956
     6  C   -0.406044
     7  C   -0.297546
     8  H    0.292670
     9  H    0.366999
    10  H    0.495960
    11  H    0.356277
    12  H    0.354094
    13  H    0.190237
    14  H    0.496484
    15  H    0.219847
    16  H    0.414862
    17  H    0.391310
 Sum of APT charges =  -0.00000
 APT charges with hydrogens summed into heavy atoms:
               1
     1  O   -0.159868
     2  O    0.115895
     3  C    0.128863
     4  C   -0.006869
     5  C   -0.009140
     6  C   -0.186197
     7  C    0.117316
 Electronic spatial extent (au):  <R**2>=           1114.0562
 Charge=             -0.0000 electrons
 Dipole moment (field-independent basis, Debye):
    X=              1.6752    Y=              1.8896    Z=             -0.7366  Tot=              2.6305
 Quadrupole moment (field-independent basis, Debye-Ang):
   XX=            -47.1318   YY=            -40.7602   ZZ=            -45.3411
   XY=             -2.1735   XZ=             -0.0563   YZ=             -1.0272
 Traceless Quadrupole moment (field-independent basis, Debye-Ang):
   XX=             -2.7208   YY=              3.6508   ZZ=             -0.9300
   XY=             -2.1735   XZ=             -0.0563   YZ=             -1.0272
 Octapole moment (field-independent basis, Debye-Ang**2):
  XXX=             20.8307  YYY=             -0.8887  ZZZ=              1.0762  XYY=            -14.6429
  XXY=              7.4764  XXZ=             -2.3833  XZZ=             -0.9057  YZZ=             -0.0551
  YYZ=             -1.2271  XYZ=              3.2587
 Hexadecapole moment (field-independent basis, Debye-Ang**3):
 XXXX=          -1254.2764 YYYY=           -231.3226 ZZZZ=            -78.7347 XXXY=            -26.5956
 XXXZ=              0.3623 YYYX=            -10.8659 YYYZ=             -3.6103 ZZZX=              4.2742
 ZZZY=             -0.9787 XXYY=           -197.5393 XXZZ=           -204.6661 YYZZ=            -53.2499
 XXYZ=            -11.9735 YYXZ=             -0.6135 ZZXY=             -1.7805
 N-N= 3.084339816193D+02 E-N=-1.426736592966D+03  KE= 3.447554724537D+02
  Exact polarizability:   0.000   0.000   0.000   0.000   0.000   0.000
 Approx polarizability:  95.090   4.816  77.664  -1.543  -3.399  68.822
 No NMR shielding tensors so no spin-rotation constants.
 Leave Link  601 at Sat Sep 28 05:27:33 2019, MaxMem=   671088640 cpu:              66.6 elap:              33.3
 (Enter /shared/centos7/gaussian/g16/l701.exe)
 SCFChk:  SCF convergence  2.44D-09 required  1.00D-08
 ... and contract with generalized density number  0.
 Compute integral second derivatives.
 Entering OneElI...
 Calculate overlap and kinetic energy integrals
    NBasis = 395  MinDer = 2  MaxDer = 2
 Requested accuracy = 0.1000D-12
 PrmmSu-InSpLW:  IPartL=    0 NPrtUS=   20 NPrtUL=    1 DoSpLW=F IThBeg=    0 IThEnd=   19 NThAct=   20.
 PrsmSu:  NPrtUS=  20 ThrOK=T IAlg=1 NPAlg=1 LenDen=           0 ISkipM=0 DoSpLW=F IThBeg=    0 IThEnd=   19.
 Prism:   IPart=     0 DynPar=F LinDyn=F Incr=           4.
 PRISM was handed    33317109 working-precision words and  8343 shell-pairs
 PRISM was handed    33317109 working-precision words and  8343 shell-pairs
 PRISM was handed    33317109 working-precision words and  8343 shell-pairs
 PRISM was handed    33317109 working-precision words and  8343 shell-pairs
 IPart=  0 NShTot=         462 NBatch=          83 AvBLen=         5.6
 PRISM was handed    33317109 working-precision words and  8343 shell-pairs
 PRISM was handed    33317109 working-precision words and  8343 shell-pairs
 IPart= 16 NShTot=         396 NBatch=          38 AvBLen=        10.4
 PRISM was handed    33317109 working-precision words and  8343 shell-pairs
 PRISM was handed    33317109 working-precision words and  8343 shell-pairs
 PRISM was handed    33317109 working-precision words and  8343 shell-pairs
 PRISM was handed    33317109 working-precision words and  8343 shell-pairs
 PRISM was handed    33317109 working-precision words and  8343 shell-pairs
 PRISM was handed    33317109 working-precision words and  8343 shell-pairs
 PRISM was handed    33317109 working-precision words and  8343 shell-pairs
 IPart=  3 NShTot=         444 NBatch=          70 AvBLen=         6.3
 IPart= 15 NShTot=         397 NBatch=          39 AvBLen=        10.2
 PRISM was handed    33317109 working-precision words and  8343 shell-pairs
 PRISM was handed    33317109 working-precision words and  8343 shell-pairs
 PRISM was handed    33317109 working-precision words and  8343 shell-pairs
 PRISM was handed    33317109 working-precision words and  8343 shell-pairs
 PRISM was handed    33317109 working-precision words and  8343 shell-pairs
 IPart= 18 NShTot=         395 NBatch=          38 AvBLen=        10.4
 IPart= 19 NShTot=         391 NBatch=          34 AvBLen=        11.5
 PRISM was handed    33317109 working-precision words and  8343 shell-pairs
 IPart=  7 NShTot=         417 NBatch=          52 AvBLen=         8.0
 PRISM was handed    33317109 working-precision words and  8343 shell-pairs
 IPart= 12 NShTot=         404 NBatch=          44 AvBLen=         9.2
 IPart= 17 NShTot=         395 NBatch=          38 AvBLen=        10.4
 IPart=  5 NShTot=         428 NBatch=          61 AvBLen=         7.0
 IPart= 14 NShTot=         399 NBatch=          39 AvBLen=        10.2
 IPart=  4 NShTot=         436 NBatch=          64 AvBLen=         6.8
 IPart=  8 NShTot=         413 NBatch=          50 AvBLen=         8.3
 IPart=  2 NShTot=         451 NBatch=          75 AvBLen=         6.0
 IPart= 10 NShTot=         411 NBatch=          50 AvBLen=         8.2
 IPart=  9 NShTot=         411 NBatch=          50 AvBLen=         8.2
 IPart= 13 NShTot=         400 NBatch=          40 AvBLen=        10.0
 IPart= 11 NShTot=         409 NBatch=          48 AvBLen=         8.5
 IPart=  1 NShTot=         458 NBatch=          81 AvBLen=         5.7
 IPart=  6 NShTot=         426 NBatch=          60 AvBLen=         7.1
 PrSmSu:  NxtVal=             81.
 Entering OneElI...
 Calculate potential energy integrals
    NBasis = 395  MinDer = 2  MaxDer = 2
 Requested accuracy = 0.1000D-12
 PrmmSu-InSpLW:  IPartL=    0 NPrtUS=   20 NPrtUL=    1 DoSpLW=F IThBeg=    0 IThEnd=   19 NThAct=   20.
 PrsmSu:  NPrtUS=  20 ThrOK=T IAlg=1 NPAlg=1 LenDen=           0 ISkipM=0 DoSpLW=F IThBeg=    0 IThEnd=   19.
 Prism:   IPart=     0 DynPar=F LinDyn=F Incr=          63.
 PRISM was handed    33359472 working-precision words and  7492 shell-pairs
 PRISM was handed    33359472 working-precision words and  7492 shell-pairs
 PRISM was handed    33359472 working-precision words and  7492 shell-pairs
 PRISM was handed    33359472 working-precision words and  7492 shell-pairs
 PRISM was handed    33359472 working-precision words and  7492 shell-pairs
 PRISM was handed    33359472 working-precision words and  7492 shell-pairs
 PRISM was handed    33359472 working-precision words and  7492 shell-pairs
 PRISM was handed    33359472 working-precision words and  7492 shell-pairs
 PRISM was handed    33359472 working-precision words and  7492 shell-pairs
 PRISM was handed    33359472 working-precision words and  7492 shell-pairs
 PRISM was handed    33359472 working-precision words and  7492 shell-pairs
 PRISM was handed    33359472 working-precision words and  7492 shell-pairs
 PRISM was handed    33359472 working-precision words and  7492 shell-pairs
 PRISM was handed    33359472 working-precision words and  7492 shell-pairs
 PRISM was handed    33359472 working-precision words and  7492 shell-pairs
 PRISM was handed    33359472 working-precision words and  7492 shell-pairs
 PRISM was handed    33359472 working-precision words and  7492 shell-pairs
 PRISM was handed    33359472 working-precision words and  7492 shell-pairs
 PRISM was handed    33359472 working-precision words and  7492 shell-pairs
 PRISM was handed    33359472 working-precision words and  7492 shell-pairs
 IPart=  0 NShTot=        7021 NBatch=         413 AvBLen=        17.0
 IPart= 16 NShTot=        6035 NBatch=         355 AvBLen=        17.0
 IPart= 18 NShTot=        5950 NBatch=         350 AvBLen=        17.0
 IPart= 19 NShTot=        5950 NBatch=         350 AvBLen=        17.0
 IPart=  5 NShTot=        6596 NBatch=         388 AvBLen=        17.0
 IPart=  7 NShTot=        6426 NBatch=         378 AvBLen=        17.0
 IPart=  9 NShTot=        6307 NBatch=         371 AvBLen=        17.0
 IPart=  2 NShTot=        6885 NBatch=         405 AvBLen=        17.0
 IPart= 12 NShTot=        6188 NBatch=         364 AvBLen=        17.0
 IPart=  4 NShTot=        6681 NBatch=         393 AvBLen=        17.0
 IPart=  6 NShTot=        6596 NBatch=         388 AvBLen=        17.0
 IPart= 17 NShTot=        5967 NBatch=         351 AvBLen=        17.0
 IPart= 10 NShTot=        6256 NBatch=         368 AvBLen=        17.0
 IPart=  3 NShTot=        6766 NBatch=         398 AvBLen=        17.0
 IPart=  8 NShTot=        6375 NBatch=         375 AvBLen=        17.0
 IPart= 13 NShTot=        6120 NBatch=         360 AvBLen=        17.0
 IPart= 15 NShTot=        6035 NBatch=         355 AvBLen=        17.0
 IPart=  1 NShTot=        6936 NBatch=         408 AvBLen=        17.0
 IPart= 11 NShTot=        6222 NBatch=         366 AvBLen=        17.0
 IPart= 14 NShTot=        6052 NBatch=         356 AvBLen=        17.0
 PrSmSu:  NxtVal=           1261.
 Polarizability after L701:
                1             2             3 
      1  0.000000D+00
      2  0.000000D+00  0.000000D+00
      3  0.000000D+00  0.000000D+00  0.000000D+00
 Dipole Derivatives after L701:
                 1             2             3             4             5 
      1  -0.220634D+00 -0.132664D-01 -0.718922D-02  0.621032D+00  0.130483D+01
      2  -0.362869D-01 -0.732704D-01 -0.697286D-01 -0.441630D-01 -0.100415D+01
      3   0.321147D-01 -0.103050D+00 -0.185701D+00  0.100443D-01  0.169224D+00
                 6             7             8             9            10 
      1  -0.278819D+00  0.631680D-01 -0.536179D-01  0.665573D+00 -0.170790D+01
      2   0.149145D+00 -0.146760D+00  0.513467D-01  0.894258D-01  0.158784D+00
      3  -0.443121D+00  0.447225D-01 -0.467992D-02 -0.605936D+00  0.562059D-01
                11            12            13            14            15 
      1   0.673705D+00 -0.221482D+00 -0.986808D+00 -0.808927D+00 -0.336353D+00
      2  -0.101593D+01  0.318059D-01 -0.907440D-01 -0.133523D+01 -0.137641D+00
      3  -0.525040D-01 -0.954480D+00  0.425550D-02  0.995295D-01 -0.827834D+00
                16            17            18            19            20 
      1  -0.692767D+00  0.256179D-01  0.166446D+00 -0.285767D+00 -0.511938D+00
      2   0.337974D-01 -0.484163D+00  0.190996D+00 -0.689966D-01 -0.636457D+00
      3  -0.703341D-01  0.192685D+00 -0.412018D-01  0.317836D-01  0.143643D+00
                21            22            23            24            25 
      1  -0.695515D-01  0.123208D+00  0.290248D-01 -0.418453D+00  0.687043D-01
      2   0.157508D+00  0.151986D-01  0.162128D+00 -0.787325D-02  0.512472D-01
      3   0.295857D-01  0.172629D-01 -0.485477D-03  0.592674D+00  0.283528D-01
                26            27            28            29            30 
      1  -0.876833D+00 -0.326841D+00  0.120819D+01  0.493834D+00 -0.513172D+00
      2   0.839694D+00  0.281695D+00 -0.619241D-01  0.791767D-01  0.129716D-01
      3   0.179348D+00  0.192599D+00 -0.196775D+00 -0.100526D+00  0.200512D+00
                31            32            33            34            35 
      1   0.359749D+00 -0.949442D-01  0.101376D+01  0.273167D+00  0.530380D-01
      2  -0.887707D-01  0.130088D+00 -0.323798D+00  0.131046D+00  0.151957D+00
      3   0.972064D-01 -0.356866D-01  0.578994D+00  0.139833D+00  0.322075D-01
                36            37            38            39            40 
      1   0.645822D+00 -0.156774D-02  0.842011D-01 -0.118518D-02  0.778301D+00
      2   0.502335D+00 -0.717176D+00  0.450656D+00 -0.997165D-01  0.547875D+00
      3   0.637159D+00  0.172013D-01  0.125823D-01  0.121624D+00 -0.146315D+00
                41            42            43            44            45 
      1   0.482301D+00 -0.449561D+00  0.541656D-01 -0.269694D+00  0.450374D-01
      2   0.500894D+00 -0.359605D+00  0.112529D+00  0.550305D+00 -0.949298D-01
      3  -0.926304D-01  0.210256D+00 -0.187552D-01 -0.132213D+00  0.550692D-01
                46            47            48            49            50 
      1   0.289647D+00  0.956870D+00 -0.268731D+00  0.561099D-01 -0.147420D+01
      2   0.120386D+00  0.822455D+00 -0.194063D+00  0.839593D-01  0.810504D+00
      3  -0.231614D-01 -0.158901D+00  0.132485D+00 -0.236422D-01 -0.148543D+00
                51 
      1   0.354702D+00
      2  -0.128527D+00
      3   0.307316D+00
 Hessian after L701:
                1             2             3             4             5 
      1  0.316195D+01
      2  0.512672D+00  0.142078D+02
      3  0.957437D+00  0.165467D+01  0.176460D+02
      4  0.480384D+00 -0.184512D+00  0.592349D-01  0.607930D+01
      5 -0.126884D+00 -0.201237D+00 -0.584687D-02  0.280577D+01  0.774182D+01
      6  0.611473D-01 -0.126196D-01 -0.209887D+00 -0.908924D+00  0.171517D+01
      7 -0.246929D+01  0.323676D+01 -0.253327D+01  0.159648D+00  0.495152D-02
      8  0.305745D+01 -0.708744D+01 -0.154159D+01  0.609122D-02 -0.777073D-01
      9 -0.243346D+01 -0.151300D+01 -0.836414D+01  0.935713D-02  0.872107D-02
     10  0.398173D+00 -0.165731D+00  0.324542D-01  0.620630D-01 -0.981535D-02
     11 -0.122404D+00 -0.197973D+00  0.522564D-01 -0.753968D-02 -0.371521D-01
     12  0.115693D-01  0.553926D-01 -0.203884D+00 -0.234631D-02 -0.526533D-03
     13 -0.171938D+00  0.321582D+00  0.238969D+00  0.125687D+00  0.727825D-01
     14  0.278015D+00  0.594114D+00  0.277990D+00  0.162988D-01 -0.678923D-01
     15  0.167075D+00  0.181127D+00 -0.168790D+00 -0.725202D-03  0.743946D-03
     16 -0.178097D+01 -0.392273D+01  0.106280D+01  0.300945D+00  0.195615D+00
     17 -0.379901D+01 -0.745300D+01 -0.755889D+00  0.123597D+00 -0.113218D+00
     18  0.106514D+01 -0.760234D+00 -0.914549D+01  0.107507D-01  0.102760D+00
     19  0.188889D-01  0.469956D-02  0.862226D-01 -0.162001D+01 -0.375661D+01
     20  0.426188D-02 -0.551989D-01  0.157593D-01 -0.393135D+01 -0.613620D+01
     21  0.123769D-01  0.455902D-01  0.170352D+00  0.111665D+01 -0.643493D+00
     22 -0.963019D-01 -0.270551D+00  0.242401D+00  0.150848D-01  0.160261D-02
     23 -0.243184D+00  0.436706D-01  0.193359D+00 -0.140104D-02 -0.940148D-02
     24  0.265835D+00  0.229668D+00  0.404476D+00 -0.273411D-01 -0.530159D-02
     25  0.831132D-01 -0.388617D-01 -0.105909D-01  0.898063D-02 -0.326197D-02
     26 -0.104624D+00 -0.263775D-01  0.135143D-01 -0.182931D-01 -0.331652D-02
     27 -0.392365D-01  0.118459D-01 -0.601402D-01 -0.623149D-02  0.565249D-03
     28  0.137419D+00  0.456060D-01 -0.572508D-01  0.162725D-01  0.316014D-02
     29  0.353619D-01 -0.380725D-01 -0.927795D-02  0.297242D-02 -0.264188D-02
     30 -0.536014D-01 -0.115479D-01 -0.261851D-01 -0.460434D-02 -0.121777D-02
     31  0.102960D+00 -0.217847D-01  0.130405D-01  0.130469D-01 -0.476274D-03
     32 -0.256795D-01 -0.542161D-01 -0.378309D-02 -0.344780D-02 -0.478270D-02
     33  0.718765D-01 -0.845313D-02 -0.412869D-01  0.156396D-01  0.164917D-02
     34 -0.303177D-02  0.851161D-01  0.181535D-01  0.177222D-01  0.896537D-02
     35  0.678186D-01  0.528778D-01  0.209309D-01  0.703918D-02 -0.492409D-02
     36  0.413977D-01  0.679479D-01 -0.338641D-01  0.213451D-01  0.971573D-02
     37 -0.439420D-01 -0.340199D-01  0.130948D-01 -0.689385D-02  0.964470D-03
     38  0.360417D-01  0.869686D-01  0.604464D-01  0.279509D-01  0.125363D-02
     39  0.504324D-02  0.325394D-01 -0.530147D-01 -0.378378D-02 -0.190388D-02
     40  0.398309D-01  0.104735D+00 -0.369031D-01  0.195695D-01  0.124772D-01
     41  0.960378D-01  0.666681D-01 -0.432136D-01  0.121316D-01  0.839483D-03
     42 -0.377787D-01 -0.459652D-01 -0.289736D-01 -0.712579D-02 -0.391256D-02
     43 -0.740149D-02  0.328846D+00 -0.108492D+00  0.288015D-01  0.515356D-01
     44  0.303735D+00  0.104055D+00  0.762713D-01  0.821536D-01  0.604112D-02
     45 -0.103022D+00  0.832421D-01  0.210561D+00 -0.133296D-01 -0.111061D-01
     46  0.135664D+00  0.179391D-01  0.177467D-01 -0.669095D-01  0.207826D+00
     47  0.921186D-01 -0.601233D-01  0.353798D-02  0.169451D+00 -0.313893D-01
     48 -0.812806D-02 -0.117262D-02 -0.807495D-01 -0.481886D-01  0.354726D-01
     49  0.144948D-01 -0.197620D-01  0.495184D-02 -0.563370D+01  0.531400D+00
     50 -0.617323D-01  0.175193D-01 -0.913020D-02  0.893093D+00 -0.106009D+01
     51  0.163325D-01 -0.902497D-02 -0.150351D-01 -0.210375D+00 -0.120149D+01
                6             7             8             9            10 
      6  0.141051D+02
      7 -0.141417D-01  0.152001D+02
      8  0.275744D-02 -0.181403D+01  0.186056D+02
      9 -0.778661D-01  0.170649D+01  0.738714D+00  0.216346D+02
     10 -0.556167D-03 -0.272418D+01 -0.209643D+01  0.625766D+00  0.117161D+02
     11 -0.535228D-03 -0.205248D+01 -0.477940D+01 -0.361962D+00  0.165506D+01
     12 -0.385893D-01  0.610094D+00 -0.371468D+00 -0.594452D+01 -0.285880D+00
     13  0.745487D-02 -0.642292D+01  0.693514D+00  0.235755D+00  0.102439D-01
     14  0.445522D-02  0.623031D+00 -0.201731D+01  0.127888D+01 -0.122134D+00
     15 -0.658102D-01  0.226446D+00  0.127041D+01 -0.606722D+01 -0.120855D-02
     16  0.407147D-01  0.344856D+00  0.463034D-01 -0.488959D-01  0.271836D+00
     17  0.106261D+00 -0.597034D-01 -0.894541D-01  0.764265D-01 -0.115617D+00
     18  0.262594D+00 -0.506179D-01  0.688836D-01  0.363670D-01  0.103100D-01
     19  0.101554D+01  0.221811D+00  0.775239D-01 -0.487395D-01  0.983678D-01
     20 -0.652505D+00  0.666667D-01 -0.110802D+00  0.416887D-02 -0.102153D-01
     21 -0.819002D+01 -0.936176D-01 -0.363914D-02 -0.829567D-01 -0.713941D-02
     22 -0.976010D-02 -0.449719D+01  0.398105D-01  0.290840D-02 -0.421509D-01
     23  0.473861D-03  0.386522D-01 -0.450828D+01 -0.126861D+00  0.409833D-01
     24 -0.579608D-03  0.121025D+00 -0.762697D-01 -0.136386D+01 -0.107241D+00
     25 -0.768095D-03  0.568219D-01  0.619459D-01  0.327647D-02 -0.392690D+01
     26  0.189571D-02 -0.713750D-02 -0.256126D-02  0.418545D-01  0.269497D+00
     27 -0.406128D-02 -0.694657D-02  0.403310D-01  0.531568D-01  0.737869D-01
     28 -0.230573D-02 -0.903893D-01 -0.383767D-01  0.201542D-01 -0.214258D+01
     29 -0.485498D-03  0.134601D-01  0.795515D-01 -0.277894D-01  0.716533D+00
     30 -0.291734D-02  0.150554D-01 -0.159670D-01  0.497381D-01 -0.783859D+00
     31  0.251757D-02  0.568986D-01  0.194757D-01 -0.712980D-01 -0.376415D+01
     32 -0.374220D-03  0.180880D-01  0.388534D-01  0.649080D-01 -0.158640D-01
     33 -0.232373D-02 -0.711177D-02  0.252638D-01  0.418132D-01  0.449520D+00
     34  0.564427D-02  0.745851D-01 -0.166726D-01 -0.117397D-02 -0.102863D-01
     35  0.148371D-02 -0.117230D-01 -0.341097D-01 -0.133792D+00 -0.710644D-02
     36 -0.226967D-02  0.158185D-01 -0.803868D-01  0.299942D-01 -0.314780D-02
     37  0.181975D-02  0.735230D-01  0.121064D-01  0.386955D-01  0.466609D-01
     38  0.903469D-03  0.109678D+00 -0.536940D-02 -0.441668D-01 -0.129358D+00
     39 -0.134949D-01  0.479724D-01 -0.390726D-01  0.616063D-01 -0.134961D-02
     40 -0.295647D-02 -0.293835D-01 -0.670990D-01 -0.253179D-01 -0.742585D-02
     41 -0.122395D-02 -0.115974D+00  0.977312D-02  0.476835D-02  0.113260D-01
     42 -0.425287D-02 -0.205242D-01 -0.137414D-01  0.516728D-01 -0.373748D-02
     43 -0.113724D-01  0.160526D-01  0.618905D-02 -0.112235D-01  0.160579D-03
     44 -0.139546D-01 -0.572751D-01 -0.246433D-01 -0.412977D-02 -0.238672D-01
     45 -0.524071D-01 -0.956372D-02  0.342366D-02 -0.386057D-01  0.447039D-02
     46 -0.620028D-01  0.182768D-01  0.167954D-01 -0.346616D-02  0.108605D-01
     47  0.436022D-01  0.326214D-01  0.548787D-02  0.906531D-03  0.133562D-01
     48  0.490456D-01 -0.119347D-01 -0.672738D-02 -0.140283D-01 -0.451852D-02
     49 -0.122049D+00  0.107893D-01 -0.459200D-02  0.117287D-02  0.318483D-02
     50 -0.119531D+01 -0.255812D-01 -0.217465D-02 -0.764918D-02 -0.106111D-01
     51 -0.575228D+01  0.482916D-02 -0.920682D-03 -0.570400D-02  0.233092D-02
               11            12            13            14            15 
     11  0.138237D+02
     12  0.390006D-01  0.148634D+02
     13 -0.203411D+00 -0.238649D-01  0.142672D+02
     14  0.105585D+00  0.413237D-01 -0.487998D+00  0.119394D+02
     15  0.788067D-02 -0.115650D+00 -0.226734D+00 -0.564737D+00  0.157551D+02
     16 -0.931581D-01 -0.128535D-01  0.113156D+00  0.264977D-01 -0.623254D-01
     17 -0.116123D+00  0.598856D-02  0.161576D+00 -0.490041D-01  0.143975D-02
     18  0.208101D-02 -0.141194D+00 -0.620957D-01 -0.161568D-01 -0.105417D+00
     19  0.280606D-02 -0.779799D-02  0.114549D+00  0.890485D-01 -0.200810D-01
     20 -0.603845D-01  0.590836D-03  0.108904D+00 -0.411944D-01 -0.245951D-02
     21 -0.213479D-03 -0.560434D-01 -0.188926D-01  0.214775D-03 -0.841822D-01
     22  0.373940D-01 -0.110338D+00  0.298358D+00 -0.652856D-01 -0.742202D-01
     23  0.592288D-01  0.486775D-01 -0.866731D-01  0.762686D-01 -0.327266D+00
     24  0.327093D-01 -0.527198D-02 -0.125768D+00 -0.399565D+00 -0.147621D+00
     25  0.647049D-01  0.164773D-02 -0.408378D-01 -0.644454D-01 -0.119211D-01
     26 -0.164810D+01  0.814464D+00 -0.548528D-01  0.164988D+00  0.392804D-01
     27  0.801111D+00 -0.357535D+01 -0.131346D-01  0.465201D-01 -0.426714D-01
     28  0.850895D+00 -0.837451D+00  0.543301D-01 -0.594880D-01 -0.276304D-01
     29 -0.343347D+01 -0.334358D+00 -0.418439D-01 -0.567394D-02  0.151531D-01
     30 -0.373652D+00 -0.335433D+01 -0.375115D-01  0.236147D-01 -0.284393D-01
     31 -0.161597D-01  0.662778D+00 -0.678379D-02  0.250931D-01 -0.603154D-02
     32 -0.382480D+01 -0.296317D+00  0.111911D-01 -0.170747D-01  0.766992D-02
     33 -0.199239D+00 -0.135106D+01  0.648808D-02  0.393108D-02  0.174830D-01
     34 -0.917043D-02 -0.323818D-03 -0.369904D+01  0.242203D-01  0.641875D+00
     35  0.173361D-02  0.581397D-02  0.645422D-01 -0.390900D+01  0.260119D+00
     36  0.243733D-01  0.597498D-02  0.570504D+00  0.799449D-01 -0.143302D+01
     37 -0.118224D+00 -0.300361D-02 -0.228486D+01 -0.113762D+01  0.246829D+00
     38  0.957131D-01  0.185432D-02 -0.145474D+01 -0.355962D+01 -0.204128D+00
     39 -0.342106D-03 -0.505315D-01  0.252293D+00 -0.166815D+00 -0.424937D+01
     40  0.147325D-01 -0.266505D-02 -0.247578D+01  0.889800D+00 -0.854445D+00
     41  0.135578D-01 -0.584745D-02  0.976334D+00 -0.316100D+01 -0.669174D+00
     42 -0.179706D-01 -0.907756D-02 -0.827903D+00 -0.594414D+00 -0.319912D+01
     43 -0.682952D-02  0.253784D-02  0.102598D+00 -0.423162D-01  0.446250D-02
     44 -0.299145D-03 -0.230311D-02 -0.834944D-01 -0.538338D-01 -0.124768D-01
     45 -0.297099D-02 -0.135895D-01  0.215942D-01 -0.127230D-01 -0.510527D-01
     46  0.569472D-02 -0.225397D-02  0.634977D-02  0.755494D-02 -0.253503D-02
     47  0.627086D-03 -0.286686D-02  0.217969D-01  0.123517D-02 -0.514642D-02
     48 -0.234850D-02 -0.672191D-02 -0.433307D-02 -0.749803D-03 -0.688400D-02
     49 -0.190529D-02  0.151779D-03  0.968092D-02 -0.269244D-03  0.116919D-02
     50 -0.249354D-02  0.581052D-03 -0.192034D-01  0.406121D-04  0.156372D-02
     51 -0.177904D-03 -0.357141D-02  0.718057D-02 -0.171912D-02 -0.729164D-02
               16            17            18            19            20 
     16  0.758308D+01
     17  0.705147D+00  0.186779D+02
     18 -0.240242D+00  0.260269D+01  0.274130D+02
     19 -0.226996D+01  0.326626D+01 -0.793485D+00  0.749907D+01
     20  0.321261D+01 -0.886577D+01 -0.143571D+01  0.316075D+00  0.172493D+02
     21 -0.728540D+00 -0.144645D+01 -0.140158D+02 -0.160264D+00  0.266934D+01
     22 -0.281919D-01  0.236231D-01 -0.676673D-02  0.120493D+00  0.256235D-01
     23  0.172341D-01 -0.815941D-01 -0.639415D-02  0.235574D-01 -0.336326D-01
     24 -0.672166D-01 -0.151905D-01 -0.510676D-01 -0.835788D-01 -0.105489D-01
     25  0.884728D-02 -0.128430D-01 -0.122496D-02  0.119449D-01 -0.591124D-02
     26 -0.242811D-01  0.690386D-02  0.181237D-02 -0.221042D-01  0.342442D-03
     27 -0.800316D-02  0.674578D-02 -0.102019D-01 -0.922359D-02  0.346973D-02
     28  0.247375D-01 -0.365502D-02 -0.242556D-02  0.203293D-01  0.205633D-04
     29  0.255467D-02 -0.822048D-02 -0.370906D-03  0.404637D-02 -0.528436D-02
     30 -0.728716D-02  0.332292D-03 -0.747428D-02 -0.558226D-02  0.184936D-03
     31  0.177144D-01 -0.960629D-02  0.125154D-01  0.202347D-01 -0.325793D-02
     32 -0.748226D-02 -0.104594D-01 -0.263081D-02 -0.344674D-02 -0.671747D-02
     33  0.227611D-01 -0.732174D-02 -0.669838D-03  0.202995D-01 -0.286501D-02
     34  0.248962D-01  0.281035D-01  0.364443D-01  0.199529D-01  0.119963D-01
     35  0.279201D-01 -0.145089D-01  0.193351D-01  0.143752D-01 -0.339651D-02
     36  0.476099D-01  0.262800D-01  0.720181D-02  0.254850D-01  0.933642D-02
     37 -0.452622D-01 -0.391601D-01 -0.279415D-01 -0.473878D-02  0.120964D-01
     38  0.140686D-02  0.324180D-01 -0.301428D-01  0.446861D-01  0.201396D-01
     39 -0.266291D-01 -0.284040D-01 -0.298600D-02 -0.100506D-01 -0.837250D-02
     40  0.569060D-01  0.471668D-01 -0.102661D-01  0.185576D-01  0.101219D-01
     41  0.540419D-01  0.431154D-02 -0.427597D-02  0.152662D-01  0.805421D-03
     42 -0.145429D-01 -0.931764D-02 -0.200759D-01 -0.712234D-02 -0.266334D-02
     43 -0.459752D+01 -0.313092D-01  0.175565D-01 -0.282823D-01 -0.309130D+00
     44  0.961782D-01 -0.173744D+01 -0.623369D+00 -0.320796D+00 -0.222059D+00
     45 -0.140675D-01 -0.652771D+00 -0.450417D+01  0.719592D-01  0.813779D-01
     46  0.197433D-01 -0.392810D+00  0.691548D-01 -0.440368D+01  0.413924D+00
     47 -0.361361D+00 -0.135635D+00  0.610755D-01  0.308206D+00 -0.174464D+01
     48  0.625874D-01  0.722690D-01  0.271642D+00 -0.832025D-01 -0.700182D+00
     49 -0.448198D-01  0.108237D+00 -0.268023D-01  0.162472D+00  0.775621D-01
     50  0.235042D-01 -0.470597D-01  0.206427D-01 -0.635954D-01  0.146468D-01
     51 -0.587268D-02  0.169073D-01  0.137479D-01  0.962264D-02  0.310787D-01
               21            22            23            24            25 
     21  0.263089D+02
     22 -0.419636D-01  0.424279D+01
     23 -0.511293D-02  0.151664D+00  0.454854D+01
     24 -0.153939D-01 -0.768962D-01  0.225640D+00  0.976255D+00
     25 -0.282958D-02  0.308448D-02  0.359742D-01 -0.214338D-01  0.369956D+01
     26  0.371548D-02  0.322136D-01 -0.263000D-01  0.245966D-01  0.135410D+00
     27 -0.539009D-02 -0.148010D-01  0.261615D-01  0.780709D-02  0.834132D-01
     28 -0.389285D-02 -0.128747D-01  0.280160D-02  0.172576D-02  0.378671D-02
     29 -0.673025D-03  0.497118D-02  0.325998D-02  0.354426D-02 -0.147287D+00
     30 -0.342938D-02 -0.798590D-02  0.526253D-03  0.781503D-04 -0.629806D-02
     31  0.473999D-02  0.198625D-02 -0.218400D-01  0.751837D-01  0.889355D-01
     32 -0.261447D-03 -0.193118D-01 -0.184355D-01 -0.435189D-01 -0.229935D-01
     33 -0.339587D-02  0.579272D-01 -0.374067D-01  0.878158D-01 -0.322841D-01
     34  0.865899D-02 -0.322785D-01  0.151987D-01  0.363878D-01 -0.193864D-02
     35  0.431724D-02  0.118727D-01 -0.626334D-02  0.825682D-01 -0.879971D-03
     36 -0.267990D-02  0.238350D-01  0.674588D-01  0.125966D+00 -0.954095D-03
     37 -0.473676D-02  0.264319D-01  0.244239D-01  0.144935D-01 -0.270199D-03
     38 -0.885864D-02  0.303166D-01 -0.391129D-01 -0.625296D-01  0.393012D-02
     39 -0.162169D-01  0.225431D-01 -0.515808D-01 -0.122199D-01  0.874742D-03
     40 -0.404396D-02  0.318019D-03 -0.167233D-02  0.670117D-02 -0.132512D-02
     41 -0.256419D-02 -0.234862D-02 -0.481076D-02  0.492049D-02  0.101607D-03
     42 -0.424155D-02 -0.317297D-02 -0.429104D-02 -0.220199D-02 -0.174692D-03
     43  0.610832D-01 -0.637706D-02  0.103013D-02 -0.320943D-02  0.267876D-02
     44  0.684565D-01 -0.438220D-02 -0.346095D-02  0.116674D-01 -0.589325D-02
     45  0.152068D+00  0.612324D-03 -0.142604D-02 -0.463954D-02  0.225111D-03
     46 -0.113923D+00  0.560900D-02  0.371147D-02 -0.724449D-02  0.318694D-02
     47 -0.705187D+00  0.623859D-02  0.672769D-03 -0.909975D-02  0.212287D-02
     48 -0.424710D+01 -0.424410D-02 -0.201012D-02  0.239851D-02 -0.128110D-02
     49 -0.236651D-01  0.121318D-02 -0.460332D-03 -0.142261D-02  0.336292D-03
     50  0.248185D-01 -0.345108D-02 -0.347361D-03  0.670956D-02 -0.181291D-02
     51  0.955678D-01 -0.785530D-04  0.511849D-04 -0.193912D-02  0.323123D-03
               26            27            28            29            30 
     26  0.159660D+01
     27 -0.821454D+00  0.364678D+01
     28 -0.161645D+00  0.237814D-02  0.189281D+01
     29 -0.114315D+00  0.246412D-01 -0.554007D+00  0.343451D+01
     30  0.133637D-01  0.105095D+00  0.770671D+00  0.236803D+00  0.344844D+01
[...]
   yx        -0.676503D+01     -0.100247D+01     -0.111540D+01
   yy         0.608380D+02      0.901526D+01      0.100308D+02
   zx        -0.132093D+02     -0.195741D+01     -0.217792D+01
   zy         0.155851D+01      0.230947D+00      0.256963D+00
   zz         0.682796D+02      0.101180D+02      0.112578D+02

 ----------------------------------------------------------------------

 Test job not archived.
 1\1\GINC-C0288\Freq\RM062X\CC-pVTZ\C5H10O2\HARMS.N\28-Sep-2019\0\\#P G
 eom=AllCheck Guess=TCheck SCRF=Check Test GenChk RM062X/CC-pVTZ Freq\\
 Gaussian input prepared by ASE\\0,1\O,0.6975692321,-1.2647518362,-0.86
 82393235\O,2.8973216596,-1.4148349905,2.0156049223\C,-0.3150757307,-0.
 2979387978,-1.1558620862\C,-0.8646639639,-0.6509009455,-2.5209848945\C
 ,0.2541734553,1.1085508155,-1.1041649863\C,1.1040850084,-1.288412204,0
 .4355504531\C,2.3894050971,-1.289081553,0.7574522354\H,-1.1063052452,-
 0.4002131024,-0.4020403123\H,-1.2515697347,-1.6682233489,-2.5252751083
 \H,-1.6650318664,0.0340768657,-2.798351705\H,-0.0712569382,-0.57933617
 09,-3.2652641932\H,1.0397752042,1.2144324012,-1.8534174497\H,0.6814239
 213,1.3211780026,-0.1249184677\H,-0.5250937528,1.8423865635,-1.3091471
 413\H,0.3166871552,-1.3574752137,1.1856625558\H,3.1578646039,-1.209452
 3555,0.0020891161\H,2.1771361989,-1.5136293188,2.6451145992\\Version=E
 M64L-G16RevA.03\State=1-A\HF=-346.9419937\RMSD=2.428e-09\RMSF=8.577e-0
 7\ZeroPoint=0.1467693\Thermal=0.1554354\Dipole=-0.7500826,0.3601678,0.
 225711\DipoleDeriv=-0.8979312,0.2548442,-0.4314999,0.1990187,-0.553213
 9,0.17339,-0.7103801,0.2601399,-1.1353351,-0.5181548,0.0825788,-0.3026
 295,0.0983981,-0.370356,0.1064169,-0.8100506,0.1769331,-1.2196521,0.73
 88574,-0.1893142,0.325813,-0.2378268,0.652254,-0.2183218,0.1517702,-0.
 0921593,0.4617124,0.0381546,-0.0067544,-0.0698866,-0.016131,0.0249776,
 -0.0275833,-0.0734555,-0.0088202,-0.0514727,-0.0065631,-0.082694,-0.07
 48787,0.0007414,-0.1463894,0.0366826,-0.0385757,-0.037888,0.0096749,0.
 1838965,0.0395159,-0.0279288,0.0640992,-0.1815795,0.003754,0.5889312,-
 0.2562628,0.8728358,0.4611894,-0.0780032,0.2886579,-0.0536258,-0.08031
 9,-0.1015825,0.6773194,-0.1383857,0.9567637,-0.1003908,-0.0028458,0.03
 95388,-0.0213025,-0.0331131,0.06022,0.1197403,0.0102694,-0.1156525,0.0
 500551,-0.0592341,-0.0086124,-0.0836551,-0.0919054,-0.0369408,-0.00407
 54,0.005723,0.0382428,-0.0350544,0.0791144,-0.0550216,0.1037745,-0.014
 404,0.0369407,-0.0329976,0.0080951,0.0264043,-0.037636,-0.0151869,0.11
 19964,-0.0295626,0.0634388,0.0064102,0.0377362,-0.0012083,-0.0222538,-
 0.0231186,-0.0366241,0.0834659,0.0077239,0.0437112,-0.0270171,0.083843
 3,0.0257083,-0.0247714,0.0308883,-0.051789,-0.0524394,-0.0449774,0.052
 4562,-0.0347489,-0.0592896,-0.0439065,-0.0770223,-0.038581,0.1054982,-
 0.0269268,0.0828279,-0.0256731,0.0476328,-0.0285472,0.0421428,0.064334
 2,-0.0282071,-0.0168203,0.0970818,-0.0522326,0.1724536,-0.0284297,0.00
 56838,0.0464566,-0.1119645,0.0479414,-0.0093497,0.0418542,-0.0043206,0
 .1668044,0.0107062,0.0287892,0.01987,-0.0153413,0.1346542,-0.0129357,0
 .0614157,-0.0129492,0.3208576,-0.0075292,0.0635581,-0.0167076,0.343497
 6\Polar=76.1141611,-3.4702328,58.166042,13.1002186,-4.7979472,73.08630
 59\Quadrupole=-1.3387445,-1.5142069,2.8529514,0.2700363,-2.219363,-1.5
 161187\PG=C01 [X(C5H10O2)]\NImag=0\\0.28771706,-0.13973858,0.21528996,
 0.12280468,-0.01711214,0.45129620,-0.00914108,0.00181493,-0.00653836,0
 .46985335,0.00226023,0.01343629,0.00608130,0.03020056,0.03769242,-0.01
 289711,0.00217333,-0.01391960,-0.12131595,-0.06933009,0.58728109,-0.13
 649949,0.06783211,-0.01259789,0.00303943,-0.00157745,0.00750416,0.5301
 2029,0.07526773,-0.13078184,0.00911268,-0.00311544,0.00100261,-0.00346
 497,0.03210243,0.47549390,0.00556935,-0.00846735,-0.08449170,-0.000448
 35,-0.00215399,0.00065807,-0.04996798,0.00844637,0.58607014,-0.0194980
 6,0.00299831,-0.03664048,-0.00071775,-0.00013368,-0.00064086,-0.090432
 44,-0.01257699,-0.02828520,0.57653145,0.01672456,0.00089124,0.03032874
 ,0.00086315,0.00018932,0.00106956,-0.01788920,-0.08692740,-0.03869751,
 -0.00872260,0.59141932,-0.01072923,0.00287279,-0.01282928,0.00000390,-
 0.00005131,0.00008551,-0.03951909,-0.02997612,-0.19111109,-0.02408880,
 -0.02054860,0.50655947,0.00293693,0.03766219,-0.00578276,-0.00053992,-
 0.00018306,-0.00125791,-0.10353472,-0.05866133,-0.00075420,-0.00522794
 ,-0.01471953,-0.00133169,0.57179712,0.00574451,-0.03789655,0.00591629,
 0.00044624,-0.00033903,0.00112337,-0.05013501,-0.17220083,-0.00418473,
 -0.00806238,-0.00976411,-0.00569119,-0.03782924,0.49758520,-0.00141727
 ,0.01047722,0.00147666,0.00004204,-0.00027146,-0.00025816,0.00046355,-
 0.00320394,-0.08447338,-0.01389936,-0.03254232,-0.00213565,0.00435749,
 0.00020242,0.58477111,-0.10269468,0.01816567,-0.04766113,-0.00670642,-
 0.00112125,-0.01371136,-0.02094001,0.00388602,-0.03593955,-0.00414634,
 0.00454641,-0.00105594,0.00197739,0.00018742,0.00135624,0.90117394,0.0
 1084049,-0.05138304,-0.01662392,0.00522452,0.00343599,0.00377255,0.006
 92437,-0.00275006,0.02692389,0.00162500,-0.00206605,0.00028848,0.00260
 453,-0.00224314,0.00163028,-0.01280333,0.13280792,-0.06860928,0.005903
 98,-0.29613706,-0.04450599,-0.00022602,-0.01296246,-0.02343992,0.01711
 160,-0.02379129,0.00108998,-0.00009960,-0.00020929,0.00457505,-0.00229
 394,0.00209360,0.05887586,-0.03557238,0.62079343,-0.00676011,0.0001795
 0,-0.01451949,-0.14512604,0.01088094,-0.10335450,0.00027637,-0.0014547
 7,0.00201193,0.00073975,-0.00035992,-0.00002728,0.00054011,-0.00073979
 ,-0.00050120,-0.55202021,-0.00031485,-0.07896972,0.92240928,-0.0018789
 6,0.00049997,-0.00574201,0.00264261,-0.04039325,0.02627241,0.00329305,
 -0.00166818,0.00236080,0.00023424,-0.00013498,0.00012251,-0.00013832,0
 .00032438,-0.00039867,0.00329981,-0.05164350,0.00992774,0.01000519,0.1
 2911940,-0.04412067,0.00297460,-0.01351820,-0.05530028,0.02862359,-0.2
 9825008,-0.00245276,-0.00411155,-0.00336579,-0.00135310,0.00086672,0.0
 0002494,0.00041728,-0.00052455,0.00052599,-0.07962789,0.00489688,-0.13
 836262,0.02368982,-0.05428223,0.66901209,-0.03191797,0.01324797,0.0097
 9732,-0.00026763,0.00016890,-0.00053840,-0.16872240,-0.02273916,0.1172
 6297,0.01054402,0.00060056,-0.00937901,-0.00829788,-0.00411236,0.00997
 465,0.00145413,-0.00054745,0.00652291,-0.00000681,-0.00012640,-0.00095
 633,0.19553295,0.02975776,-0.00556187,-0.01218016,0.00018771,-0.000166
 86,0.00031512,-0.02420654,-0.05291604,0.02235431,0.00476903,0.00117042
 ,-0.00662620,-0.02384970,-0.00464234,0.02209609,-0.00066616,0.00059435
 ,-0.00485704,0.00008648,0.00004551,0.00034001,0.01580843,0.06396778,-0
 .00578752,-0.00058983,0.00503997,0.00011172,0.00017335,0.00009185,0.12
 076954,0.01941579,-0.17042597,0.02064767,0.00299434,-0.02220015,-0.001
 14042,-0.00094029,0.00136162,-0.00296548,0.00017483,0.00312246,-0.0001
 7868,-0.00009935,0.00018917,-0.12928195,-0.02016922,0.18345843,0.00071
 092,0.00015997,0.00110219,0.00009463,-0.00003952,0.00018211,-0.0057534
 9,-0.01095671,0.00071745,-0.08177444,-0.09027323,0.00124322,-0.0004863
 5,0.00016296,-0.00263461,-0.00001010,0.00019043,-0.00030702,-0.0000297
 0,0.00004587,0.00000382,0.00034850,0.00068268,-0.00000414,0.08413574,0
 .00038286,0.00128935,0.00057194,-0.00003816,-0.00001271,-0.00012807,-0
 .00165052,-0.00829078,0.00115788,-0.09173507,-0.28651874,0.00084866,-0
 .00026208,0.00070710,-0.00246888,-0.00007164,0.00031765,-0.00001511,0.
 00011839,0.00007165,0.00012617,0.00027836,0.00035692,-0.00037912,0.100
 33591,0.30937818,0.00200146,0.00049105,0.00217067,0.00009736,-0.000026
 46,0.00014195,-0.01181096,-0.03152110,0.00021839,0.00180467,0.00400715
 ,-0.04740843,-0.00231871,0.00009204,-0.00579167,0.00013818,0.00006862,
 -0.00022335,0.00002636,0.00003001,0.00003588,0.00072381,0.00022026,0.0
 0130267,0.00012578,-0.00005988,0.05078963,-0.00028583,-0.00042841,-0.0
 0370662,-0.00019090,-0.00000823,-0.00032713,-0.00880557,0.00740626,0.0
 0136224,-0.19339522,0.12491565,-0.05101679,0.00008415,0.00043282,0.000
 57353,-0.00002470,0.00026826,0.00057792,0.00010403,-0.00000670,-0.0000
 0140,0.00040222,-0.00017649,-0.00027363,0.01005795,-0.00746058,0.00387
 909,0.20775583,-0.00090540,0.00074335,-0.00126705,0.00000999,-0.000121
 15,0.00006202,-0.00650606,0.00319466,-0.00102831,0.12661875,-0.1554247
 2,0.04288349,0.00001193,-0.00011376,-0.00001098,-0.00032533,0.00064828
 ,-0.00057562,0.00003260,0.00008687,-0.00005799,0.00020968,0.00020889,0
 .00049791,0.02283645,-0.01658268,0.00729138,-0.13847632,0.16581187,-0.
 00351148,-0.00065204,-0.00787986,-0.00038071,-0.00005450,-0.00050429,-
 0.02002090,0.02066041,-0.00244859,-0.04930455,0.04063199,-0.06461956,0
 .00031210,0.00047579,0.00092723,-0.00163523,0.00054895,0.00103979,0.00
 022378,0.00009120,-0.00036471,0.00106480,0.00035319,0.00060881,0.00073
 763,-0.00015616,-0.00124015,0.05660433,-0.04606557,0.06800696,0.001434
 90,-0.00077155,0.00111529,0.00008983,-0.00001495,0.00014489,0.00817590
 ,0.00082213,-0.00899125,-0.19253671,-0.01405182,0.13495590,0.00102551,
 0.00069485,-0.00037488,0.00018505,0.00003848,-0.00058128,-0.00006897,0
 .00000720,0.00006929,-0.00001115,-0.00041246,-0.00257881,-0.00801859,0
 .00023019,0.00636117,-0.01607618,-0.00304205,0.01552764,0.20590643,-0.
 00029517,0.00008042,0.00061113,-0.00003338,0.00001279,-0.00009028,0.00
 677507,-0.00059657,-0.00559801,-0.01472126,-0.04893644,0.01255483,0.00
 125316,0.00039008,-0.00041389,0.00008209,-0.00014318,0.00015126,-0.000
 01763,-0.00002393,0.00006306,-0.00071323,0.00033915,-0.00151901,-0.022
 30922,-0.00059794,0.02111888,0.01425978,0.00137433,-0.01522553,0.01616
 643,0.04816759,0.00038420,-0.00034922,0.00279904,-0.00001442,-0.000030
 37,-0.00001543,0.02502182,0.00155748,-0.02542330,0.13262399,0.01251082
 ,-0.16834530,0.00090749,0.00138761,0.00129385,-0.00017671,0.00013724,-
 0.00003480,-0.00000927,0.00002286,0.00017270,-0.00325943,-0.00146067,-
 0.00456640,-0.00102222,0.00015528,0.00000653,-0.00724931,-0.00150902,0
 .00660015,-0.14598818,-0.01170764,0.18639739,0.00218357,0.00047136,-0.
 00065741,0.00006008,-0.00000569,0.00007780,-0.01242352,-0.00088956,0.0
 0989515,0.00029866,0.00080948,0.00055014,-0.18466036,-0.01699018,0.132
 11822,-0.00018982,-0.00027947,-0.00014605,-0.00010495,-0.00009606,0.00
 004521,0.00024428,-0.00262564,-0.00056197,0.00036044,0.00014332,-0.000
 27847,-0.00007036,-0.00008002,0.00004528,0.00001122,-0.00042434,-0.000
 70253,0.19921972,0.00086166,0.00334972,-0.00141619,-0.00002341,0.00002
 862,-0.00014324,-0.02585934,-0.00502443,0.02323305,0.00050360,0.001409
 44,0.00154104,-0.01528576,-0.04776364,0.01520517,0.00017575,0.00000462
 ,0.00049890,-0.00003889,-0.00002541,0.00010937,-0.00226137,-0.00575164
 ,-0.00045563,0.00039089,0.00013559,0.00000093,0.00005325,0.00000528,-0
 .00012995,0.00025917,0.00000422,-0.00083061,0.02162957,0.05180486,-0.0
 0077753,0.00012505,0.00001284,-0.00016696,-0.00002525,-0.00020176,-0.0
 0017633,0.00040533,-0.00032549,-0.00102503,-0.00012333,0.00105042,0.13
 310213,0.01594663,-0.17556385,-0.00018114,0.00017566,-0.00009373,0.000
 35526,0.00007351,0.00017034,-0.00038516,-0.00034601,0.00104840,-0.0000
 6776,0.00008415,0.00002793,-0.00009318,0.00010035,-0.00002283,0.000252
 73,-0.00013210,0.00038093,-0.14647816,-0.01736465,0.18703566,-0.000092
 89,0.00064177,0.00026750,-0.00003813,0.00003096,-0.00006191,-0.0064681
 5,-0.00127763,-0.01233546,-0.00048145,-0.00256484,0.00083973,-0.088052
 62,-0.02071809,-0.09407906,0.00034534,0.00068059,0.00011619,-0.0000798
 5,0.00014209,0.00014853,0.00005832,0.00048517,-0.00003061,0.00020778,-
 0.00031914,-0.00094226,0.00026317,-0.00000418,0.00036665,0.00010699,-0
 .00011710,-0.00032523,0.01042862,0.00480215,0.02163293,0.09270104,0.00
 053201,0.00276164,0.00088109,-0.00020818,-0.00000070,-0.00063117,-0.01
 218085,-0.00503177,-0.03106457,-0.00182691,-0.00616561,0.00151044,-0.0
 1949696,-0.05612280,-0.04460674,-0.00030234,-0.00071871,-0.00006201,0.
 00098331,-0.00016576,0.00108413,0.00056521,0.00120149,0.00057472,-0.00
 084985,-0.00047620,-0.00181850,-0.00018243,0.00021149,0.00010988,0.000
 11625,0.00000092,0.00019357,0.00158233,-0.00050156,0.00258559,0.023920
 17,0.06063827,0.00020511,-0.00073080,-0.00000507,-0.00003969,0.0001074
 0,-0.00018233,0.00063860,-0.00005023,0.00001275,-0.00046384,-0.0004478
 5,0.00103275,-0.09407654,-0.04653402,-0.26871050,-0.00079724,0.0012452
 2,-0.00021233,0.00040583,0.00056922,0.00009567,-0.00009562,-0.00065422
 ,0.00060037,-0.00019808,0.00012704,0.00003035,0.00008526,0.00016068,-0
 .00002641,-0.00003150,0.00026673,0.00039353,-0.00926658,-0.00363834,-0
 .01852512,0.10448580,0.05035729,0.28976355,0.00134049,-0.00409837,0.00
 000657,0.00001933,0.00006637,-0.00005379,0.00873703,-0.00755570,0.0024
 8832,-0.00005937,0.00024523,-0.00012043,-0.18724823,0.13084486,-0.0364
 5650,-0.00028153,0.00001548,-0.00041088,0.00016686,0.00010215,0.000227
 83,0.00034960,0.00095752,0.00026806,0.00017583,0.00004755,0.00021784,0
 .00019386,-0.00035775,-0.00010717,0.00000175,0.00005540,-0.00011311,-0
 .01527380,0.01475568,-0.00587135,-0.00876722,0.00741744,-0.00094403,0.
 20056867,-0.00076373,-0.00910508,0.00202592,0.00029199,-0.00003138,0.0
 0066017,0.02476570,-0.01474691,0.00531803,0.00078914,0.00104572,0.0002
 4516,0.12867870,-0.16804651,0.03407022,-0.00106580,0.00023517,-0.00283
 889,0.00005082,0.00031893,-0.00024076,-0.00057543,0.00098992,0.0006011
 3,-0.00029109,0.00032110,0.00019101,-0.00065349,-0.00007359,-0.0006338
 7,-0.00008543,-0.00007284,-0.00000542,-0.00326524,0.00236978,-0.001485
 93,-0.00555326,0.00468329,-0.00047681,-0.14231893,0.18221737,-0.000353
 28,-0.00044024,0.00080387,-0.00009466,0.00008385,-0.00012021,0.0008936
 6,-0.00091928,-0.00217800,0.00002114,-0.00001857,-0.00011285,-0.036472
 63,0.03475621,-0.05544505,-0.00041881,0.00043113,0.00015180,0.00053337
 ,0.00008053,0.00011240,0.00005586,0.00001983,-0.00003271,0.00007421,0.
 00014782,-0.00004016,-0.00029193,-0.00048683,-0.00003011,0.00009932,-0
 .00007673,0.00001379,0.01538334,-0.01643529,0.00489232,-0.02021941,0.0
 2066060,-0.00419710,0.04083912,-0.03764014,0.05611896,0.00961411,0.001
 93146,-0.00756608,0.00252354,-0.00014366,0.00078447,0.00338126,-0.0005
 8442,-0.00213748,0.00019541,-0.00018047,-0.00031842,-0.00026480,0.0001
 4188,0.00040538,-0.20591002,-0.01267309,0.12734254,-0.01591952,-0.0029
 2769,0.02387268,0.00008568,-0.00069652,0.00106878,-0.00002326,-0.00000
 456,-0.00002964,-0.00002025,-0.00000071,0.00009849,-0.00020794,0.00002
 613,-0.00003324,-0.00006702,-0.00004328,-0.00001336,-0.00008172,-0.000
 10595,0.00005433,0.00000368,-0.00000298,-0.00004087,0.21180833,0.00163
 852,0.00383081,-0.00069791,-0.00012695,-0.00491911,-0.00258048,-0.0016
 5392,0.00088154,0.00093821,0.00013522,-0.00002928,0.00001931,0.0000168
 3,0.00004294,0.00001219,-0.01345687,-0.03658182,0.01394214,-0.00080686
 ,0.00681751,0.00193670,0.00011103,0.00015082,-0.00012752,-0.00004745,-
 0.00005705,-0.00005493,0.00001916,-0.00000715,-0.00000099,0.00005913,-
 0.00001949,-0.00006366,-0.00001479,-0.00001211,-0.00013420,-0.00019206
 ,-0.00024310,-0.00008940,-0.00004476,0.00000218,-0.00007321,0.01463090
 ,0.02172613,0.01519945,0.00489879,-0.03798746,-0.00000239,-0.00103951,
 0.00362137,0.00587179,-0.00450214,0.00097705,-0.00064846,0.00029597,0.
 00019039,-0.00071885,0.00043307,-0.00011720,0.12870639,0.01229729,-0.1
 6545893,-0.00635991,0.00013905,0.00519304,-0.00162207,0.00058398,0.000
 67010,0.00007414,-0.00002374,0.00000562,-0.00019714,0.00001858,-0.0001
 4400,0.00004491,-0.00001829,0.00035661,-0.00004767,-0.00023084,0.00007
 693,0.00010768,0.00012417,-0.00003000,0.00002025,0.00031254,0.00004233
 ,-0.14002702,-0.01382343,0.19300703,0.00287381,0.00029901,0.00075283,0
 .01342178,0.00137049,-0.01194880,-0.00049022,0.00011671,-0.00024871,0.
 00001589,0.00003857,-0.00004386,0.00001806,-0.00011718,0.00005947,-0.0
 1475555,-0.00227630,0.02311375,-0.21619997,-0.01667363,0.14745773,0.00
 030185,-0.00011173,-0.00004852,-0.00000499,0.00001078,0.00000930,0.000
 00849,-0.00002017,-0.00000435,-0.00002264,0.00001311,-0.00005957,-0.00
 000429,0.00008823,-0.00011214,-0.00006991,0.00003098,0.00005664,0.0000
 6175,-0.00001805,-0.00000830,-0.00420872,0.00003097,-0.00193081,0.2186
 2221,-0.00049895,-0.00645964,0.00027960,-0.00192702,0.00122569,0.00405
 227,-0.00008547,0.00032897,0.00023258,0.00009175,-0.00011034,-0.000007
 31,0.00012946,0.00005890,0.00008884,-0.00069654,0.00951054,-0.00089356
 ,-0.01484775,-0.04224597,0.01515948,0.00009171,-0.00001735,-0.00016733
 ,-0.00002089,-0.00002429,-0.00000895,0.00003175,0.00003272,0.00004000,
 -0.00001875,0.00001691,-0.00000724,0.00005859,-0.00001958,0.00015084,0
 .00005166,-0.00001004,-0.00022473,-0.00011222,-0.00010539,-0.00007040,
 0.00048312,0.00828337,0.00037646,0.01675767,0.02665121,0.00058505,-0.0
 0074985,0.00120377,0.02031536,0.00363909,-0.02980386,-0.00027195,0.000
 20153,0.00013262,0.00001380,-0.00003443,0.00001140,0.00002902,-0.00002
 596,0.00006616,-0.00533045,-0.00014966,0.00773176,0.14232139,0.0157081
 4,-0.18419729,0.00007099,0.00004674,-0.00021068,0.00000091,-0.00000676
 ,-0.00000316,0.00001363,0.00000235,0.00000551,-0.00000562,0.00000342,-
 0.00003298,0.00004584,0.00004515,0.00000760,0.00005702,-0.00002320,-0.
 00004900,-0.00001710,-0.00001613,-0.00003282,-0.00198330,0.00071208,-0
 .00030592,-0.15296577,-0.01967597,0.20936290,-0.00192168,-0.00036735,-
 0.00017617,-0.32637413,-0.04175097,0.25741428,0.00033972,0.00021043,-0
 .00019924,-0.00005544,0.00001798,0.00003764,-0.00006645,0.00004869,0.0
 0001230,0.00254352,0.00048235,-0.00524406,0.01207974,0.00207554,-0.012
 11974,-0.00009770,0.00001044,-0.00001404,0.00000915,-0.00000561,-0.000
 00496,-0.00000069,-0.00000141,-0.00001631,0.00000459,0.00000016,0.0000
 1572,-0.00001247,-0.00000790,0.00000504,0.00002068,0.00000578,-0.00001
 845,0.00001130,0.00001707,-0.00000015,-0.00090876,-0.00029810,0.001529
 72,0.00043244,0.00051187,-0.00287882,0.31399616,0.00007044,-0.00098474
 ,-0.00076930,-0.03620918,-0.01103953,0.03686748,0.00005163,0.00003312,
 0.00022936,0.00001384,-0.00004779,0.00001401,0.00006918,0.00002411,0.0
 0013444,0.00016608,-0.00002502,-0.00010144,-0.00375676,-0.00098324,0.0
 0303638,-0.00000646,0.00003085,0.00001522,-0.00001721,-0.00001718,-0.0
 0002152,0.00000571,0.00000531,0.00000720,0.00000318,0.00000398,-0.0000
 0103,-0.00002368,-0.00001377,-0.00003562,-0.00000824,-0.00006085,0.000
 01283,-0.00001997,-0.00000178,-0.00001929,0.00014983,0.00013380,0.0001
 5806,0.00046056,0.00288429,0.00032346,0.03905104,0.01005845,0.00145407
 ,-0.00082534,0.00196520,0.20823739,0.03450038,-0.23566165,-0.00090535,
 0.00083815,-0.00003439,0.00014842,-0.00019309,0.00001673,0.00015313,-0
 .00013875,-0.00002077,0.00042426,-0.00024505,0.00255300,0.03435231,0.0
 0512428,-0.03747353,0.00004465,-0.00003600,-0.00005792,-0.00002758,0.0
 0001876,-0.00002271,0.00006113,-0.00001540,0.00009206,-0.00001963,0.00
 001216,0.00000370,-0.00002214,0.00001113,0.00002942,-0.00002811,0.0001
 2472,0.00000888,0.00002638,-0.00008620,0.00005352,-0.00147728,0.000085
 08,-0.00009696,-0.00407888,0.00067541,-0.00388601,-0.23834277,-0.03985
 023,0.27253142\\-0.00000075,-0.00000022,0.00000043,-0.00000102,-0.0000
 0055,0.00000082,0.00000023,0.00000039,-0.00000008,-0.00000004,0.000000
 13,0.00000004,0.00000136,-0.00000004,-0.00000092,-0.00000091,0.0000001
 8,0.00000049,-0.00000086,-0.00000092,0.00000065,0.,0.00000157,-0.00000
 014,-0.00000093,0.00000050,0.00000058,0.00000057,0.00000068,-0.0000004
 2,0.00000004,-0.00000097,0.00000005,0.00000150,-0.00000113,-0.00000088
 ,0.00000149,0.00000017,-0.00000101,0.00000204,0.00000052,-0.00000134,-
 0.00000089,0.00000120,0.00000048,-0.00000069,-0.00000195,0.00000058,-0
 .00000115,0.00000044,0.00000067\\\@


 IN-LAWS ARE LIKE SEEDS. YOU DON'T NEED THEM
 BUT THEY COME WITH THE TOMATO.
 Job cpu time:       0 days  2 hours 32 minutes 48.2 seconds.
 Elapsed time:       0 days  1 hours 16 minutes 25.0 seconds.
 File lengths (MBytes):  RWF=   1392 Int=      0 D2E=      0 Chk=     32 Scr=     32
 Normal termination of Gaussian 16 at Sat Sep 28 10:50:40 2019.
