 Entering Gaussian System, Link 0=g16
 Input=verytight/species/CC(C)OC=CO/conformers/CC(C)OC=CO_51.com
 Output=verytight/species/CC(C)OC=CO/conformers/CC(C)OC=CO_51.log
 Initial command:
 /shared/centos7/gaussian/g16/l1.exe "/scratch/harms.n/gauss_scrdir/Gau-2514.inp" -scrdir="/scratch/harms.n/gauss_scrdir/"
 Entering Link 1 = /shared/centos7/gaussian/g16/l1.exe PID=      2515.
  
 Copyright (c) 1988,1990,1992,1993,1995,1998,2003,2009,2016,
            Gaussian, Inc.  All Rights Reserved.
  
 This is part of the Gaussian(R) 16 program.  It is based on
 the Gaussian(R) 09 system (copyright 2009, Gaussian, Inc.),
 the Gaussian(R) 03 system (copyright 2003, Gaussian, Inc.),
 the Gaussian(R) 98 system (copyright 1998, Gaussian, Inc.),
 the Gaussian(R) 94 system (copyright 1995, Gaussian, Inc.),
 the Gaussian 92(TM) system (copyright 1992, Gaussian, Inc.),
 the Gaussian 90(TM) system (copyright 1990, Gaussian, Inc.),
 the Gaussian 88(TM) system (copyright 1988, Gaussian, Inc.),
 the Gaussian 86(TM) system (copyright 1986, Carnegie Mellon
 University), and the Gaussian 82(TM) system (copyright 1983,
 Carnegie Mellon University). Gaussian is a federally registered
 trademark of Gaussian, Inc.
  
 This software contains proprietary and confidential information,
 including trade secrets, belonging to Gaussian, Inc.
  
 This software is provided under written license and may be
 used, copied, transmitted, or stored only in accord with that
 written license.
  
 The following legend is applicable only to US Government
 contracts under FAR:
  
                    RESTRICTED RIGHTS LEGEND
  
 Use, reproduction and disclosure by the US Government is
 subject to restrictions as set forth in subparagraphs (a)
 and (c) of the Commercial Computer Software - Restricted
 Rights clause in FAR 52.227-19.
  
 Gaussian, Inc.
 340 Quinnipiac St., Bldg. 40, Wallingford CT 06492
  
  
 ---------------------------------------------------------------
 Warning -- This program may not be used in any manner that
 competes with the business of Gaussian, Inc. or will provide
 assistance to any competitor of Gaussian, Inc.  The licensee
 of this program is prohibited from giving any competitor of
 Gaussian, Inc. access to this program.  By using this program,
 the user acknowledges that Gaussian, Inc. is engaged in the
 business of creating and licensing software in the field of
 computational chemistry and represents and warrants to the
 licensee that it is not a competitor of Gaussian, Inc. and that
 it will not use this program in any manner prohibited above.
 ---------------------------------------------------------------
  

 Cite this work as:
 Gaussian 16, Revision A.03,
 M. J. Frisch, G. W. Trucks, H. B. Schlegel, G. E. Scuseria, 
 M. A. Robb, J. R. Cheeseman, G. Scalmani, V. Barone, 
 G. A. Petersson, H. Nakatsuji, X. Li, M. Caricato, A. V. Marenich, 
 J. Bloino, B. G. Janesko, R. Gomperts, B. Mennucci, H. P. Hratchian, 
 J. V. Ortiz, A. F. Izmaylov, J. L. Sonnenberg, D. Williams-Young, 
 F. Ding, F. Lipparini, F. Egidi, J. Goings, B. Peng, A. Petrone, 
 T. Henderson, D. Ranasinghe, V. G. Zakrzewski, J. Gao, N. Rega, 
 G. Zheng, W. Liang, M. Hada, M. Ehara, K. Toyota, R. Fukuda, 
 J. Hasegawa, M. Ishida, T. Nakajima, Y. Honda, O. Kitao, H. Nakai, 
 T. Vreven, K. Throssell, J. A. Montgomery, Jr., J. E. Peralta, 
 F. Ogliaro, M. J. Bearpark, J. J. Heyd, E. N. Brothers, K. N. Kudin, 
 V. N. Staroverov, T. A. Keith, R. Kobayashi, J. Normand, 
 K. Raghavachari, A. P. Rendell, J. C. Burant, S. S. Iyengar, 
 J. Tomasi, M. Cossi, J. M. Millam, M. Klene, C. Adamo, R. Cammi, 
 J. W. Ochterski, R. L. Martin, K. Morokuma, O. Farkas, 
 J. B. Foresman, and D. J. Fox, Gaussian, Inc., Wallingford CT, 2016.
 
 ******************************************
 Gaussian 16:  EM64L-G16RevA.03 25-Dec-2016
                28-Sep-2019 
 ******************************************
 %nprocshared=20
 Will use up to   20 processors via shared memory.
 %mem=5GB
 ----------------------------------------------------------------------
 #p m062x/cc-pVTZ opt=(calcfc,maxcycles=900,Tight) freq IOP(7/33=1,2/16
 =3) scf=(maxcycle=900)
 ----------------------------------------------------------------------
 1/6=900,7=10,10=4,18=20,19=15,26=3,38=1/1,3;
 2/9=110,12=2,16=3,17=6,18=5,40=1/2;
 3/5=16,6=1,11=2,25=1,30=1,71=2,74=-55,140=1/1,2,3;
 4//1;
 5/5=2,7=900,38=5/2;
 8/6=4,10=90,11=11/1;
 11/6=1,8=1,9=11,15=111,16=1/1,2,10;
 10/6=1,13=1/2;
 6/7=2,8=2,9=2,10=2,28=1/1;
 7/10=1,18=20,25=1,33=1/1,2,3,16;
 1/6=900,7=10,10=4,18=20,19=15,26=3/3(2);
 2/9=110,16=3/2;
 99//99;
 2/9=110,16=3/2;
 3/5=16,6=1,11=2,25=1,30=1,71=1,74=-55/1,2,3;
 4/5=5,16=3,69=1/1;
 5/5=2,7=900,38=5/2;
 7/33=1/1,2,3,16;
 1/6=900,7=10,18=20,19=15,26=3/3(-5);
 2/9=110,16=3/2;
 6/7=2,8=2,9=2,10=2,19=2,28=1/1;
 99/9=1/99;
 Leave Link    1 at Sat Sep 28 10:37:50 2019, MaxMem=   671088640 cpu:               3.3 elap:               1.7
 (Enter /shared/centos7/gaussian/g16/l101.exe)
 ------------------------------
 Gaussian input prepared by ASE
 ------------------------------
 Symbolic Z-matrix:
 Charge =  0 Multiplicity = 1
 O                     3.86469   0.9872    2.30844 
 O                     0.93187  -1.07465   1.58348 
 C                     4.68489   0.32825   3.25021 
 C                     3.90474  -0.13725   4.47972 
 C                     5.82752   1.21687   3.61739 
 C                     2.96002   0.15373   1.69134 
 C                     1.85449  -0.26835   2.23328 
 H                     5.10984  -0.59216   2.76173 
 H                     3.53374   0.72499   5.07226 
 H                     3.0343   -0.74914   4.18071 
 H                     4.55936  -0.76111   5.14674 
 H                     5.47149   2.16378   4.12066 
 H                     6.41024   1.5081    2.71868 
 H                     6.52618   0.69316   4.32956 
 H                     3.20609  -0.07887   0.64297 
 H                     1.55847  -0.05169   3.24908 
 H                     1.26702  -1.21032   0.65018 
 
 ITRead=  0  0  0  0  0  0  0  0  0  0  0  0  0  0  0  0  0
 MicOpt= -1 -1 -1 -1 -1 -1 -1 -1 -1 -1 -1 -1 -1 -1 -1 -1 -1
 NAtoms=     17 NQM=       17 NQMF=       0 NMMI=      0 NMMIF=      0
                NMic=       0 NMicF=      0.
                    Isotopes and Nuclear Properties:
 (Nuclear quadrupole moments (NQMom) in fm**2, nuclear magnetic moments (NMagM)
  in nuclear magnetons)

  Atom         1           2           3           4           5           6           7           8           9          10
 IAtWgt=          16          16          12          12          12          12          12           1           1           1
 AtmWgt=  15.9949146  15.9949146  12.0000000  12.0000000  12.0000000  12.0000000  12.0000000   1.0078250   1.0078250   1.0078250
 NucSpn=           0           0           0           0           0           0           0           1           1           1
 AtZEff=  -0.0000000  -0.0000000  -0.0000000  -0.0000000  -0.0000000  -0.0000000  -0.0000000  -0.0000000  -0.0000000  -0.0000000
 NQMom=    0.0000000   0.0000000   0.0000000   0.0000000   0.0000000   0.0000000   0.0000000   0.0000000   0.0000000   0.0000000
 NMagM=    0.0000000   0.0000000   0.0000000   0.0000000   0.0000000   0.0000000   0.0000000   2.7928460   2.7928460   2.7928460
 AtZNuc=   8.0000000   8.0000000   6.0000000   6.0000000   6.0000000   6.0000000   6.0000000   1.0000000   1.0000000   1.0000000

  Atom        11          12          13          14          15          16          17
 IAtWgt=           1           1           1           1           1           1           1
 AtmWgt=   1.0078250   1.0078250   1.0078250   1.0078250   1.0078250   1.0078250   1.0078250
 NucSpn=           1           1           1           1           1           1           1
 AtZEff=  -0.0000000  -0.0000000  -0.0000000  -0.0000000  -0.0000000  -0.0000000  -0.0000000
 NQMom=    0.0000000   0.0000000   0.0000000   0.0000000   0.0000000   0.0000000   0.0000000
 NMagM=    2.7928460   2.7928460   2.7928460   2.7928460   2.7928460   2.7928460   2.7928460
 AtZNuc=   1.0000000   1.0000000   1.0000000   1.0000000   1.0000000   1.0000000   1.0000000
 Leave Link  101 at Sat Sep 28 10:37:52 2019, MaxMem=   671088640 cpu:               4.5 elap:               2.3
 (Enter /shared/centos7/gaussian/g16/l103.exe)

 GradGradGradGradGradGradGradGradGradGradGradGradGradGradGradGradGradGrad
 Berny optimization.
 Initialization pass.
                           ----------------------------
                           !    Initial Parameters    !
                           ! (Angstroms and Degrees)  !
 --------------------------                            --------------------------
 ! Name  Definition              Value          Derivative Info.                !
 --------------------------------------------------------------------------------
 ! R1    R(1,3)                  1.412          calculate D2E/DX2 analytically  !
 ! R2    R(1,6)                  1.3762         calculate D2E/DX2 analytically  !
 ! R3    R(2,7)                  1.3869         calculate D2E/DX2 analytically  !
 ! R4    R(2,17)                 1.0009         calculate D2E/DX2 analytically  !
 ! R5    R(3,4)                  1.5287         calculate D2E/DX2 analytically  !
 ! R6    R(3,5)                  1.4933         calculate D2E/DX2 analytically  !
 ! R7    R(3,8)                  1.1253         calculate D2E/DX2 analytically  !
 ! R8    R(4,9)                  1.1101         calculate D2E/DX2 analytically  !
 ! R9    R(4,10)                 1.1052         calculate D2E/DX2 analytically  !
 ! R10   R(4,11)                 1.1237         calculate D2E/DX2 analytically  !
 ! R11   R(5,12)                 1.1299         calculate D2E/DX2 analytically  !
 ! R12   R(5,13)                 1.11           calculate D2E/DX2 analytically  !
 ! R13   R(5,14)                 1.1267         calculate D2E/DX2 analytically  !
 ! R14   R(6,7)                  1.3016         calculate D2E/DX2 analytically  !
 ! R15   R(6,15)                 1.1017         calculate D2E/DX2 analytically  !
 ! R16   R(7,16)                 1.08           calculate D2E/DX2 analytically  !
 ! A1    A(3,1,6)              113.471          calculate D2E/DX2 analytically  !
 ! A2    A(7,2,17)             107.033          calculate D2E/DX2 analytically  !
 ! A3    A(1,3,4)              112.4628         calculate D2E/DX2 analytically  !
 ! A4    A(1,3,5)              109.3143         calculate D2E/DX2 analytically  !
 ! A5    A(1,3,8)              108.1511         calculate D2E/DX2 analytically  !
 ! A6    A(4,3,5)              111.9574         calculate D2E/DX2 analytically  !
 ! A7    A(4,3,8)              107.0239         calculate D2E/DX2 analytically  !
 ! A8    A(5,3,8)              107.7274         calculate D2E/DX2 analytically  !
 ! A9    A(3,4,9)              111.3063         calculate D2E/DX2 analytically  !
 ! A10   A(3,4,10)             110.6661         calculate D2E/DX2 analytically  !
 ! A11   A(3,4,11)             110.4371         calculate D2E/DX2 analytically  !
 ! A12   A(9,4,10)             108.133          calculate D2E/DX2 analytically  !
 ! A13   A(9,4,11)             108.0046         calculate D2E/DX2 analytically  !
 ! A14   A(10,4,11)            108.1826         calculate D2E/DX2 analytically  !
 ! A15   A(3,5,12)             111.5371         calculate D2E/DX2 analytically  !
 ! A16   A(3,5,13)             111.0223         calculate D2E/DX2 analytically  !
 ! A17   A(3,5,14)             110.6876         calculate D2E/DX2 analytically  !
 ! A18   A(12,5,13)            107.8282         calculate D2E/DX2 analytically  !
 ! A19   A(12,5,14)            107.6612         calculate D2E/DX2 analytically  !
 ! A20   A(13,5,14)            107.9495         calculate D2E/DX2 analytically  !
 ! A21   A(1,6,7)              124.6153         calculate D2E/DX2 analytically  !
 ! A22   A(1,6,15)             114.0633         calculate D2E/DX2 analytically  !
 ! A23   A(7,6,15)             121.1625         calculate D2E/DX2 analytically  !
 ! A24   A(2,7,6)              123.9514         calculate D2E/DX2 analytically  !
 ! A25   A(2,7,16)             112.0212         calculate D2E/DX2 analytically  !
 ! A26   A(6,7,16)             124.0126         calculate D2E/DX2 analytically  !
 ! D1    D(6,1,3,4)            -68.4449         calculate D2E/DX2 analytically  !
 ! D2    D(6,1,3,5)            166.5499         calculate D2E/DX2 analytically  !
 ! D3    D(6,1,3,8)             49.5208         calculate D2E/DX2 analytically  !
 ! D4    D(3,1,6,7)             77.6148         calculate D2E/DX2 analytically  !
 ! D5    D(3,1,6,15)          -106.938          calculate D2E/DX2 analytically  !
 ! D6    D(17,2,7,6)            -2.5924         calculate D2E/DX2 analytically  !
 ! D7    D(17,2,7,16)          178.7602         calculate D2E/DX2 analytically  !
 ! D8    D(1,3,4,9)            -66.781          calculate D2E/DX2 analytically  !
 ! D9    D(1,3,4,10)            53.4933         calculate D2E/DX2 analytically  !
 ! D10   D(1,3,4,11)           173.2596         calculate D2E/DX2 analytically  !
 ! D11   D(5,3,4,9)             56.7635         calculate D2E/DX2 analytically  !
 ! D12   D(5,3,4,10)           177.0378         calculate D2E/DX2 analytically  !
 ! D13   D(5,3,4,11)           -63.1959         calculate D2E/DX2 analytically  !
 ! D14   D(8,3,4,9)            174.5896         calculate D2E/DX2 analytically  !
 ! D15   D(8,3,4,10)           -65.1361         calculate D2E/DX2 analytically  !
 ! D16   D(8,3,4,11)            54.6302         calculate D2E/DX2 analytically  !
 ! D17   D(1,3,5,12)            63.004          calculate D2E/DX2 analytically  !
 ! D18   D(1,3,5,13)           -57.28           calculate D2E/DX2 analytically  !
 ! D19   D(1,3,5,14)          -177.1499         calculate D2E/DX2 analytically  !
 ! D20   D(4,3,5,12)           -62.2942         calculate D2E/DX2 analytically  !
 ! D21   D(4,3,5,13)           177.4218         calculate D2E/DX2 analytically  !
 ! D22   D(4,3,5,14)            57.5519         calculate D2E/DX2 analytically  !
 ! D23   D(8,3,5,12)          -179.6995         calculate D2E/DX2 analytically  !
 ! D24   D(8,3,5,13)            60.0165         calculate D2E/DX2 analytically  !
 ! D25   D(8,3,5,14)           -59.8534         calculate D2E/DX2 analytically  !
 ! D26   D(1,6,7,2)            177.8955         calculate D2E/DX2 analytically  !
 ! D27   D(1,6,7,16)            -3.6172         calculate D2E/DX2 analytically  !
 ! D28   D(15,6,7,2)             2.7544         calculate D2E/DX2 analytically  !
 ! D29   D(15,6,7,16)         -178.7583         calculate D2E/DX2 analytically  !
 --------------------------------------------------------------------------------
 Trust Radius=3.00D-01 FncErr=1.00D-07 GrdErr=1.00D-06 EigMax=2.50D+02 EigMin=1.00D-04
 Number of steps in this run=    102 maximum allowed number of steps=    102.
 GradGradGradGradGradGradGradGradGradGradGradGradGradGradGradGradGradGrad

 Leave Link  103 at Sat Sep 28 10:37:53 2019, MaxMem=   671088640 cpu:               1.2 elap:               0.6
 (Enter /shared/centos7/gaussian/g16/l202.exe)
                          Input orientation:                          
 ---------------------------------------------------------------------
 Center     Atomic      Atomic             Coordinates (Angstroms)
 Number     Number       Type             X           Y           Z
 ---------------------------------------------------------------------
      1          8           0        3.864690    0.987198    2.308439
      2          8           0        0.931865   -1.074651    1.583483
      3          6           0        4.684892    0.328250    3.250210
      4          6           0        3.904744   -0.137255    4.479717
      5          6           0        5.827524    1.216866    3.617395
      6          6           0        2.960021    0.153735    1.691344
      7          6           0        1.854488   -0.268351    2.233278
      8          1           0        5.109844   -0.592159    2.761733
      9          1           0        3.533737    0.724985    5.072260
     10          1           0        3.034296   -0.749138    4.180710
     11          1           0        4.559359   -0.761109    5.146736
     12          1           0        5.471494    2.163785    4.120657
     13          1           0        6.410245    1.508096    2.718676
     14          1           0        6.526178    0.693157    4.329556
     15          1           0        3.206089   -0.078868    0.642972
     16          1           0        1.558467   -0.051694    3.249080
     17          1           0        1.267018   -1.210323    0.650183
 ---------------------------------------------------------------------
                    Distance matrix (angstroms):
                    1          2          3          4          5
     1  O    0.000000
     2  O    3.657629   0.000000
     3  C    1.412047   4.339507   0.000000
     4  C    2.445495   4.254984   1.528729   0.000000
     5  C    2.370407   5.775407   1.493342   2.504860   0.000000
     6  C    1.376189   2.373601   2.331459   2.958412   3.614207
     7  C    2.371279   1.386935   3.066149   3.044211   4.461688
     8  H    2.061614   4.367674   1.125320   2.147247   2.125980
     9  H    2.795889   4.709564   2.191443   1.110050   2.760441
    10  H    2.685111   3.357345   2.179694   1.105209   3.461881
    11  H    3.405154   5.094487   2.190724   1.123668   2.803481
    12  H    2.692640   6.126415   2.178442   2.806851   1.129905
    13  H    2.630490   6.162134   2.156712   3.476489   1.109989
    14  H    3.354831   6.477839   2.165289   2.753915   1.126748
    15  H    2.084234   2.654852   3.024945   3.900274   4.171095
    16  H    2.698661   2.052629   3.149428   2.650812   4.468752
    17  H    3.785078   1.000891   4.561711   4.772253   5.957668
                    6          7          8          9         10
     6  C    0.000000
     7  C    1.301558   0.000000
     8  H    2.514723   3.313828   0.000000
     9  H    3.476503   3.444766   3.091523   0.000000
    10  H    2.649084   2.327143   2.519135   1.793695   0.000000
    11  H    3.915937   4.005918   2.453532   1.807186   1.805317
    12  H    4.031050   4.749759   3.093977   2.594339   3.798508
    13  H    3.846265   4.913888   2.470621   3.798278   4.316212
    14  H    4.468626   5.209949   2.473077   3.083395   3.780954
    15  H    1.101697   2.095663   2.894287   4.513549   3.604770
    16  H    2.105493   1.080011   3.625174   2.798019   1.879477
    17  H    2.410587   1.933552   4.428101   5.332748   3.974995
                   11         12         13         14         15
    11  H    0.000000
    12  H    3.231073   0.000000
    13  H    3.804017   1.810174   0.000000
    14  H    2.578963   1.821742   1.809005   0.000000
    15  H    4.751914   4.717610   4.134443   5.020947   0.000000
    16  H    3.620736   4.580369   5.123868   5.138131   3.083375
    17  H    5.591091   6.411428   6.174241   6.694758   2.245048
                   16         17
    16  H    0.000000
    17  H    2.860355   0.000000
 Stoichiometry    C5H10O2
 Framework group  C1[X(C5H10O2)]
 Deg. of freedom    45
 Full point group                 C1      NOp   1
 Largest Abelian subgroup         C1      NOp   1
 Largest concise Abelian subgroup C1      NOp   1
                         Standard orientation:                         
 ---------------------------------------------------------------------
 Center     Atomic      Atomic             Coordinates (Angstroms)
 Number     Number       Type             X           Y           Z
 ---------------------------------------------------------------------
      1          8           0        0.395122   -0.870835   -0.391261
      2          8           0       -3.053874    0.226563    0.136372
      3          6           0        1.275314   -0.017436    0.309345
      4          6           0        1.016621    1.459680    0.012329
      5          6           0        2.685112   -0.408596    0.010123
      6          6           0       -0.909231   -0.785887    0.039255
      7          6           0       -1.729143    0.176091   -0.271218
      8          1           0        1.104933   -0.166599    1.411645
      9          1           0        1.258634    1.707436   -1.042308
     10          1           0       -0.044203    1.713410    0.190542
     11          1           0        1.648892    2.109880    0.675732
     12          1           0        2.928224   -0.277809   -1.085540
     13          1           0        2.868213   -1.471003    0.274393
     14          1           0        3.407455    0.225060    0.598563
     15          1           0       -1.247323   -1.657058    0.622772
     16          1           0       -1.452371    1.040436   -0.856647
     17          1           0       -3.234472   -0.612700    0.650964
 ---------------------------------------------------------------------
 Rotational constants (GHZ):           6.5878831           1.3464752           1.1775980
 Leave Link  202 at Sat Sep 28 10:37:54 2019, MaxMem=   671088640 cpu:               2.7 elap:               1.4
 (Enter /shared/centos7/gaussian/g16/l301.exe)
 Standard basis: CC-pVTZ (5D, 7F)
 Ernie: Thresh=  0.10000D-02 Tol=  0.10000D-05 Strict=F.
 Ernie:  21 primitive shells out of 262 were deleted.
 There are   395 symmetry adapted cartesian basis functions of A   symmetry.
 There are   350 symmetry adapted basis functions of A   symmetry.
   350 basis functions,   534 primitive gaussians,   395 cartesian basis functions
    28 alpha electrons       28 beta electrons
       nuclear repulsion energy       313.6155554663 Hartrees.
 IExCor= 4336 DFT=T Ex+Corr=M062X ExCW=0 ScaHFX=  0.540000
 ScaDFX=  1.000000  1.000000  1.000000  1.000000 ScalE2=  1.000000  1.000000
 IRadAn=      5 IRanWt=     -1 IRanGd=            0 ICorTp=0 IEmpDi=  4
 NAtoms=   17 NActive=   17 NUniq=   17 SFac= 1.00D+00 NAtFMM=   60 NAOKFM=F Big=F
 Integral buffers will be    131072 words long.
 Raffenetti 2 integral format.
 Two-electron integral symmetry is turned on.
 Leave Link  301 at Sat Sep 28 10:37:55 2019, MaxMem=   671088640 cpu:               2.1 elap:               1.1
 (Enter /shared/centos7/gaussian/g16/l302.exe)
 NPDir=0 NMtPBC=     1 NCelOv=     1 NCel=       1 NClECP=     1 NCelD=      1
         NCelK=      1 NCelE2=     1 NClLst=     1 CellRange=     0.0.
 One-electron integrals computed using PRISM.
 One-electron integral symmetry used in STVInt
 NBasis=   350 RedAO= T EigKep=  2.58D-04  NBF=   350
 NBsUse=   350 1.00D-06 EigRej= -1.00D+00 NBFU=   350
 Precomputing XC quadrature grid using
 IXCGrd= 4 IRadAn=           5 IRanWt=          -1 IRanGd=           0 AccXCQ= 0.00D+00.
 Generated NRdTot=       0 NPtTot=           0 NUsed=           0 NTot=          32
 NSgBfM=   395   395   395   395   395 MxSgAt=    17 MxSgA2=    17.
 Leave Link  302 at Sat Sep 28 10:38:55 2019, MaxMem=   671088640 cpu:             119.8 elap:              59.9
 (Enter /shared/centos7/gaussian/g16/l303.exe)
 DipDrv:  MaxL=1.
 Leave Link  303 at Sat Sep 28 10:38:59 2019, MaxMem=   671088640 cpu:               7.7 elap:               3.9
 (Enter /shared/centos7/gaussian/g16/l401.exe)
 ExpMin= 1.03D-01 ExpMax= 1.53D+04 ExpMxC= 5.22D+02 IAcc=3 IRadAn=         5 AccDes= 0.00D+00
 Harris functional with IExCor= 1009 and IRadAn=       5 diagonalized for initial guess.
 HarFok:  IExCor= 1009 AccDes= 0.00D+00 IRadAn=         5 IDoV= 1 UseB2=F ITyADJ=14
 ICtDFT=  3500011 ScaDFX=  1.000000  1.000000  1.000000  1.000000
 FoFCou: FMM=F IPFlag=           0 FMFlag=      100000 FMFlg1=           0
         NFxFlg=           0 DoJE=T BraDBF=F KetDBF=T FulRan=T
         wScrn=  0.000000 ICntrl=       500 IOpCl=  0 I1Cent=   200000004 NGrid=           0
         NMat0=    1 NMatS0=      1 NMatT0=    0 NMatD0=    1 NMtDS0=    0 NMtDT0=    0
 Petite list used in FoFCou.
 Harris En= -346.807441733486    
 JPrj=0 DoOrth=F DoCkMO=F.
 Leave Link  401 at Sat Sep 28 10:39:31 2019, MaxMem=   671088640 cpu:              63.3 elap:              31.7
 (Enter /shared/centos7/gaussian/g16/l502.exe)
 Integral symmetry usage will be decided dynamically.
 Closed shell SCF:
 Using DIIS extrapolation, IDIIS=  1040.
 NGot=   671088640 LenX=   670765141 LenY=   670608675
 Requested convergence on RMS density matrix=1.00D-08 within 900 cycles.
 Requested convergence on MAX density matrix=1.00D-06.
 Requested convergence on             energy=1.00D-06.
 No special actions if energy rises.
 Fock matrices will be formed incrementally for  20 cycles.
 Integral accuracy reduced to 1.0D-05 until final iterations.

 Cycle   1  Pass 0  IDiag  1:
 FoFJK:  IHMeth= 1 ICntrl=       0 DoSepK=F KAlg= 0 I1Cent=           0 FoldK=F
 IRaf= 940000000 NMat=       1 IRICut=       1 DoRegI=T DoRafI=F ISym2E= 0 IDoP0=0 IntGTp=1.
 FoFCou: FMM=F IPFlag=           0 FMFlag=      100000 FMFlg1=           0
         NFxFlg=           0 DoJE=F BraDBF=F KetDBF=F FulRan=T
         wScrn=  0.000000 ICntrl=         0 IOpCl=  0 I1Cent=           0 NGrid=           0
         NMat0=    1 NMatS0=      1 NMatT0=    0 NMatD0=    1 NMtDS0=    0 NMtDT0=    0
 Symmetry not used in FoFCou.
 E= -346.700385013692    
 DIIS: error= 2.10D-02 at cycle   1 NSaved=   1.
 NSaved= 1 IEnMin= 1 EnMin= -346.700385013692     IErMin= 1 ErrMin= 2.10D-02
 ErrMax= 2.10D-02  0.00D+00 EMaxC= 1.00D-01 BMatC= 2.83D-01 BMatP= 2.83D-01
 IDIUse=3 WtCom= 7.90D-01 WtEn= 2.10D-01
 Coeff-Com:  0.100D+01
 Coeff-En:   0.100D+01
 Coeff:      0.100D+01
 Gap=     0.353 Goal=   None    Shift=    0.000
 GapD=    0.353 DampG=1.000 DampE=0.500 DampFc=0.5000 IDamp=-1.
 Damping current iteration by 5.00D-01
 RMSDP=2.16D-03 MaxDP=1.20D-01              OVMax= 1.48D-01

 Cycle   2  Pass 0  IDiag  1:
 RMSU=  1.08D-03    CP:  1.00D+00
 E= -346.818603987014     Delta-E=       -0.118218973322 Rises=F Damp=T
 DIIS: error= 6.31D-03 at cycle   2 NSaved=   2.
 NSaved= 2 IEnMin= 2 EnMin= -346.818603987014     IErMin= 2 ErrMin= 6.31D-03
 ErrMax= 6.31D-03  0.00D+00 EMaxC= 1.00D-01 BMatC= 2.09D-02 BMatP= 2.83D-01
 IDIUse=3 WtCom= 9.37D-01 WtEn= 6.31D-02
 Coeff-Com: -0.135D+00 0.113D+01
 Coeff-En:   0.000D+00 0.100D+01
 Coeff:     -0.126D+00 0.113D+01
 Gap=     0.350 Goal=   None    Shift=    0.000
 RMSDP=4.50D-04 MaxDP=1.71D-02 DE=-1.18D-01 OVMax= 7.18D-02

 Cycle   3  Pass 0  IDiag  1:
 RMSU=  4.41D-04    CP:  1.00D+00  9.22D-01
 E= -346.925108632871     Delta-E=       -0.106504645857 Rises=F Damp=F
 DIIS: error= 1.91D-03 at cycle   3 NSaved=   3.
 NSaved= 3 IEnMin= 3 EnMin= -346.925108632871     IErMin= 3 ErrMin= 1.91D-03
 ErrMax= 1.91D-03  0.00D+00 EMaxC= 1.00D-01 BMatC= 2.88D-03 BMatP= 2.09D-02
 IDIUse=3 WtCom= 9.81D-01 WtEn= 1.91D-02
 Coeff-Com: -0.770D-01 0.280D+00 0.797D+00
 Coeff-En:   0.000D+00 0.000D+00 0.100D+01
 Coeff:     -0.755D-01 0.275D+00 0.801D+00
 Gap=     0.353 Goal=   None    Shift=    0.000
 RMSDP=1.31D-04 MaxDP=4.73D-03 DE=-1.07D-01 OVMax= 1.09D-02

 Cycle   4  Pass 0  IDiag  1:
 RMSU=  1.04D-04    CP:  1.00D+00  9.88D-01  9.16D-01
 E= -346.926665515777     Delta-E=       -0.001556882906 Rises=F Damp=F
 DIIS: error= 1.08D-03 at cycle   4 NSaved=   4.
 NSaved= 4 IEnMin= 4 EnMin= -346.926665515777     IErMin= 4 ErrMin= 1.08D-03
 ErrMax= 1.08D-03  0.00D+00 EMaxC= 1.00D-01 BMatC= 8.52D-04 BMatP= 2.88D-03
 IDIUse=3 WtCom= 9.89D-01 WtEn= 1.08D-02
 Coeff-Com: -0.264D-01 0.689D-01 0.398D+00 0.559D+00
 Coeff-En:   0.000D+00 0.000D+00 0.179D+00 0.821D+00
 Coeff:     -0.261D-01 0.682D-01 0.396D+00 0.562D+00
 Gap=     0.350 Goal=   None    Shift=    0.000
 RMSDP=4.88D-05 MaxDP=1.79D-03 DE=-1.56D-03 OVMax= 6.05D-03

 Cycle   5  Pass 0  IDiag  1:
 RMSU=  2.65D-05    CP:  1.00D+00  9.81D-01  9.48D-01  6.37D-01
 E= -346.927298802515     Delta-E=       -0.000633286739 Rises=F Damp=F
 DIIS: error= 1.73D-04 at cycle   5 NSaved=   5.
 NSaved= 5 IEnMin= 5 EnMin= -346.927298802515     IErMin= 5 ErrMin= 1.73D-04
 ErrMax= 1.73D-04  0.00D+00 EMaxC= 1.00D-01 BMatC= 2.31D-05 BMatP= 8.52D-04
 IDIUse=3 WtCom= 9.98D-01 WtEn= 1.73D-03
 Coeff-Com: -0.448D-02 0.872D-02 0.961D-01 0.206D+00 0.693D+00
 Coeff-En:   0.000D+00 0.000D+00 0.000D+00 0.000D+00 0.100D+01
 Coeff:     -0.447D-02 0.870D-02 0.960D-01 0.206D+00 0.694D+00
 Gap=     0.349 Goal=   None    Shift=    0.000
 RMSDP=1.24D-05 MaxDP=3.66D-04 DE=-6.33D-04 OVMax= 1.27D-03

 Cycle   6  Pass 0  IDiag  1:
 RMSU=  9.29D-06    CP:  1.00D+00  9.77D-01  9.57D-01  6.70D-01  8.42D-01
 E= -346.927315198955     Delta-E=       -0.000016396439 Rises=F Damp=F
 DIIS: error= 6.61D-05 at cycle   6 NSaved=   6.
 NSaved= 6 IEnMin= 6 EnMin= -346.927315198955     IErMin= 6 ErrMin= 6.61D-05
 ErrMax= 6.61D-05  0.00D+00 EMaxC= 1.00D-01 BMatC= 2.31D-06 BMatP= 2.31D-05
 IDIUse=1 WtCom= 1.00D+00 WtEn= 0.00D+00
 Coeff-Com:  0.189D-03-0.165D-02 0.124D-01 0.518D-01 0.287D+00 0.650D+00
 Coeff:      0.189D-03-0.165D-02 0.124D-01 0.518D-01 0.287D+00 0.650D+00
 Gap=     0.349 Goal=   None    Shift=    0.000
 RMSDP=3.64D-06 MaxDP=1.25D-04 DE=-1.64D-05 OVMax= 6.05D-04

 Initial convergence to 1.0D-05 achieved.  Increase integral accuracy.
 Cycle   7  Pass 1  IDiag  1:
 E= -346.927262681178     Delta-E=        0.000052517777 Rises=F Damp=F
 DIIS: error= 2.90D-05 at cycle   1 NSaved=   1.
 NSaved= 1 IEnMin= 1 EnMin= -346.927262681178     IErMin= 1 ErrMin= 2.90D-05
 ErrMax= 2.90D-05  0.00D+00 EMaxC= 1.00D-01 BMatC= 7.55D-07 BMatP= 7.55D-07
 IDIUse=1 WtCom= 1.00D+00 WtEn= 0.00D+00
 Coeff-Com:  0.100D+01
 Coeff:      0.100D+01
 Gap=     0.349 Goal=   None    Shift=    0.000
 RMSDP=3.64D-06 MaxDP=1.25D-04 DE= 5.25D-05 OVMax= 3.05D-04

 Cycle   8  Pass 1  IDiag  1:
 RMSU=  9.17D-06    CP:  1.00D+00
 E= -346.927262881860     Delta-E=       -0.000000200681 Rises=F Damp=F
 DIIS: error= 2.38D-05 at cycle   2 NSaved=   2.
 NSaved= 2 IEnMin= 2 EnMin= -346.927262881860     IErMin= 2 ErrMin= 2.38D-05
 ErrMax= 2.38D-05  0.00D+00 EMaxC= 1.00D-01 BMatC= 3.25D-07 BMatP= 7.55D-07
 IDIUse=1 WtCom= 1.00D+00 WtEn= 0.00D+00
 Coeff-Com:  0.358D+00 0.642D+00
 Coeff:      0.358D+00 0.642D+00
 Gap=     0.349 Goal=   None    Shift=    0.000
 RMSDP=1.77D-06 MaxDP=5.76D-05 DE=-2.01D-07 OVMax= 3.21D-04

 Cycle   9  Pass 1  IDiag  1:
 RMSU=  1.71D-06    CP:  1.00D+00  9.52D-01
 E= -346.927263075500     Delta-E=       -0.000000193641 Rises=F Damp=F
 DIIS: error= 1.18D-05 at cycle   3 NSaved=   3.
 NSaved= 3 IEnMin= 3 EnMin= -346.927263075500     IErMin= 3 ErrMin= 1.18D-05
 ErrMax= 1.18D-05  0.00D+00 EMaxC= 1.00D-01 BMatC= 9.92D-08 BMatP= 3.25D-07
 IDIUse=1 WtCom= 1.00D+00 WtEn= 0.00D+00
 Coeff-Com: -0.117D-01 0.352D+00 0.659D+00
 Coeff:     -0.117D-01 0.352D+00 0.659D+00
 Gap=     0.349 Goal=   None    Shift=    0.000
 RMSDP=7.29D-07 MaxDP=2.15D-05 DE=-1.94D-07 OVMax= 1.04D-04

 Cycle  10  Pass 1  IDiag  1:
 RMSU=  2.74D-07    CP:  1.00D+00  9.91D-01  6.65D-01
 E= -346.927263155158     Delta-E=       -0.000000079658 Rises=F Damp=F
 DIIS: error= 1.80D-06 at cycle   4 NSaved=   4.
 NSaved= 4 IEnMin= 4 EnMin= -346.927263155158     IErMin= 4 ErrMin= 1.80D-06
 ErrMax= 1.80D-06  0.00D+00 EMaxC= 1.00D-01 BMatC= 1.25D-09 BMatP= 9.92D-08
 IDIUse=1 WtCom= 1.00D+00 WtEn= 0.00D+00
 Coeff-Com: -0.105D-01 0.134D+00 0.265D+00 0.612D+00
 Coeff:     -0.105D-01 0.134D+00 0.265D+00 0.612D+00
 Gap=     0.349 Goal=   None    Shift=    0.000
 RMSDP=7.47D-08 MaxDP=4.31D-06 DE=-7.97D-08 OVMax= 6.66D-06

 Cycle  11  Pass 1  IDiag  1:
 RMSU=  7.38D-08    CP:  1.00D+00  9.92D-01  6.67D-01  1.01D+00
 E= -346.927263156255     Delta-E=       -0.000000001097 Rises=F Damp=F
 DIIS: error= 3.68D-07 at cycle   5 NSaved=   5.
 NSaved= 5 IEnMin= 5 EnMin= -346.927263156255     IErMin= 5 ErrMin= 3.68D-07
 ErrMax= 3.68D-07  0.00D+00 EMaxC= 1.00D-01 BMatC= 8.61D-11 BMatP= 1.25D-09
 IDIUse=1 WtCom= 1.00D+00 WtEn= 0.00D+00
 Coeff-Com: -0.841D-03-0.175D-01-0.328D-01 0.143D+00 0.908D+00
 Coeff:     -0.841D-03-0.175D-01-0.328D-01 0.143D+00 0.908D+00
 Gap=     0.349 Goal=   None    Shift=    0.000
 RMSDP=3.73D-08 MaxDP=1.04D-06 DE=-1.10D-09 OVMax= 4.37D-06

 Cycle  12  Pass 1  IDiag  1:
 RMSU=  2.09D-08    CP:  1.00D+00  9.93D-01  6.71D-01  1.11D+00  1.07D+00
 E= -346.927263156366     Delta-E=       -0.000000000111 Rises=F Damp=F
 DIIS: error= 1.29D-07 at cycle   6 NSaved=   6.
 NSaved= 6 IEnMin= 6 EnMin= -346.927263156366     IErMin= 6 ErrMin= 1.29D-07
 ErrMax= 1.29D-07  0.00D+00 EMaxC= 1.00D-01 BMatC= 8.92D-12 BMatP= 8.61D-11
 IDIUse=1 WtCom= 1.00D+00 WtEn= 0.00D+00
 Coeff-Com:  0.717D-03-0.173D-01-0.357D-01-0.133D-01 0.278D+00 0.787D+00
 Coeff:      0.717D-03-0.173D-01-0.357D-01-0.133D-01 0.278D+00 0.787D+00
 Gap=     0.349 Goal=   None    Shift=    0.000
 RMSDP=1.12D-08 MaxDP=3.22D-07 DE=-1.11D-10 OVMax= 1.13D-06

 Cycle  13  Pass 1  IDiag  1:
 RMSU=  6.09D-09    CP:  1.00D+00  9.93D-01  6.70D-01  1.14D+00  1.13D+00
                    CP:  1.01D+00
 E= -346.927263156376     Delta-E=       -0.000000000010 Rises=F Damp=F
 DIIS: error= 2.57D-08 at cycle   7 NSaved=   7.
 NSaved= 7 IEnMin= 7 EnMin= -346.927263156376     IErMin= 7 ErrMin= 2.57D-08
 ErrMax= 2.57D-08  0.00D+00 EMaxC= 1.00D-01 BMatC= 6.32D-13 BMatP= 8.92D-12
 IDIUse=1 WtCom= 1.00D+00 WtEn= 0.00D+00
 Coeff-Com:  0.263D-03-0.409D-02-0.909D-02-0.129D-01 0.330D-01 0.238D+00
 Coeff-Com:  0.755D+00
 Coeff:      0.263D-03-0.409D-02-0.909D-02-0.129D-01 0.330D-01 0.238D+00
 Coeff:      0.755D+00
 Gap=     0.349 Goal=   None    Shift=    0.000
 RMSDP=2.56D-09 MaxDP=1.24D-07 DE=-9.89D-12 OVMax= 4.65D-07

 SCF Done:  E(RM062X) =  -346.927263156     A.U. after   13 cycles
            NFock= 13  Conv=0.26D-08     -V/T= 2.0063
 KE= 3.447663198335D+02 PE=-1.437167318042D+03 EE= 4.318581795856D+02
 Leave Link  502 at Sat Sep 28 10:50:39 2019, MaxMem=   671088640 cpu:            1335.5 elap:             668.1
 (Enter /shared/centos7/gaussian/g16/l801.exe)
 DoSCS=F DFT=T ScalE2(SS,OS)=  1.000000  1.000000
 Range of M.O.s used for correlation:     1   350
 NBasis=   350 NAE=    28 NBE=    28 NFC=     0 NFV=     0
 NROrb=    350 NOA=    28 NOB=    28 NVA=   322 NVB=   322

 **** Warning!!: The largest alpha MO coefficient is  0.10879665D+02

 Leave Link  801 at Sat Sep 28 10:50:40 2019, MaxMem=   671088640 cpu:               1.5 elap:               0.8
 (Enter /shared/centos7/gaussian/g16/l1101.exe)
 Using compressed storage, NAtomX=    17.
 Will process     18 centers per pass.
 Leave Link 1101 at Sat Sep 28 10:51:25 2019, MaxMem=   671088640 cpu:              87.9 elap:              45.6
 (Enter /shared/centos7/gaussian/g16/l1102.exe)
 Symmetrizing basis deriv contribution to polar:
 IMax=3 JMax=2 DiffMx= 0.00D+00
 Leave Link 1102 at Sat Sep 28 10:51:28 2019, MaxMem=   671088640 cpu:               5.1 elap:               2.6
 (Enter /shared/centos7/gaussian/g16/l1110.exe)
 Forming Gx(P) for the SCF density, NAtomX=    17.
 Integral derivatives from FoFJK, PRISM(SPDF).
 Do as many integral derivatives as possible in FoFJK.
 G2DrvN: MDV=     671087280.
 G2DrvN: will do    18 centers at a time, making    1 passes.
 Calling FoFCou, ICntrl=  3107 FMM=F I1Cent=   0 AccDes= 0.00D+00.
 FoFJK:  IHMeth= 1 ICntrl=    3107 DoSepK=F KAlg= 0 I1Cent=           0 FoldK=F
 IRaf=         0 NMat=       1 IRICut=       1 DoRegI=T DoRafI=F ISym2E= 0 IDoP0=0 IntGTp=1.
 FoFCou: FMM=F IPFlag=           0 FMFlag=      100000 FMFlg1=           0
         NFxFlg=           0 DoJE=F BraDBF=F KetDBF=F FulRan=T
         wScrn=  0.000000 ICntrl=      3107 IOpCl=  0 I1Cent=           0 NGrid=           0
         NMat0=    1 NMatS0=      1 NMatT0=    0 NMatD0=    1 NMtDS0=    0 NMtDT0=    0
 Symmetry not used in FoFCou.
 End of G2Drv F.D. properties file   721 does not exist.
 End of G2Drv F.D. properties file   722 does not exist.
 End of G2Drv F.D. properties file   788 does not exist.
 Leave Link 1110 at Sat Sep 28 11:10:29 2019, MaxMem=   671088640 cpu:            2281.2 elap:            1140.7
 (Enter /shared/centos7/gaussian/g16/l1002.exe)
 Minotr:  Closed shell wavefunction.
          IDoAtm=11111111111111111
          Direct CPHF calculation.
          Differentiating once with respect to nuclear coordinates.
          Requested convergence is 1.0D-08 RMS, and 1.0D-07 maximum.
          Secondary convergence is 1.0D-12 RMS, and 1.0D-12 maximum.
          NewPWx=T KeepS1=F KeepF1=F KeepIn=T MapXYZ=F SortEE=F KeepMc=T.
         5116 words used for storage of precomputed grid.
 Two-electron integrals replicated using symmetry.
          MDV=     671088640 using IRadAn=       1.
          Solving linear equations simultaneously, MaxMat=     380.
 FoF2E skips out because all densities are zero.
 CalDSu exits because no D1Ps are significant.
 FoFJK:  IHMeth= 1 ICntrl=       0 DoSepK=F KAlg= 0 I1Cent=           0 FoldK=F
 IRaf= 930000000 NMat=      51 IRICut=     127 DoRegI=T DoRafI=T ISym2E= 2 IDoP0=3 IntGTp=3.
 FoFCou: FMM=F IPFlag=           0 FMFlag=      100000 FMFlg1=           0
         NFxFlg=           0 DoJE=F BraDBF=F KetDBF=F FulRan=T
         wScrn=  0.000000 ICntrl=         0 IOpCl=  0 I1Cent=           0 NGrid=           0
         NMat0=   51 NMatS0=     51 NMatT0=    0 NMatD0=   51 NMtDS0=    0 NMtDT0=    0
 Integrals replicated using symmetry in FoFCou.
 Raff kept on since  90.42% of shell-pairs survive, threshold=   0.20 IRatSp=90.
          There are    54 degrees of freedom in the 1st order CPHF.  IDoFFX=6 NUNeed=     0.
     48 vectors produced by pass  0 Test12= 1.67D-14 1.85D-09 XBig12= 7.62D-02 5.03D-02.
 AX will form    48 AO Fock derivatives at one time.
     48 vectors produced by pass  1 Test12= 1.67D-14 1.85D-09 XBig12= 6.17D-03 2.53D-02.
     48 vectors produced by pass  2 Test12= 1.67D-14 1.85D-09 XBig12= 2.15D-04 3.57D-03.
     48 vectors produced by pass  3 Test12= 1.67D-14 1.85D-09 XBig12= 2.46D-06 2.79D-04.
     48 vectors produced by pass  4 Test12= 1.67D-14 1.85D-09 XBig12= 1.68D-08 1.65D-05.
     48 vectors produced by pass  5 Test12= 1.67D-14 1.85D-09 XBig12= 8.29D-11 1.12D-06.
     28 vectors produced by pass  6 Test12= 1.67D-14 1.85D-09 XBig12= 3.94D-13 7.02D-08.
      5 vectors produced by pass  7 Test12= 1.67D-14 1.85D-09 XBig12= 1.54D-15 3.81D-09.
 InvSVY:  IOpt=1 It=  1 EMax= 2.78D-16
 Solved reduced A of dimension   321 with    54 vectors.
 End of Minotr F.D. properties file   721 does not exist.
 End of Minotr F.D. properties file   722 does not exist.
 End of Minotr F.D. properties file   788 does not exist.
 Leave Link 1002 at Sat Sep 28 11:42:30 2019, MaxMem=   671088640 cpu:            3843.2 elap:            1921.7
 (Enter /shared/centos7/gaussian/g16/l601.exe)
 Copying SCF densities to generalized density rwf, IOpCl= 0 IROHF=0.

 **********************************************************************

            Population analysis using the SCF density.

 **********************************************************************

 Orbital symmetries:
       Occupied  (A) (A) (A) (A) (A) (A) (A) (A) (A) (A) (A) (A)
                 (A) (A) (A) (A) (A) (A) (A) (A) (A) (A) (A) (A)
                 (A) (A) (A) (A)
       Virtual   (A) (A) (A) (A) (A) (A) (A) (A) (A) (A) (A) (A)
                 (A) (A) (A) (A) (A) (A) (A) (A) (A) (A) (A) (A)
                 (A) (A) (A) (A) (A) (A) (A) (A) (A) (A) (A) (A)
                 (A) (A) (A) (A) (A) (A) (A) (A) (A) (A) (A) (A)
                 (A) (A) (A) (A) (A) (A) (A) (A) (A) (A) (A) (A)
                 (A) (A) (A) (A) (A) (A) (A) (A) (A) (A) (A) (A)
                 (A) (A) (A) (A) (A) (A) (A) (A) (A) (A) (A) (A)
                 (A) (A) (A) (A) (A) (A) (A) (A) (A) (A) (A) (A)
                 (A) (A) (A) (A) (A) (A) (A) (A) (A) (A) (A) (A)
                 (A) (A) (A) (A) (A) (A) (A) (A) (A) (A) (A) (A)
                 (A) (A) (A) (A) (A) (A) (A) (A) (A) (A) (A) (A)
                 (A) (A) (A) (A) (A) (A) (A) (A) (A) (A) (A) (A)
                 (A) (A) (A) (A) (A) (A) (A) (A) (A) (A) (A) (A)
                 (A) (A) (A) (A) (A) (A) (A) (A) (A) (A) (A) (A)
                 (A) (A) (A) (A) (A) (A) (A) (A) (A) (A) (A) (A)
                 (A) (A) (A) (A) (A) (A) (A) (A) (A) (A) (A) (A)
                 (A) (A) (A) (A) (A) (A) (A) (A) (A) (A) (A) (A)
                 (A) (A) (A) (A) (A) (A) (A) (A) (A) (A) (A) (A)
                 (A) (A) (A) (A) (A) (A) (A) (A) (A) (A) (A) (A)
                 (A) (A) (A) (A) (A) (A) (A) (A) (A) (A) (A) (A)
                 (A) (A) (A) (A) (A) (A) (A) (A) (A) (A) (A) (A)
                 (A) (A) (A) (A) (A) (A) (A) (A) (A) (A) (A) (A)
                 (A) (A) (A) (A) (A) (A) (A) (A) (A) (A) (A) (A)
                 (A) (A) (A) (A) (A) (A) (A) (A) (A) (A) (A) (A)
                 (A) (A) (A) (A) (A) (A) (A) (A) (A) (A) (A) (A)
                 (A) (A) (A) (A) (A) (A) (A) (A) (A) (A) (A) (A)
                 (A) (A) (A) (A) (A) (A) (A) (A) (A) (A)
 The electronic state is 1-A.
 Alpha  occ. eigenvalues --  -19.65468 -19.63848 -10.59571 -10.59170 -10.57898
 Alpha  occ. eigenvalues --  -10.53460 -10.53178  -1.18141  -1.16678  -0.89324
 Alpha  occ. eigenvalues --   -0.84141  -0.77802  -0.70445  -0.66501  -0.60857
 Alpha  occ. eigenvalues --   -0.58299  -0.53753  -0.51555  -0.50275  -0.46928
 Alpha  occ. eigenvalues --   -0.46386  -0.45433  -0.44907  -0.44107  -0.41054
 Alpha  occ. eigenvalues --   -0.39086  -0.34519  -0.28966
 Alpha virt. eigenvalues --    0.05952   0.06464   0.07297   0.08873   0.11122
 Alpha virt. eigenvalues --    0.12144   0.12394   0.14171   0.15737   0.17097
 Alpha virt. eigenvalues --    0.17570   0.19349   0.20494   0.23599   0.25322
 Alpha virt. eigenvalues --    0.26645   0.28960   0.30442   0.32094   0.32369
 Alpha virt. eigenvalues --    0.36024   0.36303   0.37721   0.39365   0.40957
 Alpha virt. eigenvalues --    0.42033   0.42654   0.43114   0.44485   0.46226
 Alpha virt. eigenvalues --    0.46948   0.47865   0.49012   0.49675   0.49976
 Alpha virt. eigenvalues --    0.50949   0.51297   0.52436   0.53250   0.54132
 Alpha virt. eigenvalues --    0.55053   0.57109   0.59244   0.62211   0.64158
 Alpha virt. eigenvalues --    0.65965   0.67124   0.68695   0.70672   0.71534
 Alpha virt. eigenvalues --    0.72107   0.74533   0.76050   0.79019   0.80318
 Alpha virt. eigenvalues --    0.82629   0.84622   0.87381   0.89016   0.89158
 Alpha virt. eigenvalues --    0.92165   0.94488   0.97007   0.97788   0.99458
 Alpha virt. eigenvalues --    1.00867   1.02399   1.04938   1.05864   1.06716
 Alpha virt. eigenvalues --    1.07834   1.09491   1.10564   1.12844   1.13823
 Alpha virt. eigenvalues --    1.14256   1.16494   1.17629   1.19212   1.20293
 Alpha virt. eigenvalues --    1.23169   1.23654   1.26627   1.27218   1.28381
 Alpha virt. eigenvalues --    1.30129   1.31323   1.31968   1.32925   1.33756
 Alpha virt. eigenvalues --    1.35343   1.36601   1.39138   1.40240   1.41719
 Alpha virt. eigenvalues --    1.42822   1.44659   1.46611   1.46844   1.49714
 Alpha virt. eigenvalues --    1.52813   1.52970   1.56112   1.56642   1.60964
 Alpha virt. eigenvalues --    1.62655   1.64792   1.69514   1.79110   1.87020
 Alpha virt. eigenvalues --    1.87349   1.91144   1.99034   2.00267   2.02881
 Alpha virt. eigenvalues --    2.07554   2.12380   2.14101   2.19543   2.24138
 Alpha virt. eigenvalues --    2.26690   2.29358   2.29469   2.32691   2.35196
 Alpha virt. eigenvalues --    2.38803   2.39011   2.43841   2.45289   2.46623
 Alpha virt. eigenvalues --    2.49069   2.50782   2.53091   2.55296   2.55658
 Alpha virt. eigenvalues --    2.58673   2.61443   2.63221   2.63631   2.66566
 Alpha virt. eigenvalues --    2.67029   2.71794   2.74566   2.75342   2.79485
 Alpha virt. eigenvalues --    2.80040   2.81022   2.81850   2.83433   2.84710
 Alpha virt. eigenvalues --    2.85864   2.87621   2.89824   2.90971   2.92490
 Alpha virt. eigenvalues --    2.94181   2.95496   2.97307   2.99051   2.99853
 Alpha virt. eigenvalues --    3.02045   3.05074   3.06146   3.06805   3.08161
 Alpha virt. eigenvalues --    3.09146   3.10313   3.11459   3.11809   3.13608
 Alpha virt. eigenvalues --    3.15755   3.17832   3.19935   3.21780   3.22791
 Alpha virt. eigenvalues --    3.23747   3.25465   3.28249   3.29413   3.30257
 Alpha virt. eigenvalues --    3.31715   3.32012   3.32796   3.35964   3.36896
 Alpha virt. eigenvalues --    3.37172   3.40054   3.40863   3.41501   3.42847
 Alpha virt. eigenvalues --    3.43955   3.46978   3.47854   3.51405   3.52474
 Alpha virt. eigenvalues --    3.54767   3.55337   3.56659   3.58246   3.60290
 Alpha virt. eigenvalues --    3.63338   3.64838   3.66757   3.68097   3.71853
 Alpha virt. eigenvalues --    3.73547   3.74968   3.76776   3.78082   3.78898
 Alpha virt. eigenvalues --    3.80289   3.81675   3.82682   3.83474   3.85173
 Alpha virt. eigenvalues --    3.87587   3.89158   3.90354   3.92325   3.92555
 Alpha virt. eigenvalues --    3.94128   3.97362   3.98518   4.00260   4.00948
 Alpha virt. eigenvalues --    4.02232   4.03821   4.04591   4.06085   4.06471
 Alpha virt. eigenvalues --    4.07946   4.09875   4.13410   4.15785   4.17261
 Alpha virt. eigenvalues --    4.20175   4.23067   4.23374   4.25833   4.27980
 Alpha virt. eigenvalues --    4.29688   4.32654   4.34860   4.38319   4.39678
 Alpha virt. eigenvalues --    4.41986   4.47378   4.49081   4.51252   4.55531
 Alpha virt. eigenvalues --    4.58189   4.60349   4.65599   4.66469   4.69583
 Alpha virt. eigenvalues --    4.72458   4.73183   4.74032   4.78973   4.79294
 Alpha virt. eigenvalues --    4.80829   4.81520   4.86308   4.88508   4.92353
 Alpha virt. eigenvalues --    4.96488   4.97503   5.00079   5.03838   5.05281
 Alpha virt. eigenvalues --    5.07498   5.08970   5.12097   5.16056   5.20074
 Alpha virt. eigenvalues --    5.20532   5.21027   5.24446   5.25987   5.26946
 Alpha virt. eigenvalues --    5.31849   5.32382   5.37293   5.41879   5.45271
 Alpha virt. eigenvalues --    5.48753   5.54843   5.58393   5.65797   5.71436
 Alpha virt. eigenvalues --    5.75745   5.77476   5.79972   5.82494   5.85920
 Alpha virt. eigenvalues --    5.89247   5.98769   6.21897   6.25303   6.31247
 Alpha virt. eigenvalues --    6.32504   6.48380   6.49770   6.58513   6.68343
 Alpha virt. eigenvalues --    6.74965   6.75995   6.78479   6.84036   7.02289
 Alpha virt. eigenvalues --    7.10075   7.12152   7.26847   7.29495   7.36351
 Alpha virt. eigenvalues --   10.42833  11.11851  11.66318  11.76334  13.20751
 Alpha virt. eigenvalues --   13.26672  14.21776
          Condensed to atoms (all electrons):
               1          2          3          4          5          6
     1  O    7.878986   0.003342   0.301893  -0.042699  -0.050139   0.334890
     2  O    0.003342   7.777622   0.000285  -0.000300  -0.000004  -0.071297
     3  C    0.301893   0.000285   4.851210   0.321432   0.341552  -0.071087
     4  C   -0.042699  -0.000300   0.321432   5.103096  -0.062795  -0.017346
     5  C   -0.050139  -0.000004   0.341552  -0.062795   4.959989   0.006091
     6  C    0.334890  -0.071297  -0.071087  -0.017346   0.006091   5.075774
     7  C   -0.058696   0.351401   0.000737  -0.006054   0.000074   0.447660
     8  H   -0.058115   0.000012   0.390713  -0.076190  -0.040366   0.012290
     9  H    0.001946   0.000019  -0.040666   0.389478  -0.005874   0.003381
    10  H   -0.003454   0.000918  -0.032427   0.412263   0.008444   0.001764
    11  H    0.004173  -0.000000  -0.026739   0.385129  -0.007518   0.001003
    12  H    0.001133   0.000001  -0.037536  -0.011980   0.397111   0.000221
    13  H    0.003171  -0.000001  -0.038530   0.010202   0.400359   0.000467
    14  H    0.004006  -0.000000  -0.038844   0.000480   0.389727   0.000007
    15  H   -0.046153  -0.001426   0.000041  -0.001555  -0.000365   0.447607
    16  H   -0.000251  -0.029883   0.001337  -0.005537  -0.000435  -0.061700
    17  H    0.000116   0.327483   0.000185  -0.000150  -0.000005  -0.005569
               7          8          9         10         11         12
     1  O   -0.058696  -0.058115   0.001946  -0.003454   0.004173   0.001133
     2  O    0.351401   0.000012   0.000019   0.000918  -0.000000   0.000001
     3  C    0.000737   0.390713  -0.040666  -0.032427  -0.026739  -0.037536
     4  C   -0.006054  -0.076190   0.389478   0.412263   0.385129  -0.011980
     5  C    0.000074  -0.040366  -0.005874   0.008444  -0.007518   0.397111
     6  C    0.447660   0.012290   0.003381   0.001764   0.001003   0.000221
     7  C    5.006261  -0.007978  -0.002356  -0.009450  -0.000180  -0.000260
     8  H   -0.007978   0.676332   0.010033  -0.009006   0.001257   0.010182
     9  H   -0.002356   0.010033   0.569599  -0.036117  -0.026213   0.004824
    10  H   -0.009450  -0.009006  -0.036117   0.575154  -0.027285  -0.000171
    11  H   -0.000180   0.001257  -0.026213  -0.027285   0.578432   0.000720
    12  H   -0.000260   0.010182   0.004824  -0.000171   0.000720   0.584069
    13  H    0.000297  -0.010438  -0.000229  -0.000403  -0.000399  -0.030692
    14  H    0.000032  -0.003721  -0.000320  -0.000042  -0.000328  -0.032444
    15  H   -0.105815   0.008117   0.000155  -0.000531   0.000175   0.000112
    16  H    0.417298   0.001015   0.000756  -0.011643   0.000688   0.000042
    17  H   -0.051435   0.000135   0.000005  -0.000308   0.000014   0.000001
              13         14         15         16         17
     1  O    0.003171   0.004006  -0.046153  -0.000251   0.000116
     2  O   -0.000001  -0.000000  -0.001426  -0.029883   0.327483
     3  C   -0.038530  -0.038844   0.000041   0.001337   0.000185
     4  C    0.010202   0.000480  -0.001555  -0.005537  -0.000150
     5  C    0.400359   0.389727  -0.000365  -0.000435  -0.000005
     6  C    0.000467   0.000007   0.447607  -0.061700  -0.005569
     7  C    0.000297   0.000032  -0.105815   0.417298  -0.051435
     8  H   -0.010438  -0.003721   0.008117   0.001015   0.000135
     9  H   -0.000229  -0.000320   0.000155   0.000756   0.000005
    10  H   -0.000403  -0.000042  -0.000531  -0.011643  -0.000308
    11  H   -0.000399  -0.000328   0.000175   0.000688   0.000014
    12  H   -0.030692  -0.032444   0.000112   0.000042   0.000001
    13  H    0.571575  -0.027762  -0.000270   0.000001  -0.000001
    14  H   -0.027762   0.604396   0.000026   0.000034   0.000000
    15  H   -0.000270   0.000026   0.572047   0.004006   0.006512
    16  H    0.000001   0.000034   0.004006   0.500904   0.006693
    17  H   -0.000001   0.000000   0.006512   0.006693   0.454175
 Mulliken charges:
               1
     1  O   -0.274150
     2  O   -0.358169
     3  C    0.076445
     4  C   -0.397472
     5  C   -0.335846
     6  C   -0.104156
     7  C    0.018464
     8  H    0.095729
     9  H    0.131577
    10  H    0.132293
    11  H    0.117071
    12  H    0.114669
    13  H    0.122654
    14  H    0.104754
    15  H    0.117315
    16  H    0.176675
    17  H    0.262148
 Sum of Mulliken charges =  -0.00000
 Mulliken charges with hydrogens summed into heavy atoms:
               1
     1  O   -0.274150
     2  O   -0.096021
     3  C    0.172174
     4  C   -0.016531
     5  C    0.006231
     6  C    0.013159
     7  C    0.195139
 APT charges:
               1
     1  O   -0.187361
     2  O   -0.430025
     3  C   -0.107282
     4  C   -1.013421
     5  C   -1.268955
     6  C   -0.495752
     7  C   -0.248766
     8  H    0.278543
     9  H    0.350127
    10  H    0.215230
    11  H    0.447507
    12  H    0.354087
    13  H    0.403599
    14  H    0.459970
    15  H    0.391068
    16  H    0.288927
    17  H    0.562504
 Sum of APT charges =  -0.00000
 APT charges with hydrogens summed into heavy atoms:
               1
     1  O   -0.187361
     2  O    0.132479
     3  C    0.171261
     4  C   -0.000557
     5  C   -0.051300
     6  C   -0.104683
     7  C    0.040161
 Electronic spatial extent (au):  <R**2>=           1012.5513
 Charge=             -0.0000 electrons
 Dipole moment (field-independent basis, Debye):
    X=              0.4644    Y=             -0.1283    Z=              1.3310  Tot=              1.4155
 Quadrupole moment (field-independent basis, Debye-Ang):
   XX=            -43.9138   YY=            -43.4659   ZZ=            -44.1805
   XY=              5.0194   XZ=             -1.5575   YZ=             -3.0919
 Traceless Quadrupole moment (field-independent basis, Debye-Ang):
   XX=             -0.0604   YY=              0.3875   ZZ=             -0.3271
   XY=              5.0194   XZ=             -1.5575   YZ=             -3.0919
 Octapole moment (field-independent basis, Debye-Ang**2):
  XXX=             -2.1491  YYY=             -4.1142  ZZZ=             -0.7333  XYY=             -7.8119
  XXY=            -16.1168  XXZ=              9.5539  XZZ=             -4.5787  YZZ=              0.0219
  YYZ=              2.1139  XYZ=              5.1656
 Hexadecapole moment (field-independent basis, Debye-Ang**3):
 XXXX=          -1015.0085 YYYY=           -241.2797 ZZZZ=            -87.0493 XXXY=             52.5305
 XXXZ=            -31.9392 YYYX=             -1.5286 YYYZ=             -3.3383 ZZZX=             -6.8429
 ZZZY=             -2.0031 XXYY=           -195.4854 XXZZ=           -171.5572 YYZZ=            -53.5970
 XXYZ=            -11.3672 YYXZ=             -0.3794 ZZXY=              2.0657
 N-N= 3.136155554663D+02 E-N=-1.437167311585D+03  KE= 3.447663198335D+02
  Exact polarizability:   0.000   0.000   0.000   0.000   0.000   0.000
 Approx polarizability:  88.036  -5.146  81.206   0.124  -4.986  72.227
 No NMR shielding tensors so no spin-rotation constants.
 Leave Link  601 at Sat Sep 28 11:42:52 2019, MaxMem=   671088640 cpu:              43.0 elap:              21.5
 (Enter /shared/centos7/gaussian/g16/l701.exe)
 SCFChk:  SCF convergence  2.56D-09 required  1.00D-08
 ... and contract with generalized density number  0.
 Compute integral second derivatives.
 Entering OneElI...
 Calculate overlap and kinetic energy integrals
    NBasis = 395  MinDer = 2  MaxDer = 2
 Requested accuracy = 0.1000D-12
 PrmmSu-InSpLW:  IPartL=    0 NPrtUS=   20 NPrtUL=    1 DoSpLW=F IThBeg=    0 IThEnd=   19 NThAct=   20.
 PrsmSu:  NPrtUS=  20 ThrOK=T IAlg=1 NPAlg=1 LenDen=           0 ISkipM=0 DoSpLW=F IThBeg=    0 IThEnd=   19.
 Prism:   IPart=     0 DynPar=F LinDyn=F Incr=           4.
 PRISM was handed    33314390 working-precision words and  8393 shell-pairs
 PRISM was handed    33314390 working-precision words and  8393 shell-pairs
 PRISM was handed    33314390 working-precision words and  8393 shell-pairs
 PRISM was handed    33314390 working-precision words and  8393 shell-pairs
 PRISM was handed    33314390 working-precision words and  8393 shell-pairs
 PRISM was handed    33314390 working-precision words and  8393 shell-pairs
 PRISM was handed    33314390 working-precision words and  8393 shell-pairs
 PRISM was handed    33314390 working-precision words and  8393 shell-pairs
 PRISM was handed    33314390 working-precision words and  8393 shell-pairs
 PRISM was handed    33314390 working-precision words and  8393 shell-pairs
 PRISM was handed    33314390 working-precision words and  8393 shell-pairs
 PRISM was handed    33314390 working-precision words and  8393 shell-pairs
 PRISM was handed    33314390 working-precision words and  8393 shell-pairs
 IPart=  0 NShTot=         467 NBatch=          83 AvBLen=         5.6
 IPart=  3 NShTot=         446 NBatch=          69 AvBLen=         6.5
 IPart= 16 NShTot=         397 NBatch=          39 AvBLen=        10.2
 PRISM was handed    33314390 working-precision words and  8393 shell-pairs
 PRISM was handed    33314390 working-precision words and  8393 shell-pairs
 PRISM was handed    33314390 working-precision words and  8393 shell-pairs
 PRISM was handed    33314390 working-precision words and  8393 shell-pairs
 IPart=  6 NShTot=         427 NBatch=          59 AvBLen=         7.2
 PRISM was handed    33314390 working-precision words and  8393 shell-pairs
 PRISM was handed    33314390 working-precision words and  8393 shell-pairs
 PRISM was handed    33314390 working-precision words and  8393 shell-pairs
 IPart= 15 NShTot=         399 NBatch=          39 AvBLen=        10.2
 IPart= 11 NShTot=         410 NBatch=          46 AvBLen=         8.9
 IPart=  9 NShTot=         416 NBatch=          49 AvBLen=         8.5
 IPart= 17 NShTot=         396 NBatch=          38 AvBLen=        10.4
 IPart=  1 NShTot=         466 NBatch=          82 AvBLen=         5.7
 IPart=  8 NShTot=         417 NBatch=          50 AvBLen=         8.3
 IPart= 13 NShTot=         401 NBatch=          41 AvBLen=         9.8
 IPart=  4 NShTot=         440 NBatch=          65 AvBLen=         6.8
 IPart= 10 NShTot=         414 NBatch=          49 AvBLen=         8.4
 IPart=  2 NShTot=         453 NBatch=          75 AvBLen=         6.0
 IPart= 12 NShTot=         405 NBatch=          43 AvBLen=         9.4
 IPart= 14 NShTot=         399 NBatch=          39 AvBLen=        10.2
 IPart= 19 NShTot=         394 NBatch=          37 AvBLen=        10.6
 IPart=  7 NShTot=         420 NBatch=          52 AvBLen=         8.1
 IPart= 18 NShTot=         396 NBatch=          38 AvBLen=        10.4
 IPart=  5 NShTot=         430 NBatch=          61 AvBLen=         7.0
 PrSmSu:  NxtVal=             81.
 Entering OneElI...
 Calculate potential energy integrals
    NBasis = 395  MinDer = 2  MaxDer = 2
 Requested accuracy = 0.1000D-12
 PrmmSu-InSpLW:  IPartL=    0 NPrtUS=   20 NPrtUL=    1 DoSpLW=F IThBeg=    0 IThEnd=   19 NThAct=   20.
 PrsmSu:  NPrtUS=  20 ThrOK=T IAlg=1 NPAlg=1 LenDen=           0 ISkipM=0 DoSpLW=F IThBeg=    0 IThEnd=   19.
 Prism:   IPart=     0 DynPar=F LinDyn=F Incr=          64.
 PRISM was handed    33356388 working-precision words and  7638 shell-pairs
 PRISM was handed    33356388 working-precision words and  7638 shell-pairs
 PRISM was handed    33356388 working-precision words and  7638 shell-pairs
 PRISM was handed    33356388 working-precision words and  7638 shell-pairs
 PRISM was handed    33356388 working-precision words and  7638 shell-pairs
 PRISM was handed    33356388 working-precision words and  7638 shell-pairs
 PRISM was handed    33356388 working-precision words and  7638 shell-pairs
 PRISM was handed    33356388 working-precision words and  7638 shell-pairs
 PRISM was handed    33356388 working-precision words and  7638 shell-pairs
 PRISM was handed    33356388 working-precision words and  7638 shell-pairs
 PRISM was handed    33356388 working-precision words and  7638 shell-pairs
 PRISM was handed    33356388 working-precision words and  7638 shell-pairs
 PRISM was handed    33356388 working-precision words and  7638 shell-pairs
 PRISM was handed    33356388 working-precision words and  7638 shell-pairs
 PRISM was handed    33356388 working-precision words and  7638 shell-pairs
 PRISM was handed    33356388 working-precision words and  7638 shell-pairs
 PRISM was handed    33356388 working-precision words and  7638 shell-pairs
 PRISM was handed    33356388 working-precision words and  7638 shell-pairs
 PRISM was handed    33356388 working-precision words and  7638 shell-pairs
 PRISM was handed    33356388 working-precision words and  7638 shell-pairs
 IPart= 16 NShTot=        6171 NBatch=         363 AvBLen=        17.0
 IPart= 17 NShTot=        6120 NBatch=         360 AvBLen=        17.0
 IPart=  6 NShTot=        6664 NBatch=         392 AvBLen=        17.0
 IPart= 12 NShTot=        6307 NBatch=         371 AvBLen=        17.0
 IPart=  8 NShTot=        6494 NBatch=         382 AvBLen=        17.0
 IPart=  4 NShTot=        6800 NBatch=         400 AvBLen=        17.0
 IPart=  1 NShTot=        7072 NBatch=         416 AvBLen=        17.0
 IPart=  2 NShTot=        6970 NBatch=         410 AvBLen=        17.0
 IPart= 13 NShTot=        6290 NBatch=         370 AvBLen=        17.0
 IPart= 18 NShTot=        6103 NBatch=         359 AvBLen=        17.0
 IPart= 19 NShTot=        6018 NBatch=         354 AvBLen=        17.0
 IPart= 10 NShTot=        6392 NBatch=         376 AvBLen=        17.0
 IPart=  0 NShTot=        7106 NBatch=         418 AvBLen=        17.0
 IPart= 14 NShTot=        6273 NBatch=         369 AvBLen=        17.0
 IPart=  9 NShTot=        6443 NBatch=         379 AvBLen=        17.0
 IPart=  7 NShTot=        6511 NBatch=         383 AvBLen=        17.0
 IPart=  5 NShTot=        6715 NBatch=         395 AvBLen=        17.0
 IPart= 15 NShTot=        6205 NBatch=         365 AvBLen=        17.0
 IPart=  3 NShTot=        6851 NBatch=         403 AvBLen=        17.0
 IPart= 11 NShTot=        6341 NBatch=         373 AvBLen=        17.0
 PrSmSu:  NxtVal=           1281.
 Polarizability after L701:
                1             2             3 
      1  0.000000D+00
      2  0.000000D+00  0.000000D+00
      3  0.000000D+00  0.000000D+00  0.000000D+00
 Dipole Derivatives after L701:
                 1             2             3             4             5 
      1  -0.232369D+00 -0.444909D-01 -0.310393D-01 -0.510505D-01 -0.156739D+01
      2  -0.201978D+00 -0.169188D+00  0.598178D-01 -0.235550D+00 -0.644737D+00
      3  -0.943512D-01  0.670018D-01 -0.160526D+00  0.106966D+00  0.289854D+00
                 6             7             8             9            10 
      1   0.805079D+00  0.182782D+00 -0.606643D-01 -0.565309D+00 -0.759540D+00
      2   0.207722D+00 -0.141027D+00  0.613337D-01 -0.178838D-01  0.556139D-01
      3  -0.594287D+00 -0.524868D-01  0.238246D-01 -0.565961D+00  0.416057D-01
                11            12            13            14            15 
      1  -0.620151D+00  0.170130D+00 -0.193660D+01  0.360457D+00  0.231249D+00
      2  -0.138273D+01  0.612686D-01  0.909284D-01 -0.929762D+00 -0.299955D-02
      3  -0.117526D+00 -0.897992D+00 -0.886251D-01  0.361780D-01 -0.940501D+00
                16            17            18            19            20 
      1  -0.586536D+00  0.105866D+00  0.406585D+00 -0.304449D+00  0.338363D+00
      2   0.109432D-02 -0.625389D+00  0.393231D+00  0.187079D+00 -0.383405D+00
      3   0.273346D+00  0.354174D+00 -0.275330D+00  0.825802D-01  0.200500D+00
                21            22            23            24            25 
      1  -0.321117D+00  0.101049D+00 -0.337741D-01  0.356751D+00  0.201608D+00
      2   0.206315D+00  0.101713D-01  0.168022D+00 -0.568284D-01  0.108669D+00
      3  -0.584433D-01 -0.334550D-01 -0.548940D-01  0.566559D+00 -0.102921D+00
                26            27            28            29            30 
      1   0.142431D+00 -0.446076D+00  0.234743D+00  0.919665D-02 -0.145513D-01
      2   0.295769D+00 -0.564051D+00 -0.675147D+00  0.266334D+00  0.349990D-01
      3  -0.120661D+00  0.553004D+00 -0.851589D-01  0.249628D-01  0.144612D+00
                31            32            33            34            35 
      1   0.471661D+00  0.393788D+00  0.389015D+00  0.402141D+00  0.122107D+00
      2   0.465669D+00  0.589237D+00  0.482483D+00 -0.383812D-01  0.877661D-01
      3   0.178110D+00  0.181024D+00  0.281622D+00 -0.116441D+00 -0.586771D-01
                36            37            38            39            40 
      1  -0.103821D+01  0.345512D+00 -0.102001D+01  0.260262D+00  0.958146D+00
      2   0.875937D-01 -0.127666D+00  0.714970D+00 -0.163291D+00  0.922843D-01
      3   0.572353D+00  0.708381D-02 -0.118499D+00  0.150314D+00  0.181157D+00
                41            42            43            44            45 
      1   0.698201D+00  0.618908D+00  0.291442D+00  0.396882D+00 -0.272415D+00
      2   0.179539D+00  0.828971D-01  0.183471D+00  0.682160D+00 -0.385278D+00
      3   0.160771D+00  0.242224D+00 -0.896451D-01 -0.253588D+00  0.199603D+00
                46            47            48            49            50 
      1  -0.263535D-01 -0.542962D+00  0.324318D+00  0.707817D+00  0.132215D+01
      2   0.145873D+00  0.559502D+00 -0.263903D+00  0.788961D-01  0.530577D+00
      3  -0.119832D+00 -0.349248D+00  0.333631D+00 -0.879329D-01 -0.265197D+00
                51 
      1  -0.873578D+00
      2  -0.162091D+00
      3   0.449118D+00
 Hessian after L701:
                1             2             3             4             5 
      1  0.407804D+01
      2 -0.249563D+01  0.145010D+02
      3 -0.156328D+00 -0.235948D+01  0.162936D+02
      4  0.464159D+00 -0.216889D+00 -0.114606D+00  0.471719D+01
      5 -0.248084D+00 -0.153517D+00  0.504627D-01 -0.317310D+00  0.110835D+02
      6 -0.103304D+00  0.452774D-01 -0.200565D+00  0.314645D+01  0.216707D+01
      7 -0.442722D+01  0.353920D+01  0.260753D+01  0.200936D+00 -0.341204D-01
      8  0.335234D+01 -0.595551D+01  0.245466D+01 -0.535308D-04 -0.974318D-01
      9  0.247239D+01  0.243161D+01 -0.732961D+01 -0.719702D-02  0.677731D-02
     10 -0.315926D+00 -0.310242D-02 -0.119581D+00  0.193040D+00  0.756445D-01
     11 -0.383478D-01  0.744748D+00 -0.153576D+00  0.429201D-01 -0.880841D-01
     12 -0.910109D-01 -0.676355D-01 -0.252703D+00 -0.439373D-02 -0.332997D-02
     13  0.382047D+00  0.468340D-01  0.370713D-01  0.631039D-01 -0.179997D-01
     14  0.997936D-01 -0.175011D+00 -0.365060D-01 -0.933198D-02 -0.431764D-01
     15  0.761018D-01 -0.405781D-01 -0.175401D+00  0.207289D-02  0.639396D-03
     16 -0.121384D+00 -0.244743D+00 -0.280855D+01 -0.252181D-01 -0.194605D+00
     17  0.341641D-01 -0.975826D+01  0.467924D+00 -0.116267D+00  0.119877D+00
     18 -0.258256D+01  0.461734D+00 -0.859327D+01  0.173001D+00  0.157540D+00
     19 -0.104313D+00 -0.463751D+00  0.540272D+00 -0.109230D+00 -0.307794D+00
     20 -0.510744D+00  0.369273D+00 -0.104250D+00 -0.173618D+00 -0.844623D+01
     21  0.407166D+00 -0.744822D-01  0.456979D-01 -0.271391D+01 -0.633172D-02
     22  0.836234D-01 -0.213930D+00 -0.210501D+00  0.240867D-01 -0.551931D-02
     23 -0.182818D+00 -0.103137D-02 -0.305269D+00 -0.674513D-02 -0.113445D-01
     24 -0.211863D+00 -0.347756D+00  0.292761D+00  0.337596D-01 -0.811151D-02
     25 -0.383300D-01  0.500482D-01 -0.332170D-02  0.207510D-01  0.766294D-02
     26  0.393238D-01  0.854168D-01 -0.473540D-02  0.158084D-01 -0.792711D-02
     27 -0.149023D-01 -0.513833D-01 -0.405903D-01 -0.240214D-01 -0.294566D-02
     28 -0.159306D-01 -0.693393D-01 -0.101305D-01  0.807869D-02  0.225627D-01
     29 -0.541631D-02  0.680781D-01 -0.185449D-01  0.501923D-01 -0.113634D-01
     30  0.366630D-02 -0.108845D-01 -0.438969D-01  0.335247D-02  0.247043D-02
     31 -0.938022D-02  0.792449D-01  0.380266D-01  0.223949D-01  0.755322D-02
     32  0.701207D-01  0.925973D-01  0.741793D-01  0.176862D-01 -0.456681D-02
     33  0.361231D-01  0.763767D-01 -0.817348D-02  0.113900D-01  0.201034D-02
     34  0.101536D+00  0.236133D-01 -0.189376D-02  0.134074D-01 -0.430446D-02
     35  0.297476D-01 -0.508076D-01 -0.142263D-03  0.507660D-03 -0.551552D-02
     36 -0.593899D-01 -0.101913D-01 -0.449742D-01 -0.149968D-01  0.529076D-02
     37  0.103178D+00 -0.183714D-03  0.227348D-01  0.119961D-01 -0.734944D-02
     38 -0.650271D-01 -0.559837D-01 -0.115081D-01 -0.155940D-01  0.418809D-02
     39  0.406116D-01 -0.686947D-03 -0.603825D-01  0.379687D-02 -0.216155D-02
     40  0.106834D+00  0.819940D-01  0.701061D-01  0.153943D-01 -0.327779D-02
     41  0.736880D-01 -0.906616D-02  0.310579D-01  0.567442D-02 -0.596773D-02
     42  0.650957D-01  0.324859D-01 -0.165312D-01  0.606788D-02 -0.143074D-02
     43 -0.324851D+00 -0.665556D-01  0.135619D+00 -0.793465D-02 -0.504676D-01
     44 -0.845346D-01  0.257094D+00 -0.602257D-01 -0.933568D-01  0.681293D-01
     45  0.138149D+00 -0.562757D-01  0.187176D+00  0.398751D-01 -0.569322D-01
     46 -0.795717D-02 -0.443466D-01 -0.525576D-02 -0.146321D+00 -0.865067D-01
     47 -0.102450D+00  0.626076D-01 -0.160111D-01 -0.428833D-01  0.113765D+00
     48  0.221381D-01 -0.308125D-01 -0.471112D-01  0.125630D+00  0.150195D-01
     49  0.458752D-01 -0.246245D-02 -0.211941D-01 -0.546583D+01  0.116391D+01
     50  0.338800D-01 -0.216092D-01 -0.804095D-02  0.859260D+00 -0.251430D+01
     51 -0.420764D-01  0.268166D-02 -0.598603D-02 -0.666268D+00 -0.232603D+01
                6             7             8             9            10 
      6  0.127569D+02
      7  0.224194D-01  0.164915D+02
      8  0.237411D-03 -0.214621D+01  0.182666D+02
      9 -0.103912D+00 -0.196237D+01 -0.173509D+01  0.211614D+02
     10  0.153562D-02 -0.623580D+01 -0.550717D+00  0.835584D-01  0.144907D+02
     11 -0.162745D-02 -0.650306D+00 -0.148135D+01 -0.660035D+00  0.178617D+00
     12 -0.105864D+00  0.820378D-01 -0.643393D+00 -0.607618D+01 -0.581414D-01
     13  0.112571D-02 -0.209196D+01 -0.107721D+01 -0.749086D+00  0.105039D+00
     14  0.294382D-02 -0.106185D+01 -0.614481D+01  0.172851D+00 -0.193430D+00
     15 -0.426463D-01 -0.736867D+00  0.182025D+00 -0.628667D+01  0.131993D-01
     16  0.282916D+00  0.179749D+00  0.264036D+00  0.125465D+00 -0.774687D-01
     17  0.120157D+00  0.185337D+00  0.233452D-01  0.421531D-01  0.246359D+00
     18  0.133247D+00  0.125668D+00  0.447269D-01  0.106096D-01  0.263891D-01
     19 -0.267400D+01  0.249208D+00  0.540605D-01  0.130812D+00  0.360087D+00
     20 -0.300123D-01  0.366006D-02 -0.191626D+00  0.731226D-02  0.268930D+00
     21 -0.779971D+01  0.146924D+00  0.281817D-02 -0.123160D+00  0.428908D-01
     22  0.139639D-01 -0.459814D+01  0.617885D-01 -0.115867D+00  0.260578D+00
     23 -0.182501D-02  0.708351D-01 -0.455334D+01 -0.252543D+00 -0.722649D-02
     24  0.161751D-04 -0.244974D+00 -0.270229D+00 -0.154100D+01 -0.376278D-02
     25 -0.774527D-02  0.965383D-01 -0.390921D-02 -0.159651D-01 -0.394657D+01
     26 -0.290410D-02  0.341098D-02 -0.442907D-01  0.131309D+00  0.182920D+00
     27 -0.501242D-02 -0.183052D-01  0.747675D-01  0.551665D-01 -0.475326D+00
     28  0.114028D-02  0.396471D-01  0.161030D-01 -0.253567D-01 -0.184539D+01
     29  0.423274D-02  0.113525D+00  0.142914D-01  0.544694D-02 -0.961600D+00
     30 -0.301274D-01 -0.180715D-01 -0.467360D-02  0.542918D-01 -0.375648D+00
     31  0.641535D-02  0.263860D-01 -0.513764D-01  0.185150D-01 -0.307629D+01
     32  0.451582D-02 -0.956084D-01 -0.262341D-01 -0.107539D-01  0.881591D+00
     33 -0.522063D-02  0.365040D-02  0.674585D-02  0.525138D-01  0.780847D+00
     34 -0.221062D-02  0.284743D-01  0.221931D-01  0.986933D-01 -0.236577D-01
     35  0.162731D-03  0.275966D-01  0.620841D-01 -0.465422D-01  0.152441D-01
     36 -0.375632D-02  0.279179D-01 -0.302800D-01  0.384371D-01 -0.319636D-03
     37  0.154459D-02  0.285367D-01  0.916488D-01  0.242499D-01  0.764340D-02
     38 -0.266001D-02  0.265490D-01  0.355681D-01 -0.496666D-01 -0.105943D+00
     39 -0.399810D-02  0.220013D-01 -0.422436D-01  0.642734D-01  0.129094D-01
     40  0.390005D-02 -0.948741D-01 -0.793170D-01 -0.599564D-01  0.807352D-01
     41  0.178289D-02 -0.314315D-01  0.745652D-01  0.182083D-01 -0.219323D-01
     42 -0.266310D-02 -0.429083D-01  0.809859D-02  0.669106D-01  0.448881D-01
     43  0.194011D-01  0.560229D-01  0.603990D-01 -0.329465D-01 -0.631732D-02
     44 -0.496463D-01  0.834858D-01  0.295796D-01 -0.370773D-01  0.135847D-01
     45 -0.350841D-01 -0.448850D-01 -0.311653D-01 -0.246634D-01 -0.570436D-02
     46  0.135766D+00  0.263508D-01 -0.181962D-01  0.221396D-01  0.171038D-01
     47 -0.248702D-02 -0.560627D-01 -0.785806D-02 -0.168027D-01 -0.431662D-01
     48  0.859327D-02  0.449494D-01 -0.149129D-01 -0.154821D-01  0.457102D-01
     49 -0.849313D+00  0.246432D-01  0.441814D-02 -0.707861D-02  0.125179D-01
     50 -0.225522D+01  0.219832D-01 -0.361084D-02 -0.715084D-02  0.242280D-01
     51 -0.456021D+01 -0.147190D-01 -0.209103D-02 -0.294010D-02 -0.134458D-01
               11            12            13            14            15 
     11  0.120552D+02
     12  0.140181D+00  0.161107D+02
     13 -0.103351D+00 -0.486974D-02  0.112466D+02
     14  0.336665D-01  0.384586D-02  0.763071D+00  0.147753D+02
     15 -0.185690D-01 -0.964887D-01  0.216990D+00 -0.756706D-02  0.151007D+02
     16  0.164402D+00  0.300826D-01  0.318250D+00  0.472855D-01 -0.319436D-02
     17  0.128077D+00  0.298442D-01  0.204681D-01 -0.151670D+00  0.248623D-02
     18  0.422028D-01 -0.145749D+00 -0.269191D-01 -0.569696D-03 -0.153192D+00
     19  0.186589D+00  0.779890D-01  0.106789D+00 -0.182289D-01  0.119442D-01
     20 -0.138101D+00  0.583441D-01 -0.345302D-01 -0.669565D-01  0.756874D-03
     21  0.357288D-01 -0.193991D+00 -0.427581D-02  0.270805D-02 -0.674090D-01
     22  0.172965D-01 -0.235189D-01 -0.749220D-01 -0.131671D-02  0.149883D+00
     23 -0.103103D+00  0.291371D+00  0.122084D-02  0.101981D+00 -0.119236D-01
     24  0.351756D+00  0.105469D-01  0.161409D+00 -0.419263D-02  0.188579D-02
     25  0.159435D+00 -0.518063D+00 -0.487204D-02 -0.152749D-01  0.275717D-02
     26 -0.391220D+01 -0.793327D+00 -0.130094D-01  0.352454D-02 -0.955636D-02
     27 -0.609468D+00 -0.176375D+01  0.895493D-02 -0.261421D-01  0.168759D-02
     28 -0.626241D+00 -0.325241D+00  0.110110D+00 -0.112361D+00 -0.104655D-01
     29 -0.431833D+01  0.136448D+00 -0.121034D+00  0.272394D-01  0.906538D-02
     30  0.107039D+00 -0.439168D+01 -0.122019D-01  0.886443D-02 -0.485349D-01
     31  0.807520D+00  0.784468D+00 -0.117306D-01  0.694885D-02  0.260218D-02
     32 -0.298940D+01  0.904838D+00  0.564916D-02  0.148100D-01  0.641013D-02
     33  0.824703D+00 -0.299823D+01  0.120137D-02  0.194762D-01 -0.693206D-02
     34  0.271679D-01  0.136510D-01 -0.371337D+01  0.107794D+00 -0.766934D+00
     35 -0.618167D-02 -0.103693D-01  0.740742D-01 -0.379215D+01 -0.230724D+00
     36 -0.926389D-02  0.134933D-01 -0.540088D+00 -0.272079D+00 -0.138500D+01
     37 -0.117756D+00  0.857779D-02 -0.383615D+01 -0.616397D+00  0.153085D+00
     38  0.130429D+00 -0.143589D-01 -0.416316D+00 -0.160978D+01 -0.522791D+00
     39 -0.210390D-01 -0.511213D-01  0.109316D+00 -0.531645D+00 -0.375428D+01
     40 -0.403982D-01  0.310207D-01 -0.261573D+01  0.996743D+00  0.889620D+00
     41 -0.303827D-01 -0.673464D-02  0.864511D+00 -0.296767D+01  0.649025D+00
     42 -0.135857D-01 -0.301844D-01  0.806511D+00  0.678137D+00 -0.306881D+01
     43 -0.318281D-04 -0.128354D-02  0.118172D-01  0.709582D-02 -0.211722D-02
     44  0.271531D-02 -0.423877D-02  0.148506D-01 -0.157373D-02 -0.199408D-02
     45 -0.491746D-02 -0.892228D-02 -0.768573D-02 -0.502541D-02 -0.109674D-01
     46 -0.110312D-01  0.291418D-03 -0.195546D-02 -0.225762D-02  0.191608D-02
     47 -0.241246D-01 -0.196722D-01 -0.135537D-01 -0.260710D-02 -0.673902D-02
     48 -0.862125D-02 -0.143709D-01  0.754575D-02 -0.342781D-02 -0.449887D-02
     49  0.351526D-02 -0.159619D-02  0.690600D-02  0.171758D-02 -0.593872D-03
     50 -0.361446D-02 -0.181247D-02  0.632468D-02 -0.107505D-02  0.352465D-04
     51 -0.908063D-03 -0.553639D-02 -0.499898D-02 -0.167201D-02 -0.348342D-02
               16            17            18            19            20 
     16  0.969621D+01
     17  0.390795D+01  0.183028D+02
     18  0.285901D+01  0.338802D+01  0.249996D+02
     19 -0.594818D+01 -0.531988D+01 -0.156467D-01  0.945905D+01
     20 -0.501834D+01 -0.575147D+01 -0.291056D+01  0.491130D+01  0.173450D+02
     21 -0.138437D-01 -0.295513D+01 -0.125635D+02  0.259580D+01  0.389163D+01
     22  0.773440D-01 -0.835153D-02  0.781448D-01 -0.617949D-01 -0.138720D-01
     23 -0.130913D-01 -0.100183D+00 -0.141009D-01 -0.160154D-01  0.136915D-01
     24  0.145326D+00 -0.302808D-02  0.219704D-02 -0.373956D-01 -0.109480D-01
     25  0.182335D-01  0.505685D-01 -0.268167D-01  0.921471D-02  0.704224D-02
     26  0.569824D-01  0.253012D-01 -0.296514D-01  0.107501D-01 -0.105862D-01
     27 -0.405711D-01 -0.431640D-01 -0.717585D-02 -0.265495D-01 -0.106132D-01
     28 -0.557067D-01 -0.141611D-01  0.250729D-02 -0.497739D-01 -0.123361D-02
     29  0.438015D-01  0.934744D-01  0.214831D-01  0.427944D-01  0.100301D-01
     30  0.113662D-01  0.210047D-01 -0.472536D-01 -0.165727D-01 -0.485493D-02
     31  0.209652D-01  0.393017D-01  0.103745D-01  0.184766D-01  0.135169D-01
     32  0.423883D-01  0.210338D-01  0.911066D-02  0.185913D-01 -0.584670D-02
     33  0.128713D-01  0.135338D-01 -0.114304D-01  0.170585D-01  0.923057D-02
     34  0.308516D-01  0.278343D-02 -0.111446D-01  0.131795D-01 -0.371125D-02
     35  0.609021D-02 -0.131259D-01 -0.136606D-02  0.334476D-03 -0.732814D-02
     36 -0.278284D-01 -0.218488D-02 -0.556020D-02 -0.171063D-01  0.247417D-02
     37  0.329958D-01 -0.959558D-02  0.243430D-02  0.232262D-01 -0.114437D-01
     38 -0.274415D-01 -0.853981D-02 -0.363347D-02 -0.222652D-01  0.118281D-02
     39  0.823269D-02 -0.164526D-02 -0.143321D-01  0.680836D-02 -0.273370D-02
     40  0.226278D-01  0.792874D-02  0.549409D-02  0.208339D-01 -0.563538D-04
     41  0.134516D-01 -0.546808D-02  0.377930D-02  0.659946D-02 -0.578410D-02
     42  0.957770D-02  0.285151D-02 -0.566960D-02  0.851990D-02  0.724064D-03
     43 -0.429398D+01  0.823138D+00 -0.581089D+00  0.400589D+00  0.142488D+00
     44  0.794768D+00 -0.264893D+01 -0.140290D+01  0.199909D+00 -0.371766D+00
     45 -0.543038D+00 -0.134750D+01 -0.370193D+01 -0.108504D+00  0.377743D+00
     46  0.218241D+00  0.212729D+00 -0.104367D+00 -0.457782D+01  0.528684D+00
     47  0.149254D+00 -0.269776D+00  0.239107D+00  0.698746D+00 -0.282343D+01
     48 -0.771841D-01  0.243189D+00  0.123264D+00 -0.465249D+00 -0.133077D+01
     49 -0.935355D-01 -0.624629D-01  0.655215D-01  0.190450D+00 -0.108071D+00
     50  0.781696D-02 -0.644972D-02 -0.491569D-02  0.182656D-01  0.799176D-01
     51  0.293565D-01  0.214924D-01 -0.198805D-01 -0.281753D-01  0.565328D-01
               21            22            23            24            25 
     21  0.243473D+02
     22 -0.502489D-01  0.427541D+01
     23 -0.606482D-02  0.230735D-01  0.467552D+01
     24 -0.250727D-01  0.197915D+00  0.360970D+00  0.108868D+01
     25 -0.163314D-01 -0.357796D-01  0.877923D-02 -0.121735D-01  0.384477D+01
     26 -0.846598D-02  0.498218D-02  0.238415D-01 -0.987863D-01 -0.246378D+00
     27  0.416871D-02 -0.574858D-02 -0.819068D-01  0.933702D-01  0.431321D+00
     28 -0.345598D-01  0.791258D-02  0.352246D-01 -0.179687D-01 -0.776732D-01
     29 -0.239396D-01  0.414126D-01 -0.363211D-01  0.460312D-01  0.121457D-01
     30 -0.456655D-01 -0.247889D-01  0.373263D-01  0.135588D-02  0.247446D+00
     31  0.771354D-02 -0.708990D-02  0.773581D-02 -0.833276D-02  0.950540D-01
     32  0.511600D-02  0.552174D-02  0.149298D-01 -0.195651D-01 -0.681382D-02
     33 -0.790420D-02  0.263577D-04 -0.345496D-02 -0.907190D-02 -0.761310D-01
     34 -0.611853D-02  0.175840D-01 -0.964411D-03 -0.955312D-01  0.653284D-02
     35 -0.129165D-03 -0.153012D-02 -0.341260D-01  0.409420D-02 -0.272777D-01
     36 -0.179399D-03 -0.759901D-01  0.233784D-02  0.954328D-01 -0.623021D-02
     37  0.799784D-03 -0.223687D-01  0.384537D-01  0.363086D-01 -0.126090D-02
     38  0.844401D-03  0.364193D-01  0.381636D-03 -0.213301D-01 -0.965675D-03
     39 -0.754874D-02  0.284552D-01 -0.228713D-01  0.473938D-02  0.398896D-03
     40  0.156010D-02 -0.150165D-01 -0.325945D-02  0.486170D-03  0.112705D-02
     41  0.136081D-03 -0.174248D-02  0.601252D-02 -0.313591D-02 -0.723500D-03
     42 -0.555182D-02  0.766202D-02  0.258647D-02  0.171015D-02  0.309979D-02
     43 -0.801827D-01  0.571943D-01  0.498370D-01  0.406244D-01  0.162281D-02
     44  0.402720D+00  0.613958D-01  0.506426D-02  0.335536D-01  0.511082D-02
     45  0.184986D+00  0.188874D-01  0.116828D-01 -0.246859D-01 -0.302810D-02
     46 -0.338966D+00  0.610419D-02 -0.536124D-02  0.114005D-01  0.875093D-02
     47 -0.129446D+01 -0.889643D-02 -0.344812D-03 -0.147083D-01 -0.264620D-02
     48 -0.381619D+01  0.125122D-01 -0.657362D-02  0.115934D-01  0.299965D-02
     49  0.555854D-01  0.527893D-02  0.321124D-03  0.477303D-02  0.189068D-02
     50  0.273058D-01  0.326815D-02 -0.162884D-02  0.538531D-02  0.319625D-02
     51  0.736931D-01 -0.785881D-03  0.258770D-03 -0.445848D-02 -0.221661D-02
               26            27            28            29            30 
     26  0.357023D+01
     27  0.875246D+00  0.195470D+01
     28 -0.184109D-01  0.220875D+00  0.206068D+01
     29  0.150535D+00 -0.220231D-01  0.879974D+00  0.389980D+01
     30  0.801766D-02 -0.651450D-01  0.305353D+00 -0.139484D+00  0.453067D+01
[...]
   yx         0.598294D+01      0.886580D+00      0.986454D+00
   yy         0.788039D+02      0.116775D+02      0.129930D+02
   zx         0.637306D+01      0.944390D+00      0.105078D+01
   zy         0.116745D+02      0.172999D+01      0.192487D+01
   zz         0.682793D+02      0.101179D+02      0.112577D+02

 ----------------------------------------------------------------------

 Test job not archived.
 1\1\GINC-C2000\Freq\RM062X\CC-pVTZ\C5H10O2\HARMS.N\28-Sep-2019\0\\#P G
 eom=AllCheck Guess=TCheck SCRF=Check Test GenChk RM062X/CC-pVTZ Freq\\
 Gaussian input prepared by ASE\\0,1\O,3.7363052381,0.8562841734,2.5227
 504819\O,0.6828130337,-0.6545481606,1.2691327948\C,4.7692027697,0.2444
 932091,3.2984683859\C,4.192518438,-0.4092315467,4.5414528683\C,5.76025
 65578,1.3400864742,3.6266083351\C,2.9071810119,-0.024576826,1.88846666
 92\C,1.5897091803,0.1042339488,1.9462824023\H,5.2550383893,-0.51800092
 77,2.6761190711\H,3.7103113804,0.3460418824,5.1633847653\H,3.451325579
 9,-1.1628919102,4.2781899156\H,4.9819309343,-0.8870802486,5.1213481084
 \H,5.2696316956,2.1128575857,4.2187907422\H,6.1426785898,1.7945104307,
 2.7145162696\H,6.5951939859,0.9394256381,4.2002509602\H,3.3901041555,-
 0.801506112,1.296352146\H,1.1261878881,0.8737914892,2.5465929565\H,1.1
 445628152,-1.3013648759,0.7277217865\\Version=EM64L-G16RevA.03\State=1
 -A\HF=-346.9419937\RMSD=1.576e-09\RMSF=9.005e-07\ZeroPoint=0.1467694\T
 hermal=0.1554355\Dipole=0.620557,-0.5965919,0.0475457\DipoleDeriv=-1.2
 841333,-0.1193724,-0.4903056,-0.3959944,-0.560511,-0.1661068,-0.576244
 9,-0.0989924,-0.7418261,-0.9550966,-0.247144,-0.3436908,-0.6731586,-0.
 5489833,-0.2695934,-0.6170684,-0.1891559,-0.6040806,0.8513562,0.029622
 9,0.2758405,-0.1629888,0.3709539,-0.1722526,0.2540705,-0.0674325,0.630
 5068,-0.0426222,-0.097648,0.0459757,-0.010302,-0.0010013,0.1030532,-0.
 0207106,0.0610592,-0.0996569,-0.0192414,-0.0731521,-0.0385254,-0.08438
 37,0.0007652,-0.0120831,-0.0276887,0.0023774,0.0301366,0.4461773,0.071
 9255,0.1223788,0.6437933,0.2331145,0.5441848,0.3692894,0.2977842,0.195
 8623,0.8274668,0.2011714,0.2986085,0.5436477,0.2903051,0.3607467,0.484
 7009,0.3278297,0.2198604,-0.0507757,0.0147183,0.0084378,0.0805301,-0.0
 909577,-0.0475829,0.05262,-0.1022169,-0.1074242,0.0301842,0.0380586,0.
 0558945,0.0523829,-0.0376664,-0.0903042,0.0371551,-0.0255706,0.0033053
 ,-0.0199102,-0.0965262,0.0106305,-0.0970118,-0.0202378,-0.0278848,-0.0
 011698,-0.0340262,0.0464691,-0.040726,0.0741226,-0.0873603,0.061808,0.
 0482902,0.0486814,-0.0722493,0.0357704,-0.0074821,0.0118017,0.0751221,
 0.0667686,0.0071644,-0.0218854,-0.0611135,0.0344519,-0.0719171,0.01363
 22,0.0420145,-0.0402729,0.0404247,-0.0569282,0.0119229,0.041838,0.0745
 061,0.0734335,-0.0575446,-0.0529398,0.022556,-0.0784358,0.0589686,0.01
 816,0.0434587,-0.0938776,0.0244601,0.0117253,-0.0059003,0.049844,0.029
 3911,-0.0580691,-0.0213941,-0.180144,0.0282239,-0.1204033,0.0595733,0.
 0632555,0.0109685,0.0075224,0.0011328,0.0456124,-0.10285,-0.0009472,-0
 .0922911,0.0905357,0.1990894,0.0860057,0.0764446,0.0894086,0.2835128,-
 0.0120474,0.0749388,-0.0207085,0.3164076\Polar=84.0314455,4.4854877,59
 .7336332,9.4377333,4.3985444,63.6012141\Quadrupole=-2.2851532,0.760382
 1,1.524771,-0.4482939,0.0058511,3.0242487\PG=C01 [X(C5H10O2)]\NImag=0\
 \0.38145286,0.04456182,0.33896258,0.19813858,0.05003170,0.23389137,-0.
 01585080,-0.00309577,-0.00562667,0.40548005,-0.00745461,0.00228786,-0.
 00899406,-0.04765557,0.39331486,-0.01065657,-0.01240019,0.00393917,-0.
 02965187,0.31217530,0.29603093,-0.13029460,0.03768587,-0.04792671,0.00
 492361,0.00360420,0.00516163,0.50562082,0.05982240,-0.12482448,0.03719
 155,-0.00404949,-0.00230444,-0.00083842,0.00129641,0.56677930,-0.04879
 826,0.02292328,-0.09665387,0.00232653,0.00000221,0.00208068,-0.0382548
 7,0.06449787,0.51928419,0.00123485,0.01683155,-0.03480522,-0.00088940,
 -0.00097993,-0.00034732,-0.10321687,-0.02717748,0.05086194,0.57488444,
 0.00284082,-0.00891958,0.02297017,0.00067957,0.00029589,0.00062741,-0.
 02184818,-0.09851376,0.03098294,-0.01400760,0.56730469,-0.00621805,0.0
 1621489,-0.02579873,-0.00052560,-0.00048876,-0.00054362,0.04519717,0.0
 3481100,-0.15847801,0.03489949,0.03269368,0.51196269,-0.03346379,-0.02
 125418,-0.01949106,-0.00081021,-0.00031459,-0.00005881,-0.12508118,-0.
 05621646,-0.01176747,-0.01037539,-0.01488620,0.00149832,0.55221558,0.0
 1238495,0.01279097,0.00658506,0.00094524,0.00051416,0.00023733,-0.0699
 0004,-0.15936221,-0.02627705,-0.01270497,-0.01405285,-0.00066535,-0.04
 239634,0.53496266,-0.02386191,-0.01493132,-0.01076350,-0.00080609,-0.0
 0048399,-0.00014683,-0.01130695,-0.01971719,-0.08402834,0.02156792,0.0
 2204368,0.00730086,-0.01080322,-0.02247858,0.58733269,-0.16259226,-0.0
 6870487,-0.07117947,-0.02612986,-0.00768405,-0.00439004,-0.03998407,-0
 .01883573,-0.02482072,0.00394420,0.00018655,0.00098959,-0.00356867,0.0
 0253813,-0.00342943,0.90500615,-0.09397262,-0.18656015,-0.09135975,-0.
 02923390,0.00683961,0.00147891,-0.00510420,0.01380467,-0.00367318,0.00
 483132,-0.00135724,0.00290487,0.00285226,-0.00206042,0.00176792,-0.059
 12308,0.44105434,-0.07048039,-0.07235843,-0.10106511,-0.02760842,0.000
 43759,0.00305716,-0.02313158,-0.01205995,-0.02130212,-0.00025848,-0.00
 000568,-0.00075932,-0.00008038,0.00036294,-0.00079265,0.00574336,0.233
 45624,0.30871914,-0.02651225,-0.00727779,-0.00685705,-0.21378143,-0.09
 827657,-0.09339308,-0.00027647,-0.00080247,0.00283483,0.00049163,-0.00
 090473,0.00045137,0.00021382,-0.00010423,-0.00001390,-0.55408617,0.066
 57801,0.03234955,0.90723989,-0.03451658,0.00391235,-0.00115732,-0.0630
 8333,-0.14754179,-0.09582258,-0.00086581,-0.00348173,0.00210021,0.0001
 9808,0.00022919,0.00016897,-0.00102542,0.00080178,-0.00033370,0.068826
 45,-0.10526898,-0.03908836,-0.06632945,0.46340542,-0.01913038,0.006833
 14,0.00282076,-0.05960068,-0.09727600,-0.12244559,-0.00524447,-0.00226
 923,-0.00099920,0.00045671,0.00024149,0.00066977,-0.00099307,0.0005921
 5,-0.00038589,0.02769097,-0.04255946,-0.08267234,-0.01698183,0.2762914
 1,0.34989712,-0.02563278,0.02434455,0.00112741,-0.00035409,-0.00018299
 ,-0.00038854,-0.09263579,0.06632531,0.06114924,-0.00463761,0.00810878,
 0.01045146,0.01037862,-0.01700211,-0.01308336,0.00275040,0.00518580,0.
 00405591,-0.00034896,-0.00070807,-0.00029752,0.11095363,0.01802894,-0.
 01491411,-0.00062508,0.00039255,0.00023119,0.00017186,0.06898857,-0.16
 283463,-0.09822298,-0.00744334,0.01036064,0.00929086,0.00845055,-0.017
 17544,-0.01466937,-0.00365708,-0.00044129,-0.00112571,0.00012847,0.000
 49836,0.00035337,-0.08175730,0.18428420,-0.01695190,0.01619911,0.00810
 708,-0.00008385,0.00003393,-0.00021973,0.06337214,-0.10154695,-0.13659
 339,0.01283644,-0.01892660,-0.01730162,0.00318934,-0.00472475,-0.00368
 891,0.00036064,0.00372295,0.00286182,-0.00016054,0.00000042,0.00007843
 ,-0.06316924,0.10315182,0.14772074,0.00147914,-0.00072357,-0.00110669,
 -0.00000103,-0.00000612,0.00001215,-0.00815482,0.01060391,0.00785681,-
 0.09835447,0.08120959,0.06580716,0.00026434,0.00113379,-0.00012971,-0.
 00028154,-0.00016720,0.00012548,0.00005556,0.00003693,0.00010453,-0.00
 005251,-0.00164446,0.00212868,0.10375924,-0.00089114,0.00078387,-0.001
 68286,-0.00023987,-0.00015552,-0.00010643,-0.00687386,0.00953552,0.008
 89028,0.08279377,-0.17895051,-0.10686142,-0.00004171,0.00160213,0.0005
 3008,0.00010071,0.00031157,-0.00005615,0.00033116,0.00009536,-0.000015
 20,-0.00132501,-0.00044889,0.00290839,-0.08917923,0.19140957,-0.001022
 57,-0.00009955,0.00328329,-0.00007526,0.00000251,0.00004353,0.01495208
 ,-0.02094614,-0.01915405,0.06524677,-0.10559691,-0.13068237,-0.0012572
 4,-0.00111039,0.00089198,-0.00034332,-0.00020275,-0.00030888,0.0002216
 9,-0.00003463,-0.00011099,0.00197602,0.00313338,-0.00395758,-0.0757577
 4,0.11532331,0.14289065,0.00009066,0.00042993,-0.00019136,-0.00009392,
 -0.00005017,-0.00011478,-0.00988014,-0.00835977,-0.00422266,-0.1712276
 4,-0.12729486,-0.04482933,-0.00024853,-0.00038389,0.00294903,0.0000727
 4,0.00059968,-0.00086613,0.00014780,0.00030578,-0.00018489,0.00009854,
 0.00027622,-0.00011621,0.01109604,0.01073332,0.00349242,0.18470547,0.0
 0060613,0.00060548,-0.00051688,-0.00028860,-0.00028772,-0.00028726,-0.
 00881469,-0.01066276,-0.00435218,-0.12630798,-0.17710586,-0.04728912,-
 0.00073168,-0.00022809,0.00346166,-0.00090938,0.00028503,-0.00027180,0
 .00105408,0.00040269,-0.00008031,0.00048223,0.00056148,0.00036627,-0.0
 1554769,-0.01478321,-0.00476162,0.14067422,0.18974964,-0.00061566,-0.0
 0206721,0.00196736,0.00030112,0.00032372,0.00016043,0.02060074,0.02080
 119,0.00905557,-0.04634538,-0.04867970,-0.06455137,0.00107401,0.001898
 90,-0.00513767,-0.00022403,0.00063410,-0.00094365,-0.00084774,-0.00027
 927,-0.00070044,-0.00057664,-0.00075908,0.00120026,-0.01300151,-0.0111
 7579,-0.00491084,0.04875951,0.05057880,0.06864714,0.00109246,-0.002393
 92,0.00342435,-0.00003476,-0.00000943,-0.00011598,0.00883978,-0.005585
 93,0.00567378,-0.19057800,0.08713514,-0.10439803,-0.00007915,0.0000299
 2,-0.00027275,-0.00052937,-0.00007942,-0.00026467,0.00040754,0.0001644
 5,-0.00003697,0.00041904,0.00060844,-0.00069512,-0.00974193,0.00426939
 ,-0.00727713,-0.01489860,0.01053910,-0.01027988,0.20478109,-0.00049939
 ,-0.00064686,0.00460029,0.00017760,0.00021602,0.00011411,0.01121792,-0
 .00680020,0.00372552,0.08585915,-0.09767088,0.06267980,0.00048088,0.00
 020060,-0.00045036,-0.00123539,-0.00053804,-0.00094021,0.00033448,-0.0
 0008779,-0.00030395,-0.00027235,0.00044743,-0.00004728,0.01509812,-0.0
 0943743,0.01302803,-0.01606455,0.01140776,-0.01253748,-0.09425938,0.10
 292564,-0.00009531,0.00343587,-0.00740633,-0.00048394,-0.00034885,-0.0
 0031352,-0.02218230,0.00899665,-0.01022734,-0.10252055,0.06258032,-0.1
 2249089,-0.00069484,-0.00051365,0.00075214,0.00153537,0.00175920,0.001
 17273,0.00026740,-0.00002513,0.00027848,0.00020777,-0.00111595,0.00044
 023,0.01413698,-0.00756735,0.01116772,-0.00467273,0.00319058,-0.004790
 21,0.11378997,-0.07018178,0.13119818,0.00206321,0.00066737,0.00150301,
 0.00011796,0.00006375,0.00007422,0.00947945,-0.01753911,-0.01308084,0.
 00126630,0.00031518,-0.00112920,-0.10366127,0.08826057,0.06853336,-0.0
 0008177,-0.00042053,-0.00037984,-0.00002075,0.00012556,0.00006638,-0.0
 0246739,-0.00327684,-0.00117869,-0.00009868,0.00033140,0.00026970,0.00
 002843,0.00018718,-0.00008564,-0.00000227,0.00003956,0.00012663,0.1097
 7871,0.00048079,0.00178592,0.00120271,-0.00008902,-0.00007168,-0.00003
 519,0.01260451,-0.02150730,-0.01487411,0.00135592,0.00097140,-0.000634
 82,0.08597716,-0.17937565,-0.10204289,-0.00005875,0.00022939,0.0001330
 1,0.00005430,0.00011611,0.00007587,-0.00401145,-0.00242228,-0.00070878
 ,-0.00069893,-0.00005313,0.00081581,-0.00016694,0.00052819,0.00020897,
 -0.00007552,-0.00004140,-0.00000576,-0.09258865,0.19693400,0.00044351,
 0.00047723,0.00046525,0.00001772,0.00001750,0.00004090,0.00329232,-0.0
 0670022,-0.00581612,-0.00032019,0.00122622,0.00047180,0.06774559,-0.10
 227369,-0.12678147,-0.00019318,0.00012779,-0.00014056,0.00003021,0.000
 03096,-0.00001557,-0.00130567,-0.00074547,0.00065127,0.00006472,-0.000
 05827,0.00054815,-0.00008891,0.00006524,-0.00005520,-0.00007988,0.0001
 1322,-0.00001363,-0.07400180,0.11414876,0.13375864,0.00189942,0.001180
 48,0.00041793,0.00018814,0.00010752,0.00013160,-0.00901376,-0.00841505
 ,0.01976041,-0.00272509,-0.00302377,-0.00231408,-0.07973377,-0.0379104
 5,0.07929044,-0.00008736,-0.00017936,-0.00037173,-0.00000860,0.0000493
 6,-0.00003290,0.00070786,0.00057020,-0.00047378,0.00021870,0.00009222,
 -0.00037853,-0.00021027,-0.00089010,0.00112201,0.00024264,-0.00013776,
 0.00015617,-0.00558061,-0.00678178,0.01183795,0.08361780,0.00205986,0.
 00143115,-0.00026488,0.00001976,-0.00002794,0.00000098,-0.00813498,-0.
 01143481,0.02332803,-0.00343898,-0.00320123,-0.00271144,-0.03877365,-0
 .09298018,0.09276067,0.00003788,0.00000444,-0.00020516,0.00012335,0.00
 007489,-0.00000708,0.00085615,0.00053719,0.00017427,-0.00019863,0.0001
 1864,0.00012223,-0.00088434,-0.00038848,0.00143977,0.00015233,0.000209
 36,-0.00035332,0.00751121,0.01070261,-0.01995289,0.04515291,0.10051765
 ,0.00072028,-0.00027989,0.00084037,0.00011341,0.00009832,0.00006369,-0
 .00406459,-0.00394421,0.00662262,-0.00105344,-0.00045817,0.00035544,0.
 08166973,0.09521471,-0.24298751,0.00010401,-0.00022427,0.00016712,-0.0
 0010511,-0.00007286,0.00001155,0.00042159,0.00058560,0.00076303,-0.000
 32760,-0.00003731,0.00018660,-0.00027733,-0.00019191,0.00036065,-0.000
 01463,-0.00019895,0.00000479,0.00459060,0.00734545,-0.01373201,-0.0878
 4366,-0.10299039,0.26016805,-0.00354245,-0.00472950,-0.00249610,-0.000
 45607,-0.00029725,-0.00017377,-0.01393811,0.01265839,-0.00880048,0.000
 47913,0.00092675,-0.00005387,-0.20595449,0.07533629,-0.10859544,-0.000
 24098,0.00111679,0.00019779,0.00012107,-0.00013605,-0.00012030,0.00068
 732,-0.00027328,-0.00011918,-0.00008077,-0.00005446,-0.00004465,0.0003
 7332,-0.00012470,0.00008072,0.00001551,-0.00073122,0.00051330,-0.01064
 306,0.00388782,-0.00746911,0.01049897,-0.00445588,0.00607884,0.2227105
 6,-0.00492753,-0.00351648,-0.00249096,-0.00031154,-0.00019372,-0.00000
 692,-0.01629169,0.01134808,-0.01159083,0.00040142,0.00045788,0.0000987
 1,0.07805601,-0.08593276,0.05433249,-0.00123515,0.00106664,-0.00016462
 ,0.00004539,-0.00022551,-0.00029545,0.00106849,0.00064838,-0.00007696,
 0.00003128,-0.00001571,0.00012703,0.00021213,0.00011599,-0.00022680,-0
 .00039577,-0.00025115,0.00023433,0.01614247,-0.00794224,0.01340667,0.0
 1021053,-0.00548584,0.00512912,-0.08305635,0.08991912,-0.00183568,-0.0
 0208073,-0.00036345,-0.00025206,-0.00010915,-0.00016656,-0.00346941,0.
 00436756,-0.00546945,0.00027165,0.00041573,-0.00003944,-0.10963206,0.0
 5277354,-0.12155247,-0.00023856,0.00072591,0.00083773,0.00001818,-0.00
 014578,-0.00006937,0.00028137,-0.00010344,-0.00011575,0.00006804,-0.00
 013736,0.00000860,0.00008345,-0.00021816,-0.00004106,0.00034261,0.0001
 9464,0.00032583,0.01459449,-0.00581071,0.01048360,-0.02141883,0.008596
 14,-0.01277802,0.12113156,-0.05843796,0.12894518,0.00654189,-0.0179073
 3,-0.01611388,0.00287712,0.00048721,0.00107974,0.00424362,-0.00396379,
 -0.00005809,-0.00034316,0.00056783,0.00003217,-0.00011596,-0.00020844,
 -0.00005953,-0.11877485,0.08837714,0.06656994,-0.00782226,0.02246135,0
 .01795190,-0.00003062,0.00084711,0.00110767,-0.00007283,-0.00003430,0.
 00012007,-0.00002806,0.00000923,0.00007902,0.00000224,0.00003573,-0.00
 010188,-0.00013661,0.00013276,0.00006430,-0.00000683,-0.00002916,-0.00
 000348,-0.00006626,0.00006200,0.00003332,0.11952138,-0.00012782,-0.021
 47036,-0.02080501,-0.00043132,-0.00080756,0.00365950,0.00309602,-0.000
 87230,0.00289649,-0.00050731,0.00015756,-0.00028879,-0.00036563,0.0004
 8817,-0.00000268,0.08939027,-0.17226426,-0.10478714,-0.00123717,0.0013
 5624,-0.00484247,-0.00109080,0.00087888,-0.00032939,-0.00003069,-0.000
 09722,0.00014306,-0.00002963,-0.00007357,-0.00004104,-0.00000385,0.000
 14250,-0.00019970,0.00020706,0.00013952,0.00013693,0.00002899,-0.00005
 188,0.00002464,-0.00017678,-0.00006385,-0.00005921,-0.09018483,0.18922
 878,-0.00159113,-0.01604466,-0.00961412,0.00108368,0.00512585,-0.00084
 372,0.00361915,-0.00271817,0.00186851,-0.00037103,0.00008296,-0.000153
 46,-0.00040680,0.00037126,-0.00001571,0.06745210,-0.10662423,-0.116911
 28,-0.00102007,-0.00527853,0.00255688,-0.00080531,0.00066275,0.0000583
 1,0.00005038,0.00006269,0.00016785,0.00023855,0.00012902,-0.00025319,0
 .00007823,0.00014711,-0.00009653,0.00009542,0.00018951,0.00012628,0.00
 009671,0.00003740,-0.00001598,-0.00014058,-0.00002888,-0.00004130,-0.0
 6903355,0.12815271,0.11779114,0.00309947,-0.00002617,0.00015372,0.0110
 5377,-0.02096853,-0.01685711,-0.00058134,0.00012306,-0.00015183,0.0000
 5286,-0.00001180,0.00013508,0.00000749,-0.00002285,-0.00004215,-0.0064
 1446,0.02243079,0.01728824,-0.11924201,0.09806200,0.07625972,0.0002474
 9,-0.00023465,-0.00004437,-0.00002072,-0.00002713,-0.00013647,-0.00003
 089,0.00005018,0.00000770,0.00003972,-0.00004407,0.00000063,-0.0000449
 8,-0.00003782,-0.00004278,-0.00000174,0.00001132,-0.00000135,0.0000115
 8,-0.00001481,0.00001147,-0.00499210,0.00010808,-0.00053349,0.11911438
 ,-0.00040334,-0.00149265,0.00411771,0.00419078,-0.01497995,-0.01365870
 ,0.00000276,0.00044083,-0.00007238,0.00011312,0.00006461,-0.00001108,0
 .00005791,-0.00005825,0.00008189,-0.00051635,0.00228940,-0.00550245,0.
 09465637,-0.19108108,-0.11807502,-0.00006609,-0.00016049,-0.00018032,0
 .00010736,0.00007400,0.00005381,0.00002566,-0.00018546,-0.00008400,-0.
 00011060,-0.00005723,0.00003856,-0.00001164,-0.00000247,-0.00001175,-0
 .00001273,-0.00001730,0.00001454,0.00003415,0.00002844,-0.00001150,0.0
 0024308,0.00328828,-0.00398753,-0.09588946,0.20140496,0.00037765,0.002
 87976,-0.00398886,0.00350710,-0.01573819,-0.01123024,-0.00001670,-0.00
 017057,0.00011193,-0.00010745,-0.00003363,0.00002565,-0.00005947,0.000
 07370,-0.00003231,0.00047917,-0.00376862,0.00661184,0.07214847,-0.1168
 4347,-0.13232062,-0.00007311,0.00008848,-0.00001320,-0.00005680,-0.000
 05836,-0.00006956,0.00005121,0.00011235,0.00008741,0.00008497,0.000057
 33,-0.00005894,0.00001511,-0.00001362,0.00000875,0.00001926,0.00000587
 ,-0.00001338,-0.00003001,-0.00002933,0.00000670,-0.00081534,-0.0035160
 8,0.00547256,-0.07294122,0.13910807,0.13411740,-0.00106503,0.00041155,
 0.00102921,-0.16623906,0.17961712,0.14968853,-0.00005013,0.00011578,-0
 .00050833,-0.00000579,0.00000693,0.00000634,0.00001254,0.00000447,0.00
 006371,0.00099786,-0.00369148,-0.00288866,0.01342159,-0.02356522,-0.01
 990721,-0.00008316,-0.00000410,-0.00000203,-0.00001370,0.00001474,0.00
 001417,0.00000503,0.00001246,-0.00004836,0.00002406,0.00000067,0.00001
 732,0.00000335,0.00001559,0.00000521,-0.00000551,-0.00000914,-0.000007
 28,0.00002473,0.00000313,0.00001045,-0.00079672,0.00135540,0.00118775,
 -0.00229852,-0.00242099,-0.00258283,0.15606847,0.00200732,-0.00021551,
 0.00119761,0.14207291,-0.23732927,-0.19530971,-0.00066281,0.00069021,-
 0.00028413,0.00018325,-0.00006995,0.00008801,0.00013111,-0.00013463,0.
 00013169,0.00087984,0.00260527,0.00217589,0.01162680,-0.02320550,-0.01
 866328,0.00004487,-0.00005063,-0.00001613,-0.00002446,0.00001096,0.000
 00281,-0.00002279,0.00005888,-0.00003508,0.00001508,-0.00001830,0.0000
 7595,-0.00001454,0.00000902,-0.00000825,-0.00004120,-0.00000824,-0.000
 01442,0.00007527,0.00004273,0.00004047,-0.00089559,0.00002104,-0.00027
 927,-0.00350814,0.00044435,-0.00215368,-0.15186691,0.25714958,0.001577
 79,0.00126701,0.00033932,0.11736486,-0.19477794,-0.16950668,-0.0005976
 7,0.00024523,-0.00030162,-0.00001186,-0.00016392,0.00001262,0.00006744
 ,-0.00006613,0.00003560,0.00046353,0.00183436,0.00146836,0.01105762,-0
 .01951036,-0.01659299,0.00002862,-0.00007105,0.00000901,0.00002513,0.0
 0004176,0.00000592,-0.00000985,0.00006533,-0.00009518,0.00004114,-0.00
 000006,0.00005728,-0.00001289,0.00000578,-0.00000009,0.00000104,0.0000
 1981,-0.00001700,0.00004127,0.00002036,0.00002923,-0.00085238,-0.00014
 182,-0.00009624,-0.00310579,-0.00181987,0.00128488,-0.12607799,0.21305
 152,0.18336760\\0.00000050,-0.00000045,-0.00000106,0.00000054,-0.00000
 025,-0.00000114,-0.00000025,-0.00000005,0.00000022,-0.00000098,0.00000
 151,0.00000094,-0.00000017,-0.00000025,0.,0.00000039,-0.00000007,0.000
 00035,0.00000151,-0.00000050,-0.00000033,-0.00000003,-0.00000094,0.000
 00122,-0.00000119,0.00000185,-0.00000006,-0.00000115,0.00000075,0.0000
 0044,-0.00000154,0.00000131,0.00000157,-0.00000006,0.00000052,-0.00000
 084,0.00000071,-0.00000096,-0.00000016,-0.00000047,0.00000012,0.000000
 85,0.00000069,-0.00000143,0.00000081,0.00000055,0.00000020,-0.00000228
 ,0.00000093,-0.00000134,-0.00000054\\\@


 WHEN HAVING A MEETING OF THE MINDS,
 MAKE SURE YOU HAVE THE EQUIPMENT FOR IT.
 Job cpu time:       0 days  2 hours 58 minutes 25.3 seconds.
 Elapsed time:       0 days  1 hours 29 minutes 19.0 seconds.
 File lengths (MBytes):  RWF=   1392 Int=      0 D2E=      0 Chk=     32 Scr=     32
 Normal termination of Gaussian 16 at Sat Sep 28 18:53:55 2019.
