 Entering Gaussian System, Link 0=g16
 Input=verytight/species/CC(C)OC=CO/conformers/CC(C)OC=CO_34.com
 Output=verytight/species/CC(C)OC=CO/conformers/CC(C)OC=CO_34.log
 Initial command:
 /shared/centos7/gaussian/g16/l1.exe "/scratch/harms.n/gauss_scrdir/Gau-13849.inp" -scrdir="/scratch/harms.n/gauss_scrdir/"
 Entering Link 1 = /shared/centos7/gaussian/g16/l1.exe PID=     13883.
  
 Copyright (c) 1988,1990,1992,1993,1995,1998,2003,2009,2016,
            Gaussian, Inc.  All Rights Reserved.
  
 This is part of the Gaussian(R) 16 program.  It is based on
 the Gaussian(R) 09 system (copyright 2009, Gaussian, Inc.),
 the Gaussian(R) 03 system (copyright 2003, Gaussian, Inc.),
 the Gaussian(R) 98 system (copyright 1998, Gaussian, Inc.),
 the Gaussian(R) 94 system (copyright 1995, Gaussian, Inc.),
 the Gaussian 92(TM) system (copyright 1992, Gaussian, Inc.),
 the Gaussian 90(TM) system (copyright 1990, Gaussian, Inc.),
 the Gaussian 88(TM) system (copyright 1988, Gaussian, Inc.),
 the Gaussian 86(TM) system (copyright 1986, Carnegie Mellon
 University), and the Gaussian 82(TM) system (copyright 1983,
 Carnegie Mellon University). Gaussian is a federally registered
 trademark of Gaussian, Inc.
  
 This software contains proprietary and confidential information,
 including trade secrets, belonging to Gaussian, Inc.
  
 This software is provided under written license and may be
 used, copied, transmitted, or stored only in accord with that
 written license.
  
 The following legend is applicable only to US Government
 contracts under FAR:
  
                    RESTRICTED RIGHTS LEGEND
  
 Use, reproduction and disclosure by the US Government is
 subject to restrictions as set forth in subparagraphs (a)
 and (c) of the Commercial Computer Software - Restricted
 Rights clause in FAR 52.227-19.
  
 Gaussian, Inc.
 340 Quinnipiac St., Bldg. 40, Wallingford CT 06492
  
  
 ---------------------------------------------------------------
 Warning -- This program may not be used in any manner that
 competes with the business of Gaussian, Inc. or will provide
 assistance to any competitor of Gaussian, Inc.  The licensee
 of this program is prohibited from giving any competitor of
 Gaussian, Inc. access to this program.  By using this program,
 the user acknowledges that Gaussian, Inc. is engaged in the
 business of creating and licensing software in the field of
 computational chemistry and represents and warrants to the
 licensee that it is not a competitor of Gaussian, Inc. and that
 it will not use this program in any manner prohibited above.
 ---------------------------------------------------------------
  

 Cite this work as:
 Gaussian 16, Revision A.03,
 M. J. Frisch, G. W. Trucks, H. B. Schlegel, G. E. Scuseria, 
 M. A. Robb, J. R. Cheeseman, G. Scalmani, V. Barone, 
 G. A. Petersson, H. Nakatsuji, X. Li, M. Caricato, A. V. Marenich, 
 J. Bloino, B. G. Janesko, R. Gomperts, B. Mennucci, H. P. Hratchian, 
 J. V. Ortiz, A. F. Izmaylov, J. L. Sonnenberg, D. Williams-Young, 
 F. Ding, F. Lipparini, F. Egidi, J. Goings, B. Peng, A. Petrone, 
 T. Henderson, D. Ranasinghe, V. G. Zakrzewski, J. Gao, N. Rega, 
 G. Zheng, W. Liang, M. Hada, M. Ehara, K. Toyota, R. Fukuda, 
 J. Hasegawa, M. Ishida, T. Nakajima, Y. Honda, O. Kitao, H. Nakai, 
 T. Vreven, K. Throssell, J. A. Montgomery, Jr., J. E. Peralta, 
 F. Ogliaro, M. J. Bearpark, J. J. Heyd, E. N. Brothers, K. N. Kudin, 
 V. N. Staroverov, T. A. Keith, R. Kobayashi, J. Normand, 
 K. Raghavachari, A. P. Rendell, J. C. Burant, S. S. Iyengar, 
 J. Tomasi, M. Cossi, J. M. Millam, M. Klene, C. Adamo, R. Cammi, 
 J. W. Ochterski, R. L. Martin, K. Morokuma, O. Farkas, 
 J. B. Foresman, and D. J. Fox, Gaussian, Inc., Wallingford CT, 2016.
 
 ******************************************
 Gaussian 16:  EM64L-G16RevA.03 25-Dec-2016
                28-Sep-2019 
 ******************************************
 %nprocshared=20
 Will use up to   20 processors via shared memory.
 %mem=5GB
 ----------------------------------------------------------------------
 #p m062x/cc-pVTZ opt=(calcfc,maxcycles=900,Tight) freq IOP(7/33=1,2/16
 =3) scf=(maxcycle=900)
 ----------------------------------------------------------------------
 1/6=900,7=10,10=4,18=20,19=15,26=3,38=1/1,3;
 2/9=110,12=2,16=3,17=6,18=5,40=1/2;
 3/5=16,6=1,11=2,25=1,30=1,71=2,74=-55,140=1/1,2,3;
 4//1;
 5/5=2,7=900,38=5/2;
 8/6=4,10=90,11=11/1;
 11/6=1,8=1,9=11,15=111,16=1/1,2,10;
 10/6=1,13=1/2;
 6/7=2,8=2,9=2,10=2,28=1/1;
 7/10=1,18=20,25=1,33=1/1,2,3,16;
 1/6=900,7=10,10=4,18=20,19=15,26=3/3(2);
 2/9=110,16=3/2;
 99//99;
 2/9=110,16=3/2;
 3/5=16,6=1,11=2,25=1,30=1,71=1,74=-55/1,2,3;
 4/5=5,16=3,69=1/1;
 5/5=2,7=900,38=5/2;
 7/33=1/1,2,3,16;
 1/6=900,7=10,18=20,19=15,26=3/3(-5);
 2/9=110,16=3/2;
 6/7=2,8=2,9=2,10=2,19=2,28=1/1;
 99/9=1/99;
 Leave Link    1 at Sat Sep 28 10:37:49 2019, MaxMem=   671088640 cpu:               5.7 elap:               2.9
 (Enter /shared/centos7/gaussian/g16/l101.exe)
 ------------------------------
 Gaussian input prepared by ASE
 ------------------------------
 Symbolic Z-matrix:
 Charge =  0 Multiplicity = 1
 O                    -0.35624  -1.42176   1.40961 
 O                     0.73072   1.20714   2.4659 
 C                    -1.32754  -0.62207   2.05067 
 C                    -1.24031  -0.74016   3.57233 
 C                    -2.67953  -0.99801   1.53992 
 C                     0.94766  -1.02159   1.59288 
 C                     1.44305   0.09772   2.03536 
 H                    -1.14438   0.45404   1.77721 
 H                    -1.47593  -1.77151   3.90849 
 H                    -0.22608  -0.48235   3.92781 
 H                    -1.97079  -0.04058   4.06185 
 H                    -2.93424  -2.0714    1.78416 
 H                    -2.73752  -0.87847   0.43792 
 H                    -3.47424  -0.34584   2.00109 
 H                     1.64171  -1.80862   1.25731 
 H                     2.51539   0.21527   2.08721 
 H                     1.40277   1.86118   2.81571 
 
 ITRead=  0  0  0  0  0  0  0  0  0  0  0  0  0  0  0  0  0
 MicOpt= -1 -1 -1 -1 -1 -1 -1 -1 -1 -1 -1 -1 -1 -1 -1 -1 -1
 NAtoms=     17 NQM=       17 NQMF=       0 NMMI=      0 NMMIF=      0
                NMic=       0 NMicF=      0.
                    Isotopes and Nuclear Properties:
 (Nuclear quadrupole moments (NQMom) in fm**2, nuclear magnetic moments (NMagM)
  in nuclear magnetons)

  Atom         1           2           3           4           5           6           7           8           9          10
 IAtWgt=          16          16          12          12          12          12          12           1           1           1
 AtmWgt=  15.9949146  15.9949146  12.0000000  12.0000000  12.0000000  12.0000000  12.0000000   1.0078250   1.0078250   1.0078250
 NucSpn=           0           0           0           0           0           0           0           1           1           1
 AtZEff=  -0.0000000  -0.0000000  -0.0000000  -0.0000000  -0.0000000  -0.0000000  -0.0000000  -0.0000000  -0.0000000  -0.0000000
 NQMom=    0.0000000   0.0000000   0.0000000   0.0000000   0.0000000   0.0000000   0.0000000   0.0000000   0.0000000   0.0000000
 NMagM=    0.0000000   0.0000000   0.0000000   0.0000000   0.0000000   0.0000000   0.0000000   2.7928460   2.7928460   2.7928460
 AtZNuc=   8.0000000   8.0000000   6.0000000   6.0000000   6.0000000   6.0000000   6.0000000   1.0000000   1.0000000   1.0000000

  Atom        11          12          13          14          15          16          17
 IAtWgt=           1           1           1           1           1           1           1
 AtmWgt=   1.0078250   1.0078250   1.0078250   1.0078250   1.0078250   1.0078250   1.0078250
 NucSpn=           1           1           1           1           1           1           1
 AtZEff=  -0.0000000  -0.0000000  -0.0000000  -0.0000000  -0.0000000  -0.0000000  -0.0000000
 NQMom=    0.0000000   0.0000000   0.0000000   0.0000000   0.0000000   0.0000000   0.0000000
 NMagM=    2.7928460   2.7928460   2.7928460   2.7928460   2.7928460   2.7928460   2.7928460
 AtZNuc=   1.0000000   1.0000000   1.0000000   1.0000000   1.0000000   1.0000000   1.0000000
 Leave Link  101 at Sat Sep 28 10:37:50 2019, MaxMem=   671088640 cpu:               2.1 elap:               1.1
 (Enter /shared/centos7/gaussian/g16/l103.exe)

 GradGradGradGradGradGradGradGradGradGradGradGradGradGradGradGradGradGrad
 Berny optimization.
 Initialization pass.
                           ----------------------------
                           !    Initial Parameters    !
                           ! (Angstroms and Degrees)  !
 --------------------------                            --------------------------
 ! Name  Definition              Value          Derivative Info.                !
 --------------------------------------------------------------------------------
 ! R1    R(1,3)                  1.412          calculate D2E/DX2 analytically  !
 ! R2    R(1,6)                  1.3762         calculate D2E/DX2 analytically  !
 ! R3    R(2,7)                  1.3869         calculate D2E/DX2 analytically  !
 ! R4    R(2,17)                 1.0009         calculate D2E/DX2 analytically  !
 ! R5    R(3,4)                  1.5287         calculate D2E/DX2 analytically  !
 ! R6    R(3,5)                  1.4933         calculate D2E/DX2 analytically  !
 ! R7    R(3,8)                  1.1253         calculate D2E/DX2 analytically  !
 ! R8    R(4,9)                  1.1101         calculate D2E/DX2 analytically  !
 ! R9    R(4,10)                 1.1052         calculate D2E/DX2 analytically  !
 ! R10   R(4,11)                 1.1237         calculate D2E/DX2 analytically  !
 ! R11   R(5,12)                 1.1299         calculate D2E/DX2 analytically  !
 ! R12   R(5,13)                 1.11           calculate D2E/DX2 analytically  !
 ! R13   R(5,14)                 1.1267         calculate D2E/DX2 analytically  !
 ! R14   R(6,7)                  1.3016         calculate D2E/DX2 analytically  !
 ! R15   R(6,15)                 1.1017         calculate D2E/DX2 analytically  !
 ! R16   R(7,16)                 1.08           calculate D2E/DX2 analytically  !
 ! A1    A(3,1,6)              115.2516         calculate D2E/DX2 analytically  !
 ! A2    A(7,2,17)             106.6388         calculate D2E/DX2 analytically  !
 ! A3    A(1,3,4)              111.6474         calculate D2E/DX2 analytically  !
 ! A4    A(1,3,5)              108.9605         calculate D2E/DX2 analytically  !
 ! A5    A(1,3,8)              108.6201         calculate D2E/DX2 analytically  !
 ! A6    A(4,3,5)              111.8791         calculate D2E/DX2 analytically  !
 ! A7    A(4,3,8)              107.8458         calculate D2E/DX2 analytically  !
 ! A8    A(5,3,8)              107.7569         calculate D2E/DX2 analytically  !
 ! A9    A(3,4,9)              111.1671         calculate D2E/DX2 analytically  !
 ! A10   A(3,4,10)             110.7632         calculate D2E/DX2 analytically  !
 ! A11   A(3,4,11)             110.3921         calculate D2E/DX2 analytically  !
 ! A12   A(9,4,10)             108.3071         calculate D2E/DX2 analytically  !
 ! A13   A(9,4,11)             107.9701         calculate D2E/DX2 analytically  !
 ! A14   A(10,4,11)            108.133          calculate D2E/DX2 analytically  !
 ! A15   A(3,5,12)             111.6728         calculate D2E/DX2 analytically  !
 ! A16   A(3,5,13)             111.0838         calculate D2E/DX2 analytically  !
 ! A17   A(3,5,14)             110.6622         calculate D2E/DX2 analytically  !
 ! A18   A(12,5,13)            107.7665         calculate D2E/DX2 analytically  !
 ! A19   A(12,5,14)            107.6016         calculate D2E/DX2 analytically  !
 ! A20   A(13,5,14)            107.8885         calculate D2E/DX2 analytically  !
 ! A21   A(1,6,7)              130.9927         calculate D2E/DX2 analytically  !
 ! A22   A(1,6,15)             110.4015         calculate D2E/DX2 analytically  !
 ! A23   A(7,6,15)             118.563          calculate D2E/DX2 analytically  !
 ! A24   A(2,7,6)              126.7235         calculate D2E/DX2 analytically  !
 ! A25   A(2,7,16)             114.0784         calculate D2E/DX2 analytically  !
 ! A26   A(6,7,16)             119.198          calculate D2E/DX2 analytically  !
 ! D1    D(6,1,3,4)            -67.5127         calculate D2E/DX2 analytically  !
 ! D2    D(6,1,3,5)            168.4121         calculate D2E/DX2 analytically  !
 ! D3    D(6,1,3,8)             51.2801         calculate D2E/DX2 analytically  !
 ! D4    D(3,1,6,7)            -15.004          calculate D2E/DX2 analytically  !
 ! D5    D(3,1,6,15)           167.4632         calculate D2E/DX2 analytically  !
 ! D6    D(17,2,7,6)           175.0602         calculate D2E/DX2 analytically  !
 ! D7    D(17,2,7,16)           -5.0166         calculate D2E/DX2 analytically  !
 ! D8    D(1,3,4,9)            -64.2991         calculate D2E/DX2 analytically  !
 ! D9    D(1,3,4,10)            56.1676         calculate D2E/DX2 analytically  !
 ! D10   D(1,3,4,11)           175.9054         calculate D2E/DX2 analytically  !
 ! D11   D(5,3,4,9)             58.1184         calculate D2E/DX2 analytically  !
 ! D12   D(5,3,4,10)           178.5851         calculate D2E/DX2 analytically  !
 ! D13   D(5,3,4,11)           -61.6771         calculate D2E/DX2 analytically  !
 ! D14   D(8,3,4,9)            176.4484         calculate D2E/DX2 analytically  !
 ! D15   D(8,3,4,10)           -63.0849         calculate D2E/DX2 analytically  !
 ! D16   D(8,3,4,11)            56.6529         calculate D2E/DX2 analytically  !
 ! D17   D(1,3,5,12)            62.5746         calculate D2E/DX2 analytically  !
 ! D18   D(1,3,5,13)           -57.765          calculate D2E/DX2 analytically  !
 ! D19   D(1,3,5,14)          -177.5819         calculate D2E/DX2 analytically  !
 ! D20   D(4,3,5,12)           -61.3635         calculate D2E/DX2 analytically  !
 ! D21   D(4,3,5,13)           178.2969         calculate D2E/DX2 analytically  !
 ! D22   D(4,3,5,14)            58.4801         calculate D2E/DX2 analytically  !
 ! D23   D(8,3,5,12)          -179.7464         calculate D2E/DX2 analytically  !
 ! D24   D(8,3,5,13)            59.914          calculate D2E/DX2 analytically  !
 ! D25   D(8,3,5,14)           -59.9028         calculate D2E/DX2 analytically  !
 ! D26   D(1,6,7,2)              0.9018         calculate D2E/DX2 analytically  !
 ! D27   D(1,6,7,16)          -179.018          calculate D2E/DX2 analytically  !
 ! D28   D(15,6,7,2)           178.2688         calculate D2E/DX2 analytically  !
 ! D29   D(15,6,7,16)           -1.651          calculate D2E/DX2 analytically  !
 --------------------------------------------------------------------------------
 Trust Radius=3.00D-01 FncErr=1.00D-07 GrdErr=1.00D-06 EigMax=2.50D+02 EigMin=1.00D-04
 Number of steps in this run=    102 maximum allowed number of steps=    102.
 GradGradGradGradGradGradGradGradGradGradGradGradGradGradGradGradGradGrad

 Leave Link  103 at Sat Sep 28 10:37:51 2019, MaxMem=   671088640 cpu:               2.0 elap:               1.4
 (Enter /shared/centos7/gaussian/g16/l202.exe)
                          Input orientation:                          
 ---------------------------------------------------------------------
 Center     Atomic      Atomic             Coordinates (Angstroms)
 Number     Number       Type             X           Y           Z
 ---------------------------------------------------------------------
      1          8           0       -0.356243   -1.421765    1.409611
      2          8           0        0.730720    1.207142    2.465904
      3          6           0       -1.327542   -0.622074    2.050665
      4          6           0       -1.240306   -0.740156    3.572328
      5          6           0       -2.679534   -0.998013    1.539924
      6          6           0        0.947661   -1.021588    1.592882
      7          6           0        1.443048    0.097723    2.035361
      8          1           0       -1.144385    0.454039    1.777208
      9          1           0       -1.475932   -1.771507    3.908493
     10          1           0       -0.226080   -0.482352    3.927812
     11          1           0       -1.970787   -0.040583    4.061846
     12          1           0       -2.934236   -2.071401    1.784159
     13          1           0       -2.737517   -0.878467    0.437916
     14          1           0       -3.474242   -0.345841    2.001090
     15          1           0        1.641712   -1.808619    1.257307
     16          1           0        2.515390    0.215270    2.087214
     17          1           0        1.402773    1.861177    2.815713
 ---------------------------------------------------------------------
                    Distance matrix (angstroms):
                    1          2          3          4          5
     1  O    0.000000
     2  O    3.034533   0.000000
     3  C    1.412047   2.784762   0.000000
     4  C    2.433825   2.983469   1.528729   0.000000
     5  C    2.365213   4.165331   1.493342   2.503705   0.000000
     6  C    1.376189   2.403428   2.354936   2.963885   3.627659
     7  C    2.436771   1.386935   2.862606   3.203857   4.294389
     8  H    2.067592   2.134827   1.125320   2.158184   2.126368
     9  H    2.760513   3.977779   2.189689   1.110050   2.767142
    10  H    2.690869   2.430438   2.180922   1.105209   3.462276
    11  H    3.398347   3.376683   2.190147   1.123668   2.789101
    12  H    2.684840   4.964426   2.180146   2.799850   1.129905
    13  H    2.628655   4.526717   2.157481   3.476393   1.109989
    14  H    3.351026   4.506608   2.164967   2.759483   1.126748
    15  H    2.040754   3.374230   3.294507   3.847983   4.405693
    16  H    3.374211   2.076598   3.933269   4.150139   5.362725
    17  H    3.981075   1.000891   3.769145   3.784873   5.144690
                    6          7          8          9         10
     6  C    0.000000
     7  C    1.301558   0.000000
     8  H    2.566731   2.624579   0.000000
     9  H    3.434856   3.939935   3.099251   0.000000
    10  H    2.668397   2.589179   2.518970   1.795668   0.000000
    11  H    3.946579   3.972410   2.479347   1.806792   1.804751
    12  H    4.025894   4.891709   3.095394   2.594105   3.801899
    13  H    3.864578   4.580600   2.471305   3.799213   4.317823
    14  H    4.491825   4.937374   2.473493   3.108690   3.779081
    15  H    1.101697   2.068569   3.626605   4.092660   3.518414
    16  H    2.057171   1.080011   3.680634   4.816117   3.374927
    17  H    3.164297   1.928818   3.089748   4.762090   3.063014
                   11         12         13         14         15
    11  H    0.000000
    12  H    3.200048   0.000000
    13  H    3.797735   1.809464   0.000000
    14  H    2.569100   1.821049   1.808305   0.000000
    15  H    4.903217   4.613668   4.551289   5.372702   0.000000
    16  H    4.908198   5.917696   5.613330   6.016473   2.355459
    17  H    4.068224   5.944654   5.504686   5.414777   3.994136
                   16         17
    16  H    0.000000
    17  H    2.116042   0.000000
 Stoichiometry    C5H10O2
 Framework group  C1[X(C5H10O2)]
 Deg. of freedom    45
 Full point group                 C1      NOp   1
 Largest Abelian subgroup         C1      NOp   1
 Largest concise Abelian subgroup C1      NOp   1
                         Standard orientation:                         
 ---------------------------------------------------------------------
 Center     Atomic      Atomic             Coordinates (Angstroms)
 Number     Number       Type             X           Y           Z
 ---------------------------------------------------------------------
      1          8           0       -0.333089   -1.145715    0.134546
      2          8           0        1.680459    0.993672   -0.625086
      3          6           0       -0.919046    0.100241   -0.178708
      4          6           0       -0.824946    1.078095    0.992599
      5          6           0       -2.332617   -0.122048   -0.605876
      6          6           0        1.032550   -1.126326    0.303508
      7          6           0        1.919887   -0.229810   -0.017340
      8          1           0       -0.364290    0.549644   -1.048552
      9          1           0       -1.409741    0.716913    1.864249
     10          1           0        0.225572    1.209598    1.309781
     11          1           0       -1.229357    2.083785    0.696508
     12          1           0       -2.953962   -0.570159    0.224673
     13          1           0       -2.383457   -0.809711   -1.475709
     14          1           0       -2.815165    0.851101   -0.905360
     15          1           0        1.376722   -2.069060    0.757971
     16          1           0        2.961763   -0.420620    0.193633
     17          1           0        2.557980    1.473942   -0.657972
 ---------------------------------------------------------------------
 Rotational constants (GHZ):           4.3193681           1.8986413           1.6150099
 Leave Link  202 at Sat Sep 28 10:37:53 2019, MaxMem=   671088640 cpu:               3.4 elap:               1.7
 (Enter /shared/centos7/gaussian/g16/l301.exe)
 Standard basis: CC-pVTZ (5D, 7F)
 Ernie: Thresh=  0.10000D-02 Tol=  0.10000D-05 Strict=F.
 Ernie:  21 primitive shells out of 262 were deleted.
 There are   395 symmetry adapted cartesian basis functions of A   symmetry.
 There are   350 symmetry adapted basis functions of A   symmetry.
   350 basis functions,   534 primitive gaussians,   395 cartesian basis functions
    28 alpha electrons       28 beta electrons
       nuclear repulsion energy       324.1361480406 Hartrees.
 IExCor= 4336 DFT=T Ex+Corr=M062X ExCW=0 ScaHFX=  0.540000
 ScaDFX=  1.000000  1.000000  1.000000  1.000000 ScalE2=  1.000000  1.000000
 IRadAn=      5 IRanWt=     -1 IRanGd=            0 ICorTp=0 IEmpDi=  4
 NAtoms=   17 NActive=   17 NUniq=   17 SFac= 1.00D+00 NAtFMM=   60 NAOKFM=F Big=F
 Integral buffers will be    131072 words long.
 Raffenetti 2 integral format.
 Two-electron integral symmetry is turned on.
 Leave Link  301 at Sat Sep 28 10:37:54 2019, MaxMem=   671088640 cpu:               1.5 elap:               0.8
 (Enter /shared/centos7/gaussian/g16/l302.exe)
 NPDir=0 NMtPBC=     1 NCelOv=     1 NCel=       1 NClECP=     1 NCelD=      1
         NCelK=      1 NCelE2=     1 NClLst=     1 CellRange=     0.0.
 One-electron integrals computed using PRISM.
 One-electron integral symmetry used in STVInt
 NBasis=   350 RedAO= T EigKep=  3.28D-04  NBF=   350
 NBsUse=   350 1.00D-06 EigRej= -1.00D+00 NBFU=   350
 Precomputing XC quadrature grid using
 IXCGrd= 4 IRadAn=           5 IRanWt=          -1 IRanGd=           0 AccXCQ= 0.00D+00.
 Generated NRdTot=       0 NPtTot=           0 NUsed=           0 NTot=          32
 NSgBfM=   395   395   395   395   395 MxSgAt=    17 MxSgA2=    17.
 Leave Link  302 at Sat Sep 28 10:38:47 2019, MaxMem=   671088640 cpu:             106.8 elap:              53.4
 (Enter /shared/centos7/gaussian/g16/l303.exe)
 DipDrv:  MaxL=1.
 Leave Link  303 at Sat Sep 28 10:38:51 2019, MaxMem=   671088640 cpu:               8.6 elap:               4.3
 (Enter /shared/centos7/gaussian/g16/l401.exe)
 ExpMin= 1.03D-01 ExpMax= 1.53D+04 ExpMxC= 5.22D+02 IAcc=3 IRadAn=         5 AccDes= 0.00D+00
 Harris functional with IExCor= 1009 and IRadAn=       5 diagonalized for initial guess.
 HarFok:  IExCor= 1009 AccDes= 0.00D+00 IRadAn=         5 IDoV= 1 UseB2=F ITyADJ=14
 ICtDFT=  3500011 ScaDFX=  1.000000  1.000000  1.000000  1.000000
 FoFCou: FMM=F IPFlag=           0 FMFlag=      100000 FMFlg1=           0
         NFxFlg=           0 DoJE=T BraDBF=F KetDBF=T FulRan=T
         wScrn=  0.000000 ICntrl=       500 IOpCl=  0 I1Cent=   200000004 NGrid=           0
         NMat0=    1 NMatS0=      1 NMatT0=    0 NMatD0=    1 NMtDS0=    0 NMtDT0=    0
 Petite list used in FoFCou.
 Harris En= -346.814344483459    
 JPrj=0 DoOrth=F DoCkMO=F.
 Leave Link  401 at Sat Sep 28 10:39:22 2019, MaxMem=   671088640 cpu:              60.7 elap:              30.4
 (Enter /shared/centos7/gaussian/g16/l502.exe)
 Integral symmetry usage will be decided dynamically.
 Closed shell SCF:
 Using DIIS extrapolation, IDIIS=  1040.
 NGot=   671088640 LenX=   670765141 LenY=   670608675
 Requested convergence on RMS density matrix=1.00D-08 within 900 cycles.
 Requested convergence on MAX density matrix=1.00D-06.
 Requested convergence on             energy=1.00D-06.
 No special actions if energy rises.
 Fock matrices will be formed incrementally for  20 cycles.
 Integral accuracy reduced to 1.0D-05 until final iterations.

 Cycle   1  Pass 0  IDiag  1:
 FoFJK:  IHMeth= 1 ICntrl=       0 DoSepK=F KAlg= 0 I1Cent=           0 FoldK=F
 IRaf= 960000000 NMat=       1 IRICut=       1 DoRegI=T DoRafI=F ISym2E= 0 IDoP0=0 IntGTp=1.
 FoFCou: FMM=F IPFlag=           0 FMFlag=      100000 FMFlg1=           0
         NFxFlg=           0 DoJE=F BraDBF=F KetDBF=F FulRan=T
         wScrn=  0.000000 ICntrl=         0 IOpCl=  0 I1Cent=           0 NGrid=           0
         NMat0=    1 NMatS0=      1 NMatT0=    0 NMatD0=    1 NMtDS0=    0 NMtDT0=    0
 Symmetry not used in FoFCou.
 E= -346.700312119170    
 DIIS: error= 2.54D-02 at cycle   1 NSaved=   1.
 NSaved= 1 IEnMin= 1 EnMin= -346.700312119170     IErMin= 1 ErrMin= 2.54D-02
 ErrMax= 2.54D-02  0.00D+00 EMaxC= 1.00D-01 BMatC= 2.87D-01 BMatP= 2.87D-01
 IDIUse=3 WtCom= 7.46D-01 WtEn= 2.54D-01
 Coeff-Com:  0.100D+01
 Coeff-En:   0.100D+01
 Coeff:      0.100D+01
 Gap=     0.358 Goal=   None    Shift=    0.000
 GapD=    0.358 DampG=1.000 DampE=0.500 DampFc=0.5000 IDamp=-1.
 Damping current iteration by 5.00D-01
 RMSDP=2.03D-03 MaxDP=8.54D-02              OVMax= 1.41D-01

 Cycle   2  Pass 0  IDiag  1:
 RMSU=  1.02D-03    CP:  9.99D-01
 E= -346.820341634611     Delta-E=       -0.120029515442 Rises=F Damp=T
 DIIS: error= 4.54D-03 at cycle   2 NSaved=   2.
 NSaved= 2 IEnMin= 2 EnMin= -346.820341634611     IErMin= 2 ErrMin= 4.54D-03
 ErrMax= 4.54D-03  0.00D+00 EMaxC= 1.00D-01 BMatC= 2.12D-02 BMatP= 2.87D-01
 IDIUse=3 WtCom= 9.55D-01 WtEn= 4.54D-02
 Coeff-Com: -0.125D+00 0.113D+01
 Coeff-En:   0.000D+00 0.100D+01
 Coeff:     -0.120D+00 0.112D+01
 Gap=     0.317 Goal=   None    Shift=    0.000
 RMSDP=4.67D-04 MaxDP=1.59D-02 DE=-1.20D-01 OVMax= 7.15D-02

 Cycle   3  Pass 0  IDiag  1:
 RMSU=  4.58D-04    CP:  1.00D+00  9.12D-01
 E= -346.929570448981     Delta-E=       -0.109228814370 Rises=F Damp=F
 DIIS: error= 2.58D-03 at cycle   3 NSaved=   3.
 NSaved= 3 IEnMin= 3 EnMin= -346.929570448981     IErMin= 3 ErrMin= 2.58D-03
 ErrMax= 2.58D-03  0.00D+00 EMaxC= 1.00D-01 BMatC= 3.85D-03 BMatP= 2.12D-02
 IDIUse=3 WtCom= 9.74D-01 WtEn= 2.58D-02
 Coeff-Com: -0.827D-01 0.316D+00 0.767D+00
 Coeff-En:   0.000D+00 0.000D+00 0.100D+01
 Coeff:     -0.806D-01 0.308D+00 0.773D+00
 Gap=     0.314 Goal=   None    Shift=    0.000
 RMSDP=1.65D-04 MaxDP=7.93D-03 DE=-1.09D-01 OVMax= 1.26D-02

 Cycle   4  Pass 0  IDiag  1:
 RMSU=  1.23D-04    CP:  1.00D+00  1.01D+00  8.84D-01
 E= -346.931761260079     Delta-E=       -0.002190811098 Rises=F Damp=F
 DIIS: error= 1.31D-03 at cycle   4 NSaved=   4.
 NSaved= 4 IEnMin= 4 EnMin= -346.931761260079     IErMin= 4 ErrMin= 1.31D-03
 ErrMax= 1.31D-03  0.00D+00 EMaxC= 1.00D-01 BMatC= 1.01D-03 BMatP= 3.85D-03
 IDIUse=3 WtCom= 9.87D-01 WtEn= 1.31D-02
 Coeff-Com: -0.280D-01 0.743D-01 0.382D+00 0.572D+00
 Coeff-En:   0.000D+00 0.000D+00 0.146D+00 0.854D+00
 Coeff:     -0.276D-01 0.733D-01 0.379D+00 0.576D+00
 Gap=     0.311 Goal=   None    Shift=    0.000
 RMSDP=6.45D-05 MaxDP=2.95D-03 DE=-2.19D-03 OVMax= 5.11D-03

 Cycle   5  Pass 0  IDiag  1:
 RMSU=  2.87D-05    CP:  1.00D+00  9.88D-01  9.36D-01  6.04D-01
 E= -346.932482888485     Delta-E=       -0.000721628405 Rises=F Damp=F
 DIIS: error= 2.15D-04 at cycle   5 NSaved=   5.
 NSaved= 5 IEnMin= 5 EnMin= -346.932482888485     IErMin= 5 ErrMin= 2.15D-04
 ErrMax= 2.15D-04  0.00D+00 EMaxC= 1.00D-01 BMatC= 3.11D-05 BMatP= 1.01D-03
 IDIUse=3 WtCom= 9.98D-01 WtEn= 2.15D-03
 Coeff-Com: -0.530D-02 0.989D-02 0.998D-01 0.223D+00 0.673D+00
 Coeff-En:   0.000D+00 0.000D+00 0.000D+00 0.000D+00 0.100D+01
 Coeff:     -0.529D-02 0.987D-02 0.996D-01 0.222D+00 0.674D+00
 Gap=     0.311 Goal=   None    Shift=    0.000
 RMSDP=1.16D-05 MaxDP=3.15D-04 DE=-7.22D-04 OVMax= 1.02D-03

 Cycle   6  Pass 0  IDiag  1:
 RMSU=  8.03D-06    CP:  1.00D+00  9.86D-01  9.43D-01  6.48D-01  8.24D-01
 E= -346.932504540719     Delta-E=       -0.000021652234 Rises=F Damp=F
 DIIS: error= 5.55D-05 at cycle   6 NSaved=   6.
 NSaved= 6 IEnMin= 6 EnMin= -346.932504540719     IErMin= 6 ErrMin= 5.55D-05
 ErrMax= 5.55D-05  0.00D+00 EMaxC= 1.00D-01 BMatC= 1.54D-06 BMatP= 3.11D-05
 IDIUse=1 WtCom= 1.00D+00 WtEn= 0.00D+00
 Coeff-Com:  0.171D-04-0.126D-02 0.115D-01 0.473D-01 0.219D+00 0.723D+00
 Coeff:      0.171D-04-0.126D-02 0.115D-01 0.473D-01 0.219D+00 0.723D+00
 Gap=     0.311 Goal=   None    Shift=    0.000
 RMSDP=3.11D-06 MaxDP=1.28D-04 DE=-2.17D-05 OVMax= 4.40D-04

 Initial convergence to 1.0D-05 achieved.  Increase integral accuracy.
 Cycle   7  Pass 1  IDiag  1:
 E= -346.932521795825     Delta-E=       -0.000017255107 Rises=F Damp=F
 DIIS: error= 2.55D-05 at cycle   1 NSaved=   1.
 NSaved= 1 IEnMin= 1 EnMin= -346.932521795825     IErMin= 1 ErrMin= 2.55D-05
 ErrMax= 2.55D-05  0.00D+00 EMaxC= 1.00D-01 BMatC= 6.64D-07 BMatP= 6.64D-07
 IDIUse=1 WtCom= 1.00D+00 WtEn= 0.00D+00
 Coeff-Com:  0.100D+01
 Coeff:      0.100D+01
 Gap=     0.311 Goal=   None    Shift=    0.000
 RMSDP=3.11D-06 MaxDP=1.28D-04 DE=-1.73D-05 OVMax= 2.87D-04

 Cycle   8  Pass 1  IDiag  1:
 RMSU=  6.33D-06    CP:  1.00D+00
 E= -346.932521992668     Delta-E=       -0.000000196843 Rises=F Damp=F
 DIIS: error= 2.73D-05 at cycle   2 NSaved=   2.
 NSaved= 2 IEnMin= 2 EnMin= -346.932521992668     IErMin= 1 ErrMin= 2.55D-05
 ErrMax= 2.73D-05  0.00D+00 EMaxC= 1.00D-01 BMatC= 2.51D-07 BMatP= 6.64D-07
 IDIUse=1 WtCom= 1.00D+00 WtEn= 0.00D+00
 Coeff-Com:  0.342D+00 0.658D+00
 Coeff:      0.342D+00 0.658D+00
 Gap=     0.311 Goal=   None    Shift=    0.000
 RMSDP=1.51D-06 MaxDP=5.74D-05 DE=-1.97D-07 OVMax= 2.73D-04

 Cycle   9  Pass 1  IDiag  1:
 RMSU=  1.50D-06    CP:  1.00D+00  9.68D-01
 E= -346.932522167934     Delta-E=       -0.000000175265 Rises=F Damp=F
 DIIS: error= 1.27D-05 at cycle   3 NSaved=   3.
 NSaved= 3 IEnMin= 3 EnMin= -346.932522167934     IErMin= 3 ErrMin= 1.27D-05
 ErrMax= 1.27D-05  0.00D+00 EMaxC= 1.00D-01 BMatC= 6.40D-08 BMatP= 2.51D-07
 IDIUse=1 WtCom= 1.00D+00 WtEn= 0.00D+00
 Coeff-Com: -0.241D-02 0.330D+00 0.673D+00
 Coeff:     -0.241D-02 0.330D+00 0.673D+00
 Gap=     0.311 Goal=   None    Shift=    0.000
 RMSDP=5.55D-07 MaxDP=2.07D-05 DE=-1.75D-07 OVMax= 9.66D-05

 Cycle  10  Pass 1  IDiag  1:
 RMSU=  2.46D-07    CP:  1.00D+00  1.00D+00  7.00D-01
 E= -346.932522220449     Delta-E=       -0.000000052515 Rises=F Damp=F
 DIIS: error= 1.96D-06 at cycle   4 NSaved=   4.
 NSaved= 4 IEnMin= 4 EnMin= -346.932522220449     IErMin= 4 ErrMin= 1.96D-06
 ErrMax= 1.96D-06  0.00D+00 EMaxC= 1.00D-01 BMatC= 3.46D-09 BMatP= 6.40D-08
 IDIUse=1 WtCom= 1.00D+00 WtEn= 0.00D+00
 Coeff-Com: -0.144D-01 0.145D+00 0.332D+00 0.538D+00
 Coeff:     -0.144D-01 0.145D+00 0.332D+00 0.538D+00
 Gap=     0.311 Goal=   None    Shift=    0.000
 RMSDP=1.10D-07 MaxDP=4.82D-06 DE=-5.25D-08 OVMax= 1.36D-05

 Cycle  11  Pass 1  IDiag  1:
 RMSU=  9.46D-08    CP:  1.00D+00  1.00D+00  7.31D-01  8.74D-01
 E= -346.932522223000     Delta-E=       -0.000000002551 Rises=F Damp=F
 DIIS: error= 3.71D-07 at cycle   5 NSaved=   5.
 NSaved= 5 IEnMin= 5 EnMin= -346.932522223000     IErMin= 5 ErrMin= 3.71D-07
 ErrMax= 3.71D-07  0.00D+00 EMaxC= 1.00D-01 BMatC= 1.14D-10 BMatP= 3.46D-09
 IDIUse=1 WtCom= 1.00D+00 WtEn= 0.00D+00
 Coeff-Com: -0.236D-02-0.470D-02-0.120D-01 0.113D+00 0.906D+00
 Coeff:     -0.236D-02-0.470D-02-0.120D-01 0.113D+00 0.906D+00
 Gap=     0.311 Goal=   None    Shift=    0.000
 RMSDP=3.63D-08 MaxDP=1.15D-06 DE=-2.55D-09 OVMax= 3.08D-06

 Cycle  12  Pass 1  IDiag  1:
 RMSU=  2.18D-08    CP:  1.00D+00  1.00D+00  7.28D-01  9.82D-01  1.08D+00
 E= -346.932522223096     Delta-E=       -0.000000000096 Rises=F Damp=F
 DIIS: error= 1.41D-07 at cycle   6 NSaved=   6.
 NSaved= 6 IEnMin= 6 EnMin= -346.932522223096     IErMin= 6 ErrMin= 1.41D-07
 ErrMax= 1.41D-07  0.00D+00 EMaxC= 1.00D-01 BMatC= 2.57D-11 BMatP= 1.14D-10
 IDIUse=1 WtCom= 1.00D+00 WtEn= 0.00D+00
 Coeff-Com:  0.586D-03-0.189D-01-0.454D-01-0.121D-01 0.401D+00 0.675D+00
 Coeff:      0.586D-03-0.189D-01-0.454D-01-0.121D-01 0.401D+00 0.675D+00
 Gap=     0.311 Goal=   None    Shift=    0.000
 RMSDP=1.28D-08 MaxDP=6.15D-07 DE=-9.63D-11 OVMax= 9.18D-07

 Cycle  13  Pass 1  IDiag  1:
 RMSU=  9.60D-09    CP:  1.00D+00  1.00D+00  7.29D-01  1.00D+00  1.14D+00
                    CP:  9.44D-01
 E= -346.932522223123     Delta-E=       -0.000000000027 Rises=F Damp=F
 DIIS: error= 5.15D-08 at cycle   7 NSaved=   7.
 NSaved= 7 IEnMin= 7 EnMin= -346.932522223123     IErMin= 7 ErrMin= 5.15D-08
 ErrMax= 5.15D-08  0.00D+00 EMaxC= 1.00D-01 BMatC= 1.87D-12 BMatP= 2.57D-11
 IDIUse=1 WtCom= 1.00D+00 WtEn= 0.00D+00
 Coeff-Com:  0.434D-03-0.711D-02-0.174D-01-0.136D-01 0.913D-01 0.283D+00
 Coeff-Com:  0.663D+00
 Coeff:      0.434D-03-0.711D-02-0.174D-01-0.136D-01 0.913D-01 0.283D+00
 Coeff:      0.663D+00
 Gap=     0.311 Goal=   None    Shift=    0.000
 RMSDP=3.51D-09 MaxDP=1.09D-07 DE=-2.67D-11 OVMax= 2.95D-07

 SCF Done:  E(RM062X) =  -346.932522223     A.U. after   13 cycles
            NFock= 13  Conv=0.35D-08     -V/T= 2.0063
 KE= 3.447463157437D+02 PE=-1.458527801809D+03 EE= 4.427128158011D+02
 Leave Link  502 at Sat Sep 28 10:50:11 2019, MaxMem=   671088640 cpu:            1297.2 elap:             648.7
 (Enter /shared/centos7/gaussian/g16/l801.exe)
 DoSCS=F DFT=T ScalE2(SS,OS)=  1.000000  1.000000
 Range of M.O.s used for correlation:     1   350
 NBasis=   350 NAE=    28 NBE=    28 NFC=     0 NFV=     0
 NROrb=    350 NOA=    28 NOB=    28 NVA=   322 NVB=   322

 **** Warning!!: The largest alpha MO coefficient is  0.11039732D+02

 Leave Link  801 at Sat Sep 28 10:50:11 2019, MaxMem=   671088640 cpu:               1.3 elap:               0.7
 (Enter /shared/centos7/gaussian/g16/l1101.exe)
 Using compressed storage, NAtomX=    17.
 Will process     18 centers per pass.
 Leave Link 1101 at Sat Sep 28 10:50:38 2019, MaxMem=   671088640 cpu:              53.4 elap:              26.7
 (Enter /shared/centos7/gaussian/g16/l1102.exe)
 Symmetrizing basis deriv contribution to polar:
 IMax=3 JMax=2 DiffMx= 0.00D+00
 Leave Link 1102 at Sat Sep 28 10:50:41 2019, MaxMem=   671088640 cpu:               5.1 elap:               2.6
 (Enter /shared/centos7/gaussian/g16/l1110.exe)
 Forming Gx(P) for the SCF density, NAtomX=    17.
 Integral derivatives from FoFJK, PRISM(SPDF).
 Do as many integral derivatives as possible in FoFJK.
 G2DrvN: MDV=     671087280.
 G2DrvN: will do    18 centers at a time, making    1 passes.
 Calling FoFCou, ICntrl=  3107 FMM=F I1Cent=   0 AccDes= 0.00D+00.
 FoFJK:  IHMeth= 1 ICntrl=    3107 DoSepK=F KAlg= 0 I1Cent=           0 FoldK=F
 IRaf=         0 NMat=       1 IRICut=       1 DoRegI=T DoRafI=F ISym2E= 0 IDoP0=0 IntGTp=1.
 FoFCou: FMM=F IPFlag=           0 FMFlag=      100000 FMFlg1=           0
         NFxFlg=           0 DoJE=F BraDBF=F KetDBF=F FulRan=T
         wScrn=  0.000000 ICntrl=      3107 IOpCl=  0 I1Cent=           0 NGrid=           0
         NMat0=    1 NMatS0=      1 NMatT0=    0 NMatD0=    1 NMtDS0=    0 NMtDT0=    0
 Symmetry not used in FoFCou.
 End of G2Drv F.D. properties file   721 does not exist.
 End of G2Drv F.D. properties file   722 does not exist.
 End of G2Drv F.D. properties file   788 does not exist.
 Leave Link 1110 at Sat Sep 28 11:08:56 2019, MaxMem=   671088640 cpu:            2191.5 elap:            1095.9
 (Enter /shared/centos7/gaussian/g16/l1002.exe)
 Minotr:  Closed shell wavefunction.
          IDoAtm=11111111111111111
          Direct CPHF calculation.
          Differentiating once with respect to nuclear coordinates.
          Requested convergence is 1.0D-08 RMS, and 1.0D-07 maximum.
          Secondary convergence is 1.0D-12 RMS, and 1.0D-12 maximum.
          NewPWx=T KeepS1=F KeepF1=F KeepIn=T MapXYZ=F SortEE=F KeepMc=T.
         5102 words used for storage of precomputed grid.
 Two-electron integrals replicated using symmetry.
          MDV=     671088640 using IRadAn=       1.
          Solving linear equations simultaneously, MaxMat=     380.
 FoF2E skips out because all densities are zero.
 CalDSu exits because no D1Ps are significant.
 FoFJK:  IHMeth= 1 ICntrl=       0 DoSepK=F KAlg= 0 I1Cent=           0 FoldK=F
 IRaf= 950000000 NMat=      51 IRICut=     127 DoRegI=T DoRafI=T ISym2E= 2 IDoP0=3 IntGTp=3.
 FoFCou: FMM=F IPFlag=           0 FMFlag=      100000 FMFlg1=           0
         NFxFlg=           0 DoJE=F BraDBF=F KetDBF=F FulRan=T
         wScrn=  0.000000 ICntrl=         0 IOpCl=  0 I1Cent=           0 NGrid=           0
         NMat0=   51 NMatS0=     51 NMatT0=    0 NMatD0=   51 NMtDS0=    0 NMtDT0=    0
 Integrals replicated using symmetry in FoFCou.
 Raff kept on since  92.47% of shell-pairs survive, threshold=   0.20 IRatSp=92.
          There are    54 degrees of freedom in the 1st order CPHF.  IDoFFX=6 NUNeed=     0.
     48 vectors produced by pass  0 Test12= 1.67D-14 1.85D-09 XBig12= 7.13D-02 5.69D-02.
 AX will form    48 AO Fock derivatives at one time.
     48 vectors produced by pass  1 Test12= 1.67D-14 1.85D-09 XBig12= 8.63D-03 3.92D-02.
     48 vectors produced by pass  2 Test12= 1.67D-14 1.85D-09 XBig12= 2.54D-04 3.01D-03.
     48 vectors produced by pass  3 Test12= 1.67D-14 1.85D-09 XBig12= 3.44D-06 2.27D-04.
     48 vectors produced by pass  4 Test12= 1.67D-14 1.85D-09 XBig12= 2.44D-08 1.49D-05.
     48 vectors produced by pass  5 Test12= 1.67D-14 1.85D-09 XBig12= 1.21D-10 1.10D-06.
     27 vectors produced by pass  6 Test12= 1.67D-14 1.85D-09 XBig12= 5.34D-13 6.16D-08.
      4 vectors produced by pass  7 Test12= 1.67D-14 1.85D-09 XBig12= 2.13D-15 4.20D-09.
 InvSVY:  IOpt=1 It=  1 EMax= 2.50D-16
 Solved reduced A of dimension   319 with    54 vectors.
 End of Minotr F.D. properties file   721 does not exist.
 End of Minotr F.D. properties file   722 does not exist.
 End of Minotr F.D. properties file   788 does not exist.
 Leave Link 1002 at Sat Sep 28 11:39:16 2019, MaxMem=   671088640 cpu:            3639.0 elap:            1819.7
 (Enter /shared/centos7/gaussian/g16/l601.exe)
 Copying SCF densities to generalized density rwf, IOpCl= 0 IROHF=0.

 **********************************************************************

            Population analysis using the SCF density.

 **********************************************************************

 Orbital symmetries:
       Occupied  (A) (A) (A) (A) (A) (A) (A) (A) (A) (A) (A) (A)
                 (A) (A) (A) (A) (A) (A) (A) (A) (A) (A) (A) (A)
                 (A) (A) (A) (A)
       Virtual   (A) (A) (A) (A) (A) (A) (A) (A) (A) (A) (A) (A)
                 (A) (A) (A) (A) (A) (A) (A) (A) (A) (A) (A) (A)
                 (A) (A) (A) (A) (A) (A) (A) (A) (A) (A) (A) (A)
                 (A) (A) (A) (A) (A) (A) (A) (A) (A) (A) (A) (A)
                 (A) (A) (A) (A) (A) (A) (A) (A) (A) (A) (A) (A)
                 (A) (A) (A) (A) (A) (A) (A) (A) (A) (A) (A) (A)
                 (A) (A) (A) (A) (A) (A) (A) (A) (A) (A) (A) (A)
                 (A) (A) (A) (A) (A) (A) (A) (A) (A) (A) (A) (A)
                 (A) (A) (A) (A) (A) (A) (A) (A) (A) (A) (A) (A)
                 (A) (A) (A) (A) (A) (A) (A) (A) (A) (A) (A) (A)
                 (A) (A) (A) (A) (A) (A) (A) (A) (A) (A) (A) (A)
                 (A) (A) (A) (A) (A) (A) (A) (A) (A) (A) (A) (A)
                 (A) (A) (A) (A) (A) (A) (A) (A) (A) (A) (A) (A)
                 (A) (A) (A) (A) (A) (A) (A) (A) (A) (A) (A) (A)
                 (A) (A) (A) (A) (A) (A) (A) (A) (A) (A) (A) (A)
                 (A) (A) (A) (A) (A) (A) (A) (A) (A) (A) (A) (A)
                 (A) (A) (A) (A) (A) (A) (A) (A) (A) (A) (A) (A)
                 (A) (A) (A) (A) (A) (A) (A) (A) (A) (A) (A) (A)
                 (A) (A) (A) (A) (A) (A) (A) (A) (A) (A) (A) (A)
                 (A) (A) (A) (A) (A) (A) (A) (A) (A) (A) (A) (A)
                 (A) (A) (A) (A) (A) (A) (A) (A) (A) (A) (A) (A)
                 (A) (A) (A) (A) (A) (A) (A) (A) (A) (A) (A) (A)
                 (A) (A) (A) (A) (A) (A) (A) (A) (A) (A) (A) (A)
                 (A) (A) (A) (A) (A) (A) (A) (A) (A) (A) (A) (A)
                 (A) (A) (A) (A) (A) (A) (A) (A) (A) (A) (A) (A)
                 (A) (A) (A) (A) (A) (A) (A) (A) (A) (A) (A) (A)
                 (A) (A) (A) (A) (A) (A) (A) (A) (A) (A)
 The electronic state is 1-A.
 Alpha  occ. eigenvalues --  -19.65415 -19.63987 -10.58278 -10.58165 -10.58058
 Alpha  occ. eigenvalues --  -10.52588 -10.52074  -1.18201  -1.16267  -0.88628
 Alpha  occ. eigenvalues --   -0.84077  -0.76872  -0.70035  -0.63415  -0.62593
 Alpha  occ. eigenvalues --   -0.56364  -0.53296  -0.52600  -0.49665  -0.46580
 Alpha  occ. eigenvalues --   -0.46210  -0.43760  -0.42973  -0.42345  -0.41490
 Alpha  occ. eigenvalues --   -0.38153  -0.36120  -0.27034
 Alpha virt. eigenvalues --    0.04077   0.08294   0.09029   0.10345   0.12019
 Alpha virt. eigenvalues --    0.12721   0.13467   0.14525   0.16136   0.17380
 Alpha virt. eigenvalues --    0.17587   0.18629   0.21489   0.24733   0.25350
 Alpha virt. eigenvalues --    0.27158   0.30340   0.32400   0.32810   0.33123
 Alpha virt. eigenvalues --    0.35024   0.36352   0.36613   0.38822   0.39810
 Alpha virt. eigenvalues --    0.40930   0.41579   0.42502   0.44340   0.47417
 Alpha virt. eigenvalues --    0.48462   0.48842   0.49637   0.50489   0.50965
 Alpha virt. eigenvalues --    0.51367   0.51798   0.52703   0.54006   0.55478
 Alpha virt. eigenvalues --    0.56492   0.58523   0.62394   0.63922   0.66183
 Alpha virt. eigenvalues --    0.66565   0.67913   0.71139   0.72413   0.73224
 Alpha virt. eigenvalues --    0.75726   0.77963   0.79487   0.80817   0.81356
 Alpha virt. eigenvalues --    0.84766   0.86183   0.86926   0.88945   0.90402
 Alpha virt. eigenvalues --    0.92940   0.94387   0.96644   0.99140   1.00076
 Alpha virt. eigenvalues --    1.01927   1.03241   1.03645   1.07020   1.07676
 Alpha virt. eigenvalues --    1.08717   1.10179   1.10613   1.12685   1.14045
 Alpha virt. eigenvalues --    1.15817   1.17723   1.19797   1.22423   1.23632
 Alpha virt. eigenvalues --    1.24889   1.25710   1.27335   1.28079   1.28789
 Alpha virt. eigenvalues --    1.30185   1.32377   1.33315   1.35126   1.35620
 Alpha virt. eigenvalues --    1.35655   1.36788   1.38995   1.39744   1.41600
 Alpha virt. eigenvalues --    1.43525   1.48729   1.50762   1.53248   1.53555
 Alpha virt. eigenvalues --    1.56728   1.58009   1.58810   1.60471   1.63189
 Alpha virt. eigenvalues --    1.65202   1.66923   1.70304   1.75234   1.83744
 Alpha virt. eigenvalues --    1.88109   1.95648   2.01824   2.06993   2.07506
 Alpha virt. eigenvalues --    2.10412   2.11337   2.15718   2.17786   2.19877
 Alpha virt. eigenvalues --    2.24143   2.27654   2.29259   2.32038   2.34948
 Alpha virt. eigenvalues --    2.37654   2.39998   2.43359   2.45219   2.45880
 Alpha virt. eigenvalues --    2.48448   2.51773   2.54474   2.55785   2.58106
 Alpha virt. eigenvalues --    2.60171   2.63755   2.64200   2.65505   2.69238
 Alpha virt. eigenvalues --    2.71587   2.74077   2.75600   2.78628   2.80913
 Alpha virt. eigenvalues --    2.81983   2.82699   2.84365   2.86013   2.87725
 Alpha virt. eigenvalues --    2.88247   2.90591   2.90853   2.93733   2.95567
 Alpha virt. eigenvalues --    2.96598   2.98311   3.01501   3.01846   3.02334
 Alpha virt. eigenvalues --    3.04194   3.05715   3.07041   3.08287   3.10066
 Alpha virt. eigenvalues --    3.10626   3.11641   3.13424   3.13698   3.15154
 Alpha virt. eigenvalues --    3.17155   3.18169   3.20967   3.23003   3.23996
 Alpha virt. eigenvalues --    3.25702   3.27234   3.28376   3.29139   3.30170
 Alpha virt. eigenvalues --    3.30907   3.31667   3.32580   3.34566   3.36720
 Alpha virt. eigenvalues --    3.38513   3.40101   3.41859   3.43283   3.44408
 Alpha virt. eigenvalues --    3.44938   3.47085   3.47541   3.48889   3.51232
 Alpha virt. eigenvalues --    3.52308   3.54109   3.56142   3.57904   3.60819
 Alpha virt. eigenvalues --    3.64151   3.68143   3.68793   3.70112   3.72672
 Alpha virt. eigenvalues --    3.74282   3.75256   3.77469   3.78138   3.78939
 Alpha virt. eigenvalues --    3.80631   3.81538   3.82301   3.84793   3.88013
 Alpha virt. eigenvalues --    3.90828   3.91771   3.92218   3.93511   3.94058
 Alpha virt. eigenvalues --    3.95406   3.96475   3.98182   4.00579   4.01784
 Alpha virt. eigenvalues --    4.01938   4.04522   4.06193   4.07411   4.07742
 Alpha virt. eigenvalues --    4.08653   4.10337   4.13001   4.14128   4.15717
 Alpha virt. eigenvalues --    4.18361   4.19349   4.26929   4.27367   4.30429
 Alpha virt. eigenvalues --    4.31140   4.32761   4.35316   4.39521   4.41254
 Alpha virt. eigenvalues --    4.46211   4.48359   4.52218   4.53286   4.55586
 Alpha virt. eigenvalues --    4.58194   4.61679   4.63715   4.67404   4.70614
 Alpha virt. eigenvalues --    4.71632   4.73801   4.75387   4.77098   4.80004
 Alpha virt. eigenvalues --    4.81613   4.86437   4.87083   4.94239   4.97078
 Alpha virt. eigenvalues --    4.98171   4.98460   5.01631   5.04251   5.06856
 Alpha virt. eigenvalues --    5.08452   5.11144   5.12217   5.15830   5.20471
 Alpha virt. eigenvalues --    5.22145   5.23128   5.24794   5.26118   5.28998
 Alpha virt. eigenvalues --    5.32693   5.34308   5.38437   5.44792   5.47136
 Alpha virt. eigenvalues --    5.54300   5.54769   5.62634   5.68166   5.74118
 Alpha virt. eigenvalues --    5.77318   5.77650   5.79164   5.81018   5.84617
 Alpha virt. eigenvalues --    5.95490   6.04839   6.08086   6.18838   6.23325
 Alpha virt. eigenvalues --    6.34269   6.48642   6.59275   6.59679   6.69159
 Alpha virt. eigenvalues --    6.72376   6.80052   6.81341   6.84940   6.98776
 Alpha virt. eigenvalues --    7.09762   7.20166   7.29988   7.36668   7.43075
 Alpha virt. eigenvalues --   10.13722  11.34163  11.73327  12.05375  13.17964
 Alpha virt. eigenvalues --   13.32772  14.36073
          Condensed to atoms (all electrons):
               1          2          3          4          5          6
     1  O    7.830842   0.003646   0.268588  -0.051338  -0.042371   0.369860
     2  O    0.003646   7.844470  -0.011009  -0.007647   0.000796  -0.083491
     3  C    0.268588  -0.011009   4.944828   0.328966   0.321989  -0.052345
     4  C   -0.051338  -0.007647   0.328966   5.047289  -0.054077  -0.003200
     5  C   -0.042371   0.000796   0.321989  -0.054077   4.962324   0.001448
     6  C    0.369860  -0.083491  -0.052345  -0.003200   0.001448   4.953054
     7  C   -0.072738   0.304515  -0.017761  -0.001533   0.001751   0.510065
     8  H   -0.041814   0.015019   0.407621  -0.068142  -0.034961  -0.012728
     9  H    0.004365   0.000892  -0.033385   0.384230  -0.008717  -0.002597
    10  H   -0.001374   0.006730  -0.030603   0.395910   0.008351  -0.006750
    11  H    0.004503   0.000643  -0.030162   0.391767  -0.007368   0.000759
    12  H    0.001567  -0.000052  -0.037131  -0.013199   0.395137   0.000444
    13  H    0.003047   0.000028  -0.039348   0.010362   0.400291  -0.000324
    14  H    0.003787  -0.000059  -0.048807  -0.000745   0.400868  -0.000098
    15  H   -0.035706   0.002994   0.007494   0.000349  -0.000583   0.440244
    16  H    0.005035  -0.044623  -0.000701   0.000367   0.000075  -0.067207
    17  H   -0.000566   0.306127   0.000777  -0.000176  -0.000059   0.011617
               7          8          9         10         11         12
     1  O   -0.072738  -0.041814   0.004365  -0.001374   0.004503   0.001567
     2  O    0.304515   0.015019   0.000892   0.006730   0.000643  -0.000052
     3  C   -0.017761   0.407621  -0.033385  -0.030603  -0.030162  -0.037131
     4  C   -0.001533  -0.068142   0.384230   0.395910   0.391767  -0.013199
     5  C    0.001751  -0.034961  -0.008717   0.008351  -0.007368   0.395137
     6  C    0.510065  -0.012728  -0.002597  -0.006750   0.000759   0.000444
     7  C    5.014663   0.004039   0.000389  -0.004462  -0.001151  -0.000020
     8  H    0.004039   0.595218   0.009142  -0.007385  -0.000879   0.008929
     9  H    0.000389   0.009142   0.582090  -0.030119  -0.030815   0.005255
    10  H   -0.004462  -0.007385  -0.030119   0.558328  -0.027056  -0.000089
    11  H   -0.001151  -0.000879  -0.030815  -0.027056   0.584971   0.000564
    12  H   -0.000020   0.008929   0.005255  -0.000089   0.000564   0.596705
    13  H   -0.000038  -0.009724  -0.000390  -0.000478  -0.000361  -0.032834
    14  H   -0.000046  -0.003393  -0.000063   0.000067  -0.000574  -0.033525
    15  H   -0.087728  -0.000613  -0.000184  -0.000042   0.000017  -0.000008
    16  H    0.415863   0.000058  -0.000024   0.000456  -0.000016  -0.000011
    17  H   -0.032360   0.000724   0.000042   0.000253  -0.000002   0.000010
              13         14         15         16         17
     1  O    0.003047   0.003787  -0.035706   0.005035  -0.000566
     2  O    0.000028  -0.000059   0.002994  -0.044623   0.306127
     3  C   -0.039348  -0.048807   0.007494  -0.000701   0.000777
     4  C    0.010362  -0.000745   0.000349   0.000367  -0.000176
     5  C    0.400291   0.400868  -0.000583   0.000075  -0.000059
     6  C   -0.000324  -0.000098   0.440244  -0.067207   0.011617
     7  C   -0.000038  -0.000046  -0.087728   0.415863  -0.032360
     8  H   -0.009724  -0.003393  -0.000613   0.000058   0.000724
     9  H   -0.000390  -0.000063  -0.000184  -0.000024   0.000042
    10  H   -0.000478   0.000067  -0.000042   0.000456   0.000253
    11  H   -0.000361  -0.000574   0.000017  -0.000016  -0.000002
    12  H   -0.032834  -0.033525  -0.000008  -0.000011   0.000010
    13  H    0.576648  -0.027533  -0.000004   0.000002  -0.000007
    14  H   -0.027533   0.606562   0.000032  -0.000007   0.000000
    15  H   -0.000004   0.000032   0.539842  -0.008763  -0.000430
    16  H    0.000002  -0.000007  -0.008763   0.600040  -0.015743
    17  H   -0.000007   0.000000  -0.000430  -0.015743   0.469150
 Mulliken charges:
               1
     1  O   -0.249334
     2  O   -0.338978
     3  C    0.020992
     4  C   -0.359182
     5  C   -0.344894
     6  C   -0.058750
     7  C   -0.033449
     8  H    0.138892
     9  H    0.119890
    10  H    0.138261
    11  H    0.115158
    12  H    0.108259
    13  H    0.120665
    14  H    0.103534
    15  H    0.143091
    16  H    0.115202
    17  H    0.260643
 Sum of Mulliken charges =  -0.00000
 Mulliken charges with hydrogens summed into heavy atoms:
               1
     1  O   -0.249334
     2  O   -0.078335
     3  C    0.159884
     4  C    0.014127
     5  C   -0.012436
     6  C    0.084341
     7  C    0.081752
 APT charges:
               1
     1  O   -0.189475
     2  O   -0.846048
     3  C   -0.043530
     4  C   -1.038649
     5  C   -1.270350
     6  C   -0.534602
     7  C   -0.381405
     8  H    0.267280
     9  H    0.384286
    10  H    0.249269
    11  H    0.406278
    12  H    0.386694
    13  H    0.374649
    14  H    0.405155
    15  H    0.516242
    16  H    0.517387
    17  H    0.796818
 Sum of APT charges =  -0.00000
 APT charges with hydrogens summed into heavy atoms:
               1
     1  O   -0.189475
     2  O   -0.049231
     3  C    0.223750
     4  C    0.001184
     5  C   -0.103851
     6  C   -0.018360
     7  C    0.135982
 Electronic spatial extent (au):  <R**2>=            836.3711
 Charge=              0.0000 electrons
 Dipole moment (field-independent basis, Debye):
    X=              2.0450    Y=              1.2406    Z=              0.0331  Tot=              2.3921
 Quadrupole moment (field-independent basis, Debye-Ang):
   XX=            -34.8394   YY=            -43.5449   ZZ=            -45.4661
   XY=              1.0986   XZ=              0.3540   YZ=             -1.3431
 Traceless Quadrupole moment (field-independent basis, Debye-Ang):
   XX=              6.4441   YY=             -2.2614   ZZ=             -4.1826
   XY=              1.0986   XZ=              0.3540   YZ=             -1.3431
 Octapole moment (field-independent basis, Debye-Ang**2):
  XXX=             37.1122  YYY=              3.2489  ZZZ=             -3.3755  XYY=             10.8336
  XXY=             10.6193  XXZ=             -3.1832  XZZ=              0.1431  YZZ=             -0.4950
  YYZ=             -0.7352  XYZ=             -3.5783
 Hexadecapole moment (field-independent basis, Debye-Ang**3):
 XXXX=           -610.9073 YYYY=           -251.3082 ZZZZ=           -159.3730 XXXY=             45.1014
 XXXZ=            -16.5682 YYYX=             12.2820 YYYZ=            -14.1922 ZZZX=             -5.9646
 ZZZY=             -4.7239 XXYY=           -136.8515 XXZZ=           -143.1655 YYZZ=            -69.7122
 XXYZ=            -14.3595 YYXZ=              0.0328 ZZXY=              7.0311
 N-N= 3.241361480406D+02 E-N=-1.458527814633D+03  KE= 3.447463157437D+02
  Exact polarizability:   0.000   0.000   0.000   0.000   0.000   0.000
 Approx polarizability:  86.975   7.423  83.484  -2.499  -6.402  70.113
 No NMR shielding tensors so no spin-rotation constants.
 Leave Link  601 at Sat Sep 28 11:39:43 2019, MaxMem=   671088640 cpu:              53.9 elap:              27.0
 (Enter /shared/centos7/gaussian/g16/l701.exe)
 SCFChk:  SCF convergence  3.51D-09 required  1.00D-08
 ... and contract with generalized density number  0.
 Compute integral second derivatives.
 Entering OneElI...
 Calculate overlap and kinetic energy integrals
    NBasis = 395  MinDer = 2  MaxDer = 2
 Requested accuracy = 0.1000D-12
 PrmmSu-InSpLW:  IPartL=    0 NPrtUS=   20 NPrtUL=    1 DoSpLW=F IThBeg=    0 IThEnd=   19 NThAct=   20.
 PrsmSu:  NPrtUS=  20 ThrOK=T IAlg=1 NPAlg=1 LenDen=           0 ISkipM=0 DoSpLW=F IThBeg=    0 IThEnd=   19.
 Prism:   IPart=     0 DynPar=F LinDyn=F Incr=           4.
 PRISM was handed    33310134 working-precision words and  8473 shell-pairs
 PRISM was handed    33310134 working-precision words and  8473 shell-pairs
 PRISM was handed    33310134 working-precision words and  8473 shell-pairs
 PRISM was handed    33310134 working-precision words and  8473 shell-pairs
 PRISM was handed    33310134 working-precision words and  8473 shell-pairs
 PRISM was handed    33310134 working-precision words and  8473 shell-pairs
 PRISM was handed    33310134 working-precision words and  8473 shell-pairs
 IPart= 16 NShTot=         402 NBatch=          39 AvBLen=        10.3
 IPart=  0 NShTot=         470 NBatch=          83 AvBLen=         5.7
 PRISM was handed    33310134 working-precision words and  8473 shell-pairs
 PRISM was handed    33310134 working-precision words and  8473 shell-pairs
 PRISM was handed    33310134 working-precision words and  8473 shell-pairs
 IPart=  8 NShTot=         417 NBatch=          50 AvBLen=         8.3
 IPart=  4 NShTot=         443 NBatch=          63 AvBLen=         7.0
 PRISM was handed    33310134 working-precision words and  8473 shell-pairs
 IPart=  3 NShTot=         451 NBatch=          70 AvBLen=         6.4
 PRISM was handed    33310134 working-precision words and  8473 shell-pairs
 PRISM was handed    33310134 working-precision words and  8473 shell-pairs
 IPart=  1 NShTot=         465 NBatch=          79 AvBLen=         5.9
 PRISM was handed    33310134 working-precision words and  8473 shell-pairs
 PRISM was handed    33310134 working-precision words and  8473 shell-pairs
 PRISM was handed    33310134 working-precision words and  8473 shell-pairs
 IPart=  7 NShTot=         426 NBatch=          51 AvBLen=         8.4
 PRISM was handed    33310134 working-precision words and  8473 shell-pairs
 PRISM was handed    33310134 working-precision words and  8473 shell-pairs
 PRISM was handed    33310134 working-precision words and  8473 shell-pairs
 PRISM was handed    33310134 working-precision words and  8473 shell-pairs
 IPart= 14 NShTot=         403 NBatch=          39 AvBLen=        10.3
 IPart=  2 NShTot=         457 NBatch=          74 AvBLen=         6.2
 IPart= 12 NShTot=         409 NBatch=          44 AvBLen=         9.3
 IPart= 13 NShTot=         406 NBatch=          42 AvBLen=         9.7
 IPart= 17 NShTot=         401 NBatch=          39 AvBLen=        10.3
 IPart= 11 NShTot=         412 NBatch=          47 AvBLen=         8.8
 IPart=  6 NShTot=         438 NBatch=          60 AvBLen=         7.3
 IPart= 19 NShTot=         399 NBatch=          39 AvBLen=        10.2
 IPart= 18 NShTot=         400 NBatch=          39 AvBLen=        10.3
 IPart=  5 NShTot=         441 NBatch=          62 AvBLen=         7.1
 IPart= 15 NShTot=         403 NBatch=          39 AvBLen=        10.3
 IPart=  9 NShTot=         416 NBatch=          49 AvBLen=         8.5
 IPart= 10 NShTot=         414 NBatch=          48 AvBLen=         8.6
 PrSmSu:  NxtVal=             81.
 Entering OneElI...
 Calculate potential energy integrals
    NBasis = 395  MinDer = 2  MaxDer = 2
 Requested accuracy = 0.1000D-12
 PrmmSu-InSpLW:  IPartL=    0 NPrtUS=   20 NPrtUL=    1 DoSpLW=F IThBeg=    0 IThEnd=   19 NThAct=   20.
 PrsmSu:  NPrtUS=  20 ThrOK=T IAlg=1 NPAlg=1 LenDen=           0 ISkipM=0 DoSpLW=F IThBeg=    0 IThEnd=   19.
 Prism:   IPart=     0 DynPar=F LinDyn=F Incr=          66.
 PRISM was handed    33352321 working-precision words and  7804 shell-pairs
 PRISM was handed    33352321 working-precision words and  7804 shell-pairs
 PRISM was handed    33352321 working-precision words and  7804 shell-pairs
 PRISM was handed    33352321 working-precision words and  7804 shell-pairs
 PRISM was handed    33352321 working-precision words and  7804 shell-pairs
 PRISM was handed    33352321 working-precision words and  7804 shell-pairs
 PRISM was handed    33352321 working-precision words and  7804 shell-pairs
 PRISM was handed    33352321 working-precision words and  7804 shell-pairs
 PRISM was handed    33352321 working-precision words and  7804 shell-pairs
 PRISM was handed    33352321 working-precision words and  7804 shell-pairs
 PRISM was handed    33352321 working-precision words and  7804 shell-pairs
 PRISM was handed    33352321 working-precision words and  7804 shell-pairs
 PRISM was handed    33352321 working-precision words and  7804 shell-pairs
 PRISM was handed    33352321 working-precision words and  7804 shell-pairs
 PRISM was handed    33352321 working-precision words and  7804 shell-pairs
 PRISM was handed    33352321 working-precision words and  7804 shell-pairs
 PRISM was handed    33352321 working-precision words and  7804 shell-pairs
 PRISM was handed    33352321 working-precision words and  7804 shell-pairs
 PRISM was handed    33352321 working-precision words and  7804 shell-pairs
 PRISM was handed    33352321 working-precision words and  7804 shell-pairs
 IPart= 18 NShTot=        6307 NBatch=         371 AvBLen=        17.0
 IPart=  0 NShTot=        7327 NBatch=         431 AvBLen=        17.0
 IPart= 16 NShTot=        6358 NBatch=         374 AvBLen=        17.0
 IPart=  3 NShTot=        6953 NBatch=         409 AvBLen=        17.0
 IPart= 19 NShTot=        6239 NBatch=         367 AvBLen=        17.0
 IPart=  4 NShTot=        6885 NBatch=         405 AvBLen=        17.0
 IPart=  8 NShTot=        6579 NBatch=         387 AvBLen=        17.0
 IPart= 14 NShTot=        6409 NBatch=         377 AvBLen=        17.0
 IPart= 13 NShTot=        6426 NBatch=         378 AvBLen=        17.0
 IPart= 12 NShTot=        6443 NBatch=         379 AvBLen=        17.0
 IPart=  2 NShTot=        7055 NBatch=         415 AvBLen=        17.0
 IPart= 11 NShTot=        6494 NBatch=         382 AvBLen=        17.0
 IPart= 17 NShTot=        6341 NBatch=         373 AvBLen=        17.0
 IPart=  1 NShTot=        7157 NBatch=         421 AvBLen=        17.0
 IPart=  9 NShTot=        6545 NBatch=         385 AvBLen=        17.0
 IPart=  6 NShTot=        6783 NBatch=         399 AvBLen=        17.0
 IPart=  7 NShTot=        6630 NBatch=         390 AvBLen=        17.0
 IPart=  5 NShTot=        6817 NBatch=         401 AvBLen=        17.0
 IPart= 10 NShTot=        6528 NBatch=         384 AvBLen=        17.0
 IPart= 15 NShTot=        6392 NBatch=         376 AvBLen=        17.0
 PrSmSu:  NxtVal=           1321.
 Polarizability after L701:
                1             2             3 
      1  0.000000D+00
      2  0.000000D+00  0.000000D+00
      3  0.000000D+00  0.000000D+00  0.000000D+00
 Dipole Derivatives after L701:
                 1             2             3             4             5 
      1  -0.239316D+00  0.259149D-01  0.314239D-01 -0.144510D+01 -0.653715D+00
      2   0.330174D+00 -0.892071D-01  0.568190D-02 -0.669813D+00 -0.726762D+00
      3  -0.264817D-01 -0.275656D-01 -0.239901D+00  0.285337D+00  0.100314D+00
                 6             7             8             9            10 
      1   0.120725D+00  0.357801D+00  0.160613D+00 -0.894533D-01 -0.881449D+00
      2   0.361106D-01  0.575282D-02 -0.173371D+00  0.233170D+00  0.296688D-03
      3  -0.366286D+00  0.232681D+00  0.207179D+00 -0.315018D+00 -0.229424D-02
                11            12            13            14            15 
      1   0.297360D+00  0.386096D+00 -0.186299D+01 -0.165239D+00 -0.302729D+00
      2  -0.118301D+01 -0.284330D+00  0.201308D-01 -0.929676D+00  0.320512D-01
      3  -0.138672D+00 -0.105149D+01 -0.222705D+00 -0.186498D-02 -0.101838D+01
                16            17            18            19            20 
      1  -0.787698D+00  0.802414D-02 -0.157672D+00 -0.787822D+00  0.656537D+00
      2   0.275115D-01 -0.678797D+00  0.387108D+00  0.502135D-02 -0.331544D+00
      3  -0.693224D-01  0.342574D+00 -0.137311D+00 -0.117988D+00  0.183565D+00
                21            22            23            24            25 
      1  -0.313053D+00  0.996334D-01 -0.877269D-01  0.119487D+00  0.395590D+00
      2   0.135920D+00  0.656904D-01  0.246239D+00 -0.119743D+00 -0.102383D+00
      3  -0.248491D-01 -0.156747D+00 -0.140595D+00  0.455967D+00 -0.383604D+00
                26            27            28            29            30 
      1   0.150146D+00 -0.454750D+00  0.296054D+00 -0.874580D-02  0.415121D-01
      2   0.558493D-01  0.173685D+00  0.426382D+00  0.174447D+00  0.139642D+00
      3  -0.198158D+00  0.701418D+00  0.494587D+00  0.508109D-01  0.277306D+00
                31            32            33            34            35 
      1   0.281278D+00 -0.440202D+00  0.104135D+00  0.757010D+00  0.416626D+00
      2  -0.320406D+00  0.868607D+00 -0.192259D+00  0.151224D+00  0.186297D+00
      3  -0.801836D-01  0.191235D+00  0.689481D-01 -0.763383D-01 -0.620308D-01
                36            37            38            39            40 
      1  -0.779451D+00  0.201033D+00  0.529095D+00  0.694804D+00  0.585456D+00
      2  -0.177228D+00  0.354388D-01  0.322170D+00  0.289192D+00 -0.173532D+00
      3   0.216776D+00  0.292222D-01  0.369366D+00  0.600745D+00  0.160903D+00
                41            42            43            44            45 
      1  -0.861876D+00  0.263505D+00  0.381085D+00 -0.496292D+00  0.229903D+00
      2   0.447376D+00 -0.108334D+00 -0.269439D+00  0.933829D+00 -0.391793D+00
      3  -0.298955D+00  0.182634D+00  0.100323D+00 -0.322868D+00  0.233810D+00
                46            47            48            49            50 
      1   0.128226D+01 -0.243798D+00  0.227250D+00  0.136718D+01  0.713279D+00
      2  -0.121760D+00  0.181145D+00 -0.687603D-01  0.589712D+00  0.696404D+00
      3   0.788523D-01 -0.564847D-01  0.887597D-01 -0.246242D+00 -0.197851D+00
                51 
      1  -0.121732D+00
      2  -0.901133D-01
      3   0.326869D+00
 Hessian after L701:
                1             2             3             4             5 
      1  0.555297D+01
      2  0.294973D+01  0.118353D+02
      3 -0.184324D+01  0.118255D+01  0.182921D+02
      4  0.116125D+00  0.535331D+00 -0.191610D+00  0.101088D+02
      5  0.556891D+00  0.280315D+00 -0.260660D+00 -0.226075D+01  0.663340D+01
      6 -0.190424D+00 -0.251387D+00 -0.314160D+00  0.668926D+00  0.374378D+01
      7 -0.628576D+01 -0.352113D+01  0.978009D+00  0.239654D+00  0.199966D+00
      8 -0.325974D+01 -0.260160D+01 -0.141884D+01  0.259985D+00 -0.204621D+00
      9  0.919448D+00 -0.138368D+01 -0.863386D+01 -0.213726D+00 -0.921745D-01
     10 -0.181156D+00  0.351787D-01 -0.127224D+00  0.182949D+00 -0.623506D-01
     11  0.280543D-01  0.218250D+00  0.492231D+00 -0.767741D-02 -0.269664D+00
     12 -0.896140D-01  0.373307D+00  0.127352D+00 -0.230638D+00  0.388816D-01
     13  0.262517D+00 -0.184693D+00  0.155746D+00  0.167357D+00  0.863291D-01
     14 -0.241928D+00 -0.168193D+00 -0.615130D-01  0.832837D-01 -0.906755D-01
     15  0.167983D+00 -0.447449D-01 -0.111308D+00 -0.906784D-02 -0.196542D-02
     16  0.237562D+00 -0.132892D+00  0.131751D+01  0.197482D+00  0.238336D+00
     17 -0.451548D+00 -0.986604D+01 -0.829778D-01  0.254289D-03 -0.507929D+00
     18  0.131608D+01 -0.742463D-01 -0.995988D+01 -0.766037D-01  0.352647D+00
     19 -0.259946D-02  0.220290D+00 -0.223963D+00 -0.855779D+01 -0.123194D+01
     20  0.367120D+00  0.270888D+00  0.769336D-01 -0.106972D+01 -0.128201D+01
     21 -0.233887D+00  0.534397D-01  0.324989D+00  0.565022D+00 -0.345807D+01
     22  0.193856D+00  0.176870D+00 -0.129633D+00  0.265424D-01  0.681408D-01
     23  0.121272D+00 -0.277375D+00  0.441343D-01  0.313935D-01 -0.142833D+00
     24 -0.107751D+00  0.720905D-01  0.342544D+00  0.947199D-01  0.282807D-01
     25 -0.336729D-01 -0.749245D-01 -0.512475D-01  0.305418D-01  0.975116D-02
     26 -0.425839D-01  0.420697D-01  0.603759D-01  0.663133D-02 -0.194021D-01
     27 -0.466846D-01  0.107871D+00  0.667420D-02 -0.471773D-01 -0.757703D-02
     28 -0.186006D-01  0.585407D-01  0.347191D-01 -0.668428D-01  0.639467D-02
     29  0.838459D-02  0.218425D-01  0.464394D-01 -0.102477D-01 -0.918533D-01
     30  0.124112D-01  0.530780D-01 -0.541547D-02 -0.781220D-01  0.577420D-02
     31 -0.315508D-01 -0.651633D-01 -0.465493D-02  0.486913D-01 -0.369972D-01
     32 -0.531428D-01  0.159964D+00  0.880410D-02 -0.527051D-01 -0.380430D-02
     33 -0.340479D-02  0.997332D-02 -0.492309D-01 -0.251934D-01  0.807886D-02
     34  0.102324D+00 -0.498784D-01  0.412798D-01  0.181991D-01  0.980335D-02
     35 -0.196822D-01 -0.476291D-01 -0.104171D-01  0.106544D-01 -0.552028D-02
     36 -0.888919D-02 -0.590795D-03 -0.548905D-01 -0.118868D-01 -0.427562D-02
     37  0.659337D-01 -0.379189D-01  0.546261D-01  0.168775D-01  0.138379D-01
     38 -0.227145D-02 -0.606328D-01  0.697994D-02  0.204600D-01 -0.217284D-02
     39  0.102049D+00 -0.256090D-01 -0.188313D-01  0.174006D-01  0.931535D-02
     40  0.436346D-01 -0.105870D+00  0.394492D-01  0.292450D-01 -0.151028D-02
     41 -0.949530D-01  0.596997D-01 -0.425316D-01 -0.134290D-01 -0.962639D-02
     42  0.381816D-01 -0.457459D-01 -0.269781D-01  0.623250D-02 -0.910381D-03
     43 -0.250161D+00  0.120447D+00 -0.574402D-01 -0.385433D-01 -0.126756D-02
     44  0.780178D-01  0.165803D+00 -0.390794D-01  0.121303D-01  0.119802D+00
     45 -0.431238D-01 -0.257750D-01  0.131338D+00 -0.695999D-02 -0.717856D-01
     46  0.198631D+00  0.478286D-01  0.163877D-01  0.173935D+00  0.155456D+00
     47  0.221403D-01 -0.459785D-01  0.672382D-02  0.118718D+00 -0.684276D-01
     48  0.212742D-01  0.839436D-02 -0.420731D-01 -0.652226D-01  0.134246D+00
     49  0.299516D-01  0.282541D-01 -0.870526D-02 -0.269317D+01  0.224991D+01
     50  0.342345D-01  0.133245D-01 -0.914816D-02  0.233569D+01 -0.433498D+01
     51 -0.104012D-01 -0.892072D-02 -0.834525D-02 -0.396093D+00 -0.423582D+00
                6             7             8             9            10 
      6  0.135874D+02
      7 -0.843987D-01  0.185336D+02
      8 -0.528422D-01  0.239573D+01  0.172130D+02
      9 -0.263344D+00 -0.124510D+01  0.278723D+00  0.215256D+02
     10 -0.342439D+00 -0.644127D+01  0.720365D-01  0.887528D-01  0.147666D+02
     11  0.649854D-02  0.165992D+00 -0.399527D+01  0.242940D+01  0.230962D+00
     12 -0.825203D-01  0.159208D+00  0.245639D+01 -0.381299D+01  0.573806D-01
     13 -0.245144D-02 -0.241345D+01  0.432597D+00  0.142923D+01  0.837678D-01
     14 -0.585706D-03  0.430681D+00 -0.639645D+01  0.149157D+00  0.150243D+00
     15 -0.113396D+00  0.138454D+01  0.144824D+00 -0.601993D+01  0.203219D+00
     16 -0.184795D+00  0.325977D+00 -0.331107D+00  0.138361D+00  0.652987D-02
     17  0.334870D+00 -0.231223D+00  0.879367D-01 -0.440984D-01 -0.264031D+00
     18  0.238189D+00  0.133714D+00 -0.713638D-01 -0.111994D-01 -0.993266D-01
     19  0.639001D+00  0.192554D+00 -0.619900D-01 -0.339247D-01  0.241481D+00
     20 -0.346516D+01 -0.432843D-01 -0.118751D+00  0.232848D-01 -0.135767D+00
     21 -0.686243D+01  0.230735D-01  0.669863D-02 -0.116178D+00 -0.114771D+00
     22  0.120547D-01 -0.444641D+01  0.516887D+00 -0.100915D+01  0.237106D+00
     23  0.214485D-02  0.647422D+00 -0.426681D+01 -0.120811D+01  0.500768D-01
     24 -0.134749D+00 -0.124403D+01 -0.121431D+01 -0.291519D+01  0.166834D+00
     25 -0.426641D-01  0.774523D-01  0.107804D-01 -0.747769D-02 -0.338597D+01
     26 -0.694413D-02  0.280303D-01  0.654164D-01 -0.689845D-01  0.310243D+00
     27  0.201250D-01  0.812705D-02 -0.137049D-01 -0.292072D-01 -0.111941D+01
     28 -0.189674D-02  0.547880D-01 -0.492557D-03 -0.455868D-01 -0.195252D+01
     29  0.760439D-02 -0.727421D-01  0.459940D-01 -0.516199D-01  0.517315D+00
     30 -0.390740D-02 -0.105767D+00 -0.231160D-01 -0.283245D-01  0.101904D+01
     31 -0.348225D-01  0.295064D-01  0.467318D-01  0.329156D-01 -0.363983D+01
     32  0.222802D-01  0.780497D-01 -0.428996D-01  0.238670D-02 -0.881853D+00
     33 -0.204053D-01  0.453377D-01 -0.392766D-01  0.802813D-01  0.173107D+00
     34 -0.571966D-02 -0.924079D-02 -0.523724D-01  0.211067D-01 -0.270325D-01
     35 -0.245442D-02 -0.287654D-01  0.535094D-01 -0.315834D-02 -0.135454D-01
     36 -0.554424D-02 -0.313795D-01 -0.165594D-01  0.109515D+00 -0.212893D-01
     37  0.516286D-02  0.139004D-01 -0.944018D-01 -0.567675D-01 -0.120152D-01
     38  0.565093D-02 -0.478739D-01  0.271190D-01  0.480032D-03  0.592431D-01
     39 -0.675163D-02 -0.267755D-01 -0.294189D-01  0.941309D-01  0.778251D-01
     40  0.343546D-02 -0.233198D-01  0.144690D+00 -0.464537D-01  0.303538D-01
     41 -0.189362D-02  0.101926D+00  0.761561D-01  0.273159D-01 -0.244382D-01
     42 -0.115424D-01 -0.558409D-01  0.540867D-01  0.772207D-01  0.610998D-01
     43 -0.107199D-02  0.606254D-01 -0.113177D+00  0.488328D-01  0.875849D-02
     44 -0.750338D-01 -0.133911D+00  0.718906D-01 -0.543860D-01 -0.419039D-01
     45  0.130950D-02  0.643045D-01 -0.615825D-01 -0.270994D-01  0.349093D-02
     46 -0.852285D-01  0.287595D-01  0.488089D-02 -0.855131D-02  0.442419D-01
     47  0.132011D+00 -0.474829D-02 -0.132694D-01  0.232861D-02 -0.228610D-01
     48  0.739752D-01  0.269888D-02  0.152940D-02 -0.137067D-01 -0.550857D-02
     49 -0.352669D+00  0.626224D-01  0.289654D-01 -0.119001D-01  0.380323D-01
     50 -0.398532D+00  0.358914D-01 -0.138650D-02 -0.685998D-02  0.214517D-01
     51 -0.610222D+01 -0.571575D-02 -0.123634D-02 -0.157377D-01 -0.207889D-01
               11            12            13            14            15 
     11  0.140767D+02
     12 -0.195595D+01  0.148111D+02
     13  0.946329D-01  0.130353D+00  0.119140D+02
     14 -0.615804D-01  0.923991D-01 -0.656321D-01  0.153041D+02
     15  0.887697D-01 -0.121565D-01 -0.139337D+01 -0.101439D+00  0.149446D+02
     16 -0.243993D+00 -0.757859D-01  0.192326D+00 -0.121183D+00  0.892003D-01
     17  0.786534D-01  0.913034D-01 -0.891384D-01 -0.104712D+00 -0.207512D-01
     18  0.114361D+00 -0.157616D+00  0.843559D-01 -0.243304D-01 -0.109934D+00
     19 -0.127226D+00 -0.704045D-01  0.150987D+00 -0.952642D-02  0.288954D-01
     20 -0.141310D+00  0.382728D-01  0.766854D-02 -0.882882D-01  0.354021D-02
     21  0.451930D-01 -0.139330D+00  0.275946D-01  0.189599D-02 -0.792570D-01
     22  0.500417D-01  0.119428D+00 -0.154818D+00 -0.446779D-01  0.653382D-01
     23  0.233051D+00 -0.140401D+00 -0.476331D-01  0.845267D-01  0.720077D-02
     24 -0.183256D+00 -0.327282D+00  0.624807D-01 -0.264355D-03  0.936549D-01
     25  0.400081D+00 -0.108610D+01  0.684270D-03  0.453165D-03 -0.479837D-02
     26 -0.391102D+01 -0.542952D+00 -0.141073D-02 -0.120439D-01 -0.166649D-01
     27 -0.707099D+00 -0.237882D+01 -0.411033D-02 -0.293061D-02  0.375467D-02
     28  0.282611D+00  0.750088D+00  0.897491D-01  0.643574D-01  0.101482D+00
     29 -0.441629D+01  0.109755D+00  0.724379D-01 -0.215852D-01  0.488116D-01
     30  0.724435D-01 -0.421401D+01  0.105197D+00  0.443228D-01  0.215618D-01
     31 -0.875158D+00  0.228458D+00 -0.109637D-01  0.206814D-03 -0.260579D-03
     32 -0.182213D+01 -0.626999D+00  0.952045D-04  0.241594D-01  0.103478D-01
     33 -0.488807D+00 -0.389204D+01 -0.238768D-02 -0.198032D-02 -0.149623D-01
     34 -0.309747D-01 -0.182748D-01 -0.299891D+01  0.648308D+00 -0.122989D+01
     35 -0.285366D-02 -0.700320D-02  0.564322D+00 -0.344130D+01 -0.751551D+00
     36 -0.110511D-01  0.131545D-01 -0.102796D+01 -0.717520D+00 -0.256005D+01
     37  0.689193D-01  0.818787D-01 -0.402024D+01  0.231194D+00  0.273546D+00
     38  0.244959D-01  0.999681D-01  0.100551D+00 -0.300290D+01  0.119986D+01
     39  0.108764D+00  0.805786D-01  0.116574D+00  0.125994D+01 -0.239677D+01
     40 -0.656285D-02  0.578035D-01 -0.329295D+01 -0.112218D+01  0.320655D+00
     41 -0.336300D-01 -0.168656D-01 -0.964312D+00 -0.202355D+01 -0.558426D+00
     42 -0.467152D-02  0.157060D-01  0.310082D+00 -0.628522D+00 -0.362868D+01
     43 -0.300964D-01  0.164245D-02  0.190149D-02 -0.725505D-02  0.266140D-02
     44  0.348631D-01 -0.659733D-02 -0.116496D-01  0.483124D-02 -0.508581D-02
     45 -0.412916D-02 -0.145428D-01  0.612574D-02 -0.692613D-02 -0.653115D-02
     46 -0.141070D-01 -0.115882D-02  0.167000D-01 -0.272234D-02  0.194425D-02
     47 -0.627566D-02  0.875559D-03 -0.306312D-02 -0.483928D-02 -0.671454D-03
     48  0.179636D-02 -0.125208D-01  0.387465D-02 -0.101104D-02 -0.596062D-02
     49  0.145014D-01 -0.142638D-01  0.113163D-01  0.637633D-02 -0.207038D-02
     50 -0.602000D-02 -0.438828D-02  0.889956D-02 -0.149203D-02 -0.205041D-02
     51 -0.449389D-02 -0.407714D-02 -0.132737D-02 -0.692466D-03 -0.458495D-02
               16            17            18            19            20 
     16  0.932007D+01
     17 -0.317120D+01  0.183211D+02
     18 -0.478372D+00  0.407393D+01  0.268222D+02
     19 -0.557676D+01  0.505431D+01 -0.122070D+01  0.150331D+02
     20  0.452988D+01 -0.625478D+01 -0.323397D+01 -0.268653D+01  0.120995D+02
     21 -0.108953D+01 -0.322158D+01 -0.130380D+02  0.144552D+00  0.644074D+01
     22 -0.708092D-01  0.605566D-01 -0.405128D-01  0.585469D-01 -0.124167D+00
     23  0.318780D-01  0.108304D-01 -0.109032D-01 -0.142428D+00  0.201627D-01
     24 -0.144615D-01 -0.192394D-01  0.323116D-01  0.666888D-01 -0.568922D-01
     25 -0.856085D-02 -0.594598D-02 -0.106662D-01  0.316114D-01 -0.120999D-01
     26  0.602973D-03 -0.693361D-02  0.298583D-02 -0.129634D-01 -0.983324D-02
     27 -0.121796D-01  0.989568D-02  0.438927D-02 -0.381624D-01  0.774886D-02
     28 -0.273166D-01  0.130130D-01  0.258447D-04 -0.402904D-01  0.497523D-02
     29 -0.258273D-01  0.463970D-01  0.575344D-01 -0.200423D-01 -0.174869D-01
     30 -0.214537D-01  0.595396D-01  0.154014D-01 -0.442277D-01  0.341540D-01
     31  0.792530D-02 -0.339942D-01 -0.238886D-02  0.561307D-02 -0.905291D-02
     32 -0.401918D-01  0.340501D-01  0.376958D-02 -0.181785D-01  0.194298D-02
     33 -0.447669D-02  0.153854D-02 -0.150392D-01 -0.159603D-02  0.195716D-02
     34  0.393149D-01 -0.427151D-02 -0.248617D-02  0.237244D-01  0.442911D-02
     35  0.102633D-03 -0.132875D-01 -0.217511D-03  0.501413D-02 -0.568484D-02
     36 -0.136197D-01  0.246604D-03 -0.116984D-01 -0.110898D-01 -0.302107D-02
     37  0.163143D-01 -0.829010D-03  0.156184D-01  0.152797D-01  0.626270D-02
     38  0.688464D-02 -0.122649D-01  0.417443D-02  0.120433D-01 -0.443225D-02
     39  0.306979D-01  0.110732D-02  0.366624D-02  0.220412D-01  0.723771D-02
     40  0.127066D-01 -0.843577D-02  0.524594D-02  0.164837D-01 -0.283885D-02
     41 -0.167685D-01  0.396725D-03 -0.456003D-02 -0.138328D-01 -0.542859D-02
     42  0.757978D-02 -0.311417D-02 -0.570707D-02  0.662228D-02 -0.512305D-03
     43 -0.425333D+01 -0.826430D+00  0.400590D+00  0.295072D+00 -0.141267D+00
     44 -0.700767D+00 -0.220903D+01 -0.109909D+01 -0.208980D+00 -0.270498D+00
     45  0.339821D+00 -0.109142D+01 -0.400273D+01  0.103703D+00  0.262137D+00
     46 -0.474879D+00 -0.222675D+00  0.345861D-01 -0.187598D+01 -0.679429D+00
     47 -0.191100D+00  0.226451D+00 -0.157579D-01 -0.639817D+00 -0.418751D+01
     48  0.245055D-01 -0.154314D-01  0.240327D+00  0.570660D+00 -0.191286D+00
     49  0.554510D-01  0.181593D+00 -0.591570D-01 -0.110107D-01 -0.161678D-01
     50  0.167353D+00  0.169160D+00 -0.749543D-01 -0.118195D+00 -0.647856D-02
     51 -0.529957D-01 -0.738159D-01 -0.446867D-01  0.619061D-01  0.548434D-01
               21            22            23            24            25 
     21  0.240903D+02
     22  0.161978D-01  0.412220D+01
     23 -0.430099D-01 -0.698324D+00  0.436937D+01
     24 -0.406848D-01  0.112852D+01  0.141978D+01  0.285209D+01
     25 -0.277774D-01 -0.118049D-01  0.122349D-02 -0.655167D-01  0.332818D+01
     26  0.673458D-02 -0.398072D-02 -0.368090D-01  0.806919D-02 -0.196441D+00
     27  0.836680D-02 -0.606665D-01 -0.695827D-02  0.131311D+00  0.115740D+01
     28 -0.102349D-01  0.189921D-01 -0.921777D-02 -0.136023D-01 -0.169799D+00
     29  0.345670D-01 -0.827210D-02  0.175463D-01 -0.284080D-01 -0.107193D+00
     30  0.213922D-01 -0.272859D-01 -0.243364D-01 -0.655019D-01  0.107555D+00
     31 -0.552810D-02  0.704530D-03  0.831323D-03 -0.591876D-02  0.130511D+00
     32  0.613367D-02 -0.769574D-02 -0.345312D-02  0.127868D-01 -0.380654D-01
     33 -0.723800D-02 -0.188986D-02 -0.783637D-04  0.213377D-02  0.156346D-01
     34 -0.281992D-02  0.808040D-01  0.589239D-01 -0.756972D-01  0.116966D-02
     35 -0.610950D-03  0.488222D-01 -0.721315D-02 -0.310311D-01  0.171478D-01
     36 -0.505360D-02 -0.595462D-01 -0.291496D-01  0.435986D-02  0.188152D-01
     37  0.876018D-02 -0.418763D-01 -0.504009D-01 -0.118234D-01 -0.180015D-02
     38  0.420484D-02 -0.436367D-01 -0.173971D-02 -0.103242D-01 -0.163425D-02
     39 -0.710343D-03 -0.148065D-01 -0.797746D-02  0.223223D-01 -0.302331D-02
     40  0.401047D-02 -0.232342D-01  0.792418D-02 -0.289995D-02 -0.284055D-02
     41 -0.200984D-02 -0.671087D-03  0.428165D-02  0.479548D-02  0.855767D-03
     42 -0.555050D-02  0.180598D-02 -0.128654D-03  0.555924D-02  0.200690D-02
     43  0.718869D-01 -0.303663D-02 -0.327953D-03  0.196276D-02  0.216035D-02
     44  0.273168D+00  0.467574D-02  0.220303D-02 -0.545363D-02 -0.600075D-02
     45  0.157574D+00 -0.268300D-02 -0.113722D-02  0.202599D-02  0.115507D-02
     46  0.598480D+00  0.303525D-03 -0.484162D-02  0.764287D-02  0.580577D-02
     47 -0.191130D+00 -0.775512D-03 -0.595545D-03 -0.258429D-02 -0.184065D-02
     48 -0.430567D+01  0.108909D-02 -0.171083D-02  0.152562D-03 -0.605940D-03
     49  0.249734D-01  0.129315D-01  0.222850D-02  0.128499D-01  0.633457D-02
     50  0.436377D-01  0.620581D-02 -0.515078D-02  0.595836D-02  0.385297D-02
     51 -0.257786D-02  0.174117D-02  0.639979D-03 -0.506340D-02 -0.268851D-02
               26            27            28            29            30 
     26  0.390777D+01
     27  0.332808D+00  0.216092D+01
     28 -0.715192D-01  0.107622D+00  0.220028D+01
     29  0.877465D-01  0.348248D-01 -0.486632D+00  0.428362D+01
     30  0.222685D-01  0.965275D-01 -0.846025D+00 -0.309439D+00  0.410271D+01
[...]
   yx        -0.138131D+01     -0.204688D+00     -0.227747D+00
   yy         0.563206D+02      0.834586D+01      0.928602D+01
   zx         0.775560D+01      0.114926D+01      0.127873D+01
   zy         0.413220D+01      0.612329D+00      0.681308D+00
   zz         0.766489D+02      0.113582D+02      0.126377D+02

 ----------------------------------------------------------------------

 Test job not archived.
 1\1\GINC-C0248\Freq\RM062X\CC-pVTZ\C5H10O2\HARMS.N\28-Sep-2019\0\\#P G
 eom=AllCheck Guess=TCheck SCRF=Check Test GenChk RM062X/CC-pVTZ Freq\\
 Gaussian input prepared by ASE\\0,1\O,-0.3722307662,-1.3419943253,1.44
 76380248\O,0.8725192992,1.2504743625,2.4213465405\C,-1.3784048772,-0.5
 45880972,2.0880788001\C,-1.2926091048,-0.700544438,3.5954547067\C,-2.6
 974291472,-1.0440950919,1.5360853416\C,0.9301887488,-1.0037262561,1.57
 73623602\C,1.5184916757,0.110970419,2.0002045149\H,-1.2291282861,0.498
 0345678,1.812729271\H,-1.4489473276,-1.7449118985,3.8689697461\H,-0.32
 17190361,-0.3776489641,3.9652998102\H,-2.0609207729,-0.0950928785,4.07
 65001837\H,-2.827840424,-2.0984359479,1.7815844805\H,-2.7246311865,-0.
 9348147041,0.4533728917\H,-3.5236968551,-0.4803877712,1.9679219519\H,1
 .5785600635,-1.7990110204,1.237694413\H,2.5993592335,0.1388015219,1.99
 40556382\H,1.4929391491,1.801248601,2.9011336882\\Version=EM64L-G16Rev
 A.03\State=1-A\HF=-346.9424039\RMSD=4.383e-09\RMSF=6.590e-07\ZeroPoint
 =0.1472916\Thermal=0.1559755\Dipole=0.4489374,0.4774258,0.4697337\Dipo
 leDeriv=-1.7378892,-0.4016357,0.0616332,0.0886133,-0.4192873,-0.145957
 5,0.0948579,-0.1522878,-0.4236155,-0.3227277,0.3195708,0.1886508,-0.13
 08692,-1.1676775,-0.2690298,0.0560799,-0.2423789,-0.3870253,0.8726646,
 0.0205248,-0.0903854,-0.3202407,0.1875704,0.0613751,-0.2343971,0.02819
 73,0.5111664,-0.0416808,-0.0378316,-0.0741038,0.0410032,0.1075797,0.00
 88197,0.0282579,-0.0022973,-0.1503662,-0.0710306,-0.0370064,-0.0302304
 ,-0.0376647,0.1006137,-0.0203241,-0.0541413,-0.0108566,0.0214147,1.243
 3051,0.4246523,0.0181228,0.3323729,0.1810307,0.0718659,0.1334759,0.120
 0706,-0.0741601,-0.0208576,-0.3694201,-0.1473531,-0.1357995,0.7491045,
 0.3553977,-0.0911912,0.3176062,-0.0719006,-0.0099338,-0.0452016,0.0197
 238,0.0587997,-0.0643977,0.0277803,0.0451162,0.0531115,-0.0319843,0.06
 18548,-0.0232628,0.0144547,-0.0377687,-0.1078846,0.0717014,-0.0040643,
 -0.0009326,0.0314294,-0.0564596,-0.0347369,-0.0906681,-0.0354938,0.046
 6629,-0.0206969,-0.0687507,-0.013405,0.0235885,-0.0375511,0.07318,0.08
 05177,0.0842375,0.0094607,-0.0462838,0.0668339,-0.0100355,0.0271089,0.
 0485642,0.0183536,-0.014733,-0.0576069,-0.101576,0.0296498,-0.0046453,
 0.0616241,0.0440892,0.0511761,-0.0083523,0.001586,-0.0201662,0.0603123
 ,0.0162781,-0.0466653,0.0105068,-0.1242221,-0.0639101,0.0375762,0.0341
 905,0.0785195,0.0089805,-0.0456665,0.0718636,-0.0522331,0.032428,-0.05
 7714,0.0310041,0.0322208,0.0505525,0.0216929,-0.0515236,0.0400361,-0.0
 353632,0.1230363,-0.0805929,0.0238919,0.0210225,-0.010239,0.0191148,-0
 .0536588,0.0107315,-0.0327015,0.1439971,0.2227827,0.0086938,-0.0246491
 ,0.0517502,0.3687,0.0102732,-0.0433979,-0.0386253,0.3050156\Polar=77.5
 221243,7.6623094,66.3589927,0.6048693,5.8836548,58.4786606\Quadrupole=
 3.6186758,-0.7578401,-2.8608357,2.0085806,0.9493579,1.464486\PG=C01 [X
 (C5H10O2)]\NImag=0\\0.56817561,-0.00022572,0.24078864,-0.04463067,0.11
 216902,0.15117353,0.01805661,0.00246478,0.00145303,0.41479425,-0.02319
 750,0.00398810,0.00139542,0.07634339,0.47442465,-0.00706477,0.00477480
 ,-0.00464373,0.14105530,0.25757881,0.19254070,-0.12084439,0.03187862,0
 .02589435,-0.00861686,0.00277636,0.00026070,0.49508235,0.04982083,-0.1
 3297020,-0.04836082,0.00626310,-0.00631848,-0.00077370,0.05183002,0.61
 083051,0.04132846,-0.04704663,-0.09301516,0.00155472,-0.00279659,-0.00
 316889,0.02561673,-0.03688208,0.49683766,-0.01260422,0.00598753,0.0361
 2035,0.00084866,-0.00150732,-0.00121889,-0.07920473,-0.00294198,-0.018
 04656,0.59173934,0.01023707,-0.00102094,-0.02842644,-0.00208238,0.0001
 1450,0.00179710,-0.00213685,-0.08379219,0.02794548,0.00111926,0.581813
 14,0.01100850,-0.00752120,-0.02319737,0.00018759,0.00069327,-0.0011173
 0,-0.01268328,0.01986537,-0.19575871,-0.00011334,0.01421911,0.48427905
 ,-0.04620668,-0.00336240,-0.00392985,0.00068685,-0.00058189,-0.0002031
 9,-0.16704756,-0.04031305,-0.04158826,-0.00216334,-0.00263737,-0.00798
 006,0.51969755,0.02882726,0.00676440,0.00443576,-0.00188581,0.00045353
 ,-0.00025940,-0.05339373,-0.10122234,-0.01743699,0.00292449,0.00161589
 ,0.00133907,-0.03182597,0.57176384,0.02169570,0.00300637,0.00528905,-0
 .00003078,0.00090425,0.00083933,-0.04992395,-0.01560048,-0.09869879,-0
 .03451706,-0.01207763,-0.01788822,-0.03079626,-0.00874792,0.58250455,-
 0.31413199,-0.04832227,-0.00959474,0.00809375,0.04559605,0.01725890,-0
 .04748452,0.00479233,0.00398774,0.00629228,-0.00282730,-0.00007990,-0.
 00130294,0.00160734,0.00114924,0.69592462,-0.07249446,-0.11009350,-0.0
 3575934,-0.01069302,-0.03517607,-0.01789002,0.01946939,0.00599639,0.00
 779231,0.00179152,0.00011633,0.00078933,0.00315489,-0.00270578,-0.0024
 7008,0.07845124,0.76963958,-0.02641912,-0.03659103,-0.05836474,-0.0055
 0744,-0.01392417,0.00296608,0.01355082,0.00924705,-0.00071303,0.004196
 93,-0.00151659,-0.00043519,0.00090494,-0.00118946,-0.00098888,0.014774
 99,0.26456415,0.23204884,-0.05142585,-0.04065707,-0.01643759,-0.154582
 88,0.10761392,0.03383999,0.01098336,-0.01253012,-0.00594770,-0.0014503
 6,0.00158585,0.00088816,-0.00094150,0.00167187,0.00082974,-0.19164657,
 -0.15397165,-0.05673901,0.71211040,0.00548406,0.00083321,-0.00215171,0
 .06423506,-0.24057049,-0.08759864,-0.00572633,0.00886155,0.00279672,0.
 00113497,-0.00193741,-0.00044996,0.00101179,-0.00153777,-0.00035318,-0
 .18028322,-0.41018629,-0.14182908,0.11955961,0.74221485,-0.00016344,-0
 .00405793,0.00864543,0.01200141,-0.07601036,-0.06461797,-0.00076029,0.
 00184812,0.00178522,-0.00019199,-0.00067607,-0.00065618,0.00028868,-0.
 00057070,-0.00024940,-0.06840551,-0.13865595,-0.10719073,0.04560214,0.
 25116464,0.20711511,-0.00941646,0.03554808,0.00052964,-0.00331199,-0.0
 0380272,-0.00209709,-0.05578495,-0.04648034,0.01097437,0.00190780,0.00
 208298,-0.00182744,-0.00490374,-0.02887654,0.00690237,0.00648616,0.002
 59100,-0.00005906,-0.00150027,0.00138102,0.00080816,0.06863724,0.01004
 675,-0.02258582,-0.00317334,-0.00469820,-0.00150329,-0.00129811,-0.036
 13366,-0.28705108,0.06845909,-0.00145121,-0.00163228,0.00217930,-0.003
 50452,-0.00724336,0.00201800,-0.00291238,0.00014465,-0.00038514,0.0023
 6672,-0.00059215,0.00033119,0.03859832,0.31707233,0.00361728,-0.022081
 12,0.00283065,0.00038974,-0.00013884,0.00064808,0.01109144,0.06971411,
 -0.07089412,0.00503486,0.03272753,-0.01071224,-0.00334941,-0.01255864,
 0.00333630,-0.00195328,-0.00046765,0.00045534,-0.00051837,0.00139192,0
 .00015394,-0.01306832,-0.06727842,0.07804496,0.00065334,-0.00047933,-0
 .00010442,-0.00086021,0.00020663,0.00102884,-0.00101203,0.00250304,-0.
 00007553,-0.05345143,-0.03790859,0.00847784,0.00023143,0.00106359,-0.0
 0008398,-0.00079520,-0.00016749,-0.00017488,0.00053138,-0.00085196,-0.
 00040788,0.00061127,-0.00021892,-0.00060381,0.05222097,-0.00079453,0.0
 0176604,-0.00008903,-0.00043041,0.00014349,0.00036015,-0.00007143,-0.0
 0605609,0.00098168,-0.03743644,-0.29323512,0.06192145,0.00003584,0.000
 77357,-0.00067974,0.00000308,-0.00004837,0.00018543,0.00032846,-0.0004
 4956,-0.00023084,0.00016627,0.00146898,0.00064697,0.04141570,0.3176834
 0,-0.00119995,-0.00119857,0.00357068,0.00009476,0.00002147,0.00039262,
 0.00410274,0.03608973,-0.01131173,0.00898608,0.05976772,-0.06142181,0.
 00133396,0.00097110,0.00174021,0.00045311,0.00004009,0.00005175,-0.000
 39319,0.00003311,-0.00001698,-0.00053107,-0.00015612,-0.00662746,-0.00
 886802,-0.06941246,0.06838874,0.00073219,-0.00022904,-0.00034941,-0.00
 140224,-0.00026167,0.00154734,-0.00190317,0.00043085,-0.00007085,-0.26
 705360,-0.07337947,-0.08352562,0.00091607,0.00058639,-0.00054257,-0.00
 024283,-0.00004912,0.00017967,-0.00086989,-0.00120400,0.00126536,0.000
 12858,0.00006419,-0.00041652,-0.00209380,-0.00028532,-0.00012783,0.290
 18226,-0.00043187,-0.00006405,-0.00013158,-0.00011170,-0.00158641,-0.0
 0038633,0.00458829,-0.00016241,0.00033286,-0.07486514,-0.07187266,-0.0
 2747881,0.00005157,0.00032578,0.00066738,0.00043514,-0.00050816,-0.000
 55381,-0.00090685,0.00158327,0.00138277,0.00045332,0.00015601,-0.00037
 782,-0.02762812,-0.00757836,-0.01072743,0.08189807,0.07355133,0.000986
 44,0.00068100,0.00293862,-0.00048427,0.00003565,0.00043369,-0.03276552
 ,-0.01080142,-0.01044768,-0.07966215,-0.02672825,-0.07647650,0.0014359
 7,0.00132110,-0.00690412,-0.00048946,-0.00070126,-0.00058923,0.0018439
 3,0.00005714,-0.00124299,0.00034458,-0.00012359,0.00133815,0.00795931,
 0.00167115,0.00194176,0.08923499,0.02919271,0.08439256,0.00095690,-0.0
 0053122,-0.00060432,0.00005315,-0.00072474,-0.00015744,-0.00051516,-0.
 00150592,-0.00159838,-0.18103749,0.10713893,0.08418429,-0.00025720,-0.
 00001347,-0.00018299,0.00038662,-0.00025233,-0.00014505,0.00017831,0.0
 0065408,0.00017193,0.00019096,-0.00011176,0.00047057,0.00387861,-0.003
 41212,-0.00357095,-0.01863965,0.01677674,0.01319804,0.19452477,-0.0002
 0048,0.00184418,0.00080762,0.00005523,0.00001397,-0.00010284,-0.003159
 31,0.00032861,0.00191736,0.10675892,-0.13052877,-0.06566370,0.00018789
 ,-0.00012381,0.00007633,-0.00037556,-0.00010173,0.00016680,0.00021605,
 0.00003702,0.00000796,-0.00018319,0.00014179,-0.00056044,0.02203566,-0
 .01522747,-0.01414677,-0.00713152,0.00559237,0.00563900,-0.11770379,0.
 13772431,0.00402097,-0.00054022,-0.00944824,-0.00039449,0.00080495,0.0
 0008040,0.02313070,-0.01940912,-0.00852044,0.08213422,-0.06425346,-0.0
 9838035,0.00042946,-0.00031214,0.00124805,-0.00332504,-0.00110919,-0.0
 0058395,0.00071179,-0.00026154,0.00044044,-0.00001500,0.00083654,0.001
 09186,-0.00705493,0.00424631,0.00324614,-0.00745846,0.00752079,0.00483
 688,-0.09147143,0.07203999,0.10613198,0.00336176,0.00056193,-0.0002063
 1,-0.00062946,0.00013328,-0.00009299,-0.00562644,-0.03212689,0.0068542
 9,0.00109480,-0.00002952,0.00182446,-0.04915702,-0.02673874,0.00666733
 ,-0.00030961,0.00011314,-0.00004154,0.00064206,-0.00049478,-0.00016230
 ,-0.00484094,-0.00095220,-0.00232368,0.00020050,0.00056718,-0.00060107
 ,-0.00000803,0.00027689,0.00019914,0.00002011,0.00011885,-0.00007876,0
 .05274765,0.00032867,0.00153939,0.00015234,-0.00025926,-0.00002076,-0.
 00013791,-0.00157813,-0.01442510,0.00264386,0.00077280,0.00064504,0.00
 052818,-0.02908161,-0.29753675,0.05983507,0.00023790,0.00045798,0.0000
 3141,0.00028074,-0.00024674,-0.00008887,-0.00199137,0.00114147,-0.0012
 2256,-0.00014363,0.00033170,-0.00086622,0.00001214,0.00039597,-0.00002
 195,-0.00011244,0.00001518,0.00003106,0.03407632,0.32362743,0.00099253
 ,0.00058664,-0.00010791,-0.00016609,-0.00013748,-0.00010490,-0.0011186
 6,-0.01323286,0.00206619,0.00043717,-0.00136619,0.00104411,0.00666911,
 0.06092003,-0.06257743,0.00015462,-0.00002246,-0.00011893,0.00002382,-
 0.00007325,-0.00002111,-0.00233995,-0.00058027,-0.00021569,-0.00032139
 ,0.00030711,-0.00011057,0.00012047,0.00021285,0.00003590,0.00000469,-0
 .00008048,-0.00008274,-0.00508790,-0.06500464,0.06355602,0.00312187,-0
 .00028421,0.00068515,-0.00019010,0.00029122,0.00022765,-0.00121722,0.0
 0435213,-0.03141786,-0.00560792,-0.00190076,-0.00086745,-0.04674935,0.
 00029545,-0.00199922,-0.00052212,-0.00019225,0.00006277,0.00043070,-0.
 00022874,-0.00011513,0.00126217,0.00023567,0.00079105,-0.00008937,0.00
 004090,0.00019872,-0.00002187,0.00005390,-0.00194069,0.00016560,-0.000
 23530,-0.00001437,-0.00105425,0.00009573,0.00341487,0.04922612,0.00077
 703,-0.00010205,0.00056239,0.00006453,-0.00009693,0.00003135,0.0006290
 3,0.00016797,-0.01307847,-0.00226693,-0.00043410,-0.00033550,0.0000088
 4,-0.05115985,0.03000626,0.00012186,-0.00009110,0.00002931,-0.00008011
 ,0.00008102,0.00001783,0.00079043,0.00019309,-0.00022682,-0.00011405,0
 .00034627,-0.00037099,-0.00022794,0.00062982,-0.00075278,-0.00012975,0
 .00004045,0.00038456,0.00052727,-0.00185399,0.03160612,0.00159236,0.05
 094102,0.00081223,0.00026569,0.00143104,-0.00015197,0.00003481,0.00012
 745,0.00142549,0.00137769,-0.01276261,-0.00308557,-0.00153788,0.000405
 85,-0.00530187,0.02908637,-0.31734493,-0.00016137,0.00000792,0.0003001
 0,0.00021370,-0.00012137,0.00000281,-0.00010506,-0.00035833,0.00062883
 ,0.00013871,-0.00009156,0.00029629,0.00002360,0.00014811,-0.00082974,0
 .00013453,0.00006831,0.00026934,0.00009457,0.00018758,-0.00578538,0.00
 660649,-0.03068593,0.34377936,-0.00869050,-0.00255823,-0.00191691,0.00
 039645,-0.00065138,-0.00027157,-0.01587592,0.01762280,0.01358275,0.000
 87941,0.00062592,0.00083327,-0.20195335,0.10518896,0.07968220,0.000727
 84,0.00147287,0.00039208,-0.00072365,0.00054192,0.00016635,0.00078547,
 -0.00060385,0.00037948,-0.00005055,-0.00006960,-0.00007899,0.00027476,
 -0.00037918,0.00006593,0.00018100,-0.00030917,-0.00080647,0.00370719,-
 0.00246126,-0.00272544,0.00118921,-0.00172809,-0.00060031,0.21965550,-
 0.00319604,0.00024222,-0.00069903,0.00006948,-0.00003988,-0.00000415,-
 0.00747582,0.00483340,0.00533023,0.00015434,0.00000035,0.00000144,0.10
 733690,-0.12074245,-0.05680126,-0.00054136,0.00096922,0.00007402,0.000
 04920,0.00004495,0.00003875,0.00068537,0.00012971,0.00051597,0.0001310
 1,-0.00002309,-0.00008850,-0.00007505,0.00000689,0.00024113,-0.0000952
 0,0.00030622,0.00001456,0.02386188,-0.01410879,-0.01315018,-0.00417727
 ,0.00132814,0.00155527,-0.11651429,0.12713131,-0.00307903,-0.00057956,
 0.00015892,0.00005041,0.00002441,0.00000138,-0.00718188,0.00768143,0.0
 0311418,0.00015373,0.00008388,0.00005027,0.08212428,-0.05717416,-0.090
 22861,-0.00061497,0.00028688,0.00063025,-0.00001125,0.00005893,-0.0000
 1742,0.00054854,0.00000319,0.00031495,0.00000171,0.00012964,-0.0000063
 2,0.00014321,0.00007278,0.00018730,-0.00055615,-0.00017206,-0.00038089
 ,-0.00713475,0.00386141,0.00237768,0.02446401,-0.01716758,-0.01041555,
 -0.08872713,0.06294782,0.09424736,-0.03594210,0.02228575,0.01359527,-0
 .00080890,-0.00288074,-0.00105572,-0.00024877,-0.00344805,-0.00457385,
 -0.00021675,0.00020367,-0.00008300,-0.00095395,0.00109696,0.00091379,-
 0.14456792,0.12525950,0.05311782,0.00934750,-0.00959209,-0.00361816,-0
 .00037673,0.00031226,0.00008527,0.00001690,-0.00005860,0.00005305,0.00
 006945,-0.00003248,0.00014722,0.00001175,-0.00003174,0.00019923,0.0000
 2148,-0.00009290,0.00002668,0.00004387,0.00001670,-0.00004049,-0.00050
 091,-0.00024154,-0.00018218,0.17335666,-0.00648769,0.01035728,0.003879
 77,-0.00478944,0.00022561,-0.00450350,-0.00260256,0.00123930,-0.000213
 24,0.00002446,-0.00000794,-0.00003835,-0.00026338,0.00029634,0.0000881
 6,0.12778097,-0.21712172,-0.07795429,0.01782866,-0.01655570,-0.0066615
 3,-0.00034649,0.00012149,0.00006978,0.00000610,0.00000551,0.00002900,0
 .00003528,-0.00005238,0.00006455,0.00000412,-0.00000745,-0.00000392,0.
 00002192,-0.00002719,0.00001900,0.00001093,0.00000266,-0.00000083,-0.0
 0010554,-0.00006602,-0.00003511,-0.13139014,0.22381537,-0.00199438,0.0
 0338691,0.00377642,-0.00093113,-0.00385226,0.00717011,-0.00014668,-0.0
 0095101,0.00125171,-0.00025448,0.00015270,0.00029739,-0.00003404,-0.00
 007476,0.00002573,0.05405832,-0.07873852,-0.06703880,0.00758007,-0.005
 38085,-0.00196464,0.00021479,-0.00015057,-0.00017668,0.00011902,0.0000
 5246,-0.00002478,-0.00008517,-0.00004332,0.00014047,-0.00001055,-0.000
 02410,0.00003751,-0.00000465,0.00001399,0.00001414,-0.00003705,0.00001
 322,-0.00002100,0.00000698,0.00001163,0.00000456,-0.05798191,0.0841269
 9,0.05952098,0.00234006,-0.00197736,-0.00062260,-0.01115786,0.00647132
 ,0.00354969,0.00050457,0.00030032,-0.00015154,0.00002918,-0.00004758,-
 0.00003302,-0.00001416,-0.00001600,0.00006560,-0.01293967,0.00217086,0
 .00105319,-0.34300823,-0.01671346,-0.00200211,0.00016292,0.00000198,0.
 00012160,-0.00004453,-0.00005203,0.00000907,-0.00001504,0.00012656,-0.
 00011802,0.00000330,0.00000492,0.00001025,-0.00000239,-0.00002030,-0.0
 0001148,0.00000517,-0.00000140,-0.00000863,-0.00002102,0.00001029,-0.0
 0000255,0.00058337,-0.00051764,-0.00031939,0.36291736,-0.00128724,-0.0
 0197777,-0.00484990,0.03423849,-0.00845085,-0.00453722,0.00146482,-0.0
 0112820,-0.00091269,-0.00005234,0.00019653,0.00007283,-0.00024072,0.00
 030007,0.00016179,-0.02717695,0.00106973,0.00142192,-0.01780104,-0.052
 22537,-0.00947763,-0.00025788,0.00017893,-0.00009902,0.00006544,0.0000
 3244,-0.00000184,0.00004721,-0.00012645,0.00003520,-0.00007874,-0.0000
 2187,0.00006333,0.00007608,0.00003311,-0.00000267,0.00005843,-0.000010
 99,0.00003301,-0.00014074,-0.00001063,0.00000225,-0.00077212,-0.001123
 20,0.00184983,0.00990063,0.06065582,0.00010393,-0.00535716,0.00911949,
 0.01223135,-0.00363010,0.00043532,-0.00014996,-0.00042445,-0.00000568,
 -0.00026112,-0.00003017,-0.00004038,-0.00004999,0.00007857,0.00002370,
 -0.01011789,0.00212151,0.00005048,-0.00166413,-0.01003494,-0.03191270,
 0.00009967,-0.00010572,-0.00019198,-0.00001485,0.00002366,-0.00003535,
 0.00007392,-0.00006695,0.00004665,0.00002927,0.00001128,0.00006716,0.0
 0003586,0.00003231,0.00000717,-0.00002047,-0.00001175,-0.00004104,-0.0
 0001388,0.00002515,-0.00005197,-0.00051336,0.00182067,-0.00480125,-0.0
 0103546,0.01488503,0.02590689,0.00186384,-0.00009984,0.00011902,-0.261
 36920,-0.20582422,-0.18660674,-0.00118856,0.00143094,-0.00042853,-0.00
 000160,-0.00004384,-0.00021100,0.00011889,-0.00051205,0.00017082,-0.00
 396790,0.00334589,0.00085288,0.01192549,0.02109206,0.01552279,-0.00003
 747,-0.00103920,0.00025210,0.00005273,0.00005305,0.00013959,-0.0000531
 8,-0.00030513,0.00004456,-0.00010158,-0.00004746,-0.00001767,-0.000167
 41,-0.00006340,-0.00007306,0.00000749,0.00002023,0.00000593,0.00001907
 ,0.00001811,0.00000400,0.00016507,0.00079044,-0.00017974,0.00065699,0.
 00195668,0.00126710,0.25207733,0.00279387,0.00069086,0.00023885,-0.158
 78386,-0.18560070,-0.14705039,-0.00035871,0.00086836,0.00016710,-0.000
 14692,-0.00004036,-0.00012182,0.00002318,-0.00002132,-0.00003333,0.003
 41312,-0.00236114,-0.00177652,-0.02555424,-0.02935439,-0.01836139,-0.0
 0035825,-0.00014047,-0.00005495,0.00008492,0.00006664,0.00001667,-0.00
 023098,-0.00029056,0.00019061,0.00009762,-0.00003301,-0.00005250,0.000
 00739,0.00003204,-0.00000129,-0.00000819,0.00001857,0.00003116,0.00006
 886,-0.00000156,-0.00002415,-0.00063445,-0.00110197,-0.00039234,0.0003
 5890,0.00260869,0.00066307,0.17922775,0.21466031,-0.00001469,0.0001029
 7,-0.00015667,-0.16135212,-0.16100325,-0.13198238,-0.00034277,0.000612
 44,0.00024188,0.00028783,-0.00008084,0.00000757,0.00004650,0.00017218,
 -0.00012654,0.00290522,0.00021228,-0.00047935,-0.00982207,-0.00724796,
 -0.01025282,-0.00037913,-0.00021772,-0.00002490,-0.00001574,-0.0000223
 6,-0.00007319,-0.00001214,0.00023580,0.00019831,0.00010394,0.00001573,
 -0.00005314,0.00005830,0.00002495,0.00002347,-0.00003847,-0.00002123,-
 0.00004082,0.00003165,-0.00001285,0.00001391,-0.00008967,-0.00068714,0
 .00178814,-0.00050460,0.00135578,0.00142350,0.16913795,0.16656122,0.13
 949305\\-0.00000016,0.00000038,-0.00000039,0.00000062,-0.00000078,0.00
 000097,0.00000005,0.00000043,-0.00000009,0.,-0.00000049,-0.00000005,-0
 .00000033,0.00000111,-0.00000025,-0.00000059,-0.00000025,-0.00000040,0
 .00000010,-0.00000065,0.00000026,0.00000039,0.00000051,0.00000055,-0.0
 0000043,-0.00000052,-0.00000066,0.00000010,-0.00000104,0.00000003,0.00
 000026,-0.00000042,0.00000026,-0.00000062,0.00000122,-0.00000079,-0.00
 000024,0.00000180,-0.00000010,0.00000003,0.00000131,0.00000011,-0.0000
 0052,-0.00000027,-0.00000084,0.00000034,-0.00000119,0.00000019,0.00000
 101,-0.00000116,0.00000123\\\@


 At the touch of love, everyone becomves a poet.
                                -- Plato
 Job cpu time:       0 days  3 hours 50 minutes 18.9 seconds.
 Elapsed time:       0 days  1 hours 55 minutes 15.0 seconds.
 File lengths (MBytes):  RWF=   1392 Int=      0 D2E=      0 Chk=     32 Scr=     32
 Normal termination of Gaussian 16 at Sat Sep 28 17:55:03 2019.
