 Entering Gaussian System, Link 0=g16
 Input=verytight/species/CC(C)OC=CO/conformers/CC(C)OC=CO_25.com
 Output=verytight/species/CC(C)OC=CO/conformers/CC(C)OC=CO_25.log
 Initial command:
 /shared/centos7/gaussian/g16/l1.exe "/scratch/harms.n/gauss_scrdir/Gau-44715.inp" -scrdir="/scratch/harms.n/gauss_scrdir/"
 Entering Link 1 = /shared/centos7/gaussian/g16/l1.exe PID=     44716.
  
 Copyright (c) 1988,1990,1992,1993,1995,1998,2003,2009,2016,
            Gaussian, Inc.  All Rights Reserved.
  
 This is part of the Gaussian(R) 16 program.  It is based on
 the Gaussian(R) 09 system (copyright 2009, Gaussian, Inc.),
 the Gaussian(R) 03 system (copyright 2003, Gaussian, Inc.),
 the Gaussian(R) 98 system (copyright 1998, Gaussian, Inc.),
 the Gaussian(R) 94 system (copyright 1995, Gaussian, Inc.),
 the Gaussian 92(TM) system (copyright 1992, Gaussian, Inc.),
 the Gaussian 90(TM) system (copyright 1990, Gaussian, Inc.),
 the Gaussian 88(TM) system (copyright 1988, Gaussian, Inc.),
 the Gaussian 86(TM) system (copyright 1986, Carnegie Mellon
 University), and the Gaussian 82(TM) system (copyright 1983,
 Carnegie Mellon University). Gaussian is a federally registered
 trademark of Gaussian, Inc.
  
 This software contains proprietary and confidential information,
 including trade secrets, belonging to Gaussian, Inc.
  
 This software is provided under written license and may be
 used, copied, transmitted, or stored only in accord with that
 written license.
  
 The following legend is applicable only to US Government
 contracts under FAR:
  
                    RESTRICTED RIGHTS LEGEND
  
 Use, reproduction and disclosure by the US Government is
 subject to restrictions as set forth in subparagraphs (a)
 and (c) of the Commercial Computer Software - Restricted
 Rights clause in FAR 52.227-19.
  
 Gaussian, Inc.
 340 Quinnipiac St., Bldg. 40, Wallingford CT 06492
  
  
 ---------------------------------------------------------------
 Warning -- This program may not be used in any manner that
 competes with the business of Gaussian, Inc. or will provide
 assistance to any competitor of Gaussian, Inc.  The licensee
 of this program is prohibited from giving any competitor of
 Gaussian, Inc. access to this program.  By using this program,
 the user acknowledges that Gaussian, Inc. is engaged in the
 business of creating and licensing software in the field of
 computational chemistry and represents and warrants to the
 licensee that it is not a competitor of Gaussian, Inc. and that
 it will not use this program in any manner prohibited above.
 ---------------------------------------------------------------
  

 Cite this work as:
 Gaussian 16, Revision A.03,
 M. J. Frisch, G. W. Trucks, H. B. Schlegel, G. E. Scuseria, 
 M. A. Robb, J. R. Cheeseman, G. Scalmani, V. Barone, 
 G. A. Petersson, H. Nakatsuji, X. Li, M. Caricato, A. V. Marenich, 
 J. Bloino, B. G. Janesko, R. Gomperts, B. Mennucci, H. P. Hratchian, 
 J. V. Ortiz, A. F. Izmaylov, J. L. Sonnenberg, D. Williams-Young, 
 F. Ding, F. Lipparini, F. Egidi, J. Goings, B. Peng, A. Petrone, 
 T. Henderson, D. Ranasinghe, V. G. Zakrzewski, J. Gao, N. Rega, 
 G. Zheng, W. Liang, M. Hada, M. Ehara, K. Toyota, R. Fukuda, 
 J. Hasegawa, M. Ishida, T. Nakajima, Y. Honda, O. Kitao, H. Nakai, 
 T. Vreven, K. Throssell, J. A. Montgomery, Jr., J. E. Peralta, 
 F. Ogliaro, M. J. Bearpark, J. J. Heyd, E. N. Brothers, K. N. Kudin, 
 V. N. Staroverov, T. A. Keith, R. Kobayashi, J. Normand, 
 K. Raghavachari, A. P. Rendell, J. C. Burant, S. S. Iyengar, 
 J. Tomasi, M. Cossi, J. M. Millam, M. Klene, C. Adamo, R. Cammi, 
 J. W. Ochterski, R. L. Martin, K. Morokuma, O. Farkas, 
 J. B. Foresman, and D. J. Fox, Gaussian, Inc., Wallingford CT, 2016.
 
 ******************************************
 Gaussian 16:  EM64L-G16RevA.03 25-Dec-2016
                28-Sep-2019 
 ******************************************
 %nprocshared=20
 Will use up to   20 processors via shared memory.
 %mem=5GB
 ----------------------------------------------------------------------
 #p m062x/cc-pVTZ opt=(calcfc,maxcycles=900,Tight) freq IOP(7/33=1,2/16
 =3) scf=(maxcycle=900)
 ----------------------------------------------------------------------
 1/6=900,7=10,10=4,18=20,19=15,26=3,38=1/1,3;
 2/9=110,12=2,16=3,17=6,18=5,40=1/2;
 3/5=16,6=1,11=2,25=1,30=1,71=2,74=-55,140=1/1,2,3;
 4//1;
 5/5=2,7=900,38=5/2;
 8/6=4,10=90,11=11/1;
 11/6=1,8=1,9=11,15=111,16=1/1,2,10;
 10/6=1,13=1/2;
 6/7=2,8=2,9=2,10=2,28=1/1;
 7/10=1,18=20,25=1,33=1/1,2,3,16;
 1/6=900,7=10,10=4,18=20,19=15,26=3/3(2);
 2/9=110,16=3/2;
 99//99;
 2/9=110,16=3/2;
 3/5=16,6=1,11=2,25=1,30=1,71=1,74=-55/1,2,3;
 4/5=5,16=3,69=1/1;
 5/5=2,7=900,38=5/2;
 7/33=1/1,2,3,16;
 1/6=900,7=10,18=20,19=15,26=3/3(-5);
 2/9=110,16=3/2;
 6/7=2,8=2,9=2,10=2,19=2,28=1/1;
 99/9=1/99;
 Leave Link    1 at Sat Sep 28 09:32:33 2019, MaxMem=   671088640 cpu:               4.2 elap:               2.1
 (Enter /shared/centos7/gaussian/g16/l101.exe)
 ------------------------------
 Gaussian input prepared by ASE
 ------------------------------
 Symbolic Z-matrix:
 Charge =  0 Multiplicity = 1
 O                     3.67162   0.87974   2.99037 
 O                     1.08866   1.25013   1.85755 
 C                     4.98222   0.44937   3.29197 
 C                     5.00106  -0.67015   4.3328 
 C                     5.80534   1.62452   3.7062 
 C                     2.86042  -0.1534    2.57992 
 C                     1.67269   0.01085   2.07359 
 H                     5.43538   0.02661   2.35268 
 H                     4.62137  -0.31861   5.31487 
 H                     4.36711  -1.51004   3.99491 
 H                     6.04689  -1.0543    4.47876 
 H                     5.41171   2.09148   4.65683 
 H                     5.80709   2.40616   2.91809 
 H                     6.87293   1.31657   3.89317 
 H                     3.26524  -1.16563   2.73884 
 H                     1.06783  -0.83837   1.79181 
 H                     0.18802   1.07881   1.45596 
 
 ITRead=  0  0  0  0  0  0  0  0  0  0  0  0  0  0  0  0  0
 MicOpt= -1 -1 -1 -1 -1 -1 -1 -1 -1 -1 -1 -1 -1 -1 -1 -1 -1
 NAtoms=     17 NQM=       17 NQMF=       0 NMMI=      0 NMMIF=      0
                NMic=       0 NMicF=      0.
                    Isotopes and Nuclear Properties:
 (Nuclear quadrupole moments (NQMom) in fm**2, nuclear magnetic moments (NMagM)
  in nuclear magnetons)

  Atom         1           2           3           4           5           6           7           8           9          10
 IAtWgt=          16          16          12          12          12          12          12           1           1           1
 AtmWgt=  15.9949146  15.9949146  12.0000000  12.0000000  12.0000000  12.0000000  12.0000000   1.0078250   1.0078250   1.0078250
 NucSpn=           0           0           0           0           0           0           0           1           1           1
 AtZEff=  -0.0000000  -0.0000000  -0.0000000  -0.0000000  -0.0000000  -0.0000000  -0.0000000  -0.0000000  -0.0000000  -0.0000000
 NQMom=    0.0000000   0.0000000   0.0000000   0.0000000   0.0000000   0.0000000   0.0000000   0.0000000   0.0000000   0.0000000
 NMagM=    0.0000000   0.0000000   0.0000000   0.0000000   0.0000000   0.0000000   0.0000000   2.7928460   2.7928460   2.7928460
 AtZNuc=   8.0000000   8.0000000   6.0000000   6.0000000   6.0000000   6.0000000   6.0000000   1.0000000   1.0000000   1.0000000

  Atom        11          12          13          14          15          16          17
 IAtWgt=           1           1           1           1           1           1           1
 AtmWgt=   1.0078250   1.0078250   1.0078250   1.0078250   1.0078250   1.0078250   1.0078250
 NucSpn=           1           1           1           1           1           1           1
 AtZEff=  -0.0000000  -0.0000000  -0.0000000  -0.0000000  -0.0000000  -0.0000000  -0.0000000
 NQMom=    0.0000000   0.0000000   0.0000000   0.0000000   0.0000000   0.0000000   0.0000000
 NMagM=    2.7928460   2.7928460   2.7928460   2.7928460   2.7928460   2.7928460   2.7928460
 AtZNuc=   1.0000000   1.0000000   1.0000000   1.0000000   1.0000000   1.0000000   1.0000000
 Leave Link  101 at Sat Sep 28 09:32:35 2019, MaxMem=   671088640 cpu:               2.8 elap:               1.4
 (Enter /shared/centos7/gaussian/g16/l103.exe)

 GradGradGradGradGradGradGradGradGradGradGradGradGradGradGradGradGradGrad
 Berny optimization.
 Initialization pass.
                           ----------------------------
                           !    Initial Parameters    !
                           ! (Angstroms and Degrees)  !
 --------------------------                            --------------------------
 ! Name  Definition              Value          Derivative Info.                !
 --------------------------------------------------------------------------------
 ! R1    R(1,3)                  1.412          calculate D2E/DX2 analytically  !
 ! R2    R(1,6)                  1.3762         calculate D2E/DX2 analytically  !
 ! R3    R(2,7)                  1.3869         calculate D2E/DX2 analytically  !
 ! R4    R(2,17)                 1.0009         calculate D2E/DX2 analytically  !
 ! R5    R(3,4)                  1.5287         calculate D2E/DX2 analytically  !
 ! R6    R(3,5)                  1.4933         calculate D2E/DX2 analytically  !
 ! R7    R(3,8)                  1.1253         calculate D2E/DX2 analytically  !
 ! R8    R(4,9)                  1.1101         calculate D2E/DX2 analytically  !
 ! R9    R(4,10)                 1.1052         calculate D2E/DX2 analytically  !
 ! R10   R(4,11)                 1.1237         calculate D2E/DX2 analytically  !
 ! R11   R(5,12)                 1.1299         calculate D2E/DX2 analytically  !
 ! R12   R(5,13)                 1.11           calculate D2E/DX2 analytically  !
 ! R13   R(5,14)                 1.1267         calculate D2E/DX2 analytically  !
 ! R14   R(6,7)                  1.3016         calculate D2E/DX2 analytically  !
 ! R15   R(6,15)                 1.1017         calculate D2E/DX2 analytically  !
 ! R16   R(7,16)                 1.08           calculate D2E/DX2 analytically  !
 ! A1    A(3,1,6)              112.4576         calculate D2E/DX2 analytically  !
 ! A2    A(7,2,17)             106.7659         calculate D2E/DX2 analytically  !
 ! A3    A(1,3,4)              112.3376         calculate D2E/DX2 analytically  !
 ! A4    A(1,3,5)              109.3292         calculate D2E/DX2 analytically  !
 ! A5    A(1,3,8)              108.0581         calculate D2E/DX2 analytically  !
 ! A6    A(4,3,5)              112.3731         calculate D2E/DX2 analytically  !
 ! A7    A(4,3,8)              106.7508         calculate D2E/DX2 analytically  !
 ! A8    A(5,3,8)              107.7704         calculate D2E/DX2 analytically  !
 ! A9    A(3,4,9)              111.4822         calculate D2E/DX2 analytically  !
 ! A10   A(3,4,10)             109.9562         calculate D2E/DX2 analytically  !
 ! A11   A(3,4,11)             110.5038         calculate D2E/DX2 analytically  !
 ! A12   A(9,4,10)             108.3572         calculate D2E/DX2 analytically  !
 ! A13   A(9,4,11)             108.162          calculate D2E/DX2 analytically  !
 ! A14   A(10,4,11)            108.2872         calculate D2E/DX2 analytically  !
 ! A15   A(3,5,12)             111.5041         calculate D2E/DX2 analytically  !
 ! A16   A(3,5,13)             110.9815         calculate D2E/DX2 analytically  !
 ! A17   A(3,5,14)             110.6835         calculate D2E/DX2 analytically  !
 ! A18   A(12,5,13)            107.8718         calculate D2E/DX2 analytically  !
 ! A19   A(12,5,14)            107.6633         calculate D2E/DX2 analytically  !
 ! A20   A(13,5,14)            107.9863         calculate D2E/DX2 analytically  !
 ! A21   A(1,6,7)              123.9996         calculate D2E/DX2 analytically  !
 ! A22   A(1,6,15)             115.4764         calculate D2E/DX2 analytically  !
 ! A23   A(7,6,15)             120.4897         calculate D2E/DX2 analytically  !
 ! A24   A(2,7,6)              123.8916         calculate D2E/DX2 analytically  !
 ! A25   A(2,7,16)             115.2216         calculate D2E/DX2 analytically  !
 ! A26   A(6,7,16)             120.8866         calculate D2E/DX2 analytically  !
 ! D1    D(6,1,3,4)            -55.4622         calculate D2E/DX2 analytically  !
 ! D2    D(6,1,3,5)            179.0713         calculate D2E/DX2 analytically  !
 ! D3    D(6,1,3,8)             62.0349         calculate D2E/DX2 analytically  !
 ! D4    D(3,1,6,7)           -170.1756         calculate D2E/DX2 analytically  !
 ! D5    D(3,1,6,15)            11.9511         calculate D2E/DX2 analytically  !
 ! D6    D(17,2,7,6)           179.4934         calculate D2E/DX2 analytically  !
 ! D7    D(17,2,7,16)           -0.647          calculate D2E/DX2 analytically  !
 ! D8    D(1,3,4,9)            -64.9655         calculate D2E/DX2 analytically  !
 ! D9    D(1,3,4,10)            55.2315         calculate D2E/DX2 analytically  !
 ! D10   D(1,3,4,11)           174.7162         calculate D2E/DX2 analytically  !
 ! D11   D(5,3,4,9)             58.8219         calculate D2E/DX2 analytically  !
 ! D12   D(5,3,4,10)           179.0188         calculate D2E/DX2 analytically  !
 ! D13   D(5,3,4,11)           -61.4965         calculate D2E/DX2 analytically  !
 ! D14   D(8,3,4,9)            176.763          calculate D2E/DX2 analytically  !
 ! D15   D(8,3,4,10)           -63.0401         calculate D2E/DX2 analytically  !
 ! D16   D(8,3,4,11)            56.4446         calculate D2E/DX2 analytically  !
 ! D17   D(1,3,5,12)            63.5588         calculate D2E/DX2 analytically  !
 ! D18   D(1,3,5,13)           -56.7304         calculate D2E/DX2 analytically  !
 ! D19   D(1,3,5,14)          -176.6171         calculate D2E/DX2 analytically  !
 ! D20   D(4,3,5,12)           -61.8873         calculate D2E/DX2 analytically  !
 ! D21   D(4,3,5,13)           177.8235         calculate D2E/DX2 analytically  !
 ! D22   D(4,3,5,14)            57.9369         calculate D2E/DX2 analytically  !
 ! D23   D(8,3,5,12)          -179.2233         calculate D2E/DX2 analytically  !
 ! D24   D(8,3,5,13)            60.4875         calculate D2E/DX2 analytically  !
 ! D25   D(8,3,5,14)           -59.3992         calculate D2E/DX2 analytically  !
 ! D26   D(1,6,7,2)              1.4785         calculate D2E/DX2 analytically  !
 ! D27   D(1,6,7,16)          -178.3735         calculate D2E/DX2 analytically  !
 ! D28   D(15,6,7,2)           179.2504         calculate D2E/DX2 analytically  !
 ! D29   D(15,6,7,16)           -0.6016         calculate D2E/DX2 analytically  !
 --------------------------------------------------------------------------------
 Trust Radius=3.00D-01 FncErr=1.00D-07 GrdErr=1.00D-06 EigMax=2.50D+02 EigMin=1.00D-04
 Number of steps in this run=    102 maximum allowed number of steps=    102.
 GradGradGradGradGradGradGradGradGradGradGradGradGradGradGradGradGradGrad

 Leave Link  103 at Sat Sep 28 09:32:36 2019, MaxMem=   671088640 cpu:               2.3 elap:               1.2
 (Enter /shared/centos7/gaussian/g16/l202.exe)
                          Input orientation:                          
 ---------------------------------------------------------------------
 Center     Atomic      Atomic             Coordinates (Angstroms)
 Number     Number       Type             X           Y           Z
 ---------------------------------------------------------------------
      1          8           0        3.671615    0.879744    2.990367
      2          8           0        1.088661    1.250133    1.857550
      3          6           0        4.982224    0.449374    3.291970
      4          6           0        5.001065   -0.670149    4.332799
      5          6           0        5.805336    1.624522    3.706196
      6          6           0        2.860418   -0.153402    2.579924
      7          6           0        1.672691    0.010849    2.073586
      8          1           0        5.435379    0.026610    2.352679
      9          1           0        4.621370   -0.318605    5.314869
     10          1           0        4.367111   -1.510042    3.994910
     11          1           0        6.046892   -1.054299    4.478759
     12          1           0        5.411710    2.091480    4.656826
     13          1           0        5.807086    2.406162    2.918090
     14          1           0        6.872934    1.316568    3.893170
     15          1           0        3.265245   -1.165626    2.738842
     16          1           0        1.067828   -0.838367    1.791811
     17          1           0        0.188020    1.078806    1.455959
 ---------------------------------------------------------------------
                    Distance matrix (angstroms):
                    1          2          3          4          5
     1  O    0.000000
     2  O    2.844664   0.000000
     3  C    1.412047   4.225945   0.000000
     4  C    2.443712   5.012110   1.528729   0.000000
     5  C    2.370626   5.079831   1.493342   2.510976   0.000000
     6  C    1.376189   2.372943   2.317846   2.814599   3.619675
     7  C    2.364564   1.386935   3.553839   4.079936   4.727379
     8  H    2.060424   4.542699   1.125320   2.143590   2.126546
     9  H    2.782334   5.185945   2.193656   1.110050   2.786637
    10  H    2.684008   4.789062   2.170668   1.105209   3.460829
    11  H    3.405550   6.063432   2.191579   1.123668   2.798443
    12  H    2.696909   5.218483   2.178026   2.810732   1.129905
    13  H    2.625911   4.972392   2.156201   3.480626   1.109989
    14  H    3.354745   6.132372   2.165238   2.764818   1.126748
    15  H    2.100462   3.368989   2.421197   2.408167   3.895223
    16  H    3.341878   2.089638   4.385344   4.685645   5.672272
    17  H    3.811754   1.000891   5.172186   5.873708   6.075822
                    6          7          8          9         10
     6  C    0.000000
     7  C    1.301558   0.000000
     8  H    2.591230   3.773058   0.000000
     9  H    3.257018   4.394219   3.091335   0.000000
    10  H    2.472404   3.642046   2.489863   1.796235   0.000000
    11  H    3.817173   5.104218   2.462221   1.808988   1.806509
    12  H    3.982726   4.998241   3.094081   2.620337   3.807923
    13  H    3.917726   4.852209   2.473888   3.817699   4.309260
    14  H    4.470539   5.662007   2.470561   3.124830   3.778786
    15  H    1.101697   2.088752   2.505999   3.031903   1.706001
    16  H    2.074530   1.080011   4.487567   5.030879   4.023687
    17  H    3.150134   1.930348   5.426417   6.041402   5.532920
                   11         12         13         14         15
    11  H    0.000000
    12  H    3.214201   0.000000
    13  H    3.803680   1.810676   0.000000
    14  H    2.578036   1.821766   1.809427   0.000000
    15  H    3.282875   4.346805   4.387568   4.528707   0.000000
    16  H    5.661925   5.971735   5.852865   6.539014   2.415078
    17  H    6.929202   6.209508   5.955972   7.119312   4.019026
                   16         17
    16  H    0.000000
    17  H    2.135980   0.000000
 Stoichiometry    C5H10O2
 Framework group  C1[X(C5H10O2)]
 Deg. of freedom    45
 Full point group                 C1      NOp   1
 Largest Abelian subgroup         C1      NOp   1
 Largest concise Abelian subgroup C1      NOp   1
                         Standard orientation:                         
 ---------------------------------------------------------------------
 Center     Atomic      Atomic             Coordinates (Angstroms)
 Number     Number       Type             X           Y           Z
 ---------------------------------------------------------------------
      1          8           0       -0.032037   -0.399919    0.067286
      2          8           0        2.789435   -0.724918    0.227870
      3          6           0       -1.348593   -0.059680   -0.313234
      4          6           0       -1.815658    1.251456    0.319052
      5          6           0       -2.263066   -1.198431   -0.001699
      6          6           0        0.870852    0.600663   -0.211140
      7          6           0        2.162013    0.460286   -0.125994
      8          1           0       -1.360519    0.095389   -1.427756
      9          1           0       -1.888821    1.166785    1.423447
     10          1           0       -1.102931    2.061169    0.078490
     11          1           0       -2.826090    1.541736   -0.077677
     12          1           0       -2.309571   -1.400371    1.109041
     13          1           0       -1.924271   -2.128909   -0.503200
     14          1           0       -3.310242   -0.975442   -0.352781
     15          1           0        0.431169    1.572760   -0.485810
     16          1           0        2.824452    1.288137   -0.331567
     17          1           0        3.774349   -0.548318    0.204656
 ---------------------------------------------------------------------
 Rotational constants (GHZ):           6.0189532           1.3313509           1.1400844
 Leave Link  202 at Sat Sep 28 09:32:38 2019, MaxMem=   671088640 cpu:               4.0 elap:               2.0
 (Enter /shared/centos7/gaussian/g16/l301.exe)
 Standard basis: CC-pVTZ (5D, 7F)
 Ernie: Thresh=  0.10000D-02 Tol=  0.10000D-05 Strict=F.
 Ernie:  21 primitive shells out of 262 were deleted.
 There are   395 symmetry adapted cartesian basis functions of A   symmetry.
 There are   350 symmetry adapted basis functions of A   symmetry.
   350 basis functions,   534 primitive gaussians,   395 cartesian basis functions
    28 alpha electrons       28 beta electrons
       nuclear repulsion energy       311.1126657375 Hartrees.
 IExCor= 4336 DFT=T Ex+Corr=M062X ExCW=0 ScaHFX=  0.540000
 ScaDFX=  1.000000  1.000000  1.000000  1.000000 ScalE2=  1.000000  1.000000
 IRadAn=      5 IRanWt=     -1 IRanGd=            0 ICorTp=0 IEmpDi=  4
 NAtoms=   17 NActive=   17 NUniq=   17 SFac= 1.00D+00 NAtFMM=   60 NAOKFM=F Big=F
 Integral buffers will be    131072 words long.
 Raffenetti 2 integral format.
 Two-electron integral symmetry is turned on.
 Leave Link  301 at Sat Sep 28 09:32:39 2019, MaxMem=   671088640 cpu:               1.7 elap:               0.9
 (Enter /shared/centos7/gaussian/g16/l302.exe)
 NPDir=0 NMtPBC=     1 NCelOv=     1 NCel=       1 NClECP=     1 NCelD=      1
         NCelK=      1 NCelE2=     1 NClLst=     1 CellRange=     0.0.
 One-electron integrals computed using PRISM.
 One-electron integral symmetry used in STVInt
 NBasis=   350 RedAO= T EigKep=  1.96D-04  NBF=   350
 NBsUse=   350 1.00D-06 EigRej= -1.00D+00 NBFU=   350
 Precomputing XC quadrature grid using
 IXCGrd= 4 IRadAn=           5 IRanWt=          -1 IRanGd=           0 AccXCQ= 0.00D+00.
 Generated NRdTot=       0 NPtTot=           0 NUsed=           0 NTot=          32
 NSgBfM=   395   395   395   395   395 MxSgAt=    17 MxSgA2=    17.
 Leave Link  302 at Sat Sep 28 09:33:42 2019, MaxMem=   671088640 cpu:             126.2 elap:              63.1
 (Enter /shared/centos7/gaussian/g16/l303.exe)
 DipDrv:  MaxL=1.
 Leave Link  303 at Sat Sep 28 09:33:48 2019, MaxMem=   671088640 cpu:              12.0 elap:               6.0
 (Enter /shared/centos7/gaussian/g16/l401.exe)
 ExpMin= 1.03D-01 ExpMax= 1.53D+04 ExpMxC= 5.22D+02 IAcc=3 IRadAn=         5 AccDes= 0.00D+00
 Harris functional with IExCor= 1009 and IRadAn=       5 diagonalized for initial guess.
 HarFok:  IExCor= 1009 AccDes= 0.00D+00 IRadAn=         5 IDoV= 1 UseB2=F ITyADJ=14
 ICtDFT=  3500011 ScaDFX=  1.000000  1.000000  1.000000  1.000000
 FoFCou: FMM=F IPFlag=           0 FMFlag=      100000 FMFlg1=           0
         NFxFlg=           0 DoJE=T BraDBF=F KetDBF=T FulRan=T
         wScrn=  0.000000 ICntrl=       500 IOpCl=  0 I1Cent=   200000004 NGrid=           0
         NMat0=    1 NMatS0=      1 NMatT0=    0 NMatD0=    1 NMtDS0=    0 NMtDT0=    0
 Petite list used in FoFCou.
 Harris En= -346.812166153080    
 JPrj=0 DoOrth=F DoCkMO=F.
 Leave Link  401 at Sat Sep 28 09:34:36 2019, MaxMem=   671088640 cpu:              94.6 elap:              47.5
 (Enter /shared/centos7/gaussian/g16/l502.exe)
 Integral symmetry usage will be decided dynamically.
 Closed shell SCF:
 Using DIIS extrapolation, IDIIS=  1040.
 NGot=   671088640 LenX=   670765141 LenY=   670608675
 Requested convergence on RMS density matrix=1.00D-08 within 900 cycles.
 Requested convergence on MAX density matrix=1.00D-06.
 Requested convergence on             energy=1.00D-06.
 No special actions if energy rises.
 Fock matrices will be formed incrementally for  20 cycles.
 Integral accuracy reduced to 1.0D-05 until final iterations.

 Cycle   1  Pass 0  IDiag  1:
 FoFJK:  IHMeth= 1 ICntrl=       0 DoSepK=F KAlg= 0 I1Cent=           0 FoldK=F
 IRaf= 930000000 NMat=       1 IRICut=       1 DoRegI=T DoRafI=F ISym2E= 0 IDoP0=0 IntGTp=1.
 FoFCou: FMM=F IPFlag=           0 FMFlag=      100000 FMFlg1=           0
         NFxFlg=           0 DoJE=F BraDBF=F KetDBF=F FulRan=T
         wScrn=  0.000000 ICntrl=         0 IOpCl=  0 I1Cent=           0 NGrid=           0
         NMat0=    1 NMatS0=      1 NMatT0=    0 NMatD0=    1 NMtDS0=    0 NMtDT0=    0
 Symmetry not used in FoFCou.
 E= -346.695388220287    
 DIIS: error= 2.15D-02 at cycle   1 NSaved=   1.
 NSaved= 1 IEnMin= 1 EnMin= -346.695388220287     IErMin= 1 ErrMin= 2.15D-02
 ErrMax= 2.15D-02  0.00D+00 EMaxC= 1.00D-01 BMatC= 2.88D-01 BMatP= 2.88D-01
 IDIUse=3 WtCom= 7.85D-01 WtEn= 2.15D-01
 Coeff-Com:  0.100D+01
 Coeff-En:   0.100D+01
 Coeff:      0.100D+01
 Gap=     0.346 Goal=   None    Shift=    0.000
 GapD=    0.346 DampG=1.000 DampE=0.500 DampFc=0.5000 IDamp=-1.
 Damping current iteration by 5.00D-01
 RMSDP=2.44D-03 MaxDP=1.56D-01              OVMax= 1.42D-01

 Cycle   2  Pass 0  IDiag  1:
 RMSU=  1.22D-03    CP:  1.00D+00
 E= -346.815279765957     Delta-E=       -0.119891545670 Rises=F Damp=T
 DIIS: error= 4.09D-03 at cycle   2 NSaved=   2.
 NSaved= 2 IEnMin= 2 EnMin= -346.815279765957     IErMin= 2 ErrMin= 4.09D-03
 ErrMax= 4.09D-03  0.00D+00 EMaxC= 1.00D-01 BMatC= 2.11D-02 BMatP= 2.88D-01
 IDIUse=3 WtCom= 9.59D-01 WtEn= 4.09D-02
 Coeff-Com: -0.121D+00 0.112D+01
 Coeff-En:   0.000D+00 0.100D+01
 Coeff:     -0.116D+00 0.112D+01
 Gap=     0.318 Goal=   None    Shift=    0.000
 RMSDP=4.76D-04 MaxDP=2.44D-02 DE=-1.20D-01 OVMax= 6.95D-02

 Cycle   3  Pass 0  IDiag  1:
 RMSU=  4.50D-04    CP:  1.00D+00  8.75D-01
 E= -346.924157056115     Delta-E=       -0.108877290157 Rises=F Damp=F
 DIIS: error= 2.52D-03 at cycle   3 NSaved=   3.
 NSaved= 3 IEnMin= 3 EnMin= -346.924157056115     IErMin= 3 ErrMin= 2.52D-03
 ErrMax= 2.52D-03  0.00D+00 EMaxC= 1.00D-01 BMatC= 4.21D-03 BMatP= 2.11D-02
 IDIUse=3 WtCom= 9.75D-01 WtEn= 2.52D-02
 Coeff-Com: -0.830D-01 0.327D+00 0.756D+00
 Coeff-En:   0.000D+00 0.000D+00 0.100D+01
 Coeff:     -0.809D-01 0.318D+00 0.763D+00
 Gap=     0.317 Goal=   None    Shift=    0.000
 RMSDP=2.16D-04 MaxDP=1.50D-02 DE=-1.09D-01 OVMax= 1.26D-02

 Cycle   4  Pass 0  IDiag  1:
 RMSU=  1.37D-04    CP:  1.00D+00  1.00D+00  8.53D-01
 E= -346.926291534248     Delta-E=       -0.002134478134 Rises=F Damp=F
 DIIS: error= 1.64D-03 at cycle   4 NSaved=   4.
 NSaved= 4 IEnMin= 4 EnMin= -346.926291534248     IErMin= 4 ErrMin= 1.64D-03
 ErrMax= 1.64D-03  0.00D+00 EMaxC= 1.00D-01 BMatC= 1.26D-03 BMatP= 4.21D-03
 IDIUse=3 WtCom= 9.84D-01 WtEn= 1.64D-02
 Coeff-Com: -0.288D-01 0.757D-01 0.394D+00 0.559D+00
 Coeff-En:   0.000D+00 0.000D+00 0.197D+00 0.803D+00
 Coeff:     -0.283D-01 0.745D-01 0.391D+00 0.563D+00
 Gap=     0.314 Goal=   None    Shift=    0.000
 RMSDP=8.07D-05 MaxDP=5.61D-03 DE=-2.13D-03 OVMax= 4.94D-03

 Cycle   5  Pass 0  IDiag  1:
 RMSU=  2.96D-05    CP:  1.00D+00  9.67D-01  9.17D-01  5.94D-01
 E= -346.927188265422     Delta-E=       -0.000896731174 Rises=F Damp=F
 DIIS: error= 2.37D-04 at cycle   5 NSaved=   5.
 NSaved= 5 IEnMin= 5 EnMin= -346.927188265422     IErMin= 5 ErrMin= 2.37D-04
 ErrMax= 2.37D-04  0.00D+00 EMaxC= 1.00D-01 BMatC= 2.34D-05 BMatP= 1.26D-03
 IDIUse=3 WtCom= 9.98D-01 WtEn= 2.37D-03
 Coeff-Com: -0.438D-02 0.773D-02 0.899D-01 0.190D+00 0.717D+00
 Coeff-En:   0.000D+00 0.000D+00 0.000D+00 0.000D+00 0.100D+01
 Coeff:     -0.437D-02 0.771D-02 0.897D-01 0.190D+00 0.717D+00
 Gap=     0.314 Goal=   None    Shift=    0.000
 RMSDP=9.28D-06 MaxDP=2.39D-04 DE=-8.97D-04 OVMax= 7.76D-04

 Initial convergence to 1.0D-05 achieved.  Increase integral accuracy.
 Cycle   6  Pass 1  IDiag  1:
 E= -346.927211881181     Delta-E=       -0.000023615759 Rises=F Damp=F
 DIIS: error= 3.56D-05 at cycle   1 NSaved=   1.
 NSaved= 1 IEnMin= 1 EnMin= -346.927211881181     IErMin= 1 ErrMin= 3.56D-05
 ErrMax= 3.56D-05  0.00D+00 EMaxC= 1.00D-01 BMatC= 1.93D-06 BMatP= 1.93D-06
 IDIUse=1 WtCom= 1.00D+00 WtEn= 0.00D+00
 Coeff-Com:  0.100D+01
 Coeff:      0.100D+01
 Gap=     0.315 Goal=   None    Shift=    0.000
 RMSDP=9.28D-06 MaxDP=2.39D-04 DE=-2.36D-05 OVMax= 3.55D-04

 Cycle   7  Pass 1  IDiag  1:
 RMSU=  8.57D-06    CP:  1.00D+00
 E= -346.927212229481     Delta-E=       -0.000000348300 Rises=F Damp=F
 DIIS: error= 4.21D-05 at cycle   2 NSaved=   2.
 NSaved= 2 IEnMin= 2 EnMin= -346.927212229481     IErMin= 1 ErrMin= 3.56D-05
 ErrMax= 4.21D-05  0.00D+00 EMaxC= 1.00D-01 BMatC= 1.62D-06 BMatP= 1.93D-06
 IDIUse=1 WtCom= 1.00D+00 WtEn= 0.00D+00
 Coeff-Com:  0.476D+00 0.524D+00
 Coeff:      0.476D+00 0.524D+00
 Gap=     0.314 Goal=   None    Shift=    0.000
 RMSDP=2.16D-06 MaxDP=9.11D-05 DE=-3.48D-07 OVMax= 1.83D-04

 Cycle   8  Pass 1  IDiag  1:
 RMSU=  2.05D-06    CP:  1.00D+00  9.21D-01
 E= -346.927213435129     Delta-E=       -0.000001205647 Rises=F Damp=F
 DIIS: error= 6.59D-06 at cycle   3 NSaved=   3.
 NSaved= 3 IEnMin= 3 EnMin= -346.927213435129     IErMin= 3 ErrMin= 6.59D-06
 ErrMax= 6.59D-06  0.00D+00 EMaxC= 1.00D-01 BMatC= 3.69D-08 BMatP= 1.62D-06
 IDIUse=1 WtCom= 1.00D+00 WtEn= 0.00D+00
 Coeff-Com:  0.130D-02 0.115D+00 0.884D+00
 Coeff:      0.130D-02 0.115D+00 0.884D+00
 Gap=     0.314 Goal=   None    Shift=    0.000
 RMSDP=5.83D-07 MaxDP=2.42D-05 DE=-1.21D-06 OVMax= 5.45D-05

 Cycle   9  Pass 1  IDiag  1:
 RMSU=  4.96D-07    CP:  1.00D+00  9.56D-01  9.75D-01
 E= -346.927213462060     Delta-E=       -0.000000026931 Rises=F Damp=F
 DIIS: error= 3.04D-06 at cycle   4 NSaved=   4.
 NSaved= 4 IEnMin= 4 EnMin= -346.927213462060     IErMin= 4 ErrMin= 3.04D-06
 ErrMax= 3.04D-06  0.00D+00 EMaxC= 1.00D-01 BMatC= 8.43D-09 BMatP= 3.69D-08
 IDIUse=1 WtCom= 1.00D+00 WtEn= 0.00D+00
 Coeff-Com: -0.251D-01 0.259D-01 0.432D+00 0.568D+00
 Coeff:     -0.251D-01 0.259D-01 0.432D+00 0.568D+00
 Gap=     0.314 Goal=   None    Shift=    0.000
 RMSDP=1.94D-07 MaxDP=6.11D-06 DE=-2.69D-08 OVMax= 2.36D-05

 Cycle  10  Pass 1  IDiag  1:
 RMSU=  1.78D-07    CP:  1.00D+00  9.61D-01  9.91D-01  8.92D-01
 E= -346.927213468711     Delta-E=       -0.000000006651 Rises=F Damp=F
 DIIS: error= 9.35D-07 at cycle   5 NSaved=   5.
 NSaved= 5 IEnMin= 5 EnMin= -346.927213468711     IErMin= 5 ErrMin= 9.35D-07
 ErrMax= 9.35D-07  0.00D+00 EMaxC= 1.00D-01 BMatC= 3.59D-10 BMatP= 8.43D-09
 IDIUse=1 WtCom= 1.00D+00 WtEn= 0.00D+00
 Coeff-Com: -0.732D-02-0.619D-02 0.223D-01 0.151D+00 0.841D+00
 Coeff:     -0.732D-02-0.619D-02 0.223D-01 0.151D+00 0.841D+00
 Gap=     0.314 Goal=   None    Shift=    0.000
 RMSDP=8.14D-08 MaxDP=2.44D-06 DE=-6.65D-09 OVMax= 1.09D-05

 Cycle  11  Pass 1  IDiag  1:
 RMSU=  5.72D-08    CP:  1.00D+00  9.63D-01  9.96D-01  9.97D-01  1.07D+00
 E= -346.927213469120     Delta-E=       -0.000000000409 Rises=F Damp=F
 DIIS: error= 3.58D-07 at cycle   6 NSaved=   6.
 NSaved= 6 IEnMin= 6 EnMin= -346.927213469120     IErMin= 6 ErrMin= 3.58D-07
 ErrMax= 3.58D-07  0.00D+00 EMaxC= 1.00D-01 BMatC= 8.88D-11 BMatP= 3.59D-10
 IDIUse=1 WtCom= 1.00D+00 WtEn= 0.00D+00
 Coeff-Com:  0.350D-03-0.642D-02-0.503D-01-0.179D-01 0.365D+00 0.709D+00
 Coeff:      0.350D-03-0.642D-02-0.503D-01-0.179D-01 0.365D+00 0.709D+00
 Gap=     0.314 Goal=   None    Shift=    0.000
 RMSDP=2.83D-08 MaxDP=1.24D-06 DE=-4.09D-10 OVMax= 4.02D-06

 Cycle  12  Pass 1  IDiag  1:
 RMSU=  1.52D-08    CP:  1.00D+00  9.64D-01  1.00D+00  1.02D+00  1.16D+00
                    CP:  7.98D-01
 E= -346.927213469192     Delta-E=       -0.000000000072 Rises=F Damp=F
 DIIS: error= 1.02D-07 at cycle   7 NSaved=   7.
 NSaved= 7 IEnMin= 7 EnMin= -346.927213469192     IErMin= 7 ErrMin= 1.02D-07
 ErrMax= 1.02D-07  0.00D+00 EMaxC= 1.00D-01 BMatC= 5.63D-12 BMatP= 8.88D-11
 IDIUse=1 WtCom= 1.00D+00 WtEn= 0.00D+00
 Coeff-Com:  0.623D-03-0.248D-02-0.239D-01-0.165D-01 0.112D+00 0.304D+00
 Coeff-Com:  0.626D+00
 Coeff:      0.623D-03-0.248D-02-0.239D-01-0.165D-01 0.112D+00 0.304D+00
 Coeff:      0.626D+00
 Gap=     0.314 Goal=   None    Shift=    0.000
 RMSDP=5.71D-09 MaxDP=2.55D-07 DE=-7.22D-11 OVMax= 1.07D-06

 SCF Done:  E(RM062X) =  -346.927213469     A.U. after   12 cycles
            NFock= 12  Conv=0.57D-08     -V/T= 2.0064
 KE= 3.447297494582D+02 PE=-1.432383676470D+03 EE= 4.296140478049D+02
 Leave Link  502 at Sat Sep 28 09:48:14 2019, MaxMem=   671088640 cpu:            1635.1 elap:             818.0
 (Enter /shared/centos7/gaussian/g16/l801.exe)
 DoSCS=F DFT=T ScalE2(SS,OS)=  1.000000  1.000000
 Range of M.O.s used for correlation:     1   350
 NBasis=   350 NAE=    28 NBE=    28 NFC=     0 NFV=     0
 NROrb=    350 NOA=    28 NOB=    28 NVA=   322 NVB=   322

 **** Warning!!: The largest alpha MO coefficient is  0.11884535D+02

 Leave Link  801 at Sat Sep 28 09:48:15 2019, MaxMem=   671088640 cpu:               1.7 elap:               0.9
 (Enter /shared/centos7/gaussian/g16/l1101.exe)
 Using compressed storage, NAtomX=    17.
 Will process     18 centers per pass.
 Leave Link 1101 at Sat Sep 28 09:48:47 2019, MaxMem=   671088640 cpu:              65.0 elap:              32.5
 (Enter /shared/centos7/gaussian/g16/l1102.exe)
 Symmetrizing basis deriv contribution to polar:
 IMax=3 JMax=2 DiffMx= 0.00D+00
 Leave Link 1102 at Sat Sep 28 09:48:50 2019, MaxMem=   671088640 cpu:               5.5 elap:               2.8
 (Enter /shared/centos7/gaussian/g16/l1110.exe)
 Forming Gx(P) for the SCF density, NAtomX=    17.
 Integral derivatives from FoFJK, PRISM(SPDF).
 Do as many integral derivatives as possible in FoFJK.
 G2DrvN: MDV=     671087280.
 G2DrvN: will do    18 centers at a time, making    1 passes.
 Calling FoFCou, ICntrl=  3107 FMM=F I1Cent=   0 AccDes= 0.00D+00.
 FoFJK:  IHMeth= 1 ICntrl=    3107 DoSepK=F KAlg= 0 I1Cent=           0 FoldK=F
 IRaf=         0 NMat=       1 IRICut=       1 DoRegI=T DoRafI=F ISym2E= 0 IDoP0=0 IntGTp=1.
 FoFCou: FMM=F IPFlag=           0 FMFlag=      100000 FMFlg1=           0
         NFxFlg=           0 DoJE=F BraDBF=F KetDBF=F FulRan=T
         wScrn=  0.000000 ICntrl=      3107 IOpCl=  0 I1Cent=           0 NGrid=           0
         NMat0=    1 NMatS0=      1 NMatT0=    0 NMatD0=    1 NMtDS0=    0 NMtDT0=    0
 Symmetry not used in FoFCou.
 End of G2Drv F.D. properties file   721 does not exist.
 End of G2Drv F.D. properties file   722 does not exist.
 End of G2Drv F.D. properties file   788 does not exist.
 Leave Link 1110 at Sat Sep 28 10:12:02 2019, MaxMem=   671088640 cpu:            2784.7 elap:            1392.6
 (Enter /shared/centos7/gaussian/g16/l1002.exe)
 Minotr:  Closed shell wavefunction.
          IDoAtm=11111111111111111
          Direct CPHF calculation.
          Differentiating once with respect to nuclear coordinates.
          Requested convergence is 1.0D-08 RMS, and 1.0D-07 maximum.
          Secondary convergence is 1.0D-12 RMS, and 1.0D-12 maximum.
          NewPWx=T KeepS1=F KeepF1=F KeepIn=T MapXYZ=F SortEE=F KeepMc=T.
         5137 words used for storage of precomputed grid.
 Two-electron integrals replicated using symmetry.
          MDV=     671088640 using IRadAn=       1.
          Solving linear equations simultaneously, MaxMat=     380.
 FoF2E skips out because all densities are zero.
 CalDSu exits because no D1Ps are significant.
 FoFJK:  IHMeth= 1 ICntrl=       0 DoSepK=F KAlg= 0 I1Cent=           0 FoldK=F
 IRaf= 920000000 NMat=      51 IRICut=     127 DoRegI=T DoRafI=T ISym2E= 2 IDoP0=3 IntGTp=3.
 FoFCou: FMM=F IPFlag=           0 FMFlag=      100000 FMFlg1=           0
         NFxFlg=           0 DoJE=F BraDBF=F KetDBF=F FulRan=T
         wScrn=  0.000000 ICntrl=         0 IOpCl=  0 I1Cent=           0 NGrid=           0
         NMat0=   51 NMatS0=     51 NMatT0=    0 NMatD0=   51 NMtDS0=    0 NMtDT0=    0
 Integrals replicated using symmetry in FoFCou.
 Raff kept on since  87.97% of shell-pairs survive, threshold=   0.20 IRatSp=88.
          There are    54 degrees of freedom in the 1st order CPHF.  IDoFFX=6 NUNeed=     0.
     48 vectors produced by pass  0 Test12= 1.67D-14 1.85D-09 XBig12= 6.80D-02 6.99D-02.
 AX will form    48 AO Fock derivatives at one time.
     48 vectors produced by pass  1 Test12= 1.67D-14 1.85D-09 XBig12= 8.68D-03 2.36D-02.
     48 vectors produced by pass  2 Test12= 1.67D-14 1.85D-09 XBig12= 1.93D-04 2.05D-03.
     48 vectors produced by pass  3 Test12= 1.67D-14 1.85D-09 XBig12= 2.33D-06 1.87D-04.
     48 vectors produced by pass  4 Test12= 1.67D-14 1.85D-09 XBig12= 1.87D-08 1.48D-05.
     48 vectors produced by pass  5 Test12= 1.67D-14 1.85D-09 XBig12= 9.70D-11 9.99D-07.
     24 vectors produced by pass  6 Test12= 1.67D-14 1.85D-09 XBig12= 4.41D-13 6.02D-08.
      5 vectors produced by pass  7 Test12= 1.67D-14 1.85D-09 XBig12= 1.75D-15 4.06D-09.
 InvSVY:  IOpt=1 It=  1 EMax= 3.33D-16
 Solved reduced A of dimension   317 with    54 vectors.
 End of Minotr F.D. properties file   721 does not exist.
 End of Minotr F.D. properties file   722 does not exist.
 End of Minotr F.D. properties file   788 does not exist.
 Leave Link 1002 at Sat Sep 28 10:47:24 2019, MaxMem=   671088640 cpu:            4241.9 elap:            2121.3
 (Enter /shared/centos7/gaussian/g16/l601.exe)
 Copying SCF densities to generalized density rwf, IOpCl= 0 IROHF=0.

 **********************************************************************

            Population analysis using the SCF density.

 **********************************************************************

 Orbital symmetries:
       Occupied  (A) (A) (A) (A) (A) (A) (A) (A) (A) (A) (A) (A)
                 (A) (A) (A) (A) (A) (A) (A) (A) (A) (A) (A) (A)
                 (A) (A) (A) (A)
       Virtual   (A) (A) (A) (A) (A) (A) (A) (A) (A) (A) (A) (A)
                 (A) (A) (A) (A) (A) (A) (A) (A) (A) (A) (A) (A)
                 (A) (A) (A) (A) (A) (A) (A) (A) (A) (A) (A) (A)
                 (A) (A) (A) (A) (A) (A) (A) (A) (A) (A) (A) (A)
                 (A) (A) (A) (A) (A) (A) (A) (A) (A) (A) (A) (A)
                 (A) (A) (A) (A) (A) (A) (A) (A) (A) (A) (A) (A)
                 (A) (A) (A) (A) (A) (A) (A) (A) (A) (A) (A) (A)
                 (A) (A) (A) (A) (A) (A) (A) (A) (A) (A) (A) (A)
                 (A) (A) (A) (A) (A) (A) (A) (A) (A) (A) (A) (A)
                 (A) (A) (A) (A) (A) (A) (A) (A) (A) (A) (A) (A)
                 (A) (A) (A) (A) (A) (A) (A) (A) (A) (A) (A) (A)
                 (A) (A) (A) (A) (A) (A) (A) (A) (A) (A) (A) (A)
                 (A) (A) (A) (A) (A) (A) (A) (A) (A) (A) (A) (A)
                 (A) (A) (A) (A) (A) (A) (A) (A) (A) (A) (A) (A)
                 (A) (A) (A) (A) (A) (A) (A) (A) (A) (A) (A) (A)
                 (A) (A) (A) (A) (A) (A) (A) (A) (A) (A) (A) (A)
                 (A) (A) (A) (A) (A) (A) (A) (A) (A) (A) (A) (A)
                 (A) (A) (A) (A) (A) (A) (A) (A) (A) (A) (A) (A)
                 (A) (A) (A) (A) (A) (A) (A) (A) (A) (A) (A) (A)
                 (A) (A) (A) (A) (A) (A) (A) (A) (A) (A) (A) (A)
                 (A) (A) (A) (A) (A) (A) (A) (A) (A) (A) (A) (A)
                 (A) (A) (A) (A) (A) (A) (A) (A) (A) (A) (A) (A)
                 (A) (A) (A) (A) (A) (A) (A) (A) (A) (A) (A) (A)
                 (A) (A) (A) (A) (A) (A) (A) (A) (A) (A) (A) (A)
                 (A) (A) (A) (A) (A) (A) (A) (A) (A) (A) (A) (A)
                 (A) (A) (A) (A) (A) (A) (A) (A) (A) (A) (A) (A)
                 (A) (A) (A) (A) (A) (A) (A) (A) (A) (A)
 The electronic state is 1-A.
 Alpha  occ. eigenvalues --  -19.64274 -19.63913 -10.59484 -10.57760 -10.57285
 Alpha  occ. eigenvalues --  -10.53494 -10.53286  -1.17992  -1.15279  -0.89284
 Alpha  occ. eigenvalues --   -0.83720  -0.78234  -0.68325  -0.64995  -0.61244
 Alpha  occ. eigenvalues --   -0.56120  -0.55523  -0.53554  -0.47732  -0.45949
 Alpha  occ. eigenvalues --   -0.45685  -0.44672  -0.44311  -0.42760  -0.42541
 Alpha  occ. eigenvalues --   -0.38124  -0.37128  -0.26375
 Alpha virt. eigenvalues --    0.05064   0.07242   0.08392   0.09818   0.11394
 Alpha virt. eigenvalues --    0.11951   0.12951   0.14608   0.15788   0.17140
 Alpha virt. eigenvalues --    0.18009   0.20146   0.22120   0.24315   0.25751
 Alpha virt. eigenvalues --    0.27217   0.28746   0.30120   0.32323   0.33898
 Alpha virt. eigenvalues --    0.34360   0.36792   0.38256   0.38583   0.40298
 Alpha virt. eigenvalues --    0.40856   0.42370   0.43618   0.45288   0.46446
 Alpha virt. eigenvalues --    0.47530   0.48324   0.49225   0.49695   0.50207
 Alpha virt. eigenvalues --    0.51057   0.51554   0.52704   0.53451   0.55530
 Alpha virt. eigenvalues --    0.57208   0.58746   0.60568   0.61706   0.63445
 Alpha virt. eigenvalues --    0.66304   0.66581   0.69442   0.70452   0.71753
 Alpha virt. eigenvalues --    0.73164   0.77375   0.78111   0.78752   0.81431
 Alpha virt. eigenvalues --    0.81860   0.84242   0.85877   0.87760   0.90102
 Alpha virt. eigenvalues --    0.90715   0.94297   0.94564   0.97497   0.98113
 Alpha virt. eigenvalues --    0.99349   1.01557   1.02772   1.04932   1.06293
 Alpha virt. eigenvalues --    1.06604   1.07189   1.10081   1.12607   1.13134
 Alpha virt. eigenvalues --    1.15705   1.16342   1.17661   1.20407   1.20825
 Alpha virt. eigenvalues --    1.22741   1.23685   1.25129   1.27569   1.28186
 Alpha virt. eigenvalues --    1.30006   1.30412   1.32435   1.33496   1.34189
 Alpha virt. eigenvalues --    1.35794   1.37523   1.40589   1.41483   1.42458
 Alpha virt. eigenvalues --    1.43535   1.44510   1.48423   1.50008   1.51935
 Alpha virt. eigenvalues --    1.54121   1.55083   1.56805   1.59325   1.63166
 Alpha virt. eigenvalues --    1.64463   1.68654   1.76193   1.78931   1.82203
 Alpha virt. eigenvalues --    1.86700   1.96207   1.99472   2.02486   2.05845
 Alpha virt. eigenvalues --    2.08771   2.11032   2.13741   2.18194   2.20693
 Alpha virt. eigenvalues --    2.21577   2.28467   2.29917   2.31856   2.33806
 Alpha virt. eigenvalues --    2.35745   2.39158   2.42242   2.43546   2.47152
 Alpha virt. eigenvalues --    2.47954   2.51414   2.53588   2.57522   2.57585
 Alpha virt. eigenvalues --    2.60828   2.61674   2.63320   2.63411   2.66885
 Alpha virt. eigenvalues --    2.70464   2.72514   2.77064   2.78395   2.80976
 Alpha virt. eigenvalues --    2.82092   2.82739   2.83820   2.85625   2.86718
 Alpha virt. eigenvalues --    2.88090   2.90106   2.92243   2.92885   2.93009
 Alpha virt. eigenvalues --    2.96979   2.99050   2.99974   3.00477   3.02998
 Alpha virt. eigenvalues --    3.03253   3.04281   3.05420   3.06475   3.08073
 Alpha virt. eigenvalues --    3.10230   3.10489   3.10890   3.12252   3.13461
 Alpha virt. eigenvalues --    3.14492   3.16053   3.18326   3.21738   3.22649
 Alpha virt. eigenvalues --    3.24146   3.25716   3.26989   3.27655   3.28703
 Alpha virt. eigenvalues --    3.29777   3.30486   3.33681   3.34948   3.35641
 Alpha virt. eigenvalues --    3.36571   3.37932   3.39860   3.40953   3.43070
 Alpha virt. eigenvalues --    3.44487   3.45715   3.46235   3.48764   3.52010
 Alpha virt. eigenvalues --    3.52978   3.54241   3.56540   3.59363   3.61359
 Alpha virt. eigenvalues --    3.62203   3.64875   3.67667   3.69269   3.71061
 Alpha virt. eigenvalues --    3.73159   3.74124   3.77055   3.77654   3.79908
 Alpha virt. eigenvalues --    3.80550   3.82565   3.83030   3.84466   3.87417
 Alpha virt. eigenvalues --    3.89570   3.90303   3.90628   3.92476   3.94231
 Alpha virt. eigenvalues --    3.95597   3.97070   3.98741   4.00775   4.01782
 Alpha virt. eigenvalues --    4.02047   4.03035   4.04122   4.06815   4.07087
 Alpha virt. eigenvalues --    4.09469   4.11932   4.12783   4.15396   4.16965
 Alpha virt. eigenvalues --    4.17925   4.22113   4.25160   4.28250   4.30802
 Alpha virt. eigenvalues --    4.30823   4.32677   4.34353   4.40174   4.40623
 Alpha virt. eigenvalues --    4.45312   4.47703   4.50131   4.52806   4.54992
 Alpha virt. eigenvalues --    4.59775   4.63924   4.64195   4.66101   4.67950
 Alpha virt. eigenvalues --    4.70280   4.72098   4.73376   4.78454   4.79724
 Alpha virt. eigenvalues --    4.82038   4.86397   4.89257   4.92245   4.94652
 Alpha virt. eigenvalues --    4.97343   4.99815   5.01305   5.04399   5.05827
 Alpha virt. eigenvalues --    5.09072   5.10428   5.11809   5.15382   5.20443
 Alpha virt. eigenvalues --    5.21581   5.24115   5.25005   5.27029   5.30521
 Alpha virt. eigenvalues --    5.31221   5.34452   5.43140   5.44377   5.47465
 Alpha virt. eigenvalues --    5.52630   5.58692   5.65595   5.68788   5.73664
 Alpha virt. eigenvalues --    5.76694   5.76893   5.79699   5.84446   5.85722
 Alpha virt. eigenvalues --    5.96418   5.98822   6.05265   6.09285   6.21846
 Alpha virt. eigenvalues --    6.33076   6.49469   6.57243   6.57791   6.71121
 Alpha virt. eigenvalues --    6.73249   6.74859   6.80019   6.84530   6.96145
 Alpha virt. eigenvalues --    7.05052   7.20212   7.28034   7.37559   7.44350
 Alpha virt. eigenvalues --   10.31751  11.24817  11.51719  11.85052  13.25108
 Alpha virt. eigenvalues --   13.30744  14.57510
          Condensed to atoms (all electrons):
               1          2          3          4          5          6
     1  O    7.820266   0.003494   0.319918  -0.049940  -0.047503   0.336823
     2  O    0.003494   7.770845   0.000429  -0.000047  -0.000071  -0.085607
     3  C    0.319918   0.000429   4.853820   0.324113   0.340908  -0.064640
     4  C   -0.049940  -0.000047   0.324113   5.090693  -0.058577  -0.031889
     5  C   -0.047503  -0.000071   0.340908  -0.058577   4.948265   0.005477
     6  C    0.336823  -0.085607  -0.064640  -0.031889   0.005477   5.072131
     7  C   -0.055989   0.365924  -0.000476  -0.001171  -0.000510   0.476587
     8  H   -0.055516  -0.000117   0.394169  -0.087819  -0.032787   0.004695
     9  H    0.003104   0.000011  -0.032245   0.381488  -0.005115   0.000587
    10  H   -0.000620  -0.000051  -0.037942   0.413677   0.008474  -0.008891
    11  H    0.003854   0.000001  -0.025753   0.389387  -0.007945   0.002380
    12  H    0.001710   0.000003  -0.039285  -0.012877   0.400588  -0.000180
    13  H    0.002277   0.000022  -0.034562   0.010465   0.399885  -0.000668
    14  H    0.003732   0.000000  -0.036488  -0.001287   0.388868  -0.000092
    15  H   -0.052985   0.003140  -0.000284  -0.006133  -0.000373   0.402743
    16  H    0.003719  -0.050813  -0.000308   0.000089   0.000004  -0.112950
    17  H   -0.000124   0.326335   0.000013   0.000006   0.000001   0.019827
               7          8          9         10         11         12
     1  O   -0.055989  -0.055516   0.003104  -0.000620   0.003854   0.001710
     2  O    0.365924  -0.000117   0.000011  -0.000051   0.000001   0.000003
     3  C   -0.000476   0.394169  -0.032245  -0.037942  -0.025753  -0.039285
     4  C   -0.001171  -0.087819   0.381488   0.413677   0.389387  -0.012877
     5  C   -0.000510  -0.032787  -0.005115   0.008474  -0.007945   0.400588
     6  C    0.476587   0.004695   0.000587  -0.008891   0.002380  -0.000180
     7  C    4.892283   0.005284  -0.000021   0.000786   0.000088   0.000025
     8  H    0.005284   0.667311   0.010392  -0.012632  -0.000503   0.010035
     9  H   -0.000021   0.010392   0.571571  -0.035739  -0.028305   0.005149
    10  H    0.000786  -0.012632  -0.035739   0.602123  -0.030527  -0.000371
    11  H    0.000088  -0.000503  -0.028305  -0.030527   0.579754   0.000509
    12  H    0.000025   0.010035   0.005149  -0.000371   0.000509   0.582479
    13  H   -0.000200  -0.010806  -0.000344  -0.000382  -0.000249  -0.029814
    14  H   -0.000002  -0.003476   0.000042  -0.000116  -0.000133  -0.032982
    15  H   -0.064596   0.003333   0.001491  -0.013902  -0.000279   0.000108
    16  H    0.465633  -0.000073  -0.000009   0.000066  -0.000007  -0.000000
    17  H   -0.045727   0.000005  -0.000000   0.000009  -0.000000   0.000000
              13         14         15         16         17
     1  O    0.002277   0.003732  -0.052985   0.003719  -0.000124
     2  O    0.000022   0.000000   0.003140  -0.050813   0.326335
     3  C   -0.034562  -0.036488  -0.000284  -0.000308   0.000013
     4  C    0.010465  -0.001287  -0.006133   0.000089   0.000006
     5  C    0.399885   0.388868  -0.000373   0.000004   0.000001
     6  C   -0.000668  -0.000092   0.402743  -0.112950   0.019827
     7  C   -0.000200  -0.000002  -0.064596   0.465633  -0.045727
     8  H   -0.010806  -0.003476   0.003333  -0.000073   0.000005
     9  H   -0.000344   0.000042   0.001491  -0.000009  -0.000000
    10  H   -0.000382  -0.000116  -0.013902   0.000066   0.000009
    11  H   -0.000249  -0.000133  -0.000279  -0.000007  -0.000000
    12  H   -0.029814  -0.032982   0.000108  -0.000000   0.000000
    13  H    0.564456  -0.028047   0.000126   0.000003  -0.000001
    14  H   -0.028047   0.607585   0.000214  -0.000002   0.000000
    15  H    0.000126   0.000214   0.619077  -0.003527  -0.000543
    16  H    0.000003  -0.000002  -0.003527   0.616728  -0.014607
    17  H   -0.000001   0.000000  -0.000543  -0.014607   0.453274
 Mulliken charges:
               1
     1  O   -0.236220
     2  O   -0.333497
     3  C    0.038614
     4  C   -0.360178
     5  C   -0.339588
     6  C   -0.016334
     7  C   -0.037919
     8  H    0.108505
     9  H    0.127944
    10  H    0.116039
    11  H    0.117728
    12  H    0.114905
    13  H    0.127839
    14  H    0.102182
    15  H    0.112390
    16  H    0.096055
    17  H    0.261534
 Sum of Mulliken charges =  -0.00000
 Mulliken charges with hydrogens summed into heavy atoms:
               1
     1  O   -0.236220
     2  O   -0.071963
     3  C    0.147119
     4  C    0.001533
     5  C    0.005338
     6  C    0.096057
     7  C    0.058137
 APT charges:
               1
     1  O   -0.182322
     2  O   -0.924280
     3  C   -0.177568
     4  C   -1.077979
     5  C   -1.207657
     6  C   -0.374500
     7  C   -0.331326
     8  H    0.314921
     9  H    0.329786
    10  H    0.232922
    11  H    0.510419
    12  H    0.330104
    13  H    0.344259
    14  H    0.501086
    15  H    0.298088
    16  H    0.479767
    17  H    0.934278
 Sum of APT charges =  -0.00000
 APT charges with hydrogens summed into heavy atoms:
               1
     1  O   -0.182322
     2  O    0.009998
     3  C    0.137354
     4  C   -0.004851
     5  C   -0.032208
     6  C   -0.076412
     7  C    0.148442
 Electronic spatial extent (au):  <R**2>=           1047.6221
 Charge=             -0.0000 electrons
 Dipole moment (field-independent basis, Debye):
    X=              0.3471    Y=              1.9641    Z=             -0.6973  Tot=              2.1129
 Quadrupole moment (field-independent basis, Debye-Ang):
   XX=            -30.9621   YY=            -44.3020   ZZ=            -45.5382
   XY=              2.8221   XZ=             -0.0584   YZ=             -0.2553
 Traceless Quadrupole moment (field-independent basis, Debye-Ang):
   XX=              9.3053   YY=             -4.0346   ZZ=             -5.2708
   XY=              2.8221   XZ=             -0.0584   YZ=             -0.2553
 Octapole moment (field-independent basis, Debye-Ang**2):
  XXX=             65.8997  YYY=             -2.6446  ZZZ=              3.0373  XYY=              3.3079
  XXY=              1.8138  XXZ=             -0.4635  XZZ=              0.5073  YZZ=             -2.5446
  YYZ=             -1.7439  XYZ=             -0.3645
 Hexadecapole moment (field-independent basis, Debye-Ang**3):
 XXXX=           -753.8542 YYYY=           -268.9952 ZZZZ=            -84.3209 XXXY=            -14.1648
 XXXZ=             15.3304 YYYX=             -0.9524 YYYZ=             -2.4819 ZZZX=              1.6966
 ZZZY=             -0.4281 XXYY=           -219.2302 XXZZ=           -192.0209 YYZZ=            -60.6534
 XXYZ=             -3.4405 YYXZ=              0.1770 ZZXY=             -2.8939
 N-N= 3.111126657375D+02 E-N=-1.432383681640D+03  KE= 3.447297494582D+02
  Exact polarizability:   0.000   0.000   0.000   0.000   0.000   0.000
 Approx polarizability:  97.971  -2.343  74.739   2.378  -2.773  68.739
 No NMR shielding tensors so no spin-rotation constants.
 Leave Link  601 at Sat Sep 28 10:47:55 2019, MaxMem=   671088640 cpu:              63.0 elap:              31.5
 (Enter /shared/centos7/gaussian/g16/l701.exe)
 SCFChk:  SCF convergence  5.71D-09 required  1.00D-08
 ... and contract with generalized density number  0.
 Compute integral second derivatives.
 Entering OneElI...
 Calculate overlap and kinetic energy integrals
    NBasis = 395  MinDer = 2  MaxDer = 2
 Requested accuracy = 0.1000D-12
 PrmmSu-InSpLW:  IPartL=    0 NPrtUS=   20 NPrtUL=    1 DoSpLW=F IThBeg=    0 IThEnd=   19 NThAct=   20.
 PrsmSu:  NPrtUS=  20 ThrOK=T IAlg=1 NPAlg=1 LenDen=           0 ISkipM=0 DoSpLW=F IThBeg=    0 IThEnd=   19.
 Prism:   IPart=     0 DynPar=F LinDyn=F Incr=           4.
 PRISM was handed    33316716 working-precision words and  8349 shell-pairs
 PRISM was handed    33316716 working-precision words and  8349 shell-pairs
 PRISM was handed    33316716 working-precision words and  8349 shell-pairs
 PRISM was handed    33316716 working-precision words and  8349 shell-pairs
 PRISM was handed    33316716 working-precision words and  8349 shell-pairs
 PRISM was handed    33316716 working-precision words and  8349 shell-pairs
 PRISM was handed    33316716 working-precision words and  8349 shell-pairs
 IPart=  0 NShTot=         462 NBatch=          83 AvBLen=         5.6
 IPart=  8 NShTot=         416 NBatch=          52 AvBLen=         8.0
 PRISM was handed    33316716 working-precision words and  8349 shell-pairs
 PRISM was handed    33316716 working-precision words and  8349 shell-pairs
 IPart=  2 NShTot=         449 NBatch=          74 AvBLen=         6.1
 PRISM was handed    33316716 working-precision words and  8349 shell-pairs
 PRISM was handed    33316716 working-precision words and  8349 shell-pairs
 PRISM was handed    33316716 working-precision words and  8349 shell-pairs
 IPart= 13 NShTot=         400 NBatch=          39 AvBLen=        10.3
 PRISM was handed    33316716 working-precision words and  8349 shell-pairs
 IPart= 16 NShTot=         394 NBatch=          36 AvBLen=        10.9
 IPart= 14 NShTot=         399 NBatch=          39 AvBLen=        10.2
 PRISM was handed    33316716 working-precision words and  8349 shell-pairs
 PRISM was handed    33316716 working-precision words and  8349 shell-pairs
 PRISM was handed    33316716 working-precision words and  8349 shell-pairs
 PRISM was handed    33316716 working-precision words and  8349 shell-pairs
 IPart= 12 NShTot=         404 NBatch=          42 AvBLen=         9.6
 PRISM was handed    33316716 working-precision words and  8349 shell-pairs
 PRISM was handed    33316716 working-precision words and  8349 shell-pairs
 IPart=  3 NShTot=         445 NBatch=          70 AvBLen=         6.4
 PRISM was handed    33316716 working-precision words and  8349 shell-pairs
 IPart= 11 NShTot=         409 NBatch=          47 AvBLen=         8.7
 IPart= 15 NShTot=         397 NBatch=          38 AvBLen=        10.4
 IPart= 10 NShTot=         411 NBatch=          49 AvBLen=         8.4
 IPart=  6 NShTot=         428 NBatch=          61 AvBLen=         7.0
 IPart=  1 NShTot=         455 NBatch=          79 AvBLen=         5.8
 IPart= 17 NShTot=         393 NBatch=          36 AvBLen=        10.9
 IPart= 19 NShTot=         389 NBatch=          34 AvBLen=        11.4
 IPart=  4 NShTot=         440 NBatch=          65 AvBLen=         6.8
 IPart=  7 NShTot=         418 NBatch=          53 AvBLen=         7.9
 IPart=  5 NShTot=         436 NBatch=          62 AvBLen=         7.0
 IPart=  9 NShTot=         413 NBatch=          50 AvBLen=         8.3
 IPart= 18 NShTot=         391 NBatch=          36 AvBLen=        10.9
 PrSmSu:  NxtVal=             81.
 Entering OneElI...
 Calculate potential energy integrals
    NBasis = 395  MinDer = 2  MaxDer = 2
 Requested accuracy = 0.1000D-12
 PrmmSu-InSpLW:  IPartL=    0 NPrtUS=   20 NPrtUL=    1 DoSpLW=F IThBeg=    0 IThEnd=   19 NThAct=   20.
 PrsmSu:  NPrtUS=  20 ThrOK=T IAlg=1 NPAlg=1 LenDen=           0 ISkipM=0 DoSpLW=F IThBeg=    0 IThEnd=   19.
 Prism:   IPart=     0 DynPar=F LinDyn=F Incr=          63.
 PRISM was handed    33360709 working-precision words and  7451 shell-pairs
 PRISM was handed    33360709 working-precision words and  7451 shell-pairs
 PRISM was handed    33360709 working-precision words and  7451 shell-pairs
 PRISM was handed    33360709 working-precision words and  7451 shell-pairs
 PRISM was handed    33360709 working-precision words and  7451 shell-pairs
 PRISM was handed    33360709 working-precision words and  7451 shell-pairs
 PRISM was handed    33360709 working-precision words and  7451 shell-pairs
 PRISM was handed    33360709 working-precision words and  7451 shell-pairs
 PRISM was handed    33360709 working-precision words and  7451 shell-pairs
 PRISM was handed    33360709 working-precision words and  7451 shell-pairs
 PRISM was handed    33360709 working-precision words and  7451 shell-pairs
 PRISM was handed    33360709 working-precision words and  7451 shell-pairs
 PRISM was handed    33360709 working-precision words and  7451 shell-pairs
 PRISM was handed    33360709 working-precision words and  7451 shell-pairs
 PRISM was handed    33360709 working-precision words and  7451 shell-pairs
 PRISM was handed    33360709 working-precision words and  7451 shell-pairs
 PRISM was handed    33360709 working-precision words and  7451 shell-pairs
 PRISM was handed    33360709 working-precision words and  7451 shell-pairs
 PRISM was handed    33360709 working-precision words and  7451 shell-pairs
 PRISM was handed    33360709 working-precision words and  7451 shell-pairs
 IPart=  1 NShTot=        6936 NBatch=         408 AvBLen=        17.0
 IPart= 10 NShTot=        6256 NBatch=         368 AvBLen=        17.0
 IPart= 13 NShTot=        6103 NBatch=         359 AvBLen=        17.0
 IPart=  3 NShTot=        6715 NBatch=         395 AvBLen=        17.0
 IPart=  8 NShTot=        6290 NBatch=         370 AvBLen=        17.0
 IPart=  2 NShTot=        6851 NBatch=         403 AvBLen=        17.0
 IPart= 14 NShTot=        6035 NBatch=         355 AvBLen=        17.0
 IPart= 16 NShTot=        6001 NBatch=         353 AvBLen=        17.0
 IPart=  9 NShTot=        6256 NBatch=         368 AvBLen=        17.0
 IPart= 12 NShTot=        6137 NBatch=         361 AvBLen=        17.0
 IPart= 18 NShTot=        5950 NBatch=         350 AvBLen=        17.0
 IPart= 17 NShTot=        5984 NBatch=         352 AvBLen=        17.0
 IPart= 19 NShTot=        5899 NBatch=         347 AvBLen=        17.0
 IPart=  7 NShTot=        6341 NBatch=         373 AvBLen=        17.0
 IPart=  0 NShTot=        7004 NBatch=         412 AvBLen=        17.0
 IPart=  4 NShTot=        6664 NBatch=         392 AvBLen=        17.0
 IPart=  6 NShTot=        6494 NBatch=         382 AvBLen=        17.0
 IPart= 15 NShTot=        6001 NBatch=         353 AvBLen=        17.0
 IPart=  5 NShTot=        6579 NBatch=         387 AvBLen=        17.0
 IPart= 11 NShTot=        6171 NBatch=         363 AvBLen=        17.0
 PrSmSu:  NxtVal=           1261.
 Polarizability after L701:
                1             2             3 
      1  0.000000D+00
      2  0.000000D+00  0.000000D+00
      3  0.000000D+00  0.000000D+00  0.000000D+00
 Dipole Derivatives after L701:
                 1             2             3             4             5 
      1  -0.240635D+00 -0.426909D-01  0.381605D-01 -0.227130D+01 -0.661986D+00
      2  -0.922125D-02 -0.107706D+00 -0.639040D-01  0.224948D+00 -0.138745D+00
      3   0.151185D-01 -0.690736D-01 -0.198626D+00 -0.875589D-01 -0.732485D-01
                 6             7             8             9            10 
      1   0.122143D+00 -0.615292D-01  0.187534D+00 -0.674752D+00 -0.117840D+01
      2  -0.587421D-01  0.148870D+00  0.121610D+00  0.740225D-01  0.151883D+00
      3  -0.362799D+00 -0.881477D-01  0.271232D-01 -0.592784D+00 -0.728967D-02
                11            12            13            14            15 
      1   0.765948D+00  0.410740D+00 -0.147120D+01 -0.846339D+00  0.199857D+00
      2  -0.121052D+01 -0.132612D+00 -0.208081D+00 -0.118790D+01  0.714241D-01
      3   0.535105D-01 -0.845013D+00 -0.417412D-01 -0.485353D-01 -0.963870D+00
                16            17            18            19            20 
      1  -0.690801D+00 -0.166105D+00 -0.183119D+00 -0.877012D-01 -0.412216D+00
      2  -0.194300D+00 -0.469611D+00  0.744239D-01  0.434240D-03 -0.850446D+00
      3   0.299445D-01  0.192286D+00  0.369122D-01 -0.242457D-01  0.258242D+00
                21            22            23            24            25 
      1   0.302421D+00  0.192021D+00 -0.617587D-01  0.440422D+00  0.174217D+00
      2   0.335015D+00 -0.177785D-01  0.155669D+00 -0.180058D-01 -0.408535D-01
      3  -0.558294D-01  0.282788D-01 -0.362182D-01  0.597074D+00 -0.540172D-01
                26            27            28            29            30 
      1   0.145428D-01 -0.673148D+00 -0.121750D+00 -0.262905D+00  0.602494D-01
      2   0.101874D+00  0.394801D+00  0.592972D+00  0.691399D+00 -0.199386D+00
      3  -0.311650D-01  0.713268D+00 -0.200434D-01  0.142253D-01  0.129117D+00
                31            32            33            34            35 
      1   0.112372D+01 -0.329312D+00  0.360220D+00  0.186325D+00  0.181600D+00
      2  -0.523839D+00  0.275061D+00 -0.178031D+00  0.559418D-01  0.213995D+00
      3   0.697731D-01 -0.136674D-01  0.132479D+00 -0.301217D-01 -0.934078D-01
                36            37            38            39            40 
      1  -0.827708D+00 -0.597608D-01  0.599829D+00  0.311249D+00  0.130129D+01
      2  -0.516858D+00 -0.231536D+00  0.860911D+00  0.395168D+00  0.296108D+00
      3   0.589991D+00 -0.737983D-01  0.185573D+00  0.231627D+00  0.159755D+00
                41            42            43            44            45 
      1  -0.196971D+00  0.355359D+00  0.101238D+00  0.140979D+00 -0.970716D-02
      2   0.558098D-01  0.747270D-01 -0.285282D+00  0.702290D+00 -0.113211D+00
      3  -0.362894D-01  0.146164D+00  0.921199D-01 -0.211170D+00  0.907362D-01
                46            47            48            49            50 
      1   0.858116D+00  0.878828D+00 -0.234862D+00  0.224616D+01  0.211024D+00
      2   0.314778D+00  0.508551D+00 -0.129131D+00 -0.275044D+00  0.277757D+00
      3  -0.706412D-01 -0.120683D+00  0.726351D-01  0.102616D+00  0.249775D-02
                51 
      1   0.247362D-02
      2  -0.970088D-02
      3   0.278917D+00
 Hessian after L701:
                1             2             3             4             5 
      1  0.369436D+01
      2 -0.299545D+01  0.134922D+02
      3 -0.361321D+00  0.139124D+01  0.185140D+02
      4  0.907705D+00 -0.163050D+00  0.723960D-01  0.555594D+01
      5 -0.214955D+00 -0.408613D+00 -0.331818D-01  0.356126D+01  0.847124D+01
      6  0.808510D-01 -0.309819D-01 -0.490507D+00 -0.128722D+01  0.191688D+01
      7 -0.644065D+00 -0.157653D+01  0.201783D+01  0.191352D+00 -0.675960D-01
      8 -0.140947D+01 -0.843055D+01 -0.628064D+00 -0.520452D-01 -0.844309D-01
      9  0.193237D+01 -0.614595D+00 -0.892577D+01  0.197383D-01 -0.200530D-02
     10 -0.285896D-01 -0.428594D+00 -0.341253D+00  0.744840D-01 -0.726757D-01
     11 -0.381989D+00  0.385558D+00  0.279409D+00 -0.497393D-01 -0.434444D-01
     12 -0.247088D+00  0.213057D+00 -0.570686D-01  0.553224D-02 -0.402003D-02
     13  0.260122D+00  0.286832D+00 -0.650332D-01  0.961529D-01  0.100866D-01
     14  0.241189D+00 -0.912299D-01  0.262195D-01 -0.136193D-03 -0.601425D-01
     15 -0.525068D-01  0.290959D-01 -0.180136D+00  0.112711D-01 -0.871721D-03
     16 -0.479265D+01  0.496775D+01 -0.109338D+01  0.363667D+00  0.219739D+00
     17  0.486559D+01 -0.478697D+01 -0.132859D+01  0.430218D+00 -0.733798D+00
     18 -0.111641D+01 -0.136507D+01 -0.943425D+01 -0.135312D+00  0.324535D+00
     19  0.134189D+00 -0.737106D-01 -0.779180D-01 -0.673586D+01 -0.391807D+01
     20 -0.143803D+00 -0.276561D+00  0.768591D-01 -0.408286D+01 -0.148256D+01
     21  0.435447D-02  0.114510D+00  0.189146D+00  0.124944D+01 -0.217233D+01
     22 -0.259715D+00  0.215190D+00 -0.178501D+00  0.125714D-01 -0.725273D-02
     23  0.191697D+00  0.137500D+00  0.829990D-01 -0.517301D-02 -0.968766D-02
     24 -0.209897D+00  0.108019D+00  0.466873D+00  0.254119D-01 -0.818962D-02
     25  0.304278D-01 -0.843328D-01 -0.345596D-01  0.121333D-01 -0.102368D-01
     26 -0.733327D-01  0.784331D-02  0.268490D-01 -0.801694D-02 -0.408111D-02
     27 -0.713657D-01  0.686008D-01 -0.230408D-01 -0.154594D-01  0.104492D-01
     28 -0.349170D-01 -0.618765D-02 -0.336166D-01 -0.187405D-02 -0.290618D-02
     29 -0.686730D-01  0.868527D-01  0.685158D-01 -0.219618D-01  0.120387D-01
     30 -0.189964D-01  0.330695D-01 -0.446097D-01  0.374109D-02 -0.490351D-02
     31  0.101922D+00 -0.961633D-01  0.237906D-01  0.122894D-01 -0.108097D-01
     32 -0.873192D-01  0.111477D-01 -0.162734D-01 -0.736177D-02 -0.490953D-03
     33  0.239317D-01 -0.159213D-01 -0.399856D-01  0.261010D-02 -0.200369D-02
     34  0.669313D-01  0.578045D-01 -0.167250D-01  0.158100D-01  0.156270D-02
     35  0.660545D-01 -0.270776D-01 -0.124024D-01  0.549296D-02 -0.774137D-02
     36 -0.734093D-01 -0.337918D-01 -0.371952D-01 -0.162711D-01  0.289107D-04
     37  0.376312D-01  0.561471D-01 -0.332094D-02  0.121491D-01  0.496728D-02
     38  0.116787D+00  0.157420D-01  0.568553D-02  0.195047D-01 -0.460166D-02
     39  0.298925D-01  0.195214D-01 -0.613963D-01  0.104418D-01  0.234366D-02
     40  0.162096D+00  0.487577D-02  0.391319D-01  0.149451D-01 -0.208608D-02
     41  0.152427D-01 -0.476906D-01  0.401380D-02 -0.256172D-03 -0.429232D-02
     42  0.368373D-01  0.214703D-02 -0.369257D-01  0.297387D-02 -0.680217D-03
     43  0.193562D+00 -0.267994D+00  0.701675D-01  0.349016D-01 -0.899663D-01
     44 -0.230532D+00 -0.776305D-01  0.683365D-01 -0.966357D-01  0.675777D-01
     45  0.657978D-01  0.962985D-01  0.212686D+00  0.282443D-01 -0.293426D-01
     46  0.959352D-01  0.971465D-01 -0.183355D-01  0.218327D+00  0.102245D+00
     47  0.108815D+00  0.242834D-01 -0.111456D-01  0.144322D+00 -0.125777D+00
     48 -0.254981D-01 -0.149481D-01 -0.356976D-01 -0.382764D-01  0.930551D-01
     49  0.750579D-01  0.627192D-02  0.646004D-03 -0.784691D+00  0.496693D+00
     50  0.149536D-03 -0.148103D-01 -0.469754D-03  0.326441D+00 -0.558120D+01
     51  0.245732D-02 -0.251762D-03 -0.160777D-01  0.607399D-01 -0.897696D-01
                6             7             8             9            10 
      6  0.143412D+02
      7  0.415177D-01  0.142412D+02
      8 -0.925539D-02  0.705059D+00  0.194554D+02
      9 -0.104226D+00 -0.109498D+01  0.488435D-01  0.220217D+02
     10 -0.286326D-02 -0.554632D+01 -0.157192D+01 -0.685351D+00  0.137662D+02
     11  0.323597D-02 -0.149953D+01 -0.247372D+01  0.153433D+01  0.103185D+01
     12 -0.636421D-01 -0.667006D+00  0.153180D+01 -0.543494D+01  0.623756D+00
     13  0.958758D-02 -0.447458D+01  0.227397D+01 -0.576665D+00 -0.676529D-01
     14 -0.151780D-02  0.222683D+01 -0.385591D+01 -0.626369D+00  0.142002D+00
     15 -0.635054D-01 -0.556972D+00 -0.629830D+00 -0.625447D+01  0.141047D-01
     16 -0.102273D+00  0.222500D+00  0.539429D-01 -0.428759D-01  0.219279D+00
     17  0.372767D+00  0.135978D+00 -0.449474D-01  0.557981D-01 -0.105271D+00
     18  0.215719D+00 -0.328630D-01  0.548284D-01  0.290375D-01  0.806477D-02
     19  0.122478D+01  0.290282D+00  0.797393D-01 -0.153120D-02  0.140521D+00
     20 -0.221737D+01  0.807210D-01 -0.124822D+00  0.237650D-01 -0.586437D-01
     21 -0.798825D+01  0.396043D-01  0.236329D-01 -0.107220D+00  0.520044D-02
     22  0.122780D-01 -0.446891D+01 -0.664145D-01  0.384552D+00  0.269061D+00
     23 -0.241724D-02 -0.591538D-01 -0.452134D+01 -0.345651D+00  0.794841D-01
     24  0.178726D-02  0.266169D+00 -0.324934D+00 -0.144538D+01  0.172671D+00
     25 -0.516148D-02  0.575865D-01  0.256985D-01  0.337633D-01 -0.392946D+01
     26  0.169264D-02  0.155212D-01 -0.382927D-02 -0.122962D+00  0.205358D-01
     27 -0.265308D-02  0.116737D-02 -0.721584D-01  0.149364D-01 -0.149407D+00
     28 -0.166277D-02  0.864530D-01  0.191236D-01 -0.256029D-01 -0.321108D+01
     29 -0.135780D-02 -0.757300D-01 -0.190763D-01 -0.392745D-01  0.151076D+01
     30 -0.881273D-02 -0.385786D-01 -0.526667D-01  0.627583D-01 -0.317417D+00
     31  0.215509D-02 -0.589905D-01  0.161239D-01  0.341985D-01 -0.174246D+01
     32 -0.948935D-03  0.724729D-01  0.616891D-01  0.716582D-02 -0.690555D+00
     33 -0.435939D-02  0.388202D-01 -0.524764D-02  0.305904D-01  0.691140D+00
     34 -0.383341D-02  0.792346D-01 -0.192994D-01  0.519855D-01  0.236845D-02
     35 -0.100783D-02 -0.573541D-02  0.194327D-01  0.933376D-01 -0.667304D-02
     36 -0.428184D-02  0.766177D-03  0.420231D-01  0.444411D-01 -0.444297D-02
     37  0.315178D-02  0.732772D-01 -0.427196D-01 -0.174886D-01 -0.586176D-01
     38  0.439438D-02  0.253606D-01 -0.353181D-01  0.351388D-01 -0.437857D-02
     39 -0.655360D-02 -0.366620D-02  0.422005D-01  0.707476D-01  0.967059D-03
     40  0.322639D-02 -0.945425D-01 -0.163060D-01 -0.205477D-02  0.291173D-01
     41 -0.305278D-03 -0.662230D-01  0.840587D-01 -0.252779D-01  0.457574D-01
     42 -0.410317D-02 -0.306697D-02 -0.186807D-01  0.563027D-01  0.255941D-01
     43  0.336535D-01 -0.416729D-04 -0.158769D-02 -0.324474D-04  0.407885D-01
     44 -0.377038D-01  0.677600D-01 -0.211089D-01 -0.167207D-01  0.991876D-01
     45 -0.238674D-01 -0.710514D-02 -0.177989D-02 -0.466045D-01 -0.327619D-01
     46 -0.250399D-01  0.196445D-01  0.862938D-02 -0.503768D-02  0.251545D-01
     47  0.994678D-01  0.203780D-01 -0.107080D-02 -0.513604D-02  0.112620D-01
     48  0.135065D+00 -0.324150D-02 -0.464354D-03 -0.676021D-02 -0.783311D-02
     49  0.168521D-01  0.259099D-01 -0.253146D-02 -0.499574D-02  0.171685D-01
     50 -0.955804D-01  0.413679D-03 -0.447204D-02 -0.387219D-03 -0.213319D-02
     51 -0.592901D+01  0.159654D-02 -0.250623D-03 -0.509959D-02 -0.168607D-03
               11            12            13            14            15 
     11  0.121459D+02
     12 -0.791043D+00  0.153083D+02
     13  0.618210D-01 -0.405232D-02  0.130768D+02
     14  0.179605D+00  0.765205D-02 -0.190454D+01  0.131903D+02
     15  0.484309D-01 -0.111686D+00  0.327215D+00  0.195531D+00  0.151425D+02
     16  0.280365D-01 -0.142740D-02  0.201393D+00  0.193821D+00 -0.200532D-01
     17 -0.109582D+00  0.380712D-01  0.218329D+00 -0.302444D-01 -0.888126D-02
     18  0.661568D-02 -0.125822D+00 -0.390886D-01 -0.160608D-01 -0.146655D+00
     19 -0.265579D-01  0.412164D-02  0.791078D-01  0.374097D-01 -0.115663D-02
     20 -0.829125D-01  0.728525D-02  0.430595D-01 -0.444183D-01 -0.232880D-03
     21  0.883114D-02 -0.824572D-01  0.559443D-03 -0.278811D-03 -0.553343D-01
     22  0.592997D-01  0.108289D+00  0.493647D-02 -0.611466D-01  0.938443D-01
     23  0.165662D+00 -0.272371D+00 -0.634148D-01  0.175257D-01  0.909121D-01
     24 -0.324718D+00 -0.217926D+00  0.956439D-01  0.745142D-01 -0.188768D-01
     25  0.414935D-01 -0.276954D+00 -0.179257D-01  0.835206D-02  0.328686D-02
     26 -0.400500D+01 -0.394130D-01  0.391026D-02  0.799170D-02  0.139921D-01
     27 -0.208588D+00 -0.144919D+01 -0.103168D-03  0.303197D-01  0.113901D-01
     28  0.120528D+01 -0.303475D+00 -0.181292D-01  0.802010D-01  0.130667D-02
     29 -0.270631D+01 -0.467755D+00  0.911482D-01  0.153618D+00 -0.785648D-03
     30 -0.391078D+00 -0.416363D+01  0.656967D-03 -0.309738D-02 -0.497723D-01
     31 -0.585221D+00  0.739381D+00  0.443247D-02 -0.179142D-01  0.126211D-02
     32 -0.361284D+01 -0.284694D+00 -0.137873D-01  0.174881D-02 -0.205895D-02
     33 -0.233114D+00 -0.349944D+01  0.604821D-02 -0.113969D-01 -0.109602D-01
     34 -0.225120D-01  0.544731D-02 -0.387187D+01  0.174380D-01 -0.285645D+00
     35 -0.267124D-01  0.971832D-02 -0.137372D-01 -0.376826D+01 -0.633068D+00
     36  0.331604D-02  0.173340D-01 -0.996098D-01 -0.489268D+00 -0.131660D+01
     37  0.775846D-02  0.282063D-02 -0.379520D+01 -0.514128D+00 -0.231334D+00
     38  0.184471D+00  0.585377D-01 -0.712782D+00 -0.203811D+01  0.981570D+00
     39  0.650865D-01 -0.372539D-01 -0.315083D+00  0.934215D+00 -0.344971D+01
     40  0.644267D-01  0.200161D-01 -0.149458D+01 -0.456617D+00  0.695014D+00
     41  0.161703D-01  0.180542D-01 -0.319278D+00 -0.366749D+01 -0.788666D-01
     42  0.271470D-01 -0.269231D-01  0.665929D+00 -0.114917D+00 -0.347320D+01
     43  0.576741D-01 -0.115475D-01 -0.722300D-02  0.708203D-02 -0.153170D-02
     44 -0.105247D-01 -0.257443D-01  0.254652D-01  0.110103D-01 -0.501279D-02
     45 -0.257859D-01 -0.427805D-01 -0.411725D-02 -0.479983D-02 -0.142740D-01
     46  0.734983D-02 -0.165839D-02  0.907495D-02  0.441274D-02 -0.376971D-03
     47 -0.369717D-02  0.744674D-03  0.111956D-01 -0.247856D-02 -0.296062D-04
     48 -0.224257D-02 -0.924956D-02 -0.232632D-02 -0.637594D-03 -0.541601D-02
     49  0.553683D-03  0.384428D-02  0.151551D-01 -0.426051D-02  0.227120D-02
     50 -0.262348D-02  0.116841D-03  0.171634D-02 -0.350690D-02  0.104864D-03
     51  0.167424D-03 -0.357888D-02  0.439670D-03 -0.108206D-03 -0.332211D-02
               16            17            18            19            20 
     16  0.830522D+01
     17 -0.297580D+01  0.174879D+02
     18 -0.649272D-01  0.284133D+01  0.272791D+02
     19 -0.301217D+00 -0.119158D+01  0.108288D+01  0.100788D+02
     20 -0.837232D+00 -0.992270D+01 -0.119463D+01  0.328709D+01  0.144106D+02
     21  0.917773D+00 -0.126601D+01 -0.135001D+02 -0.172881D+01  0.374667D+01
     22 -0.144530D-01 -0.175441D-01 -0.151266D-01  0.112408D+00  0.102870D-01
     23 -0.130827D-01 -0.610204D-01 -0.102066D-01  0.102313D-01 -0.299328D-01
     24  0.361899D-01 -0.735606D-02 -0.425068D-01  0.631808D-01  0.229299D-02
     25  0.208666D-01 -0.989263D-02 -0.388655D-01  0.190991D-01 -0.507168D-02
     26 -0.839551D-02 -0.256887D-01  0.766339D-02 -0.505921D-02 -0.913738D-02
     27 -0.526830D-01  0.131486D-01  0.195466D-01 -0.308303D-01  0.603675D-02
     28 -0.410894D-01  0.545143D-02  0.438221D-01  0.194041D-01 -0.151364D-01
     29 -0.365478D-01  0.267091D-01 -0.218481D-01 -0.508003D-01  0.290687D-02
     30  0.411025D-01 -0.233975D-01 -0.278933D-01  0.123808D-01 -0.544851D-02
     31  0.760402D-01 -0.257487D-01 -0.197614D-02  0.282456D-01 -0.814452D-02
     32 -0.305835D-01 -0.177405D-01  0.264744D-02 -0.908315D-02 -0.401953D-02
     33  0.151760D-02 -0.141304D-02 -0.210258D-01  0.332288D-02 -0.751817D-03
     34  0.715266D-02  0.134603D-01 -0.101931D-01  0.138359D-01  0.778505D-02
     35  0.133619D-01 -0.294767D-02 -0.701930D-02  0.112144D-01 -0.329608D-02
     36 -0.198388D-01 -0.136363D-01  0.117217D-02 -0.205504D-01 -0.606105D-02
     37  0.167627D-02  0.128515D-01  0.482710D-03  0.299734D-02  0.589644D-02
     38  0.241086D-01  0.157661D-01  0.163189D-02  0.217651D-01  0.408648D-02
     39  0.689718D-02  0.887483D-02 -0.104005D-01  0.888882D-02  0.472329D-02
     40  0.213229D-01  0.989422D-02 -0.317572D-04  0.202327D-01  0.318461D-02
     41  0.413631D-02 -0.581390D-02 -0.157116D-03  0.247116D-02 -0.465472D-02
     42  0.406802D-02  0.953836D-03 -0.755697D-02  0.342004D-02  0.481830D-03
     43 -0.425681D+01 -0.849306D+00  0.185375D+00 -0.197127D+00  0.286350D+00
     44 -0.108109D+01 -0.201076D+01 -0.622442D+00  0.339334D+00  0.599544D-01
     45  0.265211D+00 -0.677906D+00 -0.450393D+01 -0.137534D+00  0.671948D-01
     46 -0.383247D+00 -0.351891D+00  0.692189D-01 -0.342513D+01  0.138334D+01
     47 -0.382369D+00  0.261638D+00  0.170156D-01  0.131744D+01 -0.258727D+01
     48  0.728512D-01  0.150207D-01  0.358933D+00 -0.343161D+00 -0.511485D+00
     49  0.350345D+00 -0.164728D+00  0.649539D-01 -0.279819D+00  0.431828D-01
     50 -0.139793D+00 -0.397776D-01 -0.188339D-01  0.168172D+00  0.947654D-01
     51  0.518493D-01 -0.187737D-01 -0.834129D-01 -0.614886D-01  0.665696D-03
               21            22            23            24            25 
     21  0.257255D+02
     22  0.243298D-01  0.434250D+01
     23  0.176571D-02 -0.117483D+00  0.442535D+01
     24 -0.195965D-01 -0.385128D+00  0.486092D+00  0.105759D+01
     25 -0.108002D-01 -0.324921D-01 -0.960830D-02 -0.355441D-01  0.375249D+01
     26  0.198982D-02 -0.644109D-02 -0.207352D-01  0.624366D-01  0.764009D-01
     27  0.203335D-03 -0.208217D-01  0.504926D-01  0.137052D+00  0.392381D+00
     28  0.545341D-02  0.380584D-01 -0.792662D-02 -0.147426D-02  0.627474D-01
     29 -0.448789D-02 -0.143259D-01 -0.467370D-01 -0.687758D-01 -0.918354D-01
     30 -0.192316D-01 -0.125260D-01 -0.596673D-01 -0.161262D-01  0.148806D+00
     31  0.281015D-02  0.329110D-03 -0.333664D-02 -0.143891D-01  0.297910D-01
     32 -0.506040D-03 -0.252421D-02 -0.121648D-02  0.843986D-02  0.385962D-01
     33 -0.542539D-02 -0.676045D-03  0.156275D-02 -0.793697D-03 -0.160741D+00
     34 -0.495468D-02 -0.223780D-01  0.228279D-01 -0.503287D-01 -0.189545D-01
     35 -0.209872D-02  0.175288D-01  0.164114D-02 -0.747926D-01  0.739581D-02
     36 -0.285977D-02 -0.345449D-01 -0.644657D-01  0.972268D-01  0.272311D-04
     37  0.135700D-02  0.242943D-01 -0.240278D-01  0.129835D-01 -0.121328D-02
     38  0.414879D-02 -0.192932D-01 -0.535469D-01  0.346020D-01 -0.101086D-02
     39 -0.463633D-02  0.550678D-02  0.324821D-01  0.113431D-01 -0.531969D-03
     40  0.324736D-02 -0.127494D-01 -0.961799D-02  0.194642D-02  0.112401D-04
     41  0.302672D-03 -0.119883D-01  0.116809D-03  0.612922D-02  0.288889D-02
     42 -0.389818D-02  0.107691D-01  0.497513D-02  0.521690D-03  0.314089D-02
     43 -0.105673D+00  0.317917D-03  0.908414D-02  0.101586D-01  0.875560D-02
     44  0.596656D-01  0.193756D-01 -0.230211D-02  0.214506D-01  0.931778D-02
     45  0.191776D+00  0.677423D-02  0.337729D-02 -0.935696D-02 -0.164267D-01
     46 -0.370329D+00  0.236662D-02  0.519209D-03  0.508488D-02  0.293799D-02
     47 -0.521701D+00  0.284717D-02 -0.704302D-03  0.459301D-02  0.198997D-02
     48 -0.439809D+01  0.394642D-03  0.223392D-03 -0.177459D-02 -0.157530D-02
     49 -0.335621D-01  0.384856D-02 -0.101814D-02  0.732097D-02  0.319729D-02
     50  0.589391D-02 -0.113807D-03 -0.571053D-03  0.197020D-03 -0.145031D-03
     51  0.804698D-01  0.587258D-03 -0.103310D-03 -0.527198D-04 -0.244731D-03
               26            27            28            29            30 
     26  0.387696D+01
     27 -0.150730D+00  0.152316D+01
     28 -0.613193D-01  0.118334D+00  0.330662D+01
     29  0.441278D-01  0.163559D+00 -0.114075D+01  0.234557D+01
     30  0.144688D+00 -0.879338D-01  0.207506D+00  0.385864D+00  0.424771D+01
     31  0.265003D-01 -0.162393D+00 -0.194257D+00 -0.997193D-01 -0.353668D-01
     32  0.923572D-01  0.720841D-01 -0.869303D-01  0.965652D-01 -0.199382D-01
     33  0.525597D-01 -0.136168D+00 -0.163417D-01 -0.154621D-01  0.105578D+00
     34  0.132613D-01  0.431752D-02  0.244259D-03  0.197257D-02 -0.683234D-03
     35  0.450444D-01  0.200767D-01  0.304381D-02  0.297766D-02 -0.171866D-02
     36 -0.352727D-02 -0.268577D-01 -0.513510D-02 -0.751503D-02  0.156535D-02
     37 -0.516168D-03 -0.132695D-02 -0.402230D-03 -0.325226D-02 -0.442516D-03
     38  0.150897D-02  0.853732D-02  0.458202D-02 -0.197087D-03 -0.273624D-02
     39  0.192796D-02  0.414647D-02  0.185624D-02  0.251222D-02 -0.145813D-03
[...]
   yy         0.633126D+02      0.938196D+01      0.104388D+02
   zx        -0.832523D+01     -0.123367D+01     -0.137264D+01
   zy        -0.633194D+01     -0.938296D+00     -0.104400D+01
   zz         0.645043D+02      0.955855D+01      0.106353D+02

 ----------------------------------------------------------------------

 Test job not archived.
 1\1\GINC-C0251\Freq\RM062X\CC-pVTZ\C5H10O2\HARMS.N\28-Sep-2019\0\\#P G
 eom=AllCheck Guess=TCheck SCRF=Check Test GenChk RM062X/CC-pVTZ Freq\\
 Gaussian input prepared by ASE\\0,1\O,3.8633156364,0.8551145466,2.6692
 842986\O,1.072992284,0.9219803701,2.6833982401\C,5.0469494327,0.347838
 7784,3.2829338907\C,4.6959782848,-0.488878643,4.500790963\C,5.89758069
 28,1.549878179,3.6314255797\C,3.1061454939,-0.079201292,2.0369015607\C
 ,1.7816754246,-0.035989183,2.0180537772\H,5.5725146092,-0.2761259219,2
 .5484141573\H,4.1653052324,0.1278778793,5.2267439061\H,4.0529537592,-1
 .3244397899,4.225337092\H,5.5983765658,-0.884454204,4.9667816844\H,5.3
 612243875,2.185488569,4.3361112422\H,6.1178811951,2.1328630191,2.73906
 55286\H,6.8344090345,1.233769985,4.0888908328\H,3.6310921144,-0.860169
 9107,1.4970023503\H,1.2303615818,-0.7661475124,1.4414924117\H,0.136828
 8021,0.7843533909,2.535682132\\Version=EM64L-G16RevA.03\State=1-A\HF=-
 346.9414281\RMSD=2.087e-09\RMSF=3.601e-07\ZeroPoint=0.1467832\Thermal=
 0.1556428\Dipole=-0.190143,-0.7050516,-0.1289839\DipoleDeriv=-1.416944
 ,-0.1262817,-0.4854949,-0.5534484,-0.5661135,-0.225541,-0.6166916,-0.1
 306805,-0.6494407,-0.937515,0.2710511,0.1072943,0.7859389,-0.6140662,-
 0.1015732,0.536452,-0.1815265,-0.4025097,0.9761899,0.0406285,0.2895615
 ,-0.1366319,0.3899296,-0.1350939,0.2446221,-0.056881,0.5757401,-0.0218
 494,-0.0922684,0.0236539,0.0104153,-0.0334349,0.1140346,-0.0298973,0.0
 73514,-0.0878567,0.0000318,-0.0637386,-0.0353458,-0.0844005,-0.0292448
 ,-0.0168214,-0.0285462,0.0016624,0.0343665,0.5728475,0.2565574,0.26997
 54,0.7373902,0.2471487,0.4859256,0.4100269,0.2807174,0.1705304,0.62664
 95,-0.3356185,-0.174014,-0.7458437,0.3459424,0.2324909,-0.5325971,0.33
 98804,0.0250728,-0.0673583,0.0076914,0.0095785,0.0785945,-0.0664425,-0
 .049522,0.0699678,-0.0895892,-0.1285172,0.0304034,0.0341942,0.0657762,
 0.0461733,-0.0098572,-0.0851642,0.0418819,-0.0219973,-0.0138368,0.0063
 9,-0.0982803,0.004788,-0.0977971,-0.0455187,-0.0205746,-0.008418,-0.03
 86679,0.0373172,-0.0790997,0.0695763,-0.0828768,0.0557023,0.057981,0.0
 374435,-0.0676528,0.0275196,0.0126878,0.0144762,0.061824,0.078613,0.00
 08267,0.0033135,-0.0512914,0.0432353,-0.0718977,-0.0080335,0.0631577,-
 0.0288642,0.0204355,-0.0492572,-0.0122945,0.0580439,0.0469615,0.089657
 8,-0.0537406,-0.08341,0.0202316,-0.0736131,0.0580056,0.0269974,0.02743
 74,-0.0842179,0.0105491,0.0316182,-0.0071044,0.0565179,0.041152,-0.045
 8488,0.0006173,-0.1253645,0.0369066,-0.0814492,0.0807762,-0.0097419,-0
 .0233603,-0.0359091,0.0038486,0.015376,-0.1021014,-0.0192393,-0.113927
 2,0.0684055,0.3328767,-0.0498605,-0.0235747,-0.0636676,0.2896664,-0.04
 23283,-0.0427938,-0.0368841,0.3074204\Polar=88.1907641,1.8840426,60.13
 83012,7.5259386,2.7775322,60.5662304\Quadrupole=5.9370835,-3.4266575,-
 2.510426,1.2484566,2.3810257,1.5659517\PG=C01 [X(C5H10O2)]\NImag=0\\0.
 41369861,0.03715367,0.34337575,0.18750277,0.08699650,0.20820818,-0.000
 66914,-0.00572415,-0.00431359,0.70873170,0.01037684,0.00879475,0.01131
 318,-0.04021169,0.24929299,0.00680713,0.01139202,-0.00016770,0.0058023
 3,0.16943278,0.13961010,-0.15742588,0.04104122,-0.04665609,0.00386201,
 -0.00545803,-0.00341237,0.50160147,0.06549602,-0.11347723,0.02256104,-
 0.00063369,0.00172801,0.00061098,0.00160934,0.55603301,-0.04320730,0.0
 0934134,-0.08416969,0.00143010,-0.00020137,-0.00099569,-0.04185729,0.0
 6076075,0.53991330,-0.00735453,0.02222375,-0.03821978,-0.00036610,0.00
 085894,0.00042280,-0.08785624,-0.02585726,0.03726590,0.58476803,0.0063
 6298,-0.00863110,0.01810722,0.00041821,-0.00064483,-0.00078754,-0.0198
 5910,-0.11306889,0.04501366,-0.01175801,0.55631939,-0.01014053,0.01477
 245,-0.01846781,-0.00028254,0.00020793,0.00007058,0.03080450,0.0476247
 3,-0.15872966,0.02204534,0.04280064,0.51422467,-0.03549148,-0.02757013
 ,-0.02029806,-0.00007907,0.00037191,0.00023218,-0.10910603,-0.04990630
 ,-0.00971060,-0.00448223,-0.01153951,0.00182951,0.56339775,0.00799352,
 0.01172367,0.00461364,0.00017971,-0.00045773,-0.00033379,-0.06417663,-
 0.17291881,-0.02918067,-0.01316273,-0.02010946,-0.00137243,-0.04011544
 ,0.52744775,-0.01838096,-0.01382389,-0.00771508,-0.00029767,0.00025703
 ,0.00012352,-0.01125793,-0.02382644,-0.08668717,0.01813250,0.02394615,
 0.00736687,-0.00843521,-0.02486100,0.58464218,-0.15809069,-0.06148150,
 -0.06535115,-0.02772190,0.00922492,0.00695864,-0.04187679,-0.02653655,
 -0.02404902,0.00354849,0.00063379,0.00045733,-0.00455740,0.00247631,-0
 .00307029,0.93125842,-0.09024819,-0.20478801,-0.10071933,0.05284992,-0
 .01260624,-0.01471044,-0.01101017,0.01036519,-0.00217043,0.00631375,-0
 .00054300,0.00228344,0.00287994,-0.00167974,0.00084285,-0.05296264,0.4
 7363756,-0.06994598,-0.08369916,-0.10411859,0.03549507,-0.01630395,0.0
 0361639,-0.02020060,-0.01062711,-0.01932463,-0.00037404,-0.00006459,-0
 .00063171,0.00037445,0.00012526,-0.00036486,0.01804651,0.23745920,0.29
 298993,-0.03048156,-0.01156693,-0.00803143,-0.17084199,0.06461010,0.03
 889421,0.00224796,-0.00160818,0.00118266,-0.00015282,-0.00084373,0.000
 24183,0.00004914,0.00019332,-0.00021884,-0.56727009,0.00692789,-0.0190
 1479,0.94198118,-0.05501771,-0.01053718,-0.01808956,0.10276430,-0.1951
 2537,-0.11367527,0.00859722,-0.00685519,0.00104750,-0.00154913,0.00101
 982,-0.00037509,-0.00189253,0.00144610,-0.00072518,0.03181179,-0.07755
 443,-0.01647795,0.00165560,0.46291410,-0.03541295,-0.01326028,0.000443
 97,0.06813307,-0.11499551,-0.11299620,0.00302674,-0.00418197,0.0000926
 1,-0.00059097,0.00115124,0.00012931,-0.00139990,0.00105382,-0.00050708
 ,-0.00539997,-0.01873564,-0.07040620,0.04204468,0.25668135,0.30384385,
 -0.03312179,0.02214048,0.00712126,0.00005850,-0.00000728,0.00006051,-0
 .09847427,0.05745175,0.07597152,-0.00205512,0.00359532,0.00778582,0.01
 025021,-0.01211171,-0.01332793,0.00290591,0.00630177,0.00469452,-0.000
 40639,-0.00090764,-0.00062834,0.12064137,0.01711512,-0.00986140,-0.003
 57434,0.00001654,-0.00018505,-0.00000840,0.06016497,-0.12574091,-0.093
 04457,-0.00962510,0.01048978,0.01409551,0.01060185,-0.01591814,-0.0187
 1577,-0.00358482,-0.00045112,-0.00047657,0.00029500,0.00054443,0.00035
 411,-0.07222068,0.14235837,-0.01358655,0.00944203,0.01017634,-0.000221
 98,-0.00013992,0.00022665,0.07909161,-0.09587015,-0.16788165,0.0131727
 1,-0.01482395,-0.01982858,0.00333363,-0.00403106,-0.00467170,-0.000532
 26,0.00284179,0.00252161,0.00011613,0.00024267,-0.00007639,-0.08115214
 ,0.09954128,0.18018437,0.00146940,-0.00047878,-0.00073344,-0.00009089,
 0.00013324,0.00018881,-0.00601430,0.00563890,0.00568322,-0.11026233,0.
 07401943,0.08610233,0.00001174,0.00079248,-0.00007594,-0.00026999,-0.0
 0036607,0.00002583,0.00011479,-0.00009931,-0.00007458,0.00061743,-0.00
 128879,0.00108344,0.11573287,-0.00092560,0.00076674,-0.00191196,-0.000
 25445,0.00025092,0.00026306,-0.00994966,0.01017081,0.01345176,0.075431
 83,-0.13630874,-0.10344941,-0.00010708,0.00177984,0.00059381,0.0002009
 2,0.00019111,-0.00009107,0.00019541,-0.00025147,-0.00029068,-0.0009648
 2,-0.00147973,0.00353686,-0.08073691,0.14524304,-0.00090372,-0.0004342
 7,0.00324224,-0.00013412,0.00018575,0.00027014,0.01595317,-0.01653517,
 -0.02186846,0.08509636,-0.10191959,-0.16285526,-0.00101120,-0.00128719
 ,0.00095777,-0.00026587,-0.00029029,-0.00038804,0.00028010,-0.00016868
 ,-0.00030706,0.00097330,0.00377146,-0.00364224,-0.09692202,0.11028920,
 0.17839394,0.00026205,0.00043925,0.00020665,-0.00007269,0.00002407,0.0
 0017551,-0.00617135,-0.00537893,-0.00288705,-0.14040493,-0.12194235,-0
 .04068343,0.00022296,-0.00033012,0.00193183,0.00015822,0.00029772,-0.0
 0078042,-0.00009048,0.00011584,-0.00014798,-0.00006185,0.00013057,-0.0
 0004886,0.01042248,0.01297430,0.00381267,0.14983901,0.00045877,0.00115
 052,-0.00066570,-0.00032700,0.00023965,0.00031035,-0.01040907,-0.01481
 583,-0.00608630,-0.12077136,-0.20530156,-0.05425638,-0.00034642,-0.000
 92922,0.00428427,-0.00058497,-0.00010356,-0.00022148,0.00093609,-0.000
 00331,-0.00038380,0.00046445,0.00074074,0.00024545,-0.01091688,-0.0134
 0123,-0.00388221,0.13481256,0.22179574,0.00021371,-0.00227306,0.001827
 01,0.00047520,-0.00039005,-0.00020070,0.01765275,0.02262755,0.00868554
 ,-0.04212860,-0.05585580,-0.06616883,0.00028557,0.00245797,-0.00478396
 ,-0.00053665,0.00079340,-0.00057887,-0.00064469,0.00013465,-0.00018265
 ,-0.00030790,-0.00091093,0.00124297,-0.01360169,-0.01506547,-0.0056669
 9,0.04451695,0.05772705,0.07041712,0.00170729,-0.00179335,0.00159078,-
 0.00011403,0.00002933,0.00002194,0.00574307,-0.00307301,0.00317940,-0.
 23411764,0.08179185,-0.09531491,-0.00021204,-0.00006606,-0.00009712,-0
 .00008271,0.00005538,0.00012125,0.00032313,0.00009864,-0.00004740,0.00
 031600,0.00055825,-0.00063772,-0.01178051,0.00377831,-0.00677789,-0.01
 460963,0.00754251,-0.00673077,0.25230921,0.00067795,-0.00159540,0.0055
 6329,0.00011013,-0.00022515,0.00001432,0.01570927,-0.00623706,0.003157
 39,0.08028943,-0.08134688,0.04157125,0.00042438,0.00037309,-0.00052753
 ,-0.00138556,-0.00105399,-0.00096331,0.00049403,0.00042876,-0.00003462
 ,-0.00032001,0.00056188,-0.00009150,0.01403071,-0.00678196,0.00905891,
 -0.02058497,0.01072930,-0.01081605,-0.08863912,0.08522275,-0.00158240,
 0.00399439,-0.00674051,-0.00031343,0.00041715,0.00028737,-0.02357207,0
 .00594360,-0.00740435,-0.09353935,0.04163056,-0.09576299,-0.00050249,-
 0.00065366,0.00070976,0.00144805,0.00186791,0.00101896,0.00006367,-0.0
 0070907,-0.00029163,0.00039653,-0.00109639,0.00036739,0.01838102,-0.00
 699789,0.01080213,-0.00588069,0.00303674,-0.00440341,0.10446841,-0.047
 25230,0.10122984,0.00206135,0.00064371,0.00119984,0.00001700,-0.000027
 99,-0.00000819,0.00883199,-0.01245169,-0.01339647,0.00088578,0.0005617
 4,-0.00099825,-0.11438672,0.07894797,0.08857775,-0.00010596,-0.0005386
 3,-0.00043326,0.00003052,0.00021563,0.00012678,-0.00168209,-0.00317375
 ,-0.00110727,-0.00002069,0.00029095,0.00023723,0.00001035,0.00013570,-
 0.00010854,0.00000851,0.00004569,0.00012769,0.12068969,0.00063564,0.00
 175829,0.00146934,-0.00012171,0.00009311,0.00010756,0.01516356,-0.0194
 8144,-0.01947651,0.00133990,0.00123610,-0.00082197,0.07666511,-0.13606
 111,-0.09934248,-0.00008513,0.00005596,0.00009700,0.00004831,0.0000104
 8,-0.00002730,-0.00388718,-0.00339398,-0.00084053,-0.00063110,-0.00019
 277,0.00085031,-0.00020215,0.00050378,0.00024547,-0.00006559,-0.000056
 11,0.00001804,-0.08287340,0.14974213,0.00029794,0.00056237,0.00044723,
 -0.00006546,0.00013575,0.00005939,0.00405380,-0.00607186,-0.00705566,-
 0.00040496,0.00117847,0.00065793,0.08750495,-0.09986799,-0.16023936,-0
 .00025071,0.00012960,-0.00005201,0.00010243,-0.00007185,-0.00005623,-0
 .00129588,-0.00098327,0.00072998,0.00007880,-0.00014714,0.00059353,-0.
 00012066,0.00008773,-0.00001811,-0.00010206,0.00008122,-0.00000715,-0.
 09596331,0.11160237,0.17070933,0.00158526,0.00117573,0.00047543,0.0000
 8266,-0.00006558,-0.00011603,-0.00530233,-0.00961864,0.01664541,-0.002
 07352,-0.00275938,-0.00192567,-0.05779679,-0.02760319,0.04415894,-0.00
 013994,-0.00022620,-0.00032309,0.00007023,0.00020491,0.00016700,0.0005
 0587,0.00069518,-0.00040816,0.00016919,0.00013895,-0.00038125,0.000099
 01,-0.00092825,0.00086353,0.00025824,-0.00016388,0.00016880,-0.0035889
 9,-0.00940142,0.01285356,0.05868114,0.00190908,0.00196694,-0.00029979,
 0.00001977,-0.00002319,-0.00003707,-0.00461428,-0.01558701,0.02478317,
 -0.00342180,-0.00382430,-0.00308146,-0.02890831,-0.12291027,0.11728907
 ,0.00002710,0.00000587,-0.00032908,0.00009910,0.00011883,0.00004181,0.
 00085669,0.00073883,0.00002684,-0.00014328,0.00010017,0.00005830,-0.00
 066427,-0.00077195,0.00154542,0.00012284,0.00024499,-0.00031290,0.0031
 2926,0.01113781,-0.01613702,0.03358809,0.13412804,0.00092523,-0.000114
 76,0.00070447,0.00007686,-0.00009969,-0.00003731,-0.00269639,-0.005514
 33,0.00710532,-0.00106689,-0.00077079,0.00032414,0.04604762,0.11997023
 ,-0.23489940,0.00011936,-0.00020839,0.00013249,-0.00005293,0.00009136,
 0.00010782,0.00044836,0.00060370,0.00083162,-0.00032904,-0.00011036,0.
 00024799,-0.00026153,-0.00024159,0.00042996,0.00000133,-0.00016164,-0.
 00005791,0.00276481,0.01111555,-0.01610567,-0.04906248,-0.12975705,0.2
 5118627,-0.00264254,-0.00464148,-0.00235766,-0.00021009,0.00025041,0.0
 0016569,-0.01387551,0.00998897,-0.00533863,0.00028041,0.00095448,-0.00
 003566,-0.24724635,0.06695047,-0.09736037,-0.00012606,0.00105836,0.000
 39335,-0.00002639,-0.00057904,-0.00041825,0.00058340,-0.00027410,-0.00
 019964,-0.00006959,-0.00006748,-0.00005595,0.00038206,-0.00011444,0.00
 006832,0.00026509,-0.00067135,0.00043076,-0.01258751,0.00328121,-0.006
 78742,0.00743125,-0.00200591,0.00308720,0.26796517,-0.00499541,-0.0045
 6714,-0.00282257,-0.00008902,0.00022337,0.00011004,-0.02056908,0.01088
 959,-0.00935927,0.00035407,0.00061580,0.00011001,0.06993410,-0.0722673
 7,0.03447265,-0.00139318,0.00106422,0.00000241,-0.00001549,-0.00060028
 ,-0.00046159,0.00104107,0.00078837,-0.00012045,0.00002323,-0.00001555,
 0.00011476,0.00021963,0.00016693,-0.00021207,-0.00031099,-0.00044588,0
 .00027435,0.01487910,-0.00555097,0.00935538,0.01494314,-0.00523857,0.0
 0517420,-0.07395446,0.07505325,-0.00172247,-0.00231556,-0.00037672,-0.
 00009972,0.00012769,0.00013573,-0.00504886,0.00421507,-0.00501071,0.00
 021593,0.00042630,-0.00000491,-0.09790293,0.03305903,-0.09400939,-0.00
 031972,0.00062360,0.00085713,-0.00003653,-0.00036787,-0.00029987,0.000
 31267,0.00003787,-0.00013796,0.00010369,-0.00011713,0.00000480,0.00009
 670,-0.00017280,-0.00009312,0.00028169,0.00023924,0.00029600,0.0188631
 7,-0.00516737,0.01017796,-0.02325681,0.00608131,-0.00992115,0.10852746
 ,-0.03665232,0.09845668,0.00726211,-0.01666870,-0.01278844,-0.00503072
 ,-0.00185948,-0.00256691,0.00457822,-0.00372611,-0.00164157,-0.0004023
 9,0.00050714,0.00005865,-0.00011232,-0.00022890,-0.00005145,-0.1307740
 1,0.10085087,0.06803324,-0.00723945,0.02281095,0.01734401,0.00008624,0
 .00055325,0.00118787,-0.00004224,-0.00005253,0.00012262,-0.00000178,-0
 .00005696,0.00006331,-0.00004875,-0.00001214,-0.00009983,-0.00018233,0
 .00011903,0.00008822,0.00001418,-0.00001666,-0.00000348,-0.00005452,0.
 00006453,0.00002872,0.13299570,0.00220431,-0.02199057,-0.01928802,-0.0
 0126298,0.00457410,-0.00242654,0.00385019,-0.00071266,0.00271049,-0.00
 049136,0.00021151,-0.00013734,-0.00045546,0.00042663,0.00016778,0.1016
 8021,-0.18386204,-0.10586725,-0.00143440,-0.00016068,-0.00013765,-0.00
 140273,0.00075128,-0.00005377,-0.00000784,-0.00009174,0.00014811,0.000
 02605,0.00000567,-0.00001762,-0.00001307,0.00014647,-0.00016943,0.0002
 0552,0.00018949,0.00014910,0.00005011,-0.00004416,0.00000106,-0.000166
 03,-0.00007330,-0.00005162,-0.10298427,0.20130060,0.00006830,-0.015242
 52,-0.00882618,-0.00059036,-0.00409572,0.00510513,0.00341282,-0.001994
 56,0.00150249,-0.00025317,-0.00015449,-0.00018378,-0.00039508,0.000335
 13,0.00005461,0.06931013,-0.10737489,-0.10413372,-0.00042525,0.0025572
 9,0.00173917,-0.00082602,0.00036167,0.00011434,0.00008280,0.00007678,0
 .00016918,0.00015875,0.00023357,-0.00047373,0.00005813,0.00017935,-0.0
 0003400,0.00008744,0.00016638,0.00012214,0.00008892,0.00007751,-0.0000
 2288,-0.00012176,-0.00004242,-0.00002841,-0.07052399,0.12331414,0.1064
 4996,-0.00525530,0.00346409,-0.00057238,0.00893375,0.01906739,0.014382
 64,0.00025038,-0.00173807,0.00089462,-0.00007516,-0.00001094,-0.000009
 80,-0.00054510,0.00033759,-0.00026877,-0.00739962,-0.02316182,-0.01720
 729,-0.14356149,-0.10206834,-0.08129954,-0.00021125,0.00010754,-0.0000
 4803,0.00002598,0.00001161,-0.00000911,0.00003173,0.00002269,-0.000024
 38,-0.00000775,0.00002548,-0.00005872,0.00004281,0.00000895,0.00000875
 ,0.00003045,0.00002282,0.00001753,-0.00012529,-0.00015761,-0.00007552,
 -0.00044640,0.00024056,0.00023872,0.14449559,0.00205085,0.00568326,-0.
 00356925,-0.00406792,-0.01768097,-0.01563214,-0.00035404,-0.00024274,-
 0.00092781,-0.00013617,-0.00013439,0.00004055,0.00000177,0.00001697,-0
 .00003582,0.00080903,0.00208543,0.00115951,-0.09989146,-0.17285830,-0.
 11097216,0.00010414,0.00002217,0.00012841,0.00000559,0.00000327,0.0000
 1583,0.00004571,0.00002551,0.00004068,0.00001161,0.00003192,0.00001338
 ,-0.00000693,-0.00000116,-0.00000385,-0.00002587,-0.00003143,0.0000106
 7,0.00000462,-0.00003068,0.00004542,-0.00048997,-0.00131957,0.00256563
 ,0.10342780,0.18396847,-0.00022287,-0.00549359,0.00592313,-0.00288823,
 -0.01349535,-0.00776526,0.00039722,0.00033225,0.00153848,0.00023730,0.
 00010084,-0.00011509,0.00007341,-0.00005341,0.00002364,0.00212716,0.00
 088140,0.00090094,-0.08233002,-0.11193523,-0.11837038,-0.00015848,-0.0
 0002357,-0.00015681,0.00001396,0.00000568,0.00002854,-0.00008952,-0.00
 003292,-0.00005996,-0.00002477,-0.00004145,0.00001429,0.00001564,0.000
 00411,0.00002485,0.00003455,0.00003973,-0.00001507,0.00001953,0.000062
 69,-0.00004202,0.00015036,0.00256115,-0.00294554,0.08350080,0.12724818
 ,0.12053443,0.00248685,0.00164311,0.00122530,-0.51648901,-0.05731710,-
 0.06800888,-0.00101241,0.00034342,-0.00016490,0.00012029,-0.00013192,0
 .00006548,0.00008373,-0.00007659,0.00004147,0.00054413,0.00097813,0.00
 109522,-0.02474629,-0.00616119,-0.00542240,0.00004783,-0.00007103,-0.0
 0004280,-0.00001334,0.00003624,-0.00001433,-0.00001518,0.00008258,-0.0
 0005609,0.00004252,-0.00003004,0.00006405,-0.00002373,0.00000597,0.000
 00200,-0.00002590,-0.00000024,-0.00001555,0.00005646,0.00002638,0.0000
 3254,-0.00060151,-0.00003880,-0.00037037,0.00381667,-0.00148876,-0.000
 85604,0.53572891,-0.00124784,0.00022809,0.00031631,-0.10366596,-0.0382
 4839,-0.03462992,0.00026428,-0.00004883,0.00018085,-0.00003875,0.00002
 075,-0.00001242,-0.00003787,0.00003782,0.00000448,0.00115028,-0.004763
 21,-0.00372183,0.03990533,-0.00253629,0.00419889,-0.00013363,0.0000345
 0,-0.00003398,0.00002537,0.00001728,0.00002476,0.00001705,-0.00003117,
 -0.00003114,-0.00002754,0.00000325,-0.00000448,0.00001711,0.00001039,0
 .00000098,-0.00000370,-0.00001059,0.00001183,-0.00001422,-0.00001179,-
 0.00001086,0.00118994,0.00064896,-0.00096285,0.00040028,0.00046225,-0.
 00016051,0.06219987,0.04418698,-0.00070936,0.00015599,-0.00039028,-0.1
 0220555,-0.03235570,-0.02734213,0.00030898,-0.00005440,0.00028995,-0.0
 0001109,0.00002168,-0.00002489,-0.00002582,0.00002611,-0.00000036,0.00
 130847,-0.00351378,-0.00203883,0.02782878,0.00184095,-0.00286305,-0.00
 006781,0.00006821,0.00000005,-0.00000718,-0.00003605,0.00001779,0.0000
 0108,0.00001802,0.00002771,0.00000971,0.00002345,-0.00002379,0.0000149
 3,0.00000004,0.00001184,0.00001735,0.00001122,-0.00001070,-0.00001698,
 -0.00000581,-0.00000402,0.00059867,-0.00090260,0.00139121,0.00053051,-
 0.00012723,0.00048182,0.07242529,0.03482991,0.03047768\\-0.00000018,-0
 .00000019,0.00000012,0.00000053,-0.00000032,0.00000035,0.00000004,0.00
 000008,-0.00000025,-0.00000015,0.00000065,0.00000009,-0.00000025,0.000
 00029,-0.00000049,-0.00000018,-0.00000019,0.00000033,0.00000030,-0.000
 00072,-0.00000015,0.00000017,0.00000019,-0.00000003,0.00000017,0.00000
 031,0.00000008,0.00000037,0.00000004,0.00000018,0.00000048,0.00000043,
 0.00000015,-0.00000040,0.00000054,-0.00000021,-0.00000033,0.00000031,-
 0.00000038,0.00000005,0.00000055,-0.00000017,0.00000015,-0.00000037,0.
 00000007,0.00000010,-0.00000074,0.00000032,-0.00000085,-0.00000088,0.\
 \\@


 THERE IS NOTHING NOBLE IN BEING SUPERIOR TO SOME OTHER MAN.
 TRUE NOBILITY IS BEING SUPERIOR TO YOUR FORMER SELF.

                                                   -- HINDU PROVERB
 Job cpu time:       0 days  3 hours 29 minutes 12.8 seconds.
 Elapsed time:       0 days  1 hours 44 minutes 38.6 seconds.
 File lengths (MBytes):  RWF=   1392 Int=      0 D2E=      0 Chk=     32 Scr=     32
 Normal termination of Gaussian 16 at Sat Sep 28 17:55:16 2019.
