 Entering Gaussian System, Link 0=g16
 Input=verytight/species/CC(C)OC=CO/conformers/CC(C)OC=CO_3.com
 Output=verytight/species/CC(C)OC=CO/conformers/CC(C)OC=CO_3.log
 Initial command:
 /shared/centos7/gaussian/g16/l1.exe "/scratch/harms.n/gauss_scrdir/Gau-30896.inp" -scrdir="/scratch/harms.n/gauss_scrdir/"
 Entering Link 1 = /shared/centos7/gaussian/g16/l1.exe PID=     30897.
  
 Copyright (c) 1988,1990,1992,1993,1995,1998,2003,2009,2016,
            Gaussian, Inc.  All Rights Reserved.
  
 This is part of the Gaussian(R) 16 program.  It is based on
 the Gaussian(R) 09 system (copyright 2009, Gaussian, Inc.),
 the Gaussian(R) 03 system (copyright 2003, Gaussian, Inc.),
 the Gaussian(R) 98 system (copyright 1998, Gaussian, Inc.),
 the Gaussian(R) 94 system (copyright 1995, Gaussian, Inc.),
 the Gaussian 92(TM) system (copyright 1992, Gaussian, Inc.),
 the Gaussian 90(TM) system (copyright 1990, Gaussian, Inc.),
 the Gaussian 88(TM) system (copyright 1988, Gaussian, Inc.),
 the Gaussian 86(TM) system (copyright 1986, Carnegie Mellon
 University), and the Gaussian 82(TM) system (copyright 1983,
 Carnegie Mellon University). Gaussian is a federally registered
 trademark of Gaussian, Inc.
  
 This software contains proprietary and confidential information,
 including trade secrets, belonging to Gaussian, Inc.
  
 This software is provided under written license and may be
 used, copied, transmitted, or stored only in accord with that
 written license.
  
 The following legend is applicable only to US Government
 contracts under FAR:
  
                    RESTRICTED RIGHTS LEGEND
  
 Use, reproduction and disclosure by the US Government is
 subject to restrictions as set forth in subparagraphs (a)
 and (c) of the Commercial Computer Software - Restricted
 Rights clause in FAR 52.227-19.
  
 Gaussian, Inc.
 340 Quinnipiac St., Bldg. 40, Wallingford CT 06492
  
  
 ---------------------------------------------------------------
 Warning -- This program may not be used in any manner that
 competes with the business of Gaussian, Inc. or will provide
 assistance to any competitor of Gaussian, Inc.  The licensee
 of this program is prohibited from giving any competitor of
 Gaussian, Inc. access to this program.  By using this program,
 the user acknowledges that Gaussian, Inc. is engaged in the
 business of creating and licensing software in the field of
 computational chemistry and represents and warrants to the
 licensee that it is not a competitor of Gaussian, Inc. and that
 it will not use this program in any manner prohibited above.
 ---------------------------------------------------------------
  

 Cite this work as:
 Gaussian 16, Revision A.03,
 M. J. Frisch, G. W. Trucks, H. B. Schlegel, G. E. Scuseria, 
 M. A. Robb, J. R. Cheeseman, G. Scalmani, V. Barone, 
 G. A. Petersson, H. Nakatsuji, X. Li, M. Caricato, A. V. Marenich, 
 J. Bloino, B. G. Janesko, R. Gomperts, B. Mennucci, H. P. Hratchian, 
 J. V. Ortiz, A. F. Izmaylov, J. L. Sonnenberg, D. Williams-Young, 
 F. Ding, F. Lipparini, F. Egidi, J. Goings, B. Peng, A. Petrone, 
 T. Henderson, D. Ranasinghe, V. G. Zakrzewski, J. Gao, N. Rega, 
 G. Zheng, W. Liang, M. Hada, M. Ehara, K. Toyota, R. Fukuda, 
 J. Hasegawa, M. Ishida, T. Nakajima, Y. Honda, O. Kitao, H. Nakai, 
 T. Vreven, K. Throssell, J. A. Montgomery, Jr., J. E. Peralta, 
 F. Ogliaro, M. J. Bearpark, J. J. Heyd, E. N. Brothers, K. N. Kudin, 
 V. N. Staroverov, T. A. Keith, R. Kobayashi, J. Normand, 
 K. Raghavachari, A. P. Rendell, J. C. Burant, S. S. Iyengar, 
 J. Tomasi, M. Cossi, J. M. Millam, M. Klene, C. Adamo, R. Cammi, 
 J. W. Ochterski, R. L. Martin, K. Morokuma, O. Farkas, 
 J. B. Foresman, and D. J. Fox, Gaussian, Inc., Wallingford CT, 2016.
 
 ******************************************
 Gaussian 16:  EM64L-G16RevA.03 25-Dec-2016
                28-Sep-2019 
 ******************************************
 %nprocshared=20
 Will use up to   20 processors via shared memory.
 %mem=5GB
 ----------------------------------------------------------------------
 #p m062x/cc-pVTZ opt=(calcfc,maxcycles=900,Tight) freq IOP(7/33=1,2/16
 =3) scf=(maxcycle=900)
 ----------------------------------------------------------------------
 1/6=900,7=10,10=4,18=20,19=15,26=3,38=1/1,3;
 2/9=110,12=2,16=3,17=6,18=5,40=1/2;
 3/5=16,6=1,11=2,25=1,30=1,71=2,74=-55,140=1/1,2,3;
 4//1;
 5/5=2,7=900,38=5/2;
 8/6=4,10=90,11=11/1;
 11/6=1,8=1,9=11,15=111,16=1/1,2,10;
 10/6=1,13=1/2;
 6/7=2,8=2,9=2,10=2,28=1/1;
 7/10=1,18=20,25=1,33=1/1,2,3,16;
 1/6=900,7=10,10=4,18=20,19=15,26=3/3(2);
 2/9=110,16=3/2;
 99//99;
 2/9=110,16=3/2;
 3/5=16,6=1,11=2,25=1,30=1,71=1,74=-55/1,2,3;
 4/5=5,16=3,69=1/1;
 5/5=2,7=900,38=5/2;
 7/33=1/1,2,3,16;
 1/6=900,7=10,18=20,19=15,26=3/3(-5);
 2/9=110,16=3/2;
 6/7=2,8=2,9=2,10=2,19=2,28=1/1;
 99/9=1/99;
 Leave Link    1 at Sat Sep 28 04:22:09 2019, MaxMem=   671088640 cpu:               4.3 elap:               2.1
 (Enter /shared/centos7/gaussian/g16/l101.exe)
 ------------------------------
 Gaussian input prepared by ASE
 ------------------------------
 Symbolic Z-matrix:
 Charge =  0 Multiplicity = 1
 O                     0.74893  -2.8137    1.38 
 O                     2.87032  -1.80443   2.95065 
 C                    -0.34459  -2.98534   0.50328 
 C                    -1.32015  -3.98406   1.12606 
 C                     0.07474  -3.38136  -0.87418 
 C                     1.67629  -1.91876   0.89733 
 C                     2.65855  -1.46719   1.62211 
 H                    -0.88395  -2.0008    0.42504 
 H                    -0.85748  -4.98791   1.22824 
 H                    -1.6369   -3.64445   2.12896 
 H                    -2.23704  -4.08638   0.4846 
 H                     0.56203  -4.40071  -0.88692 
 H                     0.80344  -2.64909  -1.2802 
 H                    -0.81153  -3.41468  -1.56915 
 H                     1.55759  -1.63344  -0.16014 
 H                     3.40114  -0.78319   1.23854 
 H                     2.14029  -2.44193   3.20052 
 
 ITRead=  0  0  0  0  0  0  0  0  0  0  0  0  0  0  0  0  0
 MicOpt= -1 -1 -1 -1 -1 -1 -1 -1 -1 -1 -1 -1 -1 -1 -1 -1 -1
 NAtoms=     17 NQM=       17 NQMF=       0 NMMI=      0 NMMIF=      0
                NMic=       0 NMicF=      0.
                    Isotopes and Nuclear Properties:
 (Nuclear quadrupole moments (NQMom) in fm**2, nuclear magnetic moments (NMagM)
  in nuclear magnetons)

  Atom         1           2           3           4           5           6           7           8           9          10
 IAtWgt=          16          16          12          12          12          12          12           1           1           1
 AtmWgt=  15.9949146  15.9949146  12.0000000  12.0000000  12.0000000  12.0000000  12.0000000   1.0078250   1.0078250   1.0078250
 NucSpn=           0           0           0           0           0           0           0           1           1           1
 AtZEff=  -0.0000000  -0.0000000  -0.0000000  -0.0000000  -0.0000000  -0.0000000  -0.0000000  -0.0000000  -0.0000000  -0.0000000
 NQMom=    0.0000000   0.0000000   0.0000000   0.0000000   0.0000000   0.0000000   0.0000000   0.0000000   0.0000000   0.0000000
 NMagM=    0.0000000   0.0000000   0.0000000   0.0000000   0.0000000   0.0000000   0.0000000   2.7928460   2.7928460   2.7928460
 AtZNuc=   8.0000000   8.0000000   6.0000000   6.0000000   6.0000000   6.0000000   6.0000000   1.0000000   1.0000000   1.0000000

  Atom        11          12          13          14          15          16          17
 IAtWgt=           1           1           1           1           1           1           1
 AtmWgt=   1.0078250   1.0078250   1.0078250   1.0078250   1.0078250   1.0078250   1.0078250
 NucSpn=           1           1           1           1           1           1           1
 AtZEff=  -0.0000000  -0.0000000  -0.0000000  -0.0000000  -0.0000000  -0.0000000  -0.0000000
 NQMom=    0.0000000   0.0000000   0.0000000   0.0000000   0.0000000   0.0000000   0.0000000
 NMagM=    2.7928460   2.7928460   2.7928460   2.7928460   2.7928460   2.7928460   2.7928460
 AtZNuc=   1.0000000   1.0000000   1.0000000   1.0000000   1.0000000   1.0000000   1.0000000
 Leave Link  101 at Sat Sep 28 04:22:10 2019, MaxMem=   671088640 cpu:               2.6 elap:               1.3
 (Enter /shared/centos7/gaussian/g16/l103.exe)

 GradGradGradGradGradGradGradGradGradGradGradGradGradGradGradGradGradGrad
 Berny optimization.
 Initialization pass.
                           ----------------------------
                           !    Initial Parameters    !
                           ! (Angstroms and Degrees)  !
 --------------------------                            --------------------------
 ! Name  Definition              Value          Derivative Info.                !
 --------------------------------------------------------------------------------
 ! R1    R(1,3)                  1.412          calculate D2E/DX2 analytically  !
 ! R2    R(1,6)                  1.3762         calculate D2E/DX2 analytically  !
 ! R3    R(2,7)                  1.3869         calculate D2E/DX2 analytically  !
 ! R4    R(2,17)                 1.0009         calculate D2E/DX2 analytically  !
 ! R5    R(3,4)                  1.5287         calculate D2E/DX2 analytically  !
 ! R6    R(3,5)                  1.4933         calculate D2E/DX2 analytically  !
 ! R7    R(3,8)                  1.1253         calculate D2E/DX2 analytically  !
 ! R8    R(4,9)                  1.1101         calculate D2E/DX2 analytically  !
 ! R9    R(4,10)                 1.1052         calculate D2E/DX2 analytically  !
 ! R10   R(4,11)                 1.1237         calculate D2E/DX2 analytically  !
 ! R11   R(5,12)                 1.1299         calculate D2E/DX2 analytically  !
 ! R12   R(5,13)                 1.11           calculate D2E/DX2 analytically  !
 ! R13   R(5,14)                 1.1267         calculate D2E/DX2 analytically  !
 ! R14   R(6,7)                  1.3016         calculate D2E/DX2 analytically  !
 ! R15   R(6,15)                 1.1017         calculate D2E/DX2 analytically  !
 ! R16   R(7,16)                 1.08           calculate D2E/DX2 analytically  !
 ! A1    A(3,1,6)              112.5282         calculate D2E/DX2 analytically  !
 ! A2    A(7,2,17)             106.4179         calculate D2E/DX2 analytically  !
 ! A3    A(1,3,4)              108.7033         calculate D2E/DX2 analytically  !
 ! A4    A(1,3,5)              112.798          calculate D2E/DX2 analytically  !
 ! A5    A(1,3,8)              107.9386         calculate D2E/DX2 analytically  !
 ! A6    A(4,3,5)              112.4396         calculate D2E/DX2 analytically  !
 ! A7    A(4,3,8)              107.0999         calculate D2E/DX2 analytically  !
 ! A8    A(5,3,8)              107.6059         calculate D2E/DX2 analytically  !
 ! A9    A(3,4,9)              111.2427         calculate D2E/DX2 analytically  !
 ! A10   A(3,4,10)             110.5986         calculate D2E/DX2 analytically  !
 ! A11   A(3,4,11)             110.3436         calculate D2E/DX2 analytically  !
 ! A12   A(9,4,10)             108.2886         calculate D2E/DX2 analytically  !
 ! A13   A(9,4,11)             108.0778         calculate D2E/DX2 analytically  !
 ! A14   A(10,4,11)            108.1879         calculate D2E/DX2 analytically  !
 ! A15   A(3,5,12)             111.7616         calculate D2E/DX2 analytically  !
 ! A16   A(3,5,13)             110.2912         calculate D2E/DX2 analytically  !
 ! A17   A(3,5,14)             110.849          calculate D2E/DX2 analytically  !
 ! A18   A(12,5,13)            107.9336         calculate D2E/DX2 analytically  !
 ! A19   A(12,5,14)            107.7933         calculate D2E/DX2 analytically  !
 ! A20   A(13,5,14)            108.0758         calculate D2E/DX2 analytically  !
 ! A21   A(1,6,7)              122.6065         calculate D2E/DX2 analytically  !
 ! A22   A(1,6,15)             115.6236         calculate D2E/DX2 analytically  !
 ! A23   A(7,6,15)             121.7331         calculate D2E/DX2 analytically  !
 ! A24   A(2,7,6)              124.3523         calculate D2E/DX2 analytically  !
 ! A25   A(2,7,16)             112.9052         calculate D2E/DX2 analytically  !
 ! A26   A(6,7,16)             122.7423         calculate D2E/DX2 analytically  !
 ! D1    D(6,1,3,4)           -179.6152         calculate D2E/DX2 analytically  !
 ! D2    D(6,1,3,5)             54.9738         calculate D2E/DX2 analytically  !
 ! D3    D(6,1,3,8)            -63.7729         calculate D2E/DX2 analytically  !
 ! D4    D(3,1,6,7)            169.8345         calculate D2E/DX2 analytically  !
 ! D5    D(3,1,6,15)           -12.3392         calculate D2E/DX2 analytically  !
 ! D6    D(17,2,7,6)             0.441          calculate D2E/DX2 analytically  !
 ! D7    D(17,2,7,16)         -179.4379         calculate D2E/DX2 analytically  !
 ! D8    D(1,3,4,9)            -64.0588         calculate D2E/DX2 analytically  !
 ! D9    D(1,3,4,10)            56.3243         calculate D2E/DX2 analytically  !
 ! D10   D(1,3,4,11)           175.9935         calculate D2E/DX2 analytically  !
 ! D11   D(5,3,4,9)             61.5615         calculate D2E/DX2 analytically  !
 ! D12   D(5,3,4,10)          -178.0554         calculate D2E/DX2 analytically  !
 ! D13   D(5,3,4,11)           -58.3862         calculate D2E/DX2 analytically  !
 ! D14   D(8,3,4,9)            179.5589         calculate D2E/DX2 analytically  !
 ! D15   D(8,3,4,10)           -60.058          calculate D2E/DX2 analytically  !
 ! D16   D(8,3,4,11)            59.6111         calculate D2E/DX2 analytically  !
 ! D17   D(1,3,5,12)            65.0634         calculate D2E/DX2 analytically  !
 ! D18   D(1,3,5,13)           -55.0077         calculate D2E/DX2 analytically  !
 ! D19   D(1,3,5,14)          -174.6638         calculate D2E/DX2 analytically  !
 ! D20   D(4,3,5,12)           -58.2981         calculate D2E/DX2 analytically  !
 ! D21   D(4,3,5,13)          -178.3693         calculate D2E/DX2 analytically  !
 ! D22   D(4,3,5,14)            61.9746         calculate D2E/DX2 analytically  !
 ! D23   D(8,3,5,12)          -175.9962         calculate D2E/DX2 analytically  !
 ! D24   D(8,3,5,13)            63.9326         calculate D2E/DX2 analytically  !
 ! D25   D(8,3,5,14)           -55.7235         calculate D2E/DX2 analytically  !
 ! D26   D(1,6,7,2)             -1.3747         calculate D2E/DX2 analytically  !
 ! D27   D(1,6,7,16)           178.4926         calculate D2E/DX2 analytically  !
 ! D28   D(15,6,7,2)          -179.0702         calculate D2E/DX2 analytically  !
 ! D29   D(15,6,7,16)            0.7972         calculate D2E/DX2 analytically  !
 --------------------------------------------------------------------------------
 Trust Radius=3.00D-01 FncErr=1.00D-07 GrdErr=1.00D-06 EigMax=2.50D+02 EigMin=1.00D-04
 Number of steps in this run=    102 maximum allowed number of steps=    102.
 GradGradGradGradGradGradGradGradGradGradGradGradGradGradGradGradGradGrad

 Leave Link  103 at Sat Sep 28 04:22:11 2019, MaxMem=   671088640 cpu:               1.4 elap:               0.7
 (Enter /shared/centos7/gaussian/g16/l202.exe)
                          Input orientation:                          
 ---------------------------------------------------------------------
 Center     Atomic      Atomic             Coordinates (Angstroms)
 Number     Number       Type             X           Y           Z
 ---------------------------------------------------------------------
      1          8           0        0.748925   -2.813698    1.379998
      2          8           0        2.870321   -1.804430    2.950646
      3          6           0       -0.344592   -2.985336    0.503278
      4          6           0       -1.320146   -3.984062    1.126056
      5          6           0        0.074738   -3.381360   -0.874182
      6          6           0        1.676290   -1.918756    0.897329
      7          6           0        2.658551   -1.467190    1.622109
      8          1           0       -0.883951   -2.000797    0.425035
      9          1           0       -0.857476   -4.987908    1.228239
     10          1           0       -1.636900   -3.644454    2.128961
     11          1           0       -2.237043   -4.086380    0.484602
     12          1           0        0.562026   -4.400710   -0.886923
     13          1           0        0.803438   -2.649089   -1.280198
     14          1           0       -0.811527   -3.414684   -1.569154
     15          1           0        1.557590   -1.633443   -0.160141
     16          1           0        3.401145   -0.783193    1.238540
     17          1           0        2.140294   -2.441931    3.200516
 ---------------------------------------------------------------------
                    Distance matrix (angstroms):
                    1          2          3          4          5
     1  O    0.000000
     2  O    2.825929   0.000000
     3  C    1.412047   4.209491   0.000000
     4  C    2.390669   5.063590   1.528729   0.000000
     5  C    2.420350   4.993126   1.493342   2.511952   0.000000
     6  C    1.376189   2.378001   2.318800   3.646428   2.800435
     7  C    2.349121   1.386935   3.546183   4.733999   4.070823
     8  H    2.058894   4.528999   1.125320   2.148264   2.124383
     9  H    2.707535   5.195930   2.190642   1.110050   2.805386
    10  H    2.635007   4.937195   2.178839   1.105209   3.466669
    11  H    3.367114   6.113414   2.189524   1.123668   2.772666
    12  H    2.773530   5.176469   2.181261   2.787158   1.129905
    13  H    2.665841   4.783879   2.147516   3.475892   1.109989
    14  H    3.390234   6.047934   2.167335   2.801257   1.126748
    15  H    2.102133   3.380754   2.426115   3.932057   2.400816
    16  H    3.343236   2.063008   4.406879   5.705156   4.720069
    17  H    2.321293   1.000891   3.707430   4.319282   4.663927
                    6          7          8          9         10
     6  C    0.000000
     7  C    1.301558   0.000000
     8  H    2.604732   3.777173   0.000000
     9  H    3.993641   4.991295   3.093326   0.000000
    10  H    3.933469   4.842341   2.484332   1.795458   0.000000
    11  H    4.492562   5.667531   2.486777   1.808024   1.805377
    12  H    3.253496   4.392743   3.093811   2.614134   3.808248
    13  H    2.457007   3.641663   2.485032   3.810639   4.309103
    14  H    3.809275   5.100816   2.445630   3.209759   3.796062
    15  H    1.101697   2.101469   2.537420   4.360341   4.414625
    16  H    2.093096   1.080011   4.528399   5.984612   5.861873
    17  H    2.407007   1.926157   4.128432   4.399829   4.106273
                   11         12         13         14         15
    11  H    0.000000
    12  H    3.132837   0.000000
    13  H    3.798006   1.811387   0.000000
    14  H    2.588664   1.823276   1.810454   0.000000
    15  H    4.564190   3.029377   1.689618   3.281897   0.000000
    16  H    6.577889   5.066025   4.071080   5.705654   2.465346
    17  H    5.407539   4.799469   4.680480   5.692911   3.505312
                   16         17
    16  H    0.000000
    17  H    2.861906   0.000000
 Stoichiometry    C5H10O2
 Framework group  C1[X(C5H10O2)]
 Deg. of freedom    45
 Full point group                 C1      NOp   1
 Largest Abelian subgroup         C1      NOp   1
 Largest concise Abelian subgroup C1      NOp   1
                         Standard orientation:                         
 ---------------------------------------------------------------------
 Center     Atomic      Atomic             Coordinates (Angstroms)
 Number     Number       Type             X           Y           Z
 ---------------------------------------------------------------------
      1          8           0       -0.005784   -0.365245    0.053635
      2          8           0       -2.805349   -0.719338    0.205066
      3          6           0        1.313490   -0.025092   -0.317430
      4          6           0        2.229791   -1.209822   -0.011128
      5          6           0        1.785709    1.240352    0.319540
      6          6           0       -0.902133    0.648327   -0.197612
      7          6           0       -2.190323    0.482149   -0.113931
      8          1           0        1.331542    0.127623   -1.432194
      9          1           0        2.268894   -1.416772    1.078759
     10          1           0        1.872180   -2.120877   -0.524527
     11          1           0        3.275289   -0.996309   -0.363230
     12          1           0        1.864491    1.140187    1.442236
     13          1           0        1.080618    2.068761    0.098951
     14          1           0        2.801137    1.531869   -0.072233
     15          1           0       -0.458698    1.627292   -0.439956
     16          1           0       -2.894978    1.282000   -0.287492
     17          1           0       -2.070608   -1.382601    0.353458
 ---------------------------------------------------------------------
 Rotational constants (GHZ):           5.8788875           1.3736070           1.1644523
 Leave Link  202 at Sat Sep 28 04:22:12 2019, MaxMem=   671088640 cpu:               3.5 elap:               1.8
 (Enter /shared/centos7/gaussian/g16/l301.exe)
 Standard basis: CC-pVTZ (5D, 7F)
 Ernie: Thresh=  0.10000D-02 Tol=  0.10000D-05 Strict=F.
 Ernie:  21 primitive shells out of 262 were deleted.
 There are   395 symmetry adapted cartesian basis functions of A   symmetry.
 There are   350 symmetry adapted basis functions of A   symmetry.
   350 basis functions,   534 primitive gaussians,   395 cartesian basis functions
    28 alpha electrons       28 beta electrons
       nuclear repulsion energy       313.0648015227 Hartrees.
 IExCor= 4336 DFT=T Ex+Corr=M062X ExCW=0 ScaHFX=  0.540000
 ScaDFX=  1.000000  1.000000  1.000000  1.000000 ScalE2=  1.000000  1.000000
 IRadAn=      5 IRanWt=     -1 IRanGd=            0 ICorTp=0 IEmpDi=  4
 NAtoms=   17 NActive=   17 NUniq=   17 SFac= 1.00D+00 NAtFMM=   60 NAOKFM=F Big=F
 Integral buffers will be    131072 words long.
 Raffenetti 2 integral format.
 Two-electron integral symmetry is turned on.
 Leave Link  301 at Sat Sep 28 04:22:13 2019, MaxMem=   671088640 cpu:               1.8 elap:               0.9
 (Enter /shared/centos7/gaussian/g16/l302.exe)
 NPDir=0 NMtPBC=     1 NCelOv=     1 NCel=       1 NClECP=     1 NCelD=      1
         NCelK=      1 NCelE2=     1 NClLst=     1 CellRange=     0.0.
 One-electron integrals computed using PRISM.
 One-electron integral symmetry used in STVInt
 NBasis=   350 RedAO= T EigKep=  2.05D-04  NBF=   350
 NBsUse=   350 1.00D-06 EigRej= -1.00D+00 NBFU=   350
 Precomputing XC quadrature grid using
 IXCGrd= 4 IRadAn=           5 IRanWt=          -1 IRanGd=           0 AccXCQ= 0.00D+00.
 Generated NRdTot=       0 NPtTot=           0 NUsed=           0 NTot=          32
 NSgBfM=   395   395   395   395   395 MxSgAt=    17 MxSgA2=    17.
 Leave Link  302 at Sat Sep 28 04:23:05 2019, MaxMem=   671088640 cpu:             103.4 elap:              51.7
 (Enter /shared/centos7/gaussian/g16/l303.exe)
 DipDrv:  MaxL=1.
 Leave Link  303 at Sat Sep 28 04:23:09 2019, MaxMem=   671088640 cpu:               8.3 elap:               4.2
 (Enter /shared/centos7/gaussian/g16/l401.exe)
 ExpMin= 1.03D-01 ExpMax= 1.53D+04 ExpMxC= 5.22D+02 IAcc=3 IRadAn=         5 AccDes= 0.00D+00
 Harris functional with IExCor= 1009 and IRadAn=       5 diagonalized for initial guess.
 HarFok:  IExCor= 1009 AccDes= 0.00D+00 IRadAn=         5 IDoV= 1 UseB2=F ITyADJ=14
 ICtDFT=  3500011 ScaDFX=  1.000000  1.000000  1.000000  1.000000
 FoFCou: FMM=F IPFlag=           0 FMFlag=      100000 FMFlg1=           0
         NFxFlg=           0 DoJE=T BraDBF=F KetDBF=T FulRan=T
         wScrn=  0.000000 ICntrl=       500 IOpCl=  0 I1Cent=   200000004 NGrid=           0
         NMat0=    1 NMatS0=      1 NMatT0=    0 NMatD0=    1 NMtDS0=    0 NMtDT0=    0
 Petite list used in FoFCou.
 Harris En= -346.812313719369    
 JPrj=0 DoOrth=F DoCkMO=F.
 Leave Link  401 at Sat Sep 28 04:23:38 2019, MaxMem=   671088640 cpu:              58.0 elap:              29.0
 (Enter /shared/centos7/gaussian/g16/l502.exe)
 Integral symmetry usage will be decided dynamically.
 Closed shell SCF:
 Using DIIS extrapolation, IDIIS=  1040.
 NGot=   671088640 LenX=   670765141 LenY=   670608675
 Requested convergence on RMS density matrix=1.00D-08 within 900 cycles.
 Requested convergence on MAX density matrix=1.00D-06.
 Requested convergence on             energy=1.00D-06.
 No special actions if energy rises.
 Fock matrices will be formed incrementally for  20 cycles.
 Integral accuracy reduced to 1.0D-05 until final iterations.

 Cycle   1  Pass 0  IDiag  1:
 FoFJK:  IHMeth= 1 ICntrl=       0 DoSepK=F KAlg= 0 I1Cent=           0 FoldK=F
 IRaf= 940000000 NMat=       1 IRICut=       1 DoRegI=T DoRafI=F ISym2E= 0 IDoP0=0 IntGTp=1.
 FoFCou: FMM=F IPFlag=           0 FMFlag=      100000 FMFlg1=           0
         NFxFlg=           0 DoJE=F BraDBF=F KetDBF=F FulRan=T
         wScrn=  0.000000 ICntrl=         0 IOpCl=  0 I1Cent=           0 NGrid=           0
         NMat0=    1 NMatS0=      1 NMatT0=    0 NMatD0=    1 NMtDS0=    0 NMtDT0=    0
 Symmetry not used in FoFCou.
 E= -346.710868706011    
 DIIS: error= 2.04D-02 at cycle   1 NSaved=   1.
 NSaved= 1 IEnMin= 1 EnMin= -346.710868706011     IErMin= 1 ErrMin= 2.04D-02
 ErrMax= 2.04D-02  0.00D+00 EMaxC= 1.00D-01 BMatC= 2.80D-01 BMatP= 2.80D-01
 IDIUse=3 WtCom= 7.96D-01 WtEn= 2.04D-01
 Coeff-Com:  0.100D+01
 Coeff-En:   0.100D+01
 Coeff:      0.100D+01
 Gap=     0.354 Goal=   None    Shift=    0.000
 GapD=    0.354 DampG=1.000 DampE=0.500 DampFc=0.5000 IDamp=-1.
 Damping current iteration by 5.00D-01
 RMSDP=1.85D-03 MaxDP=7.66D-02              OVMax= 1.41D-01

 Cycle   2  Pass 0  IDiag  1:
 RMSU=  9.25D-04    CP:  9.98D-01
 E= -346.827875247684     Delta-E=       -0.117006541673 Rises=F Damp=T
 DIIS: error= 4.13D-03 at cycle   2 NSaved=   2.
 NSaved= 2 IEnMin= 2 EnMin= -346.827875247684     IErMin= 2 ErrMin= 4.13D-03
 ErrMax= 4.13D-03  0.00D+00 EMaxC= 1.00D-01 BMatC= 2.11D-02 BMatP= 2.80D-01
 IDIUse=3 WtCom= 9.59D-01 WtEn= 4.13D-02
 Coeff-Com: -0.141D+00 0.114D+01
 Coeff-En:   0.000D+00 0.100D+01
 Coeff:     -0.135D+00 0.113D+01
 Gap=     0.331 Goal=   None    Shift=    0.000
 RMSDP=4.12D-04 MaxDP=1.40D-02 DE=-1.17D-01 OVMax= 6.49D-02

 Cycle   3  Pass 0  IDiag  1:
 RMSU=  4.11D-04    CP:  1.00D+00  1.02D+00
 E= -346.931853643376     Delta-E=       -0.103978395692 Rises=F Damp=F
 DIIS: error= 2.19D-03 at cycle   3 NSaved=   3.
 NSaved= 3 IEnMin= 3 EnMin= -346.931853643376     IErMin= 3 ErrMin= 2.19D-03
 ErrMax= 2.19D-03  0.00D+00 EMaxC= 1.00D-01 BMatC= 3.60D-03 BMatP= 2.11D-02
 IDIUse=3 WtCom= 9.78D-01 WtEn= 2.19D-02
 Coeff-Com: -0.839D-01 0.316D+00 0.768D+00
 Coeff-En:   0.000D+00 0.000D+00 0.100D+01
 Coeff:     -0.820D-01 0.309D+00 0.773D+00
 Gap=     0.332 Goal=   None    Shift=    0.000
 RMSDP=1.38D-04 MaxDP=5.73D-03 DE=-1.04D-01 OVMax= 1.75D-02

 Cycle   4  Pass 0  IDiag  1:
 RMSU=  1.17D-04    CP:  1.00D+00  1.08D+00  8.86D-01
 E= -346.933679233886     Delta-E=       -0.001825590510 Rises=F Damp=F
 DIIS: error= 1.41D-03 at cycle   4 NSaved=   4.
 NSaved= 4 IEnMin= 4 EnMin= -346.933679233886     IErMin= 4 ErrMin= 1.41D-03
 ErrMax= 1.41D-03  0.00D+00 EMaxC= 1.00D-01 BMatC= 1.15D-03 BMatP= 3.60D-03
 IDIUse=3 WtCom= 9.86D-01 WtEn= 1.41D-02
 Coeff-Com: -0.281D-01 0.739D-01 0.401D+00 0.554D+00
 Coeff-En:   0.000D+00 0.000D+00 0.215D+00 0.785D+00
 Coeff:     -0.277D-01 0.729D-01 0.398D+00 0.557D+00
 Gap=     0.328 Goal=   None    Shift=    0.000
 RMSDP=5.84D-05 MaxDP=2.61D-03 DE=-1.83D-03 OVMax= 8.24D-03

 Cycle   5  Pass 0  IDiag  1:
 RMSU=  2.94D-05    CP:  1.00D+00  1.08D+00  9.31D-01  6.01D-01
 E= -346.934524605491     Delta-E=       -0.000845371605 Rises=F Damp=F
 DIIS: error= 2.46D-04 at cycle   5 NSaved=   5.
 NSaved= 5 IEnMin= 5 EnMin= -346.934524605491     IErMin= 5 ErrMin= 2.46D-04
 ErrMax= 2.46D-04  0.00D+00 EMaxC= 1.00D-01 BMatC= 2.73D-05 BMatP= 1.15D-03
 IDIUse=3 WtCom= 9.98D-01 WtEn= 2.46D-03
 Coeff-Com: -0.479D-02 0.924D-02 0.102D+00 0.207D+00 0.687D+00
 Coeff-En:   0.000D+00 0.000D+00 0.000D+00 0.000D+00 0.100D+01
 Coeff:     -0.478D-02 0.922D-02 0.101D+00 0.206D+00 0.688D+00
 Gap=     0.328 Goal=   None    Shift=    0.000
 RMSDP=1.25D-05 MaxDP=3.83D-04 DE=-8.45D-04 OVMax= 1.83D-03

 Cycle   6  Pass 0  IDiag  1:
 RMSU=  9.19D-06    CP:  1.00D+00  1.07D+00  9.36D-01  6.47D-01  7.94D-01
 E= -346.934545762977     Delta-E=       -0.000021157485 Rises=F Damp=F
 DIIS: error= 5.62D-05 at cycle   6 NSaved=   6.
 NSaved= 6 IEnMin= 6 EnMin= -346.934545762977     IErMin= 6 ErrMin= 5.62D-05
 ErrMax= 5.62D-05  0.00D+00 EMaxC= 1.00D-01 BMatC= 2.42D-06 BMatP= 2.73D-05
 IDIUse=1 WtCom= 1.00D+00 WtEn= 0.00D+00
 Coeff-Com: -0.137D-03-0.100D-02 0.180D-01 0.565D-01 0.282D+00 0.645D+00
 Coeff:     -0.137D-03-0.100D-02 0.180D-01 0.565D-01 0.282D+00 0.645D+00
 Gap=     0.328 Goal=   None    Shift=    0.000
 RMSDP=3.63D-06 MaxDP=1.61D-04 DE=-2.12D-05 OVMax= 5.61D-04

 Initial convergence to 1.0D-05 achieved.  Increase integral accuracy.
 Cycle   7  Pass 1  IDiag  1:
 E= -346.934545049297     Delta-E=        0.000000713680 Rises=F Damp=F
 DIIS: error= 3.80D-05 at cycle   1 NSaved=   1.
 NSaved= 1 IEnMin= 1 EnMin= -346.934545049297     IErMin= 1 ErrMin= 3.80D-05
 ErrMax= 3.80D-05  0.00D+00 EMaxC= 1.00D-01 BMatC= 7.93D-07 BMatP= 7.93D-07
 IDIUse=1 WtCom= 1.00D+00 WtEn= 0.00D+00
 Coeff-Com:  0.100D+01
 Coeff:      0.100D+01
 Gap=     0.328 Goal=   None    Shift=    0.000
 RMSDP=3.63D-06 MaxDP=1.61D-04 DE= 7.14D-07 OVMax= 4.42D-04

 Cycle   8  Pass 1  IDiag  1:
 RMSU=  8.15D-06    CP:  1.00D+00
 E= -346.934545142843     Delta-E=       -0.000000093546 Rises=F Damp=F
 DIIS: error= 2.52D-05 at cycle   2 NSaved=   2.
 NSaved= 2 IEnMin= 2 EnMin= -346.934545142843     IErMin= 2 ErrMin= 2.52D-05
 ErrMax= 2.52D-05  0.00D+00 EMaxC= 1.00D-01 BMatC= 4.66D-07 BMatP= 7.93D-07
 IDIUse=1 WtCom= 1.00D+00 WtEn= 0.00D+00
 Coeff-Com:  0.414D+00 0.586D+00
 Coeff:      0.414D+00 0.586D+00
 Gap=     0.328 Goal=   None    Shift=    0.000
 RMSDP=1.68D-06 MaxDP=8.08D-05 DE=-9.35D-08 OVMax= 3.29D-04

 Cycle   9  Pass 1  IDiag  1:
 RMSU=  1.67D-06    CP:  1.00D+00  9.78D-01
 E= -346.934545456989     Delta-E=       -0.000000314146 Rises=F Damp=F
 DIIS: error= 1.11D-05 at cycle   3 NSaved=   3.
 NSaved= 3 IEnMin= 3 EnMin= -346.934545456989     IErMin= 3 ErrMin= 1.11D-05
 ErrMax= 1.11D-05  0.00D+00 EMaxC= 1.00D-01 BMatC= 7.86D-08 BMatP= 4.66D-07
 IDIUse=1 WtCom= 1.00D+00 WtEn= 0.00D+00
 Coeff-Com: -0.743D-02 0.286D+00 0.722D+00
 Coeff:     -0.743D-02 0.286D+00 0.722D+00
 Gap=     0.328 Goal=   None    Shift=    0.000
 RMSDP=6.05D-07 MaxDP=2.47D-05 DE=-3.14D-07 OVMax= 1.09D-04

 Cycle  10  Pass 1  IDiag  1:
 RMSU=  3.21D-07    CP:  1.00D+00  1.01D+00  7.35D-01
 E= -346.934545520933     Delta-E=       -0.000000063944 Rises=F Damp=F
 DIIS: error= 1.93D-06 at cycle   4 NSaved=   4.
 NSaved= 4 IEnMin= 4 EnMin= -346.934545520933     IErMin= 4 ErrMin= 1.93D-06
 ErrMax= 1.93D-06  0.00D+00 EMaxC= 1.00D-01 BMatC= 1.89D-09 BMatP= 7.86D-08
 IDIUse=1 WtCom= 1.00D+00 WtEn= 0.00D+00
 Coeff-Com: -0.110D-01 0.104D+00 0.304D+00 0.603D+00
 Coeff:     -0.110D-01 0.104D+00 0.304D+00 0.603D+00
 Gap=     0.328 Goal=   None    Shift=    0.000
 RMSDP=8.93D-08 MaxDP=3.51D-06 DE=-6.39D-08 OVMax= 8.24D-06

 Cycle  11  Pass 1  IDiag  1:
 RMSU=  8.56D-08    CP:  1.00D+00  1.01D+00  7.48D-01  9.94D-01
 E= -346.934545522445     Delta-E=       -0.000000001512 Rises=F Damp=F
 DIIS: error= 4.45D-07 at cycle   5 NSaved=   5.
 NSaved= 5 IEnMin= 5 EnMin= -346.934545522445     IErMin= 5 ErrMin= 4.45D-07
 ErrMax= 4.45D-07  0.00D+00 EMaxC= 1.00D-01 BMatC= 1.55D-10 BMatP= 1.89D-09
 IDIUse=1 WtCom= 1.00D+00 WtEn= 0.00D+00
 Coeff-Com: -0.212D-02-0.130D-01-0.121D-01 0.180D+00 0.847D+00
 Coeff:     -0.212D-02-0.130D-01-0.121D-01 0.180D+00 0.847D+00
 Gap=     0.328 Goal=   None    Shift=    0.000
 RMSDP=4.74D-08 MaxDP=1.74D-06 DE=-1.51D-09 OVMax= 4.57D-06

 Cycle  12  Pass 1  IDiag  1:
 RMSU=  2.59D-08    CP:  1.00D+00  1.01D+00  7.55D-01  1.11D+00  1.09D+00
 E= -346.934545522617     Delta-E=       -0.000000000171 Rises=F Damp=F
 DIIS: error= 1.71D-07 at cycle   6 NSaved=   6.
 NSaved= 6 IEnMin= 6 EnMin= -346.934545522617     IErMin= 6 ErrMin= 1.71D-07
 ErrMax= 1.71D-07  0.00D+00 EMaxC= 1.00D-01 BMatC= 1.93D-11 BMatP= 1.55D-10
 IDIUse=1 WtCom= 1.00D+00 WtEn= 0.00D+00
 Coeff-Com:  0.563D-03-0.175D-01-0.405D-01 0.756D-03 0.324D+00 0.732D+00
 Coeff:      0.563D-03-0.175D-01-0.405D-01 0.756D-03 0.324D+00 0.732D+00
 Gap=     0.328 Goal=   None    Shift=    0.000
 RMSDP=1.44D-08 MaxDP=5.28D-07 DE=-1.71D-10 OVMax= 1.79D-06

 Cycle  13  Pass 1  IDiag  1:
 RMSU=  1.05D-08    CP:  1.00D+00  1.01D+00  7.55D-01  1.13D+00  1.14D+00
                    CP:  9.26D-01
 E= -346.934545522633     Delta-E=       -0.000000000017 Rises=F Damp=F
 DIIS: error= 4.42D-08 at cycle   7 NSaved=   7.
 NSaved= 7 IEnMin= 7 EnMin= -346.934545522633     IErMin= 7 ErrMin= 4.42D-08
 ErrMax= 4.42D-08  0.00D+00 EMaxC= 1.00D-01 BMatC= 2.06D-12 BMatP= 1.93D-11
 IDIUse=1 WtCom= 1.00D+00 WtEn= 0.00D+00
 Coeff-Com:  0.390D-03-0.693D-02-0.173D-01-0.130D-01 0.775D-01 0.308D+00
 Coeff-Com:  0.652D+00
 Coeff:      0.390D-03-0.693D-02-0.173D-01-0.130D-01 0.775D-01 0.308D+00
 Coeff:      0.652D+00
 Gap=     0.328 Goal=   None    Shift=    0.000
 RMSDP=4.11D-09 MaxDP=1.17D-07 DE=-1.67D-11 OVMax= 5.99D-07

 SCF Done:  E(RM062X) =  -346.934545523     A.U. after   13 cycles
            NFock= 13  Conv=0.41D-08     -V/T= 2.0063
 KE= 3.447455429140D+02 PE=-1.435971415596D+03 EE= 4.312265256361D+02
 Leave Link  502 at Sat Sep 28 04:33:21 2019, MaxMem=   671088640 cpu:            1164.6 elap:             582.5
 (Enter /shared/centos7/gaussian/g16/l801.exe)
 DoSCS=F DFT=T ScalE2(SS,OS)=  1.000000  1.000000
 Range of M.O.s used for correlation:     1   350
 NBasis=   350 NAE=    28 NBE=    28 NFC=     0 NFV=     0
 NROrb=    350 NOA=    28 NOB=    28 NVA=   322 NVB=   322

 **** Warning!!: The largest alpha MO coefficient is  0.12258810D+02

 Leave Link  801 at Sat Sep 28 04:33:22 2019, MaxMem=   671088640 cpu:               1.8 elap:               0.9
 (Enter /shared/centos7/gaussian/g16/l1101.exe)
 Using compressed storage, NAtomX=    17.
 Will process     18 centers per pass.
 Leave Link 1101 at Sat Sep 28 04:33:48 2019, MaxMem=   671088640 cpu:              53.3 elap:              26.7
 (Enter /shared/centos7/gaussian/g16/l1102.exe)
 Symmetrizing basis deriv contribution to polar:
 IMax=3 JMax=2 DiffMx= 0.00D+00
 Leave Link 1102 at Sat Sep 28 04:33:51 2019, MaxMem=   671088640 cpu:               5.5 elap:               2.8
 (Enter /shared/centos7/gaussian/g16/l1110.exe)
 Forming Gx(P) for the SCF density, NAtomX=    17.
 Integral derivatives from FoFJK, PRISM(SPDF).
 Do as many integral derivatives as possible in FoFJK.
 G2DrvN: MDV=     671087280.
 G2DrvN: will do    18 centers at a time, making    1 passes.
 Calling FoFCou, ICntrl=  3107 FMM=F I1Cent=   0 AccDes= 0.00D+00.
 FoFJK:  IHMeth= 1 ICntrl=    3107 DoSepK=F KAlg= 0 I1Cent=           0 FoldK=F
 IRaf=         0 NMat=       1 IRICut=       1 DoRegI=T DoRafI=F ISym2E= 0 IDoP0=0 IntGTp=1.
 FoFCou: FMM=F IPFlag=           0 FMFlag=      100000 FMFlg1=           0
         NFxFlg=           0 DoJE=F BraDBF=F KetDBF=F FulRan=T
         wScrn=  0.000000 ICntrl=      3107 IOpCl=  0 I1Cent=           0 NGrid=           0
         NMat0=    1 NMatS0=      1 NMatT0=    0 NMatD0=    1 NMtDS0=    0 NMtDT0=    0
 Symmetry not used in FoFCou.
 End of G2Drv F.D. properties file   721 does not exist.
 End of G2Drv F.D. properties file   722 does not exist.
 End of G2Drv F.D. properties file   788 does not exist.
 Leave Link 1110 at Sat Sep 28 04:50:55 2019, MaxMem=   671088640 cpu:            2048.1 elap:            1024.3
 (Enter /shared/centos7/gaussian/g16/l1002.exe)
 Minotr:  Closed shell wavefunction.
          IDoAtm=11111111111111111
          Direct CPHF calculation.
          Differentiating once with respect to nuclear coordinates.
          Requested convergence is 1.0D-08 RMS, and 1.0D-07 maximum.
          Secondary convergence is 1.0D-12 RMS, and 1.0D-12 maximum.
          NewPWx=T KeepS1=F KeepF1=F KeepIn=T MapXYZ=F SortEE=F KeepMc=T.
         5116 words used for storage of precomputed grid.
 Two-electron integrals replicated using symmetry.
          MDV=     671088640 using IRadAn=       1.
          Solving linear equations simultaneously, MaxMat=     380.
 FoF2E skips out because all densities are zero.
 CalDSu exits because no D1Ps are significant.
 FoFJK:  IHMeth= 1 ICntrl=       0 DoSepK=F KAlg= 0 I1Cent=           0 FoldK=F
 IRaf= 930000000 NMat=      51 IRICut=     127 DoRegI=T DoRafI=T ISym2E= 2 IDoP0=3 IntGTp=3.
 FoFCou: FMM=F IPFlag=           0 FMFlag=      100000 FMFlg1=           0
         NFxFlg=           0 DoJE=F BraDBF=F KetDBF=F FulRan=T
         wScrn=  0.000000 ICntrl=         0 IOpCl=  0 I1Cent=           0 NGrid=           0
         NMat0=   51 NMatS0=     51 NMatT0=    0 NMatD0=   51 NMtDS0=    0 NMtDT0=    0
 Integrals replicated using symmetry in FoFCou.
 Raff kept on since  89.58% of shell-pairs survive, threshold=   0.20 IRatSp=90.
          There are    54 degrees of freedom in the 1st order CPHF.  IDoFFX=6 NUNeed=     0.
     48 vectors produced by pass  0 Test12= 1.67D-14 1.85D-09 XBig12= 6.79D-02 7.24D-02.
 AX will form    48 AO Fock derivatives at one time.
     48 vectors produced by pass  1 Test12= 1.67D-14 1.85D-09 XBig12= 1.38D-02 2.66D-02.
     48 vectors produced by pass  2 Test12= 1.67D-14 1.85D-09 XBig12= 4.93D-04 3.36D-03.
     48 vectors produced by pass  3 Test12= 1.67D-14 1.85D-09 XBig12= 5.77D-06 2.96D-04.
     48 vectors produced by pass  4 Test12= 1.67D-14 1.85D-09 XBig12= 4.90D-08 3.24D-05.
     48 vectors produced by pass  5 Test12= 1.67D-14 1.85D-09 XBig12= 2.14D-10 1.70D-06.
     27 vectors produced by pass  6 Test12= 1.67D-14 1.85D-09 XBig12= 9.32D-13 1.28D-07.
      4 vectors produced by pass  7 Test12= 1.67D-14 1.85D-09 XBig12= 3.70D-15 6.19D-09.
 InvSVY:  IOpt=1 It=  1 EMax= 3.33D-16
 Solved reduced A of dimension   319 with    54 vectors.
 End of Minotr F.D. properties file   721 does not exist.
 End of Minotr F.D. properties file   722 does not exist.
 End of Minotr F.D. properties file   788 does not exist.
 Leave Link 1002 at Sat Sep 28 05:19:56 2019, MaxMem=   671088640 cpu:            3480.3 elap:            1740.6
 (Enter /shared/centos7/gaussian/g16/l601.exe)
 Copying SCF densities to generalized density rwf, IOpCl= 0 IROHF=0.

 **********************************************************************

            Population analysis using the SCF density.

 **********************************************************************

 Orbital symmetries:
       Occupied  (A) (A) (A) (A) (A) (A) (A) (A) (A) (A) (A) (A)
                 (A) (A) (A) (A) (A) (A) (A) (A) (A) (A) (A) (A)
                 (A) (A) (A) (A)
       Virtual   (A) (A) (A) (A) (A) (A) (A) (A) (A) (A) (A) (A)
                 (A) (A) (A) (A) (A) (A) (A) (A) (A) (A) (A) (A)
                 (A) (A) (A) (A) (A) (A) (A) (A) (A) (A) (A) (A)
                 (A) (A) (A) (A) (A) (A) (A) (A) (A) (A) (A) (A)
                 (A) (A) (A) (A) (A) (A) (A) (A) (A) (A) (A) (A)
                 (A) (A) (A) (A) (A) (A) (A) (A) (A) (A) (A) (A)
                 (A) (A) (A) (A) (A) (A) (A) (A) (A) (A) (A) (A)
                 (A) (A) (A) (A) (A) (A) (A) (A) (A) (A) (A) (A)
                 (A) (A) (A) (A) (A) (A) (A) (A) (A) (A) (A) (A)
                 (A) (A) (A) (A) (A) (A) (A) (A) (A) (A) (A) (A)
                 (A) (A) (A) (A) (A) (A) (A) (A) (A) (A) (A) (A)
                 (A) (A) (A) (A) (A) (A) (A) (A) (A) (A) (A) (A)
                 (A) (A) (A) (A) (A) (A) (A) (A) (A) (A) (A) (A)
                 (A) (A) (A) (A) (A) (A) (A) (A) (A) (A) (A) (A)
                 (A) (A) (A) (A) (A) (A) (A) (A) (A) (A) (A) (A)
                 (A) (A) (A) (A) (A) (A) (A) (A) (A) (A) (A) (A)
                 (A) (A) (A) (A) (A) (A) (A) (A) (A) (A) (A) (A)
                 (A) (A) (A) (A) (A) (A) (A) (A) (A) (A) (A) (A)
                 (A) (A) (A) (A) (A) (A) (A) (A) (A) (A) (A) (A)
                 (A) (A) (A) (A) (A) (A) (A) (A) (A) (A) (A) (A)
                 (A) (A) (A) (A) (A) (A) (A) (A) (A) (A) (A) (A)
                 (A) (A) (A) (A) (A) (A) (A) (A) (A) (A) (A) (A)
                 (A) (A) (A) (A) (A) (A) (A) (A) (A) (A) (A) (A)
                 (A) (A) (A) (A) (A) (A) (A) (A) (A) (A) (A) (A)
                 (A) (A) (A) (A) (A) (A) (A) (A) (A) (A) (A) (A)
                 (A) (A) (A) (A) (A) (A) (A) (A) (A) (A) (A) (A)
                 (A) (A) (A) (A) (A) (A) (A) (A) (A) (A)
 The electronic state is 1-A.
 Alpha  occ. eigenvalues --  -19.65217 -19.63923 -10.60456 -10.57909 -10.57533
 Alpha  occ. eigenvalues --  -10.54307 -10.54108  -1.19348  -1.15055  -0.89988
 Alpha  occ. eigenvalues --   -0.83892  -0.78978  -0.70110  -0.65617  -0.60329
 Alpha  occ. eigenvalues --   -0.59630  -0.54842  -0.51499  -0.48647  -0.47820
 Alpha  occ. eigenvalues --   -0.45881  -0.45296  -0.44892  -0.43517  -0.43318
 Alpha  occ. eigenvalues --   -0.39082  -0.38156  -0.26834
 Alpha virt. eigenvalues --    0.05989   0.07916   0.08390   0.09682   0.10635
 Alpha virt. eigenvalues --    0.11229   0.11953   0.13843   0.15297   0.16855
 Alpha virt. eigenvalues --    0.18544   0.18985   0.21253   0.23379   0.25182
 Alpha virt. eigenvalues --    0.26404   0.27572   0.29320   0.32065   0.33439
 Alpha virt. eigenvalues --    0.35152   0.36472   0.36965   0.37278   0.39952
 Alpha virt. eigenvalues --    0.41354   0.42222   0.44464   0.44902   0.45757
 Alpha virt. eigenvalues --    0.47303   0.47705   0.48346   0.49123   0.50066
 Alpha virt. eigenvalues --    0.50815   0.51009   0.52143   0.53005   0.55322
 Alpha virt. eigenvalues --    0.55942   0.59288   0.59483   0.60855   0.62483
 Alpha virt. eigenvalues --    0.64933   0.66576   0.69260   0.70945   0.72122
 Alpha virt. eigenvalues --    0.72826   0.75915   0.77801   0.78450   0.80664
 Alpha virt. eigenvalues --    0.82542   0.83173   0.85707   0.86823   0.88628
 Alpha virt. eigenvalues --    0.90002   0.93640   0.95270   0.96693   0.98044
 Alpha virt. eigenvalues --    0.99814   1.01594   1.03009   1.04396   1.05103
 Alpha virt. eigenvalues --    1.06270   1.08365   1.11491   1.11708   1.12260
 Alpha virt. eigenvalues --    1.15262   1.16582   1.17626   1.19036   1.21861
 Alpha virt. eigenvalues --    1.21952   1.24019   1.24883   1.27188   1.29125
 Alpha virt. eigenvalues --    1.29971   1.30655   1.31522   1.32777   1.33126
 Alpha virt. eigenvalues --    1.36017   1.37508   1.39250   1.39923   1.41331
 Alpha virt. eigenvalues --    1.41794   1.43835   1.48359   1.49917   1.50010
 Alpha virt. eigenvalues --    1.53024   1.53701   1.56194   1.59507   1.62814
 Alpha virt. eigenvalues --    1.64175   1.68416   1.74842   1.79521   1.81453
 Alpha virt. eigenvalues --    1.88139   1.96912   2.00528   2.01401   2.04871
 Alpha virt. eigenvalues --    2.10405   2.10852   2.15897   2.17127   2.23445
 Alpha virt. eigenvalues --    2.24626   2.27452   2.28377   2.30509   2.33535
 Alpha virt. eigenvalues --    2.37061   2.39475   2.41360   2.45900   2.46968
 Alpha virt. eigenvalues --    2.47914   2.50930   2.52033   2.56016   2.57072
 Alpha virt. eigenvalues --    2.59691   2.61384   2.62381   2.65933   2.69188
 Alpha virt. eigenvalues --    2.69584   2.72043   2.75750   2.76944   2.78498
 Alpha virt. eigenvalues --    2.81046   2.81050   2.81901   2.83399   2.86011
 Alpha virt. eigenvalues --    2.86784   2.87647   2.91290   2.92265   2.93189
 Alpha virt. eigenvalues --    2.95013   2.97256   2.98038   3.00422   3.00897
 Alpha virt. eigenvalues --    3.03059   3.04139   3.05482   3.06710   3.07291
 Alpha virt. eigenvalues --    3.09538   3.09732   3.11107   3.12348   3.13068
 Alpha virt. eigenvalues --    3.13563   3.15435   3.19269   3.21771   3.23760
 Alpha virt. eigenvalues --    3.24903   3.25205   3.27920   3.28263   3.28655
 Alpha virt. eigenvalues --    3.29738   3.31724   3.32599   3.33209   3.35179
 Alpha virt. eigenvalues --    3.37268   3.38693   3.39262   3.39863   3.42000
 Alpha virt. eigenvalues --    3.43441   3.45306   3.47725   3.48079   3.50817
 Alpha virt. eigenvalues --    3.53478   3.54183   3.57109   3.59889   3.61287
 Alpha virt. eigenvalues --    3.62528   3.65924   3.66456   3.70127   3.71750
 Alpha virt. eigenvalues --    3.72477   3.73502   3.76489   3.77016   3.79093
 Alpha virt. eigenvalues --    3.79975   3.81623   3.82997   3.83468   3.85736
 Alpha virt. eigenvalues --    3.87329   3.90129   3.91188   3.92320   3.92797
 Alpha virt. eigenvalues --    3.95310   3.95759   3.97476   4.00263   4.01862
 Alpha virt. eigenvalues --    4.02767   4.03744   4.04427   4.06571   4.08452
 Alpha virt. eigenvalues --    4.09019   4.11453   4.12534   4.15231   4.17980
 Alpha virt. eigenvalues --    4.19050   4.23840   4.24638   4.26921   4.28339
 Alpha virt. eigenvalues --    4.30016   4.31493   4.35786   4.40236   4.41178
 Alpha virt. eigenvalues --    4.45238   4.46865   4.50761   4.52572   4.55568
 Alpha virt. eigenvalues --    4.61173   4.63646   4.65130   4.67461   4.69819
 Alpha virt. eigenvalues --    4.70759   4.72204   4.75249   4.78285   4.79981
 Alpha virt. eigenvalues --    4.81465   4.84757   4.86816   4.91793   4.95512
 Alpha virt. eigenvalues --    4.96911   4.97246   5.00305   5.01583   5.03789
 Alpha virt. eigenvalues --    5.05400   5.09176   5.10151   5.14782   5.18912
 Alpha virt. eigenvalues --    5.21692   5.22846   5.24446   5.26675   5.28874
 Alpha virt. eigenvalues --    5.31376   5.33310   5.42202   5.44194   5.47455
 Alpha virt. eigenvalues --    5.51853   5.53885   5.63570   5.68347   5.72766
 Alpha virt. eigenvalues --    5.75791   5.76845   5.78914   5.82718   5.85789
 Alpha virt. eigenvalues --    5.91943   5.98392   5.99788   6.21006   6.32777
 Alpha virt. eigenvalues --    6.38722   6.42627   6.55508   6.59538   6.70439
 Alpha virt. eigenvalues --    6.73409   6.78645   6.80362   6.83220   6.95046
 Alpha virt. eigenvalues --    7.05317   7.13354   7.27582   7.37029   7.42794
 Alpha virt. eigenvalues --   10.32775  11.17713  11.53553  11.92482  13.22115
 Alpha virt. eigenvalues --   13.29963  14.43005
          Condensed to atoms (all electrons):
               1          2          3          4          5          6
     1  O    7.898181  -0.002931   0.311736  -0.046251  -0.048484   0.325001
     2  O   -0.002931   7.795885  -0.000213  -0.000057  -0.000135  -0.087516
     3  C    0.311736  -0.000213   4.854123   0.344666   0.319265  -0.060231
     4  C   -0.046251  -0.000057   0.344666   4.945911  -0.059948   0.004618
     5  C   -0.048484  -0.000135   0.319265  -0.059948   5.090272  -0.031714
     6  C    0.325001  -0.087516  -0.060231   0.004618  -0.031714   5.050415
     7  C   -0.074632   0.366324  -0.002940   0.000213  -0.001657   0.546162
     8  H   -0.056718  -0.000125   0.401393  -0.029652  -0.089486   0.006287
     9  H    0.001887   0.000002  -0.037344   0.400762  -0.012040  -0.000174
    10  H    0.002433   0.000015  -0.033318   0.399293   0.010050  -0.000480
    11  H    0.003463   0.000000  -0.034665   0.389170  -0.000801  -0.000117
    12  H    0.002884   0.000011  -0.033258  -0.006180   0.381130   0.000579
    13  H   -0.001124  -0.000089  -0.039944   0.008393   0.416198  -0.009463
    14  H    0.004122   0.000001  -0.028503  -0.007937   0.391814   0.002264
    15  H   -0.058309   0.005669  -0.000477  -0.000427  -0.010141   0.374067
    16  H    0.003101  -0.035216  -0.000414   0.000023   0.000047  -0.075383
    17  H    0.016438   0.327172  -0.000580  -0.000128   0.000127  -0.025897
               7          8          9         10         11         12
     1  O   -0.074632  -0.056718   0.001887   0.002433   0.003463   0.002884
     2  O    0.366324  -0.000125   0.000002   0.000015   0.000000   0.000011
     3  C   -0.002940   0.401393  -0.037344  -0.033318  -0.034665  -0.033258
     4  C    0.000213  -0.029652   0.400762   0.399293   0.389170  -0.006180
     5  C   -0.001657  -0.089486  -0.012040   0.010050  -0.000801   0.381130
     6  C    0.546162   0.006287  -0.000174  -0.000480  -0.000117   0.000579
     7  C    4.844891   0.003811  -0.000024  -0.000215  -0.000014  -0.000078
     8  H    0.003811   0.654523   0.009392  -0.010143  -0.002646   0.010561
     9  H   -0.000024   0.009392   0.575345  -0.032038  -0.032256   0.005108
    10  H   -0.000215  -0.010143  -0.032038   0.566598  -0.027163  -0.000267
    11  H   -0.000014  -0.002646  -0.032256  -0.027163   0.598523   0.000103
    12  H   -0.000078   0.010561   0.005108  -0.000267   0.000103   0.577368
    13  H    0.001073  -0.012514  -0.000414  -0.000366  -0.000187  -0.034900
    14  H    0.000070  -0.001380   0.000442  -0.000184   0.000006  -0.027366
    15  H   -0.042014   0.002685   0.000095   0.000114   0.000194   0.001340
    16  H    0.433192  -0.000088  -0.000001  -0.000001  -0.000002  -0.000013
    17  H   -0.035930   0.000081   0.000046   0.000161   0.000003   0.000021
              13         14         15         16         17
     1  O   -0.001124   0.004122  -0.058309   0.003101   0.016438
     2  O   -0.000089   0.000001   0.005669  -0.035216   0.327172
     3  C   -0.039944  -0.028503  -0.000477  -0.000414  -0.000580
     4  C    0.008393  -0.007937  -0.000427   0.000023  -0.000128
     5  C    0.416198   0.391814  -0.010141   0.000047   0.000127
     6  C   -0.009463   0.002264   0.374067  -0.075383  -0.025897
     7  C    0.001073   0.000070  -0.042014   0.433192  -0.035930
     8  H   -0.012514  -0.001380   0.002685  -0.000088   0.000081
     9  H   -0.000414   0.000442   0.000095  -0.000001   0.000046
    10  H   -0.000366  -0.000184   0.000114  -0.000001   0.000161
    11  H   -0.000187   0.000006   0.000194  -0.000002   0.000003
    12  H   -0.034900  -0.027366   0.001340  -0.000013   0.000021
    13  H    0.595627  -0.029644  -0.012941   0.000235  -0.000051
    14  H   -0.029644   0.573972  -0.000164  -0.000005  -0.000009
    15  H   -0.012941  -0.000164   0.634697  -0.006243   0.001525
    16  H    0.000235  -0.000005  -0.006243   0.528602   0.006285
    17  H   -0.000051  -0.000009   0.001525   0.006285   0.437139
 Mulliken charges:
               1
     1  O   -0.280797
     2  O   -0.368796
     3  C    0.040704
     4  C   -0.342470
     5  C   -0.354497
     6  C   -0.018417
     7  C   -0.038231
     8  H    0.114019
     9  H    0.121211
    10  H    0.125510
    11  H    0.106389
    12  H    0.122957
    13  H    0.120109
    14  H    0.122500
    15  H    0.110330
    16  H    0.145881
    17  H    0.273596
 Sum of Mulliken charges =  -0.00000
 Mulliken charges with hydrogens summed into heavy atoms:
               1
     1  O   -0.280797
     2  O   -0.095199
     3  C    0.154723
     4  C    0.010641
     5  C    0.011069
     6  C    0.091912
     7  C    0.107650
 APT charges:
               1
     1  O   -0.196941
     2  O   -0.173131
     3  C   -0.199709
     4  C   -1.185112
     5  C   -1.093360
     6  C   -0.411086
     7  C   -0.435783
     8  H    0.323273
     9  H    0.334304
    10  H    0.340274
    11  H    0.500626
    12  H    0.327267
    13  H    0.242020
    14  H    0.515927
    15  H    0.298936
    16  H    0.577161
    17  H    0.235334
 Sum of APT charges =  -0.00000
 APT charges with hydrogens summed into heavy atoms:
               1
     1  O   -0.196941
     2  O    0.062204
     3  C    0.123564
     4  C   -0.009908
     5  C   -0.008146
     6  C   -0.112150
     7  C    0.141378
 Electronic spatial extent (au):  <R**2>=           1024.8810
 Charge=             -0.0000 electrons
 Dipole moment (field-independent basis, Debye):
    X=              2.4630    Y=              0.8735    Z=             -0.4189  Tot=              2.6467
 Quadrupole moment (field-independent basis, Debye-Ang):
   XX=            -47.2113   YY=            -40.7188   ZZ=            -45.2979
   XY=             -2.1124   XZ=              0.1205   YZ=             -1.0448
 Traceless Quadrupole moment (field-independent basis, Debye-Ang):
   XX=             -2.8020   YY=              3.6906   ZZ=             -0.8886
   XY=             -2.1124   XZ=              0.1205   YZ=             -1.0448
 Octapole moment (field-independent basis, Debye-Ang**2):
  XXX=             15.0789  YYY=             -7.4327  ZZZ=              2.9079  XYY=             -8.7268
  XXY=              8.8048  XXZ=             -3.4205  XZZ=             -0.2309  YZZ=             -3.0971
  YYZ=             -0.3162  XYZ=              1.5904
 Hexadecapole moment (field-independent basis, Debye-Ang**3):
 XXXX=          -1049.0739 YYYY=           -265.2098 ZZZZ=            -83.3762 XXXY=            -30.0083
 XXXZ=              1.2412 YYYX=             11.7145 YYYZ=             -4.9436 ZZZX=             -1.5465
 ZZZY=             -0.9735 XXYY=           -203.9806 XXZZ=           -185.2478 YYZZ=            -61.1412
 XXYZ=             -4.7915 YYXZ=             -2.5842 ZZXY=              3.7131
 N-N= 3.130648015227D+02 E-N=-1.435971408605D+03  KE= 3.447455429140D+02
  Exact polarizability:   0.000   0.000   0.000   0.000   0.000   0.000
 Approx polarizability:  95.708   1.810  76.334  -2.217  -3.064  68.476
 No NMR shielding tensors so no spin-rotation constants.
 Leave Link  601 at Sat Sep 28 05:20:22 2019, MaxMem=   671088640 cpu:              52.4 elap:              26.2
 (Enter /shared/centos7/gaussian/g16/l701.exe)
 SCFChk:  SCF convergence  4.11D-09 required  1.00D-08
 ... and contract with generalized density number  0.
 Compute integral second derivatives.
 Entering OneElI...
 Calculate overlap and kinetic energy integrals
    NBasis = 395  MinDer = 2  MaxDer = 2
 Requested accuracy = 0.1000D-12
 PrmmSu-InSpLW:  IPartL=    0 NPrtUS=   20 NPrtUL=    1 DoSpLW=F IThBeg=    0 IThEnd=   19 NThAct=   20.
 PrsmSu:  NPrtUS=  20 ThrOK=T IAlg=1 NPAlg=1 LenDen=           0 ISkipM=0 DoSpLW=F IThBeg=    0 IThEnd=   19.
 Prism:   IPart=     0 DynPar=F LinDyn=F Incr=           4.
 PRISM was handed    33315006 working-precision words and  8404 shell-pairs
 PRISM was handed    33315006 working-precision words and  8404 shell-pairs
 PRISM was handed    33315006 working-precision words and  8404 shell-pairs
 PRISM was handed    33315006 working-precision words and  8404 shell-pairs
 PRISM was handed    33315006 working-precision words and  8404 shell-pairs
 PRISM was handed    33315006 working-precision words and  8404 shell-pairs
 PRISM was handed    33315006 working-precision words and  8404 shell-pairs
 PRISM was handed    33315006 working-precision words and  8404 shell-pairs
 PRISM was handed    33315006 working-precision words and  8404 shell-pairs
 PRISM was handed    33315006 working-precision words and  8404 shell-pairs
 PRISM was handed    33315006 working-precision words and  8404 shell-pairs
 PRISM was handed    33315006 working-precision words and  8404 shell-pairs
 PRISM was handed    33315006 working-precision words and  8404 shell-pairs
 PRISM was handed    33315006 working-precision words and  8404 shell-pairs
 PRISM was handed    33315006 working-precision words and  8404 shell-pairs
 PRISM was handed    33315006 working-precision words and  8404 shell-pairs
 IPart=  0 NShTot=         464 NBatch=          84 AvBLen=         5.5
 IPart=  1 NShTot=         458 NBatch=          79 AvBLen=         5.8
 PRISM was handed    33315006 working-precision words and  8404 shell-pairs
 IPart= 12 NShTot=         407 NBatch=          45 AvBLen=         9.0
 IPart=  7 NShTot=         420 NBatch=          52 AvBLen=         8.1
 PRISM was handed    33315006 working-precision words and  8404 shell-pairs
 PRISM was handed    33315006 working-precision words and  8404 shell-pairs
 IPart=  5 NShTot=         437 NBatch=          62 AvBLen=         7.0
 IPart= 17 NShTot=         397 NBatch=          39 AvBLen=        10.2
 PRISM was handed    33315006 working-precision words and  8404 shell-pairs
 IPart= 19 NShTot=         392 NBatch=          36 AvBLen=        10.9
 IPart= 14 NShTot=         402 NBatch=          41 AvBLen=         9.8
 IPart=  9 NShTot=         414 NBatch=          50 AvBLen=         8.3
 IPart= 18 NShTot=         394 NBatch=          37 AvBLen=        10.6
 IPart= 13 NShTot=         406 NBatch=          44 AvBLen=         9.2
 IPart= 11 NShTot=         411 NBatch=          48 AvBLen=         8.6
 IPart=  6 NShTot=         431 NBatch=          60 AvBLen=         7.2
 IPart= 10 NShTot=         412 NBatch=          49 AvBLen=         8.4
 IPart= 16 NShTot=         400 NBatch=          41 AvBLen=         9.8
 IPart=  8 NShTot=         418 NBatch=          51 AvBLen=         8.2
 IPart=  2 NShTot=         450 NBatch=          74 AvBLen=         6.1
 IPart= 15 NShTot=         402 NBatch=          41 AvBLen=         9.8
 IPart=  3 NShTot=         448 NBatch=          72 AvBLen=         6.2
 IPart=  4 NShTot=         441 NBatch=          65 AvBLen=         6.8
 PrSmSu:  NxtVal=             81.
 Entering OneElI...
 Calculate potential energy integrals
    NBasis = 395  MinDer = 2  MaxDer = 2
 Requested accuracy = 0.1000D-12
 PrmmSu-InSpLW:  IPartL=    0 NPrtUS=   20 NPrtUL=    1 DoSpLW=F IThBeg=    0 IThEnd=   19 NThAct=   20.
 PrsmSu:  NPrtUS=  20 ThrOK=T IAlg=1 NPAlg=1 LenDen=           0 ISkipM=0 DoSpLW=F IThBeg=    0 IThEnd=   19.
 Prism:   IPart=     0 DynPar=F LinDyn=F Incr=          64.
 PRISM was handed    33357812 working-precision words and  7589 shell-pairs
 PRISM was handed    33357812 working-precision words and  7589 shell-pairs
 PRISM was handed    33357812 working-precision words and  7589 shell-pairs
 PRISM was handed    33357812 working-precision words and  7589 shell-pairs
 PRISM was handed    33357812 working-precision words and  7589 shell-pairs
 PRISM was handed    33357812 working-precision words and  7589 shell-pairs
 PRISM was handed    33357812 working-precision words and  7589 shell-pairs
 PRISM was handed    33357812 working-precision words and  7589 shell-pairs
 PRISM was handed    33357812 working-precision words and  7589 shell-pairs
 PRISM was handed    33357812 working-precision words and  7589 shell-pairs
 PRISM was handed    33357812 working-precision words and  7589 shell-pairs
 PRISM was handed    33357812 working-precision words and  7589 shell-pairs
 PRISM was handed    33357812 working-precision words and  7589 shell-pairs
 PRISM was handed    33357812 working-precision words and  7589 shell-pairs
 PRISM was handed    33357812 working-precision words and  7589 shell-pairs
 PRISM was handed    33357812 working-precision words and  7589 shell-pairs
 PRISM was handed    33357812 working-precision words and  7589 shell-pairs
 PRISM was handed    33357812 working-precision words and  7589 shell-pairs
 PRISM was handed    33357812 working-precision words and  7589 shell-pairs
 PRISM was handed    33357812 working-precision words and  7589 shell-pairs
 IPart= 16 NShTot=        6086 NBatch=         358 AvBLen=        17.0
 IPart= 18 NShTot=        6035 NBatch=         355 AvBLen=        17.0
 IPart= 12 NShTot=        6239 NBatch=         367 AvBLen=        17.0
 IPart= 17 NShTot=        6069 NBatch=         357 AvBLen=        17.0
 IPart=  6 NShTot=        6647 NBatch=         391 AvBLen=        17.0
 IPart= 13 NShTot=        6205 NBatch=         365 AvBLen=        17.0
 IPart= 11 NShTot=        6307 NBatch=         371 AvBLen=        17.0
 IPart=  1 NShTot=        7021 NBatch=         413 AvBLen=        17.0
 IPart=  9 NShTot=        6392 NBatch=         376 AvBLen=        17.0
 IPart=  0 NShTot=        7089 NBatch=         417 AvBLen=        17.0
 IPart=  2 NShTot=        6953 NBatch=         409 AvBLen=        17.0
 IPart=  8 NShTot=        6426 NBatch=         378 AvBLen=        17.0
 IPart=  4 NShTot=        6800 NBatch=         400 AvBLen=        17.0
 IPart=  5 NShTot=        6698 NBatch=         394 AvBLen=        17.0
 IPart=  3 NShTot=        6868 NBatch=         404 AvBLen=        17.0
 IPart= 19 NShTot=        6001 NBatch=         353 AvBLen=        17.0
 IPart= 10 NShTot=        6375 NBatch=         375 AvBLen=        17.0
 IPart= 14 NShTot=        6171 NBatch=         363 AvBLen=        17.0
 IPart= 15 NShTot=        6120 NBatch=         360 AvBLen=        17.0
 IPart=  7 NShTot=        6511 NBatch=         383 AvBLen=        17.0
 PrSmSu:  NxtVal=           1281.
 Polarizability after L701:
                1             2             3 
      1  0.000000D+00
      2  0.000000D+00  0.000000D+00
      3  0.000000D+00  0.000000D+00  0.000000D+00
 Dipole Derivatives after L701:
                 1             2             3             4             5 
      1  -0.227849D+00  0.254628D-01 -0.359579D-01  0.760933D+00 -0.185063D+00
      2   0.194248D-01 -0.142767D+00 -0.570122D-01  0.596134D+00 -0.849371D+00
      3  -0.228388D-01 -0.693896D-01 -0.220209D+00 -0.159858D+00  0.104237D+00
                 6             7             8             9            10 
      1   0.197459D-01 -0.117888D+00 -0.104608D+00  0.690786D+00 -0.141737D+01
      2   0.952195D-01 -0.131478D+00  0.132043D+00  0.101145D+00  0.192308D+00
      3  -0.430954D+00  0.103612D+00  0.295146D-01 -0.613283D+00  0.431638D-01
                11            12            13            14            15 
      1   0.794273D+00 -0.159005D+00 -0.119385D+01 -0.799852D+00 -0.455590D+00
      2  -0.117241D+01  0.599625D-01 -0.173399D+00 -0.124243D+01 -0.167146D+00
      3  -0.492434D-01 -0.965557D+00  0.905966D-02  0.458780D-01 -0.843804D+00
                16            17            18            19            20 
      1  -0.623259D+00  0.142374D+00  0.143879D+00 -0.715898D+00  0.411381D+00
      2   0.183560D+00 -0.628778D+00  0.105639D+00 -0.269673D-01 -0.570547D+00
      3  -0.449777D-01  0.217872D+00  0.187784D-01  0.522009D-01  0.160095D+00
                21            22            23            24            25 
      1  -0.232244D+00  0.198777D+00  0.680084D-01 -0.438239D+00  0.186824D+00
      2   0.225248D+00  0.222821D-01  0.160562D+00 -0.272899D-01 -0.541897D-01
      3  -0.209053D-01 -0.375470D-01 -0.378773D-01  0.610480D+00  0.282366D-01
                26            27            28            29            30 
      1  -0.198671D+00  0.792472D+00 -0.626744D-01 -0.575737D+00 -0.290561D+00
      2   0.229532D+00 -0.509187D+00  0.241342D+00  0.846604D+00  0.390639D+00
      3  -0.992516D-01  0.586556D+00  0.806900D-01  0.195805D+00  0.236891D+00
                31            32            33            34            35 
      1   0.130211D+01  0.197241D+00 -0.360932D+00  0.172543D+00 -0.299998D-01
      2  -0.309412D+00  0.513437D-01  0.811436D-01  0.417162D-01  0.941875D-01
      3  -0.164444D+00 -0.354409D-01  0.148428D+00  0.571414D-01 -0.407333D-01
                36            37            38            39            40 
      1   0.676508D+00 -0.117889D+00  0.267704D+00 -0.550700D-01  0.112964D+01
      2   0.394340D+00 -0.592900D+00  0.713726D+00 -0.184646D+00  0.527535D+00
      3   0.715070D+00  0.111259D-01  0.224474D-01  0.130222D+00 -0.658242D-01
                41            42            43            44            45 
      1   0.331283D+00 -0.354939D+00  0.104006D+00 -0.139138D+00  0.568645D-02
      2   0.282253D+00 -0.175595D+00  0.285934D+00  0.713567D+00 -0.949245D-01
      3  -0.117443D-01  0.135891D+00 -0.798752D-01 -0.189405D+00  0.792362D-01
                46            47            48            49            50 
      1   0.103196D+01 -0.960457D+00  0.226466D+00 -0.410111D+00  0.755801D+00
      2  -0.372725D+00  0.585862D+00 -0.119957D+00 -0.449166D+00  0.796620D+00
      3   0.750633D-01 -0.111712D+00  0.113667D+00  0.115071D+00 -0.131050D+00
                51 
      1  -0.173006D+00
      2  -0.117579D+00
      3   0.319495D+00
 Hessian after L701:
                1             2             3             4             5 
      1  0.358572D+01
      2  0.265841D+01  0.132653D+02
      3  0.469174D+00  0.117206D+01  0.181812D+02
      4  0.880614D+00  0.126006D+00 -0.563692D-01  0.855525D+01
      5  0.323781D-01 -0.407953D+00 -0.179069D-01 -0.117662D+01  0.576075D+01
      6 -0.255699D-01 -0.186840D-01 -0.465633D+00  0.459491D+00  0.247242D+01
      7 -0.661787D+00  0.166657D+01 -0.194917D+01  0.216332D+00  0.377244D-01
      8  0.151734D+01 -0.826608D+01 -0.636743D+00  0.662334D-01 -0.925190D-01
      9 -0.186518D+01 -0.611816D+00 -0.881934D+01 -0.955547D-02 -0.314415D-02
     10  0.271399D+00 -0.295949D+00  0.401055D-01  0.125743D+00 -0.299060D-01
     11 -0.252056D+00 -0.865721D-01  0.303816D-01  0.957119D-02 -0.682090D-01
     12  0.316058D-01  0.299072D-01 -0.182219D+00 -0.151808D-01  0.226438D-02
     13 -0.141814D-03  0.444074D+00  0.372881D+00  0.950692D-01  0.579697D-01
     14  0.400235D+00  0.358241D+00  0.290968D+00  0.475828D-01 -0.501886D-01
     15  0.265424D+00  0.218761D+00 -0.633518D-01 -0.133865D-01  0.535559D-04
     16 -0.470296D+01 -0.487561D+01  0.976041D+00  0.636222D+00  0.195209D+00
     17 -0.480524D+01 -0.457418D+01 -0.115496D+01  0.934582D-01 -0.146082D+00
     18  0.992588D+00 -0.118655D+01 -0.920504D+01 -0.115503D-01  0.158303D+00
     19  0.614327D-01  0.150190D+00  0.142633D-01 -0.714454D+01  0.321455D+01
     20  0.245951D+00 -0.212808D+00  0.909724D-01  0.353676D+01 -0.149872D+01
     21 -0.577659D-01  0.121847D+00  0.266630D+00 -0.957074D+00 -0.194581D+01
     22 -0.271955D+00 -0.215226D+00  0.188511D+00  0.186376D-01  0.447008D-02
     23 -0.191248D+00  0.149009D+00  0.797174D-01  0.776548D-02 -0.115034D-01
     24  0.221830D+00  0.105468D+00  0.463152D+00 -0.375974D-01 -0.153964D-02
     25  0.674174D-01 -0.608865D-01  0.168069D-01  0.215677D-01 -0.558490D-02
     26 -0.707665D-01 -0.241111D-01 -0.132445D-01 -0.876375D-02 -0.639173D-02
     27  0.711509D-01 -0.348058D-01 -0.373828D-01  0.261370D-01 -0.594362D-02
     28  0.372252D-01 -0.602359D-01  0.398182D-02  0.142803D-01 -0.713200D-02
     29 -0.120852D+00  0.218132D-01  0.554302D-02 -0.301670D-01  0.138553D-02
     30 -0.286730D-01  0.203462D-01 -0.630859D-01 -0.160616D-01  0.605210D-02
     31  0.156237D+00 -0.879161D-02 -0.373909D-01  0.255161D-01 -0.381424D-02
     32 -0.163531D-01 -0.462585D-01  0.433782D-02  0.122333D-02 -0.499205D-02
     33 -0.363268D-01  0.293060D-02 -0.358912D-01 -0.532494D-02  0.639492D-03
     34  0.327446D-01  0.819063D-01  0.360436D-01  0.173338D-01  0.738927D-02
     35  0.699797D-01  0.187125D-02  0.255813D-01  0.902150D-02 -0.569771D-02
     36  0.740627D-01  0.670851D-01 -0.213907D-01  0.262336D-01  0.507548D-02
     37 -0.312591D-01  0.653127D-02  0.333636D-01 -0.682103D-02  0.441948D-02
     38  0.702423D-01  0.801441D-01  0.696044D-01  0.318480D-01  0.655074D-02
     39  0.192087D-01  0.337209D-01 -0.413425D-01 -0.611716D-02 -0.308881D-02
     40  0.109573D+00  0.999791D-01 -0.224976D-01  0.225049D-01  0.575667D-02
     41  0.916423D-01  0.111149D-01 -0.152068D-01  0.110794D-01 -0.255114D-02
     42 -0.239916D-01 -0.155599D-01 -0.418173D-01 -0.511841D-02 -0.671188D-03
     43  0.242520D+00  0.285975D+00 -0.664865D-01  0.659328D-01  0.115618D+00
     44  0.261697D+00 -0.201237D+00  0.101859D+00  0.149609D+00  0.796485D-01
     45 -0.658311D-01  0.127787D+00  0.247107D+00 -0.363640D-01 -0.321652D-01
     46  0.108561D+00 -0.883327D-01  0.129216D-01  0.142332D+00 -0.889084D-01
     47 -0.101547D+00  0.162016D-01 -0.657056D-02 -0.550488D-01 -0.221435D+00
     48  0.202399D-01 -0.106049D-01 -0.335489D-01  0.107588D-01  0.816522D-01
     49  0.114653D+00  0.853887D-01 -0.321822D-01 -0.368597D+01 -0.236352D+01
     50  0.210180D+00 -0.844633D-01 -0.263942D-01 -0.281956D+01 -0.333210D+01
     51 -0.619505D-01 -0.218910D-01 -0.148076D+00  0.647079D+00 -0.716194D+00
                6             7             8             9            10 
      6  0.148623D+02
      7 -0.337080D-01  0.142617D+02
      8 -0.728631D-02 -0.858311D+00  0.193870D+02
      9 -0.102971D+00  0.105287D+01  0.333328D-01  0.219387D+02
     10 -0.534337D-02 -0.420747D+01 -0.228306D+01  0.529538D+00  0.129307D+02
     11  0.115708D-03 -0.223007D+01 -0.343357D+01 -0.605097D+00  0.190278D+01
     12 -0.652606D-01  0.516223D+00 -0.614347D+00 -0.596704D+01 -0.281443D+00
     13  0.751037D-02 -0.584900D+01  0.161434D+01  0.725521D+00 -0.576055D-01
     14  0.513313D-02  0.154930D+01 -0.291719D+01  0.155878D+01 -0.675784D-01
     15 -0.650066D-01  0.708276D+00  0.155366D+01 -0.574202D+01  0.513558D-02
     16 -0.138193D-01  0.291267D+00 -0.486694D-01  0.519004D-01  0.169221D+00
     17  0.192055D+00 -0.129824D+00 -0.789276D-01  0.597494D-01 -0.207867D+00
     18  0.360235D+00  0.415946D-01  0.639429D-01  0.307167D-01  0.363303D-01
     19 -0.897349D+00  0.271287D+00 -0.689883D-01  0.110685D-02  0.900083D-01
     20 -0.198395D+01 -0.602801D-01 -0.120040D+00  0.213848D-01 -0.451164D-01
     21 -0.826783D+01 -0.424863D-01  0.216657D-01 -0.998561D-01 -0.109146D-02
     22 -0.117217D-01 -0.449353D+01  0.773990D-01 -0.421210D+00 -0.171715D-02
     23 -0.211728D-02  0.721455D-01 -0.455835D+01 -0.344419D+00  0.550157D-01
     24  0.262086D-03 -0.307936D+00 -0.310169D+00 -0.144781D+01 -0.780443D-01
     25  0.475223D-02  0.729922D-01  0.136256D-01 -0.469373D-01 -0.396819D+01
     26 -0.137356D-02 -0.924935D-04  0.235003D-01  0.831772D-01  0.187103D-01
     27 -0.298758D-02  0.376332D-02  0.292077D-01  0.466793D-01  0.921794D-01
     28 -0.267943D-02  0.654662D-01  0.405473D-01  0.197221D-01 -0.379966D+01
     29  0.321756D-02 -0.290354D-01 -0.264725D-01  0.290361D-01  0.742561D+00
     30 -0.750678D-02  0.503615D-02  0.366738D-01  0.637877D-01  0.335969D+00
     31 -0.199580D-02 -0.765912D-01  0.114193D-01 -0.908166D-03 -0.152637D+01
     32 -0.152052D-03  0.640358D-01  0.790604D-01 -0.240535D-01  0.311340D+00
     33 -0.443671D-02  0.840691D-03 -0.167693D-01  0.521614D-01 -0.666520D+00
     34  0.605973D-02  0.637823D-01 -0.249005D-01 -0.339242D-01 -0.140738D-01
     35  0.199566D-02 -0.137412D-01 -0.319614D-03 -0.130607D+00 -0.278250D-02
     36 -0.130447D-02  0.220797D-02 -0.821308D-01  0.305132D-02  0.462934D-03
     37  0.125419D-02  0.957706D-01 -0.190420D-01  0.266216D-01 -0.184940D-01
     38  0.398827D-04  0.776137D-01 -0.265515D-01 -0.533065D-01 -0.905767D-01
     39 -0.909409D-02  0.409534D-01 -0.624721D-01  0.666506D-01 -0.184586D-02
     40 -0.934964D-03 -0.681981D-01 -0.337606D-01 -0.345927D-01  0.433884D-02
     41 -0.474299D-03 -0.864300D-01  0.554723D-01  0.855624D-02  0.132871D-01
     42 -0.466801D-02 -0.393391D-01 -0.296838D-02  0.406832D-01 -0.589357D-02
     43 -0.368834D-01  0.113053D-01 -0.934928D-03  0.199212D-02 -0.716661D-02
     44 -0.396217D-01 -0.660203D-01 -0.273952D-01 -0.178446D-01 -0.238181D-01
     45 -0.323943D-01  0.588971D-02 -0.117642D-02 -0.459654D-01  0.315439D-02
     46  0.184923D-01  0.192482D-01 -0.616431D-02  0.562570D-02  0.111495D-01
     47  0.848404D-01 -0.189698D-01 -0.144628D-02 -0.554609D-02 -0.119115D-01
     48  0.617989D-01  0.251486D-02 -0.172256D-03 -0.619432D-02  0.216723D-02
     49  0.532445D+00 -0.125324D-01  0.292347D-02 -0.259816D-02 -0.178311D-02
     50 -0.706161D+00  0.253864D-01  0.379162D-02  0.182155D-02  0.148683D-01
     51 -0.625548D+01 -0.753771D-02 -0.424419D-02 -0.112092D-01 -0.486027D-02
               11            12            13            14            15 
     11  0.129364D+02
     12  0.215739D+00  0.150243D+02
     13 -0.147409D+00 -0.144860D-01  0.139297D+02
     14  0.185585D+00  0.410007D-01 -0.107653D+01  0.124165D+02
     15 -0.256202D-02 -0.106262D+00 -0.628852D+00 -0.795202D+00  0.155114D+02
     16 -0.183256D+00  0.177856D-01  0.243544D+00 -0.419762D-01 -0.227933D-01
     17 -0.245699D-01 -0.870378D-02  0.956167D-01 -0.123129D+00  0.331259D-01
     18 -0.167245D-01 -0.141774D+00 -0.322806D-01  0.138800D-03 -0.134833D+00
     19 -0.485156D-01  0.272649D-02  0.135250D+00  0.180808D-01 -0.177068D-02
     20 -0.415803D-01 -0.137699D-02  0.562164D-01 -0.812116D-01  0.531434D-02
     21 -0.852636D-03 -0.571786D-01 -0.268914D-02  0.700266D-02 -0.810116D-01
     22  0.543496D-01 -0.818325D-01  0.278946D+00 -0.617077D-01 -0.115777D+00
     23  0.135879D-01  0.781473D-01 -0.822321D-01  0.175273D+00 -0.278322D+00
     24  0.571216D-01 -0.991969D-02 -0.183001D+00 -0.333842D+00 -0.228308D+00
     25 -0.143527D-01  0.275146D+00  0.370889D-03  0.200231D-01 -0.446128D-02
     26 -0.385431D+01 -0.653295D+00  0.472242D-02 -0.221462D-01  0.653606D-02
     27 -0.504720D+00 -0.148413D+01  0.513483D-02  0.118759D-02  0.165495D-01
     28  0.541250D+00  0.251453D+00 -0.577788D-01 -0.505458D-02 -0.231363D-02
     29 -0.211261D+01  0.989589D+00  0.646169D-02  0.176912D+00  0.589203D-01
     30  0.936850D+00 -0.345628D+01 -0.241409D-03  0.648919D-01 -0.358039D-01
     31  0.450735D+00 -0.696898D+00  0.292692D-01 -0.656769D-01 -0.198945D-01
     32 -0.368121D+01 -0.779562D-01 -0.474900D-01  0.172493D-01  0.186675D-01
     33 -0.114995D+00 -0.347878D+01 -0.262696D-01  0.277169D-01 -0.280344D-01
     34 -0.815386D-02 -0.298384D-02 -0.384457D+01 -0.431943D-01  0.291244D+00
     35  0.618801D-03  0.722980D-02 -0.206003D-01 -0.391376D+01 -0.776813D-01
     36  0.238475D-01  0.109827D-01  0.159558D+00 -0.244955D+00 -0.129562D+01
     37 -0.796619D-01 -0.222077D-02 -0.323217D+01 -0.121950D+01  0.269027D+00
     38  0.156910D+00  0.195007D-02 -0.152877D+01 -0.262454D+01 -0.434141D+00
     39 -0.272734D-03 -0.492109D-01  0.280235D+00 -0.362362D+00 -0.418455D+01
     40  0.185258D-01 -0.159185D-02 -0.171656D+01  0.605455D+00 -0.732088D+00
     41  0.214642D-02 -0.314552D-02  0.706978D+00 -0.360533D+01 -0.282747D+00
     42 -0.125108D-01 -0.106782D-01 -0.685197D+00 -0.233441D+00 -0.351419D+01
     43 -0.649433D-02  0.130592D-02  0.214687D-01 -0.579767D-01  0.352594D-04
     44  0.110952D-01 -0.438471D-02 -0.926305D-01  0.858449D-02 -0.211088D-01
     45 -0.401720D-02 -0.139590D-01  0.179515D-01 -0.242231D-01 -0.341014D-01
     46 -0.479192D-02  0.230859D-03  0.252581D-01 -0.792393D-02  0.498934D-03
     47 -0.192732D-02  0.164690D-04 -0.119631D-01 -0.239055D-02  0.125282D-02
     48 -0.614172D-03 -0.518838D-02  0.700940D-02 -0.212363D-02 -0.871577D-02
     49 -0.245425D-02  0.159981D-03 -0.106490D-02  0.644279D-02  0.169526D-02
     50 -0.181276D-02 -0.263490D-02  0.212477D-01  0.155495D-02 -0.452422D-02
     51 -0.168975D-02 -0.741999D-02 -0.278532D-02 -0.667269D-03 -0.609651D-02
               16            17            18            19            20 
     16  0.853174D+01
     17  0.279888D+01  0.168422D+02
     18  0.604945D-01  0.260780D+01  0.271702D+02
     19 -0.791265D+00  0.134396D+01 -0.977556D+00  0.103780D+02
     20  0.101299D+01 -0.997400D+01 -0.113034D+01 -0.306565D+01  0.146962D+02
     21 -0.835185D+00 -0.118902D+01 -0.138490D+02  0.149455D+01  0.329821D+01
     22  0.212544D-01  0.101569D-01  0.847595D-02  0.926631D-01 -0.759955D-02
     23  0.708603D-02 -0.663811D-01 -0.102740D-01 -0.888811D-02 -0.250475D-01
     24 -0.456907D-01 -0.771727D-02 -0.523294D-01 -0.521463D-01 -0.145071D-03
     25  0.745874D-02 -0.135775D-01  0.103571D-01  0.117650D-01 -0.654886D-02
     26 -0.139746D-01 -0.266759D-02 -0.735936D-02 -0.109507D-01 -0.329315D-02
     27  0.190078D-01 -0.132300D-01  0.730169D-03  0.178934D-01 -0.468751D-02
     28  0.142024D-02 -0.137444D-01 -0.149480D-02  0.208064D-02 -0.536295D-02
     29 -0.244310D-01  0.165477D-01  0.338900D-02 -0.200466D-01  0.310939D-02
     30 -0.708411D-02  0.949628D-02 -0.103252D-01 -0.768109D-02  0.389139D-02
     31  0.199416D-01 -0.935292D-02 -0.482661D-03  0.179609D-01 -0.209199D-02
     32 -0.397189D-02 -0.572821D-02 -0.132244D-03 -0.255733D-02 -0.452277D-02
     33 -0.400232D-02  0.900881D-03 -0.732417D-02 -0.310694D-02  0.242873D-03
     34  0.228342D-01  0.988594D-02  0.403897D-01  0.182653D-01  0.503530D-02
     35  0.760349D-02 -0.263652D-01  0.676714D-02  0.354544D-02 -0.884235D-02
     36  0.543466D-01  0.132471D-01  0.200919D-01  0.295261D-01  0.672132D-02
     37 -0.458311D-01 -0.958337D-02 -0.418016D-01  0.229752D-01  0.182506D-01
     38  0.301314D-01  0.232971D-01 -0.198449D-01  0.540520D-01  0.607559D-02
     39 -0.392331D-01 -0.212210D-01 -0.258508D-01 -0.100305D-01 -0.480100D-02
     40  0.752623D-01  0.250262D-01  0.149167D-02  0.266397D-01  0.886566D-02
     41  0.288445D-01 -0.178440D-01  0.241255D-02  0.827220D-02 -0.354771D-02
     42 -0.164537D-02 -0.158857D-02 -0.206172D-01 -0.302965D-02 -0.106211D-02
     43 -0.421483D+01  0.759549D+00 -0.137735D+00 -0.219991D+00 -0.303525D+00
     44  0.951853D+00 -0.186870D+01 -0.544123D+00 -0.340675D+00 -0.184743D-01
     45 -0.197280D+00 -0.596824D+00 -0.443717D+01  0.119125D+00  0.648945D-01
     46 -0.333733D+00  0.179176D+00 -0.245330D-01 -0.305351D+01 -0.140819D+01
     47  0.201306D+00  0.233774D+00 -0.435167D-02 -0.141606D+01 -0.283885D+01
     48 -0.251370D-01 -0.635250D-02  0.233907D+00  0.323558D+00 -0.351303D+00
     49  0.684535D-01 -0.126526D+00  0.357120D-01  0.809958D-01  0.202964D-01
     50 -0.420183D-01 -0.207255D+00  0.769529D-01  0.189671D+00  0.125534D+00
     51  0.122947D-01  0.832478D-01  0.684007D-01 -0.500821D-01 -0.139653D-01
               21            22            23            24            25 
     21  0.262284D+02
     22 -0.178499D-01  0.435585D+01
     23  0.118857D-02  0.126043D+00  0.444424D+01
     24 -0.176032D-01  0.410008D+00  0.515512D+00  0.107515D+01
     25  0.438320D-02 -0.216478D-01 -0.219372D-01  0.468041D-01  0.371607D+01
     26 -0.206224D-02 -0.166996D-01  0.364877D-02 -0.728724D-01  0.179884D+00
     27 -0.293680D-02  0.316218D-01 -0.623446D-01  0.899924D-01 -0.391933D+00
     28 -0.143284D-02  0.230935D-01  0.218751D-01 -0.116355D-01  0.952055D-01
     29  0.431536D-02  0.173718D-01 -0.509787D-01  0.308890D-01 -0.327679D-01
     30 -0.447541D-02 -0.461512D-02  0.301968D-01  0.109531D-01 -0.865334D-01
     31 -0.323547D-02 -0.921968D-02  0.612359D-02  0.260455D-02  0.173715D-01
     32  0.257969D-03  0.914345D-02 -0.946037D-03  0.412616D-02 -0.410683D-01
     33 -0.380541D-02 -0.794548D-02  0.365506D-02 -0.296754D-03  0.174185D+00
     34  0.106233D-01 -0.330657D-01  0.933679D-02  0.371648D-01 -0.191094D-01
     35  0.144151D-02  0.612504D-02 -0.230304D-01  0.607027D-01 -0.127768D-01
     36  0.255759D-03  0.214633D-01  0.489637D-01  0.143844D+00 -0.448571D-02
     37 -0.445270D-02  0.383442D-01  0.772539D-02  0.124927D-02  0.263240D-03
     38 -0.364283D-02  0.138307D-01 -0.461090D-01 -0.699853D-01 -0.168018D-02
     39 -0.202690D-01  0.125843D-01 -0.609267D-01 -0.183666D-01  0.592235D-03
     40 -0.268262D-02 -0.648849D-03 -0.699608D-03  0.105409D-01 -0.409832D-02
     41 -0.531567D-03 -0.118293D-02 -0.243494D-02  0.433854D-02  0.202002D-02
     42 -0.539136D-02 -0.241766D-02 -0.163129D-02 -0.134472D-02 -0.987102D-03
     43  0.953035D-01  0.309224D-03 -0.840850D-02 -0.925701D-02 -0.273031D-04
     44  0.574628D-01 -0.181987D-01 -0.105931D-02  0.207301D-01 -0.528839D-02
     45  0.138491D+00 -0.662093D-02  0.349615D-02 -0.746070D-02  0.171902D-02
     46  0.329594D+00  0.245922D-02 -0.286851D-03 -0.574119D-02  0.209625D-02
     47 -0.358192D+00 -0.286722D-02 -0.650075D-03  0.487627D-02 -0.216152D-02
     48 -0.429912D+01 -0.249296D-03  0.220605D-03 -0.161441D-02  0.713158D-03
     49 -0.851188D-02  0.236124D-03  0.584039D-03  0.848402D-03  0.490685D-03
     50 -0.132792D-01  0.459235D-02  0.733357D-03 -0.749337D-02  0.307830D-02
     51  0.746945D-01 -0.242416D-02 -0.106239D-02  0.170115D-02 -0.120921D-03
               26            27            28            29            30 
     26  0.365005D+01
     27  0.695679D+00  0.167978D+01
     28 -0.182340D-01 -0.546127D-01  0.370379D+01
     29  0.758195D-01 -0.128819D+00 -0.348818D+00  0.189131D+01
     30 -0.126340D+00 -0.164451D+00 -0.166932D+00 -0.989783D+00  0.356934D+01
[...]
   yy         0.648051D+02      0.960312D+01      0.106849D+02
   zx        -0.104836D+02     -0.155351D+01     -0.172852D+01
   zy         0.499651D+01      0.740406D+00      0.823813D+00
   zz         0.769765D+02      0.114067D+02      0.126917D+02

 ----------------------------------------------------------------------

 Test job not archived.
 1\1\GINC-C0313\Freq\RM062X\CC-pVTZ\C5H10O2\HARMS.N\28-Sep-2019\0\\#P G
 eom=AllCheck Guess=TCheck SCRF=Check Test GenChk RM062X/CC-pVTZ Freq\\
 Gaussian input prepared by ASE\\0,1\O,0.4422457653,-2.4621722828,1.520
 2455045\O,3.1534818206,-2.5966641204,1.9725770536\C,-0.3960604352,-2.9
 188704186,0.4526516387\C,-1.4534866984,-3.7992593008,1.0817832426\C,0.
 429934367,-3.6494228421,-0.59048553\C,1.2629368961,-1.4112612667,1.192
 2314118\C,2.5613769458,-1.495665084,1.4466351668\H,-0.8682006943,-2.04
 00902421,-0.0022911097\H,-0.9812775039,-4.6555658812,1.564345916\H,-2.
 0152066549,-3.2457828998,1.8318845341\H,-2.142821198,-4.1668254703,0.3
 225820167\H,0.8822387436,-4.538396251,-0.1479695885\H,1.2245596204,-3.
 0090997977,-0.9720791223\H,-0.1963702597,-3.960256862,-1.4264120769\H,
 0.8024854208,-0.5272600254,0.7700952763\H,3.241058153,-0.6770088971,1.
 2679401332\H,2.4547884933,-3.2438202796,2.1309770629\\Version=EM64L-G1
 6RevA.03\State=1-A\HF=-346.9495355\RMSD=9.353e-09\RMSF=8.696e-07\ZeroP
 oint=0.147555\Thermal=0.1559411\Dipole=-0.6428912,-0.043667,-0.5694489
 \DipoleDeriv=-1.1915395,-0.4380909,-0.2728843,-0.6524335,-0.8126331,-0
 .1681762,-0.0887551,-0.0691915,-0.5183049,-0.636642,0.1400748,-0.16795
 04,0.679024,-0.735659,0.3427204,-0.3340771,0.1961666,-0.4895936,0.7527
 083,0.2181156,0.1414802,0.1663222,0.4766876,0.1701739,0.2886953,0.2644
 066,0.5995115,-0.0299964,-0.0745082,0.0360665,-0.0731756,0.0118841,-0.
 0031878,0.0481781,0.0178158,0.0256236,-0.068436,0.0048895,0.122234,-0.
 0252934,-0.011705,-0.0670875,0.0157646,-0.0963403,-0.0682801,0.4165289
 ,0.3808847,0.0157789,0.5417974,0.4686486,0.0099453,-0.215145,-0.233040
 4,-0.2182026,0.5218983,-0.2413817,0.2287762,-0.612995,0.4884379,-0.427
 4325,0.3268157,-0.2663468,0.1057316,-0.0437258,0.0187607,-0.0152401,0.
 0733146,-0.1436694,0.0678079,-0.0473341,0.0048398,-0.0374256,0.0057855
 ,0.0913249,-0.0450538,0.0299105,-0.0409476,0.0601995,0.0002646,0.06255
 34,0.0344867,0.011625,0.0233709,0.0702456,0.0513845,0.0110961,-0.06312
 29,0.0987888,-0.035102,-0.0228946,-0.0156154,-0.0530102,-0.0569439,-0.
 0557815,0.0380825,-0.0258408,-0.0926587,-0.0465831,-0.0363335,0.029425
 3,0.0571447,-0.0079685,0.060926,-0.047585,0.0304992,-0.0342895,0.09322
 65,0.0071334,-0.0385209,-0.0418496,0.0688049,-0.0532224,0.0071867,0.04
 54281,0.0646964,0.0320349,0.0569881,0.0024277,-0.0316305,-0.1050135,-0
 .0262899,0.0437725,-0.0500645,-0.0846562,-0.0625588,-0.0351224,-0.0019
 16,0.0370423,-0.0489057,-0.0072567,-0.0326722,0.0524457,0.0329261,0.11
 28946,0.1373732,0.039535,-0.0572852,-0.0060614,-0.0315134,-0.0005802,0
 .0517139,-0.0208299,0.037587,0.1299332,0.246458,-0.0338517,0.0426353,-
 0.0647177,0.2796555,-0.0260217,0.0416161,-0.0123624,0.3293762\Polar=80
 .5660357,6.5471225,65.1697891,5.781322,0.6858988,58.178114\Quadrupole=
 -1.6717175,2.7034114,-1.031694,1.009312,-0.1041939,-1.1162723\PG=C01 [
 X(C5H10O2)]\NImag=0\\0.32631566,0.19880041,0.32518312,0.07386363,-0.02
 920022,0.29017335,0.00064042,0.00021756,-0.00072729,0.46595566,0.00578
 843,0.01385385,-0.00766319,0.11362996,0.52180465,-0.00129791,-0.008486
 34,-0.00401201,0.01780854,-0.18073112,0.11057445,-0.10279031,-0.023018
 62,-0.04988831,0.00158456,-0.00428997,0.00221930,0.51469768,-0.0157008
 1,-0.08159544,-0.00293613,0.00249720,0.00045295,-0.00094818,-0.0311527
 7,0.58159297,-0.06713846,-0.02004360,-0.16180631,0.00204424,-0.0026436
 7,0.00147407,-0.01388789,-0.06423066,0.49418740,-0.02687221,-0.0249525
 6,0.00227551,0.00002520,0.00010407,-0.00014648,-0.13590961,-0.04542811
 ,0.03855639,0.54600880,-0.01657231,-0.01182630,0.00078240,-0.00019232,
 0.00015976,0.00000792,-0.05036833,-0.12665835,0.03566947,-0.03549619,0
 .55211464,-0.02785213,-0.02480294,0.00724399,-0.00032867,0.00077551,-0
 .00038623,0.05040940,0.04407055,-0.10678712,0.02546440,0.03048292,0.57
 587799,0.00703405,-0.01791065,-0.02425887,-0.00011630,0.00077785,-0.00
 027695,-0.12482947,0.03865697,0.05485182,-0.01691436,0.01244886,0.0207
 1947,0.55837949,-0.00028653,-0.00697623,-0.01641969,-0.00042325,-0.000
 45185,-0.00038205,0.03661247,-0.11285484,-0.03611257,-0.01003063,0.011
 70043,0.01467251,0.03184060,0.55715005,0.00210772,-0.02507703,-0.03499
 113,-0.00011808,0.00105809,-0.00019018,0.04665257,-0.03184048,-0.12321
 898,0.01438829,-0.00492611,-0.01167132,0.03751745,-0.03207867,0.539303
 38,-0.15147177,-0.09972290,0.00974703,-0.02157764,0.01715414,-0.010335
 82,-0.03419830,-0.02844915,-0.00367780,-0.00227569,-0.00172485,-0.0036
 8603,0.00429757,0.00132459,0.00156922,0.86922321,-0.10419539,-0.201215
 41,0.04977192,0.05032814,-0.03062270,0.02781374,-0.02134770,-0.0218389
 5,-0.00998589,0.00119075,-0.00008635,0.00079708,0.00224177,0.00005734,
 0.00147986,-0.02948722,0.56967684,0.02873333,0.07210835,-0.08978148,-0
 .02596132,0.02141741,0.00154575,-0.01294297,-0.02093681,0.01084812,-0.
 00245481,-0.00131803,-0.00369368,-0.00293605,-0.00196232,-0.00260882,0
 .16093492,-0.18042794,0.23423391,-0.04095464,-0.01523386,-0.00289779,-
 0.15690466,0.09973379,-0.05986207,0.00185221,0.00207568,0.00449483,-0.
 00012627,-0.00011868,-0.00036764,-0.00019663,-0.00003965,0.00053133,-0
 .54051898,0.00883086,-0.09059213,0.90889809,-0.05481119,-0.01978577,0.
 00046073,0.05427270,-0.24830927,0.09007471,0.00314410,-0.00248058,0.00
 757969,-0.00135372,-0.00043325,-0.00251571,-0.00093884,0.00059930,-0.0
 0168836,0.03668106,-0.09406342,0.02035465,0.07354276,0.61875491,0.0179
 2758,0.01328153,0.00950789,-0.03938457,0.09683442,-0.08988577,-0.00346
 689,0.00036051,-0.00430215,0.00051723,0.00001768,0.00098324,0.00065754
 ,0.00008194,0.00075260,-0.10506066,0.01300038,-0.07964319,0.11304277,-
 0.17500800,0.21421393,-0.01803192,0.00862653,-0.02085670,-0.00010543,-
 0.00063289,0.00018045,-0.09281322,0.08282579,-0.03695688,0.01048997,-0
 .02032581,0.01105959,-0.00757190,0.01722685,-0.00521563,0.00207625,0.0
 0479706,-0.00160843,-0.00068680,-0.00019617,0.00010726,0.10779467,-0.0
 0804686,0.00976471,-0.00633854,-0.00044246,0.00024454,0.00019834,0.085
 99625,-0.21736709,0.08165522,0.00727040,-0.01563785,0.00782463,0.00715
 185,-0.01335563,0.00599388,-0.00125258,0.00345083,-0.00188049,0.000312
 32,0.00000200,-0.00015616,-0.09033891,0.23239000,-0.02503679,0.0142472
 2,-0.02392674,-0.00030457,-0.00029260,0.00016419,-0.03798702,0.0771671
 2,-0.08537676,-0.00401646,0.01211284,-0.00511059,0.01124807,-0.0196578
 1,0.00962698,0.00347644,0.00388618,-0.00032635,-0.00057350,-0.00041461
 ,0.00013243,0.04945431,-0.08543068,0.10549900,0.00191844,0.00189970,0.
 00039876,-0.00002082,0.00007688,0.00002265,0.00984502,-0.02039252,0.01
 177359,-0.09986548,0.09468319,-0.05256738,0.00166547,-0.00090256,-0.00
 055255,-0.00007693,-0.00044524,0.00014284,0.00009891,0.00013714,-0.000
 08719,-0.00290406,-0.00297004,0.00187129,0.10611668,0.00070512,0.00168
 287,-0.00058912,-0.00008092,0.00026809,-0.00013710,0.00921304,-0.01915
 204,0.01069311,0.09319244,-0.21046847,0.09166378,0.00064256,0.00079106
 ,-0.00130072,-0.00021178,0.00005177,-0.00027366,0.00016365,-0.00014816
 ,0.00004688,-0.00347602,-0.00103750,0.00127851,-0.10057081,0.22892544,
 0.00016835,-0.00110080,0.00087003,0.00010974,-0.00017243,0.00000760,-0
 .00740014,0.01238502,-0.00862953,-0.05096721,0.09172047,-0.09870629,-0
 .00122348,0.00036066,0.00027022,-0.00002934,-0.00031410,0.00006621,-0.
 00003939,0.00013413,-0.00004213,0.00247217,0.00132682,-0.00026314,0.05
 485185,-0.10373203,0.10471021,0.00215457,0.00105287,-0.00074339,0.0000
 8874,-0.00018908,-0.00001993,-0.01324913,0.01357454,0.01612154,-0.1184
 6245,0.07217290,0.09491007,-0.00291237,-0.00408676,0.00112444,-0.00006
 994,-0.00044918,-0.00009911,0.00008159,0.00028569,-0.00009707,0.000877
 06,-0.00016516,-0.00060915,-0.00752654,0.00632549,0.00978117,0.1266757
 1,0.00172218,0.00094215,0.00014446,0.00006226,-0.00009756,0.00005039,-
 0.01173606,0.01098847,0.01537700,0.07426259,-0.12178372,-0.09836520,-0
 .00283584,-0.00228599,0.00086820,0.00007425,-0.00007113,0.00018987,-0.
 00000139,0.00016994,-0.00002939,0.00081737,0.00107621,-0.00022832,0.01
 144536,-0.01232269,-0.01796908,-0.07799866,0.12859837,-0.00130056,-0.0
 0000390,0.00118640,0.00001954,-0.00002213,0.00002683,0.00625506,-0.008
 60608,-0.01152613,0.09664784,-0.09610940,-0.17573183,0.00194864,0.0029
 9728,-0.00036565,-0.00003149,0.00010839,0.00019296,-0.00011380,0.00004
 405,0.00001152,-0.00044097,0.00001379,0.00006867,-0.00803888,0.0076164
 5,0.01124409,-0.10746808,0.10476534,0.18910763,-0.00393509,-0.00498985
 ,0.00216657,-0.00015761,0.00028970,-0.00014423,-0.01203870,-0.00289746
 ,-0.01830561,-0.15534450,-0.05782225,-0.11814725,0.00063871,0.00049149
 ,-0.00066537,-0.00018565,0.00062698,-0.00098011,-0.00006297,-0.0007193
 5,0.00026078,0.00074236,-0.00011921,0.00023004,-0.00894459,-0.00520119
 ,-0.00844504,0.01241438,0.00538590,0.01191890,0.16695142,-0.00439927,-
 0.00357552,0.00172127,-0.00012294,0.00027321,-0.00013154,-0.00882653,-
 0.00553237,-0.01586041,-0.05775285,-0.07683995,-0.06228538,0.00051796,
 0.00039995,-0.00046495,-0.00075209,0.00113936,-0.00086369,-0.00009514,
 -0.00076338,0.00025823,0.00083326,0.00003480,-0.00010602,0.01634950,0.
 01030291,0.01797572,-0.01111345,-0.00593426,-0.01011581,0.06514669,0.0
 8050333,0.00281761,0.00227720,0.00022885,-0.00001302,-0.00006290,0.000
 07996,0.00832000,0.00316754,0.00951388,-0.12078073,-0.06399382,-0.1812
 3784,-0.00014084,-0.00013468,-0.00003427,0.00076814,0.00032079,0.00077
 287,-0.00000471,0.00025912,-0.00008328,-0.00075437,-0.00035348,0.00044
 807,-0.00728510,-0.00531994,-0.00962330,-0.01434577,-0.00550919,-0.014
 16142,0.13100680,0.06929780,0.19400210,0.00168910,-0.00168589,0.000027
 27,-0.00020189,0.00049795,-0.00010404,-0.01052236,0.01664607,-0.009244
 87,0.00064755,0.00058012,-0.00129745,-0.09115029,0.08733255,-0.0445019
 1,-0.00049140,-0.00003680,0.00004385,0.00033014,-0.00038661,0.00015182
 ,-0.00119402,0.00157050,0.00326826,-0.00017346,-0.00042637,0.00069464,
 0.00030074,-0.00038430,0.00004173,-0.00009771,0.00004375,-0.00001733,0
 .09720179,-0.00162981,0.00174457,0.00048757,-0.00023594,0.00110142,0.0
 0003524,0.00884439,-0.01605113,0.00733930,-0.00127696,0.00079419,0.000
 41123,0.08802735,-0.22289334,0.09050959,-0.00030916,-0.00021214,-0.000
 33809,0.00067011,-0.00104719,0.00022613,0.00157406,-0.00037918,-0.0027
 7059,0.00039513,0.00075307,-0.00031089,-0.00027838,0.00017958,-0.00012
 059,-0.00004635,-0.00000802,-0.00013883,-0.09972105,0.24163864,0.00029
 087,0.00197457,0.00234748,-0.00000445,-0.00020650,-0.00000561,0.010933
 97,-0.02061149,0.00842308,-0.00068234,-0.00092376,0.00138499,-0.046336
 37,0.09130061,-0.09277593,-0.00027703,-0.00024529,0.00018735,-0.000100
 27,0.00031486,-0.00002742,0.00274191,-0.00253414,-0.00275666,-0.000229
 55,0.00038984,-0.00015426,-0.00024002,-0.00001435,0.00007433,0.0000105
 9,0.00016612,0.00000075,0.04743093,-0.09787463,0.09833374,0.00049969,-
 0.00020774,-0.00100596,-0.00015693,0.00056497,0.00019639,-0.01446504,-
 0.01207441,0.00549103,-0.00109023,0.00315344,0.00231516,-0.18977431,-0
 .11563916,0.06872862,0.00005072,-0.00036224,-0.00078098,0.00055642,-0.
 00061076,-0.00031717,0.00032217,0.00001107,-0.00043137,0.00005714,-0.0
 0012327,0.00010175,-0.00054007,-0.00087795,0.00071690,0.00034553,0.000
 19914,-0.00013454,0.01140146,0.00855509,-0.00499786,0.20550098,-0.0006
 6064,0.00037261,0.00184154,0.00044571,-0.00068708,0.00044408,0.0136725
 3,0.01164437,-0.00555765,0.00111076,-0.00153279,-0.00246511,-0.1171727
 1,-0.14418751,0.05714920,0.00002250,-0.00041444,-0.00112106,-0.0006520
 2,0.00011084,-0.00064132,-0.00045127,0.00081625,0.00083959,0.00007008,
 0.00019053,-0.00037126,0.00062298,0.00071328,-0.00070375,0.00001694,-0
 .00019130,0.00005220,-0.01912094,-0.01452739,0.00749341,0.12698813,0.1
 5351220,-0.00109940,0.00063481,0.00181416,0.00025066,-0.00024918,0.000
 40692,0.01670924,0.01542314,-0.00907098,0.00192329,-0.00367563,-0.0029
 7050,0.06706160,0.05588797,-0.07909591,0.00071685,-0.00022000,-0.00024
 091,-0.00103926,-0.00000160,-0.00033038,-0.00076810,-0.00021149,0.0006
 5132,-0.00023007,-0.00028631,0.00025957,0.00129229,0.00074844,-0.00038
 920,0.00014393,0.00009133,0.00026708,0.01001542,0.00715864,-0.00525063
 ,-0.07682146,-0.06009760,0.08421894,0.00021136,0.00300182,0.00510076,0
 .00008331,-0.00043966,0.00005878,0.01097438,0.00331233,0.01250483,0.00
 015023,-0.00032972,-0.00035616,-0.13831846,-0.04396939,-0.12107770,-0.
 00075190,-0.00062526,0.00007106,0.00026918,0.00041700,-0.00033503,0.00
 059243,-0.00024164,-0.00097132,-0.00002201,-0.00007446,0.00004375,0.00
 020632,0.00009147,-0.00018703,-0.00024836,0.00002417,0.00048227,-0.007
 72699,-0.00443224,-0.00849513,-0.01266769,-0.00488821,-0.01825624,0.14
 721836,0.00046171,-0.00234059,-0.00433081,-0.00015127,0.00053832,-0.00
 005924,-0.01151639,-0.00446254,-0.00908651,-0.00041772,0.00011331,0.00
 040143,-0.04284652,-0.06793754,-0.05897497,0.00074466,0.00115887,-0.00
 076662,0.00034626,-0.00056073,0.00035671,-0.00008963,-0.00003269,0.000
 75035,0.00009784,0.00003713,0.00007058,0.00006797,-0.00016355,0.000120
 45,0.00002931,0.00037108,0.00014228,0.01517261,0.00908200,0.02074473,-
 0.00975289,-0.00565392,-0.01526653,0.04795318,0.07014829,0.00162114,-0
 .00488678,-0.00463491,-0.00022760,0.00029551,-0.00030754,-0.01589722,-
 0.00255944,-0.01440746,-0.00081306,0.00034563,0.00052701,-0.11899739,-
 0.05918700,-0.20484729,0.00151469,0.00168258,-0.00016264,-0.00023547,-
 0.00029509,0.00039759,0.00026122,-0.00023901,0.00083831,0.00005830,-0.
 00011350,-0.00004891,0.00019001,-0.00000278,0.00038090,0.00086956,0.00
 023544,-0.00005135,-0.00628874,-0.00405153,-0.00965309,0.00683213,0.00
 303988,0.01020987,0.13108087,0.06601214,0.22164120,0.00707759,-0.02387
 174,0.00840152,-0.00458430,-0.00141102,-0.00280915,0.00354193,-0.00105
 795,0.00372325,-0.00013898,-0.00015121,0.00008280,-0.00032298,0.000222
 33,-0.00054702,-0.11539243,0.10278557,-0.05509438,-0.00425521,0.026688
 05,-0.00984674,-0.00005290,0.00122796,-0.00026321,-0.00010190,0.000113
 44,-0.00008945,-0.00001640,-0.00002064,0.00003354,-0.00007624,0.000047
 81,-0.00004088,-0.00009308,0.00004707,0.00007724,-0.00007541,0.0000616
 3,0.00001677,0.00003765,-0.00007766,-0.00010827,0.11509966,-0.00021217
 ,-0.02698523,0.01024698,-0.00187079,0.00311440,0.00298738,0.00358836,0
 .00116379,0.00411699,-0.00044396,0.00021133,-0.00053490,-0.00045312,-0
 .00013137,-0.00037780,0.10424909,-0.23384795,0.09756271,-0.00046916,0.
 00218571,-0.00132594,-0.00099863,0.00030735,-0.00100990,0.00016906,0.0
 0026011,-0.00009533,0.00007632,0.00000195,0.00001198,-0.00018104,-0.00
 007849,-0.00000486,-0.00003062,0.00019299,0.00008698,0.00020461,-0.000
 17264,-0.00011891,0.00009886,-0.00005113,-0.00021562,-0.10369383,0.254
 44416,-0.00059185,0.01063527,-0.00249549,-0.00166567,0.00094310,0.0102
 5414,0.00009113,-0.00160119,0.00049160,0.00003190,-0.00008485,0.000193
 88,0.00012631,0.00011787,0.00002915,-0.05446141,0.09557329,-0.07467166
 ,-0.00029352,0.00530207,-0.00259872,0.00026420,0.00033433,0.00047239,-
 0.00010841,-0.00003487,-0.00005029,0.00003485,0.00000675,-0.00005546,0
 .00005383,0.00004578,-0.00001163,0.00005214,0.00009342,-0.00008401,0.0
 0019405,-0.00003636,-0.00010288,0.00000199,0.00007701,0.00006967,0.055
 11480,-0.10960970,0.07258477,-0.00342274,0.00059034,-0.00469083,0.0139
 6389,0.01507865,-0.00355394,-0.00055147,-0.00007313,0.00173317,-0.0003
 2346,-0.00013640,-0.00053278,-0.00004183,0.00002386,0.00000397,-0.0082
 9473,-0.02359627,0.00723022,-0.18468234,-0.14701754,0.02849648,-0.0001
 2975,0.00001138,-0.00013174,0.00003629,0.00001025,0.00000658,0.0000279
 0,0.00002406,-0.00000604,-0.00012464,-0.00012972,0.00006773,0.00002865
 ,0.00000170,-0.00000550,0.00003868,-0.00002348,-0.00001778,0.00000806,
 -0.00003458,-0.00002411,-0.00026485,0.00075622,0.00029163,0.18422325,0
 .00098214,0.00174547,0.00380764,-0.01539984,-0.02563205,0.00768253,0.0
 0036498,0.00069495,-0.00022167,0.00012763,0.00003116,0.00018387,0.0001
 0482,-0.00009886,-0.00002199,0.00266913,0.00531193,-0.00127200,-0.1427
 9568,-0.21467550,0.04047717,-0.00001828,-0.00003231,-0.00001808,-0.000
 00123,0.00002167,-0.00000214,0.00001177,-0.00000117,-0.00000787,0.0000
 5299,0.00004318,-0.00004617,0.00000118,0.00006702,0.00000329,-0.000046
 44,-0.00004760,0.00000191,-0.00001931,0.00002453,-0.00000432,-0.000123
 21,-0.00035583,-0.00148980,0.15084790,0.23531785,-0.00471386,0.0007022
 3,0.00982318,0.00807790,0.01403625,-0.00260166,0.00095117,0.00162458,0
 .00043197,0.00002422,0.00004451,0.00009705,0.00020237,-0.00002021,-0.0
 0017544,-0.00105045,-0.00494287,0.00292741,0.02468880,0.03861868,-0.04
 610764,-0.00008399,-0.00010767,-0.00012377,0.00001394,0.00003115,0.000
 00514,0.00006097,0.00000343,-0.00002991,0.00003045,-0.00001132,-0.0000
 8193,-0.00001869,0.00000308,-0.00000555,-0.00006660,-0.00007471,0.0000
 0102,0.00000174,-0.00003309,-0.00001309,0.00090358,-0.00133699,-0.0036
 6306,-0.02692740,-0.05099561,0.03833820,-0.00006220,-0.00259541,0.0030
 8808,-0.29851621,-0.24673380,0.05806441,-0.00112818,-0.00236227,-0.002
 08320,0.00000148,0.00019956,0.00017459,0.00013361,0.00030320,0.0000546
 5,-0.00034238,0.00974419,-0.00370591,0.01630199,0.01086566,-0.00256613
 ,0.00059509,0.00002514,0.00077673,-0.00010216,-0.00020118,-0.00003593,
 -0.00005009,-0.00003060,0.00000471,0.00012366,0.00002969,0.00005473,0.
 00005174,-0.00018502,-0.00011698,-0.00000310,-0.00004199,0.00010227,-0
 .00001588,0.00001314,0.00016393,-0.00038217,-0.00078921,0.00086404,-0.
 00049093,0.00324145,-0.00209414,0.28388572,-0.00194500,-0.00098886,-0.
 00178681,-0.20253380,-0.23601068,0.06158123,0.00082024,0.00145583,0.00
 131185,-0.00010593,0.00014222,-0.00031427,-0.00025292,0.00047502,-0.00
 030774,-0.00100969,0.00152557,-0.00047228,-0.02626983,-0.03955544,0.01
 221923,-0.00017332,-0.00024444,-0.00035321,-0.00004148,-0.00015579,0.0
 0009467,0.00009014,-0.00000988,0.00001181,-0.00006329,-0.00014451,0.00
 004692,-0.00005216,-0.00043509,-0.00006426,0.00001841,0.00005461,0.000
 18101,0.00012106,-0.00027083,-0.00005610,-0.00078661,-0.00025915,-0.00
 027213,0.00366675,-0.00241445,0.00245856,0.22851745,0.27683588,0.00150
 074,-0.00225957,-0.00154725,0.04042463,0.05668343,-0.02714492,-0.00107
 139,0.00007199,-0.00024468,0.00003202,-0.00015223,-0.00001275,-0.00016
 331,0.00053617,-0.00000741,-0.00011725,0.00170190,0.00035416,0.0133618
 3,0.01678068,-0.00297852,0.00014396,-0.00009536,-0.00001733,-0.0000340
 9,0.00006754,0.00008478,0.00010720,-0.00003557,-0.00003372,-0.00000384
 ,0.00004743,-0.00002855,-0.00025301,-0.00065907,-0.00003857,-0.0000201
 0,0.00020891,-0.00037750,0.00033255,-0.00015792,0.00006174,0.00044560,
 -0.00038305,-0.00036240,-0.00193967,0.00192324,0.00117807,-0.05274586,
 -0.07427851,0.03111488\\0.00000086,0.00000051,-0.00000031,0.00000120,-
 0.00000095,-0.00000135,-0.00000020,0.00000042,0.00000075,-0.00000016,0
 .00000061,0.00000137,-0.00000097,-0.00000037,0.00000013,0.00000041,-0.
 00000029,-0.00000071,0.00000001,0.00000024,-0.00000192,-0.00000013,0.0
 0000005,0.00000050,-0.00000002,0.00000064,0.00000136,0.00000054,0.0000
 0102,0.00000147,-0.00000057,0.00000063,0.00000187,-0.00000099,-0.00000
 037,0.00000028,-0.00000101,-0.00000064,-0.00000032,-0.00000151,-0.0000
 0042,0.00000071,0.00000080,-0.00000025,-0.00000073,0.00000109,-0.00000
 062,-0.00000210,0.00000066,-0.00000022,-0.00000099\\\@


 TWO ROADS DIVERGED IN A WOOD, AND I--
 I TOOK THE ONE LESS TRAVELED BY,
 AND THAT HAS MADE ALL THE DIFFERENCE.

                       -- ROBERT FROST
 Job cpu time:       0 days  2 hours 42 minutes 18.5 seconds.
 Elapsed time:       0 days  1 hours 21 minutes 10.9 seconds.
 File lengths (MBytes):  RWF=   1392 Int=      0 D2E=      0 Chk=     32 Scr=     32
 Normal termination of Gaussian 16 at Sat Sep 28 11:41:11 2019.
