 Entering Gaussian System, Link 0=g16
 Input=verytight/species/CC(C)OC=CO/conformers/CC(C)OC=CO_37.com
 Output=verytight/species/CC(C)OC=CO/conformers/CC(C)OC=CO_37.log
 Initial command:
 /shared/centos7/gaussian/g16/l1.exe "/scratch/harms.n/gauss_scrdir/Gau-47400.inp" -scrdir="/scratch/harms.n/gauss_scrdir/"
 Entering Link 1 = /shared/centos7/gaussian/g16/l1.exe PID=     47401.
  
 Copyright (c) 1988,1990,1992,1993,1995,1998,2003,2009,2016,
            Gaussian, Inc.  All Rights Reserved.
  
 This is part of the Gaussian(R) 16 program.  It is based on
 the Gaussian(R) 09 system (copyright 2009, Gaussian, Inc.),
 the Gaussian(R) 03 system (copyright 2003, Gaussian, Inc.),
 the Gaussian(R) 98 system (copyright 1998, Gaussian, Inc.),
 the Gaussian(R) 94 system (copyright 1995, Gaussian, Inc.),
 the Gaussian 92(TM) system (copyright 1992, Gaussian, Inc.),
 the Gaussian 90(TM) system (copyright 1990, Gaussian, Inc.),
 the Gaussian 88(TM) system (copyright 1988, Gaussian, Inc.),
 the Gaussian 86(TM) system (copyright 1986, Carnegie Mellon
 University), and the Gaussian 82(TM) system (copyright 1983,
 Carnegie Mellon University). Gaussian is a federally registered
 trademark of Gaussian, Inc.
  
 This software contains proprietary and confidential information,
 including trade secrets, belonging to Gaussian, Inc.
  
 This software is provided under written license and may be
 used, copied, transmitted, or stored only in accord with that
 written license.
  
 The following legend is applicable only to US Government
 contracts under FAR:
  
                    RESTRICTED RIGHTS LEGEND
  
 Use, reproduction and disclosure by the US Government is
 subject to restrictions as set forth in subparagraphs (a)
 and (c) of the Commercial Computer Software - Restricted
 Rights clause in FAR 52.227-19.
  
 Gaussian, Inc.
 340 Quinnipiac St., Bldg. 40, Wallingford CT 06492
  
  
 ---------------------------------------------------------------
 Warning -- This program may not be used in any manner that
 competes with the business of Gaussian, Inc. or will provide
 assistance to any competitor of Gaussian, Inc.  The licensee
 of this program is prohibited from giving any competitor of
 Gaussian, Inc. access to this program.  By using this program,
 the user acknowledges that Gaussian, Inc. is engaged in the
 business of creating and licensing software in the field of
 computational chemistry and represents and warrants to the
 licensee that it is not a competitor of Gaussian, Inc. and that
 it will not use this program in any manner prohibited above.
 ---------------------------------------------------------------
  

 Cite this work as:
 Gaussian 16, Revision A.03,
 M. J. Frisch, G. W. Trucks, H. B. Schlegel, G. E. Scuseria, 
 M. A. Robb, J. R. Cheeseman, G. Scalmani, V. Barone, 
 G. A. Petersson, H. Nakatsuji, X. Li, M. Caricato, A. V. Marenich, 
 J. Bloino, B. G. Janesko, R. Gomperts, B. Mennucci, H. P. Hratchian, 
 J. V. Ortiz, A. F. Izmaylov, J. L. Sonnenberg, D. Williams-Young, 
 F. Ding, F. Lipparini, F. Egidi, J. Goings, B. Peng, A. Petrone, 
 T. Henderson, D. Ranasinghe, V. G. Zakrzewski, J. Gao, N. Rega, 
 G. Zheng, W. Liang, M. Hada, M. Ehara, K. Toyota, R. Fukuda, 
 J. Hasegawa, M. Ishida, T. Nakajima, Y. Honda, O. Kitao, H. Nakai, 
 T. Vreven, K. Throssell, J. A. Montgomery, Jr., J. E. Peralta, 
 F. Ogliaro, M. J. Bearpark, J. J. Heyd, E. N. Brothers, K. N. Kudin, 
 V. N. Staroverov, T. A. Keith, R. Kobayashi, J. Normand, 
 K. Raghavachari, A. P. Rendell, J. C. Burant, S. S. Iyengar, 
 J. Tomasi, M. Cossi, J. M. Millam, M. Klene, C. Adamo, R. Cammi, 
 J. W. Ochterski, R. L. Martin, K. Morokuma, O. Farkas, 
 J. B. Foresman, and D. J. Fox, Gaussian, Inc., Wallingford CT, 2016.
 
 ******************************************
 Gaussian 16:  EM64L-G16RevA.03 25-Dec-2016
                28-Sep-2019 
 ******************************************
 %nprocshared=20
 Will use up to   20 processors via shared memory.
 %mem=5GB
 ----------------------------------------------------------------------
 #p m062x/cc-pVTZ opt=(calcfc,maxcycles=900,Tight) freq IOP(7/33=1,2/16
 =3) scf=(maxcycle=900)
 ----------------------------------------------------------------------
 1/6=900,7=10,10=4,18=20,19=15,26=3,38=1/1,3;
 2/9=110,12=2,16=3,17=6,18=5,40=1/2;
 3/5=16,6=1,11=2,25=1,30=1,71=2,74=-55,140=1/1,2,3;
 4//1;
 5/5=2,7=900,38=5/2;
 8/6=4,10=90,11=11/1;
 11/6=1,8=1,9=11,15=111,16=1/1,2,10;
 10/6=1,13=1/2;
 6/7=2,8=2,9=2,10=2,28=1/1;
 7/10=1,18=20,25=1,33=1/1,2,3,16;
 1/6=900,7=10,10=4,18=20,19=15,26=3/3(2);
 2/9=110,16=3/2;
 99//99;
 2/9=110,16=3/2;
 3/5=16,6=1,11=2,25=1,30=1,71=1,74=-55/1,2,3;
 4/5=5,16=3,69=1/1;
 5/5=2,7=900,38=5/2;
 7/33=1/1,2,3,16;
 1/6=900,7=10,18=20,19=15,26=3/3(-5);
 2/9=110,16=3/2;
 6/7=2,8=2,9=2,10=2,19=2,28=1/1;
 99/9=1/99;
 Leave Link    1 at Sat Sep 28 03:49:27 2019, MaxMem=   671088640 cpu:               4.1 elap:               2.0
 (Enter /shared/centos7/gaussian/g16/l101.exe)
 ------------------------------
 Gaussian input prepared by ASE
 ------------------------------
 Symbolic Z-matrix:
 Charge =  0 Multiplicity = 1
 O                    -0.37093  -1.54732   1.50131 
 O                     1.38245   0.36863   3.06734 
 C                    -1.09266  -0.6695    2.33941 
 C                    -2.44308  -1.31024   2.66006 
 C                    -1.2501    0.68706   1.73522 
 C                     0.95711  -1.23181   1.32622 
 C                     1.73546  -0.42215   1.984 
 H                    -0.5379   -0.56576   3.31297 
 H                    -2.30248  -2.30075   3.14102 
 H                    -3.02285  -0.66929   3.34893 
 H                    -3.05308  -1.46107   1.72851 
 H                    -1.84862   0.64673   0.77771 
 H                    -0.26359   1.13867   1.50086 
 H                    -1.78854   1.37964   2.4423 
 H                     1.38638  -1.82083   0.50007 
 H                     2.76979  -0.32921   1.68743 
 H                     2.18551   0.92215   3.29203 
 
 ITRead=  0  0  0  0  0  0  0  0  0  0  0  0  0  0  0  0  0
 MicOpt= -1 -1 -1 -1 -1 -1 -1 -1 -1 -1 -1 -1 -1 -1 -1 -1 -1
 NAtoms=     17 NQM=       17 NQMF=       0 NMMI=      0 NMMIF=      0
                NMic=       0 NMicF=      0.
                    Isotopes and Nuclear Properties:
 (Nuclear quadrupole moments (NQMom) in fm**2, nuclear magnetic moments (NMagM)
  in nuclear magnetons)

  Atom         1           2           3           4           5           6           7           8           9          10
 IAtWgt=          16          16          12          12          12          12          12           1           1           1
 AtmWgt=  15.9949146  15.9949146  12.0000000  12.0000000  12.0000000  12.0000000  12.0000000   1.0078250   1.0078250   1.0078250
 NucSpn=           0           0           0           0           0           0           0           1           1           1
 AtZEff=  -0.0000000  -0.0000000  -0.0000000  -0.0000000  -0.0000000  -0.0000000  -0.0000000  -0.0000000  -0.0000000  -0.0000000
 NQMom=    0.0000000   0.0000000   0.0000000   0.0000000   0.0000000   0.0000000   0.0000000   0.0000000   0.0000000   0.0000000
 NMagM=    0.0000000   0.0000000   0.0000000   0.0000000   0.0000000   0.0000000   0.0000000   2.7928460   2.7928460   2.7928460
 AtZNuc=   8.0000000   8.0000000   6.0000000   6.0000000   6.0000000   6.0000000   6.0000000   1.0000000   1.0000000   1.0000000

  Atom        11          12          13          14          15          16          17
 IAtWgt=           1           1           1           1           1           1           1
 AtmWgt=   1.0078250   1.0078250   1.0078250   1.0078250   1.0078250   1.0078250   1.0078250
 NucSpn=           1           1           1           1           1           1           1
 AtZEff=  -0.0000000  -0.0000000  -0.0000000  -0.0000000  -0.0000000  -0.0000000  -0.0000000
 NQMom=    0.0000000   0.0000000   0.0000000   0.0000000   0.0000000   0.0000000   0.0000000
 NMagM=    2.7928460   2.7928460   2.7928460   2.7928460   2.7928460   2.7928460   2.7928460
 AtZNuc=   1.0000000   1.0000000   1.0000000   1.0000000   1.0000000   1.0000000   1.0000000
 Leave Link  101 at Sat Sep 28 03:49:28 2019, MaxMem=   671088640 cpu:               2.7 elap:               1.4
 (Enter /shared/centos7/gaussian/g16/l103.exe)

 GradGradGradGradGradGradGradGradGradGradGradGradGradGradGradGradGradGrad
 Berny optimization.
 Initialization pass.
                           ----------------------------
                           !    Initial Parameters    !
                           ! (Angstroms and Degrees)  !
 --------------------------                            --------------------------
 ! Name  Definition              Value          Derivative Info.                !
 --------------------------------------------------------------------------------
 ! R1    R(1,3)                  1.412          calculate D2E/DX2 analytically  !
 ! R2    R(1,6)                  1.3762         calculate D2E/DX2 analytically  !
 ! R3    R(2,7)                  1.3869         calculate D2E/DX2 analytically  !
 ! R4    R(2,17)                 1.0009         calculate D2E/DX2 analytically  !
 ! R5    R(3,4)                  1.5287         calculate D2E/DX2 analytically  !
 ! R6    R(3,5)                  1.4933         calculate D2E/DX2 analytically  !
 ! R7    R(3,8)                  1.1253         calculate D2E/DX2 analytically  !
 ! R8    R(4,9)                  1.1101         calculate D2E/DX2 analytically  !
 ! R9    R(4,10)                 1.1052         calculate D2E/DX2 analytically  !
 ! R10   R(4,11)                 1.1237         calculate D2E/DX2 analytically  !
 ! R11   R(5,12)                 1.1299         calculate D2E/DX2 analytically  !
 ! R12   R(5,13)                 1.11           calculate D2E/DX2 analytically  !
 ! R13   R(5,14)                 1.1267         calculate D2E/DX2 analytically  !
 ! R14   R(6,7)                  1.3016         calculate D2E/DX2 analytically  !
 ! R15   R(6,15)                 1.1017         calculate D2E/DX2 analytically  !
 ! R16   R(7,16)                 1.08           calculate D2E/DX2 analytically  !
 ! A1    A(3,1,6)              115.2288         calculate D2E/DX2 analytically  !
 ! A2    A(7,2,17)             106.645          calculate D2E/DX2 analytically  !
 ! A3    A(1,3,4)              108.3876         calculate D2E/DX2 analytically  !
 ! A4    A(1,3,5)              112.239          calculate D2E/DX2 analytically  !
 ! A5    A(1,3,8)              108.5916         calculate D2E/DX2 analytically  !
 ! A6    A(4,3,5)              111.8682         calculate D2E/DX2 analytically  !
 ! A7    A(4,3,8)              107.017          calculate D2E/DX2 analytically  !
 ! A8    A(5,3,8)              108.5579         calculate D2E/DX2 analytically  !
 ! A9    A(3,4,9)              110.6702         calculate D2E/DX2 analytically  !
 ! A10   A(3,4,10)             110.5519         calculate D2E/DX2 analytically  !
 ! A11   A(3,4,11)             111.2181         calculate D2E/DX2 analytically  !
 ! A12   A(9,4,10)             108.2924         calculate D2E/DX2 analytically  !
 ! A13   A(9,4,11)             107.9497         calculate D2E/DX2 analytically  !
 ! A14   A(10,4,11)            108.0474         calculate D2E/DX2 analytically  !
 ! A15   A(3,5,12)             111.4869         calculate D2E/DX2 analytically  !
 ! A16   A(3,5,13)             111.1811         calculate D2E/DX2 analytically  !
 ! A17   A(3,5,14)             110.7848         calculate D2E/DX2 analytically  !
 ! A18   A(12,5,13)            107.8412         calculate D2E/DX2 analytically  !
 ! A19   A(12,5,14)            107.4932         calculate D2E/DX2 analytically  !
 ! A20   A(13,5,14)            107.886          calculate D2E/DX2 analytically  !
 ! A21   A(1,6,7)              130.9506         calculate D2E/DX2 analytically  !
 ! A22   A(1,6,15)             110.4168         calculate D2E/DX2 analytically  !
 ! A23   A(7,6,15)             118.5909         calculate D2E/DX2 analytically  !
 ! A24   A(2,7,6)              126.6714         calculate D2E/DX2 analytically  !
 ! A25   A(2,7,16)             114.1539         calculate D2E/DX2 analytically  !
 ! A26   A(6,7,16)             119.1747         calculate D2E/DX2 analytically  !
 ! D1    D(6,1,3,4)           -168.3639         calculate D2E/DX2 analytically  !
 ! D2    D(6,1,3,5)             67.5818         calculate D2E/DX2 analytically  !
 ! D3    D(6,1,3,8)            -52.4387         calculate D2E/DX2 analytically  !
 ! D4    D(3,1,6,7)             14.8621         calculate D2E/DX2 analytically  !
 ! D5    D(3,1,6,15)          -167.5728         calculate D2E/DX2 analytically  !
 ! D6    D(17,2,7,6)          -175.6179         calculate D2E/DX2 analytically  !
 ! D7    D(17,2,7,16)            4.4602         calculate D2E/DX2 analytically  !
 ! D8    D(1,3,4,9)             57.7599         calculate D2E/DX2 analytically  !
 ! D9    D(1,3,4,10)           177.7407         calculate D2E/DX2 analytically  !
 ! D10   D(1,3,4,11)           -62.2276         calculate D2E/DX2 analytically  !
 ! D11   D(5,3,4,9)           -177.9645         calculate D2E/DX2 analytically  !
 ! D12   D(5,3,4,10)           -57.9837         calculate D2E/DX2 analytically  !
 ! D13   D(5,3,4,11)            62.048          calculate D2E/DX2 analytically  !
 ! D14   D(8,3,4,9)            -59.1825         calculate D2E/DX2 analytically  !
 ! D15   D(8,3,4,10)            60.7983         calculate D2E/DX2 analytically  !
 ! D16   D(8,3,4,11)          -179.17           calculate D2E/DX2 analytically  !
 ! D17   D(1,3,5,12)            62.8486         calculate D2E/DX2 analytically  !
 ! D18   D(1,3,5,13)           -57.5263         calculate D2E/DX2 analytically  !
 ! D19   D(1,3,5,14)          -177.4854         calculate D2E/DX2 analytically  !
 ! D20   D(4,3,5,12)           -59.2465         calculate D2E/DX2 analytically  !
 ! D21   D(4,3,5,13)          -179.6214         calculate D2E/DX2 analytically  !
 ! D22   D(4,3,5,14)            60.4195         calculate D2E/DX2 analytically  !
 ! D23   D(8,3,5,12)          -177.1112         calculate D2E/DX2 analytically  !
 ! D24   D(8,3,5,13)            62.5138         calculate D2E/DX2 analytically  !
 ! D25   D(8,3,5,14)           -57.4452         calculate D2E/DX2 analytically  !
 ! D26   D(1,6,7,2)             -0.8785         calculate D2E/DX2 analytically  !
 ! D27   D(1,6,7,16)           179.0399         calculate D2E/DX2 analytically  !
 ! D28   D(15,6,7,2)          -178.2795         calculate D2E/DX2 analytically  !
 ! D29   D(15,6,7,16)            1.6389         calculate D2E/DX2 analytically  !
 --------------------------------------------------------------------------------
 Trust Radius=3.00D-01 FncErr=1.00D-07 GrdErr=1.00D-06 EigMax=2.50D+02 EigMin=1.00D-04
 Number of steps in this run=    102 maximum allowed number of steps=    102.
 GradGradGradGradGradGradGradGradGradGradGradGradGradGradGradGradGradGrad

 Leave Link  103 at Sat Sep 28 03:49:29 2019, MaxMem=   671088640 cpu:               1.6 elap:               0.8
 (Enter /shared/centos7/gaussian/g16/l202.exe)
                          Input orientation:                          
 ---------------------------------------------------------------------
 Center     Atomic      Atomic             Coordinates (Angstroms)
 Number     Number       Type             X           Y           Z
 ---------------------------------------------------------------------
      1          8           0       -0.370925   -1.547321    1.501315
      2          8           0        1.382446    0.368631    3.067341
      3          6           0       -1.092659   -0.669498    2.339410
      4          6           0       -2.443085   -1.310237    2.660060
      5          6           0       -1.250095    0.687055    1.735219
      6          6           0        0.957114   -1.231808    1.326216
      7          6           0        1.735465   -0.422154    1.984002
      8          1           0       -0.537898   -0.565765    3.312973
      9          1           0       -2.302483   -2.300751    3.141023
     10          1           0       -3.022847   -0.669287    3.348932
     11          1           0       -3.053081   -1.461071    1.728511
     12          1           0       -1.848618    0.646733    0.777706
     13          1           0       -0.263587    1.138665    1.500862
     14          1           0       -1.788543    1.379642    2.442298
     15          1           0        1.386384   -1.820828    0.500070
     16          1           0        2.769789   -0.329206    1.687427
     17          1           0        2.185512    0.922150    3.292029
 ---------------------------------------------------------------------
                    Distance matrix (angstroms):
                    1          2          3          4          5
     1  O    0.000000
     2  O    3.032758   0.000000
     3  C    1.412047   2.780961   0.000000
     4  C    2.385948   4.197519   1.528729   0.000000
     5  C    2.412486   2.967527   1.493342   2.503544   0.000000
     6  C    1.376189   2.402879   2.354639   3.653306   2.953149
     7  C    2.436363   1.386935   2.861080   4.325046   3.194653
     8  H    2.067230   2.149686   1.125320   2.147155   2.136841
     9  H    2.643335   4.550795   2.183402   1.110050   3.465659
    10  H    3.349227   4.534664   2.178247   1.105209   2.754338
    11  H    2.693143   4.981383   2.200691   1.123668   2.804505
    12  H    2.742455   3.969829   2.177810   2.779637   1.129905
    13  H    2.688130   2.399215   2.158698   3.477222   1.109989
    14  H    3.385587   3.386443   2.166521   2.776922   1.126748
    15  H    2.040940   3.374112   3.294600   4.426183   3.842668
    16  H    3.373800   2.077465   3.931843   5.392819   4.146630
    17  H    3.979990   1.000891   3.766595   5.177533   3.779196
                    6          7          8          9         10
     6  C    0.000000
     7  C    1.301558   0.000000
     8  H    2.574078   2.637227   0.000000
     9  H    3.880868   4.601397   2.480626   0.000000
    10  H    4.499766   4.956374   2.487365   1.795502   0.000000
    11  H    4.036839   4.906608   3.104552   1.806558   1.803774
    12  H    3.420805   3.929799   3.100922   3.805118   3.118000
    13  H    2.672032   2.581819   2.502813   4.321668   3.781213
    14  H    3.950182   3.984361   2.471193   3.781222   2.558046
    15  H    1.101697   2.068865   3.631869   4.562095   5.374327
    16  H    2.056929   1.080011   3.693122   5.632751   6.035801
    17  H    3.164319   1.928894   3.103432   5.527386   5.446367
                   11         12         13         14         15
    11  H    0.000000
    12  H    2.607221   0.000000
    13  H    3.819913   1.810324   0.000000
    14  H    3.190329   1.819788   1.808276   0.000000
    15  H    4.620319   4.078134   3.533071   4.908709   0.000000
    16  H    5.932000   4.807258   3.375029   4.926295   2.355539
    17  H    5.963824   4.761499   3.041914   4.089555   3.994693
                   16         17
    16  H    0.000000
    17  H    2.117078   0.000000
 Stoichiometry    C5H10O2
 Framework group  C1[X(C5H10O2)]
 Deg. of freedom    45
 Full point group                 C1      NOp   1
 Largest Abelian subgroup         C1      NOp   1
 Largest concise Abelian subgroup C1      NOp   1
                         Standard orientation:                         
 ---------------------------------------------------------------------
 Center     Atomic      Atomic             Coordinates (Angstroms)
 Number     Number       Type             X           Y           Z
 ---------------------------------------------------------------------
      1          8           0       -0.331990    1.140145    0.130164
      2          8           0        1.686883   -0.997619   -0.612625
      3          6           0       -0.911603   -0.112674   -0.167107
      4          6           0       -2.360083    0.116399   -0.598896
      5          6           0       -0.816855   -1.065453    0.978888
      6          6           0        1.034552    1.130521    0.292534
      7          6           0        1.924625    0.234298   -0.021485
      8          1           0       -0.371681   -0.557714   -1.048453
      9          1           0       -2.405005    0.798070   -1.473835
     10          1           0       -2.837177   -0.840198   -0.879589
     11          1           0       -2.963585    0.576414    0.229840
     12          1           0       -1.389291   -0.689907    1.877758
     13          1           0        0.238440   -1.218194    1.287268
     14          1           0       -1.244789   -2.069840    0.700247
     15          1           0        1.375876    2.080633    0.733580
     16          1           0        2.966492    0.433137    0.181981
     17          1           0        2.567759   -1.471152   -0.652713
 ---------------------------------------------------------------------
 Rotational constants (GHZ):           4.3642383           1.8896764           1.6053411
 Leave Link  202 at Sat Sep 28 03:49:31 2019, MaxMem=   671088640 cpu:               3.0 elap:               1.5
 (Enter /shared/centos7/gaussian/g16/l301.exe)
 Standard basis: CC-pVTZ (5D, 7F)
 Ernie: Thresh=  0.10000D-02 Tol=  0.10000D-05 Strict=F.
 Ernie:  21 primitive shells out of 262 were deleted.
 There are   395 symmetry adapted cartesian basis functions of A   symmetry.
 There are   350 symmetry adapted basis functions of A   symmetry.
   350 basis functions,   534 primitive gaussians,   395 cartesian basis functions
    28 alpha electrons       28 beta electrons
       nuclear repulsion energy       324.0985036260 Hartrees.
 IExCor= 4336 DFT=T Ex+Corr=M062X ExCW=0 ScaHFX=  0.540000
 ScaDFX=  1.000000  1.000000  1.000000  1.000000 ScalE2=  1.000000  1.000000
 IRadAn=      5 IRanWt=     -1 IRanGd=            0 ICorTp=0 IEmpDi=  4
 NAtoms=   17 NActive=   17 NUniq=   17 SFac= 1.00D+00 NAtFMM=   60 NAOKFM=F Big=F
 Integral buffers will be    131072 words long.
 Raffenetti 2 integral format.
 Two-electron integral symmetry is turned on.
 Leave Link  301 at Sat Sep 28 03:49:32 2019, MaxMem=   671088640 cpu:               2.0 elap:               1.0
 (Enter /shared/centos7/gaussian/g16/l302.exe)
 NPDir=0 NMtPBC=     1 NCelOv=     1 NCel=       1 NClECP=     1 NCelD=      1
         NCelK=      1 NCelE2=     1 NClLst=     1 CellRange=     0.0.
 One-electron integrals computed using PRISM.
 One-electron integral symmetry used in STVInt
 NBasis=   350 RedAO= T EigKep=  3.27D-04  NBF=   350
 NBsUse=   350 1.00D-06 EigRej= -1.00D+00 NBFU=   350
 Precomputing XC quadrature grid using
 IXCGrd= 4 IRadAn=           5 IRanWt=          -1 IRanGd=           0 AccXCQ= 0.00D+00.
 Generated NRdTot=       0 NPtTot=           0 NUsed=           0 NTot=          32
 NSgBfM=   395   395   395   395   395 MxSgAt=    17 MxSgA2=    17.
 Leave Link  302 at Sat Sep 28 03:50:34 2019, MaxMem=   671088640 cpu:             124.7 elap:              62.4
 (Enter /shared/centos7/gaussian/g16/l303.exe)
 DipDrv:  MaxL=1.
 Leave Link  303 at Sat Sep 28 03:50:38 2019, MaxMem=   671088640 cpu:               8.1 elap:               4.1
 (Enter /shared/centos7/gaussian/g16/l401.exe)
 ExpMin= 1.03D-01 ExpMax= 1.53D+04 ExpMxC= 5.22D+02 IAcc=3 IRadAn=         5 AccDes= 0.00D+00
 Harris functional with IExCor= 1009 and IRadAn=       5 diagonalized for initial guess.
 HarFok:  IExCor= 1009 AccDes= 0.00D+00 IRadAn=         5 IDoV= 1 UseB2=F ITyADJ=14
 ICtDFT=  3500011 ScaDFX=  1.000000  1.000000  1.000000  1.000000
 FoFCou: FMM=F IPFlag=           0 FMFlag=      100000 FMFlg1=           0
         NFxFlg=           0 DoJE=T BraDBF=F KetDBF=T FulRan=T
         wScrn=  0.000000 ICntrl=       500 IOpCl=  0 I1Cent=   200000004 NGrid=           0
         NMat0=    1 NMatS0=      1 NMatT0=    0 NMatD0=    1 NMtDS0=    0 NMtDT0=    0
 Petite list used in FoFCou.
 Harris En= -346.814246743557    
 JPrj=0 DoOrth=F DoCkMO=F.
 Leave Link  401 at Sat Sep 28 03:51:11 2019, MaxMem=   671088640 cpu:              65.5 elap:              32.8
 (Enter /shared/centos7/gaussian/g16/l502.exe)
 Integral symmetry usage will be decided dynamically.
 Closed shell SCF:
 Using DIIS extrapolation, IDIIS=  1040.
 NGot=   671088640 LenX=   670765141 LenY=   670608675
 Requested convergence on RMS density matrix=1.00D-08 within 900 cycles.
 Requested convergence on MAX density matrix=1.00D-06.
 Requested convergence on             energy=1.00D-06.
 No special actions if energy rises.
 Fock matrices will be formed incrementally for  20 cycles.
 Integral accuracy reduced to 1.0D-05 until final iterations.

 Cycle   1  Pass 0  IDiag  1:
 FoFJK:  IHMeth= 1 ICntrl=       0 DoSepK=F KAlg= 0 I1Cent=           0 FoldK=F
 IRaf= 960000000 NMat=       1 IRICut=       1 DoRegI=T DoRafI=F ISym2E= 0 IDoP0=0 IntGTp=1.
 FoFCou: FMM=F IPFlag=           0 FMFlag=      100000 FMFlg1=           0
         NFxFlg=           0 DoJE=F BraDBF=F KetDBF=F FulRan=T
         wScrn=  0.000000 ICntrl=         0 IOpCl=  0 I1Cent=           0 NGrid=           0
         NMat0=    1 NMatS0=      1 NMatT0=    0 NMatD0=    1 NMtDS0=    0 NMtDT0=    0
 Symmetry not used in FoFCou.
 E= -346.700431692089    
 DIIS: error= 2.49D-02 at cycle   1 NSaved=   1.
 NSaved= 1 IEnMin= 1 EnMin= -346.700431692089     IErMin= 1 ErrMin= 2.49D-02
 ErrMax= 2.49D-02  0.00D+00 EMaxC= 1.00D-01 BMatC= 2.86D-01 BMatP= 2.86D-01
 IDIUse=3 WtCom= 7.51D-01 WtEn= 2.49D-01
 Coeff-Com:  0.100D+01
 Coeff-En:   0.100D+01
 Coeff:      0.100D+01
 Gap=     0.358 Goal=   None    Shift=    0.000
 GapD=    0.358 DampG=1.000 DampE=0.500 DampFc=0.5000 IDamp=-1.
 Damping current iteration by 5.00D-01
 RMSDP=2.03D-03 MaxDP=8.48D-02              OVMax= 1.41D-01

 Cycle   2  Pass 0  IDiag  1:
 RMSU=  1.02D-03    CP:  9.99D-01
 E= -346.820349782283     Delta-E=       -0.119918090194 Rises=F Damp=T
 DIIS: error= 4.12D-03 at cycle   2 NSaved=   2.
 NSaved= 2 IEnMin= 2 EnMin= -346.820349782283     IErMin= 2 ErrMin= 4.12D-03
 ErrMax= 4.12D-03  0.00D+00 EMaxC= 1.00D-01 BMatC= 2.13D-02 BMatP= 2.86D-01
 IDIUse=3 WtCom= 9.59D-01 WtEn= 4.12D-02
 Coeff-Com: -0.125D+00 0.113D+01
 Coeff-En:   0.000D+00 0.100D+01
 Coeff:     -0.120D+00 0.112D+01
 Gap=     0.317 Goal=   None    Shift=    0.000
 RMSDP=4.66D-04 MaxDP=1.53D-02 DE=-1.20D-01 OVMax= 7.22D-02

 Cycle   3  Pass 0  IDiag  1:
 RMSU=  4.56D-04    CP:  1.00D+00  9.11D-01
 E= -346.929454141978     Delta-E=       -0.109104359695 Rises=F Damp=F
 DIIS: error= 2.57D-03 at cycle   3 NSaved=   3.
 NSaved= 3 IEnMin= 3 EnMin= -346.929454141978     IErMin= 3 ErrMin= 2.57D-03
 ErrMax= 2.57D-03  0.00D+00 EMaxC= 1.00D-01 BMatC= 3.89D-03 BMatP= 2.13D-02
 IDIUse=3 WtCom= 9.74D-01 WtEn= 2.57D-02
 Coeff-Com: -0.833D-01 0.318D+00 0.765D+00
 Coeff-En:   0.000D+00 0.000D+00 0.100D+01
 Coeff:     -0.811D-01 0.310D+00 0.772D+00
 Gap=     0.314 Goal=   None    Shift=    0.000
 RMSDP=1.66D-04 MaxDP=7.86D-03 DE=-1.09D-01 OVMax= 1.25D-02

 Cycle   4  Pass 0  IDiag  1:
 RMSU=  1.24D-04    CP:  1.00D+00  1.01D+00  8.81D-01
 E= -346.931673643633     Delta-E=       -0.002219501656 Rises=F Damp=F
 DIIS: error= 1.29D-03 at cycle   4 NSaved=   4.
 NSaved= 4 IEnMin= 4 EnMin= -346.931673643633     IErMin= 4 ErrMin= 1.29D-03
 ErrMax= 1.29D-03  0.00D+00 EMaxC= 1.00D-01 BMatC= 1.01D-03 BMatP= 3.89D-03
 IDIUse=3 WtCom= 9.87D-01 WtEn= 1.29D-02
 Coeff-Com: -0.282D-01 0.748D-01 0.382D+00 0.572D+00
 Coeff-En:   0.000D+00 0.000D+00 0.146D+00 0.854D+00
 Coeff:     -0.279D-01 0.738D-01 0.379D+00 0.576D+00
 Gap=     0.311 Goal=   None    Shift=    0.000
 RMSDP=6.44D-05 MaxDP=2.91D-03 DE=-2.22D-03 OVMax= 4.99D-03

 Cycle   5  Pass 0  IDiag  1:
 RMSU=  2.86D-05    CP:  1.00D+00  9.88D-01  9.34D-01  6.04D-01
 E= -346.932400377123     Delta-E=       -0.000726733490 Rises=F Damp=F
 DIIS: error= 2.17D-04 at cycle   5 NSaved=   5.
 NSaved= 5 IEnMin= 5 EnMin= -346.932400377123     IErMin= 5 ErrMin= 2.17D-04
 ErrMax= 2.17D-04  0.00D+00 EMaxC= 1.00D-01 BMatC= 3.07D-05 BMatP= 1.01D-03
 IDIUse=3 WtCom= 9.98D-01 WtEn= 2.17D-03
 Coeff-Com: -0.533D-02 0.995D-02 0.992D-01 0.221D+00 0.675D+00
 Coeff-En:   0.000D+00 0.000D+00 0.000D+00 0.000D+00 0.100D+01
 Coeff:     -0.532D-02 0.993D-02 0.990D-01 0.221D+00 0.675D+00
 Gap=     0.311 Goal=   None    Shift=    0.000
 RMSDP=1.15D-05 MaxDP=3.17D-04 DE=-7.27D-04 OVMax= 1.03D-03

 Cycle   6  Pass 0  IDiag  1:
 RMSU=  8.01D-06    CP:  1.00D+00  9.86D-01  9.41D-01  6.48D-01  8.25D-01
 E= -346.932421684000     Delta-E=       -0.000021306877 Rises=F Damp=F
 DIIS: error= 5.45D-05 at cycle   6 NSaved=   6.
 NSaved= 6 IEnMin= 6 EnMin= -346.932421684000     IErMin= 6 ErrMin= 5.45D-05
 ErrMax= 5.45D-05  0.00D+00 EMaxC= 1.00D-01 BMatC= 1.57D-06 BMatP= 3.07D-05
 IDIUse=1 WtCom= 1.00D+00 WtEn= 0.00D+00
 Coeff-Com: -0.129D-04-0.120D-02 0.119D-01 0.480D-01 0.223D+00 0.718D+00
 Coeff:     -0.129D-04-0.120D-02 0.119D-01 0.480D-01 0.223D+00 0.718D+00
 Gap=     0.311 Goal=   None    Shift=    0.000
 RMSDP=3.13D-06 MaxDP=1.27D-04 DE=-2.13D-05 OVMax= 4.51D-04

 Initial convergence to 1.0D-05 achieved.  Increase integral accuracy.
 Cycle   7  Pass 1  IDiag  1:
 E= -346.932438693804     Delta-E=       -0.000017009805 Rises=F Damp=F
 DIIS: error= 2.68D-05 at cycle   1 NSaved=   1.
 NSaved= 1 IEnMin= 1 EnMin= -346.932438693804     IErMin= 1 ErrMin= 2.68D-05
 ErrMax= 2.68D-05  0.00D+00 EMaxC= 1.00D-01 BMatC= 6.65D-07 BMatP= 6.65D-07
 IDIUse=1 WtCom= 1.00D+00 WtEn= 0.00D+00
 Coeff-Com:  0.100D+01
 Coeff:      0.100D+01
 Gap=     0.311 Goal=   None    Shift=    0.000
 RMSDP=3.13D-06 MaxDP=1.27D-04 DE=-1.70D-05 OVMax= 2.94D-04

 Cycle   8  Pass 1  IDiag  1:
 RMSU=  6.33D-06    CP:  1.00D+00
 E= -346.932438876346     Delta-E=       -0.000000182541 Rises=F Damp=F
 DIIS: error= 2.39D-05 at cycle   2 NSaved=   2.
 NSaved= 2 IEnMin= 2 EnMin= -346.932438876346     IErMin= 2 ErrMin= 2.39D-05
 ErrMax= 2.39D-05  0.00D+00 EMaxC= 1.00D-01 BMatC= 2.61D-07 BMatP= 6.65D-07
 IDIUse=1 WtCom= 1.00D+00 WtEn= 0.00D+00
 Coeff-Com:  0.348D+00 0.652D+00
 Coeff:      0.348D+00 0.652D+00
 Gap=     0.311 Goal=   None    Shift=    0.000
 RMSDP=1.53D-06 MaxDP=5.92D-05 DE=-1.83D-07 OVMax= 2.79D-04

 Cycle   9  Pass 1  IDiag  1:
 RMSU=  1.51D-06    CP:  1.00D+00  9.64D-01
 E= -346.932439060214     Delta-E=       -0.000000183868 Rises=F Damp=F
 DIIS: error= 1.09D-05 at cycle   3 NSaved=   3.
 NSaved= 3 IEnMin= 3 EnMin= -346.932439060214     IErMin= 3 ErrMin= 1.09D-05
 ErrMax= 1.09D-05  0.00D+00 EMaxC= 1.00D-01 BMatC= 6.46D-08 BMatP= 2.61D-07
 IDIUse=1 WtCom= 1.00D+00 WtEn= 0.00D+00
 Coeff-Com: -0.245D-02 0.326D+00 0.676D+00
 Coeff:     -0.245D-02 0.326D+00 0.676D+00
 Gap=     0.311 Goal=   None    Shift=    0.000
 RMSDP=5.65D-07 MaxDP=2.09D-05 DE=-1.84D-07 OVMax= 9.83D-05

 Cycle  10  Pass 1  IDiag  1:
 RMSU=  2.53D-07    CP:  1.00D+00  1.00D+00  7.03D-01
 E= -346.932439113300     Delta-E=       -0.000000053086 Rises=F Damp=F
 DIIS: error= 1.86D-06 at cycle   4 NSaved=   4.
 NSaved= 4 IEnMin= 4 EnMin= -346.932439113300     IErMin= 4 ErrMin= 1.86D-06
 ErrMax= 1.86D-06  0.00D+00 EMaxC= 1.00D-01 BMatC= 3.53D-09 BMatP= 6.46D-08
 IDIUse=1 WtCom= 1.00D+00 WtEn= 0.00D+00
 Coeff-Com: -0.146D-01 0.143D+00 0.334D+00 0.537D+00
 Coeff:     -0.146D-01 0.143D+00 0.334D+00 0.537D+00
 Gap=     0.311 Goal=   None    Shift=    0.000
 RMSDP=1.11D-07 MaxDP=4.85D-06 DE=-5.31D-08 OVMax= 1.33D-05

 Cycle  11  Pass 1  IDiag  1:
 RMSU=  9.59D-08    CP:  1.00D+00  1.00D+00  7.34D-01  8.83D-01
 E= -346.932439115899     Delta-E=       -0.000000002600 Rises=F Damp=F
 DIIS: error= 3.96D-07 at cycle   5 NSaved=   5.
 NSaved= 5 IEnMin= 5 EnMin= -346.932439115899     IErMin= 5 ErrMin= 3.96D-07
 ErrMax= 3.96D-07  0.00D+00 EMaxC= 1.00D-01 BMatC= 1.09D-10 BMatP= 3.53D-09
 IDIUse=1 WtCom= 1.00D+00 WtEn= 0.00D+00
 Coeff-Com: -0.228D-02-0.563D-02-0.130D-01 0.109D+00 0.912D+00
 Coeff:     -0.228D-02-0.563D-02-0.130D-01 0.109D+00 0.912D+00
 Gap=     0.311 Goal=   None    Shift=    0.000
 RMSDP=3.71D-08 MaxDP=1.10D-06 DE=-2.60D-09 OVMax= 2.94D-06

 Cycle  12  Pass 1  IDiag  1:
 RMSU=  2.15D-08    CP:  1.00D+00  1.00D+00  7.32D-01  9.91D-01  1.09D+00
 E= -346.932439116016     Delta-E=       -0.000000000117 Rises=F Damp=F
 DIIS: error= 1.65D-07 at cycle   6 NSaved=   6.
 NSaved= 6 IEnMin= 6 EnMin= -346.932439116016     IErMin= 6 ErrMin= 1.65D-07
 ErrMax= 1.65D-07  0.00D+00 EMaxC= 1.00D-01 BMatC= 2.48D-11 BMatP= 1.09D-10
 IDIUse=1 WtCom= 1.00D+00 WtEn= 0.00D+00
 Coeff-Com:  0.584D-03-0.186D-01-0.448D-01-0.122D-01 0.401D+00 0.675D+00
 Coeff:      0.584D-03-0.186D-01-0.448D-01-0.122D-01 0.401D+00 0.675D+00
 Gap=     0.311 Goal=   None    Shift=    0.000
 RMSDP=1.25D-08 MaxDP=5.80D-07 DE=-1.17D-10 OVMax= 8.16D-07

 Cycle  13  Pass 1  IDiag  1:
 RMSU=  9.43D-09    CP:  1.00D+00  1.00D+00  7.32D-01  1.01D+00  1.15D+00
                    CP:  9.56D-01
 E= -346.932439116047     Delta-E=       -0.000000000031 Rises=F Damp=F
 DIIS: error= 5.22D-08 at cycle   7 NSaved=   7.
 NSaved= 7 IEnMin= 7 EnMin= -346.932439116047     IErMin= 7 ErrMin= 5.22D-08
 ErrMax= 5.22D-08  0.00D+00 EMaxC= 1.00D-01 BMatC= 1.81D-12 BMatP= 2.48D-11
 IDIUse=1 WtCom= 1.00D+00 WtEn= 0.00D+00
 Coeff-Com:  0.429D-03-0.686D-02-0.169D-01-0.134D-01 0.887D-01 0.280D+00
 Coeff-Com:  0.668D+00
 Coeff:      0.429D-03-0.686D-02-0.169D-01-0.134D-01 0.887D-01 0.280D+00
 Coeff:      0.668D+00
 Gap=     0.311 Goal=   None    Shift=    0.000
 RMSDP=3.47D-09 MaxDP=1.07D-07 DE=-3.09D-11 OVMax= 3.07D-07

 SCF Done:  E(RM062X) =  -346.932439116     A.U. after   13 cycles
            NFock= 13  Conv=0.35D-08     -V/T= 2.0063
 KE= 3.447463312214D+02 PE=-1.458452595002D+03 EE= 4.426753210381D+02
 Leave Link  502 at Sat Sep 28 04:02:09 2019, MaxMem=   671088640 cpu:            1316.9 elap:             658.5
 (Enter /shared/centos7/gaussian/g16/l801.exe)
 DoSCS=F DFT=T ScalE2(SS,OS)=  1.000000  1.000000
 Range of M.O.s used for correlation:     1   350
 NBasis=   350 NAE=    28 NBE=    28 NFC=     0 NFV=     0
 NROrb=    350 NOA=    28 NOB=    28 NVA=   322 NVB=   322

 **** Warning!!: The largest alpha MO coefficient is  0.10947517D+02

 Leave Link  801 at Sat Sep 28 04:02:10 2019, MaxMem=   671088640 cpu:               1.5 elap:               0.8
 (Enter /shared/centos7/gaussian/g16/l1101.exe)
 Using compressed storage, NAtomX=    17.
 Will process     18 centers per pass.
 Leave Link 1101 at Sat Sep 28 04:02:41 2019, MaxMem=   671088640 cpu:              60.6 elap:              30.3
 (Enter /shared/centos7/gaussian/g16/l1102.exe)
 Symmetrizing basis deriv contribution to polar:
 IMax=3 JMax=2 DiffMx= 0.00D+00
 Leave Link 1102 at Sat Sep 28 04:02:43 2019, MaxMem=   671088640 cpu:               5.3 elap:               2.7
 (Enter /shared/centos7/gaussian/g16/l1110.exe)
 Forming Gx(P) for the SCF density, NAtomX=    17.
 Integral derivatives from FoFJK, PRISM(SPDF).
 Do as many integral derivatives as possible in FoFJK.
 G2DrvN: MDV=     671087280.
 G2DrvN: will do    18 centers at a time, making    1 passes.
 Calling FoFCou, ICntrl=  3107 FMM=F I1Cent=   0 AccDes= 0.00D+00.
 FoFJK:  IHMeth= 1 ICntrl=    3107 DoSepK=F KAlg= 0 I1Cent=           0 FoldK=F
 IRaf=         0 NMat=       1 IRICut=       1 DoRegI=T DoRafI=F ISym2E= 0 IDoP0=0 IntGTp=1.
 FoFCou: FMM=F IPFlag=           0 FMFlag=      100000 FMFlg1=           0
         NFxFlg=           0 DoJE=F BraDBF=F KetDBF=F FulRan=T
         wScrn=  0.000000 ICntrl=      3107 IOpCl=  0 I1Cent=           0 NGrid=           0
         NMat0=    1 NMatS0=      1 NMatT0=    0 NMatD0=    1 NMtDS0=    0 NMtDT0=    0
 Symmetry not used in FoFCou.
 End of G2Drv F.D. properties file   721 does not exist.
 End of G2Drv F.D. properties file   722 does not exist.
 End of G2Drv F.D. properties file   788 does not exist.
 Leave Link 1110 at Sat Sep 28 04:22:34 2019, MaxMem=   671088640 cpu:            2382.1 elap:            1191.2
 (Enter /shared/centos7/gaussian/g16/l1002.exe)
 Minotr:  Closed shell wavefunction.
          IDoAtm=11111111111111111
          Direct CPHF calculation.
          Differentiating once with respect to nuclear coordinates.
          Requested convergence is 1.0D-08 RMS, and 1.0D-07 maximum.
          Secondary convergence is 1.0D-12 RMS, and 1.0D-12 maximum.
          NewPWx=T KeepS1=F KeepF1=F KeepIn=T MapXYZ=F SortEE=F KeepMc=T.
         5102 words used for storage of precomputed grid.
 Two-electron integrals replicated using symmetry.
          MDV=     671088640 using IRadAn=       1.
          Solving linear equations simultaneously, MaxMat=     380.
 FoF2E skips out because all densities are zero.
 CalDSu exits because no D1Ps are significant.
 FoFJK:  IHMeth= 1 ICntrl=       0 DoSepK=F KAlg= 0 I1Cent=           0 FoldK=F
 IRaf= 950000000 NMat=      51 IRICut=     127 DoRegI=T DoRafI=T ISym2E= 2 IDoP0=3 IntGTp=3.
 FoFCou: FMM=F IPFlag=           0 FMFlag=      100000 FMFlg1=           0
         NFxFlg=           0 DoJE=F BraDBF=F KetDBF=F FulRan=T
         wScrn=  0.000000 ICntrl=         0 IOpCl=  0 I1Cent=           0 NGrid=           0
         NMat0=   51 NMatS0=     51 NMatT0=    0 NMatD0=   51 NMtDS0=    0 NMtDT0=    0
 Integrals replicated using symmetry in FoFCou.
 Raff kept on since  92.34% of shell-pairs survive, threshold=   0.20 IRatSp=92.
          There are    54 degrees of freedom in the 1st order CPHF.  IDoFFX=6 NUNeed=     0.
     48 vectors produced by pass  0 Test12= 1.67D-14 1.85D-09 XBig12= 7.15D-02 5.53D-02.
 AX will form    48 AO Fock derivatives at one time.
     48 vectors produced by pass  1 Test12= 1.67D-14 1.85D-09 XBig12= 8.74D-03 3.91D-02.
     48 vectors produced by pass  2 Test12= 1.67D-14 1.85D-09 XBig12= 2.60D-04 2.94D-03.
     48 vectors produced by pass  3 Test12= 1.67D-14 1.85D-09 XBig12= 3.51D-06 2.30D-04.
     48 vectors produced by pass  4 Test12= 1.67D-14 1.85D-09 XBig12= 2.49D-08 1.45D-05.
     48 vectors produced by pass  5 Test12= 1.67D-14 1.85D-09 XBig12= 1.23D-10 9.74D-07.
     29 vectors produced by pass  6 Test12= 1.67D-14 1.85D-09 XBig12= 5.51D-13 6.98D-08.
      4 vectors produced by pass  7 Test12= 1.67D-14 1.85D-09 XBig12= 2.22D-15 3.84D-09.
 InvSVY:  IOpt=1 It=  1 EMax= 2.78D-16
 Solved reduced A of dimension   321 with    54 vectors.
 End of Minotr F.D. properties file   721 does not exist.
 End of Minotr F.D. properties file   722 does not exist.
 End of Minotr F.D. properties file   788 does not exist.
 Leave Link 1002 at Sat Sep 28 04:55:39 2019, MaxMem=   671088640 cpu:            3968.1 elap:            1984.3
 (Enter /shared/centos7/gaussian/g16/l601.exe)
 Copying SCF densities to generalized density rwf, IOpCl= 0 IROHF=0.

 **********************************************************************

            Population analysis using the SCF density.

 **********************************************************************

 Orbital symmetries:
       Occupied  (A) (A) (A) (A) (A) (A) (A) (A) (A) (A) (A) (A)
                 (A) (A) (A) (A) (A) (A) (A) (A) (A) (A) (A) (A)
                 (A) (A) (A) (A)
       Virtual   (A) (A) (A) (A) (A) (A) (A) (A) (A) (A) (A) (A)
                 (A) (A) (A) (A) (A) (A) (A) (A) (A) (A) (A) (A)
                 (A) (A) (A) (A) (A) (A) (A) (A) (A) (A) (A) (A)
                 (A) (A) (A) (A) (A) (A) (A) (A) (A) (A) (A) (A)
                 (A) (A) (A) (A) (A) (A) (A) (A) (A) (A) (A) (A)
                 (A) (A) (A) (A) (A) (A) (A) (A) (A) (A) (A) (A)
                 (A) (A) (A) (A) (A) (A) (A) (A) (A) (A) (A) (A)
                 (A) (A) (A) (A) (A) (A) (A) (A) (A) (A) (A) (A)
                 (A) (A) (A) (A) (A) (A) (A) (A) (A) (A) (A) (A)
                 (A) (A) (A) (A) (A) (A) (A) (A) (A) (A) (A) (A)
                 (A) (A) (A) (A) (A) (A) (A) (A) (A) (A) (A) (A)
                 (A) (A) (A) (A) (A) (A) (A) (A) (A) (A) (A) (A)
                 (A) (A) (A) (A) (A) (A) (A) (A) (A) (A) (A) (A)
                 (A) (A) (A) (A) (A) (A) (A) (A) (A) (A) (A) (A)
                 (A) (A) (A) (A) (A) (A) (A) (A) (A) (A) (A) (A)
                 (A) (A) (A) (A) (A) (A) (A) (A) (A) (A) (A) (A)
                 (A) (A) (A) (A) (A) (A) (A) (A) (A) (A) (A) (A)
                 (A) (A) (A) (A) (A) (A) (A) (A) (A) (A) (A) (A)
                 (A) (A) (A) (A) (A) (A) (A) (A) (A) (A) (A) (A)
                 (A) (A) (A) (A) (A) (A) (A) (A) (A) (A) (A) (A)
                 (A) (A) (A) (A) (A) (A) (A) (A) (A) (A) (A) (A)
                 (A) (A) (A) (A) (A) (A) (A) (A) (A) (A) (A) (A)
                 (A) (A) (A) (A) (A) (A) (A) (A) (A) (A) (A) (A)
                 (A) (A) (A) (A) (A) (A) (A) (A) (A) (A) (A) (A)
                 (A) (A) (A) (A) (A) (A) (A) (A) (A) (A) (A) (A)
                 (A) (A) (A) (A) (A) (A) (A) (A) (A) (A) (A) (A)
                 (A) (A) (A) (A) (A) (A) (A) (A) (A) (A)
 The electronic state is 1-A.
 Alpha  occ. eigenvalues --  -19.65423 -19.63973 -10.58273 -10.58182 -10.58058
 Alpha  occ. eigenvalues --  -10.52478 -10.52177  -1.18207  -1.16268  -0.88562
 Alpha  occ. eigenvalues --   -0.84120  -0.76884  -0.70083  -0.63351  -0.62615
 Alpha  occ. eigenvalues --   -0.56373  -0.53263  -0.52659  -0.49691  -0.46593
 Alpha  occ. eigenvalues --   -0.46119  -0.43942  -0.42768  -0.42544  -0.41269
 Alpha  occ. eigenvalues --   -0.38224  -0.36075  -0.27056
 Alpha virt. eigenvalues --    0.04077   0.08331   0.09050   0.10345   0.11933
 Alpha virt. eigenvalues --    0.12737   0.13494   0.14594   0.16099   0.17240
 Alpha virt. eigenvalues --    0.17687   0.18612   0.21470   0.24741   0.25372
 Alpha virt. eigenvalues --    0.27169   0.30342   0.32346   0.32824   0.33134
 Alpha virt. eigenvalues --    0.34992   0.36375   0.36513   0.38657   0.39830
 Alpha virt. eigenvalues --    0.40793   0.41841   0.42341   0.44191   0.47328
 Alpha virt. eigenvalues --    0.48761   0.48941   0.49574   0.50562   0.51205
 Alpha virt. eigenvalues --    0.51329   0.51748   0.52829   0.54041   0.55382
 Alpha virt. eigenvalues --    0.56625   0.58317   0.62434   0.63623   0.66246
 Alpha virt. eigenvalues --    0.66621   0.67917   0.71050   0.72420   0.73459
 Alpha virt. eigenvalues --    0.75530   0.77944   0.79519   0.80945   0.81354
 Alpha virt. eigenvalues --    0.84697   0.86135   0.86845   0.88751   0.90284
 Alpha virt. eigenvalues --    0.93092   0.94381   0.96699   0.98904   1.00111
 Alpha virt. eigenvalues --    1.01919   1.03230   1.03777   1.07105   1.07718
 Alpha virt. eigenvalues --    1.08589   1.09980   1.10711   1.12801   1.13751
 Alpha virt. eigenvalues --    1.16089   1.17822   1.19713   1.22435   1.23401
 Alpha virt. eigenvalues --    1.24834   1.25852   1.27236   1.28340   1.28643
 Alpha virt. eigenvalues --    1.29990   1.32525   1.33292   1.34960   1.35758
 Alpha virt. eigenvalues --    1.35981   1.36663   1.38953   1.40011   1.41594
 Alpha virt. eigenvalues --    1.43397   1.48544   1.50782   1.52740   1.54258
 Alpha virt. eigenvalues --    1.56694   1.57659   1.58431   1.60497   1.63565
 Alpha virt. eigenvalues --    1.65388   1.66889   1.70492   1.75567   1.83648
 Alpha virt. eigenvalues --    1.88183   1.95487   2.01723   2.06978   2.07477
 Alpha virt. eigenvalues --    2.10316   2.11439   2.15683   2.18152   2.19795
 Alpha virt. eigenvalues --    2.23943   2.28331   2.29367   2.31994   2.34350
 Alpha virt. eigenvalues --    2.37739   2.39945   2.43047   2.44798   2.45753
 Alpha virt. eigenvalues --    2.48311   2.51889   2.54564   2.56579   2.58391
 Alpha virt. eigenvalues --    2.59461   2.63475   2.64260   2.65349   2.69807
 Alpha virt. eigenvalues --    2.71708   2.74094   2.75627   2.78605   2.80899
 Alpha virt. eigenvalues --    2.82093   2.82648   2.84226   2.85765   2.87328
 Alpha virt. eigenvalues --    2.88563   2.90481   2.91237   2.93985   2.95293
 Alpha virt. eigenvalues --    2.96495   2.98481   3.01391   3.01905   3.02558
 Alpha virt. eigenvalues --    3.04206   3.05890   3.06749   3.08511   3.09673
 Alpha virt. eigenvalues --    3.11061   3.11656   3.13073   3.13358   3.15183
 Alpha virt. eigenvalues --    3.17121   3.17847   3.21143   3.23107   3.23727
 Alpha virt. eigenvalues --    3.25473   3.27359   3.28535   3.28780   3.30030
 Alpha virt. eigenvalues --    3.31029   3.31485   3.32777   3.34903   3.36760
 Alpha virt. eigenvalues --    3.38532   3.40105   3.42223   3.42905   3.44137
 Alpha virt. eigenvalues --    3.45061   3.47021   3.47296   3.49150   3.50877
 Alpha virt. eigenvalues --    3.52494   3.53906   3.56556   3.57904   3.60704
 Alpha virt. eigenvalues --    3.64220   3.68415   3.68764   3.70013   3.73142
 Alpha virt. eigenvalues --    3.74505   3.74920   3.77230   3.78279   3.79692
 Alpha virt. eigenvalues --    3.80281   3.81780   3.82446   3.84172   3.87917
 Alpha virt. eigenvalues --    3.90891   3.91230   3.92530   3.93478   3.94314
 Alpha virt. eigenvalues --    3.95492   3.96302   3.98310   4.00837   4.02226
 Alpha virt. eigenvalues --    4.02586   4.04617   4.06316   4.06911   4.07863
 Alpha virt. eigenvalues --    4.08749   4.10663   4.12577   4.13784   4.15522
 Alpha virt. eigenvalues --    4.18385   4.19592   4.26740   4.27655   4.29737
 Alpha virt. eigenvalues --    4.31454   4.32665   4.35950   4.39650   4.41231
 Alpha virt. eigenvalues --    4.45875   4.48719   4.51899   4.53235   4.55201
 Alpha virt. eigenvalues --    4.58403   4.61673   4.63408   4.67163   4.71143
 Alpha virt. eigenvalues --    4.71394   4.73542   4.75837   4.76837   4.80037
 Alpha virt. eigenvalues --    4.81860   4.86593   4.87654   4.93989   4.97490
 Alpha virt. eigenvalues --    4.98089   4.98767   5.01394   5.03845   5.06754
 Alpha virt. eigenvalues --    5.08214   5.11275   5.13076   5.15554   5.21033
 Alpha virt. eigenvalues --    5.21904   5.22158   5.24324   5.25574   5.29159
 Alpha virt. eigenvalues --    5.32467   5.34343   5.38559   5.44821   5.47134
 Alpha virt. eigenvalues --    5.54371   5.54777   5.62282   5.68102   5.74176
 Alpha virt. eigenvalues --    5.77413   5.77574   5.78994   5.80916   5.84479
 Alpha virt. eigenvalues --    5.95966   6.05110   6.08337   6.18487   6.23355
 Alpha virt. eigenvalues --    6.34324   6.48770   6.59288   6.59751   6.69133
 Alpha virt. eigenvalues --    6.72313   6.79991   6.81425   6.84785   6.99135
 Alpha virt. eigenvalues --    7.09720   7.19993   7.29793   7.36732   7.43198
 Alpha virt. eigenvalues --   10.13960  11.33782  11.74218  12.04514  13.20096
 Alpha virt. eigenvalues --   13.29859  14.36312
          Condensed to atoms (all electrons):
               1          2          3          4          5          6
     1  O    7.830397   0.003552   0.269629  -0.041693  -0.052215   0.370392
     2  O    0.003552   7.845121  -0.008457   0.000797  -0.009834  -0.083748
     3  C    0.269629  -0.008457   4.943249   0.326069   0.324997  -0.053552
     4  C   -0.041693   0.000797   0.326069   4.958462  -0.055540   0.001388
     5  C   -0.052215  -0.009834   0.324997  -0.055540   5.052521  -0.001007
     6  C    0.370392  -0.083748  -0.053552   0.001388  -0.001007   4.950498
     7  C   -0.073142   0.303988  -0.017501   0.001668  -0.001180   0.511646
     8  H   -0.042120   0.014105   0.410038  -0.033544  -0.070830  -0.012204
     9  H    0.003167   0.000026  -0.036414   0.399367   0.009751  -0.000358
    10  H    0.003610  -0.000059  -0.046559   0.399753  -0.000285  -0.000078
    11  H    0.001727  -0.000047  -0.034776   0.393605  -0.011871   0.000384
    12  H    0.004090   0.000871  -0.035239  -0.009429   0.383252  -0.002521
    13  H   -0.001169   0.007821  -0.033346   0.008663   0.396550  -0.007313
    14  H    0.004744   0.000603  -0.032304  -0.007639   0.392449   0.000707
    15  H   -0.035682   0.002995   0.007439  -0.000583   0.000379   0.440050
    16  H    0.005029  -0.044638  -0.000674   0.000078   0.000335  -0.067141
    17  H   -0.000562   0.306620   0.000624  -0.000058  -0.000095   0.011743
               7          8          9         10         11         12
     1  O   -0.073142  -0.042120   0.003167   0.003610   0.001727   0.004090
     2  O    0.303988   0.014105   0.000026  -0.000059  -0.000047   0.000871
     3  C   -0.017501   0.410038  -0.036414  -0.046559  -0.034776  -0.035239
     4  C    0.001668  -0.033544   0.399367   0.399753   0.393605  -0.009429
     5  C   -0.001180  -0.070830   0.009751  -0.000285  -0.011871   0.383252
     6  C    0.511646  -0.012204  -0.000358  -0.000078   0.000384  -0.002521
     7  C    5.014330   0.003951  -0.000034  -0.000037  -0.000014   0.000430
     8  H    0.003951   0.595214  -0.008930  -0.002772   0.008447   0.009655
     9  H   -0.000034  -0.008930   0.576218  -0.028615  -0.032118  -0.000308
    10  H   -0.000037  -0.002772  -0.028615   0.601776  -0.034530   0.000079
    11  H   -0.000014   0.008447  -0.032118  -0.034530   0.594144   0.005220
    12  H    0.000430   0.009655  -0.000308   0.000079   0.005220   0.589938
    13  H   -0.005076  -0.008187  -0.000479  -0.000026  -0.000159  -0.029823
    14  H   -0.001140  -0.001294  -0.000285  -0.000540   0.000510  -0.030080
    15  H   -0.087564  -0.000604  -0.000001   0.000030  -0.000007  -0.000192
    16  H    0.415625   0.000029   0.000001  -0.000007  -0.000011  -0.000030
    17  H   -0.032316   0.000748  -0.000006   0.000001   0.000009   0.000044
              13         14         15         16         17
     1  O   -0.001169   0.004744  -0.035682   0.005029  -0.000562
     2  O    0.007821   0.000603   0.002995  -0.044638   0.306620
     3  C   -0.033346  -0.032304   0.007439  -0.000674   0.000624
     4  C    0.008663  -0.007639  -0.000583   0.000078  -0.000058
     5  C    0.396550   0.392449   0.000379   0.000335  -0.000095
     6  C   -0.007313   0.000707   0.440050  -0.067141   0.011743
     7  C   -0.005076  -0.001140  -0.087564   0.415625  -0.032316
     8  H   -0.008187  -0.001294  -0.000604   0.000029   0.000748
     9  H   -0.000479  -0.000285  -0.000001   0.000001  -0.000006
    10  H   -0.000026  -0.000540   0.000030  -0.000007   0.000001
    11  H   -0.000159   0.000510  -0.000007  -0.000011   0.000009
    12  H   -0.029823  -0.030080  -0.000192  -0.000030   0.000044
    13  H    0.559133  -0.026568  -0.000098   0.000526   0.000239
    14  H   -0.026568   0.584388   0.000022  -0.000016  -0.000014
    15  H   -0.000098   0.000022   0.540037  -0.008752  -0.000428
    16  H    0.000526  -0.000016  -0.008752   0.600501  -0.015716
    17  H    0.000239  -0.000014  -0.000428  -0.015716   0.467915
 Mulliken charges:
               1
     1  O   -0.249753
     2  O   -0.339719
     3  C    0.016779
     4  C   -0.341362
     5  C   -0.357376
     6  C   -0.058885
     7  C   -0.033633
     8  H    0.138298
     9  H    0.119020
    10  H    0.108259
    11  H    0.109486
    12  H    0.114042
    13  H    0.139312
    14  H    0.116457
    15  H    0.142962
    16  H    0.114860
    17  H    0.261253
 Sum of Mulliken charges =  -0.00000
 Mulliken charges with hydrogens summed into heavy atoms:
               1
     1  O   -0.249753
     2  O   -0.078465
     3  C    0.155077
     4  C   -0.004596
     5  C    0.012434
     6  C    0.084077
     7  C    0.081227
 APT charges:
               1
     1  O   -0.190275
     2  O   -0.848923
     3  C   -0.063229
     4  C   -1.241491
     5  C   -1.048774
     6  C   -0.535463
     7  C   -0.381169
     8  H    0.267624
     9  H    0.374498
    10  H    0.407687
    11  H    0.386752
    12  H    0.378158
    13  H    0.250227
    14  H    0.411006
    15  H    0.516212
    16  H    0.517628
    17  H    0.799532
 Sum of APT charges =  -0.00000
 APT charges with hydrogens summed into heavy atoms:
               1
     1  O   -0.190275
     2  O   -0.049391
     3  C    0.204395
     4  C   -0.072555
     5  C   -0.009383
     6  C   -0.019250
     7  C    0.136459
 Electronic spatial extent (au):  <R**2>=            838.4372
 Charge=              0.0000 electrons
 Dipole moment (field-independent basis, Debye):
    X=              2.0652    Y=             -1.2460    Z=              0.0324  Tot=              2.4122
 Quadrupole moment (field-independent basis, Debye-Ang):
   XX=            -34.8204   YY=            -43.4841   ZZ=            -45.4982
   XY=             -1.0299   XZ=              0.2710   YZ=              1.3221
 Traceless Quadrupole moment (field-independent basis, Debye-Ang):
   XX=              6.4472   YY=             -2.2165   ZZ=             -4.2306
   XY=             -1.0299   XZ=              0.2710   YZ=              1.3221
 Octapole moment (field-independent basis, Debye-Ang**2):
  XXX=             37.4565  YYY=             -3.1404  ZZZ=             -3.4547  XYY=             10.7808
  XXY=            -10.6633  XXZ=             -3.3139  XZZ=              0.1479  YZZ=              0.4007
  YYZ=             -0.6775  XYZ=              3.5404
 Hexadecapole moment (field-independent basis, Debye-Ang**3):
 XXXX=           -615.7065 YYYY=           -249.9073 ZZZZ=           -157.0683 XXXY=            -44.9714
 XXXZ=            -16.7394 YYYX=            -11.8754 YYYZ=             13.9008 ZZZX=             -5.8085
 ZZZY=              4.6878 XXYY=           -137.4312 XXZZ=           -143.9837 YYZZ=            -69.3245
 XXYZ=             14.2871 YYXZ=             -0.0883 ZZXY=             -7.2265
 N-N= 3.240985036260D+02 E-N=-1.458452607507D+03  KE= 3.447463312214D+02
  Exact polarizability:   0.000   0.000   0.000   0.000   0.000   0.000
 Approx polarizability:  87.382  -7.544  83.142  -2.495   6.463  70.043
 No NMR shielding tensors so no spin-rotation constants.
 Leave Link  601 at Sat Sep 28 04:56:05 2019, MaxMem=   671088640 cpu:              53.0 elap:              26.5
 (Enter /shared/centos7/gaussian/g16/l701.exe)
 SCFChk:  SCF convergence  3.47D-09 required  1.00D-08
 ... and contract with generalized density number  0.
 Compute integral second derivatives.
 Entering OneElI...
 Calculate overlap and kinetic energy integrals
    NBasis = 395  MinDer = 2  MaxDer = 2
 Requested accuracy = 0.1000D-12
 PrmmSu-InSpLW:  IPartL=    0 NPrtUS=   20 NPrtUL=    1 DoSpLW=F IThBeg=    0 IThEnd=   19 NThAct=   20.
 PrsmSu:  NPrtUS=  20 ThrOK=T IAlg=1 NPAlg=1 LenDen=           0 ISkipM=0 DoSpLW=F IThBeg=    0 IThEnd=   19.
 Prism:   IPart=     0 DynPar=F LinDyn=F Incr=           4.
 PRISM was handed    33310202 working-precision words and  8471 shell-pairs
 PRISM was handed    33310202 working-precision words and  8471 shell-pairs
 PRISM was handed    33310202 working-precision words and  8471 shell-pairs
 PRISM was handed    33310202 working-precision words and  8471 shell-pairs
 PRISM was handed    33310202 working-precision words and  8471 shell-pairs
 PRISM was handed    33310202 working-precision words and  8471 shell-pairs
 PRISM was handed    33310202 working-precision words and  8471 shell-pairs
 PRISM was handed    33310202 working-precision words and  8471 shell-pairs
 PRISM was handed    33310202 working-precision words and  8471 shell-pairs
 PRISM was handed    33310202 working-precision words and  8471 shell-pairs
 IPart=  0 NShTot=         471 NBatch=          83 AvBLen=         5.7
 PRISM was handed    33310202 working-precision words and  8471 shell-pairs
 PRISM was handed    33310202 working-precision words and  8471 shell-pairs
 PRISM was handed    33310202 working-precision words and  8471 shell-pairs
 IPart= 12 NShTot=         407 NBatch=          42 AvBLen=         9.7
 PRISM was handed    33310202 working-precision words and  8471 shell-pairs
 IPart= 14 NShTot=         403 NBatch=          39 AvBLen=        10.3
 PRISM was handed    33310202 working-precision words and  8471 shell-pairs
 PRISM was handed    33310202 working-precision words and  8471 shell-pairs
 PRISM was handed    33310202 working-precision words and  8471 shell-pairs
 PRISM was handed    33310202 working-precision words and  8471 shell-pairs
 PRISM was handed    33310202 working-precision words and  8471 shell-pairs
 PRISM was handed    33310202 working-precision words and  8471 shell-pairs
 IPart=  9 NShTot=         417 NBatch=          50 AvBLen=         8.3
 IPart= 18 NShTot=         400 NBatch=          39 AvBLen=        10.3
 IPart=  1 NShTot=         465 NBatch=          79 AvBLen=         5.9
 IPart=  7 NShTot=         427 NBatch=          52 AvBLen=         8.2
 IPart= 19 NShTot=         398 NBatch=          38 AvBLen=        10.5
 IPart=  5 NShTot=         440 NBatch=          61 AvBLen=         7.2
 IPart= 17 NShTot=         401 NBatch=          39 AvBLen=        10.3
 IPart= 10 NShTot=         414 NBatch=          48 AvBLen=         8.6
 IPart=  3 NShTot=         452 NBatch=          71 AvBLen=         6.4
 IPart=  6 NShTot=         437 NBatch=          60 AvBLen=         7.3
 IPart=  8 NShTot=         418 NBatch=          51 AvBLen=         8.2
 IPart= 15 NShTot=         403 NBatch=          39 AvBLen=        10.3
 IPart= 13 NShTot=         403 NBatch=          39 AvBLen=        10.3
 IPart= 11 NShTot=         412 NBatch=          47 AvBLen=         8.8
 IPart=  2 NShTot=         457 NBatch=          74 AvBLen=         6.2
 IPart= 16 NShTot=         401 NBatch=          39 AvBLen=        10.3
 IPart=  4 NShTot=         445 NBatch=          65 AvBLen=         6.8
 PrSmSu:  NxtVal=             81.
 Entering OneElI...
 Calculate potential energy integrals
    NBasis = 395  MinDer = 2  MaxDer = 2
 Requested accuracy = 0.1000D-12
 PrmmSu-InSpLW:  IPartL=    0 NPrtUS=   20 NPrtUL=    1 DoSpLW=F IThBeg=    0 IThEnd=   19 NThAct=   20.
 PrsmSu:  NPrtUS=  20 ThrOK=T IAlg=1 NPAlg=1 LenDen=           0 ISkipM=0 DoSpLW=F IThBeg=    0 IThEnd=   19.
 Prism:   IPart=     0 DynPar=F LinDyn=F Incr=          66.
 PRISM was handed    33352362 working-precision words and  7805 shell-pairs
 PRISM was handed    33352362 working-precision words and  7805 shell-pairs
 PRISM was handed    33352362 working-precision words and  7805 shell-pairs
 PRISM was handed    33352362 working-precision words and  7805 shell-pairs
 PRISM was handed    33352362 working-precision words and  7805 shell-pairs
 PRISM was handed    33352362 working-precision words and  7805 shell-pairs
 PRISM was handed    33352362 working-precision words and  7805 shell-pairs
 PRISM was handed    33352362 working-precision words and  7805 shell-pairs
 PRISM was handed    33352362 working-precision words and  7805 shell-pairs
 PRISM was handed    33352362 working-precision words and  7805 shell-pairs
 PRISM was handed    33352362 working-precision words and  7805 shell-pairs
 PRISM was handed    33352362 working-precision words and  7805 shell-pairs
 PRISM was handed    33352362 working-precision words and  7805 shell-pairs
 PRISM was handed    33352362 working-precision words and  7805 shell-pairs
 PRISM was handed    33352362 working-precision words and  7805 shell-pairs
 PRISM was handed    33352362 working-precision words and  7805 shell-pairs
 PRISM was handed    33352362 working-precision words and  7805 shell-pairs
 PRISM was handed    33352362 working-precision words and  7805 shell-pairs
 PRISM was handed    33352362 working-precision words and  7805 shell-pairs
 PRISM was handed    33352362 working-precision words and  7805 shell-pairs
 IPart= 18 NShTot=        6307 NBatch=         371 AvBLen=        17.0
 IPart= 19 NShTot=        6239 NBatch=         367 AvBLen=        17.0
 IPart=  7 NShTot=        6647 NBatch=         391 AvBLen=        17.0
 IPart=  5 NShTot=        6817 NBatch=         401 AvBLen=        17.0
 IPart=  1 NShTot=        7157 NBatch=         421 AvBLen=        17.0
 IPart= 14 NShTot=        6409 NBatch=         377 AvBLen=        17.0
 IPart= 16 NShTot=        6358 NBatch=         374 AvBLen=        17.0
 IPart=  6 NShTot=        6783 NBatch=         399 AvBLen=        17.0
 IPart= 17 NShTot=        6358 NBatch=         374 AvBLen=        17.0
 IPart=  8 NShTot=        6596 NBatch=         388 AvBLen=        17.0
 IPart= 10 NShTot=        6511 NBatch=         383 AvBLen=        17.0
 IPart= 12 NShTot=        6460 NBatch=         380 AvBLen=        17.0
 IPart= 11 NShTot=        6494 NBatch=         382 AvBLen=        17.0
 IPart=  9 NShTot=        6528 NBatch=         384 AvBLen=        17.0
 IPart=  3 NShTot=        6953 NBatch=         409 AvBLen=        17.0
 IPart=  4 NShTot=        6885 NBatch=         405 AvBLen=        17.0
 IPart= 13 NShTot=        6426 NBatch=         378 AvBLen=        17.0
 IPart=  0 NShTot=        7276 NBatch=         428 AvBLen=        17.0
 IPart= 15 NShTot=        6409 NBatch=         377 AvBLen=        17.0
 IPart=  2 NShTot=        7072 NBatch=         416 AvBLen=        17.0
 PrSmSu:  NxtVal=           1321.
 Polarizability after L701:
                1             2             3 
      1  0.000000D+00
      2  0.000000D+00  0.000000D+00
      3  0.000000D+00  0.000000D+00  0.000000D+00
 Dipole Derivatives after L701:
                 1             2             3             4             5 
      1  -0.237728D+00 -0.248971D-01  0.321839D-01 -0.145700D+01  0.652472D+00
      2  -0.331340D+00 -0.931740D-01 -0.737087D-02  0.672845D+00 -0.721744D+00
      3  -0.255674D-01  0.285390D-01 -0.239922D+00  0.283698D+00 -0.987317D-01
                 6             7             8             9            10 
      1   0.125742D+00  0.298895D+00 -0.133609D+00 -0.131486D+00 -0.179638D+01
      2  -0.406400D-01 -0.159968D-02 -0.169555D+00 -0.254540D+00 -0.248836D-01
      3  -0.368019D+00  0.218074D+00 -0.215497D+00 -0.319028D+00 -0.201304D+00
                11            12            13            14            15 
      1   0.177313D+00 -0.287330D+00 -0.882531D+00 -0.309283D+00  0.409628D+00
      2  -0.921925D+00 -0.328184D-01 -0.434689D-02 -0.119350D+01  0.317948D+00
      3   0.413682D-02 -0.100617D+01 -0.797363D-02  0.145868D+00 -0.107029D+01
                16            17            18            19            20 
      1  -0.791366D+00 -0.159433D-01 -0.146302D+00 -0.785829D+00 -0.668020D+00
      2  -0.315731D-01 -0.688723D+00 -0.375164D+00 -0.740002D-02 -0.333717D+00
      3  -0.637263D-01 -0.332542D+00 -0.126299D+00 -0.114045D+00 -0.181050D+00
                21            22            23            24            25 
      1  -0.306036D+00  0.942725D-01  0.893356D-01  0.121964D+00  0.202401D+00
      2  -0.138155D+00 -0.666316D-01  0.248438D+00  0.122316D+00 -0.337969D-01
      3  -0.239623D-01 -0.155976D+00  0.138986D+00  0.460161D+00  0.309225D-01
                26            27            28            29            30 
      1  -0.525621D+00  0.709154D+00  0.594976D+00  0.848553D+00  0.248006D+00
      2   0.317068D+00 -0.289379D+00  0.177154D+00  0.450760D+00  0.103918D+00
      3  -0.366761D+00  0.604024D+00  0.158133D+00  0.285654D+00  0.177324D+00
                31            32            33            34            35 
      1   0.748745D+00 -0.429041D+00 -0.778876D+00  0.376626D+00 -0.157440D+00
      2  -0.150487D+00  0.191622D+00  0.181940D+00  0.951033D-01  0.482924D-01
      3  -0.782968D-01  0.678097D-01  0.219890D+00 -0.370146D+00  0.209318D+00
                36            37            38            39            40 
      1  -0.450638D+00  0.297833D+00  0.690354D-02  0.415004D-01  0.296941D+00
      2  -0.173043D+00 -0.432716D+00  0.181815D+00 -0.134331D+00  0.335965D+00
      3   0.709555D+00  0.489081D+00 -0.560384D-01  0.271034D+00 -0.859811D-01
                41            42            43            44            45 
      1   0.444687D+00  0.990409D-01  0.379199D+00  0.499990D+00  0.222523D+00
      2   0.862145D+00  0.176853D+00  0.268565D+00  0.944533D+00  0.382440D+00
      3  -0.195091D+00  0.739307D-01  0.956709D-01  0.314873D+00  0.224904D+00
                46            47            48            49            50 
      1   0.128281D+01  0.254891D+00  0.218038D+00  0.137814D+01 -0.710290D+00
      2   0.126448D+00  0.184083D+00  0.675554D-01 -0.591305D+00  0.693580D+00
      3   0.744486D-01  0.552441D-01  0.859906D-01 -0.247012D+00  0.195281D+00
                51 
      1  -0.127114D+00
      2   0.924705D-01
      3   0.326881D+00
 Hessian after L701:
                1             2             3             4             5 
      1  0.559721D+01
      2 -0.298737D+01  0.117426D+02
      3 -0.173126D+01 -0.108863D+01  0.183623D+02
      4  0.119808D+00 -0.536850D+00 -0.188242D+00  0.100659D+02
      5 -0.557632D+00  0.279329D+00  0.254448D+00  0.226136D+01  0.658824D+01
      6 -0.187155D+00  0.245784D+00 -0.318728D+00  0.695589D+00 -0.368596D+01
      7 -0.635484D+01  0.350195D+01  0.898362D+00  0.250898D+00 -0.214983D+00
      8  0.324549D+01 -0.249198D+01  0.133708D+01 -0.270496D+00 -0.212800D+00
      9  0.843777D+00  0.129010D+01 -0.868942D+01 -0.223009D+00  0.956948D-01
     10  0.279872D+00  0.173158D+00  0.160114D+00  0.166496D+00 -0.847461D-01
     11  0.226159D+00 -0.185319D+00  0.583664D-01 -0.808303D-01 -0.889147D-01
     12  0.169607D+00  0.419099D-01 -0.114798D+00 -0.817108D-02  0.172070D-02
     13 -0.180239D+00 -0.317084D-01 -0.131718D+00  0.181945D+00  0.636981D-01
     14 -0.252292D-01  0.223314D+00 -0.496481D+00  0.461862D-02 -0.263808D+00
     15 -0.925223D-01 -0.367505D+00  0.129128D+00 -0.213334D+00 -0.406286D-01
     16  0.239607D+00  0.207549D+00  0.126576D+01  0.197137D+00 -0.238069D+00
     17  0.526925D+00 -0.986719D+01  0.882037D-01  0.198230D-02 -0.513040D+00
     18  0.126387D+01  0.801846D-01 -0.997498D+01 -0.698666D-01 -0.349732D+00
     19 -0.357083D-02 -0.226152D+00 -0.212765D+00 -0.855184D+01  0.122987D+01
     20 -0.373103D+00  0.270960D+00 -0.784054D-01  0.106622D+01 -0.120010D+01
     21 -0.224394D+00 -0.548773D-01  0.330463D+00  0.539888D+00  0.339223D+01
     22  0.192120D+00 -0.177325D+00 -0.127445D+00  0.214729D-01 -0.630403D-01
     23 -0.120777D+00 -0.279777D+00 -0.431794D-01 -0.269176D-01 -0.137314D+00
     24 -0.105786D+00 -0.707879D-01  0.345673D+00  0.946762D-01 -0.278491D-01
     25  0.682565D-01  0.374944D-01  0.578790D-01  0.169403D-01 -0.136343D-01
     26  0.173206D-02 -0.614450D-01 -0.727084D-02 -0.200563D-01 -0.227363D-02
     27  0.104688D+00  0.251984D-01 -0.155754D-01  0.174465D-01 -0.925354D-02
     28  0.426746D-01  0.103911D+00  0.372256D-01  0.288386D-01  0.143384D-02
     29  0.921425D-01  0.571885D-01  0.396617D-01  0.126636D-01 -0.932906D-02
     30  0.356672D-01  0.429119D-01 -0.278351D-01  0.573090D-02  0.878363D-03
     31  0.105624D+00  0.501829D-01  0.392798D-01  0.181154D-01 -0.980773D-02
     32  0.189603D-01 -0.485159D-01  0.101406D-01 -0.107544D-01 -0.535601D-02
     33 -0.976937D-02  0.619061D-03 -0.552615D-01 -0.116231D-01  0.426751D-02
     34 -0.362908D-01  0.723814D-01 -0.490640D-01  0.301000D-01 -0.102781D-01
     35  0.392904D-01  0.401386D-01 -0.587697D-01 -0.753472D-02 -0.193652D-01
     36 -0.438223D-01 -0.108285D+00  0.716732D-02 -0.475217D-01  0.809625D-02
     37 -0.191941D-01 -0.588261D-01  0.343076D-01 -0.706371D-01 -0.744358D-02
     38 -0.829076D-02  0.233513D-01 -0.456757D-01  0.107120D-01 -0.976178D-01
     39  0.118412D-01 -0.509702D-01 -0.806492D-02 -0.788661D-01 -0.467017D-02
     40 -0.311961D-01  0.694512D-01 -0.546110D-02  0.497802D-01  0.367215D-01
     41  0.568070D-01  0.165047D+00 -0.107876D-01  0.518941D-01 -0.420794D-02
     42 -0.422744D-02 -0.121875D-01 -0.503024D-01 -0.252158D-01 -0.811562D-02
     43 -0.249221D+00 -0.122889D+00 -0.544025D-01 -0.385681D-01  0.852693D-03
     44 -0.801520D-01  0.165518D+00  0.388110D-01 -0.124976D-01  0.121646D+00
     45 -0.405173D-01  0.257427D-01  0.130750D+00 -0.691836D-02  0.702611D-01
     46  0.198988D+00 -0.465088D-01  0.161057D-01  0.174388D+00 -0.156988D+00
     47 -0.205775D-01 -0.465241D-01 -0.651800D-02 -0.119264D+00 -0.735174D-01
     48  0.203822D-01 -0.805645D-02 -0.420782D-01 -0.631787D-01 -0.132058D+00
     49  0.303953D-01 -0.284453D-01 -0.867472D-02 -0.266077D+01 -0.223732D+01
     50 -0.343721D-01  0.133339D-01  0.900361D-02 -0.232426D+01 -0.436158D+01
     51 -0.103829D-01  0.884667D-02 -0.848056D-02 -0.417384D+00  0.430674D+00
                6             7             8             9            10 
      6  0.136732D+02
      7 -0.894836D-01  0.185591D+02
      8  0.543523D-01 -0.237992D+01  0.171731D+02
      9 -0.275359D+00 -0.117276D+01 -0.226279D+00  0.216000D+02
     10 -0.191263D-02 -0.204351D+01 -0.446229D+00  0.142989D+01  0.116284D+02
     11  0.424440D-03 -0.437752D+00 -0.606394D+01 -0.156790D+00  0.100408D+00
     12 -0.111082D+00  0.137834D+01 -0.153226D+00 -0.568836D+01 -0.137556D+01
     13 -0.332389D+00 -0.678269D+01 -0.766685D-01  0.103286D+00  0.106247D+00
     14 -0.537692D-02 -0.167267D+00 -0.437005D+01 -0.241464D+01 -0.930197D-01
     15 -0.883587D-01  0.170166D+00 -0.244068D+01 -0.415999D+01  0.125948D+00
     16 -0.175632D+00  0.331483D+00  0.334516D+00  0.127136D+00  0.193057D+00
     17 -0.335676D+00  0.231704D+00  0.945695D-01  0.378722D-01  0.899096D-01
     18  0.241159D+00  0.126419D+00  0.659644D-01 -0.143301D-01  0.806721D-01
     19  0.611800D+00  0.187764D+00  0.695009D-01 -0.401902D-01  0.149194D+00
     20  0.340065D+01  0.493230D-01 -0.117086D+00 -0.246245D-01 -0.727166D-02
     21 -0.693519D+01  0.197472D-01 -0.829290D-02 -0.115041D+00  0.252406D-01
     22  0.130037D-01 -0.449057D+01 -0.494653D+00 -0.997287D+00 -0.133902D+00
     23 -0.221808D-02 -0.623584D+00 -0.428258D+01  0.121720D+01  0.402566D-01
     24 -0.126596D+00 -0.122537D+01  0.121415D+01 -0.285903D+01  0.532029D-01
     25  0.529158D-02  0.171887D-01  0.826390D-01 -0.469572D-01 -0.401064D+01
     26 -0.566196D-02  0.359336D-01  0.225353D-01 -0.692967D-02 -0.906697D-01
     27 -0.647152D-02 -0.133528D-01  0.211753D-01  0.877585D-01  0.104960D+00
     28  0.327644D-02 -0.168657D-01 -0.134950D+00 -0.396303D-01 -0.339092D+01
     29  0.180192D-02 -0.922582D-01  0.756861D-01 -0.224934D-01  0.944692D+00
     30 -0.113515D-01 -0.498848D-01 -0.490864D-01  0.722368D-01  0.288148D+00
     31 -0.563019D-02  0.321702D-02  0.421864D-01  0.213014D-01 -0.306283D+01
     32  0.250105D-02  0.187420D-01  0.481257D-01  0.365325D-02 -0.560002D+00
     33 -0.556116D-02 -0.344894D-01  0.188017D-01  0.968806D-01 -0.997017D+00
     34 -0.424920D-01  0.879567D-01 -0.113566D-01 -0.751268D-02  0.244790D-02
     35  0.772620D-02 -0.262324D-01  0.729668D-01  0.756662D-01  0.335355D-02
     36  0.205612D-01  0.267497D-02  0.208115D-01 -0.478036D-01 -0.668047D-02
     37 -0.126189D-02  0.665523D-01  0.641539D-02 -0.573456D-01  0.953875D-01
     38 -0.757159D-02  0.785668D-01  0.515401D-01  0.645326D-01 -0.755920D-01
     39 -0.126432D-01 -0.116481D+00  0.365052D-01 -0.331655D-01  0.106884D+00
     40 -0.344432D-01  0.373751D-01 -0.493773D-01  0.351657D-01 -0.101954D-01
     41 -0.215455D-01 -0.792511D-01 -0.597662D-01  0.108972D-01 -0.482379D-03
     42 -0.201113D-01  0.472511D-01  0.489964D-01  0.838441D-01 -0.242187D-02
     43 -0.123432D-02  0.591373D-01  0.113753D+00  0.460977D-01  0.208735D-02
     44  0.734781D-01  0.133551D+00  0.748215D-01  0.515665D-01  0.120127D-01
     45 -0.517602D-03  0.615163D-01  0.602094D-01 -0.292360D-01  0.611826D-02
     46 -0.827539D-01  0.286121D-01 -0.401910D-02 -0.952113D-02  0.170438D-01
     47 -0.129734D+00  0.504958D-02 -0.132153D-01 -0.264888D-02  0.323721D-02
     48  0.784998D-01  0.244061D-02 -0.139007D-02 -0.138468D-01  0.379653D-02
     49 -0.374572D+00  0.591973D-01 -0.268350D-01 -0.124430D-01  0.117327D-01
     50  0.407031D+00 -0.335765D-01 -0.193612D-02  0.722518D-02 -0.901466D-02
     51 -0.610148D+01 -0.509204D-02  0.911648D-03 -0.151205D-01 -0.138183D-02
               11            12            13            14            15 
     11  0.151352D+02
     12  0.120110D+00  0.147271D+02
     13 -0.149302D+00  0.201037D+00  0.149268D+02
     14 -0.611340D-01 -0.785898D-01 -0.229934D+00  0.142750D+02
     15 -0.820782D-01 -0.194401D-01  0.503223D-01  0.193857D+01  0.150562D+02
     16  0.120742D+00  0.855737D-01  0.494773D-02  0.257514D+00 -0.779384D-01
     17 -0.101369D+00  0.202126D-01  0.276130D+00  0.831722D-01 -0.929523D-01
     18  0.233182D-01 -0.108898D+00 -0.100488D+00 -0.115025D+00 -0.168765D+00
     19  0.103086D-01  0.266536D-01  0.247000D+00  0.128269D+00 -0.683205D-01
     20 -0.862813D-01 -0.345814D-02  0.136987D+00 -0.144489D+00 -0.364834D-01
     21 -0.190128D-02 -0.777428D-01 -0.114862D+00 -0.440006D-01 -0.143635D+00
     22  0.400787D-01  0.602385D-01  0.252522D+00 -0.503831D-01  0.122969D+00
     23  0.753992D-01 -0.685456D-02 -0.499450D-01  0.249369D+00  0.144023D+00
     24  0.703436D-03  0.852561D-01  0.171388D+00  0.191572D+00 -0.350580D+00
     25 -0.222534D+00  0.267478D+00 -0.109627D-01 -0.658922D-01  0.789507D-01
     26 -0.300978D+01 -0.119329D+01 -0.571624D-01  0.211405D-01 -0.941474D-01
     27 -0.125276D+01 -0.236271D+01  0.759724D-01 -0.102896D+00  0.758219D-01
     28  0.110310D+01  0.297075D+00  0.349945D-01  0.717605D-02  0.599469D-01
     29 -0.217096D+01  0.514344D+00  0.245462D-01 -0.347081D-01  0.158428D-01
     30  0.582530D+00 -0.373962D+01  0.633012D-01  0.517852D-02  0.131294D-01
     31 -0.648837D+00 -0.120058D+01 -0.222894D-01  0.230353D-01 -0.162431D-01
     32 -0.343224D+01  0.769213D+00  0.665582D-02 -0.175518D-02  0.615797D-02
     33  0.735593D+00 -0.257614D+01 -0.195412D-01  0.954290D-02  0.958546D-02
     34  0.324006D-03 -0.651705D-02 -0.333624D+01 -0.405370D+00 -0.108179D+01
     35 -0.102338D-01  0.202722D-01 -0.318516D+00 -0.379357D+01  0.583999D+00
     36  0.627668D-02 -0.260287D-02 -0.110764D+01  0.750139D+00 -0.220030D+01
     37 -0.666426D-01  0.102893D+00 -0.191806D+01 -0.333391D+00  0.732844D+00
     38 -0.210106D-01 -0.496419D-01 -0.569874D+00 -0.438530D+01 -0.122257D+00
     39 -0.446487D-01  0.200857D-01  0.997974D+00 -0.916719D-01 -0.421686D+01
     40  0.938870D-03 -0.458262D-03 -0.359589D+01  0.921145D+00  0.221726D+00
     41  0.220164D-01 -0.102483D-01  0.931908D+00 -0.181997D+01  0.577478D+00
     42  0.249532D-02 -0.141357D-01  0.167505D+00  0.446991D+00 -0.390459D+01
     43  0.709976D-02  0.253195D-02  0.863704D-02  0.302563D-01  0.176339D-02
     44  0.489577D-02  0.489630D-02  0.422626D-01  0.353151D-01  0.705150D-02
     45  0.666937D-02 -0.655099D-02  0.313682D-02  0.371280D-02 -0.145874D-01
     46  0.284716D-02  0.189702D-02  0.437080D-01  0.136311D-01 -0.301567D-03
     47 -0.470490D-02  0.652387D-03  0.228288D-01 -0.634333D-02 -0.549640D-03
     48  0.100577D-02 -0.589739D-02 -0.563469D-02 -0.180708D-02 -0.124541D-01
     49 -0.611330D-02 -0.203167D-02  0.396012D-01 -0.151593D-01 -0.141844D-01
     50 -0.158704D-02  0.197311D-02 -0.219066D-01 -0.614690D-02  0.415691D-02
     51  0.682286D-03 -0.450891D-02 -0.216526D-01  0.477870D-02 -0.433986D-02
               16            17            18            19            20 
     16  0.928596D+01
     17  0.307515D+01  0.182573D+02
     18 -0.405665D+00 -0.398960D+01  0.269411D+02
     19 -0.554774D+01 -0.504533D+01 -0.122198D+01  0.150049D+02
     20 -0.451987D+01 -0.623430D+01  0.317387D+01  0.265815D+01  0.119881D+02
     21 -0.109240D+01  0.316524D+01 -0.131063D+02  0.194682D+00 -0.631752D+01
     22 -0.696313D-01 -0.575701D-01 -0.367552D-01  0.581641D-01  0.121209D+00
     23 -0.287093D-01  0.107685D-01  0.132203D-01  0.139445D+00  0.201592D-01
     24 -0.103841D-01  0.222418D-01  0.329066D-01  0.645115D-01  0.546105D-01
     25  0.159189D-01  0.942849D-03  0.151502D-01  0.155011D-01 -0.604068D-02
     26 -0.675346D-02 -0.120826D-01 -0.409263D-02 -0.117463D-01 -0.446032D-02
     27  0.302568D-01 -0.993815D-03  0.351265D-02  0.219433D-01 -0.712461D-02
     28  0.130015D-01  0.873887D-02  0.521516D-02  0.166869D-01  0.283420D-02
     29  0.163829D-01  0.406320D-03  0.440594D-02  0.133820D-01 -0.531509D-02
     30  0.730319D-02  0.307409D-02 -0.582872D-02  0.627941D-02  0.494478D-03
     31  0.380085D-01  0.411546D-02 -0.283641D-02  0.236212D-01 -0.445659D-02
     32 -0.456880D-03 -0.130009D-01  0.266616D-03 -0.516685D-02 -0.554270D-02
     33 -0.137023D-01 -0.186428D-03 -0.113773D-01 -0.109624D-01  0.307432D-02
     34 -0.889559D-02  0.664214D-02 -0.109750D-01  0.321865D-01  0.123606D-01
     35 -0.527869D-03 -0.722255D-02 -0.324507D-02  0.126190D-01 -0.102230D-01
     36 -0.129324D-01 -0.110119D-01  0.488601D-02 -0.393564D-01 -0.797449D-02
     37 -0.263081D-01 -0.150468D-01 -0.453334D-03 -0.418213D-01 -0.651926D-02
     38  0.240356D-01  0.464413D-01 -0.600196D-01  0.183414D-01 -0.158379D-01
     39 -0.211090D-01 -0.599166D-01  0.188183D-01 -0.426615D-01 -0.345827D-01
     40  0.845321D-02  0.336611D-01 -0.248207D-02  0.579967D-02  0.877575D-02
     41  0.397741D-01  0.326103D-01 -0.377537D-02  0.176582D-01  0.137644D-02
     42 -0.446842D-02 -0.166321D-02 -0.147514D-01 -0.171793D-02 -0.202038D-02
     43 -0.425585D+01  0.825514D+00  0.385610D+00  0.293741D+00  0.143561D+00
     44  0.699110D+00 -0.217447D+01  0.107427D+01  0.211609D+00 -0.276110D+00
     45  0.326632D+00  0.106653D+01 -0.403132D+01  0.101367D+00 -0.256097D+00
     46 -0.475975D+00  0.219873D+00  0.337402D-01 -0.187887D+01  0.701822D+00
     47  0.188265D+00  0.228195D+00  0.154701D-01  0.660772D+00 -0.417332D+01
     48  0.245720D-01  0.151230D-01  0.239538D+00  0.550172D+00  0.190056D+00
     49  0.568279D-01 -0.183342D+00 -0.591755D-01 -0.106842D-01  0.160174D-01
     50 -0.168658D+00  0.169210D+00  0.745277D-01  0.118480D+00 -0.754231D-02
     51 -0.530017D-01  0.735087D-01 -0.453500D-01  0.605488D-01 -0.544632D-01
               21            22            23            24            25 
     21  0.242261D+02
     22  0.144052D-01  0.412911D+01
     23  0.407889D-01  0.679653D+00  0.437502D+01
     24 -0.409554D-01  0.111171D+01 -0.143769D+01  0.282071D+01
     25  0.860911D-02 -0.379191D-01  0.451186D-01 -0.112167D-01  0.375389D+01
     26 -0.406826D-02  0.386794D-01 -0.911568D-03  0.982001D-02  0.222621D+00
     27 -0.801364D-03 -0.124584D-01  0.629165D-02  0.193881D-01 -0.496308D+00
     28  0.387636D-02 -0.175168D-01 -0.708069D-02 -0.367029D-02  0.879426D-01
     29  0.187179D-02  0.175376D-02  0.247403D-02 -0.486738D-02 -0.607897D-01
     30 -0.557067D-02  0.190641D-02  0.129730D-03  0.361303D-02  0.334415D-01
     31 -0.292598D-02  0.763079D-01 -0.564834D-01 -0.723436D-01  0.800635D-01
     32  0.697413D-03 -0.469876D-01 -0.630908D-02  0.300788D-01 -0.227271D-01
     33 -0.497268D-02 -0.566938D-01  0.281176D-01  0.441026D-02  0.860963D-01
     34 -0.283890D-01 -0.136622D-01 -0.196243D-02 -0.672698D-01 -0.195377D-02
     35 -0.663616D-02  0.317669D-02 -0.385354D-01 -0.643628D-02 -0.115140D-03
     36  0.892681D-02 -0.622245D-01  0.909068D-02  0.139904D+00  0.176675D-02
     37 -0.103673D-01  0.211446D-01  0.101890D-01 -0.173026D-01 -0.775026D-03
     38 -0.360375D-01  0.947818D-02  0.198759D-01  0.319596D-01  0.349745D-02
     39  0.241153D-01 -0.308403D-01  0.266508D-01 -0.724299D-01 -0.436765D-02
     40 -0.556848D-02  0.167027D-02 -0.201388D-02 -0.464160D-02 -0.170767D-02
     41 -0.613364D-02  0.638712D-02 -0.422159D-02 -0.971671D-02 -0.239420D-02
     42 -0.709352D-02 -0.641769D-03  0.233394D-02  0.706013D-03  0.644046D-03
     43  0.706183D-01 -0.303884D-02  0.330675D-03  0.199541D-02  0.247731D-02
     44 -0.266995D+00 -0.466004D-02  0.226419D-02  0.558429D-02  0.347525D-02
     45  0.163604D+00 -0.259301D-02  0.112422D-02  0.200384D-02  0.277621D-02
     46  0.577533D+00  0.206170D-04  0.475385D-02  0.750675D-02  0.308734D-02
     47  0.189952D+00  0.679190D-03 -0.465261D-03  0.261507D-02  0.383217D-03
     48 -0.431352D+01  0.954867D-03  0.163672D-02  0.141936D-03  0.943835D-03
     49  0.243066D-01  0.137046D-01 -0.227270D-02  0.129976D-01  0.269737D-02
     50 -0.443175D-01 -0.647519D-02 -0.521933D-02 -0.598361D-02 -0.204496D-02
     51 -0.242009D-02  0.175476D-02 -0.660139D-03 -0.512817D-02 -0.178225D-03
               26            27            28            29            30 
     26  0.310565D+01
     27  0.117744D+01  0.229038D+01
     28 -0.843030D-01  0.398797D-01  0.303951D+01
     29 -0.179533D+00  0.102564D+00 -0.101136D+01  0.239447D+01
     30  0.109375D+00  0.851276D-01 -0.432997D+00 -0.474920D+00  0.362898D+01
[...]
   zz         0.766482D+02      0.113581D+02      0.126376D+02

 ----------------------------------------------------------------------

 Test job not archived.
 1\1\GINC-C0219\Freq\RM062X\CC-pVTZ\C5H10O2\HARMS.N\28-Sep-2019\0\\#P G
 eom=AllCheck Guess=TCheck SCRF=Check Test GenChk RM062X/CC-pVTZ Freq\\
 Gaussian input prepared by ASE\\0,1\O,-0.3638874924,-1.4975226372,1.57
 08209796\O,1.5249205782,0.339540545,3.0794617508\C,-1.1270045579,-0.62
 52309623,2.4152777206\C,-2.451006226,-1.3283293697,2.6283761912\C,-1.2
 976245456,0.7308650423,1.7554626252\C,0.9478680181,-1.2460865945,1.361
 9486487\C,1.8090843776,-0.4518607892,1.9904046068\H,-0.6069434046,-0.5
 126815443,3.3664505501\H,-2.2968720716,-2.3027418218,3.0884975207\H,-3
 .0948799645,-0.7318485346,3.2738252708\H,-2.9529101838,-1.4723349329,1
 .6711578262\H,-1.8241905623,0.6163825362,0.8070014965\H,-0.3326782474,
 1.1988008906,1.5721884627\H,-1.8800910211,1.3885984683,2.400752665\H,1
 .3369074002,-1.8396182184,0.5467147753\H,2.8294493002,-0.4390234572,1.
 6329442343\H,2.2227479093,0.9880418024,3.184108859\\Version=EM64L-G16R
 evA.03\State=1-A\HF=-346.9424039\RMSD=4.283e-09\RMSF=6.718e-07\ZeroPoi
 nt=0.1472914\Thermal=0.1559755\Dipole=0.5146938,0.6117793,0.104624\Dip
 oleDeriv=-1.6743767,-0.1259468,0.1174897,0.061531,-0.5214657,-0.148344
 3,0.5643004,-0.0664768,-0.3849475,-0.3654907,0.1081171,0.0323135,-0.14
 60692,-0.6511601,-0.4095053,-0.3419786,-0.5378332,-0.8607801,0.7359218
 ,-0.0902107,-0.1523429,-0.3397364,0.4970727,0.0332668,-0.4204856,-0.02
 8358,0.3384065,-0.0619488,-0.0359345,0.0378256,-0.0537222,0.0201393,0.
 0407622,0.0457361,0.0239452,0.0928072,-0.0210072,-0.0435284,0.0259255,
 0.067975,-0.116327,0.0619889,0.0634062,0.1165648,0.0528673,1.3108091,0
 .2130892,-0.0760425,0.3009645,0.0245593,0.0820905,-0.2027419,0.0628095
 ,0.0148079,-0.0936053,-0.0604736,-0.1009156,0.0518191,0.2498446,0.5179
 346,0.0974684,0.6027451,0.5001048,-0.0236158,0.0048907,-0.0736279,0.07
 01968,-0.0087601,0.0074493,0.0148906,0.0059268,-0.0739378,0.0447167,0.
 0259671,-0.0151203,-0.022198,-0.0927325,0.0812799,-0.0091664,0.0692078
 ,0.0352824,-0.0274043,0.0273533,0.0506845,0.0714209,-0.0017352,-0.0780
 186,0.0756177,-0.054037,0.006638,0.0185025,-0.017646,-0.0278106,-0.022
 3503,0.0558118,0.0108957,-0.1021732,-0.0257402,-0.0832371,0.0197066,0.
 0110112,-0.0771659,-0.0357491,0.0373316,-0.0463712,-0.0847785,0.013500
 1,-0.0716382,-0.0442424,-0.094451,0.0372807,-0.072921,0.0137835,0.0260
 745,0.0288859,0.0263807,0.0442483,0.0013813,0.0783935,0.0510523,0.0829
 088,0.0078488,-0.0406019,0.066525,-0.0775295,-0.0102112,-0.0259484,0.0
 111124,0.051905,0.0300998,0.082427,-0.0733405,0.0675604,-0.0832801,0.0
 305366,-0.0617744,-0.0050163,0.0629326,-0.0177649,0.1001199,-0.0607256
 ,0.0348107,-0.0882353,0.0441721,0.2683762,-0.0067273,0.0556162,-0.0264
 048,0.3032421,-0.0048349,0.1021227,0.0404101,0.3248808\Polar=80.031765
 7,5.6797959,63.4070279,-0.1489735,5.4108734,58.9210595\Quadrupole=3.90
 35691,-1.6035258,-2.3000433,2.1748259,-0.7097484,1.1061199\PG=C01 [X(C
 5H10O2)]\NImag=0\\0.52641298,0.00386064,0.23587706,-0.12629592,0.12037
 438,0.19784716,0.01016863,0.00341403,-0.00179579,0.40690537,-0.0112517
 0,-0.00162635,0.01162596,0.25046603,0.40064917,-0.02276391,0.00225747,
 0.00885872,-0.03319485,0.21142100,0.27420573,-0.10066718,0.01569520,0.
 02266754,-0.00555593,0.00064455,0.00284059,0.53648858,0.03555381,-0.12
 880391,-0.06503660,0.00220167,-0.00470317,-0.00444301,0.04325386,0.487
 37352,0.03400744,-0.05879986,-0.11735820,0.00562848,-0.00166327,-0.007
 84522,0.07144747,-0.00537559,0.57888836,-0.03423151,-0.00348484,0.0127
 9215,-0.00009518,-0.00054330,-0.00033240,-0.17477894,-0.05522778,0.009
 29897,0.51524603,0.02899089,0.00813751,-0.00828534,-0.00040640,0.00099
 545,0.00089500,-0.06615986,-0.11090088,0.01176813,-0.04150750,0.574726
 73,0.03383611,0.00576336,-0.00805923,-0.00160367,-0.00030888,0.0010794
 0,0.00002347,0.00557016,-0.08128905,0.00537146,0.00478647,0.58399262,-
 0.01080498,0.02783067,-0.00001906,-0.00035238,-0.00088968,-0.00117952,
 -0.08159664,0.00486052,-0.00893781,0.00379527,-0.03061077,0.01445529,0
 .58824687,0.01466141,-0.03190742,-0.00103206,-0.00023878,-0.00015815,0
 .00092671,0.00695058,-0.16620989,0.05184929,-0.00443538,-0.01932223,0.
 01157880,0.01616221,0.50587277,0.01299966,-0.02828591,0.00588974,-0.00
 222328,0.00234579,0.00035647,-0.01014546,0.06127664,-0.11094923,-0.000
 01692,0.00704465,-0.00290868,-0.00990437,0.03977195,0.56371043,-0.3170
 7017,-0.04178709,0.04872119,0.01399019,0.02086542,0.02386302,-0.036298
 78,0.00750384,0.01660761,-0.00007745,0.00063534,0.00065055,0.00470578,
 -0.00057404,-0.00428477,0.71732757,-0.06473299,-0.08937764,-0.02353859
 ,-0.01610216,-0.01212480,-0.01769864,0.02120224,0.00595704,0.00195969,
 0.00138333,-0.00238392,-0.00190665,0.00386497,-0.00057812,-0.00282102,
 0.17430718,0.47480229,0.03204884,-0.03151058,-0.07614237,-0.02071457,-
 0.03637184,-0.02598195,0.02696916,0.00569730,-0.01185940,0.00219487,-0
 .00297904,-0.00253622,-0.00149426,0.00135632,0.00184576,-0.00696915,0.
 33679587,0.50548256,-0.05320081,-0.02962711,-0.01049793,-0.10793251,0.
 02068273,0.06813695,0.00559570,-0.00768533,-0.00932693,-0.00026562,0.0
 0104282,0.00097172,-0.00068825,0.00104150,0.00090501,-0.28909779,-0.17
 403519,-0.11872914,0.74691004,-0.00093733,0.00538681,-0.00619711,-0.00
 853500,-0.13984227,-0.11766046,-0.00125104,0.00410182,0.00425073,0.000
 27557,-0.00069958,-0.00103634,-0.00013221,-0.00117547,-0.00096547,-0.1
 9174355,-0.23965954,-0.14622830,0.21143909,0.44140298,0.02689779,0.007
 06569,0.00586688,0.03537109,-0.14144310,-0.21199620,-0.00480330,0.0077
 4912,0.01193239,0.00054370,-0.00109885,-0.00176344,0.00086317,-0.00116
 988,-0.00218032,-0.13919342,-0.15652799,-0.18026556,0.00250560,0.31129
 355,0.47312576,0.00400363,0.00923301,0.02756368,-0.00539031,-0.0037770
 4,-0.00105150,-0.11538637,-0.01308824,-0.11951599,-0.01496778,-0.00359
 332,-0.02457193,-0.00042652,-0.00062785,-0.00293253,0.00587913,0.00071
 126,0.00039166,-0.00032930,0.00110724,0.00071793,0.12868070,-0.0031345
 5,-0.00853114,-0.02775726,-0.00148154,-0.00013310,-0.00017888,-0.00914
 967,-0.05228061,-0.01726342,-0.00943137,-0.00153574,-0.01243915,0.0150
 7034,0.00198810,0.02785329,-0.00277979,0.00011888,0.00058102,0.0006455
 2,0.00064319,0.00075834,0.01161850,0.06343723,0.00246449,-0.01244606,-
 0.02464408,-0.00275864,-0.00056178,0.00135622,-0.10986844,-0.01702622,
 -0.24606314,0.00266699,0.00117242,0.00769272,-0.00841641,0.00109004,-0
 .01199832,-0.00408761,-0.00069574,0.00108815,0.00211729,-0.00053963,-0
 .00225239,0.11762070,0.02647825,0.27163658,0.00267208,0.00050160,-0.00
 159034,-0.00007708,0.00027510,0.00018715,0.00449310,-0.02853800,0.0143
 2944,-0.05356823,0.03928883,-0.01904156,-0.00565242,-0.00156386,0.0007
 9885,-0.00047194,-0.00005124,-0.00004243,0.00028237,-0.00015314,-0.000
 23981,0.00139158,0.00067271,-0.00041676,0.05661508,0.00085524,0.001526
 17,-0.00069788,-0.00013031,0.00012287,0.00000021,0.00413031,-0.0152278
 5,0.00617204,0.03597674,-0.26460319,0.10369408,-0.00405282,-0.00036059
 ,-0.00016492,-0.00015214,0.00026255,-0.00007881,0.00013401,-0.00002175
 ,-0.00014074,0.00002324,0.00038914,-0.00046856,-0.03805336,0.28700865,
 -0.00064492,-0.00023796,0.00025259,0.00010928,-0.00015817,-0.00020537,
 -0.00064299,0.00298822,-0.00307711,-0.01814997,0.10342764,-0.09708257,
 0.00123046,0.00017954,0.00037686,0.00033043,-0.00009102,-0.00010372,-0
 .00021811,0.00011744,0.00025392,0.00041781,-0.00056739,0.00030337,0.01
 957154,-0.11373624,0.10032266,-0.00866242,-0.00277213,0.00182700,0.000
 18938,-0.00045675,-0.00060112,-0.01152917,0.01902643,0.01613163,-0.140
 77571,0.08539425,0.09404055,0.00088367,0.00093264,-0.00005334,0.001051
 15,0.00087822,0.00114382,-0.00046916,0.00033571,0.00062769,0.00059340,
 0.00027448,-0.00093055,-0.00309432,0.00160607,0.00177103,0.15211140,-0
 .00395615,-0.00030822,0.00106839,0.00007149,-0.00000038,-0.00002279,-0
 .00654258,0.00770652,0.00967305,0.08810374,-0.12989173,-0.08958445,0.0
 0021244,0.00008200,-0.00001751,-0.00058790,0.00079287,0.00061260,0.000
 02595,0.00002548,0.00006607,0.00066285,0.00047073,-0.00038932,0.016098
 68,-0.01394548,-0.01825310,-0.09505837,0.13797086,0.00164201,0.0004891
 8,0.00068127,-0.00004033,0.00015218,0.00016895,0.00001058,-0.00269526,
 -0.00410570,0.09518379,-0.08814632,-0.14225682,-0.00025366,-0.00038104
 ,-0.00003565,-0.00038275,-0.00018530,0.00048330,0.00022970,-0.00007665
 ,-0.00025244,0.00021155,0.00031666,0.00016600,-0.00952918,0.00718373,0
 .00914159,-0.10496813,0.09758408,0.15095176,0.00324749,0.00024261,-0.0
 0022972,-0.00054881,-0.00006805,0.00038935,-0.01707773,-0.00516616,-0.
 02921439,-0.10049047,-0.01475838,-0.10598521,0.00103035,0.00176795,-0.
 00068328,-0.00012917,0.00007799,0.00031372,0.00049219,-0.00034987,-0.0
 0065410,-0.00435996,-0.00257590,0.00218169,-0.00285642,-0.00067596,-0.
 00357318,0.00996940,0.00153679,0.01778556,0.11029017,0.00137000,0.0003
 5083,0.00059609,-0.00026052,-0.00018779,0.00001982,-0.00777440,-0.0035
 4737,-0.01590015,-0.01513926,-0.05205978,-0.02854446,0.00014355,0.0007
 3649,-0.00155092,0.00027149,-0.00004208,0.00007671,0.00007275,-0.00010
 450,-0.00016763,-0.00270256,-0.00068620,0.00112618,0.01324691,0.005244
 64,0.02592304,-0.00926958,-0.00276532,-0.01491942,0.02011713,0.0531746
 8,-0.00086806,0.00055424,0.00119493,0.00004799,-0.00005672,-0.00001853
 ,0.00205120,0.00036404,0.00263977,-0.10816868,-0.02986869,-0.25672051,
 0.00054216,-0.00013090,0.00101711,0.00036066,0.00020825,0.00020068,0.0
 0000571,-0.00001808,-0.00001348,0.00122055,0.00038264,0.00113101,-0.00
 489595,-0.00240960,-0.01108183,-0.00853402,-0.00105421,-0.01522799,0.1
 1840703,0.03245579,0.27646576,0.00065096,-0.00045401,0.00027268,-0.000
 95403,0.00103819,0.00021145,-0.00311061,0.00005791,-0.00392480,0.00048
 786,-0.00010243,0.00113743,-0.11032193,-0.01586743,-0.11196874,-0.0007
 9420,-0.00017152,0.00016506,0.00036187,-0.00075572,-0.00091503,0.00068
 015,0.00060511,-0.00015744,-0.00007943,0.00007557,0.00006413,-0.000020
 09,0.00008650,0.00011724,0.00047851,-0.00013721,-0.00002206,0.11511275
 ,-0.00191046,0.00290595,-0.00102605,-0.00010862,0.00049544,-0.00007632
 ,0.01533989,0.00163780,0.02970377,0.00138844,0.00172832,0.00013942,-0.
 01603258,-0.05022739,-0.02854561,0.00038258,0.00011538,-0.00016882,-0.
 00026235,-0.00014388,0.00000287,0.00050982,-0.00546232,0.00243705,0.00
 007965,0.00015194,-0.00034898,-0.00012736,0.00000477,-0.00005665,-0.00
 056582,-0.00024592,-0.00048071,0.01681178,0.05373162,0.00035603,-0.000
 39171,0.00243317,-0.00005714,-0.00015201,0.00013450,-0.00752547,-0.002
 07916,-0.01690704,-0.00031169,-0.00107275,0.00052904,-0.11172414,-0.02
 630224,-0.24755824,0.00010150,0.00019662,-0.00011301,0.00018614,-0.000
 08253,-0.00015313,0.00017068,0.00326282,0.00023495,0.00018561,-0.00004
 745,0.00048067,-0.00004366,0.00009407,-0.00006464,0.00073220,0.0006181
 7,0.00018903,0.12419169,0.02643373,0.26944794,0.00037795,-0.00082229,-
 0.00018214,-0.00162132,0.00089698,-0.00063355,0.00420887,0.00199893,-0
 .00035644,0.00071343,0.00076283,-0.00002778,-0.26558046,-0.10551688,0.
 04120238,-0.00006566,0.00001682,-0.00011961,-0.00170850,0.00145986,-0.
 00064443,0.00034307,-0.00059967,0.00025890,0.00024510,0.00020458,-0.00
 006715,0.00006457,0.00009014,-0.00017475,0.00007770,0.00021812,0.00004
 804,-0.01179213,-0.00481269,0.00297093,0.28882625,0.00056941,0.0027480
 1,-0.00062391,-0.00068273,0.00007237,-0.00037686,-0.02921724,-0.012857
 54,0.00458481,0.00255198,-0.00533474,0.00274123,-0.10235467,-0.0954933
 2,0.01882414,-0.00046277,-0.00099524,-0.00037894,0.00159304,-0.0003964
 8,0.00024941,0.00028446,0.00102561,-0.00058954,-0.00174274,-0.00086231
 ,0.00045184,-0.00001739,0.00026883,0.00015776,0.00029037,0.00014722,-0
 .00003223,-0.00228909,-0.00226183,0.00049851,0.11313351,0.10417286,-0.
 00083736,-0.00097016,0.00048076,0.00022801,-0.00142093,-0.00100592,0.0
 1499659,0.00477003,-0.00386453,-0.00122200,0.00271124,-0.00104095,0.03
 845349,0.01919875,-0.05432851,0.00056865,-0.00039743,-0.00027940,-0.00
 058161,0.00171862,0.00157545,0.00035600,-0.00052479,0.00025407,0.00088
 338,0.00068403,0.00039542,-0.00043057,-0.00006540,0.00013554,0.0002660
 0,0.00024829,0.00019892,-0.02536417,-0.01205168,0.00632350,-0.04367260
 ,-0.02299526,0.05512646,0.00020982,0.00095927,-0.00025742,-0.00011915,
 -0.00045385,-0.00066240,-0.00390577,0.00066315,0.00265748,-0.00018276,
 -0.00029743,0.00017513,-0.12314529,0.08760291,0.08598336,0.00059433,-0
 .00004072,-0.00034702,0.00033717,0.00033198,0.00049100,0.00004207,0.00
 004467,-0.00022651,0.00000670,0.00004976,-0.00020415,0.00023591,-0.000
 48718,0.00011926,0.00003108,-0.00004672,-0.00011188,0.00927910,-0.0108
 8988,-0.00911471,-0.01391059,0.01836823,0.01670029,0.13066405,0.004638
 52,-0.00792509,0.00161524,-0.00008346,0.00029810,0.00077007,0.01419847
 ,-0.01304749,-0.02069668,0.00016682,0.00100103,-0.00085046,0.08618435,
 -0.14347735,-0.09487388,-0.00331837,-0.00086326,0.00036898,0.00056538,
 0.00031542,-0.00059857,0.00009224,0.00106702,0.00048459,-0.00000288,0.
 00039032,0.00026955,-0.00071017,-0.00035858,0.00055033,-0.00000439,-0.
 00008738,0.00007520,0.00093030,-0.00236101,-0.00103821,-0.00688271,0.0
 0935109,0.00926416,-0.09590492,0.15565442,-0.00159350,0.00444328,0.001
 06814,0.00015832,-0.00005322,-0.00003145,-0.00780089,0.00716896,0.0082
 4628,0.00014391,-0.00025879,0.00004878,0.08636379,-0.09691812,-0.14332
 361,0.00065118,0.00049747,-0.00003015,-0.00011172,-0.00022682,0.000003
 21,-0.00011042,-0.00099078,0.00031550,-0.00024770,-0.00008914,0.000078
 37,0.00000908,0.00026502,0.00022900,0.00013487,-0.00002590,0.00000885,
 0.01607020,-0.01600594,-0.01502079,0.00165072,-0.00247186,-0.00365089,
 -0.09521327,0.10474375,0.15206220,-0.02710445,0.02073800,0.02901165,-0
 .00230775,-0.00396356,0.00006104,-0.00128873,-0.00517939,-0.00049520,-
 0.00065378,0.00121555,0.00104953,-0.00007792,-0.00006339,0.00024626,-0
 .07957117,0.04970227,0.07382756,0.00890800,-0.00970802,-0.01509275,-0.
 00036333,0.00023835,0.00044249,0.00005584,-0.00002745,0.00000689,-0.00
 052897,-0.00026279,0.00002067,-0.00000997,-0.00000685,-0.00010502,-0.0
 0002613,0.00003725,-0.00007364,0.00004971,0.00011713,-0.00011382,-0.00
 002055,0.00015824,-0.00008918,0.10290572,-0.00251419,0.00713096,0.0060
 7351,-0.00424847,0.00350310,-0.00386647,-0.00128823,0.00081208,-0.0003
 9070,-0.00011790,0.00007294,0.00006482,-0.00020438,0.00029512,0.000119
 63,0.05107333,-0.13604874,-0.13491789,0.00953589,-0.00771321,-0.012996
 24,0.00005763,-0.00016399,-0.00006445,-0.00002134,-0.00001445,0.000029
 22,-0.00003603,-0.00001437,0.00000291,0.00000156,0.00001985,-0.0000054
 9,0.00012453,0.00000709,0.00000800,-0.00010244,0.00012387,-0.00007917,
 -0.00002084,0.00002398,-0.00003088,-0.05240604,0.13403524,0.00760112,-
 0.00241826,-0.00183480,-0.00176323,-0.00468723,0.00539158,-0.00127493,
 0.00187010,0.00271887,0.00011066,-0.00027560,-0.00005104,0.00014077,-0
 .00013922,-0.00014449,0.07584754,-0.13354045,-0.21310849,0.00661084,-0
 .00686755,-0.01036752,-0.00022130,0.00009687,0.00009538,0.00000039,0.0
 0001645,-0.00001585,0.00008143,0.00003958,-0.00001902,0.00001342,0.000
 00410,-0.00000145,-0.00003624,0.00001639,0.00001667,0.00003081,-0.0000
 4593,-0.00001605,0.00001834,-0.00007640,0.00003837,-0.08636163,0.14463
 453,0.21975176,0.00149488,-0.00378895,-0.00107772,0.00028165,0.0029689
 1,0.00297406,0.00095784,-0.00041757,-0.00023171,-0.00007089,0.00012959
 ,0.00005834,0.00004994,0.00000753,0.00000591,-0.01792439,0.00193575,0.
 00836468,-0.31528567,-0.01449002,0.08853957,0.00006111,0.00012650,0.00
 001141,0.00002285,0.00000675,-0.00001518,-0.00005979,0.00000537,0.0000
 2351,0.00001450,-0.00001597,-0.00001312,-0.00003212,-0.00000292,-0.000
 03366,0.00003432,-0.00006798,0.00011219,-0.00002921,0.00001849,-0.0000
 0116,-0.00015110,0.00050224,-0.00139704,0.32922310,-0.00310672,0.00434
 576,-0.00712519,0.01999012,-0.00313883,-0.01348711,0.00013874,-0.00058
 507,-0.00072212,-0.00007481,0.00013705,0.00017776,-0.00023031,0.000000
 80,0.00013301,-0.01721268,0.00120809,0.00870998,-0.01474810,-0.0410466
 9,-0.00983726,0.00001976,-0.00021238,0.00003756,0.00000009,-0.00003032
 ,-0.00000480,-0.00004590,-0.00003825,0.00005539,0.00006948,0.00002055,
 0.00001325,0.00002369,-0.00001968,0.00003691,0.00003778,0.00001469,-0.
 00014155,-0.00001075,0.00008079,-0.00002529,0.00023869,-0.00313819,0.0
 0266397,0.01288204,0.04015044,-0.00069313,-0.00632003,0.00364113,0.025
 88825,-0.00779268,-0.01631620,0.00086104,-0.00102369,-0.00100208,-0.00
 011170,0.00018767,0.00024345,0.00008122,0.00015350,0.00013459,-0.01513
 510,0.00048346,0.00489690,0.08739826,-0.00934902,-0.07081365,-0.000223
 99,0.00000214,0.00030115,0.00004462,0.00004107,-0.00003940,-0.00011358
 ,0.00001023,0.00001441,0.00006059,0.00000893,0.00000284,0.00008489,0.0
 0002078,0.00000435,-0.00003069,0.00000666,-0.00014386,-0.00008656,0.00
 001854,-0.00000299,-0.00156674,0.00259360,-0.00205176,-0.09797214,0.01
 942317,0.08010626,0.00250309,0.00026139,-0.00090985,-0.30658078,-0.276
 43397,-0.03824438,-0.00054825,0.00018232,0.00189475,-0.00008425,-0.000
 02400,-0.00053943,-0.00006509,-0.00023912,0.00007128,-0.00204746,0.001
 05377,0.00299682,0.00609029,0.01310647,0.00498530,-0.00045128,-0.00014
 371,-0.00090162,0.00001515,0.00002977,0.00001408,0.00004073,0.00000102
 ,0.00000495,-0.00015886,-0.00008689,0.00003545,0.00007944,0.00016327,-
 0.00001068,-0.00026233,-0.00007354,-0.00034247,-0.00008691,-0.00004592
 ,-0.00001422,0.00018460,-0.00033532,0.00059905,0.00141298,0.00202889,0
 .00151476,0.29995892,0.00104416,0.00007071,-0.00003359,-0.24386536,-0.
 24422164,-0.05847972,-0.00017082,0.00057498,0.00085028,0.00011552,-0.0
 0006724,0.00015429,0.00017837,-0.00006537,-0.00014385,0.00357915,-0.00
 118376,-0.00156455,-0.02042060,-0.02107232,-0.00320478,-0.00053100,-0.
 00013443,-0.00004478,-0.00003702,-0.00003033,0.00001118,0.00004587,0.0
 0000027,-0.00003156,0.00006064,0.00003208,0.00000323,0.00002383,-0.000
 05627,0.00001723,-0.00008288,0.00027690,0.00005126,0.00013232,-0.00006
 199,-0.00002173,-0.00082798,0.00106874,-0.00129135,0.00020024,0.002251
 23,0.00153565,0.26055556,0.26261844,0.00184332,0.00043295,-0.00017580,
 -0.00327992,-0.03087511,-0.02815074,0.00019383,0.00022497,-0.00010497,
 0.00000685,-0.00000782,0.00012250,-0.00020111,-0.00003144,0.00009608,0
 .00235046,-0.00273854,-0.00357707,-0.02960178,-0.02813239,-0.01269946,
 -0.00004291,-0.00001037,0.00038283,0.00000277,0.00004174,0.00000041,0.
 00004275,-0.00002629,-0.00000958,0.00005545,0.00003138,0.00001488,0.00
 007371,0.00000676,0.00002302,-0.00025266,0.00000017,-0.00016000,0.0000
 7907,-0.00002621,-0.00003882,-0.00076810,-0.00117493,-0.00040217,0.000
 65204,0.00009234,0.00102485,0.02884623,0.06219279,0.04365402\\0.000000
 05,-0.00000026,0.00000051,0.00000070,0.00000111,-0.00000093,0.00000013
 ,0.00000007,0.00000024,0.00000024,0.00000023,0.00000128,0.00000001,-0.
 00000032,-0.00000026,-0.00000080,-0.00000059,-0.00000004,0.00000006,-0
 .00000003,-0.00000079,0.00000050,0.00000073,0.00000026,0.00000040,0.00
 000049,0.00000174,0.00000040,0.00000058,0.00000112,-0.00000017,-0.0000
 0035,0.00000141,-0.00000061,-0.00000085,-0.00000033,-0.00000024,-0.000
 00031,-0.00000098,-0.00000004,0.00000021,-0.00000045,-0.00000049,-0.00
 000086,0.00000020,-0.00000007,-0.00000018,-0.00000117,-0.00000006,0.00
 000035,-0.00000179\\\@


 MATERIAL COPIED FROM ONE SCHOLARLY BOOK WITHOUT CREDIT COMPRISES PLAGIARISM.
 MATERIAL COPIED FROM TWO SCHOLARLY BOOKS COMPRISES AN ESSAY.
 MATERIAL COPIED FROM THREE SCHOLARLY BOOKS COMPRISES A DISSERTATION.
 MATERIAL COPIED FROM FOUR SCHOLARLY BOOKS COMPRISES A FIFTH SCHOLARLY BOOK.

                               -- C&EN, 25 FEB 1980
 Job cpu time:       0 days  2 hours 57 minutes 12.0 seconds.
 Elapsed time:       0 days  1 hours 28 minutes 36.9 seconds.
 File lengths (MBytes):  RWF=   1392 Int=      0 D2E=      0 Chk=     32 Scr=     32
 Normal termination of Gaussian 16 at Sat Sep 28 10:19:14 2019.
