 Entering Gaussian System, Link 0=g16
 Input=verytight/species/CC(C)OC=CO/conformers/CC(C)OC=CO_23.com
 Output=verytight/species/CC(C)OC=CO/conformers/CC(C)OC=CO_23.log
 Initial command:
 /shared/centos7/gaussian/g16/l1.exe "/scratch/harms.n/gauss_scrdir/Gau-32103.inp" -scrdir="/scratch/harms.n/gauss_scrdir/"
 Entering Link 1 = /shared/centos7/gaussian/g16/l1.exe PID=     32104.
  
 Copyright (c) 1988,1990,1992,1993,1995,1998,2003,2009,2016,
            Gaussian, Inc.  All Rights Reserved.
  
 This is part of the Gaussian(R) 16 program.  It is based on
 the Gaussian(R) 09 system (copyright 2009, Gaussian, Inc.),
 the Gaussian(R) 03 system (copyright 2003, Gaussian, Inc.),
 the Gaussian(R) 98 system (copyright 1998, Gaussian, Inc.),
 the Gaussian(R) 94 system (copyright 1995, Gaussian, Inc.),
 the Gaussian 92(TM) system (copyright 1992, Gaussian, Inc.),
 the Gaussian 90(TM) system (copyright 1990, Gaussian, Inc.),
 the Gaussian 88(TM) system (copyright 1988, Gaussian, Inc.),
 the Gaussian 86(TM) system (copyright 1986, Carnegie Mellon
 University), and the Gaussian 82(TM) system (copyright 1983,
 Carnegie Mellon University). Gaussian is a federally registered
 trademark of Gaussian, Inc.
  
 This software contains proprietary and confidential information,
 including trade secrets, belonging to Gaussian, Inc.
  
 This software is provided under written license and may be
 used, copied, transmitted, or stored only in accord with that
 written license.
  
 The following legend is applicable only to US Government
 contracts under FAR:
  
                    RESTRICTED RIGHTS LEGEND
  
 Use, reproduction and disclosure by the US Government is
 subject to restrictions as set forth in subparagraphs (a)
 and (c) of the Commercial Computer Software - Restricted
 Rights clause in FAR 52.227-19.
  
 Gaussian, Inc.
 340 Quinnipiac St., Bldg. 40, Wallingford CT 06492
  
  
 ---------------------------------------------------------------
 Warning -- This program may not be used in any manner that
 competes with the business of Gaussian, Inc. or will provide
 assistance to any competitor of Gaussian, Inc.  The licensee
 of this program is prohibited from giving any competitor of
 Gaussian, Inc. access to this program.  By using this program,
 the user acknowledges that Gaussian, Inc. is engaged in the
 business of creating and licensing software in the field of
 computational chemistry and represents and warrants to the
 licensee that it is not a competitor of Gaussian, Inc. and that
 it will not use this program in any manner prohibited above.
 ---------------------------------------------------------------
  

 Cite this work as:
 Gaussian 16, Revision A.03,
 M. J. Frisch, G. W. Trucks, H. B. Schlegel, G. E. Scuseria, 
 M. A. Robb, J. R. Cheeseman, G. Scalmani, V. Barone, 
 G. A. Petersson, H. Nakatsuji, X. Li, M. Caricato, A. V. Marenich, 
 J. Bloino, B. G. Janesko, R. Gomperts, B. Mennucci, H. P. Hratchian, 
 J. V. Ortiz, A. F. Izmaylov, J. L. Sonnenberg, D. Williams-Young, 
 F. Ding, F. Lipparini, F. Egidi, J. Goings, B. Peng, A. Petrone, 
 T. Henderson, D. Ranasinghe, V. G. Zakrzewski, J. Gao, N. Rega, 
 G. Zheng, W. Liang, M. Hada, M. Ehara, K. Toyota, R. Fukuda, 
 J. Hasegawa, M. Ishida, T. Nakajima, Y. Honda, O. Kitao, H. Nakai, 
 T. Vreven, K. Throssell, J. A. Montgomery, Jr., J. E. Peralta, 
 F. Ogliaro, M. J. Bearpark, J. J. Heyd, E. N. Brothers, K. N. Kudin, 
 V. N. Staroverov, T. A. Keith, R. Kobayashi, J. Normand, 
 K. Raghavachari, A. P. Rendell, J. C. Burant, S. S. Iyengar, 
 J. Tomasi, M. Cossi, J. M. Millam, M. Klene, C. Adamo, R. Cammi, 
 J. W. Ochterski, R. L. Martin, K. Morokuma, O. Farkas, 
 J. B. Foresman, and D. J. Fox, Gaussian, Inc., Wallingford CT, 2016.
 
 ******************************************
 Gaussian 16:  EM64L-G16RevA.03 25-Dec-2016
                28-Sep-2019 
 ******************************************
 %nprocshared=20
 Will use up to   20 processors via shared memory.
 %mem=5GB
 ----------------------------------------------------------------------
 #p m062x/cc-pVTZ opt=(calcfc,maxcycles=900,Tight) freq IOP(7/33=1,2/16
 =3) scf=(maxcycle=900)
 ----------------------------------------------------------------------
 1/6=900,7=10,10=4,18=20,19=15,26=3,38=1/1,3;
 2/9=110,12=2,16=3,17=6,18=5,40=1/2;
 3/5=16,6=1,11=2,25=1,30=1,71=2,74=-55,140=1/1,2,3;
 4//1;
 5/5=2,7=900,38=5/2;
 8/6=4,10=90,11=11/1;
 11/6=1,8=1,9=11,15=111,16=1/1,2,10;
 10/6=1,13=1/2;
 6/7=2,8=2,9=2,10=2,28=1/1;
 7/10=1,18=20,25=1,33=1/1,2,3,16;
 1/6=900,7=10,10=4,18=20,19=15,26=3/3(2);
 2/9=110,16=3/2;
 99//99;
 2/9=110,16=3/2;
 3/5=16,6=1,11=2,25=1,30=1,71=1,74=-55/1,2,3;
 4/5=5,16=3,69=1/1;
 5/5=2,7=900,38=5/2;
 7/33=1/1,2,3,16;
 1/6=900,7=10,18=20,19=15,26=3/3(-5);
 2/9=110,16=3/2;
 6/7=2,8=2,9=2,10=2,19=2,28=1/1;
 99/9=1/99;
 Leave Link    1 at Sat Sep 28 04:58:45 2019, MaxMem=   671088640 cpu:               4.0 elap:               2.0
 (Enter /shared/centos7/gaussian/g16/l101.exe)
 ------------------------------
 Gaussian input prepared by ASE
 ------------------------------
 Symbolic Z-matrix:
 Charge =  0 Multiplicity = 1
 O                     4.05906  -1.82304   2.29435 
 O                     1.11369  -0.67254   0.51721 
 C                     4.96182  -1.10811   3.11155 
 C                     6.39136  -1.28827   2.60071 
 C                     4.82191  -1.50152   4.54533 
 C                     3.06537  -1.02073   1.78173 
 C                     2.10449  -1.49027   1.03991 
 H                     4.71086  -0.01457   3.02474 
 H                     6.70179  -2.35306   2.64615 
 H                     6.47586  -0.94775   1.55267 
 H                     7.10873  -0.68843   3.22377 
 H                     5.05829  -2.59565   4.69929 
 H                     3.7881   -1.32434   4.90854 
 H                     5.52451  -0.90643   5.19478 
 H                     3.15237   0.04772   2.03584 
 H                     2.02015  -2.53707   0.78788 
 H                     0.50541  -1.26012  -0.01809 
 
 ITRead=  0  0  0  0  0  0  0  0  0  0  0  0  0  0  0  0  0
 MicOpt= -1 -1 -1 -1 -1 -1 -1 -1 -1 -1 -1 -1 -1 -1 -1 -1 -1
 NAtoms=     17 NQM=       17 NQMF=       0 NMMI=      0 NMMIF=      0
                NMic=       0 NMicF=      0.
                    Isotopes and Nuclear Properties:
 (Nuclear quadrupole moments (NQMom) in fm**2, nuclear magnetic moments (NMagM)
  in nuclear magnetons)

  Atom         1           2           3           4           5           6           7           8           9          10
 IAtWgt=          16          16          12          12          12          12          12           1           1           1
 AtmWgt=  15.9949146  15.9949146  12.0000000  12.0000000  12.0000000  12.0000000  12.0000000   1.0078250   1.0078250   1.0078250
 NucSpn=           0           0           0           0           0           0           0           1           1           1
 AtZEff=  -0.0000000  -0.0000000  -0.0000000  -0.0000000  -0.0000000  -0.0000000  -0.0000000  -0.0000000  -0.0000000  -0.0000000
 NQMom=    0.0000000   0.0000000   0.0000000   0.0000000   0.0000000   0.0000000   0.0000000   0.0000000   0.0000000   0.0000000
 NMagM=    0.0000000   0.0000000   0.0000000   0.0000000   0.0000000   0.0000000   0.0000000   2.7928460   2.7928460   2.7928460
 AtZNuc=   8.0000000   8.0000000   6.0000000   6.0000000   6.0000000   6.0000000   6.0000000   1.0000000   1.0000000   1.0000000

  Atom        11          12          13          14          15          16          17
 IAtWgt=           1           1           1           1           1           1           1
 AtmWgt=   1.0078250   1.0078250   1.0078250   1.0078250   1.0078250   1.0078250   1.0078250
 NucSpn=           1           1           1           1           1           1           1
 AtZEff=  -0.0000000  -0.0000000  -0.0000000  -0.0000000  -0.0000000  -0.0000000  -0.0000000
 NQMom=    0.0000000   0.0000000   0.0000000   0.0000000   0.0000000   0.0000000   0.0000000
 NMagM=    2.7928460   2.7928460   2.7928460   2.7928460   2.7928460   2.7928460   2.7928460
 AtZNuc=   1.0000000   1.0000000   1.0000000   1.0000000   1.0000000   1.0000000   1.0000000
 Leave Link  101 at Sat Sep 28 04:58:48 2019, MaxMem=   671088640 cpu:               6.1 elap:               3.1
 (Enter /shared/centos7/gaussian/g16/l103.exe)

 GradGradGradGradGradGradGradGradGradGradGradGradGradGradGradGradGradGrad
 Berny optimization.
 Initialization pass.
                           ----------------------------
                           !    Initial Parameters    !
                           ! (Angstroms and Degrees)  !
 --------------------------                            --------------------------
 ! Name  Definition              Value          Derivative Info.                !
 --------------------------------------------------------------------------------
 ! R1    R(1,3)                  1.412          calculate D2E/DX2 analytically  !
 ! R2    R(1,6)                  1.3762         calculate D2E/DX2 analytically  !
 ! R3    R(2,7)                  1.3869         calculate D2E/DX2 analytically  !
 ! R4    R(2,17)                 1.0009         calculate D2E/DX2 analytically  !
 ! R5    R(3,4)                  1.5287         calculate D2E/DX2 analytically  !
 ! R6    R(3,5)                  1.4933         calculate D2E/DX2 analytically  !
 ! R7    R(3,8)                  1.1253         calculate D2E/DX2 analytically  !
 ! R8    R(4,9)                  1.1101         calculate D2E/DX2 analytically  !
 ! R9    R(4,10)                 1.1052         calculate D2E/DX2 analytically  !
 ! R10   R(4,11)                 1.1237         calculate D2E/DX2 analytically  !
 ! R11   R(5,12)                 1.1299         calculate D2E/DX2 analytically  !
 ! R12   R(5,13)                 1.11           calculate D2E/DX2 analytically  !
 ! R13   R(5,14)                 1.1267         calculate D2E/DX2 analytically  !
 ! R14   R(6,7)                  1.3016         calculate D2E/DX2 analytically  !
 ! R15   R(6,15)                 1.1017         calculate D2E/DX2 analytically  !
 ! R16   R(7,16)                 1.08           calculate D2E/DX2 analytically  !
 ! A1    A(3,1,6)              112.4599         calculate D2E/DX2 analytically  !
 ! A2    A(7,2,17)             106.8334         calculate D2E/DX2 analytically  !
 ! A3    A(1,3,4)              110.169          calculate D2E/DX2 analytically  !
 ! A4    A(1,3,5)              111.2458         calculate D2E/DX2 analytically  !
 ! A5    A(1,3,8)              107.7455         calculate D2E/DX2 analytically  !
 ! A6    A(4,3,5)              112.1723         calculate D2E/DX2 analytically  !
 ! A7    A(4,3,8)              107.2941         calculate D2E/DX2 analytically  !
 ! A8    A(5,3,8)              108.0093         calculate D2E/DX2 analytically  !
 ! A9    A(3,4,9)              111.1537         calculate D2E/DX2 analytically  !
 ! A10   A(3,4,10)             110.6134         calculate D2E/DX2 analytically  !
 ! A11   A(3,4,11)             110.4142         calculate D2E/DX2 analytically  !
 ! A12   A(9,4,10)             108.2388         calculate D2E/DX2 analytically  !
 ! A13   A(9,4,11)             108.1089         calculate D2E/DX2 analytically  !
 ! A14   A(10,4,11)            108.2112         calculate D2E/DX2 analytically  !
 ! A15   A(3,5,12)             111.4894         calculate D2E/DX2 analytically  !
 ! A16   A(3,5,13)             111.0618         calculate D2E/DX2 analytically  !
 ! A17   A(3,5,14)             110.8456         calculate D2E/DX2 analytically  !
 ! A18   A(12,5,13)            107.7473         calculate D2E/DX2 analytically  !
 ! A19   A(12,5,14)            107.6036         calculate D2E/DX2 analytically  !
 ! A20   A(13,5,14)            107.9303         calculate D2E/DX2 analytically  !
 ! A21   A(1,6,7)              122.3479         calculate D2E/DX2 analytically  !
 ! A22   A(1,6,15)             114.9899         calculate D2E/DX2 analytically  !
 ! A23   A(7,6,15)             122.6578         calculate D2E/DX2 analytically  !
 ! A24   A(2,7,6)              121.972          calculate D2E/DX2 analytically  !
 ! A25   A(2,7,16)             115.3236         calculate D2E/DX2 analytically  !
 ! A26   A(6,7,16)             122.7044         calculate D2E/DX2 analytically  !
 ! D1    D(6,1,3,4)           -124.2099         calculate D2E/DX2 analytically  !
 ! D2    D(6,1,3,5)            110.7482         calculate D2E/DX2 analytically  !
 ! D3    D(6,1,3,8)             -7.4621         calculate D2E/DX2 analytically  !
 ! D4    D(3,1,6,7)           -177.6245         calculate D2E/DX2 analytically  !
 ! D5    D(3,1,6,15)             3.1174         calculate D2E/DX2 analytically  !
 ! D6    D(17,2,7,6)           179.4294         calculate D2E/DX2 analytically  !
 ! D7    D(17,2,7,16)           -0.5795         calculate D2E/DX2 analytically  !
 ! D8    D(1,3,4,9)            -62.2504         calculate D2E/DX2 analytically  !
 ! D9    D(1,3,4,10)            58.0209         calculate D2E/DX2 analytically  !
 ! D10   D(1,3,4,11)           177.7741         calculate D2E/DX2 analytically  !
 ! D11   D(5,3,4,9)             62.2603         calculate D2E/DX2 analytically  !
 ! D12   D(5,3,4,10)          -177.4684         calculate D2E/DX2 analytically  !
 ! D13   D(5,3,4,11)           -57.7152         calculate D2E/DX2 analytically  !
 ! D14   D(8,3,4,9)           -179.2793         calculate D2E/DX2 analytically  !
 ! D15   D(8,3,4,10)           -59.008          calculate D2E/DX2 analytically  !
 ! D16   D(8,3,4,11)            60.7453         calculate D2E/DX2 analytically  !
 ! D17   D(1,3,5,12)            61.7556         calculate D2E/DX2 analytically  !
 ! D18   D(1,3,5,13)           -58.4203         calculate D2E/DX2 analytically  !
 ! D19   D(1,3,5,14)          -178.3967         calculate D2E/DX2 analytically  !
 ! D20   D(4,3,5,12)           -62.1564         calculate D2E/DX2 analytically  !
 ! D21   D(4,3,5,13)           177.6677         calculate D2E/DX2 analytically  !
 ! D22   D(4,3,5,14)            57.6914         calculate D2E/DX2 analytically  !
 ! D23   D(8,3,5,12)           179.8067         calculate D2E/DX2 analytically  !
 ! D24   D(8,3,5,13)            59.6309         calculate D2E/DX2 analytically  !
 ! D25   D(8,3,5,14)           -60.3455         calculate D2E/DX2 analytically  !
 ! D26   D(1,6,7,2)           -179.3998         calculate D2E/DX2 analytically  !
 ! D27   D(1,6,7,16)             0.6098         calculate D2E/DX2 analytically  !
 ! D28   D(15,6,7,2)            -0.1985         calculate D2E/DX2 analytically  !
 ! D29   D(15,6,7,16)          179.8111         calculate D2E/DX2 analytically  !
 --------------------------------------------------------------------------------
 Trust Radius=3.00D-01 FncErr=1.00D-07 GrdErr=1.00D-06 EigMax=2.50D+02 EigMin=1.00D-04
 Number of steps in this run=    102 maximum allowed number of steps=    102.
 GradGradGradGradGradGradGradGradGradGradGradGradGradGradGradGradGradGrad

 Leave Link  103 at Sat Sep 28 04:58:49 2019, MaxMem=   671088640 cpu:               1.5 elap:               0.8
 (Enter /shared/centos7/gaussian/g16/l202.exe)
                          Input orientation:                          
 ---------------------------------------------------------------------
 Center     Atomic      Atomic             Coordinates (Angstroms)
 Number     Number       Type             X           Y           Z
 ---------------------------------------------------------------------
      1          8           0        4.059064   -1.823036    2.294354
      2          8           0        1.113685   -0.672540    0.517206
      3          6           0        4.961816   -1.108114    3.111546
      4          6           0        6.391362   -1.288267    2.600708
      5          6           0        4.821911   -1.501521    4.545327
      6          6           0        3.065373   -1.020735    1.781726
      7          6           0        2.104491   -1.490267    1.039906
      8          1           0        4.710865   -0.014572    3.024741
      9          1           0        6.701791   -2.353058    2.646146
     10          1           0        6.475862   -0.947745    1.552667
     11          1           0        7.108733   -0.688428    3.223768
     12          1           0        5.058286   -2.595645    4.699292
     13          1           0        3.788102   -1.324344    4.908537
     14          1           0        5.524512   -0.906435    5.194777
     15          1           0        3.152372    0.047720    2.035838
     16          1           0        2.020148   -2.537069    0.787885
     17          1           0        0.505414   -1.260118   -0.018090
 ---------------------------------------------------------------------
                    Distance matrix (angstroms):
                    1          2          3          4          5
     1  O    0.000000
     2  O    3.627279   0.000000
     3  C    1.412047   4.661377   0.000000
     4  C    2.412353   5.707362   1.528729   0.000000
     5  C    2.398371   5.537500   1.493342   2.508026   0.000000
     6  C    1.376189   2.351454   2.317877   3.435769   3.309693
     7  C    2.346216   1.386935   3.549935   4.566637   4.435366
     8  H    2.056417   4.434000   1.125320   2.150854   2.129679
     9  H    2.718215   6.211559   2.189520   1.110050   2.804631
    10  H    2.675285   5.468168   2.179027   1.105209   3.463847
    11  H    3.384025   6.577714   2.190430   1.123668   2.763547
    12  H    2.716450   6.062018   2.177841   2.808983   1.129905
    13  H    2.675083   5.182774   2.157206   3.479129   1.109989
    14  H    3.376411   6.433489   2.167291   2.761597   1.126748
    15  H    2.094910   2.642207   2.401497   3.548943   3.388959
    16  H    2.633718   2.090792   4.011823   4.894215   4.800063
    17  H    4.276996   1.000891   5.447682   6.442304   6.286111
                    6          7          8          9         10
     6  C    0.000000
     7  C    1.301558   0.000000
     8  H    2.294579   3.593109   0.000000
     9  H    3.968104   4.945664   3.094453   0.000000
    10  H    3.418952   4.434653   2.480530   1.794894   0.000000
    11  H    4.305656   5.518572   2.498693   1.808381   1.805643
    12  H    3.868364   4.830929   3.096250   2.641092   3.824441
    13  H    3.223580   4.222367   2.472991   3.829654   4.315987
    14  H    4.208247   5.412981   2.483244   3.158200   3.764537
    15  H    1.101697   2.110767   1.846811   4.328347   3.502855
    16  H    2.092721   1.080011   4.313522   5.040315   4.792101
    17  H    3.138476   1.931157   5.338166   6.832844   6.181513
                   11         12         13         14         15
    11  H    0.000000
    12  H    3.165278   0.000000
    13  H    3.777489   1.809242   0.000000
    14  H    2.538141   1.821072   1.808785   0.000000
    15  H    4.195937   4.208786   3.246401   4.064032   0.000000
    16  H    5.936724   4.953062   4.645012   5.861760   3.085522
    17  H    7.378366   6.690738   5.920458   7.245027   3.596588
                   16         17
    16  H    0.000000
    17  H    2.138836   0.000000
 Stoichiometry    C5H10O2
 Framework group  C1[X(C5H10O2)]
 Deg. of freedom    45
 Full point group                 C1      NOp   1
 Largest Abelian subgroup         C1      NOp   1
 Largest concise Abelian subgroup C1      NOp   1
                         Standard orientation:                         
 ---------------------------------------------------------------------
 Center     Atomic      Atomic             Coordinates (Angstroms)
 Number     Number       Type             X           Y           Z
 ---------------------------------------------------------------------
      1          8           0        0.220529   -0.105235    0.548615
      2          8           0       -3.283811    0.032014   -0.377622
      3          6           0        1.375901    0.015249   -0.254178
      4          6           0        2.279461   -1.203080   -0.063742
      5          6           0        2.092807    1.296652    0.018075
      6          6           0       -0.940756   -0.011322   -0.183842
      7          6           0       -2.118206   -0.051090    0.369404
      8          1           0        1.046641    0.022621   -1.330226
      9          1           0        2.632573   -1.279783    0.985849
     10          1           0        1.737220   -2.132750   -0.315088
     11          1           0        3.180649   -1.130824   -0.731027
     12          1           0        2.447833    1.352809    1.089284
     13          1           0        1.432729    2.169895   -0.165822
     14          1           0        2.996970    1.399247   -0.646400
     15          1           0       -0.798129    0.086846   -1.271848
     16          1           0       -2.258925   -0.150292    1.435602
     17          1           0       -4.046559   -0.030447    0.267433
 ---------------------------------------------------------------------
 Rotational constants (GHZ):           6.9583422           1.1125981           1.0326801
 Leave Link  202 at Sat Sep 28 04:58:51 2019, MaxMem=   671088640 cpu:               3.5 elap:               1.7
 (Enter /shared/centos7/gaussian/g16/l301.exe)
 Standard basis: CC-pVTZ (5D, 7F)
 Ernie: Thresh=  0.10000D-02 Tol=  0.10000D-05 Strict=F.
 Ernie:  21 primitive shells out of 262 were deleted.
 There are   395 symmetry adapted cartesian basis functions of A   symmetry.
 There are   350 symmetry adapted basis functions of A   symmetry.
   350 basis functions,   534 primitive gaussians,   395 cartesian basis functions
    28 alpha electrons       28 beta electrons
       nuclear repulsion energy       305.5748582742 Hartrees.
 IExCor= 4336 DFT=T Ex+Corr=M062X ExCW=0 ScaHFX=  0.540000
 ScaDFX=  1.000000  1.000000  1.000000  1.000000 ScalE2=  1.000000  1.000000
 IRadAn=      5 IRanWt=     -1 IRanGd=            0 ICorTp=0 IEmpDi=  4
 NAtoms=   17 NActive=   17 NUniq=   17 SFac= 1.00D+00 NAtFMM=   60 NAOKFM=F Big=F
 Integral buffers will be    131072 words long.
 Raffenetti 2 integral format.
 Two-electron integral symmetry is turned on.
 Leave Link  301 at Sat Sep 28 04:58:52 2019, MaxMem=   671088640 cpu:               1.6 elap:               0.8
 (Enter /shared/centos7/gaussian/g16/l302.exe)
 NPDir=0 NMtPBC=     1 NCelOv=     1 NCel=       1 NClECP=     1 NCelD=      1
         NCelK=      1 NCelE2=     1 NClLst=     1 CellRange=     0.0.
 One-electron integrals computed using PRISM.
 One-electron integral symmetry used in STVInt
 NBasis=   350 RedAO= T EigKep=  2.16D-04  NBF=   350
 NBsUse=   350 1.00D-06 EigRej= -1.00D+00 NBFU=   350
 Precomputing XC quadrature grid using
 IXCGrd= 4 IRadAn=           5 IRanWt=          -1 IRanGd=           0 AccXCQ= 0.00D+00.
 Generated NRdTot=       0 NPtTot=           0 NUsed=           0 NTot=          32
 NSgBfM=   395   395   395   395   395 MxSgAt=    17 MxSgA2=    17.
 Leave Link  302 at Sat Sep 28 04:59:47 2019, MaxMem=   671088640 cpu:             110.8 elap:              55.4
 (Enter /shared/centos7/gaussian/g16/l303.exe)
 DipDrv:  MaxL=1.
 Leave Link  303 at Sat Sep 28 04:59:52 2019, MaxMem=   671088640 cpu:               9.1 elap:               4.6
 (Enter /shared/centos7/gaussian/g16/l401.exe)
 ExpMin= 1.03D-01 ExpMax= 1.53D+04 ExpMxC= 5.22D+02 IAcc=3 IRadAn=         5 AccDes= 0.00D+00
 Harris functional with IExCor= 1009 and IRadAn=       5 diagonalized for initial guess.
 HarFok:  IExCor= 1009 AccDes= 0.00D+00 IRadAn=         5 IDoV= 1 UseB2=F ITyADJ=14
 ICtDFT=  3500011 ScaDFX=  1.000000  1.000000  1.000000  1.000000
 FoFCou: FMM=F IPFlag=           0 FMFlag=      100000 FMFlg1=           0
         NFxFlg=           0 DoJE=T BraDBF=F KetDBF=T FulRan=T
         wScrn=  0.000000 ICntrl=       500 IOpCl=  0 I1Cent=   200000004 NGrid=           0
         NMat0=    1 NMatS0=      1 NMatT0=    0 NMatD0=    1 NMtDS0=    0 NMtDT0=    0
 Petite list used in FoFCou.
 Harris En= -346.813409848439    
 JPrj=0 DoOrth=F DoCkMO=F.
 Leave Link  401 at Sat Sep 28 05:00:21 2019, MaxMem=   671088640 cpu:              57.9 elap:              29.0
 (Enter /shared/centos7/gaussian/g16/l502.exe)
 Integral symmetry usage will be decided dynamically.
 Closed shell SCF:
 Using DIIS extrapolation, IDIIS=  1040.
 NGot=   671088640 LenX=   670765141 LenY=   670608675
 Requested convergence on RMS density matrix=1.00D-08 within 900 cycles.
 Requested convergence on MAX density matrix=1.00D-06.
 Requested convergence on             energy=1.00D-06.
 No special actions if energy rises.
 Fock matrices will be formed incrementally for  20 cycles.
 Integral accuracy reduced to 1.0D-05 until final iterations.

 Cycle   1  Pass 0  IDiag  1:
 FoFJK:  IHMeth= 1 ICntrl=       0 DoSepK=F KAlg= 0 I1Cent=           0 FoldK=F
 IRaf= 920000000 NMat=       1 IRICut=       1 DoRegI=T DoRafI=F ISym2E= 0 IDoP0=0 IntGTp=1.
 FoFCou: FMM=F IPFlag=           0 FMFlag=      100000 FMFlg1=           0
         NFxFlg=           0 DoJE=F BraDBF=F KetDBF=F FulRan=T
         wScrn=  0.000000 ICntrl=         0 IOpCl=  0 I1Cent=           0 NGrid=           0
         NMat0=    1 NMatS0=      1 NMatT0=    0 NMatD0=    1 NMtDS0=    0 NMtDT0=    0
 Symmetry not used in FoFCou.
 E= -346.695012362281    
 DIIS: error= 2.79D-02 at cycle   1 NSaved=   1.
 NSaved= 1 IEnMin= 1 EnMin= -346.695012362281     IErMin= 1 ErrMin= 2.79D-02
 ErrMax= 2.79D-02  0.00D+00 EMaxC= 1.00D-01 BMatC= 2.88D-01 BMatP= 2.88D-01
 IDIUse=3 WtCom= 7.21D-01 WtEn= 2.79D-01
 Coeff-Com:  0.100D+01
 Coeff-En:   0.100D+01
 Coeff:      0.100D+01
 Gap=     0.339 Goal=   None    Shift=    0.000
 GapD=    0.339 DampG=1.000 DampE=0.500 DampFc=0.5000 IDamp=-1.
 Damping current iteration by 5.00D-01
 RMSDP=2.12D-03 MaxDP=1.32D-01              OVMax= 1.47D-01

 Cycle   2  Pass 0  IDiag  1:
 RMSU=  1.06D-03    CP:  9.98D-01
 E= -346.816340265978     Delta-E=       -0.121327903697 Rises=F Damp=T
 DIIS: error= 6.25D-03 at cycle   2 NSaved=   2.
 NSaved= 2 IEnMin= 2 EnMin= -346.816340265978     IErMin= 2 ErrMin= 6.25D-03
 ErrMax= 6.25D-03  0.00D+00 EMaxC= 1.00D-01 BMatC= 2.07D-02 BMatP= 2.88D-01
 IDIUse=3 WtCom= 9.38D-01 WtEn= 6.25D-02
 Coeff-Com: -0.130D+00 0.113D+01
 Coeff-En:   0.000D+00 0.100D+01
 Coeff:     -0.121D+00 0.112D+01
 Gap=     0.314 Goal=   None    Shift=    0.000
 RMSDP=4.18D-04 MaxDP=2.17D-02 DE=-1.21D-01 OVMax= 6.98D-02

 Cycle   3  Pass 0  IDiag  1:
 RMSU=  4.12D-04    CP:  1.00D+00  9.39D-01
 E= -346.925603257981     Delta-E=       -0.109262992003 Rises=F Damp=F
 DIIS: error= 3.20D-03 at cycle   3 NSaved=   3.
 NSaved= 3 IEnMin= 3 EnMin= -346.925603257981     IErMin= 3 ErrMin= 3.20D-03
 ErrMax= 3.20D-03  0.00D+00 EMaxC= 1.00D-01 BMatC= 3.02D-03 BMatP= 2.07D-02
 IDIUse=3 WtCom= 9.68D-01 WtEn= 3.20D-02
 Coeff-Com: -0.749D-01 0.283D+00 0.792D+00
 Coeff-En:   0.000D+00 0.000D+00 0.100D+01
 Coeff:     -0.725D-01 0.274D+00 0.799D+00
 Gap=     0.315 Goal=   None    Shift=    0.000
 RMSDP=1.53D-04 MaxDP=1.00D-02 DE=-1.09D-01 OVMax= 1.17D-02

 Cycle   4  Pass 0  IDiag  1:
 RMSU=  1.13D-04    CP:  1.00D+00  1.03D+00  8.97D-01
 E= -346.927003372902     Delta-E=       -0.001400114921 Rises=F Damp=F
 DIIS: error= 1.73D-03 at cycle   4 NSaved=   4.
 NSaved= 4 IEnMin= 4 EnMin= -346.927003372902     IErMin= 4 ErrMin= 1.73D-03
 ErrMax= 1.73D-03  0.00D+00 EMaxC= 1.00D-01 BMatC= 1.03D-03 BMatP= 3.02D-03
 IDIUse=3 WtCom= 9.83D-01 WtEn= 1.73D-02
 Coeff-Com: -0.256D-01 0.652D-01 0.410D+00 0.551D+00
 Coeff-En:   0.000D+00 0.000D+00 0.229D+00 0.771D+00
 Coeff:     -0.251D-01 0.641D-01 0.407D+00 0.554D+00
 Gap=     0.310 Goal=   None    Shift=    0.000
 RMSDP=6.82D-05 MaxDP=4.67D-03 DE=-1.40D-03 OVMax= 5.53D-03

 Cycle   5  Pass 0  IDiag  1:
 RMSU=  2.67D-05    CP:  1.00D+00  1.00D+00  9.53D-01  5.42D-01
 E= -346.927739665728     Delta-E=       -0.000736292826 Rises=F Damp=F
 DIIS: error= 2.11D-04 at cycle   5 NSaved=   5.
 NSaved= 5 IEnMin= 5 EnMin= -346.927739665728     IErMin= 5 ErrMin= 2.11D-04
 ErrMax= 2.11D-04  0.00D+00 EMaxC= 1.00D-01 BMatC= 1.45D-05 BMatP= 1.03D-03
 IDIUse=3 WtCom= 9.98D-01 WtEn= 2.11D-03
 Coeff-Com: -0.266D-02 0.446D-02 0.746D-01 0.162D+00 0.762D+00
 Coeff-En:   0.000D+00 0.000D+00 0.000D+00 0.000D+00 0.100D+01
 Coeff:     -0.265D-02 0.445D-02 0.745D-01 0.162D+00 0.762D+00
 Gap=     0.311 Goal=   None    Shift=    0.000
 RMSDP=1.03D-05 MaxDP=3.28D-04 DE=-7.36D-04 OVMax= 1.32D-03

 Cycle   6  Pass 0  IDiag  1:
 RMSU=  7.90D-06    CP:  1.00D+00  1.00D+00  9.56D-01  5.92D-01  8.86D-01
 E= -346.927750451055     Delta-E=       -0.000010785326 Rises=F Damp=F
 DIIS: error= 6.58D-05 at cycle   6 NSaved=   6.
 NSaved= 6 IEnMin= 6 EnMin= -346.927750451055     IErMin= 6 ErrMin= 6.58D-05
 ErrMax= 6.58D-05  0.00D+00 EMaxC= 1.00D-01 BMatC= 1.97D-06 BMatP= 1.45D-05
 IDIUse=1 WtCom= 1.00D+00 WtEn= 0.00D+00
 Coeff-Com:  0.455D-03-0.216D-02 0.842D-02 0.409D-01 0.324D+00 0.629D+00
 Coeff:      0.455D-03-0.216D-02 0.842D-02 0.409D-01 0.324D+00 0.629D+00
 Gap=     0.311 Goal=   None    Shift=    0.000
 RMSDP=3.86D-06 MaxDP=2.00D-04 DE=-1.08D-05 OVMax= 5.46D-04

 Initial convergence to 1.0D-05 achieved.  Increase integral accuracy.
 Cycle   7  Pass 1  IDiag  1:
 E= -346.927759933575     Delta-E=       -0.000009482521 Rises=F Damp=F
 DIIS: error= 3.25D-05 at cycle   1 NSaved=   1.
 NSaved= 1 IEnMin= 1 EnMin= -346.927759933575     IErMin= 1 ErrMin= 3.25D-05
 ErrMax= 3.25D-05  0.00D+00 EMaxC= 1.00D-01 BMatC= 7.15D-07 BMatP= 7.15D-07
 IDIUse=1 WtCom= 1.00D+00 WtEn= 0.00D+00
 Coeff-Com:  0.100D+01
 Coeff:      0.100D+01
 Gap=     0.311 Goal=   None    Shift=    0.000
 RMSDP=3.86D-06 MaxDP=2.00D-04 DE=-9.48D-06 OVMax= 3.81D-04

 Cycle   8  Pass 1  IDiag  1:
 RMSU=  7.98D-06    CP:  1.00D+00
 E= -346.927760100989     Delta-E=       -0.000000167413 Rises=F Damp=F
 DIIS: error= 2.64D-05 at cycle   2 NSaved=   2.
 NSaved= 2 IEnMin= 2 EnMin= -346.927760100989     IErMin= 2 ErrMin= 2.64D-05
 ErrMax= 2.64D-05  0.00D+00 EMaxC= 1.00D-01 BMatC= 3.40D-07 BMatP= 7.15D-07
 IDIUse=1 WtCom= 1.00D+00 WtEn= 0.00D+00
 Coeff-Com:  0.375D+00 0.625D+00
 Coeff:      0.375D+00 0.625D+00
 Gap=     0.311 Goal=   None    Shift=    0.000
 RMSDP=1.64D-06 MaxDP=7.82D-05 DE=-1.67D-07 OVMax= 3.09D-04

 Cycle   9  Pass 1  IDiag  1:
 RMSU=  1.62D-06    CP:  1.00D+00  9.78D-01
 E= -346.927760306010     Delta-E=       -0.000000205022 Rises=F Damp=F
 DIIS: error= 1.32D-05 at cycle   3 NSaved=   3.
 NSaved= 3 IEnMin= 3 EnMin= -346.927760306010     IErMin= 3 ErrMin= 1.32D-05
 ErrMax= 1.32D-05  0.00D+00 EMaxC= 1.00D-01 BMatC= 8.77D-08 BMatP= 3.40D-07
 IDIUse=1 WtCom= 1.00D+00 WtEn= 0.00D+00
 Coeff-Com: -0.175D-01 0.332D+00 0.685D+00
 Coeff:     -0.175D-01 0.332D+00 0.685D+00
 Gap=     0.311 Goal=   None    Shift=    0.000
 RMSDP=6.18D-07 MaxDP=2.58D-05 DE=-2.05D-07 OVMax= 1.11D-04

 Cycle  10  Pass 1  IDiag  1:
 RMSU=  2.31D-07    CP:  1.00D+00  1.01D+00  6.85D-01
 E= -346.927760376221     Delta-E=       -0.000000070211 Rises=F Damp=F
 DIIS: error= 1.13D-06 at cycle   4 NSaved=   4.
 NSaved= 4 IEnMin= 4 EnMin= -346.927760376221     IErMin= 4 ErrMin= 1.13D-06
 ErrMax= 1.13D-06  0.00D+00 EMaxC= 1.00D-01 BMatC= 9.84D-10 BMatP= 8.77D-08
 IDIUse=1 WtCom= 1.00D+00 WtEn= 0.00D+00
 Coeff-Com: -0.120D-01 0.115D+00 0.262D+00 0.635D+00
 Coeff:     -0.120D-01 0.115D+00 0.262D+00 0.635D+00
 Gap=     0.311 Goal=   None    Shift=    0.000
 RMSDP=6.82D-08 MaxDP=3.20D-06 DE=-7.02D-08 OVMax= 6.24D-06

 Cycle  11  Pass 1  IDiag  1:
 RMSU=  6.65D-08    CP:  1.00D+00  1.01D+00  6.90D-01  1.03D+00
 E= -346.927760376982     Delta-E=       -0.000000000761 Rises=F Damp=F
 DIIS: error= 5.37D-07 at cycle   5 NSaved=   5.
 NSaved= 5 IEnMin= 5 EnMin= -346.927760376982     IErMin= 5 ErrMin= 5.37D-07
 ErrMax= 5.37D-07  0.00D+00 EMaxC= 1.00D-01 BMatC= 1.00D-10 BMatP= 9.84D-10
 IDIUse=1 WtCom= 1.00D+00 WtEn= 0.00D+00
 Coeff-Com: -0.732D-03-0.227D-01-0.326D-01 0.195D+00 0.862D+00
 Coeff:     -0.732D-03-0.227D-01-0.326D-01 0.195D+00 0.862D+00
 Gap=     0.311 Goal=   None    Shift=    0.000
 RMSDP=2.95D-08 MaxDP=1.04D-06 DE=-7.61D-10 OVMax= 2.31D-06

 Cycle  12  Pass 1  IDiag  1:
 RMSU=  1.67D-08    CP:  1.00D+00  1.01D+00  6.93D-01  1.13D+00  9.83D-01
 E= -346.927760377111     Delta-E=       -0.000000000129 Rises=F Damp=F
 DIIS: error= 1.98D-07 at cycle   6 NSaved=   6.
 NSaved= 6 IEnMin= 6 EnMin= -346.927760377111     IErMin= 6 ErrMin= 1.98D-07
 ErrMax= 1.98D-07  0.00D+00 EMaxC= 1.00D-01 BMatC= 6.92D-12 BMatP= 1.00D-10
 IDIUse=1 WtCom= 1.00D+00 WtEn= 0.00D+00
 Coeff-Com:  0.619D-03-0.155D-01-0.286D-01 0.206D-01 0.284D+00 0.739D+00
 Coeff:      0.619D-03-0.155D-01-0.286D-01 0.206D-01 0.284D+00 0.739D+00
 Gap=     0.311 Goal=   None    Shift=    0.000
 RMSDP=8.98D-09 MaxDP=4.05D-07 DE=-1.29D-10 OVMax= 9.82D-07

 SCF Done:  E(RM062X) =  -346.927760377     A.U. after   12 cycles
            NFock= 12  Conv=0.90D-08     -V/T= 2.0064
 KE= 3.447374905253D+02 PE=-1.421275593665D+03 EE= 4.240354844883D+02
 Leave Link  502 at Sat Sep 28 05:09:06 2019, MaxMem=   671088640 cpu:            1050.3 elap:             525.2
 (Enter /shared/centos7/gaussian/g16/l801.exe)
 DoSCS=F DFT=T ScalE2(SS,OS)=  1.000000  1.000000
 Range of M.O.s used for correlation:     1   350
 NBasis=   350 NAE=    28 NBE=    28 NFC=     0 NFV=     0
 NROrb=    350 NOA=    28 NOB=    28 NVA=   322 NVB=   322

 **** Warning!!: The largest alpha MO coefficient is  0.14090803D+02

 Leave Link  801 at Sat Sep 28 05:09:07 2019, MaxMem=   671088640 cpu:               1.8 elap:               1.3
 (Enter /shared/centos7/gaussian/g16/l1101.exe)
 Using compressed storage, NAtomX=    17.
 Will process     18 centers per pass.
 Leave Link 1101 at Sat Sep 28 05:09:36 2019, MaxMem=   671088640 cpu:              57.4 elap:              28.7
 (Enter /shared/centos7/gaussian/g16/l1102.exe)
 Symmetrizing basis deriv contribution to polar:
 IMax=3 JMax=2 DiffMx= 0.00D+00
 Leave Link 1102 at Sat Sep 28 05:09:39 2019, MaxMem=   671088640 cpu:               5.1 elap:               2.6
 (Enter /shared/centos7/gaussian/g16/l1110.exe)
 Forming Gx(P) for the SCF density, NAtomX=    17.
 Integral derivatives from FoFJK, PRISM(SPDF).
 Do as many integral derivatives as possible in FoFJK.
 G2DrvN: MDV=     671087280.
 G2DrvN: will do    18 centers at a time, making    1 passes.
 Calling FoFCou, ICntrl=  3107 FMM=F I1Cent=   0 AccDes= 0.00D+00.
 FoFJK:  IHMeth= 1 ICntrl=    3107 DoSepK=F KAlg= 0 I1Cent=           0 FoldK=F
 IRaf=         0 NMat=       1 IRICut=       1 DoRegI=T DoRafI=F ISym2E= 0 IDoP0=0 IntGTp=1.
 FoFCou: FMM=F IPFlag=           0 FMFlag=      100000 FMFlg1=           0
         NFxFlg=           0 DoJE=F BraDBF=F KetDBF=F FulRan=T
         wScrn=  0.000000 ICntrl=      3107 IOpCl=  0 I1Cent=           0 NGrid=           0
         NMat0=    1 NMatS0=      1 NMatT0=    0 NMatD0=    1 NMtDS0=    0 NMtDT0=    0
 Symmetry not used in FoFCou.
 End of G2Drv F.D. properties file   721 does not exist.
 End of G2Drv F.D. properties file   722 does not exist.
 End of G2Drv F.D. properties file   788 does not exist.
 Leave Link 1110 at Sat Sep 28 05:25:31 2019, MaxMem=   671088640 cpu:            1905.6 elap:             952.9
 (Enter /shared/centos7/gaussian/g16/l1002.exe)
 Minotr:  Closed shell wavefunction.
          IDoAtm=11111111111111111
          Direct CPHF calculation.
          Differentiating once with respect to nuclear coordinates.
          Requested convergence is 1.0D-08 RMS, and 1.0D-07 maximum.
          Secondary convergence is 1.0D-12 RMS, and 1.0D-12 maximum.
          NewPWx=T KeepS1=F KeepF1=F KeepIn=T MapXYZ=F SortEE=F KeepMc=T.
         5137 words used for storage of precomputed grid.
 Two-electron integrals replicated using symmetry.
          MDV=     671088640 using IRadAn=       1.
          Solving linear equations simultaneously, MaxMat=     380.
 FoF2E skips out because all densities are zero.
 CalDSu exits because no D1Ps are significant.
 FoFJK:  IHMeth= 1 ICntrl=       0 DoSepK=F KAlg= 0 I1Cent=           0 FoldK=F
 IRaf= 900000000 NMat=      51 IRICut=     127 DoRegI=T DoRafI=T ISym2E= 2 IDoP0=3 IntGTp=3.
 FoFCou: FMM=F IPFlag=           0 FMFlag=      100000 FMFlg1=           0
         NFxFlg=           0 DoJE=F BraDBF=F KetDBF=F FulRan=T
         wScrn=  0.000000 ICntrl=         0 IOpCl=  0 I1Cent=           0 NGrid=           0
         NMat0=   51 NMatS0=     51 NMatT0=    0 NMatD0=   51 NMtDS0=    0 NMtDT0=    0
 Integrals replicated using symmetry in FoFCou.
 Raff kept on since  86.98% of shell-pairs survive, threshold=   0.20 IRatSp=87.
          There are    54 degrees of freedom in the 1st order CPHF.  IDoFFX=6 NUNeed=     0.
     48 vectors produced by pass  0 Test12= 1.67D-14 1.85D-09 XBig12= 6.90D-02 7.89D-02.
 AX will form    48 AO Fock derivatives at one time.
     48 vectors produced by pass  1 Test12= 1.67D-14 1.85D-09 XBig12= 7.61D-03 2.15D-02.
     48 vectors produced by pass  2 Test12= 1.67D-14 1.85D-09 XBig12= 1.97D-04 2.52D-03.
     48 vectors produced by pass  3 Test12= 1.67D-14 1.85D-09 XBig12= 2.05D-06 2.47D-04.
     48 vectors produced by pass  4 Test12= 1.67D-14 1.85D-09 XBig12= 1.55D-08 1.96D-05.
     48 vectors produced by pass  5 Test12= 1.67D-14 1.85D-09 XBig12= 8.08D-11 1.14D-06.
     28 vectors produced by pass  6 Test12= 1.67D-14 1.85D-09 XBig12= 3.24D-13 6.80D-08.
      5 vectors produced by pass  7 Test12= 1.67D-14 1.85D-09 XBig12= 1.40D-15 3.91D-09.
 InvSVY:  IOpt=1 It=  1 EMax= 2.78D-16
 Solved reduced A of dimension   321 with    54 vectors.
 End of Minotr F.D. properties file   721 does not exist.
 End of Minotr F.D. properties file   722 does not exist.
 End of Minotr F.D. properties file   788 does not exist.
 Leave Link 1002 at Sat Sep 28 05:53:19 2019, MaxMem=   671088640 cpu:            3335.5 elap:            1667.9
 (Enter /shared/centos7/gaussian/g16/l601.exe)
 Copying SCF densities to generalized density rwf, IOpCl= 0 IROHF=0.

 **********************************************************************

            Population analysis using the SCF density.

 **********************************************************************

 Orbital symmetries:
       Occupied  (A) (A) (A) (A) (A) (A) (A) (A) (A) (A) (A) (A)
                 (A) (A) (A) (A) (A) (A) (A) (A) (A) (A) (A) (A)
                 (A) (A) (A) (A)
       Virtual   (A) (A) (A) (A) (A) (A) (A) (A) (A) (A) (A) (A)
                 (A) (A) (A) (A) (A) (A) (A) (A) (A) (A) (A) (A)
                 (A) (A) (A) (A) (A) (A) (A) (A) (A) (A) (A) (A)
                 (A) (A) (A) (A) (A) (A) (A) (A) (A) (A) (A) (A)
                 (A) (A) (A) (A) (A) (A) (A) (A) (A) (A) (A) (A)
                 (A) (A) (A) (A) (A) (A) (A) (A) (A) (A) (A) (A)
                 (A) (A) (A) (A) (A) (A) (A) (A) (A) (A) (A) (A)
                 (A) (A) (A) (A) (A) (A) (A) (A) (A) (A) (A) (A)
                 (A) (A) (A) (A) (A) (A) (A) (A) (A) (A) (A) (A)
                 (A) (A) (A) (A) (A) (A) (A) (A) (A) (A) (A) (A)
                 (A) (A) (A) (A) (A) (A) (A) (A) (A) (A) (A) (A)
                 (A) (A) (A) (A) (A) (A) (A) (A) (A) (A) (A) (A)
                 (A) (A) (A) (A) (A) (A) (A) (A) (A) (A) (A) (A)
                 (A) (A) (A) (A) (A) (A) (A) (A) (A) (A) (A) (A)
                 (A) (A) (A) (A) (A) (A) (A) (A) (A) (A) (A) (A)
                 (A) (A) (A) (A) (A) (A) (A) (A) (A) (A) (A) (A)
                 (A) (A) (A) (A) (A) (A) (A) (A) (A) (A) (A) (A)
                 (A) (A) (A) (A) (A) (A) (A) (A) (A) (A) (A) (A)
                 (A) (A) (A) (A) (A) (A) (A) (A) (A) (A) (A) (A)
                 (A) (A) (A) (A) (A) (A) (A) (A) (A) (A) (A) (A)
                 (A) (A) (A) (A) (A) (A) (A) (A) (A) (A) (A) (A)
                 (A) (A) (A) (A) (A) (A) (A) (A) (A) (A) (A) (A)
                 (A) (A) (A) (A) (A) (A) (A) (A) (A) (A) (A) (A)
                 (A) (A) (A) (A) (A) (A) (A) (A) (A) (A) (A) (A)
                 (A) (A) (A) (A) (A) (A) (A) (A) (A) (A) (A) (A)
                 (A) (A) (A) (A) (A) (A) (A) (A) (A) (A) (A) (A)
                 (A) (A) (A) (A) (A) (A) (A) (A) (A) (A)
 The electronic state is 1-A.
 Alpha  occ. eigenvalues --  -19.64376 -19.64124 -10.59646 -10.57531 -10.57395
 Alpha  occ. eigenvalues --  -10.53392 -10.53285  -1.18116  -1.15704  -0.89597
 Alpha  occ. eigenvalues --   -0.83126  -0.77862  -0.67915  -0.66785  -0.61214
 Alpha  occ. eigenvalues --   -0.56232  -0.54522  -0.52234  -0.50256  -0.46428
 Alpha  occ. eigenvalues --   -0.45693  -0.44770  -0.44009  -0.42463  -0.41334
 Alpha  occ. eigenvalues --   -0.38827  -0.38493  -0.25880
 Alpha virt. eigenvalues --    0.05212   0.07024   0.08271   0.09821   0.11550
 Alpha virt. eigenvalues --    0.12165   0.13172   0.14280   0.16393   0.16658
 Alpha virt. eigenvalues --    0.17792   0.17934   0.19214   0.24486   0.25357
 Alpha virt. eigenvalues --    0.26901   0.28373   0.30444   0.31591   0.31731
 Alpha virt. eigenvalues --    0.34425   0.35849   0.36771   0.39083   0.40847
 Alpha virt. eigenvalues --    0.41778   0.42332   0.43662   0.46487   0.46975
 Alpha virt. eigenvalues --    0.48007   0.48522   0.49455   0.49746   0.50336
 Alpha virt. eigenvalues --    0.50783   0.51556   0.52450   0.53440   0.53785
 Alpha virt. eigenvalues --    0.55376   0.59252   0.61149   0.61940   0.64520
 Alpha virt. eigenvalues --    0.65553   0.66966   0.67391   0.69988   0.71169
 Alpha virt. eigenvalues --    0.71607   0.73647   0.76163   0.79169   0.81462
 Alpha virt. eigenvalues --    0.83708   0.84229   0.86491   0.89571   0.91717
 Alpha virt. eigenvalues --    0.92876   0.94333   0.94843   0.95964   0.97448
 Alpha virt. eigenvalues --    0.98891   1.00048   1.00739   1.04105   1.05758
 Alpha virt. eigenvalues --    1.06470   1.07067   1.07647   1.10124   1.11700
 Alpha virt. eigenvalues --    1.14483   1.15441   1.15886   1.16975   1.19445
 Alpha virt. eigenvalues --    1.21862   1.24778   1.26414   1.27561   1.29038
 Alpha virt. eigenvalues --    1.29930   1.31243   1.31901   1.33237   1.34680
 Alpha virt. eigenvalues --    1.35743   1.36523   1.40193   1.40430   1.42615
 Alpha virt. eigenvalues --    1.43925   1.44981   1.46945   1.47869   1.50670
 Alpha virt. eigenvalues --    1.51586   1.55556   1.57342   1.58092   1.61861
 Alpha virt. eigenvalues --    1.63024   1.66622   1.74293   1.78069   1.85330
 Alpha virt. eigenvalues --    1.85891   1.86908   1.94637   2.00501   2.00985
 Alpha virt. eigenvalues --    2.05949   2.09347   2.14520   2.16228   2.19604
 Alpha virt. eigenvalues --    2.23831   2.27296   2.30405   2.34059   2.35251
 Alpha virt. eigenvalues --    2.38344   2.38810   2.40518   2.44117   2.45519
 Alpha virt. eigenvalues --    2.49203   2.51033   2.52181   2.54491   2.56309
 Alpha virt. eigenvalues --    2.58843   2.61124   2.63395   2.66288   2.66649
 Alpha virt. eigenvalues --    2.70284   2.74775   2.75272   2.77907   2.80788
 Alpha virt. eigenvalues --    2.81411   2.82119   2.82833   2.84652   2.87141
 Alpha virt. eigenvalues --    2.88027   2.89156   2.90459   2.90986   2.93238
 Alpha virt. eigenvalues --    2.94306   2.97730   2.98215   2.98728   3.00797
 Alpha virt. eigenvalues --    3.01785   3.02763   3.03799   3.06110   3.07257
 Alpha virt. eigenvalues --    3.08582   3.09930   3.11053   3.11738   3.13877
 Alpha virt. eigenvalues --    3.16402   3.16889   3.19226   3.20376   3.21925
 Alpha virt. eigenvalues --    3.23615   3.24884   3.27335   3.28287   3.29822
 Alpha virt. eigenvalues --    3.30452   3.30723   3.31978   3.33143   3.35657
 Alpha virt. eigenvalues --    3.35972   3.38291   3.40257   3.40723   3.41668
 Alpha virt. eigenvalues --    3.44288   3.45072   3.46548   3.47658   3.48489
 Alpha virt. eigenvalues --    3.50869   3.53301   3.54677   3.55881   3.59105
 Alpha virt. eigenvalues --    3.63609   3.64443   3.65292   3.69943   3.71539
 Alpha virt. eigenvalues --    3.73822   3.74274   3.76528   3.77439   3.78283
 Alpha virt. eigenvalues --    3.80467   3.80893   3.81181   3.82589   3.84983
 Alpha virt. eigenvalues --    3.87037   3.89116   3.90090   3.92908   3.93856
 Alpha virt. eigenvalues --    3.95091   3.97118   3.97762   3.99681   3.99971
 Alpha virt. eigenvalues --    4.01380   4.01973   4.02311   4.04014   4.05250
 Alpha virt. eigenvalues --    4.07510   4.08390   4.09628   4.15063   4.17548
 Alpha virt. eigenvalues --    4.19050   4.22299   4.22579   4.24665   4.25245
 Alpha virt. eigenvalues --    4.31201   4.32127   4.34491   4.39198   4.43262
 Alpha virt. eigenvalues --    4.45972   4.47440   4.50115   4.52093   4.52466
 Alpha virt. eigenvalues --    4.54209   4.62597   4.65930   4.67591   4.68917
 Alpha virt. eigenvalues --    4.70249   4.71566   4.73420   4.75939   4.79974
 Alpha virt. eigenvalues --    4.84802   4.86216   4.88331   4.91048   4.94198
 Alpha virt. eigenvalues --    4.98926   5.00829   5.02462   5.04119   5.04941
 Alpha virt. eigenvalues --    5.06939   5.09052   5.11467   5.19357   5.21202
 Alpha virt. eigenvalues --    5.21446   5.23241   5.24495   5.26305   5.30580
 Alpha virt. eigenvalues --    5.31752   5.33930   5.41969   5.44048   5.50327
 Alpha virt. eigenvalues --    5.51234   5.53154   5.57513   5.72202   5.72946
 Alpha virt. eigenvalues --    5.78303   5.78763   5.79574   5.81195   5.83616
 Alpha virt. eigenvalues --    5.93173   5.98302   6.00857   6.15735   6.21386
 Alpha virt. eigenvalues --    6.32980   6.43439   6.57507   6.62441   6.68466
 Alpha virt. eigenvalues --    6.75640   6.75851   6.75982   6.80731   7.00133
 Alpha virt. eigenvalues --    7.04032   7.20843   7.26873   7.31630   7.42029
 Alpha virt. eigenvalues --   10.47018  11.27946  11.54316  11.66461  13.17740
 Alpha virt. eigenvalues --   13.25456  14.50926
          Condensed to atoms (all electrons):
               1          2          3          4          5          6
     1  O    7.876728   0.001242   0.268568  -0.036543  -0.034943   0.340708
     2  O    0.001242   7.791846  -0.000168   0.000007   0.000013  -0.084790
     3  C    0.268568  -0.000168   4.876899   0.350863   0.348068  -0.061715
     4  C   -0.036543   0.000007   0.350863   4.950818  -0.071803   0.001204
     5  C   -0.034943   0.000013   0.348068  -0.071803   4.962445  -0.001392
     6  C    0.340708  -0.084790  -0.061715   0.001204  -0.001392   4.987264
     7  C   -0.069318   0.355703   0.005356  -0.000456  -0.000262   0.579408
     8  H   -0.047707  -0.000123   0.412817  -0.047441  -0.058538  -0.026665
     9  H   -0.001384  -0.000000  -0.032505   0.397472  -0.007655  -0.000672
    10  H    0.000136  -0.000001  -0.029977   0.395703   0.008671   0.000606
    11  H    0.004782   0.000000  -0.036802   0.389205  -0.000683   0.000128
    12  H   -0.001423  -0.000000  -0.034346  -0.007898   0.395761  -0.000767
    13  H   -0.002378  -0.000008  -0.028829   0.009134   0.393333   0.002372
    14  H    0.005282   0.000000  -0.037501  -0.003530   0.391575   0.000024
    15  H   -0.047985   0.006633  -0.018808   0.001205   0.000322   0.349800
    16  H    0.006357  -0.050426  -0.000453   0.000015   0.000010  -0.099732
    17  H   -0.000228   0.335170   0.000034  -0.000001  -0.000001   0.016028
               7          8          9         10         11         12
     1  O   -0.069318  -0.047707  -0.001384   0.000136   0.004782  -0.001423
     2  O    0.355703  -0.000123  -0.000000  -0.000001   0.000000  -0.000000
     3  C    0.005356   0.412817  -0.032505  -0.029977  -0.036802  -0.034346
     4  C   -0.000456  -0.047441   0.397472   0.395703   0.389205  -0.007898
     5  C   -0.000262  -0.058538  -0.007655   0.008671  -0.000683   0.395761
     6  C    0.579408  -0.026665  -0.000672   0.000606   0.000128  -0.000767
     7  C    4.798193   0.000737   0.000102  -0.000089  -0.000020   0.000130
     8  H    0.000737   0.656219   0.008845  -0.008879  -0.003021   0.009335
     9  H    0.000102   0.008845   0.576197  -0.029436  -0.035144   0.003760
    10  H   -0.000089  -0.008879  -0.029436   0.570000  -0.029025  -0.000163
    11  H   -0.000020  -0.003021  -0.035144  -0.029025   0.608311   0.000370
    12  H    0.000130   0.009335   0.003760  -0.000163   0.000370   0.583259
    13  H    0.000225  -0.010234  -0.000227  -0.000417  -0.000080  -0.028737
    14  H   -0.000056  -0.001395   0.000373  -0.000129  -0.002907  -0.034331
    15  H   -0.024088   0.011177   0.000004  -0.000104   0.000138   0.000041
    16  H    0.437893   0.000003   0.000017  -0.000012   0.000004   0.000022
    17  H   -0.046029   0.000021   0.000000  -0.000000   0.000000   0.000000
              13         14         15         16         17
     1  O   -0.002378   0.005282  -0.047985   0.006357  -0.000228
     2  O   -0.000008   0.000000   0.006633  -0.050426   0.335170
     3  C   -0.028829  -0.037501  -0.018808  -0.000453   0.000034
     4  C    0.009134  -0.003530   0.001205   0.000015  -0.000001
     5  C    0.393333   0.391575   0.000322   0.000010  -0.000001
     6  C    0.002372   0.000024   0.349800  -0.099732   0.016028
     7  C    0.000225  -0.000056  -0.024088   0.437893  -0.046029
     8  H   -0.010234  -0.001395   0.011177   0.000003   0.000021
     9  H   -0.000227   0.000373   0.000004   0.000017   0.000000
    10  H   -0.000417  -0.000129  -0.000104  -0.000012  -0.000000
    11  H   -0.000080  -0.002907   0.000138   0.000004   0.000000
    12  H   -0.028737  -0.034331   0.000041   0.000022   0.000000
    13  H    0.571670  -0.029843  -0.000396  -0.000017  -0.000000
    14  H   -0.029843   0.603376   0.000148   0.000002   0.000000
    15  H   -0.000396   0.000148   0.593770   0.010854  -0.000878
    16  H   -0.000017   0.000002   0.010854   0.606309  -0.014394
    17  H   -0.000000   0.000000  -0.000878  -0.014394   0.442679
 Mulliken charges:
               1
     1  O   -0.261893
     2  O   -0.355098
     3  C    0.018499
     4  C   -0.327955
     5  C   -0.324921
     6  C   -0.001810
     7  C   -0.037429
     8  H    0.104848
     9  H    0.120254
    10  H    0.123116
    11  H    0.104744
    12  H    0.114987
    13  H    0.124433
    14  H    0.108909
    15  H    0.118167
    16  H    0.103548
    17  H    0.267602
 Sum of Mulliken charges =  -0.00000
 Mulliken charges with hydrogens summed into heavy atoms:
               1
     1  O   -0.261893
     2  O   -0.087496
     3  C    0.123347
     4  C    0.020159
     5  C    0.023408
     6  C    0.116357
     7  C    0.066118
 APT charges:
               1
     1  O   -0.166449
     2  O   -0.840476
     3  C   -0.137644
     4  C   -1.174052
     5  C   -1.169462
     6  C   -0.360197
     7  C   -0.217344
     8  H    0.253600
     9  H    0.392802
    10  H    0.292109
    11  H    0.490814
    12  H    0.387951
    13  H    0.274058
    14  H    0.498260
    15  H    0.245166
    16  H    0.335885
    17  H    0.894979
 Sum of APT charges =  -0.00000
 APT charges with hydrogens summed into heavy atoms:
               1
     1  O   -0.166449
     2  O    0.054502
     3  C    0.115956
     4  C    0.001673
     5  C   -0.009193
     6  C   -0.115031
     7  C    0.118541
 Electronic spatial extent (au):  <R**2>=           1151.9270
 Charge=             -0.0000 electrons
 Dipole moment (field-independent basis, Debye):
    X=              0.0831    Y=              0.0167    Z=              0.3439  Tot=              0.3542
 Quadrupole moment (field-independent basis, Debye-Ang):
   XX=            -35.7013   YY=            -45.5930   ZZ=            -43.3457
   XY=              0.6979   XZ=             -6.7651   YZ=             -0.1390
 Traceless Quadrupole moment (field-independent basis, Debye-Ang):
   XX=              5.8454   YY=             -4.0464   ZZ=             -1.7991
   XY=              0.6979   XZ=             -6.7651   YZ=             -0.1390
 Octapole moment (field-independent basis, Debye-Ang**2):
  XXX=            -50.1850  YYY=             -0.5212  ZZZ=              1.7917  XYY=             -2.1045
  XXY=             -2.2315  XXZ=             23.0588  XZZ=             -4.9053  YZZ=             -0.1440
  YYZ=              0.0640  XYZ=              0.3852
 Hexadecapole moment (field-independent basis, Debye-Ang**3):
 XXXX=           -958.5706 YYYY=           -220.8503 ZZZZ=           -101.4903 XXXY=              9.0821
 XXXZ=            -86.1135 YYYX=             -1.1785 YYYZ=             -0.1448 ZZZX=              0.9486
 ZZZY=             -1.0345 XXYY=           -245.2264 XXZZ=           -207.5092 YYZZ=            -56.0028
 XXYZ=             -2.0154 YYXZ=              1.0246 ZZXY=              0.5049
 N-N= 3.055748582742D+02 E-N=-1.421275619455D+03  KE= 3.447374905253D+02
  Exact polarizability:   0.000   0.000   0.000   0.000   0.000   0.000
 Approx polarizability:  96.723   0.282  65.545  -5.419  -1.043  77.528
 No NMR shielding tensors so no spin-rotation constants.
 Leave Link  601 at Sat Sep 28 05:53:47 2019, MaxMem=   671088640 cpu:              55.6 elap:              27.8
 (Enter /shared/centos7/gaussian/g16/l701.exe)
 SCFChk:  SCF convergence  8.98D-09 required  1.00D-08
 ... and contract with generalized density number  0.
 Compute integral second derivatives.
 Entering OneElI...
 Calculate overlap and kinetic energy integrals
    NBasis = 395  MinDer = 2  MaxDer = 2
 Requested accuracy = 0.1000D-12
 PrmmSu-InSpLW:  IPartL=    0 NPrtUS=   20 NPrtUL=    1 DoSpLW=F IThBeg=    0 IThEnd=   19 NThAct=   20.
 PrsmSu:  NPrtUS=  20 ThrOK=T IAlg=1 NPAlg=1 LenDen=           0 ISkipM=0 DoSpLW=F IThBeg=    0 IThEnd=   19.
 Prism:   IPart=     0 DynPar=F LinDyn=F Incr=           4.
 PRISM was handed    33318435 working-precision words and  8291 shell-pairs
 PRISM was handed    33318435 working-precision words and  8291 shell-pairs
 PRISM was handed    33318435 working-precision words and  8291 shell-pairs
 PRISM was handed    33318435 working-precision words and  8291 shell-pairs
 PRISM was handed    33318435 working-precision words and  8291 shell-pairs
 PRISM was handed    33318435 working-precision words and  8291 shell-pairs
 PRISM was handed    33318435 working-precision words and  8291 shell-pairs
 PRISM was handed    33318435 working-precision words and  8291 shell-pairs
 PRISM was handed    33318435 working-precision words and  8291 shell-pairs
 IPart= 19 NShTot=         387 NBatch=          35 AvBLen=        11.1
 IPart=  0 NShTot=         459 NBatch=          81 AvBLen=         5.7
 IPart=  1 NShTot=         454 NBatch=          79 AvBLen=         5.7
 PRISM was handed    33318435 working-precision words and  8291 shell-pairs
 PRISM was handed    33318435 working-precision words and  8291 shell-pairs
 PRISM was handed    33318435 working-precision words and  8291 shell-pairs
 PRISM was handed    33318435 working-precision words and  8291 shell-pairs
 IPart= 12 NShTot=         401 NBatch=          41 AvBLen=         9.8
 PRISM was handed    33318435 working-precision words and  8291 shell-pairs
 PRISM was handed    33318435 working-precision words and  8291 shell-pairs
 PRISM was handed    33318435 working-precision words and  8291 shell-pairs
 IPart=  6 NShTot=         422 NBatch=          59 AvBLen=         7.2
 PRISM was handed    33318435 working-precision words and  8291 shell-pairs
 PRISM was handed    33318435 working-precision words and  8291 shell-pairs
 IPart=  5 NShTot=         425 NBatch=          62 AvBLen=         6.9
 PRISM was handed    33318435 working-precision words and  8291 shell-pairs
 IPart= 14 NShTot=         400 NBatch=          40 AvBLen=        10.0
 IPart= 15 NShTot=         398 NBatch=          39 AvBLen=        10.2
 PRISM was handed    33318435 working-precision words and  8291 shell-pairs
 IPart=  9 NShTot=         408 NBatch=          47 AvBLen=         8.7
 IPart= 13 NShTot=         400 NBatch=          40 AvBLen=        10.0
 IPart= 18 NShTot=         391 NBatch=          37 AvBLen=        10.6
 IPart= 16 NShTot=         396 NBatch=          38 AvBLen=        10.4
 IPart=  7 NShTot=         412 NBatch=          50 AvBLen=         8.2
 IPart=  4 NShTot=         433 NBatch=          64 AvBLen=         6.8
 IPart=  2 NShTot=         448 NBatch=          73 AvBLen=         6.1
 IPart=  8 NShTot=         409 NBatch=          48 AvBLen=         8.5
 IPart= 17 NShTot=         392 NBatch=          38 AvBLen=        10.3
 IPart= 10 NShTot=         407 NBatch=          46 AvBLen=         8.8
 IPart=  3 NShTot=         445 NBatch=          71 AvBLen=         6.3
 IPart= 11 NShTot=         404 NBatch=          44 AvBLen=         9.2
 PrSmSu:  NxtVal=             81.
 Entering OneElI...
 Calculate potential energy integrals
    NBasis = 395  MinDer = 2  MaxDer = 2
 Requested accuracy = 0.1000D-12
 PrmmSu-InSpLW:  IPartL=    0 NPrtUS=   20 NPrtUL=    1 DoSpLW=F IThBeg=    0 IThEnd=   19 NThAct=   20.
 PrsmSu:  NPrtUS=  20 ThrOK=T IAlg=1 NPAlg=1 LenDen=           0 ISkipM=0 DoSpLW=F IThBeg=    0 IThEnd=   19.
 Prism:   IPart=     0 DynPar=F LinDyn=F Incr=          62.
 PRISM was handed    33362938 working-precision words and  7374 shell-pairs
 PRISM was handed    33362938 working-precision words and  7374 shell-pairs
 PRISM was handed    33362938 working-precision words and  7374 shell-pairs
 PRISM was handed    33362938 working-precision words and  7374 shell-pairs
 PRISM was handed    33362938 working-precision words and  7374 shell-pairs
 PRISM was handed    33362938 working-precision words and  7374 shell-pairs
 PRISM was handed    33362938 working-precision words and  7374 shell-pairs
 PRISM was handed    33362938 working-precision words and  7374 shell-pairs
 PRISM was handed    33362938 working-precision words and  7374 shell-pairs
 PRISM was handed    33362938 working-precision words and  7374 shell-pairs
 PRISM was handed    33362938 working-precision words and  7374 shell-pairs
 PRISM was handed    33362938 working-precision words and  7374 shell-pairs
 PRISM was handed    33362938 working-precision words and  7374 shell-pairs
 PRISM was handed    33362938 working-precision words and  7374 shell-pairs
 PRISM was handed    33362938 working-precision words and  7374 shell-pairs
 PRISM was handed    33362938 working-precision words and  7374 shell-pairs
 PRISM was handed    33362938 working-precision words and  7374 shell-pairs
 PRISM was handed    33362938 working-precision words and  7374 shell-pairs
 PRISM was handed    33362938 working-precision words and  7374 shell-pairs
 PRISM was handed    33362938 working-precision words and  7374 shell-pairs
 IPart= 18 NShTot=        5865 NBatch=         345 AvBLen=        17.0
 IPart= 19 NShTot=        5865 NBatch=         345 AvBLen=        17.0
 IPart= 12 NShTot=        6052 NBatch=         356 AvBLen=        17.0
 IPart= 16 NShTot=        5984 NBatch=         352 AvBLen=        17.0
 IPart=  1 NShTot=        6868 NBatch=         404 AvBLen=        17.0
 IPart=  5 NShTot=        6477 NBatch=         381 AvBLen=        17.0
 IPart= 15 NShTot=        5984 NBatch=         352 AvBLen=        17.0
 IPart= 13 NShTot=        6035 NBatch=         355 AvBLen=        17.0
 IPart=  8 NShTot=        6239 NBatch=         367 AvBLen=        17.0
 IPart= 17 NShTot=        5933 NBatch=         349 AvBLen=        17.0
 IPart= 11 NShTot=        6086 NBatch=         358 AvBLen=        17.0
 IPart= 14 NShTot=        6001 NBatch=         353 AvBLen=        17.0
 IPart=  7 NShTot=        6256 NBatch=         368 AvBLen=        17.0
 IPart=  0 NShTot=        6987 NBatch=         411 AvBLen=        17.0
 IPart= 10 NShTot=        6154 NBatch=         362 AvBLen=        17.0
 IPart=  4 NShTot=        6579 NBatch=         387 AvBLen=        17.0
 IPart=  2 NShTot=        6715 NBatch=         395 AvBLen=        17.0
 IPart=  9 NShTot=        6171 NBatch=         363 AvBLen=        17.0
 IPart=  6 NShTot=        6460 NBatch=         380 AvBLen=        17.0
 IPart=  3 NShTot=        6647 NBatch=         391 AvBLen=        17.0
 PrSmSu:  NxtVal=           1241.
 Polarizability after L701:
                1             2             3 
      1  0.000000D+00
      2  0.000000D+00  0.000000D+00
      3  0.000000D+00  0.000000D+00  0.000000D+00
 Dipole Derivatives after L701:
                 1             2             3             4             5 
      1  -0.217428D+00 -0.301851D-02 -0.243916D-01 -0.178686D+01 -0.170043D+00
      2  -0.157028D-01 -0.229090D+00 -0.307244D-01 -0.252940D-01 -0.391838D+00
      3   0.156859D-01 -0.213122D-01 -0.528282D-01  0.235473D+00 -0.527164D-02
                 6             7             8             9            10 
      1   0.180902D+01  0.865325D-01  0.473617D-02  0.560450D+00 -0.145160D+01
      2  -0.183874D-02  0.221458D-02  0.831289D-01  0.183381D-01  0.187334D+00
      3  -0.342728D+00 -0.149211D-01 -0.130207D-02 -0.582593D+00  0.747461D-01
                11            12            13            14            15 
      1   0.819762D+00 -0.138613D+00 -0.139369D+01 -0.869463D+00 -0.217209D+00
      2  -0.113638D+01  0.196967D-01 -0.210374D+00 -0.120121D+01 -0.457494D-01
      3  -0.999426D-01 -0.934168D+00  0.655428D-01  0.109870D+00 -0.913493D+00
                16            17            18            19            20 
      1  -0.670895D+00  0.245091D-02  0.209787D+00  0.221292D+00 -0.789594D-02
      2   0.317078D-02  0.746692D-01  0.593503D-01  0.198371D-01  0.297567D-01
      3   0.266986D-01  0.570184D-01 -0.484365D+00 -0.148296D+00  0.944323D-01
                21            22            23            24            25 
      1  -0.114708D+00  0.590258D-01  0.117849D-01 -0.340276D+00  0.479712D+00
      2   0.835056D-01 -0.201893D-02  0.153962D+00 -0.401452D-02 -0.182961D+00
      3  -0.903081D+00  0.129024D+00 -0.944424D-02  0.547811D+00  0.152640D+00
                26            27            28            29            30 
      1  -0.120138D+00  0.902155D+00 -0.129848D+00 -0.527489D+00 -0.137441D+00
      2   0.160564D+00 -0.426021D+00  0.392209D+00  0.858947D+00  0.202815D+00
      3  -0.373859D-01  0.538131D+00  0.732540D-01  0.109985D+00  0.147229D+00
                31            32            33            34            35 
      1   0.110109D+01  0.586488D-01 -0.689343D+00  0.442060D+00  0.942170D-01
      2  -0.321971D+00  0.792093D-01  0.211568D+00  0.189605D+00  0.154892D+00
      3  -0.272692D+00 -0.248138D-01  0.292140D+00  0.163109D+00  0.309768D-01
                36            37            38            39            40 
      1   0.856976D+00 -0.129209D+00  0.400594D+00 -0.820486D-01  0.106442D+01
      2   0.456968D+00 -0.485867D+00  0.819069D+00 -0.149566D+00  0.421931D+00
      3   0.566901D+00  0.505698D-01 -0.511767D-01  0.132314D+00 -0.249823D+00
                41            42            43            44            45 
      1   0.119107D+00 -0.648595D+00  0.529126D-01 -0.283953D-01  0.290769D+00
      2   0.153074D+00 -0.276124D+00  0.586347D-02  0.586722D-01 -0.403318D-01
      3  -0.238509D-01  0.277283D+00 -0.850335D-01 -0.524969D-01  0.623914D+00
                46            47            48            49            50 
      1   0.262814D+00  0.943028D-01 -0.920685D+00  0.200967D+01  0.120838D+00
      2   0.101576D-01  0.501217D-01 -0.649209D-01  0.118656D-01  0.282455D+00
      3  -0.117080D+00 -0.641000D-01  0.694718D+00 -0.988966D-01 -0.111852D-01
                51 
      1  -0.131585D+01
      2  -0.129505D-01
      3   0.392815D+00
 Hessian after L701:
                1             2             3             4             5 
      1  0.290181D+01
      2 -0.830846D-01  0.174237D+02
      3 -0.988039D-01  0.593554D+00  0.142112D+02
      4  0.384623D+00 -0.257389D-01  0.185194D+00  0.305685D+01
      5 -0.299699D-01 -0.214523D+00 -0.896838D-02  0.210586D+00  0.141227D+02
      6  0.205885D+00 -0.792842D-02 -0.155349D+00 -0.146982D+01  0.411814D+00
      7 -0.213866D+01  0.548856D+00 -0.384578D+01  0.138635D+00 -0.188769D-02
      8  0.528911D+00 -0.853635D+01 -0.412887D+00  0.810230D-03 -0.695810D-01
      9 -0.365715D+01 -0.411217D+00 -0.635954D+01  0.208918D-01 -0.121412D-03
     10  0.161299D+00 -0.431653D+00 -0.693944D-01  0.647718D-01 -0.282571D-01
     11 -0.381803D+00  0.179359D-01  0.107972D+00 -0.135878D-01 -0.416207D-01
     12 -0.876366D-01  0.143539D+00 -0.236358D+00  0.695482D-02 -0.146484D-02
     13  0.406754D-01  0.492521D+00  0.636667D-02  0.713916D-01  0.312871D-01
     14  0.439403D+00  0.190602D+00 -0.873271D-01  0.144065D-01 -0.446356D-01
     15 -0.261034D-01 -0.133681D+00 -0.270263D+00  0.829015D-02  0.209832D-02
     16 -0.188887D+01 -0.523316D+00  0.414060D+01 -0.125118D+00  0.351184D-01
     17 -0.499667D+00 -0.946128D+01 -0.315791D+00  0.421892D-01  0.254204D+00
     18  0.405085D+01 -0.322821D+00 -0.705138D+01 -0.542748D+00  0.492036D-01
     19  0.315177D-01  0.224258D-01 -0.555027D-01 -0.155859D+01 -0.462921D+00
     20  0.219009D-01  0.250765D+00  0.324739D-01 -0.467825D+00 -0.819247D+01
     21 -0.775572D-01  0.284911D-01 -0.663227D-01  0.434236D+01 -0.280226D+00
     22  0.461884D-01 -0.462982D-01  0.250590D+00  0.118300D-01 -0.830427D-03
     23 -0.384319D-01  0.189929D+00  0.643232D-01  0.127065D-03 -0.119396D-01
     24  0.223806D+00  0.771427D-01  0.126727D+00 -0.236811D-01  0.708454D-03
     25  0.528504D-01 -0.588686D-01 -0.368871D-02  0.107916D-01 -0.403931D-02
     26 -0.499645D-01 -0.120149D-01  0.176523D-02 -0.382165D-02 -0.366142D-02
     27  0.431315D-01 -0.238331D-01 -0.341570D-01  0.105237D-01 -0.312876D-02
     28 -0.199344D-01 -0.261340D-01 -0.435833D-02  0.467464D-02 -0.427866D-02
     29 -0.783093D-01  0.485185D-01  0.345234D-01 -0.175318D-01  0.267795D-02
     30 -0.238774D-01  0.287526D-01 -0.422110D-01 -0.256645D-02  0.165607D-02
     31  0.131037D+00 -0.310386D-01 -0.951267D-01  0.122697D-01 -0.368156D-02
     32 -0.342655D-01 -0.454316D-01  0.208038D-01 -0.141448D-02 -0.345999D-02
     33 -0.889573D-01  0.180161D-01  0.612293D-05 -0.422363D-02  0.101425D-02
     34  0.343241D-01  0.626299D-01 -0.602605D-03  0.112926D-01  0.383542D-02
     35  0.488591D-01 -0.140849D-02 -0.967408D-03  0.400478D-02 -0.408118D-02
     36  0.419163D-01  0.313194D-01 -0.319683D-01  0.116422D-01  0.276278D-02
     37 -0.328696D-01  0.296793D-02  0.955507D-02  0.379009D-02  0.456916D-02
     38  0.516586D-01  0.632536D-01 -0.146566D-01  0.195381D-01  0.195595D-02
     39 -0.772637D-02 -0.148844D-01 -0.407392D-01 -0.141935D-02 -0.910187D-03
     40  0.122300D+00  0.646926D-01 -0.940739D-01  0.129991D-01  0.391032D-02
     41  0.658042D-01 -0.287375D-01 -0.388671D-01  0.292460D-02 -0.325716D-02
     42 -0.870219D-01 -0.356578D-01 -0.224196D-02 -0.423048D-02 -0.946994D-03
     43 -0.130028D-01  0.371110D-01 -0.309868D+00  0.181315D+00 -0.183683D-02
     44  0.325183D-01  0.211354D+00  0.251735D-01  0.437835D-02 -0.891742D-01
     45 -0.292695D+00  0.286093D-01  0.293050D-01 -0.770936D-01  0.184248D-03
     46  0.139209D+00 -0.363616D-02 -0.234156D-01  0.275137D-02  0.237918D-01
     47  0.476728D-02 -0.876926D-01 -0.126153D-02  0.276610D-01  0.165641D+00
     48 -0.951599D-01  0.902893D-04 -0.649173D-01 -0.261945D+00  0.190481D-01
     49  0.475081D-01 -0.143633D-02  0.831266D-02 -0.228428D+01  0.224604D+00
     50  0.167407D-02 -0.864172D-02  0.136842D-03  0.203294D+00 -0.586876D+01
     51 -0.229050D-01  0.508432D-03 -0.118157D-01 -0.219813D+01 -0.192723D+00
                6             7             8             9            10 
      6  0.102379D+02
      7  0.250240D-01  0.153751D+02
      8  0.200872D-03 -0.349376D+00  0.196934D+02
      9 -0.721709D-01  0.258953D+01  0.177915D+00  0.205220D+02
     10  0.155578D-01 -0.431830D+01 -0.232881D+01  0.213569D+00  0.129313D+02
     11  0.108988D-02 -0.227578D+01 -0.323143D+01 -0.241217D+00  0.182736D+01
     12 -0.444158D-01  0.218249D+00 -0.254235D+00 -0.607676D+01  0.647055D-01
     13  0.193827D-01 -0.524059D+01  0.211070D+01  0.339752D+00 -0.460393D-01
     14 -0.992924D-03  0.206503D+01 -0.307582D+01  0.500697D+00  0.819036D-02
     15 -0.484693D-01  0.335780D+00  0.506140D+00 -0.637382D+01  0.439948D-02
     16 -0.450870D+00  0.219073D+00  0.258169D-01  0.523246D-01  0.230238D+00
     17  0.465027D-01  0.117366D-01 -0.900410D-01  0.208824D-01 -0.144008D+00
     18 -0.195494D+00  0.375752D-01  0.158148D-01 -0.778756D-01  0.285582D-01
     19  0.429264D+01  0.374413D+00  0.715256D-02 -0.965150D-01  0.105995D+00
     20 -0.276102D+00  0.529089D-02 -0.143190D+00  0.393036D-02 -0.397267D-01
     21 -0.579690D+01 -0.135611D+00  0.143415D-02 -0.144478D+00 -0.205445D-01
     22 -0.603691D-02 -0.449434D+01  0.576653D-02  0.510725D+00  0.170281D-01
     23  0.163488D-03  0.181221D-02 -0.471692D+01 -0.372205D-01  0.121609D+00
     24 -0.112144D-01  0.677859D+00 -0.286422D-01 -0.172993D+01 -0.115162D+00
     25  0.712965D-02  0.610576D-01  0.317323D-02 -0.316285D-01 -0.361561D+01
     26 -0.169650D-02  0.978991D-02  0.163848D-01  0.742737D-01 -0.766071D-01
     27  0.275487D-02  0.182387D-01  0.174276D-01  0.425913D-01  0.759283D+00
     28  0.226118D-03  0.673564D-01  0.352993D-01  0.125414D-01 -0.350547D+01
     29 -0.509154D-02 -0.448488D-01 -0.784511D-02  0.445265D-01  0.113074D+01
     30 -0.790001D-02  0.545963D-02  0.372084D-01  0.370810D-01  0.264255D+00
     31  0.250145D-02 -0.812182D-01  0.141017D-01  0.403819D-01 -0.202260D+01
     32 -0.605904D-05  0.647309D-01  0.881563D-01 -0.479056D-01  0.456555D-01
     33 -0.520769D-02  0.345336D-01 -0.220090D-01  0.518167D-01 -0.115489D+01
     34  0.788347D-02  0.675309D-01 -0.426186D-02 -0.234832D-01 -0.763143D-02
     35  0.181035D-02 -0.115852D-01  0.155446D-01 -0.865482D-01 -0.572158D-02
     36  0.323752D-02  0.184121D-01 -0.261496D-01  0.407732D-01  0.436035D-02
     37  0.771401D-04  0.650708D-01 -0.281020D-01  0.164130D-01 -0.363300D-01
     38  0.598694D-02  0.552443D-01 -0.266831D-01 -0.469370D-01 -0.720155D-01
     39 -0.876874D-02  0.147392D-01 -0.403030D-01  0.317509D-01  0.329404D-02
     40  0.280088D-02 -0.897263D-01 -0.413696D-01  0.275472D-01 -0.576198D-02
     41  0.397941D-03 -0.949367D-01  0.816233D-01  0.479824D-01  0.255401D-01
     42 -0.550532D-02  0.261696D-01  0.225809D-01  0.623008D-01 -0.154504D-01
     43 -0.154547D-01 -0.426655D-01  0.178374D-01 -0.101520D-01  0.236096D-01
     44 -0.457090D-03  0.113530D-01  0.192292D-01  0.177946D-02 -0.278557D-01
     45 -0.808080D-01  0.187822D-01  0.762169D-02  0.586683D-01  0.407260D-01
     46 -0.212171D+00  0.155941D-01  0.183356D-02 -0.846595D-02  0.117587D-01
     47  0.161436D-01  0.349902D-02 -0.128456D-01 -0.115907D-02 -0.345935D-02
     48  0.467890D-01 -0.277564D-01 -0.192560D-02 -0.517351D-02 -0.172069D-01
     49 -0.242475D+01  0.217128D-01  0.516218D-03  0.371864D-02  0.117207D-01
     50 -0.191836D+00  0.107337D-02 -0.364640D-02  0.338737D-03 -0.990195D-03
     51 -0.385847D+01 -0.111975D-01 -0.192217D-03 -0.723676D-02 -0.605969D-02
               11            12            13            14            15 
     11  0.126901D+02
     12 -0.121201D+00  0.150072D+02
     13 -0.920730D-01 -0.198242D-02  0.135678D+02
     14  0.221507D+00  0.180584D-01 -0.165481D+01  0.125051D+02
     15 -0.123165D-01 -0.579263D-01 -0.576082D-01 -0.483715D-02  0.153043D+02
     16 -0.120045D+00 -0.348170D-02  0.199234D+00  0.122116D+00 -0.357814D-02
     17 -0.909549D-01 -0.787805D-02  0.150473D+00 -0.853019D-01  0.156986D-01
     18 -0.926394D-02 -0.160681D+00  0.285752D-01  0.172312D-01 -0.164385D+00
     19 -0.242029D-01 -0.212733D-01  0.118241D+00  0.362490D-01 -0.227243D-01
     20 -0.530152D-01  0.389342D-02  0.532854D-01 -0.536448D-01 -0.316789D-02
     21  0.138898D-02 -0.653961D-01 -0.201129D-01  0.121483D-03 -0.721088D-01
     22  0.109179D+00 -0.941821D-01  0.667068D-01 -0.136354D+00 -0.120966D+00
     23  0.120659D-01  0.117018D+00 -0.149902D+00  0.107985D-01 -0.175059D+00
     24  0.125655D+00  0.587484D-01 -0.156605D+00 -0.199773D+00  0.401853D-01
     25 -0.423002D-01  0.920506D+00 -0.100335D-01  0.812200D-02  0.123522D-02
     26 -0.391816D+01 -0.345181D+00  0.385051D-02 -0.651693D-02 -0.141468D-02
     27 -0.199124D+00 -0.168025D+01  0.826980D-02 -0.132343D-01  0.645801D-02
     28  0.901095D+00  0.213450D+00 -0.493549D-01  0.272616D-01  0.267062D-02
     29 -0.204911D+01  0.483012D+00  0.370620D-01  0.177852D+00  0.196752D-01
     30  0.474460D+00 -0.382728D+01  0.407922D-02  0.277017D-01 -0.464403D-01
     31  0.164090D+00 -0.121183D+01  0.309823D-02 -0.550130D-01 -0.200786D-01
     32 -0.373027D+01 -0.508640D-02 -0.401965D-01  0.283671D-01  0.222892D-01
     33 -0.841440D-01 -0.284647D+01 -0.266346D-01  0.360634D-01 -0.226223D-01
     34 -0.899198D-02 -0.291714D-03 -0.353652D+01  0.306742D-01  0.913691D+00
     35 -0.113811D-01 -0.265136D-02  0.732502D-01 -0.385814D+01  0.316158D+00
     36  0.113057D-01  0.588754D-02  0.774106D+00  0.156489D+00 -0.151628D+01
     37 -0.602351D-01  0.150407D-02 -0.322080D+01 -0.108502D+01  0.194912D+00
     38  0.178730D+00 -0.476826D-02 -0.132350D+01 -0.226391D+01 -0.334091D+00
     39 -0.123250D-01 -0.499514D-01  0.230104D+00 -0.322348D+00 -0.390044D+01
     40  0.379529D-01 -0.106228D-01 -0.199771D+01  0.164176D+00 -0.121150D+01
     41  0.284202D-01 -0.136109D-01  0.278549D+00 -0.372105D+01 -0.221720D+00
     42 -0.269791D-01 -0.191573D-01 -0.116172D+01 -0.138515D+00 -0.287230D+01
     43 -0.203742D-01  0.168104D-01  0.100052D-01  0.133179D-01  0.132672D-01
     44 -0.131837D-01 -0.101461D-01  0.192469D-01 -0.151641D-01  0.746473D-02
     45 -0.120793D-01 -0.692340D-02  0.379471D-01  0.882526D-02 -0.600032D-02
     46 -0.244027D-02 -0.885071D-02  0.112957D-01  0.439804D-02 -0.911823D-02
     47 -0.716387D-02  0.682108D-03  0.784638D-02 -0.703709D-02 -0.290596D-02
     48 -0.121847D-02  0.102154D-02 -0.175360D-01 -0.252108D-03  0.136311D-02
     49  0.215193D-02 -0.203257D-02  0.126195D-01 -0.214207D-02 -0.257077D-02
     50 -0.247015D-02  0.206018D-04  0.241617D-02 -0.298201D-02 -0.332464D-03
     51 -0.200377D-02 -0.133382D-02 -0.638515D-02  0.209253D-02 -0.120030D-02
               16            17            18            19            20 
     16  0.738134D+01
     17  0.270218D+00  0.278727D+02
     18 -0.682100D+00  0.984899D+00  0.181618D+02
     19 -0.195437D+01  0.166408D+00 -0.342961D+01  0.750575D+01
     20  0.170872D+00 -0.143189D+02 -0.498334D+00  0.245476D+00  0.268599D+02
     21 -0.340321D+01 -0.491319D+00 -0.867927D+01 -0.816495D+00  0.102575D+01
     22 -0.149258D+00  0.219942D-01  0.809292D-01  0.285904D-01  0.707900D-02
     23  0.171232D-01  0.628660D-01 -0.752169D-02  0.680195D-02 -0.195200D-01
     24  0.737806D-01 -0.143371D-01  0.428656D-01 -0.557041D-01 -0.461960D-02
     25  0.961229D-02 -0.660566D-02  0.949146D-02  0.246518D-01 -0.672289D-02
     26 -0.460462D-02 -0.837058D-02 -0.193437D-02 -0.857348D-02 -0.511300D-02
     27  0.165360D-01 -0.613266D-02 -0.744777D-03  0.197688D-01 -0.367252D-02
     28  0.175882D-01 -0.221137D-01  0.910991D-03  0.546375D-02 -0.674950D-02
     29 -0.467519D-01  0.138402D-01 -0.124123D-02 -0.308086D-01  0.436666D-02
     30 -0.638567D-02  0.523848D-02 -0.231905D-01 -0.963535D-02  0.432036D-02
     31  0.275367D-01 -0.114082D-01 -0.482449D-02  0.208541D-01 -0.418073D-02
     32 -0.922699D-02 -0.787066D-02 -0.336785D-03 -0.295894D-02 -0.410142D-02
     33 -0.101893D-01  0.270127D-02 -0.880492D-02 -0.100149D-01  0.138747D-02
     34  0.100400D-01  0.726982D-02  0.104400D-01  0.257861D-01  0.814026D-02
     35  0.475204D-02 -0.909893D-02  0.219196D-02  0.987744D-02 -0.507884D-02
     36  0.176349D-01  0.731227D-02 -0.413564D-03  0.216774D-01  0.476711D-02
     37  0.162982D-01  0.315446D-01  0.247001D-02  0.758660D-02  0.992561D-02
     38  0.631777D-01  0.223502D-01  0.472083D-02  0.371463D-01  0.680360D-02
     39 -0.308798D-02 -0.255070D-02 -0.326503D-01 -0.924591D-02 -0.438592D-02
     40  0.274447D-01  0.156647D-01 -0.459622D-02  0.204277D-01  0.586133D-02
     41  0.138649D-01 -0.609229D-02  0.255416D-04  0.593752D-02 -0.336599D-02
     42 -0.942290D-02 -0.345420D-02 -0.947607D-02 -0.978726D-02 -0.182743D-02
     43 -0.445642D+01 -0.156382D-02  0.195559D-01 -0.672663D-01 -0.182094D-01
     44  0.606631D-02 -0.441820D+01 -0.277981D+00 -0.161446D-01  0.103332D+00
     45 -0.598002D-01 -0.286995D+00 -0.148107D+01  0.257206D+00  0.195434D-01
     46  0.981044D-01 -0.365384D-01  0.477008D+00 -0.448072D+01  0.284087D-01
     47 -0.322724D-01  0.346670D+00  0.463554D-01  0.760770D-02 -0.451749D+01
     48  0.431914D+00  0.458788D-01 -0.259673D+00 -0.750396D-01 -0.302624D+00
     49  0.337525D+00  0.440647D-02 -0.824819D-01 -0.208330D+00 -0.128264D-01
     50  0.709098D-02 -0.765748D-01 -0.100735D-02  0.526391D-03  0.906520D-01
     51 -0.100665D+00 -0.655172D-03 -0.595169D-01  0.202622D-01 -0.133327D-02
               21            22            23            24            25 
     21  0.164851D+02
     22 -0.217691D-01  0.429697D+01
     23 -0.325219D-02  0.338119D-01  0.467597D+01
     24  0.505402D-02 -0.701262D+00  0.504181D-01  0.137892D+01
     25  0.375087D-02  0.929308D-02 -0.301371D-01  0.715285D-01  0.333968D+01
     26 -0.967135D-03 -0.302983D-01 -0.789313D-02 -0.557495D-01  0.238189D+00
     27 -0.542944D-02  0.592728D-01 -0.462476D-01  0.713891D-01 -0.966782D+00
     28 -0.292688D-02  0.175289D-01  0.265863D-01 -0.164511D-01  0.215056D-01
     29  0.603869D-02  0.216252D-01 -0.493747D-01  0.333281D-01 -0.768841D-01
     30 -0.823504D-02 -0.910691D-02  0.326907D-01  0.724139D-02 -0.128405D+00
     31 -0.613319D-02 -0.675820D-03  0.342671D-02  0.616220D-02  0.110429D+00
     32  0.798455D-03  0.462266D-02  0.429246D-03  0.185208D-03 -0.723584D-02
     33 -0.286632D-02 -0.489131D-02  0.133704D-02 -0.363590D-03  0.117537D+00
     34  0.451928D-02  0.128832D-02  0.285661D-01  0.695154D-01 -0.171828D-01
     35  0.144756D-02  0.290710D-01 -0.792339D-02  0.619594D-01 -0.920580D-02
     36 -0.553498D-02  0.577706D-01  0.507144D-01  0.838719D-01 -0.388944D-02
     37 -0.356389D-02  0.281235D-01 -0.192101D-01 -0.150583D-01  0.730362D-03
     38 -0.652502D-02 -0.151024D-01 -0.627391D-01 -0.512579D-01 -0.471819D-02
     39 -0.109435D-01 -0.699425D-02 -0.464483D-01  0.242918D-02  0.147593D-02
     40 -0.592616D-02  0.656382D-02  0.305146D-02  0.108466D-01 -0.620975D-02
     41 -0.131575D-02  0.316553D-02 -0.595701D-03  0.394230D-02 -0.355097D-03
     42 -0.312644D-02 -0.241233D-02 -0.191130D-03 -0.428052D-02  0.943683D-03
     43  0.271612D+00  0.112275D+00 -0.565514D-02 -0.379099D-01  0.147679D-02
     44  0.191548D-01 -0.772513D-02 -0.729240D-01  0.223339D-02 -0.184950D-02
     45 -0.205991D+00  0.113851D-01 -0.198746D-03 -0.828571D-01  0.677783D-02
     46 -0.277041D+00 -0.810330D-04  0.217477D-03 -0.523112D-02  0.343315D-02
     47 -0.299118D+00  0.258554D-03 -0.151204D-02 -0.847090D-03 -0.527452D-03
     48 -0.151941D+01 -0.195263D-02 -0.394462D-03  0.781185D-02 -0.410395D-02
     49  0.168645D+00  0.197416D-02  0.202768D-03 -0.643281D-02  0.352505D-02
     50 -0.190206D-02  0.351577D-04 -0.714246D-03 -0.346752D-03 -0.344307D-04
     51  0.958552D-01 -0.109852D-02 -0.131839D-03  0.339658D-02 -0.187840D-02
               26            27            28            29            30 
     26  0.372869D+01
     27  0.403650D+00  0.190636D+01
     28 -0.621764D-01 -0.100268D+00  0.354313D+01
     29  0.436767D-01 -0.112454D+00 -0.738465D+00  0.178743D+01
     30 -0.117468D+00 -0.592764D-01 -0.156075D+00 -0.554834D+00  0.388072D+01
     31 -0.176726D-01  0.129989D+00 -0.103728D+00 -0.153202D+00  0.636352D-01
     32  0.123578D+00  0.167111D-01 -0.137018D+00  0.133875D-01  0.556364D-01
     33  0.458694D-01 -0.234489D+00  0.486111D-01  0.503558D-01  0.904117D-01
     34  0.152437D-02 -0.208056D-02 -0.345626D-03  0.450295D-02  0.161265D-02
     35  0.387408D-01 -0.788087D-02  0.196740D-02  0.485527D-02  0.262641D-02
     36  0.123523D-01 -0.228230D-01  0.315121D-02  0.930600D-02  0.190988D-02
     37 -0.258608D-02  0.402284D-02 -0.222176D-03 -0.393797D-02 -0.597910D-03
     38  0.376824D-02 -0.793885D-02  0.405722D-02 -0.230614D-03  0.165942D-02
     39 -0.193386D-02  0.115882D-02 -0.904011D-04 -0.169502D-02  0.153530D-03
     40  0.612244D-02 -0.888952D-02  0.214655D-02  0.956612D-02  0.400972D-03
[...]
   zx        -0.959123D+00     -0.142127D+00     -0.158138D+00
   zy        -0.189787D+01     -0.281235D+00     -0.312916D+00
   zz         0.590205D+02      0.874594D+01      0.973117D+01

 ----------------------------------------------------------------------

 Test job not archived.
 1\1\GINC-C0153\Freq\RM062X\CC-pVTZ\C5H10O2\HARMS.N\28-Sep-2019\0\\#P G
 eom=AllCheck Guess=TCheck SCRF=Check Test GenChk RM062X/CC-pVTZ Freq\\
 Gaussian input prepared by ASE\\0,1\O,4.4094692215,-1.3555735167,1.802
 3696644\O,0.8864655495,-1.0024941594,1.1433400361\C,5.1373649926,-0.91
 42955987,2.9492802563\C,6.572399253,-1.3444081293,2.7356756608\C,4.539
 1377335,-1.4929075042,4.2193098476\C,3.1607923019,-0.820853983,1.68413
 79641\C,2.1333755462,-1.5533267817,1.2853897877\H,5.0817305044,0.18098
 00147,2.9850920816\H,6.6244965576,-2.4315358135,2.6718254271\H,6.96274
 17565,-0.9244212285,1.8105091995\H,7.1961492247,-1.0142682224,3.565513
 7923\H,4.5884392664,-2.5820647022,4.185474043\H,3.4956310826,-1.198965
 877,4.3280092477\H,5.0899614922,-1.1448219773,5.0929308751\H,3.0532722
 31,0.2390731394,1.8982810092\H,2.2481078071,-2.6112977053,1.0827627403
 \H,0.3842533633,-1.5129920425,0.5064327745\\Version=EM64L-G16RevA.03\S
 tate=1-A\HF=-346.940684\RMSD=4.355e-09\RMSF=6.723e-07\ZeroPoint=0.1464
 582\Thermal=0.1553569\Dipole=-0.0065438,-0.2214856,0.0705651\DipoleDer
 iv=-1.5603408,-0.1010469,-0.5917487,0.224234,-0.4071434,0.0224336,-0.3
 795848,-0.0509927,-0.6803274,-1.475895,-0.0646408,-0.3806044,0.3653863
 ,-0.3531897,0.1809162,-0.1062672,0.0859675,-0.3355258,0.7543175,0.0668
 981,0.2333167,0.2133582,0.3779557,0.0890335,0.3769272,0.0181199,0.7646
 897,-0.0890855,0.0296911,-0.0010294,0.030425,0.0730142,0.0091159,0.022
 525,0.0028818,0.0278568,-0.0580684,-0.0171663,0.097165,-0.0418782,0.04
 52783,0.0553105,-0.0234257,0.0454259,-0.1284936,0.9757396,0.0222304,0.
 4131493,-0.4983049,0.1945084,-0.1650964,0.0144024,0.0356282,-0.1382837
 ,1.0835543,0.0015977,0.3348213,-0.4352831,0.1548625,-0.0759258,0.12871
 23,0.0220895,-0.1080764,-0.0263428,0.0521024,0.0026014,-0.0193909,-0.1
 870373,-0.0170931,-0.0351038,0.0404026,-0.032089,0.0419071,-0.035125,0
 .0031306,0.0402488,-0.1098118,-0.0059594,0.0164705,-0.0011027,0.067938
 3,0.0185803,-0.005224,0.0495375,-0.0172101,0.0375104,0.063358,0.096074
 6,0.055655,-0.0593431,-0.0199133,-0.0122086,-0.0609774,-0.0282193,0.04
 80359,-0.0506018,-0.1008749,-0.0481845,-0.0508773,0.0553206,0.0178035,
 0.0080251,0.0056228,-0.1093543,0.0263018,0.0191024,-0.0411581,0.047554
 7,-0.100189,0.0313788,0.0458476,0.0410985,0.039008,0.0147492,0.0361663
 ,0.0153121,0.0682569,0.0191571,-0.0386774,-0.1001394,-0.0354238,0.0433
 319,-0.0474215,-0.0891009,-0.028722,-0.0654331,0.0002448,-0.0111856,-0
 .0497293,0.0490676,-0.064043,-0.0256998,0.0436169,-0.0492678,0.1697264
 ,-0.0006116,0.0358938,-0.03783,0.0433787,-0.053355,-0.0366862,0.015309
 8,-0.028899,0.1722291,0.3816253,0.0276789,0.0344641,0.0628906,0.270429
 2,-0.0367348,-0.03495,-0.0731557,0.2801974\Polar=85.8147538,4.1620438,
 60.3601025,12.518086,2.7539677,62.7794889\Quadrupole=0.8924533,-0.6088
 461,-0.2836072,3.5335547,4.5332359,1.840703\PG=C01 [X(C5H10O2)]\NImag=
 0\\0.47734170,-0.08749856,0.20875279,0.13143974,0.08847018,0.27513494,
 -0.02009653,-0.00013894,-0.00974116,0.50814623,0.00163323,-0.00211999,
 -0.00213840,0.02266653,0.29912046,-0.00764446,-0.00286081,0.00616289,0
 .23180783,0.21077869,0.28018885,-0.09832779,-0.00507628,-0.03386442,0.
 00446999,-0.00202109,0.00092853,0.52285910,-0.02037000,-0.09722516,-0.
 05664139,0.00535394,-0.00086700,-0.00023965,-0.03013267,0.60781502,-0.
 05561078,-0.04786792,-0.15891676,0.00587629,-0.00029679,0.00223408,-0.
 02374456,-0.00467846,0.46642868,-0.03280825,0.00560715,-0.00824176,-0.
 00033776,-0.00014997,-0.00011723,-0.19129468,0.03672739,0.02129248,0.5
 0738968,-0.01495426,0.00569402,-0.00189435,-0.00051403,-0.00012948,-0.
 00011381,0.04620122,-0.09715888,-0.00506424,0.02897985,0.57255806,-0.0
 4123605,0.00883588,-0.00429225,-0.00140156,-0.00010998,-0.00022743,0.0
 3295342,-0.00817749,-0.08032433,0.01360026,-0.00521170,0.59480578,0.00
 321860,0.00590304,-0.02608426,-0.00082757,0.00019830,0.00022687,-0.104
 41682,-0.02031456,0.04774486,-0.01702457,-0.01379533,0.03180264,0.5751
 3406,0.00126636,0.00818827,-0.01519001,-0.00075826,0.00006269,0.000055
 85,-0.02172056,-0.10679819,0.04817290,0.00357384,0.00442605,-0.0079921
 8,-0.01414874,0.56433147,-0.00204998,0.00661410,-0.04490782,-0.0013797
 6,0.00033173,-0.00017860,0.04205052,0.04127403,-0.14908032,0.00913880,
 0.00233770,-0.00461477,0.03380002,0.03590284,0.51501089,-0.27147527,0.
 08045405,-0.03815379,-0.03636917,-0.01854310,-0.01480994,-0.04622617,0
 .00296595,-0.02094826,-0.00121563,-0.00009506,-0.00263867,0.00513983,0
 .00192416,0.00312814,0.76037665,0.10078376,-0.12368247,-0.01266777,0.0
 1126287,0.02311692,0.00953011,-0.00762251,0.00442214,0.00819855,-0.002
 31269,-0.00194729,-0.00383334,-0.00064223,-0.00065217,-0.00139494,0.10
 502887,0.70581132,-0.01207262,-0.02377196,-0.06256331,-0.00622971,0.00
 016054,0.00397254,-0.03295288,0.01440508,-0.00681286,-0.00150018,-0.00
 125339,-0.00350858,-0.00227285,-0.00052391,-0.00251095,0.18479404,0.17
 091677,0.22053519,-0.03987136,-0.01506292,-0.01301122,-0.28317129,0.07
 192477,-0.05343752,-0.00171798,-0.00035254,0.00339711,-0.00019667,-0.0
 0037963,-0.00053547,0.00008892,0.00027525,0.00076874,-0.35950663,-0.19
 845819,-0.12035311,0.76532498,0.00846130,0.02009414,0.00928796,0.10650
 465,-0.13285278,-0.00849919,0.00526726,-0.00041065,-0.00036645,0.00082
 107,0.00101345,0.00105284,-0.00048692,0.00031312,-0.00003588,-0.195250
 30,-0.28111254,-0.10072219,0.10369730,0.72397744,-0.00265102,0.0004211
 2,0.00293810,-0.02558320,-0.02322854,-0.05336716,-0.00143762,-0.000218
 55,-0.00160127,0.00003167,0.00010226,0.00003185,0.00025888,-0.00019791
 ,0.00037037,-0.12033328,-0.10028286,-0.10554371,0.18369056,0.16905108,
 0.20507103,-0.00590435,-0.01964139,-0.01079590,-0.00015845,0.00011280,
 -0.00023391,-0.05237846,0.01881747,0.00260340,-0.00298629,0.03300347,0
 .00112786,0.00138188,-0.01443222,0.00230916,0.00370224,-0.00508338,-0.
 00036853,-0.00040954,0.00011870,0.00011870,0.05999229,-0.00711778,-0.0
 1240110,-0.01256114,-0.00055510,0.00003732,-0.00007484,0.01572547,-0.2
 9275244,0.00002477,0.00168366,-0.00797483,0.00050831,0.00125602,-0.013
 00760,0.00165233,0.00364022,0.00050891,0.00103227,-0.00050630,0.000645
 04,0.00005162,-0.01385714,0.32169317,-0.01107301,-0.03467916,-0.014564
 96,-0.00041540,0.00008092,-0.00023836,0.00085252,0.00384305,-0.0483836
 9,0.00166344,-0.00459059,0.00062744,-0.00055650,0.02963857,0.00008188,
 0.00519836,-0.00325190,0.00079659,-0.00044889,0.00015239,0.00001748,0.
 00276667,0.00729942,0.06303940,0.00285729,-0.00110995,0.00104371,0.000
 07758,-0.00001151,0.00004357,-0.00331967,0.03581399,0.00261565,-0.0465
 9530,0.00792820,0.00085053,0.00171691,0.00089664,-0.00122096,-0.000358
 05,0.00030015,-0.00007450,0.00009350,-0.00017362,-0.00003611,-0.005853
 17,0.00131076,0.00070412,0.05109381,-0.00020149,0.00113162,0.00047172,
 0.00013320,0.00000655,0.00000354,0.00085433,-0.01287667,-0.00112939,0.
 01026464,-0.31491130,-0.01489748,-0.00072002,0.00097593,0.00036256,-0.
 00015676,0.00044810,0.00013555,-0.00005524,0.00000990,0.00000998,0.002
 03347,0.00107087,-0.00027082,-0.01323341,0.34211545,0.00010796,0.00061
 383,0.00033464,0.00011445,-0.00003286,0.00001948,-0.00034378,-0.005474
 47,-0.00156565,0.00155970,-0.01466332,-0.04840972,-0.00040684,-0.00102
 046,0.00003692,-0.00023172,0.00014190,-0.00014151,-0.00002180,0.000053
 63,-0.00001230,0.00104456,-0.00017094,0.00057186,-0.00276894,0.0171355
 4,0.04732714,0.00323783,-0.00000730,-0.00024196,0.00022205,-0.00002157
 ,0.00006146,-0.01204585,-0.01431564,0.02910073,-0.07998907,-0.03679418
 ,0.07962099,-0.00617320,0.00264240,-0.00079913,-0.00023105,0.00034189,
 -0.00017377,0.00005983,0.00002066,-0.00003302,0.00131613,0.00007636,-0
 .00046708,-0.00037142,0.00047074,-0.00184052,0.08708229,-0.00083811,-0
 .00019452,-0.00011671,0.00001732,-0.00001497,-0.00000171,0.00394141,0.
 00348647,-0.01037063,-0.03792465,-0.09043067,0.09224045,0.00183344,-0.
 00009850,0.00008481,-0.00011931,-0.00002343,-0.00014446,-0.00001278,0.
 00000474,-0.00002010,-0.00072902,0.00050207,-0.00045983,-0.01122296,-0
 .01107382,0.02800660,0.03927230,0.09337429,-0.00047640,-0.00009868,0.0
 0114953,0.00015568,-0.00004545,-0.00000210,0.00017647,0.00156029,-0.00
 529323,0.08284322,0.09140632,-0.24522616,0.00131824,-0.00116687,0.0007
 2328,-0.00006726,0.00000912,0.00028938,-0.00015059,-0.00000703,0.00004
 639,0.00014798,-0.00042056,0.00017618,-0.00174465,-0.00140900,0.002838
 42,-0.09108904,-0.09974847,0.26379278,-0.00855402,0.00319051,-0.000083
 24,-0.00067503,-0.00000232,-0.00007943,-0.01175833,-0.01280096,-0.0245
 9850,-0.13567589,-0.04628874,-0.11565940,0.00109110,-0.00040265,-0.000
 54191,0.00018793,-0.00157005,-0.00098127,-0.00007955,0.00034464,-0.000
 01545,0.00098775,0.00061034,0.00003282,0.00056353,0.00043755,0.0025125
 9,0.00735607,0.00500746,0.00900869,0.14671366,0.00293901,0.00007223,0.
 00021477,0.00010621,0.00003791,0.00003807,0.00434594,0.00159221,0.0084
 3897,-0.04761558,-0.07212571,-0.06420567,-0.00021363,0.00000226,-0.000
 03320,0.00036923,0.00094227,0.00028346,0.00014012,-0.00019495,0.000013
 71,-0.00067489,0.00003311,0.00025092,-0.01894535,-0.00775857,-0.024850
 92,0.00884956,0.00349379,0.00950363,0.05090199,0.07378708,0.00066730,0
 .00021860,0.00100342,-0.00012086,0.00004817,-0.00009259,0.00345638,0.0
 0224520,0.00207759,-0.11869491,-0.06381592,-0.20564708,0.00012608,-0.0
 0004609,-0.00019451,0.00064524,-0.00027699,0.00062102,0.00002570,-0.00
 007974,0.00005123,-0.00050514,0.00023452,0.00019908,0.00051938,0.00017
 659,-0.00095866,-0.01585342,-0.00923262,-0.01861939,0.12934638,0.07024
 201,0.22115663,0.00020592,0.00118212,-0.00069701,-0.00013075,-0.000018
 32,0.00005823,-0.00053305,-0.01488282,-0.00114374,0.00079090,-0.001185
 97,-0.00068077,-0.04814621,0.01477588,0.00079938,-0.00013229,0.0000430
 7,0.00010406,0.00013148,-0.00010450,0.00004129,-0.00040164,-0.00092010
 ,0.00258993,-0.00011612,0.00032159,0.00039695,0.00005601,0.00030274,-0
 .00012475,-0.00006650,-0.00007124,-0.00004010,0.04793853,0.00101662,0.
 00225737,-0.00022909,0.00021257,0.00002433,-0.00000050,-0.00017289,-0.
 01666507,-0.00072053,0.00067896,0.00086786,-0.00066737,0.01375917,-0.3
 1334756,-0.01078159,-0.00004235,-0.00015721,0.00027523,-0.00022209,-0.
 00011217,0.00004735,-0.00117191,0.00055103,0.00247021,-0.00078182,0.00
 046434,0.00018227,0.00006859,0.00042803,0.00000283,0.00002126,-0.00001
 971,0.00012327,-0.01394893,0.34135924,0.00024325,-0.00164148,0.0030532
 5,0.00015970,-0.00006770,0.00002267,-0.00045407,0.03145789,-0.00056780
 ,-0.00152125,0.00039164,0.00108941,0.00013998,-0.01238300,-0.04660733,
 -0.00058051,0.00018868,0.00004622,-0.00007127,0.00007247,0.00002074,0.
 00243919,0.00212431,-0.00461894,0.00034435,-0.00066363,0.00006858,-0.0
 0025551,-0.00021561,0.00003793,0.00005732,-0.00013768,0.00000840,-0.00
 321561,0.00955760,0.04885039,0.00062792,-0.00009601,-0.00022768,-0.000
 20956,0.00009747,-0.00004583,-0.01291508,0.00376206,0.00003601,0.00021
 305,-0.00202907,0.00264461,-0.29463144,0.07176250,0.02515545,-0.000096
 16,0.00010848,-0.00100718,0.00051214,0.00003105,-0.00031773,0.00040996
 ,-0.00029538,0.00001869,0.00014414,-0.00001509,-0.00011246,-0.00073689
 ,0.00041349,0.00013966,0.00032949,0.00002739,-0.00009728,0.00007590,-0
 .00019959,-0.00027059,0.32007328,0.00035244,-0.00015698,-0.00137298,-0
 .00002695,-0.00003180,0.00004638,-0.01471518,0.00339331,0.00012092,-0.
 00044571,-0.00066784,0.00237203,0.07219325,-0.06910819,-0.00674662,0.0
 0053750,0.00050772,0.00057235,-0.00009444,-0.00039857,0.00020311,-0.00
 001197,0.00048617,-0.00090922,-0.00031736,0.00035868,0.00026322,-0.000
 68526,0.00070205,0.00038842,0.00029747,-0.00011830,0.00010334,0.031362
 25,-0.00748468,-0.00257524,-0.07772135,0.07059920,-0.00116703,-0.00016
 031,0.00260717,0.00055148,-0.00013547,-0.00004694,0.02875073,-0.009739
 47,-0.00228819,0.00090251,0.00284322,-0.00512326,0.02291847,-0.0064535
 0,-0.04902539,0.00026907,0.00014019,-0.00091106,-0.00115507,0.00001045
 ,-0.00028427,-0.00093326,-0.00021291,0.00098933,-0.00025146,0.00008793
 ,-0.00000902,0.00182359,-0.00033590,-0.00018736,0.00009923,0.00017113,
 0.00024375,0.00127066,-0.00044745,-0.00124061,-0.02811153,0.00560010,0
 .05213902,0.00054217,-0.00082814,0.00421463,-0.00001649,0.00002258,-0.
 00008614,0.00563899,0.00577236,0.00919362,0.00000602,0.00018634,-0.000
 26995,-0.11649463,-0.04518249,-0.11082289,-0.00079036,0.00000253,-0.00
 035592,0.00051371,0.00026810,-0.00001741,0.00039444,0.00008626,-0.0007
 0661,-0.00001036,0.00008806,0.00003919,0.00021299,0.00003346,-0.000153
 97,-0.00032814,-0.00010506,0.00055634,0.00032172,0.00086248,0.00287039
 ,-0.01378874,-0.01079382,-0.02487180,0.12380458,-0.00008173,0.00052397
 ,0.00414205,0.00015054,0.00001928,0.00001015,0.00796930,0.00335613,0.0
 0869160,0.00009760,0.00008039,-0.00031614,-0.04524784,-0.07522739,-0.0
 6991610,-0.00068456,0.00033289,0.00015833,-0.00003381,-0.00011206,-0.0
 0007294,0.00042852,0.00001034,-0.00078799,-0.00010874,0.00001486,-0.00
 009773,0.00018810,-0.00011021,0.00002943,0.00004793,0.00028387,0.00000
 623,-0.01677551,-0.00822667,-0.02597210,0.00426520,0.00215326,0.008399
 61,0.04972848,0.07688025,0.00021657,0.00315292,-0.00784259,-0.00068453
 ,0.00013775,-0.00004649,-0.01625241,-0.01199757,-0.01710213,-0.0008479
 9,-0.00056084,0.00082595,-0.10892649,-0.06871856,-0.21919418,0.0027765
 5,-0.00100153,0.00040992,0.00005808,-0.00028227,0.00016941,-0.00010217
 ,0.00072029,0.00086563,0.00005868,0.00008332,-0.00006627,0.00004449,0.
 00029521,0.00035704,0.00088284,0.00011331,0.00013962,0.00070311,0.0001
 6950,-0.00008552,0.00194396,0.00198909,0.00339538,0.12022823,0.0756719
 1,0.23819337,-0.01373385,0.03438031,0.00203430,0.00131330,0.00076885,0
 .00210864,0.00294729,0.00461396,0.00455100,-0.00023868,-0.00027663,-0.
 00014859,-0.00021824,-0.00053201,-0.00054791,-0.05667598,0.01435642,-0
 .00111676,0.00789981,-0.02281074,-0.00503056,-0.00002215,-0.00150670,-
 0.00021935,0.00013611,-0.00023885,-0.00001839,0.00001996,0.00004115,0.
 00002931,-0.00011754,-0.00008037,-0.00005459,-0.00003710,-0.00011614,0
 .00018766,0.00000619,0.00003077,-0.00001299,0.00001862,0.00004655,-0.0
 0019755,0.06165753,0.01080955,-0.01163232,-0.00085728,-0.00024012,0.00
 072198,0.00134882,-0.00201591,0.00106233,-0.00256950,0.00001874,0.0006
 3164,0.00038158,0.00035431,-0.00014163,0.00012934,0.01415577,-0.313986
 58,-0.05819993,0.00495114,-0.01352547,-0.00360591,0.00090196,0.0004420
 2,0.00103003,-0.00031145,0.00003285,-0.00006783,-0.00007744,-0.0000323
 9,0.00000198,0.00017103,-0.00002267,0.00002703,-0.00006584,0.00005800,
 -0.00009425,-0.00012342,-0.00019058,0.00027933,-0.00014228,0.00002516,
 0.00014837,-0.02710178,0.33644107,-0.00081177,0.00039574,0.00381017,0.
 00344356,0.00144357,-0.00454085,-0.00002704,0.00251556,0.00112012,-0.0
 0010767,0.00007752,0.00000155,-0.00001877,-0.00001102,0.00004400,-0.00
 295383,-0.05724981,-0.05173354,0.00204681,-0.00861978,0.00755273,0.000
 24430,-0.00017783,0.00038201,-0.00006385,-0.00010422,-0.00004501,0.000
 06819,0.00000139,-0.00004480,0.00001993,-0.00003332,-0.00001084,0.0000
 8193,-0.00005846,-0.00001496,0.00014447,0.00012258,-0.00020886,0.00006
 225,-0.00000727,0.00001429,0.00166782,0.06466496,0.03735471,0.00174856
 ,0.00015925,0.00216294,-0.01214595,0.03463389,0.00376620,-0.00021924,-
 0.00026517,-0.00023051,0.00000069,0.00005653,0.00000889,0.00008848,-0.
 00000984,0.00005048,0.00798575,-0.02306310,-0.00499316,-0.05862875,0.0
 1709766,-0.00166038,-0.00004528,0.00035049,0.00005515,-0.00006159,0.00
 002809,-0.00001614,-0.00000379,-0.00000756,0.00000669,0.00000979,0.000
 00943,0.00000264,0.00002400,0.00005170,-0.00004703,-0.00003472,0.00002
 878,0.00003107,-0.00004450,0.00001303,0.00002934,-0.00326291,-0.001400
 14,-0.00328649,0.06234285,0.00031585,0.00091495,0.00159214,0.00687362,
 -0.00691798,0.00024873,-0.00023900,-0.00001794,0.00000371,-0.00001631,
 0.00003751,-0.00004625,0.00005572,-0.00000766,0.00005254,0.00529425,-0
 .01388976,-0.00373718,0.01780787,-0.32570025,-0.05852156,0.00015424,0.
 00012939,0.00014000,-0.00003421,0.00001249,-0.00001356,-0.00000100,-0.
 00001146,-0.00000231,-0.00000825,0.00000681,0.00000562,-0.00005066,0.0
 0003893,-0.00003625,-0.00002641,-0.00005004,-0.00000167,-0.00000308,0.
 00002193,0.00002318,-0.00170779,-0.00005755,-0.00279146,-0.02889812,0.
 34480264,0.00289512,0.00217634,-0.00532603,-0.00181161,0.00394717,0.00
 433482,-0.00042304,0.00001146,-0.00004297,-0.00003539,0.00000253,-0.00
 006367,-0.00013459,-0.00006925,0.00009961,0.00245120,-0.00986002,0.007
 86402,-0.00280762,-0.05770128,-0.05115500,0.00016013,-0.00005563,0.000
 07623,-0.00001440,0.00000768,0.00000591,0.00001294,0.00000943,-0.00002
 446,-0.00002537,-0.00000859,0.00003455,-0.00010802,0.00005854,-0.00005
 341,0.00013494,-0.00015358,-0.00003852,0.00012005,0.00004685,-0.000041
 62,-0.00352541,-0.00291772,0.00681705,0.00241133,0.06361422,0.03656529
 ,0.00099144,-0.00141694,0.00024707,-0.16009061,-0.11129055,-0.16254688
 ,-0.00076225,-0.00039276,-0.00013480,-0.00003753,-0.00004271,-0.000038
 75,0.00007291,0.00006976,0.00016187,-0.00431564,0.00652411,-0.00044565
 ,-0.03104262,-0.02380630,-0.02702531,-0.00002539,0.00001890,0.00000512
 ,0.00000282,-0.00001080,-0.00001482,-0.00001187,-0.00000839,-0.0000192
 7,0.00001568,0.00001724,0.00002085,0.00001919,-0.00001564,-0.00002600,
 0.00002049,0.00000958,-0.00011368,0.00001997,-0.00000306,0.00006930,0.
 00030763,0.00011587,-0.00050986,0.00224661,0.00048329,0.00069974,0.192
 58916,0.00348383,-0.00021682,-0.00050969,-0.15104805,-0.18021346,-0.21
 026986,-0.00058884,-0.00035562,-0.00058752,0.00001200,0.00003703,0.000
 06648,0.00001602,0.00008908,0.00016635,0.00052144,-0.00063883,0.000413
 42,0.01638148,0.00836162,0.01624815,0.00003128,0.00002652,0.00004401,0
 .00000064,-0.00002129,-0.00000490,-0.00002821,-0.00000149,-0.00000369,
 0.00004280,-0.00001161,0.00002078,0.00003623,-0.00003606,-0.00000566,0
 .00003868,0.00000659,-0.00004528,0.00000423,-0.00002597,0.00005592,0.0
 0013302,0.00017414,-0.00016815,0.00121507,0.00068798,0.00089184,0.1297
 4839,0.17213818,-0.00077682,0.00018161,0.00221960,-0.19474121,-0.19087
 333,-0.23819480,0.00033126,-0.00014552,0.00011872,0.00003431,0.0000069
 6,0.00005527,0.00006426,0.00000258,-0.00005309,0.00145467,0.00069385,-
 0.00080937,0.00200556,-0.00336703,-0.00430561,-0.00002303,0.00002600,-
 0.00001717,-0.00000513,0.00000010,0.00000520,0.00002104,0.00000815,-0.
 00001342,0.00002476,-0.00000062,-0.00001223,-0.00003554,0.00001819,-0.
 00000902,-0.00002752,-0.00002390,-0.00001118,0.,0.00001410,0.00000819,
 0.00029336,0.00030097,-0.00049779,0.00170897,-0.00052990,0.00094821,0.
 18967107,0.19368778,0.24056848\\-0.00000018,-0.00000059,0.00000008,-0.
 00000020,-0.00000062,0.00000016,0.,0.00000004,-0.00000061,0.00000003,-
 0.00000029,-0.00000030,0.00000021,0.00000126,0.00000013,0.00000017,-0.
 00000066,-0.00000014,-0.00000028,-0.00000066,0.00000050,0.00000032,0.0
 0000021,-0.00000125,-0.00000019,-0.00000032,0.00000059,-0.00000007,-0.
 00000109,-0.00000066,0.00000021,0.00000030,-0.00000060,0.,0.00000121,0
 .00000100,0.00000023,0.00000154,0.00000005,0.00000040,0.00000188,-0.00
 000018,0.00000012,-0.00000033,-0.00000101,-0.00000045,-0.00000086,0.00
 000135,-0.00000033,-0.00000101,0.00000089\\\@


 I think that all right-thinking people in this
 country are sick and tired of being told that
 ordinary, decent people are fed up in this country
 with being sick and tired.  I'm certainly not!
 But I'm sick and tired of being told that I am!
                               -- Monty Python
 Job cpu time:       0 days  2 hours 34 minutes 51.7 seconds.
 Elapsed time:       0 days  1 hours 17 minutes 26.7 seconds.
 File lengths (MBytes):  RWF=   1392 Int=      0 D2E=      0 Chk=     32 Scr=     32
 Normal termination of Gaussian 16 at Sat Sep 28 11:37:27 2019.
