 Entering Gaussian System, Link 0=g16
 Input=verytight/species/CC(C)OC=CO/conformers/CC(C)OC=CO_31.com
 Output=verytight/species/CC(C)OC=CO/conformers/CC(C)OC=CO_31.log
 Initial command:
 /shared/centos7/gaussian/g16/l1.exe "/scratch/harms.n/gauss_scrdir/Gau-24755.inp" -scrdir="/scratch/harms.n/gauss_scrdir/"
 Entering Link 1 = /shared/centos7/gaussian/g16/l1.exe PID=     24756.
  
 Copyright (c) 1988,1990,1992,1993,1995,1998,2003,2009,2016,
            Gaussian, Inc.  All Rights Reserved.
  
 This is part of the Gaussian(R) 16 program.  It is based on
 the Gaussian(R) 09 system (copyright 2009, Gaussian, Inc.),
 the Gaussian(R) 03 system (copyright 2003, Gaussian, Inc.),
 the Gaussian(R) 98 system (copyright 1998, Gaussian, Inc.),
 the Gaussian(R) 94 system (copyright 1995, Gaussian, Inc.),
 the Gaussian 92(TM) system (copyright 1992, Gaussian, Inc.),
 the Gaussian 90(TM) system (copyright 1990, Gaussian, Inc.),
 the Gaussian 88(TM) system (copyright 1988, Gaussian, Inc.),
 the Gaussian 86(TM) system (copyright 1986, Carnegie Mellon
 University), and the Gaussian 82(TM) system (copyright 1983,
 Carnegie Mellon University). Gaussian is a federally registered
 trademark of Gaussian, Inc.
  
 This software contains proprietary and confidential information,
 including trade secrets, belonging to Gaussian, Inc.
  
 This software is provided under written license and may be
 used, copied, transmitted, or stored only in accord with that
 written license.
  
 The following legend is applicable only to US Government
 contracts under FAR:
  
                    RESTRICTED RIGHTS LEGEND
  
 Use, reproduction and disclosure by the US Government is
 subject to restrictions as set forth in subparagraphs (a)
 and (c) of the Commercial Computer Software - Restricted
 Rights clause in FAR 52.227-19.
  
 Gaussian, Inc.
 340 Quinnipiac St., Bldg. 40, Wallingford CT 06492
  
  
 ---------------------------------------------------------------
 Warning -- This program may not be used in any manner that
 competes with the business of Gaussian, Inc. or will provide
 assistance to any competitor of Gaussian, Inc.  The licensee
 of this program is prohibited from giving any competitor of
 Gaussian, Inc. access to this program.  By using this program,
 the user acknowledges that Gaussian, Inc. is engaged in the
 business of creating and licensing software in the field of
 computational chemistry and represents and warrants to the
 licensee that it is not a competitor of Gaussian, Inc. and that
 it will not use this program in any manner prohibited above.
 ---------------------------------------------------------------
  

 Cite this work as:
 Gaussian 16, Revision A.03,
 M. J. Frisch, G. W. Trucks, H. B. Schlegel, G. E. Scuseria, 
 M. A. Robb, J. R. Cheeseman, G. Scalmani, V. Barone, 
 G. A. Petersson, H. Nakatsuji, X. Li, M. Caricato, A. V. Marenich, 
 J. Bloino, B. G. Janesko, R. Gomperts, B. Mennucci, H. P. Hratchian, 
 J. V. Ortiz, A. F. Izmaylov, J. L. Sonnenberg, D. Williams-Young, 
 F. Ding, F. Lipparini, F. Egidi, J. Goings, B. Peng, A. Petrone, 
 T. Henderson, D. Ranasinghe, V. G. Zakrzewski, J. Gao, N. Rega, 
 G. Zheng, W. Liang, M. Hada, M. Ehara, K. Toyota, R. Fukuda, 
 J. Hasegawa, M. Ishida, T. Nakajima, Y. Honda, O. Kitao, H. Nakai, 
 T. Vreven, K. Throssell, J. A. Montgomery, Jr., J. E. Peralta, 
 F. Ogliaro, M. J. Bearpark, J. J. Heyd, E. N. Brothers, K. N. Kudin, 
 V. N. Staroverov, T. A. Keith, R. Kobayashi, J. Normand, 
 K. Raghavachari, A. P. Rendell, J. C. Burant, S. S. Iyengar, 
 J. Tomasi, M. Cossi, J. M. Millam, M. Klene, C. Adamo, R. Cammi, 
 J. W. Ochterski, R. L. Martin, K. Morokuma, O. Farkas, 
 J. B. Foresman, and D. J. Fox, Gaussian, Inc., Wallingford CT, 2016.
 
 ******************************************
 Gaussian 16:  EM64L-G16RevA.03 25-Dec-2016
                28-Sep-2019 
 ******************************************
 %nprocshared=20
 Will use up to   20 processors via shared memory.
 %mem=5GB
 ----------------------------------------------------------------------
 #p m062x/cc-pVTZ opt=(calcfc,maxcycles=900,Tight) freq IOP(7/33=1,2/16
 =3) scf=(maxcycle=900)
 ----------------------------------------------------------------------
 1/6=900,7=10,10=4,18=20,19=15,26=3,38=1/1,3;
 2/9=110,12=2,16=3,17=6,18=5,40=1/2;
 3/5=16,6=1,11=2,25=1,30=1,71=2,74=-55,140=1/1,2,3;
 4//1;
 5/5=2,7=900,38=5/2;
 8/6=4,10=90,11=11/1;
 11/6=1,8=1,9=11,15=111,16=1/1,2,10;
 10/6=1,13=1/2;
 6/7=2,8=2,9=2,10=2,28=1/1;
 7/10=1,18=20,25=1,33=1/1,2,3,16;
 1/6=900,7=10,10=4,18=20,19=15,26=3/3(2);
 2/9=110,16=3/2;
 99//99;
 2/9=110,16=3/2;
 3/5=16,6=1,11=2,25=1,30=1,71=1,74=-55/1,2,3;
 4/5=5,16=3,69=1/1;
 5/5=2,7=900,38=5/2;
 7/33=1/1,2,3,16;
 1/6=900,7=10,18=20,19=15,26=3/3(-5);
 2/9=110,16=3/2;
 6/7=2,8=2,9=2,10=2,19=2,28=1/1;
 99/9=1/99;
 Leave Link    1 at Sat Sep 28 08:13:24 2019, MaxMem=   671088640 cpu:               3.3 elap:               1.7
 (Enter /shared/centos7/gaussian/g16/l101.exe)
 ------------------------------
 Gaussian input prepared by ASE
 ------------------------------
 Symbolic Z-matrix:
 Charge =  0 Multiplicity = 1
 O                    -0.54188  -0.08453   0.58441 
 O                     1.3768    0.12967  -1.50448 
 C                    -1.21479  -0.30272   1.80648 
 C                    -2.61657  -0.83392   1.50671 
 C                    -1.24022   0.90932   2.67848 
 C                     0.73649   0.39189   0.76516 
 C                     1.61338   0.50397  -0.19012 
 H                    -0.66713  -1.11103   2.36599 
 H                    -3.14838  -1.0803    2.4494 
 H                    -3.21679  -0.0888    0.95352 
 H                    -2.55718  -1.76709   0.88357 
 H                    -1.84394   1.74524   2.21647 
 H                    -0.20912   1.28473   2.84571 
 H                    -1.69285   0.67291   3.68287 
 H                     0.97981   0.71877   1.78872 
 H                     2.59597   0.90812   0.00379 
 H                     2.2146    0.32532  -2.01595 
 
 ITRead=  0  0  0  0  0  0  0  0  0  0  0  0  0  0  0  0  0
 MicOpt= -1 -1 -1 -1 -1 -1 -1 -1 -1 -1 -1 -1 -1 -1 -1 -1 -1
 NAtoms=     17 NQM=       17 NQMF=       0 NMMI=      0 NMMIF=      0
                NMic=       0 NMicF=      0.
                    Isotopes and Nuclear Properties:
 (Nuclear quadrupole moments (NQMom) in fm**2, nuclear magnetic moments (NMagM)
  in nuclear magnetons)

  Atom         1           2           3           4           5           6           7           8           9          10
 IAtWgt=          16          16          12          12          12          12          12           1           1           1
 AtmWgt=  15.9949146  15.9949146  12.0000000  12.0000000  12.0000000  12.0000000  12.0000000   1.0078250   1.0078250   1.0078250
 NucSpn=           0           0           0           0           0           0           0           1           1           1
 AtZEff=  -0.0000000  -0.0000000  -0.0000000  -0.0000000  -0.0000000  -0.0000000  -0.0000000  -0.0000000  -0.0000000  -0.0000000
 NQMom=    0.0000000   0.0000000   0.0000000   0.0000000   0.0000000   0.0000000   0.0000000   0.0000000   0.0000000   0.0000000
 NMagM=    0.0000000   0.0000000   0.0000000   0.0000000   0.0000000   0.0000000   0.0000000   2.7928460   2.7928460   2.7928460
 AtZNuc=   8.0000000   8.0000000   6.0000000   6.0000000   6.0000000   6.0000000   6.0000000   1.0000000   1.0000000   1.0000000

  Atom        11          12          13          14          15          16          17
 IAtWgt=           1           1           1           1           1           1           1
 AtmWgt=   1.0078250   1.0078250   1.0078250   1.0078250   1.0078250   1.0078250   1.0078250
 NucSpn=           1           1           1           1           1           1           1
 AtZEff=  -0.0000000  -0.0000000  -0.0000000  -0.0000000  -0.0000000  -0.0000000  -0.0000000
 NQMom=    0.0000000   0.0000000   0.0000000   0.0000000   0.0000000   0.0000000   0.0000000
 NMagM=    2.7928460   2.7928460   2.7928460   2.7928460   2.7928460   2.7928460   2.7928460
 AtZNuc=   1.0000000   1.0000000   1.0000000   1.0000000   1.0000000   1.0000000   1.0000000
 Leave Link  101 at Sat Sep 28 08:13:28 2019, MaxMem=   671088640 cpu:               7.3 elap:               3.7
 (Enter /shared/centos7/gaussian/g16/l103.exe)

 GradGradGradGradGradGradGradGradGradGradGradGradGradGradGradGradGradGrad
 Berny optimization.
 Initialization pass.
                           ----------------------------
                           !    Initial Parameters    !
                           ! (Angstroms and Degrees)  !
 --------------------------                            --------------------------
 ! Name  Definition              Value          Derivative Info.                !
 --------------------------------------------------------------------------------
 ! R1    R(1,3)                  1.412          calculate D2E/DX2 analytically  !
 ! R2    R(1,6)                  1.3762         calculate D2E/DX2 analytically  !
 ! R3    R(2,7)                  1.3869         calculate D2E/DX2 analytically  !
 ! R4    R(2,17)                 1.0009         calculate D2E/DX2 analytically  !
 ! R5    R(3,4)                  1.5287         calculate D2E/DX2 analytically  !
 ! R6    R(3,5)                  1.4933         calculate D2E/DX2 analytically  !
 ! R7    R(3,8)                  1.1253         calculate D2E/DX2 analytically  !
 ! R8    R(4,9)                  1.1101         calculate D2E/DX2 analytically  !
 ! R9    R(4,10)                 1.1052         calculate D2E/DX2 analytically  !
 ! R10   R(4,11)                 1.1237         calculate D2E/DX2 analytically  !
 ! R11   R(5,12)                 1.1299         calculate D2E/DX2 analytically  !
 ! R12   R(5,13)                 1.11           calculate D2E/DX2 analytically  !
 ! R13   R(5,14)                 1.1267         calculate D2E/DX2 analytically  !
 ! R14   R(6,7)                  1.3016         calculate D2E/DX2 analytically  !
 ! R15   R(6,15)                 1.1017         calculate D2E/DX2 analytically  !
 ! R16   R(7,16)                 1.08           calculate D2E/DX2 analytically  !
 ! A1    A(3,1,6)              112.4885         calculate D2E/DX2 analytically  !
 ! A2    A(7,2,17)             106.7826         calculate D2E/DX2 analytically  !
 ! A3    A(1,3,4)              108.7204         calculate D2E/DX2 analytically  !
 ! A4    A(1,3,5)              112.8342         calculate D2E/DX2 analytically  !
 ! A5    A(1,3,8)              108.0216         calculate D2E/DX2 analytically  !
 ! A6    A(4,3,5)              112.3902         calculate D2E/DX2 analytically  !
 ! A7    A(4,3,8)              107.1074         calculate D2E/DX2 analytically  !
 ! A8    A(5,3,8)              107.5148         calculate D2E/DX2 analytically  !
 ! A9    A(3,4,9)              110.4811         calculate D2E/DX2 analytically  !
 ! A10   A(3,4,10)             111.2154         calculate D2E/DX2 analytically  !
 ! A11   A(3,4,11)             110.4172         calculate D2E/DX2 analytically  !
 ! A12   A(9,4,10)             108.3314         calculate D2E/DX2 analytically  !
 ! A13   A(9,4,11)             108.1765         calculate D2E/DX2 analytically  !
 ! A14   A(10,4,11)            108.1208         calculate D2E/DX2 analytically  !
 ! A15   A(3,5,12)             111.7645         calculate D2E/DX2 analytically  !
 ! A16   A(3,5,13)             110.2832         calculate D2E/DX2 analytically  !
 ! A17   A(3,5,14)             110.9198         calculate D2E/DX2 analytically  !
 ! A18   A(12,5,13)            107.9222         calculate D2E/DX2 analytically  !
 ! A19   A(12,5,14)            107.7623         calculate D2E/DX2 analytically  !
 ! A20   A(13,5,14)            108.0491         calculate D2E/DX2 analytically  !
 ! A21   A(1,6,7)              124.004          calculate D2E/DX2 analytically  !
 ! A22   A(1,6,15)             115.4612         calculate D2E/DX2 analytically  !
 ! A23   A(7,6,15)             120.501          calculate D2E/DX2 analytically  !
 ! A24   A(2,7,6)              123.8749         calculate D2E/DX2 analytically  !
 ! A25   A(2,7,16)             115.2347         calculate D2E/DX2 analytically  !
 ! A26   A(6,7,16)             120.8903         calculate D2E/DX2 analytically  !
 ! D1    D(6,1,3,4)           -179.7669         calculate D2E/DX2 analytically  !
 ! D2    D(6,1,3,5)             54.8474         calculate D2E/DX2 analytically  !
 ! D3    D(6,1,3,8)            -63.8626         calculate D2E/DX2 analytically  !
 ! D4    D(3,1,6,7)            170.5945         calculate D2E/DX2 analytically  !
 ! D5    D(3,1,6,15)           -11.5161         calculate D2E/DX2 analytically  !
 ! D6    D(17,2,7,6)           179.9588         calculate D2E/DX2 analytically  !
 ! D7    D(17,2,7,16)            0.0583         calculate D2E/DX2 analytically  !
 ! D8    D(1,3,4,9)            176.2138         calculate D2E/DX2 analytically  !
 ! D9    D(1,3,4,10)           -63.4459         calculate D2E/DX2 analytically  !
 ! D10   D(1,3,4,11)            56.5868         calculate D2E/DX2 analytically  !
 ! D11   D(5,3,4,9)            -58.1413         calculate D2E/DX2 analytically  !
 ! D12   D(5,3,4,10)            62.1989         calculate D2E/DX2 analytically  !
 ! D13   D(5,3,4,11)          -177.7684         calculate D2E/DX2 analytically  !
 ! D14   D(8,3,4,9)             59.7214         calculate D2E/DX2 analytically  !
 ! D15   D(8,3,4,10)          -179.9384         calculate D2E/DX2 analytically  !
 ! D16   D(8,3,4,11)           -59.9057         calculate D2E/DX2 analytically  !
 ! D17   D(1,3,5,12)            65.3148         calculate D2E/DX2 analytically  !
 ! D18   D(1,3,5,13)           -54.7384         calculate D2E/DX2 analytically  !
 ! D19   D(1,3,5,14)          -174.4014         calculate D2E/DX2 analytically  !
 ! D20   D(4,3,5,12)           -58.0592         calculate D2E/DX2 analytically  !
 ! D21   D(4,3,5,13)          -178.1124         calculate D2E/DX2 analytically  !
 ! D22   D(4,3,5,14)            62.2246         calculate D2E/DX2 analytically  !
 ! D23   D(8,3,5,12)          -175.6805         calculate D2E/DX2 analytically  !
 ! D24   D(8,3,5,13)            64.2663         calculate D2E/DX2 analytically  !
 ! D25   D(8,3,5,14)           -55.3967         calculate D2E/DX2 analytically  !
 ! D26   D(1,6,7,2)             -1.4476         calculate D2E/DX2 analytically  !
 ! D27   D(1,6,7,16)           178.4475         calculate D2E/DX2 analytically  !
 ! D28   D(15,6,7,2)          -179.2359         calculate D2E/DX2 analytically  !
 ! D29   D(15,6,7,16)            0.6592         calculate D2E/DX2 analytically  !
 --------------------------------------------------------------------------------
 Trust Radius=3.00D-01 FncErr=1.00D-07 GrdErr=1.00D-06 EigMax=2.50D+02 EigMin=1.00D-04
 Number of steps in this run=    102 maximum allowed number of steps=    102.
 GradGradGradGradGradGradGradGradGradGradGradGradGradGradGradGradGradGrad

 Leave Link  103 at Sat Sep 28 08:13:29 2019, MaxMem=   671088640 cpu:               2.0 elap:               1.0
 (Enter /shared/centos7/gaussian/g16/l202.exe)
                          Input orientation:                          
 ---------------------------------------------------------------------
 Center     Atomic      Atomic             Coordinates (Angstroms)
 Number     Number       Type             X           Y           Z
 ---------------------------------------------------------------------
      1          8           0       -0.541885   -0.084530    0.584406
      2          8           0        1.376802    0.129671   -1.504475
      3          6           0       -1.214790   -0.302720    1.806482
      4          6           0       -2.616566   -0.833918    1.506707
      5          6           0       -1.240219    0.909321    2.678479
      6          6           0        0.736494    0.391887    0.765156
      7          6           0        1.613380    0.503969   -0.190124
      8          1           0       -0.667128   -1.111031    2.365988
      9          1           0       -3.148382   -1.080300    2.449405
     10          1           0       -3.216794   -0.088800    0.953524
     11          1           0       -2.557181   -1.767085    0.883567
     12          1           0       -1.843937    1.745239    2.216471
     13          1           0       -0.209116    1.284734    2.845710
     14          1           0       -1.692855    0.672914    3.682866
     15          1           0        0.979807    0.718774    1.788719
     16          1           0        2.595972    0.908116    0.003787
     17          1           0        2.214598    0.325316   -2.015948
 ---------------------------------------------------------------------
                    Distance matrix (angstroms):
                    1          2          3          4          5
     1  O    0.000000
     2  O    2.844410   0.000000
     3  C    1.412047   4.226789   0.000000
     4  C    2.390925   5.093398   1.528729   0.000000
     5  C    2.420857   4.995374   1.493342   2.511228   0.000000
     6  C    1.376189   2.372758   2.318263   3.646300   2.799274
     7  C    2.364613   1.386935   3.554677   4.749907   4.066475
     8  H    2.059957   4.549448   1.125320   2.148363   2.123183
     9  H    3.356129   6.129803   2.180999   1.110050   2.766253
    10  H    2.700260   5.214462   2.186623   1.105209   2.806878
    11  H    2.642331   4.977615   2.190469   1.123668   3.481272
    12  H    2.776154   5.179639   2.181297   2.784381   1.129905
    13  H    2.664416   4.772151   2.147414   3.475260   1.109989
    14  H    3.391004   6.051976   2.168231   2.803472   1.126748
    15  H    2.100288   3.368943   2.420748   3.927376   2.399270
    16  H    3.341946   2.089786   4.386084   5.697718   4.676573
    17  H    3.811563   1.000891   5.173596   6.090407   5.857855
                    6          7          8          9         10
     6  C    0.000000
     7  C    1.301558   0.000000
     8  H    2.606066   3.787169   0.000000
     9  H    4.482888   5.670220   2.482846   0.000000
    10  H    3.986857   4.998988   3.088819   1.795943   0.000000
    11  H    3.939985   4.868684   2.490036   1.809154   1.804612
    12  H    3.255226   4.391525   3.092817   3.120819   2.616003
    13  H    2.453581   3.625931   2.485880   3.793380   3.809605
    14  H    3.807065   5.095074   2.443101   2.591090   3.217438
    15  H    1.101697   2.088869   2.528600   4.551386   4.354444
    16  H    2.074568   1.080011   4.506081   6.552285   5.973616
    17  H    3.150201   1.930548   5.437720   7.118755   6.203972
                   11         12         13         14         15
    11  H    0.000000
    12  H    3.823843   0.000000
    13  H    4.321692   1.811255   0.000000
    14  H    3.812707   1.822916   1.810148   0.000000
    15  H    4.416909   3.034820   1.688514   3.276128   0.000000
    16  H    5.872453   5.030858   4.010846   5.655526   2.415330
    17  H    5.962818   6.033345   5.516393   6.918489   4.019329
                   16         17
    16  H    0.000000
    17  H    2.136453   0.000000
 Stoichiometry    C5H10O2
 Framework group  C1[X(C5H10O2)]
 Deg. of freedom    45
 Full point group                 C1      NOp   1
 Largest Abelian subgroup         C1      NOp   1
 Largest concise Abelian subgroup C1      NOp   1
                         Standard orientation:                         
 ---------------------------------------------------------------------
 Center     Atomic      Atomic             Coordinates (Angstroms)
 Number     Number       Type             X           Y           Z
 ---------------------------------------------------------------------
      1          8           0        0.034190   -0.392852    0.056243
      2          8           0       -2.784326   -0.739133    0.219726
      3          6           0        1.349158   -0.035071   -0.313524
      4          6           0        2.283531   -1.201882    0.006654
      5          6           0        1.799931    1.243185    0.313319
      6          6           0       -0.876123    0.605723   -0.204665
      7          6           0       -2.166096    0.455469   -0.118366
      8          1           0        1.369998    0.109127   -1.429373
      9          1           0        3.315619   -0.978107   -0.335297
     10          1           0        2.313353   -1.403951    1.092824
     11          1           0        1.936784   -2.135783   -0.513178
     12          1           0        1.881201    1.153092    1.436691
     13          1           0        1.080267    2.057430    0.087127
     14          1           0        2.809805    1.550360   -0.080839
     15          1           0       -0.443431    1.584625   -0.465939
     16          1           0       -2.834646    1.281558   -0.310827
     17          1           0       -3.770264   -0.567015    0.210547
 ---------------------------------------------------------------------
 Rotational constants (GHZ):           6.0220092           1.3309120           1.1388545
 Leave Link  202 at Sat Sep 28 08:13:31 2019, MaxMem=   671088640 cpu:               4.0 elap:               2.1
 (Enter /shared/centos7/gaussian/g16/l301.exe)
 Standard basis: CC-pVTZ (5D, 7F)
 Ernie: Thresh=  0.10000D-02 Tol=  0.10000D-05 Strict=F.
 Ernie:  21 primitive shells out of 262 were deleted.
 There are   395 symmetry adapted cartesian basis functions of A   symmetry.
 There are   350 symmetry adapted basis functions of A   symmetry.
   350 basis functions,   534 primitive gaussians,   395 cartesian basis functions
    28 alpha electrons       28 beta electrons
       nuclear repulsion energy       311.1146468471 Hartrees.
 IExCor= 4336 DFT=T Ex+Corr=M062X ExCW=0 ScaHFX=  0.540000
 ScaDFX=  1.000000  1.000000  1.000000  1.000000 ScalE2=  1.000000  1.000000
 IRadAn=      5 IRanWt=     -1 IRanGd=            0 ICorTp=0 IEmpDi=  4
 NAtoms=   17 NActive=   17 NUniq=   17 SFac= 1.00D+00 NAtFMM=   60 NAOKFM=F Big=F
 Integral buffers will be    131072 words long.
 Raffenetti 2 integral format.
 Two-electron integral symmetry is turned on.
 Leave Link  301 at Sat Sep 28 08:13:33 2019, MaxMem=   671088640 cpu:               3.8 elap:               1.9
 (Enter /shared/centos7/gaussian/g16/l302.exe)
 NPDir=0 NMtPBC=     1 NCelOv=     1 NCel=       1 NClECP=     1 NCelD=      1
         NCelK=      1 NCelE2=     1 NClLst=     1 CellRange=     0.0.
 One-electron integrals computed using PRISM.
 One-electron integral symmetry used in STVInt
 NBasis=   350 RedAO= T EigKep=  1.97D-04  NBF=   350
 NBsUse=   350 1.00D-06 EigRej= -1.00D+00 NBFU=   350
 Precomputing XC quadrature grid using
 IXCGrd= 4 IRadAn=           5 IRanWt=          -1 IRanGd=           0 AccXCQ= 0.00D+00.
 Generated NRdTot=       0 NPtTot=           0 NUsed=           0 NTot=          32
 NSgBfM=   395   395   395   395   395 MxSgAt=    17 MxSgA2=    17.
 Leave Link  302 at Sat Sep 28 08:14:54 2019, MaxMem=   671088640 cpu:             161.8 elap:              81.4
 (Enter /shared/centos7/gaussian/g16/l303.exe)
 DipDrv:  MaxL=1.
 Leave Link  303 at Sat Sep 28 08:14:58 2019, MaxMem=   671088640 cpu:               7.4 elap:               3.7
 (Enter /shared/centos7/gaussian/g16/l401.exe)
 ExpMin= 1.03D-01 ExpMax= 1.53D+04 ExpMxC= 5.22D+02 IAcc=3 IRadAn=         5 AccDes= 0.00D+00
 Harris functional with IExCor= 1009 and IRadAn=       5 diagonalized for initial guess.
 HarFok:  IExCor= 1009 AccDes= 0.00D+00 IRadAn=         5 IDoV= 1 UseB2=F ITyADJ=14
 ICtDFT=  3500011 ScaDFX=  1.000000  1.000000  1.000000  1.000000
 FoFCou: FMM=F IPFlag=           0 FMFlag=      100000 FMFlg1=           0
         NFxFlg=           0 DoJE=T BraDBF=F KetDBF=T FulRan=T
         wScrn=  0.000000 ICntrl=       500 IOpCl=  0 I1Cent=   200000004 NGrid=           0
         NMat0=    1 NMatS0=      1 NMatT0=    0 NMatD0=    1 NMtDS0=    0 NMtDT0=    0
 Petite list used in FoFCou.
 Harris En= -346.811713588713    
 JPrj=0 DoOrth=F DoCkMO=F.
 Leave Link  401 at Sat Sep 28 08:15:36 2019, MaxMem=   671088640 cpu:              76.0 elap:              38.1
 (Enter /shared/centos7/gaussian/g16/l502.exe)
 Integral symmetry usage will be decided dynamically.
 Closed shell SCF:
 Using DIIS extrapolation, IDIIS=  1040.
 NGot=   671088640 LenX=   670765141 LenY=   670608675
 Requested convergence on RMS density matrix=1.00D-08 within 900 cycles.
 Requested convergence on MAX density matrix=1.00D-06.
 Requested convergence on             energy=1.00D-06.
 No special actions if energy rises.
 Fock matrices will be formed incrementally for  20 cycles.
 Integral accuracy reduced to 1.0D-05 until final iterations.

 Cycle   1  Pass 0  IDiag  1:
 FoFJK:  IHMeth= 1 ICntrl=       0 DoSepK=F KAlg= 0 I1Cent=           0 FoldK=F
 IRaf= 930000000 NMat=       1 IRICut=       1 DoRegI=T DoRafI=F ISym2E= 0 IDoP0=0 IntGTp=1.
 FoFCou: FMM=F IPFlag=           0 FMFlag=      100000 FMFlg1=           0
         NFxFlg=           0 DoJE=F BraDBF=F KetDBF=F FulRan=T
         wScrn=  0.000000 ICntrl=         0 IOpCl=  0 I1Cent=           0 NGrid=           0
         NMat0=    1 NMatS0=      1 NMatT0=    0 NMatD0=    1 NMtDS0=    0 NMtDT0=    0
 Symmetry not used in FoFCou.
 E= -346.694954072841    
 DIIS: error= 2.13D-02 at cycle   1 NSaved=   1.
 NSaved= 1 IEnMin= 1 EnMin= -346.694954072841     IErMin= 1 ErrMin= 2.13D-02
 ErrMax= 2.13D-02  0.00D+00 EMaxC= 1.00D-01 BMatC= 2.88D-01 BMatP= 2.88D-01
 IDIUse=3 WtCom= 7.87D-01 WtEn= 2.13D-01
 Coeff-Com:  0.100D+01
 Coeff-En:   0.100D+01
 Coeff:      0.100D+01
 Gap=     0.346 Goal=   None    Shift=    0.000
 GapD=    0.346 DampG=1.000 DampE=0.500 DampFc=0.5000 IDamp=-1.
 Damping current iteration by 5.00D-01
 RMSDP=2.44D-03 MaxDP=1.58D-01              OVMax= 1.41D-01

 Cycle   2  Pass 0  IDiag  1:
 RMSU=  1.22D-03    CP:  1.00D+00
 E= -346.814749071168     Delta-E=       -0.119794998327 Rises=F Damp=T
 DIIS: error= 3.36D-03 at cycle   2 NSaved=   2.
 NSaved= 2 IEnMin= 2 EnMin= -346.814749071168     IErMin= 2 ErrMin= 3.36D-03
 ErrMax= 3.36D-03  0.00D+00 EMaxC= 1.00D-01 BMatC= 2.11D-02 BMatP= 2.88D-01
 IDIUse=3 WtCom= 9.66D-01 WtEn= 3.36D-02
 Coeff-Com: -0.121D+00 0.112D+01
 Coeff-En:   0.000D+00 0.100D+01
 Coeff:     -0.117D+00 0.112D+01
 Gap=     0.318 Goal=   None    Shift=    0.000
 RMSDP=4.77D-04 MaxDP=2.47D-02 DE=-1.20D-01 OVMax= 7.02D-02

 Cycle   3  Pass 0  IDiag  1:
 RMSU=  4.51D-04    CP:  1.00D+00  8.73D-01
 E= -346.923532390294     Delta-E=       -0.108783319126 Rises=F Damp=F
 DIIS: error= 2.52D-03 at cycle   3 NSaved=   3.
 NSaved= 3 IEnMin= 3 EnMin= -346.923532390294     IErMin= 3 ErrMin= 2.52D-03
 ErrMax= 2.52D-03  0.00D+00 EMaxC= 1.00D-01 BMatC= 4.25D-03 BMatP= 2.11D-02
 IDIUse=3 WtCom= 9.75D-01 WtEn= 2.52D-02
 Coeff-Com: -0.837D-01 0.328D+00 0.756D+00
 Coeff-En:   0.000D+00 0.000D+00 0.100D+01
 Coeff:     -0.816D-01 0.320D+00 0.762D+00
 Gap=     0.318 Goal=   None    Shift=    0.000
 RMSDP=2.17D-04 MaxDP=1.51D-02 DE=-1.09D-01 OVMax= 1.28D-02

 Cycle   4  Pass 0  IDiag  1:
 RMSU=  1.37D-04    CP:  1.00D+00  9.99D-01  8.53D-01
 E= -346.925696942838     Delta-E=       -0.002164552545 Rises=F Damp=F
 DIIS: error= 1.53D-03 at cycle   4 NSaved=   4.
 NSaved= 4 IEnMin= 4 EnMin= -346.925696942838     IErMin= 4 ErrMin= 1.53D-03
 ErrMax= 1.53D-03  0.00D+00 EMaxC= 1.00D-01 BMatC= 1.26D-03 BMatP= 4.25D-03
 IDIUse=3 WtCom= 9.85D-01 WtEn= 1.53D-02
 Coeff-Com: -0.291D-01 0.764D-01 0.393D+00 0.560D+00
 Coeff-En:   0.000D+00 0.000D+00 0.194D+00 0.806D+00
 Coeff:     -0.287D-01 0.753D-01 0.390D+00 0.563D+00
 Gap=     0.314 Goal=   None    Shift=    0.000
 RMSDP=8.07D-05 MaxDP=5.62D-03 DE=-2.16D-03 OVMax= 5.78D-03

 Cycle   5  Pass 0  IDiag  1:
 RMSU=  2.96D-05    CP:  1.00D+00  9.66D-01  9.17D-01  5.94D-01
 E= -346.926591427801     Delta-E=       -0.000894484963 Rises=F Damp=F
 DIIS: error= 2.31D-04 at cycle   5 NSaved=   5.
 NSaved= 5 IEnMin= 5 EnMin= -346.926591427801     IErMin= 5 ErrMin= 2.31D-04
 ErrMax= 2.31D-04  0.00D+00 EMaxC= 1.00D-01 BMatC= 2.33D-05 BMatP= 1.26D-03
 IDIUse=3 WtCom= 9.98D-01 WtEn= 2.31D-03
 Coeff-Com: -0.445D-02 0.787D-02 0.896D-01 0.190D+00 0.717D+00
 Coeff-En:   0.000D+00 0.000D+00 0.000D+00 0.000D+00 0.100D+01
 Coeff:     -0.444D-02 0.785D-02 0.894D-01 0.189D+00 0.718D+00
 Gap=     0.314 Goal=   None    Shift=    0.000
 RMSDP=9.29D-06 MaxDP=2.40D-04 DE=-8.94D-04 OVMax= 8.16D-04

 Initial convergence to 1.0D-05 achieved.  Increase integral accuracy.
 Cycle   6  Pass 1  IDiag  1:
 E= -346.926612538662     Delta-E=       -0.000021110861 Rises=F Damp=F
 DIIS: error= 4.11D-05 at cycle   1 NSaved=   1.
 NSaved= 1 IEnMin= 1 EnMin= -346.926612538662     IErMin= 1 ErrMin= 4.11D-05
 ErrMax= 4.11D-05  0.00D+00 EMaxC= 1.00D-01 BMatC= 1.98D-06 BMatP= 1.98D-06
 IDIUse=1 WtCom= 1.00D+00 WtEn= 0.00D+00
 Coeff-Com:  0.100D+01
 Coeff:      0.100D+01
 Gap=     0.315 Goal=   None    Shift=    0.000
 RMSDP=9.29D-06 MaxDP=2.40D-04 DE=-2.11D-05 OVMax= 3.63D-04

 Cycle   7  Pass 1  IDiag  1:
 RMSU=  9.07D-06    CP:  1.00D+00
 E= -346.926612904037     Delta-E=       -0.000000365375 Rises=F Damp=F
 DIIS: error= 4.22D-05 at cycle   2 NSaved=   2.
 NSaved= 2 IEnMin= 2 EnMin= -346.926612904037     IErMin= 1 ErrMin= 4.11D-05
 ErrMax= 4.22D-05  0.00D+00 EMaxC= 1.00D-01 BMatC= 1.61D-06 BMatP= 1.98D-06
 IDIUse=1 WtCom= 1.00D+00 WtEn= 0.00D+00
 Coeff-Com:  0.471D+00 0.529D+00
 Coeff:      0.471D+00 0.529D+00
 Gap=     0.314 Goal=   None    Shift=    0.000
 RMSDP=2.19D-06 MaxDP=9.19D-05 DE=-3.65D-07 OVMax= 1.81D-04

 Cycle   8  Pass 1  IDiag  1:
 RMSU=  2.09D-06    CP:  1.00D+00  9.30D-01
 E= -346.926614106274     Delta-E=       -0.000001202237 Rises=F Damp=F
 DIIS: error= 6.98D-06 at cycle   3 NSaved=   3.
 NSaved= 3 IEnMin= 3 EnMin= -346.926614106274     IErMin= 3 ErrMin= 6.98D-06
 ErrMax= 6.98D-06  0.00D+00 EMaxC= 1.00D-01 BMatC= 4.09D-08 BMatP= 1.61D-06
 IDIUse=1 WtCom= 1.00D+00 WtEn= 0.00D+00
 Coeff-Com:  0.388D-03 0.122D+00 0.878D+00
 Coeff:      0.388D-03 0.122D+00 0.878D+00
 Gap=     0.314 Goal=   None    Shift=    0.000
 RMSDP=5.84D-07 MaxDP=2.37D-05 DE=-1.20D-06 OVMax= 5.21D-05

 Cycle   9  Pass 1  IDiag  1:
 RMSU=  4.93D-07    CP:  1.00D+00  9.63D-01  9.65D-01
 E= -346.926614136389     Delta-E=       -0.000000030116 Rises=F Damp=F
 DIIS: error= 3.00D-06 at cycle   4 NSaved=   4.
 NSaved= 4 IEnMin= 4 EnMin= -346.926614136389     IErMin= 4 ErrMin= 3.00D-06
 ErrMax= 3.00D-06  0.00D+00 EMaxC= 1.00D-01 BMatC= 8.16D-09 BMatP= 4.09D-08
 IDIUse=1 WtCom= 1.00D+00 WtEn= 0.00D+00
 Coeff-Com: -0.233D-01 0.306D-01 0.424D+00 0.569D+00
 Coeff:     -0.233D-01 0.306D-01 0.424D+00 0.569D+00
 Gap=     0.314 Goal=   None    Shift=    0.000
 RMSDP=1.91D-07 MaxDP=6.06D-06 DE=-3.01D-08 OVMax= 2.26D-05

 Cycle  10  Pass 1  IDiag  1:
 RMSU=  1.77D-07    CP:  1.00D+00  9.68D-01  9.78D-01  8.98D-01
 E= -346.926614142799     Delta-E=       -0.000000006410 Rises=F Damp=F
 DIIS: error= 9.29D-07 at cycle   5 NSaved=   5.
 NSaved= 5 IEnMin= 5 EnMin= -346.926614142799     IErMin= 5 ErrMin= 9.29D-07
 ErrMax= 9.29D-07  0.00D+00 EMaxC= 1.00D-01 BMatC= 3.72D-10 BMatP= 8.16D-09
 IDIUse=1 WtCom= 1.00D+00 WtEn= 0.00D+00
 Coeff-Com: -0.681D-02-0.602D-02 0.197D-01 0.153D+00 0.840D+00
 Coeff:     -0.681D-02-0.602D-02 0.197D-01 0.153D+00 0.840D+00
 Gap=     0.314 Goal=   None    Shift=    0.000
 RMSDP=8.16D-08 MaxDP=2.45D-06 DE=-6.41D-09 OVMax= 1.08D-05

 Cycle  11  Pass 1  IDiag  1:
 RMSU=  5.80D-08    CP:  1.00D+00  9.70D-01  9.84D-01  1.00D+00  1.07D+00
 E= -346.926614143225     Delta-E=       -0.000000000426 Rises=F Damp=F
 DIIS: error= 3.49D-07 at cycle   6 NSaved=   6.
 NSaved= 6 IEnMin= 6 EnMin= -346.926614143225     IErMin= 6 ErrMin= 3.49D-07
 ErrMax= 3.49D-07  0.00D+00 EMaxC= 1.00D-01 BMatC= 9.12D-11 BMatP= 3.72D-10
 IDIUse=1 WtCom= 1.00D+00 WtEn= 0.00D+00
 Coeff-Com:  0.362D-03-0.705D-02-0.512D-01-0.179D-01 0.365D+00 0.711D+00
 Coeff:      0.362D-03-0.705D-02-0.512D-01-0.179D-01 0.365D+00 0.711D+00
 Gap=     0.314 Goal=   None    Shift=    0.000
 RMSDP=2.89D-08 MaxDP=1.24D-06 DE=-4.26D-10 OVMax= 4.05D-06

 Cycle  12  Pass 1  IDiag  1:
 RMSU=  1.55D-08    CP:  1.00D+00  9.70D-01  9.87D-01  1.03D+00  1.16D+00
                    CP:  7.96D-01
 E= -346.926614143322     Delta-E=       -0.000000000097 Rises=F Damp=F
 DIIS: error= 1.05D-07 at cycle   7 NSaved=   7.
 NSaved= 7 IEnMin= 7 EnMin= -346.926614143322     IErMin= 7 ErrMin= 1.05D-07
 ErrMax= 1.05D-07  0.00D+00 EMaxC= 1.00D-01 BMatC= 5.88D-12 BMatP= 9.12D-11
 IDIUse=1 WtCom= 1.00D+00 WtEn= 0.00D+00
 Coeff-Com:  0.581D-03-0.280D-02-0.242D-01-0.164D-01 0.114D+00 0.309D+00
 Coeff-Com:  0.620D+00
 Coeff:      0.581D-03-0.280D-02-0.242D-01-0.164D-01 0.114D+00 0.309D+00
 Coeff:      0.620D+00
 Gap=     0.314 Goal=   None    Shift=    0.000
 RMSDP=5.75D-09 MaxDP=2.64D-07 DE=-9.72D-11 OVMax= 1.08D-06

 SCF Done:  E(RM062X) =  -346.926614143     A.U. after   12 cycles
            NFock= 12  Conv=0.57D-08     -V/T= 2.0064
 KE= 3.447309748859D+02 PE=-1.432389771950D+03 EE= 4.296175360731D+02
 Leave Link  502 at Sat Sep 28 08:27:26 2019, MaxMem=   671088640 cpu:            1415.3 elap:             710.2
 (Enter /shared/centos7/gaussian/g16/l801.exe)
 DoSCS=F DFT=T ScalE2(SS,OS)=  1.000000  1.000000
 Range of M.O.s used for correlation:     1   350
 NBasis=   350 NAE=    28 NBE=    28 NFC=     0 NFV=     0
 NROrb=    350 NOA=    28 NOB=    28 NVA=   322 NVB=   322

 **** Warning!!: The largest alpha MO coefficient is  0.12662692D+02

 Leave Link  801 at Sat Sep 28 08:27:27 2019, MaxMem=   671088640 cpu:               1.5 elap:               0.8
 (Enter /shared/centos7/gaussian/g16/l1101.exe)
 Using compressed storage, NAtomX=    17.
 Will process     18 centers per pass.
 Leave Link 1101 at Sat Sep 28 08:28:04 2019, MaxMem=   671088640 cpu:              73.1 elap:              36.6
 (Enter /shared/centos7/gaussian/g16/l1102.exe)
 Symmetrizing basis deriv contribution to polar:
 IMax=3 JMax=2 DiffMx= 0.00D+00
 Leave Link 1102 at Sat Sep 28 08:28:06 2019, MaxMem=   671088640 cpu:               5.3 elap:               2.7
 (Enter /shared/centos7/gaussian/g16/l1110.exe)
 Forming Gx(P) for the SCF density, NAtomX=    17.
 Integral derivatives from FoFJK, PRISM(SPDF).
 Do as many integral derivatives as possible in FoFJK.
 G2DrvN: MDV=     671087280.
 G2DrvN: will do    18 centers at a time, making    1 passes.
 Calling FoFCou, ICntrl=  3107 FMM=F I1Cent=   0 AccDes= 0.00D+00.
 FoFJK:  IHMeth= 1 ICntrl=    3107 DoSepK=F KAlg= 0 I1Cent=           0 FoldK=F
 IRaf=         0 NMat=       1 IRICut=       1 DoRegI=T DoRafI=F ISym2E= 0 IDoP0=0 IntGTp=1.
 FoFCou: FMM=F IPFlag=           0 FMFlag=      100000 FMFlg1=           0
         NFxFlg=           0 DoJE=F BraDBF=F KetDBF=F FulRan=T
         wScrn=  0.000000 ICntrl=      3107 IOpCl=  0 I1Cent=           0 NGrid=           0
         NMat0=    1 NMatS0=      1 NMatT0=    0 NMatD0=    1 NMtDS0=    0 NMtDT0=    0
 Symmetry not used in FoFCou.
 End of G2Drv F.D. properties file   721 does not exist.
 End of G2Drv F.D. properties file   722 does not exist.
 End of G2Drv F.D. properties file   788 does not exist.
 Leave Link 1110 at Sat Sep 28 08:47:36 2019, MaxMem=   671088640 cpu:            2329.5 elap:            1169.7
 (Enter /shared/centos7/gaussian/g16/l1002.exe)
 Minotr:  Closed shell wavefunction.
          IDoAtm=11111111111111111
          Direct CPHF calculation.
          Differentiating once with respect to nuclear coordinates.
          Requested convergence is 1.0D-08 RMS, and 1.0D-07 maximum.
          Secondary convergence is 1.0D-12 RMS, and 1.0D-12 maximum.
          NewPWx=T KeepS1=F KeepF1=F KeepIn=T MapXYZ=F SortEE=F KeepMc=T.
         5137 words used for storage of precomputed grid.
 Two-electron integrals replicated using symmetry.
          MDV=     671088640 using IRadAn=       1.
          Solving linear equations simultaneously, MaxMat=     380.
 FoF2E skips out because all densities are zero.
 CalDSu exits because no D1Ps are significant.
 FoFJK:  IHMeth= 1 ICntrl=       0 DoSepK=F KAlg= 0 I1Cent=           0 FoldK=F
 IRaf= 910000000 NMat=      51 IRICut=     127 DoRegI=T DoRafI=T ISym2E= 2 IDoP0=3 IntGTp=3.
 FoFCou: FMM=F IPFlag=           0 FMFlag=      100000 FMFlg1=           0
         NFxFlg=           0 DoJE=F BraDBF=F KetDBF=F FulRan=T
         wScrn=  0.000000 ICntrl=         0 IOpCl=  0 I1Cent=           0 NGrid=           0
         NMat0=   51 NMatS0=     51 NMatT0=    0 NMatD0=   51 NMtDS0=    0 NMtDT0=    0
 Integrals replicated using symmetry in FoFCou.
 Raff kept on since  87.93% of shell-pairs survive, threshold=   0.20 IRatSp=88.
          There are    54 degrees of freedom in the 1st order CPHF.  IDoFFX=6 NUNeed=     0.
     48 vectors produced by pass  0 Test12= 1.67D-14 1.85D-09 XBig12= 6.82D-02 7.10D-02.
 AX will form    48 AO Fock derivatives at one time.
     48 vectors produced by pass  1 Test12= 1.67D-14 1.85D-09 XBig12= 8.91D-03 2.41D-02.
     48 vectors produced by pass  2 Test12= 1.67D-14 1.85D-09 XBig12= 1.99D-04 2.06D-03.
     48 vectors produced by pass  3 Test12= 1.67D-14 1.85D-09 XBig12= 2.41D-06 1.91D-04.
     48 vectors produced by pass  4 Test12= 1.67D-14 1.85D-09 XBig12= 1.94D-08 1.70D-05.
     48 vectors produced by pass  5 Test12= 1.67D-14 1.85D-09 XBig12= 1.00D-10 9.19D-07.
     25 vectors produced by pass  6 Test12= 1.67D-14 1.85D-09 XBig12= 4.60D-13 5.60D-08.
      5 vectors produced by pass  7 Test12= 1.67D-14 1.85D-09 XBig12= 1.73D-15 4.02D-09.
 InvSVY:  IOpt=1 It=  1 EMax= 2.78D-16
 Solved reduced A of dimension   318 with    54 vectors.
 End of Minotr F.D. properties file   721 does not exist.
 End of Minotr F.D. properties file   722 does not exist.
 End of Minotr F.D. properties file   788 does not exist.
 Leave Link 1002 at Sat Sep 28 09:23:25 2019, MaxMem=   671088640 cpu:            4285.6 elap:            2148.7
 (Enter /shared/centos7/gaussian/g16/l601.exe)
 Copying SCF densities to generalized density rwf, IOpCl= 0 IROHF=0.

 **********************************************************************

            Population analysis using the SCF density.

 **********************************************************************

 Orbital symmetries:
       Occupied  (A) (A) (A) (A) (A) (A) (A) (A) (A) (A) (A) (A)
                 (A) (A) (A) (A) (A) (A) (A) (A) (A) (A) (A) (A)
                 (A) (A) (A) (A)
       Virtual   (A) (A) (A) (A) (A) (A) (A) (A) (A) (A) (A) (A)
                 (A) (A) (A) (A) (A) (A) (A) (A) (A) (A) (A) (A)
                 (A) (A) (A) (A) (A) (A) (A) (A) (A) (A) (A) (A)
                 (A) (A) (A) (A) (A) (A) (A) (A) (A) (A) (A) (A)
                 (A) (A) (A) (A) (A) (A) (A) (A) (A) (A) (A) (A)
                 (A) (A) (A) (A) (A) (A) (A) (A) (A) (A) (A) (A)
                 (A) (A) (A) (A) (A) (A) (A) (A) (A) (A) (A) (A)
                 (A) (A) (A) (A) (A) (A) (A) (A) (A) (A) (A) (A)
                 (A) (A) (A) (A) (A) (A) (A) (A) (A) (A) (A) (A)
                 (A) (A) (A) (A) (A) (A) (A) (A) (A) (A) (A) (A)
                 (A) (A) (A) (A) (A) (A) (A) (A) (A) (A) (A) (A)
                 (A) (A) (A) (A) (A) (A) (A) (A) (A) (A) (A) (A)
                 (A) (A) (A) (A) (A) (A) (A) (A) (A) (A) (A) (A)
                 (A) (A) (A) (A) (A) (A) (A) (A) (A) (A) (A) (A)
                 (A) (A) (A) (A) (A) (A) (A) (A) (A) (A) (A) (A)
                 (A) (A) (A) (A) (A) (A) (A) (A) (A) (A) (A) (A)
                 (A) (A) (A) (A) (A) (A) (A) (A) (A) (A) (A) (A)
                 (A) (A) (A) (A) (A) (A) (A) (A) (A) (A) (A) (A)
                 (A) (A) (A) (A) (A) (A) (A) (A) (A) (A) (A) (A)
                 (A) (A) (A) (A) (A) (A) (A) (A) (A) (A) (A) (A)
                 (A) (A) (A) (A) (A) (A) (A) (A) (A) (A) (A) (A)
                 (A) (A) (A) (A) (A) (A) (A) (A) (A) (A) (A) (A)
                 (A) (A) (A) (A) (A) (A) (A) (A) (A) (A) (A) (A)
                 (A) (A) (A) (A) (A) (A) (A) (A) (A) (A) (A) (A)
                 (A) (A) (A) (A) (A) (A) (A) (A) (A) (A) (A) (A)
                 (A) (A) (A) (A) (A) (A) (A) (A) (A) (A) (A) (A)
                 (A) (A) (A) (A) (A) (A) (A) (A) (A) (A)
 The electronic state is 1-A.
 Alpha  occ. eigenvalues --  -19.64260 -19.63894 -10.59467 -10.57747 -10.57277
 Alpha  occ. eigenvalues --  -10.53628 -10.53184  -1.17988  -1.15267  -0.89241
 Alpha  occ. eigenvalues --   -0.83786  -0.78181  -0.68449  -0.64905  -0.61228
 Alpha  occ. eigenvalues --   -0.56133  -0.55598  -0.53568  -0.47681  -0.45981
 Alpha  occ. eigenvalues --   -0.45543  -0.44720  -0.44384  -0.42775  -0.42430
 Alpha  occ. eigenvalues --   -0.37979  -0.37267  -0.26367
 Alpha virt. eigenvalues --    0.05077   0.07233   0.08428   0.09834   0.11318
 Alpha virt. eigenvalues --    0.11934   0.12964   0.14554   0.15922   0.17223
 Alpha virt. eigenvalues --    0.18004   0.19918   0.22170   0.24229   0.25946
 Alpha virt. eigenvalues --    0.27132   0.28765   0.30117   0.32364   0.33954
 Alpha virt. eigenvalues --    0.34339   0.36815   0.37859   0.38543   0.40169
 Alpha virt. eigenvalues --    0.40988   0.42486   0.43674   0.45185   0.46379
 Alpha virt. eigenvalues --    0.47452   0.48358   0.49213   0.49793   0.50658
 Alpha virt. eigenvalues --    0.51115   0.51741   0.52672   0.53515   0.55140
 Alpha virt. eigenvalues --    0.57241   0.58794   0.60663   0.61628   0.63372
 Alpha virt. eigenvalues --    0.66268   0.66745   0.69461   0.70502   0.71550
 Alpha virt. eigenvalues --    0.73026   0.77372   0.78111   0.78764   0.81487
 Alpha virt. eigenvalues --    0.82039   0.84295   0.85852   0.87557   0.90013
 Alpha virt. eigenvalues --    0.90695   0.94289   0.94677   0.97536   0.98077
 Alpha virt. eigenvalues --    0.99284   1.01630   1.02916   1.04730   1.06319
 Alpha virt. eigenvalues --    1.06665   1.07101   1.10173   1.12529   1.13336
 Alpha virt. eigenvalues --    1.15766   1.16338   1.17695   1.20404   1.20903
 Alpha virt. eigenvalues --    1.22781   1.23462   1.25316   1.27363   1.28269
 Alpha virt. eigenvalues --    1.29967   1.30212   1.32368   1.33748   1.34259
 Alpha virt. eigenvalues --    1.36191   1.37641   1.40618   1.41321   1.42323
 Alpha virt. eigenvalues --    1.43531   1.44780   1.48759   1.50241   1.50931
 Alpha virt. eigenvalues --    1.53883   1.54837   1.57095   1.59514   1.63262
 Alpha virt. eigenvalues --    1.64645   1.68797   1.76104   1.79227   1.82283
 Alpha virt. eigenvalues --    1.86729   1.96252   1.99359   2.02250   2.06087
 Alpha virt. eigenvalues --    2.08849   2.11021   2.14008   2.18168   2.20537
 Alpha virt. eigenvalues --    2.21638   2.27951   2.29777   2.31789   2.33971
 Alpha virt. eigenvalues --    2.36233   2.39371   2.41824   2.43713   2.46940
 Alpha virt. eigenvalues --    2.48178   2.52194   2.52837   2.57020   2.58298
 Alpha virt. eigenvalues --    2.60173   2.61842   2.63319   2.63800   2.67424
 Alpha virt. eigenvalues --    2.70699   2.71759   2.76592   2.78307   2.80953
 Alpha virt. eigenvalues --    2.81864   2.82479   2.84205   2.85553   2.87346
 Alpha virt. eigenvalues --    2.88117   2.89836   2.92055   2.93021   2.93218
 Alpha virt. eigenvalues --    2.97101   2.99178   2.99586   3.00686   3.02806
 Alpha virt. eigenvalues --    3.03607   3.03963   3.05374   3.06750   3.08203
 Alpha virt. eigenvalues --    3.10375   3.10536   3.10608   3.12430   3.13369
 Alpha virt. eigenvalues --    3.14302   3.15715   3.18355   3.21901   3.22599
 Alpha virt. eigenvalues --    3.24040   3.25545   3.26902   3.27761   3.28891
 Alpha virt. eigenvalues --    3.29732   3.30328   3.33701   3.34718   3.35997
 Alpha virt. eigenvalues --    3.36670   3.38649   3.40017   3.41022   3.43175
 Alpha virt. eigenvalues --    3.43879   3.45580   3.46170   3.48987   3.52003
 Alpha virt. eigenvalues --    3.52714   3.54515   3.56650   3.59061   3.61366
 Alpha virt. eigenvalues --    3.62249   3.64812   3.67736   3.69874   3.71466
 Alpha virt. eigenvalues --    3.73047   3.74246   3.76857   3.77858   3.79885
 Alpha virt. eigenvalues --    3.80660   3.82675   3.82764   3.84307   3.87314
 Alpha virt. eigenvalues --    3.89093   3.90600   3.90886   3.92481   3.93937
 Alpha virt. eigenvalues --    3.95522   3.97249   3.98555   4.00593   4.02029
 Alpha virt. eigenvalues --    4.02581   4.03478   4.04153   4.07063   4.07572
 Alpha virt. eigenvalues --    4.09537   4.11906   4.12985   4.15222   4.16946
 Alpha virt. eigenvalues --    4.18028   4.22410   4.24578   4.28448   4.29826
 Alpha virt. eigenvalues --    4.30624   4.32920   4.35231   4.40006   4.41456
 Alpha virt. eigenvalues --    4.45282   4.47700   4.49431   4.52536   4.55021
 Alpha virt. eigenvalues --    4.59725   4.63866   4.64250   4.65898   4.68196
 Alpha virt. eigenvalues --    4.70400   4.72545   4.73112   4.78856   4.80398
 Alpha virt. eigenvalues --    4.82354   4.86742   4.89178   4.92426   4.94342
 Alpha virt. eigenvalues --    4.97932   4.99178   5.01337   5.04245   5.05408
 Alpha virt. eigenvalues --    5.08641   5.10666   5.12185   5.14666   5.19968
 Alpha virt. eigenvalues --    5.22998   5.23340   5.25256   5.26481   5.30580
 Alpha virt. eigenvalues --    5.30601   5.34800   5.43488   5.44336   5.47322
 Alpha virt. eigenvalues --    5.52969   5.58912   5.65751   5.68596   5.73635
 Alpha virt. eigenvalues --    5.76526   5.76606   5.79595   5.84465   5.86129
 Alpha virt. eigenvalues --    5.96372   5.99659   6.04933   6.09373   6.22076
 Alpha virt. eigenvalues --    6.33105   6.49589   6.57321   6.57789   6.71113
 Alpha virt. eigenvalues --    6.73207   6.74899   6.79937   6.84490   6.96502
 Alpha virt. eigenvalues --    7.05061   7.20131   7.28070   7.37665   7.44526
 Alpha virt. eigenvalues --   10.31791  11.25354  11.51762  11.84987  13.23353
 Alpha virt. eigenvalues --   13.29835  14.57660
          Condensed to atoms (all electrons):
               1          2          3          4          5          6
     1  O    7.819923   0.003484   0.320381  -0.046573  -0.050315   0.337081
     2  O    0.003484   7.771018   0.000430  -0.000066  -0.000051  -0.085574
     3  C    0.320381   0.000430   4.855888   0.343444   0.316730  -0.062909
     4  C   -0.046573  -0.000066   0.343444   4.946430  -0.059242   0.005200
     5  C   -0.050315  -0.000051   0.316730  -0.059242   5.096104  -0.032056
     6  C    0.337081  -0.085574  -0.062909   0.005200  -0.032056   5.072715
     7  C   -0.056253   0.365779  -0.000271  -0.000451  -0.001019   0.475845
     8  H   -0.055776  -0.000113   0.397749  -0.031748  -0.090990   0.004766
     9  H    0.003542   0.000000  -0.035173   0.388034  -0.000488  -0.000073
    10  H    0.001960   0.000004  -0.036721   0.400641  -0.011903  -0.000189
    11  H    0.002370   0.000020  -0.032280   0.398072   0.009782  -0.000638
    12  H    0.002886   0.000012  -0.033410  -0.006159   0.381082   0.000632
    13  H   -0.001011  -0.000055  -0.041623   0.008923   0.415500  -0.009229
    14  H    0.004099   0.000001  -0.027639  -0.007911   0.390122   0.002379
    15  H   -0.053061   0.003148  -0.000046  -0.000547  -0.006849   0.402685
    16  H    0.003724  -0.050789  -0.000333   0.000006   0.000093  -0.113166
    17  H   -0.000124   0.326321   0.000011   0.000001   0.000006   0.019784
               7          8          9         10         11         12
     1  O   -0.056253  -0.055776   0.003542   0.001960   0.002370   0.002886
     2  O    0.365779  -0.000113   0.000000   0.000004   0.000020   0.000012
     3  C   -0.000271   0.397749  -0.035173  -0.036721  -0.032280  -0.033410
     4  C   -0.000451  -0.031748   0.388034   0.400641   0.398072  -0.006159
     5  C   -0.001019  -0.090990  -0.000488  -0.011903   0.009782   0.381082
     6  C    0.475845   0.004766  -0.000073  -0.000189  -0.000638   0.000632
     7  C    4.892901   0.005128  -0.000002   0.000018  -0.000180  -0.000025
     8  H    0.005128   0.666137  -0.002700   0.009497  -0.009709   0.010857
     9  H   -0.000002  -0.002700   0.604630  -0.034713  -0.028112   0.000112
    10  H    0.000018   0.009497  -0.034713   0.573766  -0.029469   0.005124
    11  H   -0.000180  -0.009709  -0.028112  -0.029469   0.568848  -0.000243
    12  H   -0.000025   0.010857   0.000112   0.005124  -0.000243   0.579361
    13  H    0.000721  -0.013565  -0.000199  -0.000468  -0.000385  -0.035744
    14  H    0.000087  -0.001244  -0.000141   0.000492  -0.000200  -0.027712
    15  H   -0.064391   0.003500   0.000216   0.000116   0.000117   0.001569
    16  H    0.465802  -0.000066  -0.000002  -0.000001   0.000002  -0.000009
    17  H   -0.045686   0.000005   0.000000   0.000000  -0.000001  -0.000000
              13         14         15         16         17
     1  O   -0.001011   0.004099  -0.053061   0.003724  -0.000124
     2  O   -0.000055   0.000001   0.003148  -0.050789   0.326321
     3  C   -0.041623  -0.027639  -0.000046  -0.000333   0.000011
     4  C    0.008923  -0.007911  -0.000547   0.000006   0.000001
     5  C    0.415500   0.390122  -0.006849   0.000093   0.000006
     6  C   -0.009229   0.002379   0.402685  -0.113166   0.019784
     7  C    0.000721   0.000087  -0.064391   0.465802  -0.045686
     8  H   -0.013565  -0.001244   0.003500  -0.000066   0.000005
     9  H   -0.000199  -0.000141   0.000216  -0.000002   0.000000
    10  H   -0.000468   0.000492   0.000116  -0.000001   0.000000
    11  H   -0.000385  -0.000200   0.000117   0.000002  -0.000001
    12  H   -0.035744  -0.027712   0.001569  -0.000009  -0.000000
    13  H    0.605132  -0.030156  -0.014274   0.000079   0.000009
    14  H   -0.030156   0.578405  -0.000324  -0.000008  -0.000000
    15  H   -0.014274  -0.000324   0.620940  -0.003538  -0.000544
    16  H    0.000079  -0.000008  -0.003538   0.616574  -0.014596
    17  H    0.000009  -0.000000  -0.000544  -0.014596   0.453329
 Mulliken charges:
               1
     1  O   -0.236337
     2  O   -0.333567
     3  C    0.035772
     4  C   -0.338055
     5  C   -0.356507
     6  C   -0.017253
     7  C   -0.038003
     8  H    0.108273
     9  H    0.105067
    10  H    0.121846
    11  H    0.122006
    12  H    0.121668
    13  H    0.116343
    14  H    0.119749
    15  H    0.111286
    16  H    0.096228
    17  H    0.261484
 Sum of Mulliken charges =  -0.00000
 Mulliken charges with hydrogens summed into heavy atoms:
               1
     1  O   -0.236337
     2  O   -0.072083
     3  C    0.144045
     4  C    0.010865
     5  C    0.001253
     6  C    0.094033
     7  C    0.058224
 APT charges:
               1
     1  O   -0.183019
     2  O   -0.925231
     3  C   -0.187657
     4  C   -1.180318
     5  C   -1.089113
     6  C   -0.375776
     7  C   -0.332289
     8  H    0.315728
     9  H    0.499394
    10  H    0.335632
    11  H    0.338243
    12  H    0.326022
    13  H    0.231956
    14  H    0.513674
    15  H    0.297600
    16  H    0.480700
    17  H    0.934452
 Sum of APT charges =  -0.00000
 APT charges with hydrogens summed into heavy atoms:
               1
     1  O   -0.183019
     2  O    0.009221
     3  C    0.128072
     4  C   -0.007048
     5  C   -0.017461
     6  C   -0.078176
     7  C    0.148411
 Electronic spatial extent (au):  <R**2>=           1048.1429
 Charge=             -0.0000 electrons
 Dipole moment (field-independent basis, Debye):
    X=             -0.3474    Y=              2.0064    Z=             -0.6336  Tot=              2.1326
 Quadrupole moment (field-independent basis, Debye-Ang):
   XX=            -30.9131   YY=            -44.2901   ZZ=            -45.5454
   XY=             -2.6845   XZ=             -0.0380   YZ=             -0.2937
 Traceless Quadrupole moment (field-independent basis, Debye-Ang):
   XX=              9.3364   YY=             -4.0406   ZZ=             -5.2959
   XY=             -2.6845   XZ=             -0.0380   YZ=             -0.2937
 Octapole moment (field-independent basis, Debye-Ang**2):
  XXX=            -65.7627  YYY=             -2.5395  ZZZ=              2.9387  XYY=             -3.2541
  XXY=              1.7118  XXZ=             -0.0078  XZZ=             -0.4999  YZZ=             -2.6389
  YYZ=             -1.6849  XYZ=              0.3030
 Hexadecapole moment (field-independent basis, Debye-Ang**3):
 XXXX=           -754.5447 YYYY=           -269.4192 ZZZZ=            -83.8039 XXXY=             15.9586
 XXXZ=            -16.3111 YYYX=              1.2750 YYYZ=             -2.5101 ZZZX=             -1.6428
 ZZZY=             -0.5643 XXYY=           -219.0964 XXZZ=           -192.0347 YYZZ=            -60.7541
 XXYZ=             -3.8082 YYXZ=             -0.2728 ZZXY=              3.0025
 N-N= 3.111146468471D+02 E-N=-1.432389778297D+03  KE= 3.447309748859D+02
  Exact polarizability:   0.000   0.000   0.000   0.000   0.000   0.000
 Approx polarizability:  97.945   2.170  74.941  -2.375  -2.628  68.596
 No NMR shielding tensors so no spin-rotation constants.
 Leave Link  601 at Sat Sep 28 09:24:02 2019, MaxMem=   671088640 cpu:              74.1 elap:              37.2
 (Enter /shared/centos7/gaussian/g16/l701.exe)
 SCFChk:  SCF convergence  5.75D-09 required  1.00D-08
 ... and contract with generalized density number  0.
 Compute integral second derivatives.
 Entering OneElI...
 Calculate overlap and kinetic energy integrals
    NBasis = 395  MinDer = 2  MaxDer = 2
 Requested accuracy = 0.1000D-12
 PrmmSu-InSpLW:  IPartL=    0 NPrtUS=   20 NPrtUL=    1 DoSpLW=F IThBeg=    0 IThEnd=   19 NThAct=   20.
 PrsmSu:  NPrtUS=  20 ThrOK=T IAlg=1 NPAlg=1 LenDen=           0 ISkipM=0 DoSpLW=F IThBeg=    0 IThEnd=   19.
 Prism:   IPart=     0 DynPar=F LinDyn=F Incr=           4.
 PRISM was handed    33316699 working-precision words and  8349 shell-pairs
 PRISM was handed    33316699 working-precision words and  8349 shell-pairs
 PRISM was handed    33316699 working-precision words and  8349 shell-pairs
 PRISM was handed    33316699 working-precision words and  8349 shell-pairs
 PRISM was handed    33316699 working-precision words and  8349 shell-pairs
 PRISM was handed    33316699 working-precision words and  8349 shell-pairs
 PRISM was handed    33316699 working-precision words and  8349 shell-pairs
 PRISM was handed    33316699 working-precision words and  8349 shell-pairs
 PRISM was handed    33316699 working-precision words and  8349 shell-pairs
 PRISM was handed    33316699 working-precision words and  8349 shell-pairs
 PRISM was handed    33316699 working-precision words and  8349 shell-pairs
 PRISM was handed    33316699 working-precision words and  8349 shell-pairs
 PRISM was handed    33316699 working-precision words and  8349 shell-pairs
 PRISM was handed    33316699 working-precision words and  8349 shell-pairs
 PRISM was handed    33316699 working-precision words and  8349 shell-pairs
 IPart= 13 NShTot=         401 NBatch=          40 AvBLen=        10.0
 PRISM was handed    33316699 working-precision words and  8349 shell-pairs
 PRISM was handed    33316699 working-precision words and  8349 shell-pairs
 PRISM was handed    33316699 working-precision words and  8349 shell-pairs
 PRISM was handed    33316699 working-precision words and  8349 shell-pairs
 PRISM was handed    33316699 working-precision words and  8349 shell-pairs
 IPart=  8 NShTot=         415 NBatch=          51 AvBLen=         8.1
 IPart=  6 NShTot=         428 NBatch=          61 AvBLen=         7.0
 IPart=  4 NShTot=         438 NBatch=          64 AvBLen=         6.8
 IPart= 17 NShTot=         395 NBatch=          38 AvBLen=        10.4
 IPart=  2 NShTot=         448 NBatch=          73 AvBLen=         6.1
 IPart=  0 NShTot=         461 NBatch=          83 AvBLen=         5.6
 IPart= 10 NShTot=         410 NBatch=          48 AvBLen=         8.5
 IPart= 12 NShTot=         404 NBatch=          42 AvBLen=         9.6
 IPart= 11 NShTot=         408 NBatch=          46 AvBLen=         8.9
 IPart= 19 NShTot=         391 NBatch=          36 AvBLen=        10.9
 IPart=  1 NShTot=         455 NBatch=          79 AvBLen=         5.8
 IPart= 14 NShTot=         399 NBatch=          39 AvBLen=        10.2
 IPart=  7 NShTot=         417 NBatch=          52 AvBLen=         8.0
 IPart= 15 NShTot=         396 NBatch=          38 AvBLen=        10.4
 IPart= 16 NShTot=         396 NBatch=          38 AvBLen=        10.4
 IPart=  9 NShTot=         413 NBatch=          50 AvBLen=         8.3
 IPart=  3 NShTot=         445 NBatch=          70 AvBLen=         6.4
 IPart=  5 NShTot=         436 NBatch=          62 AvBLen=         7.0
 IPart= 18 NShTot=         393 NBatch=          37 AvBLen=        10.6
 PrSmSu:  NxtVal=             81.
 Entering OneElI...
 Calculate potential energy integrals
    NBasis = 395  MinDer = 2  MaxDer = 2
 Requested accuracy = 0.1000D-12
 PrmmSu-InSpLW:  IPartL=    0 NPrtUS=   20 NPrtUL=    1 DoSpLW=F IThBeg=    0 IThEnd=   19 NThAct=   20.
 PrsmSu:  NPrtUS=  20 ThrOK=T IAlg=1 NPAlg=1 LenDen=           0 ISkipM=0 DoSpLW=F IThBeg=    0 IThEnd=   19.
 Prism:   IPart=     0 DynPar=F LinDyn=F Incr=          63.
 PRISM was handed    33360717 working-precision words and  7450 shell-pairs
 PRISM was handed    33360717 working-precision words and  7450 shell-pairs
 PRISM was handed    33360717 working-precision words and  7450 shell-pairs
 PRISM was handed    33360717 working-precision words and  7450 shell-pairs
 PRISM was handed    33360717 working-precision words and  7450 shell-pairs
 PRISM was handed    33360717 working-precision words and  7450 shell-pairs
 PRISM was handed    33360717 working-precision words and  7450 shell-pairs
 PRISM was handed    33360717 working-precision words and  7450 shell-pairs
 PRISM was handed    33360717 working-precision words and  7450 shell-pairs
 PRISM was handed    33360717 working-precision words and  7450 shell-pairs
 PRISM was handed    33360717 working-precision words and  7450 shell-pairs
 PRISM was handed    33360717 working-precision words and  7450 shell-pairs
 PRISM was handed    33360717 working-precision words and  7450 shell-pairs
 PRISM was handed    33360717 working-precision words and  7450 shell-pairs
 PRISM was handed    33360717 working-precision words and  7450 shell-pairs
 PRISM was handed    33360717 working-precision words and  7450 shell-pairs
 PRISM was handed    33360717 working-precision words and  7450 shell-pairs
 PRISM was handed    33360717 working-precision words and  7450 shell-pairs
 PRISM was handed    33360717 working-precision words and  7450 shell-pairs
 PRISM was handed    33360717 working-precision words and  7450 shell-pairs
 IPart= 17 NShTot=        5967 NBatch=         351 AvBLen=        17.0
 IPart= 10 NShTot=        6239 NBatch=         367 AvBLen=        17.0
 IPart=  1 NShTot=        6936 NBatch=         408 AvBLen=        17.0
 IPart= 11 NShTot=        6154 NBatch=         362 AvBLen=        17.0
 IPart= 14 NShTot=        6052 NBatch=         356 AvBLen=        17.0
 IPart=  7 NShTot=        6324 NBatch=         372 AvBLen=        17.0
 IPart=  6 NShTot=        6511 NBatch=         383 AvBLen=        17.0
 IPart=  8 NShTot=        6290 NBatch=         370 AvBLen=        17.0
 IPart=  9 NShTot=        6256 NBatch=         368 AvBLen=        17.0
 IPart= 18 NShTot=        5950 NBatch=         350 AvBLen=        17.0
 IPart= 19 NShTot=        5916 NBatch=         348 AvBLen=        17.0
 IPart= 12 NShTot=        6103 NBatch=         359 AvBLen=        17.0
 IPart= 13 NShTot=        6086 NBatch=         358 AvBLen=        17.0
 IPart= 16 NShTot=        6001 NBatch=         353 AvBLen=        17.0
 IPart=  0 NShTot=        7004 NBatch=         412 AvBLen=        17.0
 IPart=  4 NShTot=        6681 NBatch=         393 AvBLen=        17.0
 IPart=  2 NShTot=        6851 NBatch=         403 AvBLen=        17.0
 IPart=  3 NShTot=        6732 NBatch=         396 AvBLen=        17.0
 IPart=  5 NShTot=        6562 NBatch=         386 AvBLen=        17.0
 IPart= 15 NShTot=        6035 NBatch=         355 AvBLen=        17.0
 PrSmSu:  NxtVal=           1261.
 Polarizability after L701:
                1             2             3 
      1  0.000000D+00
      2  0.000000D+00  0.000000D+00
      3  0.000000D+00  0.000000D+00  0.000000D+00
 Dipole Derivatives after L701:
                 1             2             3             4             5 
      1  -0.240427D+00  0.397970D-01 -0.390545D-01 -0.227415D+01  0.651468D+00
      2   0.520635D-02 -0.108076D+00 -0.600016D-01 -0.235676D+00 -0.135562D+00
      3  -0.152535D-01 -0.666764D-01 -0.200553D+00  0.931526D-01 -0.698493D-01
                 6             7             8             9            10 
      1  -0.922415D-01 -0.788498D-01 -0.905087D-01  0.697769D+00 -0.141613D+01
      2  -0.528469D-01 -0.128926D+00  0.120344D+00  0.932800D-01  0.179372D+00
      3  -0.365985D+00  0.881099D-01  0.193323D-01 -0.604464D+00  0.387135D-01
                11            12            13            14            15 
      1   0.812943D+00 -0.167393D+00 -0.119033D+01 -0.803505D+00 -0.454574D+00
      2  -0.116603D+01  0.559107D-01 -0.161536D+00 -0.123602D+01 -0.156393D+00
      3  -0.465791D-01 -0.958789D+00  0.739874D-02  0.540751D-01 -0.840986D+00
                16            17            18            19            20 
      1  -0.694528D+00  0.164050D+00  0.189020D+00 -0.924161D-01  0.422765D+00
      2   0.192999D+00 -0.474469D+00  0.626007D-01  0.490197D-02 -0.855884D+00
      3  -0.288465D-01  0.182548D+00  0.416700D-01  0.248587D-01  0.247468D+00
                21            22            23            24            25 
      1  -0.298427D+00  0.191961D+00  0.641226D-01 -0.446809D+00  0.129466D+01
      2   0.324787D+00  0.215270D-01  0.155157D+00 -0.212703D-01 -0.288234D+00
      3  -0.485680D-01 -0.298492D-01 -0.321779D-01  0.600068D+00 -0.156079D+00
                26            27            28            29            30 
      1   0.192302D+00 -0.341244D+00  0.193052D+00 -0.188263D+00  0.809488D+00
      2   0.585535D-01  0.685631D-01 -0.548435D-01  0.220431D+00 -0.510773D+00
      3  -0.350880D-01  0.144967D+00  0.251737D-01 -0.976317D-01  0.593413D+00
                31            32            33            34            35 
      1  -0.726897D-01 -0.609462D+00 -0.321438D+00  0.172893D+00 -0.258401D-01
      2   0.238321D+00  0.857611D+00  0.405507D+00  0.424562D-01  0.948269D-01
      3   0.758470D-01  0.190332D+00  0.229809D+00  0.576173D-01 -0.364064D-01
                36            37            38            39            40 
      1   0.679967D+00 -0.121213D+00  0.255250D+00 -0.578519D-01  0.111818D+01
      2   0.398066D+00 -0.599452D+00  0.686557D+00 -0.190864D+00  0.528071D+00
      3   0.710345D+00  0.156929D-01  0.191891D-01  0.130523D+00 -0.684081D-01
                41            42            43            44            45 
      1   0.342191D+00 -0.358681D+00  0.985271D-01 -0.146021D+00  0.746411D-02
      2   0.287600D+00 -0.179654D+00  0.286330D+00  0.709498D+00 -0.103803D+00
      3  -0.135487D-01  0.135247D+00 -0.884559D-01 -0.204570D+00  0.847753D-01
                46            47            48            49            50 
      1   0.866459D+00 -0.881094D+00  0.219957D+00  0.224500D+01 -0.200194D+00
      2  -0.315023D+00  0.506850D+00 -0.120626D+00  0.284506D+00  0.278617D+00
      3   0.664297D-01 -0.113437D+00  0.687921D-01 -0.106101D+00  0.302145D-02
                51 
      1  -0.259505D-01
      2  -0.124834D-01
      3   0.279735D+00
 Hessian after L701:
                1             2             3             4             5 
      1  0.367244D+01
      2  0.288049D+01  0.134555D+02
      3  0.348418D+00  0.132632D+01  0.185886D+02
      4  0.905084D+00  0.172780D+00 -0.733092D-01  0.561434D+01
      5  0.224930D+00 -0.405140D+00 -0.331712D-01 -0.358308D+01  0.836635D+01
      6 -0.809971D-01 -0.307443D-01 -0.491244D+00  0.129098D+01  0.184588D+01
      7 -0.680712D+00  0.170081D+01 -0.195135D+01  0.190152D+00  0.701500D-01
      8  0.154237D+01 -0.837896D+01 -0.647840D+00  0.569978D-01 -0.822042D-01
      9 -0.186445D+01 -0.625419D+00 -0.895803D+01 -0.182843D-01 -0.155273D-02
     10  0.251703D+00 -0.296815D+00  0.732353D-01  0.965106D-01 -0.945237D-02
     11 -0.255159D+00 -0.837162D-01  0.193048D-01 -0.140865D-03 -0.598487D-01
     12  0.639223D-01  0.216558D-01 -0.183036D+00 -0.101663D-01 -0.849731D-03
     13 -0.224798D-01  0.440538D+00  0.353490D+00  0.742746D-01  0.732939D-01
     14  0.389462D+00  0.388931D+00  0.285023D+00  0.496911D-01 -0.440477D-01
     15  0.252272D+00  0.214098D+00 -0.553634D-01 -0.622575D-02 -0.459895D-02
     16 -0.471691D+01 -0.499099D+01  0.101944D+01  0.368739D+00 -0.210417D+00
     17 -0.488671D+01 -0.481465D+01 -0.123548D+01 -0.421430D+00 -0.744848D+00
     18  0.104600D+01 -0.127542D+01 -0.948810D+01  0.134114D+00  0.317448D+00
     19  0.129297D+00  0.756030D-01  0.756236D-01 -0.679825D+01  0.388876D+01
     20  0.146663D+00 -0.275620D+00  0.707007D-01  0.405417D+01 -0.136812D+01
     21 -0.629961D-02  0.108480D+00  0.193966D+00 -0.119224D+01 -0.210141D+01
     22 -0.264338D+00 -0.215557D+00  0.176949D+00  0.125954D-01  0.747035D-02
     23 -0.192167D+00  0.138393D+00  0.810843D-01  0.531326D-02 -0.962212D-02
     24  0.208369D+00  0.104791D+00  0.467936D+00 -0.253583D-01 -0.835981D-02
     25  0.156839D+00 -0.388988D-02 -0.369895D-01  0.147508D-01  0.212586D-02
     26 -0.147079D-01 -0.470078D-01  0.392371D-02  0.174393D-03 -0.429225D-02
     27 -0.341628D-01  0.196888D-02 -0.366988D-01 -0.272227D-02 -0.659941D-03
     28  0.678010D-01 -0.586943D-01  0.177380D-01  0.158540D-01 -0.148509D-02
     29 -0.683030D-01 -0.269007D-01 -0.134285D-01 -0.561221D-02 -0.777758D-02
     30  0.730712D-01 -0.339460D-01 -0.368911D-01  0.160587D-01  0.443976D-04
     31  0.378685D-01 -0.588475D-01  0.756446D-03  0.120217D-01 -0.490626D-02
     32 -0.119882D+00  0.191535D-01  0.862631D-02 -0.195131D-01 -0.470634D-02
     33 -0.321435D-01  0.220816D-01 -0.605295D-01 -0.105529D-01  0.235762D-02
     34  0.291145D-01  0.833210D-01  0.347203D-01  0.122235D-01  0.103688D-01
     35  0.706292D-01  0.668308D-02  0.265947D-01  0.786788D-02 -0.421404D-02
     36  0.716345D-01  0.697595D-01 -0.218755D-01  0.157288D-01  0.106618D-01
     37 -0.345352D-01  0.218018D-02  0.351915D-01 -0.219640D-02  0.270719D-02
     38  0.658206D-01  0.789022D-01  0.750398D-01  0.219486D-01  0.121663D-01
     39  0.204070D-01  0.374963D-01 -0.420709D-01 -0.358079D-02 -0.476217D-02
     40  0.105258D+00  0.100548D+00 -0.235989D-01  0.122777D-01  0.109494D-01
     41  0.917116D-01  0.131814D-01 -0.163430D-01  0.749676D-02 -0.343639D-03
     42 -0.242663D-01 -0.164133D-01 -0.413462D-01 -0.264866D-02 -0.205429D-02
     43  0.190862D+00  0.271219D+00 -0.658357D-01  0.336140D-01  0.904552D-01
     44  0.233187D+00 -0.771504D-01  0.599563D-01  0.968420D-01  0.699414D-01
     45 -0.623447D-01  0.890922D-01  0.216948D+00 -0.268287D-01 -0.283582D-01
     46  0.975998D-01 -0.969124D-01  0.167422D-01  0.220019D+00 -0.996368D-01
     47 -0.108777D+00  0.232199D-01 -0.990603D-02 -0.141973D+00 -0.130835D+00
     48  0.236079D-01 -0.135905D-01 -0.362122D-01  0.355535D-01  0.884519D-01
     49  0.751135D-01 -0.578619D-02 -0.121312D-02 -0.782007D+00 -0.472228D+00
     50  0.444733D-03 -0.148254D-01 -0.410930D-03 -0.301530D+00 -0.558246D+01
     51 -0.303909D-02 -0.213320D-03 -0.160820D-01 -0.120527D+00 -0.790667D-01
                6             7             8             9            10 
      6  0.143862D+02
      7 -0.407123D-01  0.142751D+02
      8 -0.979571D-02 -0.782727D+00  0.194244D+02
      9 -0.104461D+00  0.104186D+01  0.545423D-01  0.220203D+02
     10 -0.895440D-02 -0.414818D+01 -0.229261D+01  0.572168D+00  0.128882D+02
     11 -0.137490D-02 -0.223419D+01 -0.348249D+01 -0.622260D+00  0.191920D+01
     12 -0.632021D-01  0.554664D+00 -0.629981D+00 -0.592318D+01 -0.365069D+00
     13  0.335767D-02 -0.588488D+01  0.154474D+01  0.682352D+00 -0.576342D-01
     14  0.337286D-02  0.147590D+01 -0.282925D+01  0.154807D+01 -0.722318D-01
     15 -0.641490D-01  0.664809D+00  0.154235D+01 -0.573714D+01  0.618017D-02
     16  0.105438D+00  0.228359D+00 -0.480786D-01  0.498756D-01  0.199046D+00
     17  0.367699D+00 -0.135869D+00 -0.570536D-01  0.532291D-01 -0.212199D+00
     18  0.220798D+00  0.409989D-01  0.539290D-01  0.216069D-01  0.387240D-01
     19 -0.116999D+01  0.293607D+00 -0.697534D-01  0.594151D-02  0.802537D-01
     20 -0.214622D+01 -0.749115D-01 -0.127579D+00  0.229222D-01 -0.428404D-01
     21 -0.803782D+01 -0.368779D-01  0.225958D-01 -0.107890D+00 -0.628103D-03
     22 -0.121321D-01 -0.447694D+01  0.673147D-01 -0.404742D+00  0.567553D-02
     23 -0.239927D-02  0.630019D-01 -0.453797D+01 -0.316825D+00  0.551852D-01
     24  0.166292D-02 -0.286815D+00 -0.281855D+00 -0.143289D+01 -0.832496D-01
     25 -0.305373D-02 -0.828218D-01  0.108315D-01 -0.136793D-02 -0.161611D+01
     26 -0.284621D-03  0.618434D-01  0.813778D-01 -0.243065D-01  0.317953D+00
     27 -0.416192D-02  0.876011D-03 -0.183349D-01  0.524332D-01 -0.637435D+00
     28  0.380919D-02  0.720437D-01  0.118747D-01 -0.465888D-01 -0.399060D+01
     29 -0.105132D-02 -0.122049D-03  0.212592D-01  0.815331D-01  0.231583D-01
     30 -0.416020D-02  0.379564D-02  0.272295D-01  0.458312D-01  0.706879D-01
     31 -0.311396D-02  0.636130D-01  0.374364D-01  0.176219D-01 -0.369844D+01
     32  0.431946D-02 -0.319507D-01 -0.190306D-01  0.323533D-01  0.733737D+00
     33 -0.659316D-02  0.237274D-02  0.420247D-01  0.606818D-01  0.335625D+00
     34  0.535841D-02  0.635819D-01 -0.274425D-01 -0.336651D-01 -0.141783D-01
     35  0.172715D-02 -0.162335D-01 -0.665890D-02 -0.133198D+00 -0.343706D-02
     36 -0.254034D-02 -0.384956D-03 -0.854157D-01  0.960725D-02  0.793995D-04
     37  0.170905D-02  0.102115D+00 -0.152265D-01  0.277659D-01 -0.163049D-01
     38 -0.112288D-02  0.796014D-01 -0.299029D-01 -0.508495D-01 -0.964386D-01
     39 -0.893395D-02  0.416059D-01 -0.608545D-01  0.748708D-01 -0.101429D-02
     40 -0.204833D-02 -0.626611D-01 -0.320096D-01 -0.383572D-01  0.360884D-02
     41 -0.923026D-03 -0.850113D-01  0.530148D-01  0.347415D-02  0.132458D-01
     42 -0.438946D-02 -0.415280D-01 -0.751899D-02  0.376284D-01 -0.558115D-02
     43 -0.325556D-01  0.268518D-02  0.896775D-05 -0.697521D-03 -0.834680D-02
     44 -0.370766D-01 -0.700544D-01 -0.225602D-01 -0.161006D-01 -0.234418D-01
     45 -0.246992D-01  0.558145D-02 -0.575158D-03 -0.474505D-01  0.353418D-02
     46  0.229656D-01  0.192102D-01 -0.750936D-02  0.530249D-02  0.937712D-02
     47  0.943588D-01 -0.200389D-01 -0.189312D-02 -0.525418D-02 -0.113541D-01
     48  0.138298D+00  0.291361D-02 -0.189844D-03 -0.672172D-02  0.224268D-02
     49 -0.800611D-01  0.257552D-01  0.378759D-02  0.526478D-02  0.154465D-01
     50 -0.863717D-01 -0.201255D-03 -0.449281D-02 -0.358411D-03 -0.165411D-02
     51 -0.593065D+01 -0.180582D-02 -0.308794D-03 -0.516222D-02 -0.545127D-03
               11            12            13            14            15 
     11  0.129186D+02
     12  0.190320D+00  0.149599D+02
     13 -0.153103D+00 -0.127360D-01  0.139473D+02
     14  0.177210D+00  0.414447D-01 -0.100761D+01  0.123412D+02
     15 -0.114915D-02 -0.109157D+00 -0.620909D+00 -0.775360D+00  0.154875D+02
     16 -0.188910D+00  0.205394D-01  0.219894D+00 -0.343423D-01 -0.636278D-02
     17 -0.307467D-01 -0.914299D-02  0.102728D+00 -0.112795D+00  0.365077D-01
     18 -0.159101D-01 -0.142585D+00 -0.136719D-01  0.514890D-02 -0.129056D+00
     19 -0.378215D-01  0.171963D-02  0.144431D+00  0.266532D-01 -0.669229D-02
     20 -0.438661D-01 -0.328502D-03  0.598654D-01 -0.844845D-01  0.677404D-02
     21 -0.199255D-03 -0.547592D-01 -0.617933D-02  0.890566D-02 -0.835768D-01
     22  0.538830D-01 -0.847986D-01  0.285424D+00 -0.599361D-01 -0.110751D+00
     23  0.170463D-01  0.835376D-01 -0.815384D-01  0.175336D+00 -0.283836D+00
     24  0.652691D-01 -0.151436D-01 -0.179514D+00 -0.340732D+00 -0.231039D+00
     25  0.455526D+00 -0.669877D+00  0.308824D-01 -0.680745D-01 -0.198067D-01
     26 -0.373756D+01 -0.770344D-01 -0.500028D-01  0.192005D-01  0.184918D-01
     27 -0.111694D+00 -0.354858D+01 -0.259412D-01  0.268826D-01 -0.299052D-01
     28 -0.101615D-01  0.258835D+00 -0.219664D-03  0.189353D-01 -0.426898D-02
     29 -0.388063D+01 -0.630373D+00  0.429425D-02 -0.204089D-01  0.478199D-02
     30 -0.486526D+00 -0.151021D+01  0.538687D-02 -0.655968D-03  0.168834D-01
     31  0.531523D+00  0.249179D+00 -0.564453D-01 -0.790721D-02 -0.301117D-02
     32 -0.196251D+01  0.101056D+01  0.242461D-02  0.174037D+00  0.558224D-01
     33  0.958678D+00 -0.333591D+01 -0.153184D-02  0.628590D-01 -0.358025D-01
     34 -0.878826D-02 -0.308075D-02 -0.383919D+01 -0.416734D-01  0.293564D+00
     35  0.293691D-02  0.720218D-02 -0.194594D-01 -0.391194D+01 -0.575031D-01
     36  0.242726D-01  0.929400D-02  0.166603D+00 -0.225672D+00 -0.129911D+01
     37 -0.845950D-01 -0.142375D-02 -0.318123D+01 -0.122566D+01  0.287112D+00
     38  0.158996D+00 -0.331080D-03 -0.153281D+01 -0.267965D+01 -0.440498D+00
     39 -0.223666D-02 -0.507241D-01  0.299416D+00 -0.368491D+00 -0.417373D+01
     40  0.181937D-01 -0.136570D-02 -0.173986D+01  0.624595D+00 -0.730825D+00
     41  0.276495D-02 -0.193340D-02  0.725908D+00 -0.358132D+01 -0.292963D+00
     42 -0.115580D-01 -0.106122D-01 -0.686085D+00 -0.243361D+00 -0.350055D+01
     43 -0.497169D-02  0.127596D-02  0.373872D-01 -0.592313D-01  0.811622D-02
     44  0.959792D-02 -0.472024D-02 -0.100304D+00 -0.590562D-02 -0.241173D-01
     45 -0.416185D-02 -0.134691D-01  0.284177D-01 -0.254320D-01 -0.428118D-01
     46 -0.452263D-02  0.439609D-03  0.252838D-01 -0.770249D-02  0.115195D-02
     47 -0.231295D-02 -0.110035D-03 -0.112114D-01 -0.349779D-02  0.109669D-02
     48 -0.628838D-03 -0.534416D-02  0.751310D-02 -0.221181D-02 -0.942380D-02
     49  0.404223D-02 -0.205843D-02  0.170972D-01 -0.868409D-03 -0.435361D-02
     50 -0.344186D-02  0.847675D-04  0.224999D-02 -0.263926D-02  0.104055D-03
     51 -0.144774D-03 -0.328786D-02  0.316228D-04  0.207953D-03 -0.355770D-02
               16            17            18            19            20 
     16  0.825949D+01
     17  0.292707D+01  0.174499D+02
     18  0.135225D+00  0.268462D+01  0.273751D+02
     19 -0.320427D+00  0.126266D+01 -0.110143D+01  0.101317D+02
     20  0.906976D+00 -0.987078D+01 -0.115305D+01 -0.332181D+01  0.142571D+02
     21 -0.938550D+00 -0.122629D+01 -0.135230D+02  0.171433D+01  0.360829D+01
     22 -0.119727D-01  0.160058D-01  0.123041D-01  0.110261D+00 -0.950975D-02
     23  0.118048D-01 -0.602381D-01 -0.892639D-02 -0.966385D-02 -0.293278D-01
     24 -0.389476D-01 -0.622754D-02 -0.405043D-01 -0.624696D-01  0.202120D-02
     25  0.214002D-01 -0.978522D-02  0.926783D-04  0.198999D-01 -0.305631D-02
     26 -0.442879D-02 -0.566363D-02 -0.194620D-03 -0.259427D-02 -0.464434D-02
     27 -0.378155D-02  0.771900D-03 -0.755308D-02 -0.311941D-02  0.429057D-03
     28  0.728318D-02 -0.134023D-01  0.101285D-01  0.137524D-01 -0.768028D-02
     29 -0.135575D-01 -0.279363D-02 -0.714572D-02 -0.113084D-01 -0.327037D-02
     30  0.195232D-01 -0.134471D-01  0.117454D-02  0.200959D-01 -0.593226D-02
     31  0.132801D-02 -0.125710D-01 -0.519727D-03  0.315684D-02 -0.597538D-02
     32 -0.240906D-01  0.157302D-01  0.164746D-02 -0.219901D-01  0.404483D-02
     33 -0.703050D-02  0.900664D-02 -0.103525D-01 -0.902167D-02  0.474527D-02
     34  0.216921D-01  0.969586D-02  0.395565D-01  0.192908D-01  0.505698D-02
     35  0.787976D-02 -0.262271D-01  0.719563D-02  0.462055D-02 -0.926254D-02
     36  0.540703D-01  0.129737D-01  0.198665D-01  0.312736D-01  0.614082D-02
     37 -0.435298D-01 -0.521960D-02 -0.451299D-01  0.187696D-01  0.149749D-01
     38  0.371066D-01  0.290655D-01 -0.220517D-01  0.507107D-01  0.306534D-02
     39 -0.420265D-01 -0.234084D-01 -0.279064D-01 -0.126824D-01 -0.557622D-02
     40  0.767060D-01  0.258381D-01  0.196981D-02  0.282675D-01  0.833504D-02
     41  0.310394D-01 -0.177014D-01  0.258493D-02  0.929531D-02 -0.390982D-02
     42 -0.190260D-02 -0.156198D-02 -0.211753D-01 -0.347422D-02 -0.801018D-03
     43 -0.426873D+01  0.838297D+00 -0.168456D+00 -0.191535D+00 -0.289073D+00
     44  0.107209D+01 -0.198152D+01 -0.585430D+00 -0.342857D+00  0.529170D-01
     45 -0.245020D+00 -0.642314D+00 -0.452553D+01  0.134359D+00  0.675180D-01
     46 -0.389813D+00  0.347321D+00 -0.646093D-01 -0.340484D+01 -0.139554D+01
     47  0.378382D+00  0.267695D+00  0.150409D-01 -0.132955D+01 -0.258996D+01
     48 -0.676377D-01  0.126443D-01  0.360268D+00  0.324275D+00 -0.479290D+00
     49  0.347445D+00  0.167577D+00 -0.652944D-01 -0.277587D+00 -0.456432D-01
     50  0.142466D+00 -0.374159D-01 -0.194923D-01 -0.170943D+00  0.936925D-01
     51 -0.528486D-01 -0.195883D-01 -0.830323D-01  0.612657D-01  0.165050D-02
               21            22            23            24            25 
     21  0.258105D+02
     22 -0.240503D-01  0.433553D+01
     23  0.181703D-02  0.132000D+00  0.442908D+01
     24 -0.189023D-01  0.403417D+00  0.484953D+00  0.105387D+01
     25 -0.319093D-02 -0.928438D-02  0.626020D-02  0.186440D-02  0.151772D+01
     26  0.307660D-03  0.886143D-02 -0.457182D-03  0.402336D-02 -0.112603D+00
     27 -0.389735D-02 -0.813571D-02  0.350589D-02 -0.122181D-03  0.568712D+00
     28  0.478149D-02 -0.216989D-01 -0.215151D-01  0.472747D-01  0.186302D-01
     29 -0.206395D-02 -0.164786D-01  0.200804D-02 -0.715240D-01 -0.666648D-01
     30 -0.288293D-02  0.321006D-01 -0.613041D-01  0.909394D-01  0.200124D+00
     31 -0.135282D-02  0.211559D-01  0.213444D-01 -0.114155D-01 -0.799988D-01
     32  0.422426D-02  0.167135D-01 -0.468509D-01  0.281406D-01 -0.166610D+00
     33 -0.460427D-02 -0.462648D-02  0.285577D-01  0.970939D-02 -0.263291D-01
     34  0.108870D-01 -0.340623D-01  0.960272D-02  0.363943D-01  0.331728D-04
     35  0.192551D-02  0.613712D-02 -0.223018D-01  0.635588D-01 -0.603425D-02
     36  0.167906D-03  0.207540D-01  0.515776D-01  0.144897D+00 -0.136662D-01
     37 -0.604989D-02  0.407928D-01  0.101054D-01  0.343086D-02  0.673636D-02
     38 -0.483202D-02  0.170328D-01 -0.491737D-01 -0.755618D-01 -0.876718D-02
     39 -0.193308D-01  0.146379D-01 -0.643485D-01 -0.182317D-01  0.465966D-03
     40 -0.285988D-02 -0.663172D-03 -0.320366D-03  0.105110D-01 -0.120412D-01
     41 -0.544657D-03 -0.962362D-03 -0.251652D-02  0.465077D-02 -0.135334D-01
     42 -0.541976D-02 -0.223518D-02 -0.148319D-02 -0.140792D-02  0.161657D-02
     43  0.102985D+00  0.121951D-02 -0.989367D-02 -0.109876D-01  0.362836D-02
     44  0.599113D-01 -0.202631D-01 -0.214203D-02  0.220837D-01 -0.114038D-01
     45  0.191941D+00 -0.761350D-02  0.396463D-02 -0.909659D-02  0.856353D-03
     46  0.350068D+00  0.246958D-02 -0.540320D-03 -0.515889D-02  0.372885D-02
     47 -0.489037D+00 -0.285242D-02 -0.706585D-03  0.461107D-02 -0.388478D-02
     48 -0.441411D+01 -0.465860D-03  0.234251D-03 -0.168251D-02  0.782452D-03
     49  0.352200D-01  0.383871D-02  0.102143D-02 -0.734550D-02  0.600516D-02
     50  0.792077D-02  0.141005D-03 -0.560126D-03  0.158436D-03 -0.436318D-03
     51  0.796500D-01 -0.612401D-03 -0.109417D-03  0.142533D-04 -0.234025D-03
               26            27            28            29            30 
     26  0.360451D+01
     27  0.981538D-02  0.361094D+01
     28 -0.456061D-01  0.187502D+00  0.374963D+01
     29  0.104765D+00  0.900945D-01  0.176856D+00  0.368464D+01
     30  0.658556D-01 -0.126612D+00 -0.403155D+00  0.659530D+00  0.169019D+01
     31 -0.152914D+00 -0.365028D-01  0.850789D-01 -0.151595D-01 -0.434722D-01
     32 -0.253958D-01 -0.157284D-01 -0.279751D-01  0.637349D-01 -0.115085D+00
     33 -0.580078D-02  0.100947D+00 -0.739027D-01 -0.118868D+00 -0.142384D+00
     34 -0.312021D-02 -0.330138D-02 -0.188180D-01 -0.763860D-02 -0.164261D-03
     35  0.107697D-02  0.495487D-02 -0.134302D-01  0.443271D-01 -0.261587D-02
     36  0.666498D-02  0.504202D-02 -0.458536D-02  0.209169D-01 -0.265667D-01
     37 -0.288731D-02 -0.184179D-02  0.398276D-03 -0.265255D-02  0.496633D-02
     38  0.193205D-02  0.180697D-02 -0.138884D-02  0.175658D-02 -0.675095D-02
     39  0.760025D-04 -0.182806D-02  0.557884D-03 -0.143355D-02  0.164137D-02
[...]
 .2887773211\H,-1.7825923643,1.7255787041,1.5842613554\H,-0.2929360941,
 1.5523877522,2.5199918685\H,-1.8544993064,1.2167159759,3.2819000977\H,
 1.3639416676,-0.565176142,1.7402606316\H,2.6804807529,0.5181897559,0.0
 466038334\H,1.7493385795,1.3107143959,-1.7705355713\\Version=EM64L-G16
 RevA.03\State=1-A\HF=-346.9414281\RMSD=3.001e-09\RMSF=3.024e-07\ZeroPo
 int=0.1467832\Thermal=0.1556428\Dipole=0.5784736,0.2621905,0.3827665\D
 ipoleDeriv=-1.5716431,-0.2697059,0.6989411,-0.2132773,-0.4168205,0.140
 0319,0.2669216,0.0027193,-0.6440331,-0.1826649,0.1956197,-0.3768323,-0
 .0949102,-0.5217295,0.3961774,0.2315672,0.4296337,-1.2496975,0.728979,
 0.0320169,-0.2908992,0.0222062,0.4790459,0.0240412,-0.4853388,-0.01664
 18,0.7338354,-0.0690819,-0.0446775,0.0068059,-0.0609987,0.0181553,-0.0
 223142,-0.0157629,-0.0285626,0.0560798,-0.0135785,-0.0392533,-0.002672
 1,0.0217164,-0.1338987,-0.1032137,0.0770102,-0.0325955,0.0043347,1.123
 4821,0.2371888,-0.3596744,0.2457603,-0.028934,-0.1727477,0.1713754,-0.
 0686548,-0.1040199,-0.0698795,-0.1467113,0.4232989,0.0675054,0.1080085
 ,-0.510886,-0.0890113,-0.5039595,0.9595349,-0.0841013,0.0698438,-0.092
 4307,0.0485113,-0.0770828,0.0695477,0.0059256,0.0572794,-0.1011351,-0.
 022133,-0.0144859,0.0689894,0.0025937,0.0671071,-0.0209031,0.1027632,-
 0.0010998,-0.0697686,0.0212883,0.0059483,-0.0302565,0.04931,0.0014897,
 0.0810943,-0.0818071,0.0517821,-0.0130222,0.0449245,0.021829,-0.001518
 4,-0.0178809,-0.1050409,-0.0526862,-0.0226449,-0.0624722,0.0572396,0.0
 260525,0.048443,-0.0451785,0.022678,0.0035545,0.0218067,-0.0755703,0.0
 776371,-0.022898,-0.0804318,-0.0783411,-0.0392232,-0.0564375,0.0005116
 ,-0.0047308,-0.0351606,-0.0071265,0.0781092,0.0080138,0.0210628,0.1025
 481,0.0173507,0.0588648,0.0028196,0.1023173,-0.0197395,-0.0753088,-0.0
 123648,-0.012522,-0.0091219,-0.0333035,0.0830869,0.1063432,-0.1124479,
 0.0700464,0.0035665,-0.0714524,-0.0087433,-0.0426981,-0.014545,0.12487
 59,0.0600294,-0.0091778,0.060922,0.0206158,0.2245912,-0.0175121,-0.010
 0782,-0.0062789,0.3388062,-0.0144095,-0.0309589,-0.0091678,0.3665671\P
 olar=77.2075454,6.6637137,60.2817221,-12.684126,-6.8557879,71.4059511\
 Quadrupole=3.2982869,-2.9570259,-0.3412611,2.0396676,-3.9127205,-2.643
 3796\PG=C01 [X(C5H10O2)]\NImag=0\\0.52511977,0.05897390,0.09499225,-0.
 06773640,0.01683064,0.34516991,0.01256746,0.00503003,-0.00027602,0.445
 18004,-0.00410608,-0.00590436,-0.00513246,0.12252916,0.16757371,0.0166
 1448,-0.00136966,0.00129469,-0.10114968,-0.25767336,0.48488403,-0.1027
 1656,0.00026496,0.03055894,-0.00107418,0.00215590,-0.00329850,0.547171
 90,0.00528219,-0.06128416,-0.01426676,-0.00112757,0.00004270,-0.001643
 56,-0.01250634,0.52902491,0.05750183,-0.00847044,-0.19107165,0.0027488
 0,-0.00182343,0.00562583,0.06540577,-0.04022566,0.52135063,-0.03274272
 ,-0.00897203,0.00599602,0.00000230,-0.00003427,0.00016559,-0.18123126,
 -0.04456351,-0.02806905,0.51252751,0.00007067,0.00250013,0.00137712,-0
 .00003287,0.00014085,-0.00031795,-0.04623935,-0.10199353,-0.00948090,-
 0.03126753,0.57767409,0.04360410,0.01197223,-0.00124030,-0.00047560,0.
 00018765,-0.00055644,-0.04246889,-0.01443480,-0.08548724,-0.02348071,-
 0.00244681,0.58528718,-0.00837390,0.02081669,0.01809149,-0.00004209,0.
 00015099,0.00028746,-0.08162747,0.00248833,-0.00479246,0.00209310,-0.0
 3321827,-0.01055584,0.58636595,0.00331350,-0.00060652,-0.00785265,0.00
 002211,0.00022214,-0.00012680,0.00513880,-0.19777283,-0.02747266,-0.00
 422191,-0.01851585,-0.00483821,0.01069866,0.48997036,0.01805612,-0.035
 14307,-0.02547295,-0.00081258,0.00054853,-0.00112039,-0.00383278,-0.01
 872053,-0.08025455,-0.00328929,-0.00882114,-0.00080203,-0.00141464,-0.
 02685492,0.57897677,-0.30892409,-0.04176342,-0.01577430,0.01201753,0.0
 1446896,-0.03294113,-0.04826263,-0.00545246,0.01835652,-0.00099974,0.0
 0100975,0.00093297,0.00363392,0.00165974,-0.00361220,0.68925717,-0.048
 26232,-0.05274307,0.00592372,-0.00789178,-0.00134691,0.02358835,-0.003
 44398,-0.00651061,0.00531498,-0.00106128,0.00018838,0.00132491,0.00353
 749,0.00095575,-0.00298137,0.13485865,0.29248892,-0.04838704,0.0002224
 7,-0.10532972,0.01308491,0.03366834,-0.04738219,0.03613188,0.00803444,
 0.00393701,0.00292367,-0.00074674,-0.00579064,0.00166733,-0.00032293,-
 0.00221592,-0.07519987,-0.29604666,0.71613926,-0.05884273,-0.03031701,
 0.03265429,-0.14645534,0.03427097,-0.10237851,0.00112951,0.00000420,-0
 .01077978,-0.00069606,0.00034445,0.00247397,-0.00027575,-0.00032865,0.
 00148166,-0.23467649,-0.11583068,0.16935800,0.75689373,-0.01100076,0.0
 0515390,0.00667531,0.01151705,-0.07911895,0.09595976,0.00160626,0.0002
 1823,-0.00151325,0.00012872,0.00011271,-0.00039807,-0.00070745,-0.0003
 5304,-0.00053053,-0.12571663,-0.16093618,0.16359234,0.14946073,0.29059
 535,-0.01435803,-0.00214240,0.01311401,-0.06051189,0.10242785,-0.25339
 004,0.00048056,0.00083957,-0.00586236,-0.00048112,-0.00003555,0.001571
 52,-0.00013255,0.00034796,0.00162512,0.19524009,0.17007700,-0.31961748
 ,-0.08487769,-0.29629350,0.66125018,0.00253341,-0.00996294,0.02046676,
 -0.00005685,-0.00025299,-0.00008757,-0.10864659,0.06476127,-0.08377136
 ,-0.01526935,0.01593900,-0.02137190,0.00015906,0.00030540,-0.00202797,
 0.00479719,-0.00148123,0.00394064,-0.00014561,0.00014138,-0.00003350,0
 .11803606,-0.00324432,0.00505110,-0.00084416,0.00004222,0.00023421,-0.
 00010681,0.06422276,-0.12530324,0.09132711,-0.00750770,0.00756512,-0.0
 1027174,0.01661931,-0.02004540,0.02158311,0.00067693,0.00037871,0.0001
 6837,-0.00039840,-0.00016164,-0.00018545,-0.06792487,0.13523962,0.0022
 4171,0.01484668,-0.04039147,-0.00011387,-0.00000769,-0.00007726,-0.079
 07005,0.08968776,-0.15814701,-0.00423044,0.00259602,-0.00263542,0.0036
 7165,-0.00564750,0.00849236,-0.00744545,-0.00116368,-0.00019949,0.0012
 5180,0.00007844,0.00036888,0.08281979,-0.09867446,0.18990863,-0.008533
 63,-0.00265046,-0.00105376,0.00021046,-0.00016487,0.00039244,-0.011412
 29,0.00352999,0.02615482,-0.13585081,0.00264666,0.12517403,0.00092833,
 0.00064304,0.00050524,0.00075419,-0.00049076,0.00181494,-0.00093410,0.
 00016782,-0.00058074,0.00062145,0.00085821,-0.00049813,0.14687406,-0.0
 0344001,-0.00022017,-0.00025056,0.00003746,0.00000064,0.00011676,-0.00
 413237,-0.00119993,0.01154192,0.00383255,-0.04733317,-0.00716344,0.000
 27821,0.00016729,0.00019723,-0.00024812,0.00037727,0.00057896,-0.00020
 785,0.00003284,-0.00016228,0.00030061,0.00029361,-0.00019010,-0.002808
 12,0.04674958,-0.00133294,-0.00054106,0.00116739,0.00001509,0.00006545
 ,-0.00006209,-0.00431543,0.00009655,0.00461559,0.12799387,-0.00580817,
 -0.23033959,-0.00002279,-0.00013724,-0.00020433,-0.00068634,-0.0001886
 4,0.00066382,-0.00003651,0.00002419,-0.00002528,0.00065550,0.00042262,
 0.00031877,-0.13964522,0.00737399,0.24785193,0.00296239,0.00008032,0.0
 0000257,0.00006876,-0.00007396,0.00014979,-0.01715216,0.01720023,-0.02
 527415,-0.09842844,0.06243721,-0.08523142,0.00113978,0.00162265,0.0006
 3601,-0.00038498,-0.00002702,0.00004998,0.00011764,0.00006703,-0.00001
 355,-0.00493879,-0.00303317,-0.00046412,0.00945577,-0.01122036,0.01358
 047,0.10828573,0.00135652,0.00007458,-0.00032427,-0.00004562,-0.000019
 02,-0.00007016,-0.00623763,0.00661959,-0.01064929,0.06370937,-0.123653
 08,0.10388542,-0.00020845,0.00157800,-0.00090970,-0.00020877,0.0000267
 9,-0.00031972,0.00012443,-0.00003402,0.00014775,-0.00275796,-0.0002979
 8,-0.00056932,-0.00151493,0.00002788,-0.00196187,-0.06727638,0.1305056
 7,0.00008848,-0.00033043,0.00122990,0.00004046,-0.00008030,0.00011977,
 -0.00335846,0.00408737,-0.00717253,-0.08718303,0.10278484,-0.18860623,
 0.00050646,0.00035113,0.00006205,0.00046069,-0.00012395,0.00025619,-0.
 00013278,0.00003345,-0.00009887,-0.00102801,-0.00098311,0.00089068,-0.
 01244009,0.01327332,-0.01744419,0.09753099,-0.11272744,0.20235031,0.00
 266362,0.00144861,-0.00049397,-0.00007047,0.00009288,-0.00014588,0.003
 19799,-0.03176254,-0.00951687,-0.05037534,0.02955798,0.00917384,-0.005
 97414,-0.00136196,-0.00038862,-0.00030742,0.00012985,-0.00017601,0.000
 27876,-0.00002252,0.00012197,0.00141383,0.00071620,0.00014461,-0.00212
 968,0.01797766,0.00386580,-0.00208019,0.01297379,0.00544207,0.05326854
 ,0.00095167,0.00126585,0.00054239,-0.00001147,0.00004066,0.00003856,0.
 00264078,-0.01295937,-0.00382541,0.02643178,-0.29334685,-0.07718392,-0
 .00351677,0.00029769,-0.00048476,-0.00029125,0.00025271,0.00016530,0.0
 0011169,0.00007365,-0.00002365,-0.00031231,0.00082485,0.00000498,0.000
 17207,0.00153189,0.00064364,0.00128182,-0.01472667,-0.00550235,-0.0278
 6665,0.31699908,0.00016562,0.00084630,0.00032721,0.00002575,-0.0000512
 5,0.00005196,0.00164840,-0.00679792,-0.00402267,0.00757657,-0.07755099
 ,-0.07188437,-0.00169793,-0.00008727,0.00010276,0.00013480,0.00014171,
 0.00005313,-0.00006982,0.00006137,-0.00005553,0.00032170,-0.00005252,-
 0.00016238,0.00113133,-0.02499979,-0.00713069,-0.00180173,0.02299905,0
 .00825002,-0.00742099,0.08616202,0.07372798,0.00012108,-0.00057640,0.0
 0006556,0.00028797,-0.00033534,0.00040385,-0.00198281,0.00213217,-0.00
 149036,0.00052285,-0.00077194,0.00087809,-0.10392446,0.06504748,-0.088
 06206,-0.00043590,0.00001248,-0.00005098,-0.00021704,0.00036069,-0.000
 43139,0.00086522,0.00023744,0.00028309,-0.00002270,-0.00002112,0.00013
 022,0.00040351,-0.00008814,-0.00017077,-0.00008496,0.00004600,0.000056
 87,0.10803669,-0.00142406,0.00352995,-0.00021777,-0.00002387,0.0000034
 1,0.00003703,0.01570956,-0.02150613,0.02604551,0.00123677,0.00160876,0
 .00104866,0.06467456,-0.12176313,0.10097818,0.00032965,-0.00009865,-0.
 00002946,0.00000092,-0.00012120,0.00004588,0.00014176,-0.00573490,-0.0
 0275832,-0.00005524,-0.00004139,-0.00005186,-0.00093014,-0.00006349,-0
 .00068632,-0.00004540,0.00049286,-0.00032782,-0.07186579,0.13573758,-0
 .00106693,0.00042345,0.00182736,0.00001245,-0.00006474,0.00013879,0.00
 474578,-0.00596164,0.00577694,0.00072277,-0.00002981,0.00061774,-0.088
 08096,0.10326024,-0.18373874,0.00037866,0.00037189,0.00006763,-0.00012
 245,0.00009749,-0.00010551,0.00038152,-0.00236680,0.00036513,-0.000114
 83,0.00011020,-0.00001625,0.00013128,0.00034808,0.00004007,0.00017678,
 -0.00003100,0.00010945,0.09722410,-0.11152898,0.19559568,0.00054513,-0
 .00062276,-0.00078758,0.00007748,-0.00011748,-0.00012417,0.00262936,0.
 00155338,0.00084927,0.00083055,-0.00004059,0.00049662,-0.27389971,-0.0
 9289085,-0.03834994,-0.00054690,0.00067214,0.00087451,-0.00012936,0.00
 041337,0.00007967,0.00051691,-0.00070007,-0.00012841,0.00009155,0.0002
 0349,-0.00006099,0.00016846,0.00015320,0.00022703,0.00011424,0.0001042
 5,0.00006606,-0.01232846,-0.00509876,-0.00096017,0.29587506,0.00045653
 ,0.00225552,0.00179299,0.00015493,-0.00038547,0.00064226,-0.03265988,-
 0.01185004,-0.00449524,0.00240431,-0.00604632,-0.00198854,-0.09081381,
 -0.08466106,-0.01493982,-0.00014293,-0.00006066,-0.00056548,0.00038233
 ,0.00043878,-0.00058896,0.00025263,0.00131024,0.00056943,0.00026967,0.
 00013014,0.00018597,0.00001876,0.00003999,-0.00016688,-0.00191510,-0.0
 0074618,-0.00064943,0.01660291,0.00680265,0.00147261,0.10142793,0.0929
 7666,0.00000924,0.00090742,0.00043891,0.00005475,-0.00013067,0.0002742
 4,-0.00910769,-0.00308728,-0.00308098,0.00073496,-0.00209571,-0.000274
 47,-0.03721141,-0.01430137,-0.05331480,-0.00021680,-0.00068114,0.00008
 332,0.00028162,0.00048182,-0.00058586,0.00059442,0.00027674,0.00009470
 ,-0.00031532,-0.00002591,0.00023417,0.00042067,0.00012225,0.00028757,-
 0.00057406,-0.00044610,0.00038896,-0.02101295,-0.00975414,-0.00311997,
 0.04102276,0.01765061,0.05320052,0.00041393,0.00052228,0.00019386,0.00
 009552,-0.00019262,0.00022935,-0.00291677,-0.00102007,0.00067277,-0.00
 018026,-0.00025155,-0.00004630,-0.11988741,0.01039031,0.12052904,0.000
 46952,0.00014012,0.00037823,0.00005629,0.00036159,-0.00042639,-0.00000
 505,0.00023785,-0.00019117,0.00017161,-0.00044977,-0.00023818,0.000019
 19,0.00004342,-0.00011432,0.00001652,0.00017862,-0.00008953,0.00855726
 ,-0.00243936,-0.01336654,-0.01388986,0.00319456,0.02525093,0.12707536,
 0.00377624,-0.00709640,-0.00543373,-0.00022262,0.00012369,-0.00044006,
 0.01571300,0.00322092,-0.02524473,0.00010413,0.00109570,0.00019753,0.0
 0912913,-0.04915736,-0.01435793,-0.00266664,-0.00066568,-0.00013948,0.
 00071318,0.00028864,0.00035486,0.00020541,0.00087957,0.00121699,-0.000
 56284,-0.00043084,-0.00007893,-0.00008912,-0.00005421,0.00000412,0.000
 17376,0.00013227,0.00034241,-0.01067145,0.00117768,0.01389371,-0.00520
 467,0.00016282,0.01120491,-0.01060515,0.05031561,0.00167389,-0.0030131
 6,0.00005385,-0.00003144,0.00002077,-0.00027101,0.00378004,0.00280041,
 -0.00820246,0.00024403,0.00065573,-0.00004462,0.12000354,-0.01624118,-
 0.24218341,-0.00161472,-0.00019338,0.00007840,0.00025373,0.00016157,0.
 00011534,0.00000387,-0.00045982,0.00037076,-0.00048090,-0.00036463,0.0
 0037444,0.00009215,-0.00009059,-0.00001973,-0.00017701,-0.00001178,0.0
 0029654,0.01215108,-0.00274929,-0.01749528,-0.00322917,0.00109966,0.00
 544332,-0.13281762,0.01839433,0.26137145,-0.02866202,0.00897740,-0.025
 01629,-0.00248529,-0.00254711,0.00184997,0.00265552,0.00067111,-0.0073
 9519,-0.00007361,-0.00022668,0.00060591,-0.00029044,-0.00007594,0.0006
 7450,-0.10060608,0.03666610,-0.09607956,0.01163037,-0.00536750,0.01325
 627,0.00027019,-0.00078758,0.00149865,-0.00014613,-0.00008407,0.000112
 50,0.00031825,-0.00002483,0.00014475,0.00004861,0.00006138,-0.00005014
 ,0.00015161,-0.00020186,-0.00005430,-0.00003796,0.00030779,0.00002465,
 -0.00000110,0.00020639,0.00014503,0.11673871,-0.00427012,0.00558497,-0
 .00589535,-0.00290680,0.00523867,0.00500728,-0.00029384,0.00102879,-0.
 00101303,-0.00007429,-0.00003921,-0.00020864,0.00022108,-0.00001131,0.
 00044814,0.03669878,-0.07222210,0.09488005,0.00724208,-0.00383435,0.00
 872771,0.00052270,-0.00018714,0.00007290,0.00003333,0.00000373,0.00002
 223,-0.00004079,-0.00004107,0.00005232,-0.00006195,-0.00006737,-0.0000
 3463,-0.00012692,-0.00007656,-0.00002831,0.00006329,-0.00044748,-0.000
 09784,-0.00014528,-0.00000255,-0.00001139,-0.03739208,0.06743047,-0.00
 720170,0.00081280,-0.00047767,0.00388807,0.00334435,0.00189512,0.00278
 154,-0.00177948,0.00168376,0.00021457,-0.00006354,0.00048173,-0.000221
 60,-0.00000278,-0.00007292,-0.09420604,0.09384084,-0.24594204,-0.01393
 526,0.00519649,-0.01345704,-0.00101439,0.00022187,0.00086880,-0.000131
 00,-0.00003080,-0.00001383,0.00020403,0.00011566,-0.00014787,0.0000008
 4,-0.00000252,-0.00003410,0.00000004,-0.00001822,-0.00003985,0.0000049
 0,0.00003973,0.00001561,0.00003612,0.00009384,0.00006738,0.10919516,-0
 .10115083,0.25657763,0.00071566,-0.00132283,0.00247604,-0.00711038,0.0
 0185500,-0.00588219,0.00017520,-0.00098386,-0.00083773,-0.00014661,0.0
 0006042,0.00030295,-0.00002783,0.00004875,-0.00003012,-0.01269380,0.00
 113150,-0.00615559,-0.33842573,-0.03432461,-0.02742071,-0.00008702,-0.
 00001327,0.00015134,-0.00009371,-0.00001870,-0.00000904,0.00003138,0.0
 0000280,-0.00001594,0.00002813,0.00001405,-0.00000199,0.00003427,0.000
 00044,-0.00001021,-0.00002017,0.00001854,0.00001451,-0.00001379,0.0000
 0899,0.00001449,0.00015107,0.00036535,0.00102142,0.35652472,-0.0002007
 3,0.00733516,0.00743885,0.01441276,0.00191563,0.00578931,-0.00154697,0
 .00027040,-0.00059532,-0.00016043,0.00005377,0.00038194,-0.00016662,-0
 .00026535,0.00008001,-0.01424587,0.00008153,-0.00434751,-0.03303888,-0
 .04034222,0.00802116,0.00017078,-0.00005669,0.00000778,-0.00010938,-0.
 00009980,-0.00005167,-0.00000674,0.00001623,-0.00000248,-0.00001536,-0
 .00004244,-0.00001000,-0.00000933,0.00001905,0.00000040,0.00011486,0.0
 0002799,-0.00003832,0.00002184,0.00005891,0.00003037,0.00047444,-0.003
 86278,-0.00160615,0.03304955,0.03362097,0.00243277,0.00530310,-0.00169
 969,-0.03173933,0.00235399,-0.01131770,-0.00055249,0.00123560,0.001100
 50,0.00017938,-0.00002566,-0.00041164,-0.00006259,-0.00010147,-0.00003
 147,0.02025169,-0.00051504,0.00819899,-0.02564067,0.00940203,-0.056022
 13,0.00017978,-0.00001721,-0.00020218,0.00014662,0.00000488,-0.0000044
 9,-0.00002962,-0.00001169,0.00001890,-0.00004776,-0.00003334,-0.000001
 75,-0.00000114,-0.00002183,0.00000446,0.00004318,-0.00002871,-0.000010
 54,0.00004323,-0.00002760,-0.00000666,0.00041572,-0.00200953,-0.000999
 79,0.03664759,-0.01415807,0.05885268,0.00115319,0.00007367,0.00063277,
 -0.31321293,-0.16769914,0.22591470,0.00006324,-0.00020652,0.00023717,0
 .00001789,-0.00001737,-0.00001182,0.00000307,-0.00001112,-0.00006235,-
 0.00309150,0.00134071,-0.00417504,0.01069190,0.01291482,-0.01991100,-0
 .00006407,-0.00000154,0.00007902,0.00001562,0.00000053,-0.00000600,0.0
 0001371,-0.00000083,0.00000246,-0.00000805,0.00000433,0.00000502,0.000
 01586,-0.00000917,0.00000306,0.00000367,0.00004082,0.00002974,0.000019
 05,-0.00000775,-0.00001099,0.00033829,0.00016545,-0.00063668,0.0009586
 0,0.00125610,-0.00226637,0.30308244,0.00176719,0.00011128,-0.00036330,
 -0.14148311,-0.08876161,0.13056905,-0.00039165,-0.00004571,0.00057986,
 0.00001532,-0.00001152,-0.00006416,0.00001691,-0.00003938,-0.00009144,
 0.00103362,-0.00016621,0.00120770,-0.01253351,-0.01201251,0.00844205,-
 0.00004864,0.00000995,-0.00006993,0.00003581,0.00001041,-0.00001520,-0
 .00001033,0.00000082,0.00001673,-0.00001926,-0.00002265,0.00000877,0.0
 0002726,0.00003350,0.00003323,-0.00003073,0.00005241,0.00001472,0.0000
 1320,-0.00004877,-0.00002763,-0.00065695,0.00150529,0.00098874,0.00010
 787,0.00126965,-0.00134946,0.15215701,0.09811503,-0.00230519,-0.001154
 86,0.00106020,0.17524014,0.12234698,-0.18010733,0.00047138,0.00013594,
 -0.00078883,-0.00001779,0.00000926,0.00011481,-0.00003516,0.00002765,0
 .00015245,-0.00405858,0.00131047,-0.00300026,0.03021838,0.01697109,-0.
 02882496,-0.00002929,-0.00003774,0.00013649,-0.00005940,-0.00000979,0.
 00001461,0.00001665,0.00001586,-0.00001603,0.00001527,-0.00001205,-0.0
 0001650,0.00002674,-0.00001126,-0.00002763,-0.00002355,-0.00003021,-0.
 00007471,-0.00004347,0.00001975,0.00005169,0.00067237,0.00123894,-0.00
 040491,-0.00026482,-0.00094029,0.00253250,-0.19982368,-0.13987975,0.20
 919841\\0.00000003,0.00000004,-0.00000006,0.00000048,0.00000035,0.0000
 0040,-0.00000011,-0.00000012,-0.00000007,0.00000006,-0.00000029,-0.000
 00043,-0.00000038,-0.00000012,-0.00000011,0.00000029,0.00000017,0.0000
 0026,0.00000017,0.00000041,0.00000029,-0.00000015,-0.00000009,-0.00000
 009,-0.00000010,-0.00000039,-0.00000056,0.00000013,-0.00000029,-0.0000
 0050,0.00000024,-0.00000022,-0.00000046,-0.00000025,-0.00000019,-0.000
 00011,-0.00000039,-0.00000005,0.00000013,-0.00000049,-0.00000028,-0.00
 000020,0.,0.00000019,0.00000032,0.00000014,0.00000044,0.00000062,0.000
 00035,0.00000044,0.00000057\\\@


 A ROPE OVER THE TOP OF A FENCE HAS THE SAME LENGTH ON EACH SIDE.
 WEIGHS 1/3 POUND PER FOOT.  ON ONE END HANGS A MONKEY HOLDING A
 BANANA, AND ON THE OTHER END A WEIGHT EQUAL TO THE WEIGHT
 OF THE MONKEY.  THE BANANA WEIGHS TWO OUNCES PER INCH.
 THE ROPE IS AS LONG AS THE AGE OF THE MONKEY, 
 AND THE WEIGHT OF THE MONKEY (IN OUNCES) IS AS MUCH
 AS THE AGE OF THE MONKEY'S MOTHER.  THE COMBINED AGES OF MONKEY
 AND MOTHER ARE THIRTY YEARS.  HALF THE WEIGHT OF THE MONKEY,
  PLUS THE WEIGHT OF THE BANANA, IS ONE FOURTH AS MUCH AS THE WEIGHT
 OF THE WEIGHT AND THE ROPE.
 THE MONKEY'S MOTHER IS HALF AS OLD AS THE MONKEY WILL BE
 WHEN IT IS 3 TIMES AS OLD AS ITS MOTHER WAS WHEN
 SHE WAS HALF AS OLD AS THE MONKEY WILL BE WHEN IT IS
 AS OLD AS ITS MOTHER WILL BE WHEN SHE IS 4 TIMES AS
 OLD AS THE MONKEY WAS WHEN IT WAS TWICE AS OLD AS 
 ITS MOTHER WAS WHEN SHE WAS ONE THIRD AS OLD AS THE
 MONKEY WAS WHEN IT WAS AS OLD AS ITS MOTHER WAS WHEN 
 SHE WAS 3 TIMES AS OLD AS THE MONKEY WAS WHEN IT WAS AS OLD AS ITS
 MOTHER WAS WHEN SHE WAS 3 TIMES AS OLD AS THE MONKEY 
 WAS WHEN IT WAS ONE FOURTH WAS OLD AS IT IS NOW.

 HOW LONG IS THE BANANA?
 Job cpu time:       0 days  3 hours  7 minutes 48.3 seconds.
 Elapsed time:       0 days  1 hours 34 minutes 13.8 seconds.
 File lengths (MBytes):  RWF=   1392 Int=      0 D2E=      0 Chk=     32 Scr=     32
 Normal termination of Gaussian 16 at Sat Sep 28 17:31:47 2019.
