 Entering Gaussian System, Link 0=g16
 Input=verytight/species/CC(C)OC=CO/conformers/CC(C)OC=CO_26.com
 Output=verytight/species/CC(C)OC=CO/conformers/CC(C)OC=CO_26.log
 Initial command:
 /shared/centos7/gaussian/g16/l1.exe "/scratch/harms.n/gauss_scrdir/Gau-20122.inp" -scrdir="/scratch/harms.n/gauss_scrdir/"
 Entering Link 1 = /shared/centos7/gaussian/g16/l1.exe PID=     20123.
  
 Copyright (c) 1988,1990,1992,1993,1995,1998,2003,2009,2016,
            Gaussian, Inc.  All Rights Reserved.
  
 This is part of the Gaussian(R) 16 program.  It is based on
 the Gaussian(R) 09 system (copyright 2009, Gaussian, Inc.),
 the Gaussian(R) 03 system (copyright 2003, Gaussian, Inc.),
 the Gaussian(R) 98 system (copyright 1998, Gaussian, Inc.),
 the Gaussian(R) 94 system (copyright 1995, Gaussian, Inc.),
 the Gaussian 92(TM) system (copyright 1992, Gaussian, Inc.),
 the Gaussian 90(TM) system (copyright 1990, Gaussian, Inc.),
 the Gaussian 88(TM) system (copyright 1988, Gaussian, Inc.),
 the Gaussian 86(TM) system (copyright 1986, Carnegie Mellon
 University), and the Gaussian 82(TM) system (copyright 1983,
 Carnegie Mellon University). Gaussian is a federally registered
 trademark of Gaussian, Inc.
  
 This software contains proprietary and confidential information,
 including trade secrets, belonging to Gaussian, Inc.
  
 This software is provided under written license and may be
 used, copied, transmitted, or stored only in accord with that
 written license.
  
 The following legend is applicable only to US Government
 contracts under FAR:
  
                    RESTRICTED RIGHTS LEGEND
  
 Use, reproduction and disclosure by the US Government is
 subject to restrictions as set forth in subparagraphs (a)
 and (c) of the Commercial Computer Software - Restricted
 Rights clause in FAR 52.227-19.
  
 Gaussian, Inc.
 340 Quinnipiac St., Bldg. 40, Wallingford CT 06492
  
  
 ---------------------------------------------------------------
 Warning -- This program may not be used in any manner that
 competes with the business of Gaussian, Inc. or will provide
 assistance to any competitor of Gaussian, Inc.  The licensee
 of this program is prohibited from giving any competitor of
 Gaussian, Inc. access to this program.  By using this program,
 the user acknowledges that Gaussian, Inc. is engaged in the
 business of creating and licensing software in the field of
 computational chemistry and represents and warrants to the
 licensee that it is not a competitor of Gaussian, Inc. and that
 it will not use this program in any manner prohibited above.
 ---------------------------------------------------------------
  

 Cite this work as:
 Gaussian 16, Revision A.03,
 M. J. Frisch, G. W. Trucks, H. B. Schlegel, G. E. Scuseria, 
 M. A. Robb, J. R. Cheeseman, G. Scalmani, V. Barone, 
 G. A. Petersson, H. Nakatsuji, X. Li, M. Caricato, A. V. Marenich, 
 J. Bloino, B. G. Janesko, R. Gomperts, B. Mennucci, H. P. Hratchian, 
 J. V. Ortiz, A. F. Izmaylov, J. L. Sonnenberg, D. Williams-Young, 
 F. Ding, F. Lipparini, F. Egidi, J. Goings, B. Peng, A. Petrone, 
 T. Henderson, D. Ranasinghe, V. G. Zakrzewski, J. Gao, N. Rega, 
 G. Zheng, W. Liang, M. Hada, M. Ehara, K. Toyota, R. Fukuda, 
 J. Hasegawa, M. Ishida, T. Nakajima, Y. Honda, O. Kitao, H. Nakai, 
 T. Vreven, K. Throssell, J. A. Montgomery, Jr., J. E. Peralta, 
 F. Ogliaro, M. J. Bearpark, J. J. Heyd, E. N. Brothers, K. N. Kudin, 
 V. N. Staroverov, T. A. Keith, R. Kobayashi, J. Normand, 
 K. Raghavachari, A. P. Rendell, J. C. Burant, S. S. Iyengar, 
 J. Tomasi, M. Cossi, J. M. Millam, M. Klene, C. Adamo, R. Cammi, 
 J. W. Ochterski, R. L. Martin, K. Morokuma, O. Farkas, 
 J. B. Foresman, and D. J. Fox, Gaussian, Inc., Wallingford CT, 2016.
 
 ******************************************
 Gaussian 16:  EM64L-G16RevA.03 25-Dec-2016
                28-Sep-2019 
 ******************************************
 %nprocshared=20
 Will use up to   20 processors via shared memory.
 %mem=5GB
 ----------------------------------------------------------------------
 #p m062x/cc-pVTZ opt=(calcfc,maxcycles=900,Tight) freq IOP(7/33=1,2/16
 =3) scf=(maxcycle=900)
 ----------------------------------------------------------------------
 1/6=900,7=10,10=4,18=20,19=15,26=3,38=1/1,3;
 2/9=110,12=2,16=3,17=6,18=5,40=1/2;
 3/5=16,6=1,11=2,25=1,30=1,71=2,74=-55,140=1/1,2,3;
 4//1;
 5/5=2,7=900,38=5/2;
 8/6=4,10=90,11=11/1;
 11/6=1,8=1,9=11,15=111,16=1/1,2,10;
 10/6=1,13=1/2;
 6/7=2,8=2,9=2,10=2,28=1/1;
 7/10=1,18=20,25=1,33=1/1,2,3,16;
 1/6=900,7=10,10=4,18=20,19=15,26=3/3(2);
 2/9=110,16=3/2;
 99//99;
 2/9=110,16=3/2;
 3/5=16,6=1,11=2,25=1,30=1,71=1,74=-55/1,2,3;
 4/5=5,16=3,69=1/1;
 5/5=2,7=900,38=5/2;
 7/33=1/1,2,3,16;
 1/6=900,7=10,18=20,19=15,26=3/3(-5);
 2/9=110,16=3/2;
 6/7=2,8=2,9=2,10=2,19=2,28=1/1;
 99/9=1/99;
 Leave Link    1 at Sat Sep 28 09:32:32 2019, MaxMem=   671088640 cpu:               3.7 elap:               2.0
 (Enter /shared/centos7/gaussian/g16/l101.exe)
 ------------------------------
 Gaussian input prepared by ASE
 ------------------------------
 Symbolic Z-matrix:
 Charge =  0 Multiplicity = 1
 O                     3.19653   1.72775   1.54269 
 O                     0.4898    0.73508   2.15867 
 C                     2.52016   2.96717   1.52647 
 C                     2.14069   3.39484   0.10869 
 C                     3.35054   3.9923    2.22621 
 C                     2.52904   0.71309   0.89553 
 C                     1.34367   0.25502   1.17681 
 H                     1.56112   2.85796   2.10496 
 H                     3.04332   3.59767  -0.50476 
 H                     1.55309   2.60288  -0.39033 
 H                     1.51911   4.33062   0.13288 
 H                     4.31595   4.19228   1.67423 
 H                     3.60889   3.66042   3.25344 
 H                     2.79292   4.96815   2.30594 
 H                     3.13734   0.22443   0.11775 
 H                     0.90436  -0.56265   0.62469 
 H                     0.99027   1.44535   2.65549 
 
 ITRead=  0  0  0  0  0  0  0  0  0  0  0  0  0  0  0  0  0
 MicOpt= -1 -1 -1 -1 -1 -1 -1 -1 -1 -1 -1 -1 -1 -1 -1 -1 -1
 NAtoms=     17 NQM=       17 NQMF=       0 NMMI=      0 NMMIF=      0
                NMic=       0 NMicF=      0.
                    Isotopes and Nuclear Properties:
 (Nuclear quadrupole moments (NQMom) in fm**2, nuclear magnetic moments (NMagM)
  in nuclear magnetons)

  Atom         1           2           3           4           5           6           7           8           9          10
 IAtWgt=          16          16          12          12          12          12          12           1           1           1
 AtmWgt=  15.9949146  15.9949146  12.0000000  12.0000000  12.0000000  12.0000000  12.0000000   1.0078250   1.0078250   1.0078250
 NucSpn=           0           0           0           0           0           0           0           1           1           1
 AtZEff=  -0.0000000  -0.0000000  -0.0000000  -0.0000000  -0.0000000  -0.0000000  -0.0000000  -0.0000000  -0.0000000  -0.0000000
 NQMom=    0.0000000   0.0000000   0.0000000   0.0000000   0.0000000   0.0000000   0.0000000   0.0000000   0.0000000   0.0000000
 NMagM=    0.0000000   0.0000000   0.0000000   0.0000000   0.0000000   0.0000000   0.0000000   2.7928460   2.7928460   2.7928460
 AtZNuc=   8.0000000   8.0000000   6.0000000   6.0000000   6.0000000   6.0000000   6.0000000   1.0000000   1.0000000   1.0000000

  Atom        11          12          13          14          15          16          17
 IAtWgt=           1           1           1           1           1           1           1
 AtmWgt=   1.0078250   1.0078250   1.0078250   1.0078250   1.0078250   1.0078250   1.0078250
 NucSpn=           1           1           1           1           1           1           1
 AtZEff=  -0.0000000  -0.0000000  -0.0000000  -0.0000000  -0.0000000  -0.0000000  -0.0000000
 NQMom=    0.0000000   0.0000000   0.0000000   0.0000000   0.0000000   0.0000000   0.0000000
 NMagM=    2.7928460   2.7928460   2.7928460   2.7928460   2.7928460   2.7928460   2.7928460
 AtZNuc=   1.0000000   1.0000000   1.0000000   1.0000000   1.0000000   1.0000000   1.0000000
 Leave Link  101 at Sat Sep 28 09:32:34 2019, MaxMem=   671088640 cpu:               3.0 elap:               1.5
 (Enter /shared/centos7/gaussian/g16/l103.exe)

 GradGradGradGradGradGradGradGradGradGradGradGradGradGradGradGradGradGrad
 Berny optimization.
 Initialization pass.
                           ----------------------------
                           !    Initial Parameters    !
                           ! (Angstroms and Degrees)  !
 --------------------------                            --------------------------
 ! Name  Definition              Value          Derivative Info.                !
 --------------------------------------------------------------------------------
 ! R1    R(1,3)                  1.412          calculate D2E/DX2 analytically  !
 ! R2    R(1,6)                  1.3762         calculate D2E/DX2 analytically  !
 ! R3    R(2,7)                  1.3869         calculate D2E/DX2 analytically  !
 ! R4    R(2,17)                 1.0009         calculate D2E/DX2 analytically  !
 ! R5    R(3,4)                  1.5287         calculate D2E/DX2 analytically  !
 ! R6    R(3,5)                  1.4933         calculate D2E/DX2 analytically  !
 ! R7    R(3,8)                  1.1253         calculate D2E/DX2 analytically  !
 ! R8    R(4,9)                  1.1101         calculate D2E/DX2 analytically  !
 ! R9    R(4,10)                 1.1052         calculate D2E/DX2 analytically  !
 ! R10   R(4,11)                 1.1237         calculate D2E/DX2 analytically  !
 ! R11   R(5,12)                 1.1299         calculate D2E/DX2 analytically  !
 ! R12   R(5,13)                 1.11           calculate D2E/DX2 analytically  !
 ! R13   R(5,14)                 1.1267         calculate D2E/DX2 analytically  !
 ! R14   R(6,7)                  1.3016         calculate D2E/DX2 analytically  !
 ! R15   R(6,15)                 1.1017         calculate D2E/DX2 analytically  !
 ! R16   R(7,16)                 1.08           calculate D2E/DX2 analytically  !
 ! A1    A(3,1,6)              114.1693         calculate D2E/DX2 analytically  !
 ! A2    A(7,2,17)             106.8098         calculate D2E/DX2 analytically  !
 ! A3    A(1,3,4)              112.0308         calculate D2E/DX2 analytically  !
 ! A4    A(1,3,5)              109.3183         calculate D2E/DX2 analytically  !
 ! A5    A(1,3,8)              108.4897         calculate D2E/DX2 analytically  !
 ! A6    A(4,3,5)              112.3678         calculate D2E/DX2 analytically  !
 ! A7    A(4,3,8)              106.9991         calculate D2E/DX2 analytically  !
 ! A8    A(5,3,8)              107.4358         calculate D2E/DX2 analytically  !
 ! A9    A(3,4,9)              111.2108         calculate D2E/DX2 analytically  !
 ! A10   A(3,4,10)             110.5029         calculate D2E/DX2 analytically  !
 ! A11   A(3,4,11)             110.5073         calculate D2E/DX2 analytically  !
 ! A12   A(9,4,10)             108.2843         calculate D2E/DX2 analytically  !
 ! A13   A(9,4,11)             108.0313         calculate D2E/DX2 analytically  !
 ! A14   A(10,4,11)            108.2019         calculate D2E/DX2 analytically  !
 ! A15   A(3,5,12)             111.5732         calculate D2E/DX2 analytically  !
 ! A16   A(3,5,13)             110.9654         calculate D2E/DX2 analytically  !
 ! A17   A(3,5,14)             110.6405         calculate D2E/DX2 analytically  !
 ! A18   A(12,5,13)            107.8272         calculate D2E/DX2 analytically  !
 ! A19   A(12,5,14)            107.7057         calculate D2E/DX2 analytically  !
 ! A20   A(13,5,14)            107.9778         calculate D2E/DX2 analytically  !
 ! A21   A(1,6,7)              126.8399         calculate D2E/DX2 analytically  !
 ! A22   A(1,6,15)             113.0303         calculate D2E/DX2 analytically  !
 ! A23   A(7,6,15)             119.9552         calculate D2E/DX2 analytically  !
 ! A24   A(2,7,6)              126.29           calculate D2E/DX2 analytically  !
 ! A25   A(2,7,16)             111.9337         calculate D2E/DX2 analytically  !
 ! A26   A(6,7,16)             121.7644         calculate D2E/DX2 analytically  !
 ! D1    D(6,1,3,4)            -53.4338         calculate D2E/DX2 analytically  !
 ! D2    D(6,1,3,5)           -178.6646         calculate D2E/DX2 analytically  !
 ! D3    D(6,1,3,8)             64.4621         calculate D2E/DX2 analytically  !
 ! D4    D(3,1,6,7)            -59.5226         calculate D2E/DX2 analytically  !
 ! D5    D(3,1,6,15)           125.3272         calculate D2E/DX2 analytically  !
 ! D6    D(17,2,7,6)            -4.6757         calculate D2E/DX2 analytically  !
 ! D7    D(17,2,7,16)          176.5729         calculate D2E/DX2 analytically  !
 ! D8    D(1,3,4,9)            -65.4925         calculate D2E/DX2 analytically  !
 ! D9    D(1,3,4,10)            54.8            calculate D2E/DX2 analytically  !
 ! D10   D(1,3,4,11)           174.5305         calculate D2E/DX2 analytically  !
 ! D11   D(5,3,4,9)             58.0414         calculate D2E/DX2 analytically  !
 ! D12   D(5,3,4,10)           178.3338         calculate D2E/DX2 analytically  !
 ! D13   D(5,3,4,11)           -61.9356         calculate D2E/DX2 analytically  !
 ! D14   D(8,3,4,9)            175.7272         calculate D2E/DX2 analytically  !
 ! D15   D(8,3,4,10)           -63.9804         calculate D2E/DX2 analytically  !
 ! D16   D(8,3,4,11)            55.7502         calculate D2E/DX2 analytically  !
 ! D17   D(1,3,5,12)            65.0679         calculate D2E/DX2 analytically  !
 ! D18   D(1,3,5,13)           -55.2004         calculate D2E/DX2 analytically  !
 ! D19   D(1,3,5,14)          -175.0375         calculate D2E/DX2 analytically  !
 ! D20   D(4,3,5,12)           -59.9675         calculate D2E/DX2 analytically  !
 ! D21   D(4,3,5,13)           179.7642         calculate D2E/DX2 analytically  !
 ! D22   D(4,3,5,14)            59.927          calculate D2E/DX2 analytically  !
 ! D23   D(8,3,5,12)          -177.394          calculate D2E/DX2 analytically  !
 ! D24   D(8,3,5,13)            62.3377         calculate D2E/DX2 analytically  !
 ! D25   D(8,3,5,14)           -57.4995         calculate D2E/DX2 analytically  !
 ! D26   D(1,6,7,2)              2.6645         calculate D2E/DX2 analytically  !
 ! D27   D(1,6,7,16)          -178.6977         calculate D2E/DX2 analytically  !
 ! D28   D(15,6,7,2)           177.5123         calculate D2E/DX2 analytically  !
 ! D29   D(15,6,7,16)           -3.8499         calculate D2E/DX2 analytically  !
 --------------------------------------------------------------------------------
 Trust Radius=3.00D-01 FncErr=1.00D-07 GrdErr=1.00D-06 EigMax=2.50D+02 EigMin=1.00D-04
 Number of steps in this run=    102 maximum allowed number of steps=    102.
 GradGradGradGradGradGradGradGradGradGradGradGradGradGradGradGradGradGrad

 Leave Link  103 at Sat Sep 28 09:32:35 2019, MaxMem=   671088640 cpu:               2.0 elap:               1.1
 (Enter /shared/centos7/gaussian/g16/l202.exe)
                          Input orientation:                          
 ---------------------------------------------------------------------
 Center     Atomic      Atomic             Coordinates (Angstroms)
 Number     Number       Type             X           Y           Z
 ---------------------------------------------------------------------
      1          8           0        3.196528    1.727753    1.542689
      2          8           0        0.489803    0.735084    2.158666
      3          6           0        2.520163    2.967166    1.526472
      4          6           0        2.140690    3.394838    0.108689
      5          6           0        3.350541    3.992303    2.226213
      6          6           0        2.529044    0.713090    0.895527
      7          6           0        1.343672    0.255024    1.176811
      8          1           0        1.561116    2.857957    2.104960
      9          1           0        3.043324    3.597672   -0.504762
     10          1           0        1.553092    2.602881   -0.390328
     11          1           0        1.519106    4.330615    0.132877
     12          1           0        4.315950    4.192279    1.674233
     13          1           0        3.608888    3.660424    3.253436
     14          1           0        2.792924    4.968145    2.305942
     15          1           0        3.137336    0.224433    0.117753
     16          1           0        0.904358   -0.562652    0.624694
     17          1           0        0.990267    1.445354    2.655490
 ---------------------------------------------------------------------
                    Distance matrix (angstroms):
                    1          2          3          4          5
     1  O    0.000000
     2  O    2.948080   0.000000
     3  C    1.412047   3.082892   0.000000
     4  C    2.439328   3.741941   1.528729   0.000000
     5  C    2.370466   4.335650   1.493342   2.510898   0.000000
     6  C    1.376189   2.398855   2.340733   2.821650   3.633018
     7  C    2.394968   1.386935   2.976930   3.410947   4.369900
     8  H    2.065934   2.378484   1.125320   2.146915   2.122142
     9  H    2.777071   4.669981   2.190239   1.110050   2.776390
    10  H    2.683893   3.334159   2.177626   1.105209   3.465199
    11  H    3.402382   4.253367   2.191623   1.123668   2.801903
    12  H    2.710036   5.179408   2.178895   2.796175   1.129905
    13  H    2.613793   4.414162   2.155999   3.480744   1.109989
    14  H    3.353445   4.821293   2.164691   2.780040   1.126748
    15  H    2.072177   3.381644   3.144515   3.323379   4.322950
    16  H    3.367894   2.051595   3.985429   4.178098   5.412604
    17  H    2.487099   1.000891   2.435400   3.407368   3.498874
                    6          7          8          9         10
     6  C    0.000000
     7  C    1.301558   0.000000
     8  H    2.645764   2.772003   0.000000
     9  H    3.247477   4.109721   3.091079   0.000000
    10  H    2.485401   2.830586   2.508304   1.795410   0.000000
    11  H    3.832506   4.210822   2.461625   1.807493   1.805538
    12  H    3.988004   4.958210   3.091125   2.592519   3.797628
    13  H    3.925885   4.586974   2.481194   3.801033   4.315288
    14  H    4.490479   5.058536   2.451661   3.137029   3.794935
    15  H    1.101697   2.083212   3.656352   3.431486   2.902583
    16  H    2.083379   1.080011   3.784585   4.812394   3.386993
    17  H    2.449799   1.930874   1.619999   4.339897   3.306607
                   11         12         13         14         15
    11  H    0.000000
    12  H    3.196443   0.000000
    13  H    3.815000   1.810163   0.000000
    14  H    2.598320   1.822260   1.809330   0.000000
    15  H    4.413573   4.422167   4.675564   5.235417   0.000000
    16  H    4.956194   5.945574   5.662078   6.081364   2.421297
    17  H    3.868847   4.423644   3.481558   3.972633   3.541280
                   16         17
    16  H    0.000000
    17  H    2.857202   0.000000
 Stoichiometry    C5H10O2
 Framework group  C1[X(C5H10O2)]
 Deg. of freedom    45
 Full point group                 C1      NOp   1
 Largest Abelian subgroup         C1      NOp   1
 Largest concise Abelian subgroup C1      NOp   1
                         Standard orientation:                         
 ---------------------------------------------------------------------
 Center     Atomic      Atomic             Coordinates (Angstroms)
 Number     Number       Type             X           Y           Z
 ---------------------------------------------------------------------
      1          8           0        0.183324    0.077983   -1.024688
      2          8           0       -1.975267   -0.985042    0.678732
      3          6           0        0.949013   -0.174713    0.134512
      4          6           0        1.129314    1.080937    0.987651
      5          6           0        2.253204   -0.786777   -0.258595
      6          6           0       -1.033346    0.671887   -0.777934
      7          6           0       -1.999060    0.197535   -0.045515
      8          1           0        0.400843   -0.926567    0.767419
      9          1           0        1.732444    1.845402    0.454697
     10          1           0        0.147934    1.524629    1.235677
     11          1           0        1.654815    0.831532    1.949044
     12          1           0        2.884418   -0.068680   -0.860750
     13          1           0        2.095302   -1.697740   -0.872832
     14          1           0        2.845008   -1.080934    0.653984
     15          1           0       -1.179929    1.605543   -1.344095
     16          1           0       -2.932749    0.726500    0.076323
     17          1           0       -1.107287   -1.436438    0.467463
 ---------------------------------------------------------------------
 Rotational constants (GHZ):           4.4314256           1.6705059           1.6355093
 Leave Link  202 at Sat Sep 28 09:32:38 2019, MaxMem=   671088640 cpu:               5.1 elap:               2.6
 (Enter /shared/centos7/gaussian/g16/l301.exe)
 Standard basis: CC-pVTZ (5D, 7F)
 Ernie: Thresh=  0.10000D-02 Tol=  0.10000D-05 Strict=F.
 Ernie:  21 primitive shells out of 262 were deleted.
 There are   395 symmetry adapted cartesian basis functions of A   symmetry.
 There are   350 symmetry adapted basis functions of A   symmetry.
   350 basis functions,   534 primitive gaussians,   395 cartesian basis functions
    28 alpha electrons       28 beta electrons
       nuclear repulsion energy       322.2887973841 Hartrees.
 IExCor= 4336 DFT=T Ex+Corr=M062X ExCW=0 ScaHFX=  0.540000
 ScaDFX=  1.000000  1.000000  1.000000  1.000000 ScalE2=  1.000000  1.000000
 IRadAn=      5 IRanWt=     -1 IRanGd=            0 ICorTp=0 IEmpDi=  4
 NAtoms=   17 NActive=   17 NUniq=   17 SFac= 1.00D+00 NAtFMM=   60 NAOKFM=F Big=F
 Integral buffers will be    131072 words long.
 Raffenetti 2 integral format.
 Two-electron integral symmetry is turned on.
 Leave Link  301 at Sat Sep 28 09:32:39 2019, MaxMem=   671088640 cpu:               1.7 elap:               0.9
 (Enter /shared/centos7/gaussian/g16/l302.exe)
 NPDir=0 NMtPBC=     1 NCelOv=     1 NCel=       1 NClECP=     1 NCelD=      1
         NCelK=      1 NCelE2=     1 NClLst=     1 CellRange=     0.0.
 One-electron integrals computed using PRISM.
 One-electron integral symmetry used in STVInt
 NBasis=   350 RedAO= T EigKep=  2.93D-04  NBF=   350
 NBsUse=   350 1.00D-06 EigRej= -1.00D+00 NBFU=   350
 Precomputing XC quadrature grid using
 IXCGrd= 4 IRadAn=           5 IRanWt=          -1 IRanGd=           0 AccXCQ= 0.00D+00.
 Generated NRdTot=       0 NPtTot=           0 NUsed=           0 NTot=          32
 NSgBfM=   395   395   395   395   395 MxSgAt=    17 MxSgA2=    17.
 Leave Link  302 at Sat Sep 28 09:33:43 2019, MaxMem=   671088640 cpu:             128.8 elap:              64.4
 (Enter /shared/centos7/gaussian/g16/l303.exe)
 DipDrv:  MaxL=1.
 Leave Link  303 at Sat Sep 28 09:33:48 2019, MaxMem=   671088640 cpu:               8.5 elap:               4.3
 (Enter /shared/centos7/gaussian/g16/l401.exe)
 ExpMin= 1.03D-01 ExpMax= 1.53D+04 ExpMxC= 5.22D+02 IAcc=3 IRadAn=         5 AccDes= 0.00D+00
 Harris functional with IExCor= 1009 and IRadAn=       5 diagonalized for initial guess.
 HarFok:  IExCor= 1009 AccDes= 0.00D+00 IRadAn=         5 IDoV= 1 UseB2=F ITyADJ=14
 ICtDFT=  3500011 ScaDFX=  1.000000  1.000000  1.000000  1.000000
 FoFCou: FMM=F IPFlag=           0 FMFlag=      100000 FMFlg1=           0
         NFxFlg=           0 DoJE=T BraDBF=F KetDBF=T FulRan=T
         wScrn=  0.000000 ICntrl=       500 IOpCl=  0 I1Cent=   200000004 NGrid=           0
         NMat0=    1 NMatS0=      1 NMatT0=    0 NMatD0=    1 NMtDS0=    0 NMtDT0=    0
 Petite list used in FoFCou.
 Harris En= -346.807562972049    
 JPrj=0 DoOrth=F DoCkMO=F.
 Leave Link  401 at Sat Sep 28 09:34:24 2019, MaxMem=   671088640 cpu:              73.4 elap:              36.7
 (Enter /shared/centos7/gaussian/g16/l502.exe)
 Integral symmetry usage will be decided dynamically.
 Closed shell SCF:
 Using DIIS extrapolation, IDIIS=  1040.
 NGot=   671088640 LenX=   670765141 LenY=   670608675
 Requested convergence on RMS density matrix=1.00D-08 within 900 cycles.
 Requested convergence on MAX density matrix=1.00D-06.
 Requested convergence on             energy=1.00D-06.
 No special actions if energy rises.
 Fock matrices will be formed incrementally for  20 cycles.
 Integral accuracy reduced to 1.0D-05 until final iterations.

 Cycle   1  Pass 0  IDiag  1:
 FoFJK:  IHMeth= 1 ICntrl=       0 DoSepK=F KAlg= 0 I1Cent=           0 FoldK=F
 IRaf= 970000000 NMat=       1 IRICut=       1 DoRegI=T DoRafI=F ISym2E= 0 IDoP0=0 IntGTp=1.
 FoFCou: FMM=F IPFlag=           0 FMFlag=      100000 FMFlg1=           0
         NFxFlg=           0 DoJE=F BraDBF=F KetDBF=F FulRan=T
         wScrn=  0.000000 ICntrl=         0 IOpCl=  0 I1Cent=           0 NGrid=           0
         NMat0=    1 NMatS0=      1 NMatT0=    0 NMatD0=    1 NMtDS0=    0 NMtDT0=    0
 Symmetry not used in FoFCou.
 E= -346.709688968646    
 DIIS: error= 2.18D-02 at cycle   1 NSaved=   1.
 NSaved= 1 IEnMin= 1 EnMin= -346.709688968646     IErMin= 1 ErrMin= 2.18D-02
 ErrMax= 2.18D-02  0.00D+00 EMaxC= 1.00D-01 BMatC= 2.79D-01 BMatP= 2.79D-01
 IDIUse=3 WtCom= 7.82D-01 WtEn= 2.18D-01
 Coeff-Com:  0.100D+01
 Coeff-En:   0.100D+01
 Coeff:      0.100D+01
 Gap=     0.364 Goal=   None    Shift=    0.000
 GapD=    0.364 DampG=1.000 DampE=0.500 DampFc=0.5000 IDamp=-1.
 Damping current iteration by 5.00D-01
 RMSDP=2.03D-03 MaxDP=8.92D-02              OVMax= 1.44D-01

 Cycle   2  Pass 0  IDiag  1:
 RMSU=  1.01D-03    CP:  1.00D+00
 E= -346.825767442932     Delta-E=       -0.116078474286 Rises=F Damp=T
 DIIS: error= 3.79D-03 at cycle   2 NSaved=   2.
 NSaved= 2 IEnMin= 2 EnMin= -346.825767442932     IErMin= 2 ErrMin= 3.79D-03
 ErrMax= 3.79D-03  0.00D+00 EMaxC= 1.00D-01 BMatC= 2.10D-02 BMatP= 2.79D-01
 IDIUse=3 WtCom= 9.62D-01 WtEn= 3.79D-02
 Coeff-Com: -0.145D+00 0.114D+01
 Coeff-En:   0.000D+00 0.100D+01
 Coeff:     -0.139D+00 0.114D+01
 Gap=     0.339 Goal=   None    Shift=    0.000
 RMSDP=4.24D-04 MaxDP=1.37D-02 DE=-1.16D-01 OVMax= 6.83D-02

 Cycle   3  Pass 0  IDiag  1:
 RMSU=  4.22D-04    CP:  1.00D+00  9.67D-01
 E= -346.929000561150     Delta-E=       -0.103233118218 Rises=F Damp=F
 DIIS: error= 2.42D-03 at cycle   3 NSaved=   3.
 NSaved= 3 IEnMin= 3 EnMin= -346.929000561150     IErMin= 3 ErrMin= 2.42D-03
 ErrMax= 2.42D-03  0.00D+00 EMaxC= 1.00D-01 BMatC= 3.11D-03 BMatP= 2.10D-02
 IDIUse=3 WtCom= 9.76D-01 WtEn= 2.42D-02
 Coeff-Com: -0.829D-01 0.298D+00 0.785D+00
 Coeff-En:   0.000D+00 0.000D+00 0.100D+01
 Coeff:     -0.809D-01 0.291D+00 0.790D+00
 Gap=     0.342 Goal=   None    Shift=    0.000
 RMSDP=1.51D-04 MaxDP=6.37D-03 DE=-1.03D-01 OVMax= 1.07D-02

 Cycle   4  Pass 0  IDiag  1:
 RMSU=  1.09D-04    CP:  1.00D+00  1.06D+00  8.82D-01
 E= -346.930733315339     Delta-E=       -0.001732754188 Rises=F Damp=F
 DIIS: error= 1.24D-03 at cycle   4 NSaved=   4.
 NSaved= 4 IEnMin= 4 EnMin= -346.930733315339     IErMin= 4 ErrMin= 1.24D-03
 ErrMax= 1.24D-03  0.00D+00 EMaxC= 1.00D-01 BMatC= 8.75D-04 BMatP= 3.11D-03
 IDIUse=3 WtCom= 9.88D-01 WtEn= 1.24D-02
 Coeff-Com: -0.276D-01 0.723D-01 0.393D+00 0.562D+00
 Coeff-En:   0.000D+00 0.000D+00 0.162D+00 0.838D+00
 Coeff:     -0.272D-01 0.714D-01 0.390D+00 0.566D+00
 Gap=     0.338 Goal=   None    Shift=    0.000
 RMSDP=5.23D-05 MaxDP=1.91D-03 DE=-1.73D-03 OVMax= 5.27D-03

 Cycle   5  Pass 0  IDiag  1:
 RMSU=  2.65D-05    CP:  1.00D+00  1.05D+00  9.27D-01  6.47D-01
 E= -346.931366716443     Delta-E=       -0.000633401104 Rises=F Damp=F
 DIIS: error= 2.35D-04 at cycle   5 NSaved=   5.
 NSaved= 5 IEnMin= 5 EnMin= -346.931366716443     IErMin= 5 ErrMin= 2.35D-04
 ErrMax= 2.35D-04  0.00D+00 EMaxC= 1.00D-01 BMatC= 2.91D-05 BMatP= 8.75D-04
 IDIUse=3 WtCom= 9.98D-01 WtEn= 2.35D-03
 Coeff-Com: -0.520D-02 0.998D-02 0.105D+00 0.226D+00 0.664D+00
 Coeff-En:   0.000D+00 0.000D+00 0.000D+00 0.000D+00 0.100D+01
 Coeff:     -0.519D-02 0.995D-02 0.105D+00 0.225D+00 0.665D+00
 Gap=     0.337 Goal=   None    Shift=    0.000
 RMSDP=1.11D-05 MaxDP=3.28D-04 DE=-6.33D-04 OVMax= 1.03D-03

 Cycle   6  Pass 0  IDiag  1:
 RMSU=  8.51D-06    CP:  1.00D+00  1.04D+00  9.33D-01  6.84D-01  8.04D-01
 E= -346.931387035327     Delta-E=       -0.000020318884 Rises=F Damp=F
 DIIS: error= 5.74D-05 at cycle   6 NSaved=   6.
 NSaved= 6 IEnMin= 6 EnMin= -346.931387035327     IErMin= 6 ErrMin= 5.74D-05
 ErrMax= 5.74D-05  0.00D+00 EMaxC= 1.00D-01 BMatC= 1.69D-06 BMatP= 2.91D-05
 IDIUse=1 WtCom= 1.00D+00 WtEn= 0.00D+00
 Coeff-Com: -0.652D-04-0.990D-03 0.153D-01 0.550D-01 0.239D+00 0.692D+00
 Coeff:     -0.652D-04-0.990D-03 0.153D-01 0.550D-01 0.239D+00 0.692D+00
 Gap=     0.338 Goal=   None    Shift=    0.000
 RMSDP=3.62D-06 MaxDP=1.19D-04 DE=-2.03D-05 OVMax= 5.37D-04

 Initial convergence to 1.0D-05 achieved.  Increase integral accuracy.
 Cycle   7  Pass 1  IDiag  1:
 E= -346.931401638525     Delta-E=       -0.000014603197 Rises=F Damp=F
 DIIS: error= 2.66D-05 at cycle   1 NSaved=   1.
 NSaved= 1 IEnMin= 1 EnMin= -346.931401638525     IErMin= 1 ErrMin= 2.66D-05
 ErrMax= 2.66D-05  0.00D+00 EMaxC= 1.00D-01 BMatC= 7.47D-07 BMatP= 7.47D-07
 IDIUse=1 WtCom= 1.00D+00 WtEn= 0.00D+00
 Coeff-Com:  0.100D+01
 Coeff:      0.100D+01
 Gap=     0.338 Goal=   None    Shift=    0.000
 RMSDP=3.62D-06 MaxDP=1.19D-04 DE=-1.46D-05 OVMax= 3.68D-04

 Cycle   8  Pass 1  IDiag  1:
 RMSU=  7.24D-06    CP:  1.00D+00
 E= -346.931401802107     Delta-E=       -0.000000163582 Rises=F Damp=F
 DIIS: error= 2.28D-05 at cycle   2 NSaved=   2.
 NSaved= 2 IEnMin= 2 EnMin= -346.931401802107     IErMin= 2 ErrMin= 2.28D-05
 ErrMax= 2.28D-05  0.00D+00 EMaxC= 1.00D-01 BMatC= 3.57D-07 BMatP= 7.47D-07
 IDIUse=1 WtCom= 1.00D+00 WtEn= 0.00D+00
 Coeff-Com:  0.378D+00 0.622D+00
 Coeff:      0.378D+00 0.622D+00
 Gap=     0.338 Goal=   None    Shift=    0.000
 RMSDP=1.87D-06 MaxDP=5.97D-05 DE=-1.64D-07 OVMax= 3.31D-04

 Cycle   9  Pass 1  IDiag  1:
 RMSU=  1.87D-06    CP:  1.00D+00  9.87D-01
 E= -346.931402050035     Delta-E=       -0.000000247928 Rises=F Damp=F
 DIIS: error= 9.82D-06 at cycle   3 NSaved=   3.
 NSaved= 3 IEnMin= 3 EnMin= -346.931402050035     IErMin= 3 ErrMin= 9.82D-06
 ErrMax= 9.82D-06  0.00D+00 EMaxC= 1.00D-01 BMatC= 8.40D-08 BMatP= 3.57D-07
 IDIUse=1 WtCom= 1.00D+00 WtEn= 0.00D+00
 Coeff-Com: -0.711D-02 0.321D+00 0.686D+00
 Coeff:     -0.711D-02 0.321D+00 0.686D+00
 Gap=     0.338 Goal=   None    Shift=    0.000
 RMSDP=6.12D-07 MaxDP=2.02D-05 DE=-2.48D-07 OVMax= 1.06D-04

 Cycle  10  Pass 1  IDiag  1:
 RMSU=  2.88D-07    CP:  1.00D+00  1.02D+00  7.42D-01
 E= -346.931402118744     Delta-E=       -0.000000068709 Rises=F Damp=F
 DIIS: error= 2.20D-06 at cycle   4 NSaved=   4.
 NSaved= 4 IEnMin= 4 EnMin= -346.931402118744     IErMin= 4 ErrMin= 2.20D-06
 ErrMax= 2.20D-06  0.00D+00 EMaxC= 1.00D-01 BMatC= 3.04D-09 BMatP= 8.40D-08
 IDIUse=1 WtCom= 1.00D+00 WtEn= 0.00D+00
 Coeff-Com: -0.142D-01 0.137D+00 0.320D+00 0.558D+00
 Coeff:     -0.142D-01 0.137D+00 0.320D+00 0.558D+00
 Gap=     0.338 Goal=   None    Shift=    0.000
 RMSDP=1.19D-07 MaxDP=4.88D-06 DE=-6.87D-08 OVMax= 1.04D-05

 Cycle  11  Pass 1  IDiag  1:
 RMSU=  1.05D-07    CP:  1.00D+00  1.02D+00  7.67D-01  9.42D-01
 E= -346.931402121158     Delta-E=       -0.000000002414 Rises=F Damp=F
 DIIS: error= 3.64D-07 at cycle   5 NSaved=   5.
 NSaved= 5 IEnMin= 5 EnMin= -346.931402121158     IErMin= 5 ErrMin= 3.64D-07
 ErrMax= 3.64D-07  0.00D+00 EMaxC= 1.00D-01 BMatC= 1.23D-10 BMatP= 3.04D-09
 IDIUse=1 WtCom= 1.00D+00 WtEn= 0.00D+00
 Coeff-Com: -0.197D-02-0.121D-01-0.271D-01 0.110D+00 0.932D+00
 Coeff:     -0.197D-02-0.121D-01-0.271D-01 0.110D+00 0.932D+00
 Gap=     0.338 Goal=   None    Shift=    0.000
 RMSDP=4.30D-08 MaxDP=1.44D-06 DE=-2.41D-09 OVMax= 5.26D-06

 Cycle  12  Pass 1  IDiag  1:
 RMSU=  2.31D-08    CP:  1.00D+00  1.03D+00  7.72D-01  1.05D+00  1.09D+00
 E= -346.931402121308     Delta-E=       -0.000000000149 Rises=F Damp=F
 DIIS: error= 1.49D-07 at cycle   6 NSaved=   6.
 NSaved= 6 IEnMin= 6 EnMin= -346.931402121308     IErMin= 6 ErrMin= 1.49D-07
 ErrMax= 1.49D-07  0.00D+00 EMaxC= 1.00D-01 BMatC= 2.05D-11 BMatP= 1.23D-10
 IDIUse=1 WtCom= 1.00D+00 WtEn= 0.00D+00
 Coeff-Com:  0.763D-03-0.190D-01-0.457D-01-0.150D-01 0.358D+00 0.721D+00
 Coeff:      0.763D-03-0.190D-01-0.457D-01-0.150D-01 0.358D+00 0.721D+00
 Gap=     0.338 Goal=   None    Shift=    0.000
 RMSDP=1.50D-08 MaxDP=5.35D-07 DE=-1.49D-10 OVMax= 1.80D-06

 Cycle  13  Pass 1  IDiag  1:
 RMSU=  9.67D-09    CP:  1.00D+00  1.03D+00  7.75D-01  1.08D+00  1.15D+00
                    CP:  1.02D+00
 E= -346.931402121326     Delta-E=       -0.000000000018 Rises=F Damp=F
 DIIS: error= 4.29D-08 at cycle   7 NSaved=   7.
 NSaved= 7 IEnMin= 7 EnMin= -346.931402121326     IErMin= 7 ErrMin= 4.29D-08
 ErrMax= 4.29D-08  0.00D+00 EMaxC= 1.00D-01 BMatC= 2.03D-12 BMatP= 2.05D-11
 IDIUse=1 WtCom= 1.00D+00 WtEn= 0.00D+00
 Coeff-Com:  0.434D-03-0.618D-02-0.154D-01-0.132D-01 0.701D-01 0.296D+00
 Coeff-Com:  0.669D+00
 Coeff:      0.434D-03-0.618D-02-0.154D-01-0.132D-01 0.701D-01 0.296D+00
 Coeff:      0.669D+00
 Gap=     0.338 Goal=   None    Shift=    0.000
 RMSDP=4.27D-09 MaxDP=1.50D-07 DE=-1.83D-11 OVMax= 5.22D-07

 SCF Done:  E(RM062X) =  -346.931402121     A.U. after   13 cycles
            NFock= 13  Conv=0.43D-08     -V/T= 2.0063
 KE= 3.447557615400D+02 PE=-1.454305782065D+03 EE= 4.403298210194D+02
 Leave Link  502 at Sat Sep 28 09:49:43 2019, MaxMem=   671088640 cpu:            1835.7 elap:             918.3
 (Enter /shared/centos7/gaussian/g16/l801.exe)
 DoSCS=F DFT=T ScalE2(SS,OS)=  1.000000  1.000000
 Range of M.O.s used for correlation:     1   350
 NBasis=   350 NAE=    28 NBE=    28 NFC=     0 NFV=     0
 NROrb=    350 NOA=    28 NOB=    28 NVA=   322 NVB=   322

 **** Warning!!: The largest alpha MO coefficient is  0.11205563D+02

 Leave Link  801 at Sat Sep 28 09:49:43 2019, MaxMem=   671088640 cpu:               1.6 elap:               0.8
 (Enter /shared/centos7/gaussian/g16/l1101.exe)
 Using compressed storage, NAtomX=    17.
 Will process     18 centers per pass.
 Leave Link 1101 at Sat Sep 28 09:50:17 2019, MaxMem=   671088640 cpu:              68.1 elap:              34.1
 (Enter /shared/centos7/gaussian/g16/l1102.exe)
 Symmetrizing basis deriv contribution to polar:
 IMax=3 JMax=2 DiffMx= 0.00D+00
 Leave Link 1102 at Sat Sep 28 09:50:20 2019, MaxMem=   671088640 cpu:               5.5 elap:               2.8
 (Enter /shared/centos7/gaussian/g16/l1110.exe)
 Forming Gx(P) for the SCF density, NAtomX=    17.
 Integral derivatives from FoFJK, PRISM(SPDF).
 Do as many integral derivatives as possible in FoFJK.
 G2DrvN: MDV=     671087280.
 G2DrvN: will do    18 centers at a time, making    1 passes.
 Calling FoFCou, ICntrl=  3107 FMM=F I1Cent=   0 AccDes= 0.00D+00.
 FoFJK:  IHMeth= 1 ICntrl=    3107 DoSepK=F KAlg= 0 I1Cent=           0 FoldK=F
 IRaf=         0 NMat=       1 IRICut=       1 DoRegI=T DoRafI=F ISym2E= 0 IDoP0=0 IntGTp=1.
 FoFCou: FMM=F IPFlag=           0 FMFlag=      100000 FMFlg1=           0
         NFxFlg=           0 DoJE=F BraDBF=F KetDBF=F FulRan=T
         wScrn=  0.000000 ICntrl=      3107 IOpCl=  0 I1Cent=           0 NGrid=           0
         NMat0=    1 NMatS0=      1 NMatT0=    0 NMatD0=    1 NMtDS0=    0 NMtDT0=    0
 Symmetry not used in FoFCou.
 End of G2Drv F.D. properties file   721 does not exist.
 End of G2Drv F.D. properties file   722 does not exist.
 End of G2Drv F.D. properties file   788 does not exist.
 Leave Link 1110 at Sat Sep 28 10:16:37 2019, MaxMem=   671088640 cpu:            3152.7 elap:            1576.6
 (Enter /shared/centos7/gaussian/g16/l1002.exe)
 Minotr:  Closed shell wavefunction.
          IDoAtm=11111111111111111
          Direct CPHF calculation.
          Differentiating once with respect to nuclear coordinates.
          Requested convergence is 1.0D-08 RMS, and 1.0D-07 maximum.
          Secondary convergence is 1.0D-12 RMS, and 1.0D-12 maximum.
          NewPWx=T KeepS1=F KeepF1=F KeepIn=T MapXYZ=F SortEE=F KeepMc=T.
         5088 words used for storage of precomputed grid.
 Two-electron integrals replicated using symmetry.
          MDV=     671088640 using IRadAn=       1.
          Solving linear equations simultaneously, MaxMat=     380.
 FoF2E skips out because all densities are zero.
 CalDSu exits because no D1Ps are significant.
 FoFJK:  IHMeth= 1 ICntrl=       0 DoSepK=F KAlg= 0 I1Cent=           0 FoldK=F
 IRaf= 950000000 NMat=      51 IRICut=     127 DoRegI=T DoRafI=T ISym2E= 2 IDoP0=3 IntGTp=3.
 FoFCou: FMM=F IPFlag=           0 FMFlag=      100000 FMFlg1=           0
         NFxFlg=           0 DoJE=F BraDBF=F KetDBF=F FulRan=T
         wScrn=  0.000000 ICntrl=         0 IOpCl=  0 I1Cent=           0 NGrid=           0
         NMat0=   51 NMatS0=     51 NMatT0=    0 NMatD0=   51 NMtDS0=    0 NMtDT0=    0
 Integrals replicated using symmetry in FoFCou.
 Raff kept on since  92.75% of shell-pairs survive, threshold=   0.20 IRatSp=93.
          There are    54 degrees of freedom in the 1st order CPHF.  IDoFFX=6 NUNeed=     0.
     48 vectors produced by pass  0 Test12= 1.67D-14 1.85D-09 XBig12= 7.04D-02 4.91D-02.
 AX will form    48 AO Fock derivatives at one time.
     48 vectors produced by pass  1 Test12= 1.67D-14 1.85D-09 XBig12= 9.32D-03 2.41D-02.
     48 vectors produced by pass  2 Test12= 1.67D-14 1.85D-09 XBig12= 3.07D-04 3.61D-03.
     48 vectors produced by pass  3 Test12= 1.67D-14 1.85D-09 XBig12= 3.30D-06 2.97D-04.
     48 vectors produced by pass  4 Test12= 1.67D-14 1.85D-09 XBig12= 2.53D-08 1.66D-05.
     48 vectors produced by pass  5 Test12= 1.67D-14 1.85D-09 XBig12= 1.40D-10 1.12D-06.
     26 vectors produced by pass  6 Test12= 1.67D-14 1.85D-09 XBig12= 5.76D-13 7.50D-08.
      4 vectors produced by pass  7 Test12= 1.67D-14 1.85D-09 XBig12= 2.17D-15 3.97D-09.
 InvSVY:  IOpt=1 It=  1 EMax= 3.05D-16
 Solved reduced A of dimension   318 with    54 vectors.
 End of Minotr F.D. properties file   721 does not exist.
 End of Minotr F.D. properties file   722 does not exist.
 End of Minotr F.D. properties file   788 does not exist.
 Leave Link 1002 at Sat Sep 28 10:54:16 2019, MaxMem=   671088640 cpu:            4518.7 elap:            2259.6
 (Enter /shared/centos7/gaussian/g16/l601.exe)
 Copying SCF densities to generalized density rwf, IOpCl= 0 IROHF=0.

 **********************************************************************

            Population analysis using the SCF density.

 **********************************************************************

 Orbital symmetries:
       Occupied  (A) (A) (A) (A) (A) (A) (A) (A) (A) (A) (A) (A)
                 (A) (A) (A) (A) (A) (A) (A) (A) (A) (A) (A) (A)
                 (A) (A) (A) (A)
       Virtual   (A) (A) (A) (A) (A) (A) (A) (A) (A) (A) (A) (A)
                 (A) (A) (A) (A) (A) (A) (A) (A) (A) (A) (A) (A)
                 (A) (A) (A) (A) (A) (A) (A) (A) (A) (A) (A) (A)
                 (A) (A) (A) (A) (A) (A) (A) (A) (A) (A) (A) (A)
                 (A) (A) (A) (A) (A) (A) (A) (A) (A) (A) (A) (A)
                 (A) (A) (A) (A) (A) (A) (A) (A) (A) (A) (A) (A)
                 (A) (A) (A) (A) (A) (A) (A) (A) (A) (A) (A) (A)
                 (A) (A) (A) (A) (A) (A) (A) (A) (A) (A) (A) (A)
                 (A) (A) (A) (A) (A) (A) (A) (A) (A) (A) (A) (A)
                 (A) (A) (A) (A) (A) (A) (A) (A) (A) (A) (A) (A)
                 (A) (A) (A) (A) (A) (A) (A) (A) (A) (A) (A) (A)
                 (A) (A) (A) (A) (A) (A) (A) (A) (A) (A) (A) (A)
                 (A) (A) (A) (A) (A) (A) (A) (A) (A) (A) (A) (A)
                 (A) (A) (A) (A) (A) (A) (A) (A) (A) (A) (A) (A)
                 (A) (A) (A) (A) (A) (A) (A) (A) (A) (A) (A) (A)
                 (A) (A) (A) (A) (A) (A) (A) (A) (A) (A) (A) (A)
                 (A) (A) (A) (A) (A) (A) (A) (A) (A) (A) (A) (A)
                 (A) (A) (A) (A) (A) (A) (A) (A) (A) (A) (A) (A)
                 (A) (A) (A) (A) (A) (A) (A) (A) (A) (A) (A) (A)
                 (A) (A) (A) (A) (A) (A) (A) (A) (A) (A) (A) (A)
                 (A) (A) (A) (A) (A) (A) (A) (A) (A) (A) (A) (A)
                 (A) (A) (A) (A) (A) (A) (A) (A) (A) (A) (A) (A)
                 (A) (A) (A) (A) (A) (A) (A) (A) (A) (A) (A) (A)
                 (A) (A) (A) (A) (A) (A) (A) (A) (A) (A) (A) (A)
                 (A) (A) (A) (A) (A) (A) (A) (A) (A) (A) (A) (A)
                 (A) (A) (A) (A) (A) (A) (A) (A) (A) (A) (A) (A)
                 (A) (A) (A) (A) (A) (A) (A) (A) (A) (A)
 The electronic state is 1-A.
 Alpha  occ. eigenvalues --  -19.65217 -19.64765 -10.60709 -10.58773 -10.57798
 Alpha  occ. eigenvalues --  -10.54191 -10.53716  -1.19287  -1.16079  -0.90026
 Alpha  occ. eigenvalues --   -0.84232  -0.78560  -0.70736  -0.67365  -0.59502
 Alpha  occ. eigenvalues --   -0.58653  -0.54781  -0.52976  -0.49754  -0.46793
 Alpha  occ. eigenvalues --   -0.46544  -0.45625  -0.44980  -0.43648  -0.42935
 Alpha  occ. eigenvalues --   -0.40229  -0.35478  -0.28566
 Alpha virt. eigenvalues --    0.05190   0.07593   0.08132   0.09390   0.11074
 Alpha virt. eigenvalues --    0.11843   0.13177   0.13996   0.14967   0.16408
 Alpha virt. eigenvalues --    0.17036   0.19491   0.20330   0.23603   0.24021
 Alpha virt. eigenvalues --    0.26086   0.27469   0.30090   0.32132   0.32783
 Alpha virt. eigenvalues --    0.33801   0.35126   0.37061   0.37749   0.39196
 Alpha virt. eigenvalues --    0.40581   0.42098   0.44121   0.45124   0.46014
 Alpha virt. eigenvalues --    0.46195   0.47566   0.48682   0.48764   0.49721
 Alpha virt. eigenvalues --    0.50189   0.51171   0.51696   0.53522   0.54731
 Alpha virt. eigenvalues --    0.55854   0.58623   0.60483   0.62193   0.63978
 Alpha virt. eigenvalues --    0.65691   0.67306   0.69954   0.70840   0.72997
 Alpha virt. eigenvalues --    0.74266   0.76797   0.78107   0.78981   0.82050
 Alpha virt. eigenvalues --    0.83438   0.85702   0.86384   0.87767   0.88634
 Alpha virt. eigenvalues --    0.93385   0.94995   0.96004   0.96283   0.99317
 Alpha virt. eigenvalues --    0.99912   1.02289   1.04694   1.06445   1.07662
 Alpha virt. eigenvalues --    1.08214   1.09740   1.11452   1.12256   1.14201
 Alpha virt. eigenvalues --    1.16302   1.17770   1.18923   1.19846   1.21841
 Alpha virt. eigenvalues --    1.23344   1.24554   1.25854   1.26261   1.27725
 Alpha virt. eigenvalues --    1.28706   1.29892   1.31133   1.32523   1.33691
 Alpha virt. eigenvalues --    1.35551   1.37270   1.40851   1.41265   1.42207
 Alpha virt. eigenvalues --    1.44410   1.46087   1.48732   1.49788   1.51386
 Alpha virt. eigenvalues --    1.52109   1.55071   1.56597   1.57797   1.59407
 Alpha virt. eigenvalues --    1.61393   1.64903   1.66987   1.77804   1.87081
 Alpha virt. eigenvalues --    1.96169   1.98612   2.02176   2.03409   2.07938
 Alpha virt. eigenvalues --    2.09380   2.10016   2.12806   2.20321   2.21100
 Alpha virt. eigenvalues --    2.25367   2.28570   2.29178   2.32968   2.33361
 Alpha virt. eigenvalues --    2.38180   2.39873   2.42609   2.43899   2.45564
 Alpha virt. eigenvalues --    2.48405   2.49789   2.52013   2.55164   2.57995
 Alpha virt. eigenvalues --    2.59944   2.60964   2.62043   2.64644   2.68769
 Alpha virt. eigenvalues --    2.69963   2.71594   2.72419   2.76403   2.78774
 Alpha virt. eigenvalues --    2.80650   2.81716   2.83530   2.83916   2.84509
 Alpha virt. eigenvalues --    2.86870   2.89566   2.91044   2.92627   2.93878
 Alpha virt. eigenvalues --    2.94455   2.96756   2.98510   3.00033   3.01887
 Alpha virt. eigenvalues --    3.03005   3.04069   3.05849   3.06947   3.09590
 Alpha virt. eigenvalues --    3.10429   3.10720   3.12721   3.12938   3.13745
 Alpha virt. eigenvalues --    3.16329   3.17935   3.19365   3.20185   3.22497
 Alpha virt. eigenvalues --    3.24233   3.26472   3.27583   3.28099   3.29365
 Alpha virt. eigenvalues --    3.30215   3.32233   3.33439   3.35692   3.36581
 Alpha virt. eigenvalues --    3.37328   3.38477   3.40185   3.41459   3.44664
 Alpha virt. eigenvalues --    3.45173   3.46592   3.48140   3.50384   3.50943
 Alpha virt. eigenvalues --    3.52903   3.56213   3.57654   3.58576   3.61324
 Alpha virt. eigenvalues --    3.64999   3.65758   3.67495   3.69588   3.70704
 Alpha virt. eigenvalues --    3.72938   3.75189   3.76346   3.76685   3.77641
 Alpha virt. eigenvalues --    3.80459   3.81876   3.82853   3.84894   3.85087
 Alpha virt. eigenvalues --    3.88500   3.90150   3.91176   3.92542   3.93431
 Alpha virt. eigenvalues --    3.95913   3.96873   3.97898   4.00188   4.00625
 Alpha virt. eigenvalues --    4.02290   4.03504   4.05800   4.06456   4.08422
 Alpha virt. eigenvalues --    4.09173   4.10268   4.11575   4.15737   4.17750
 Alpha virt. eigenvalues --    4.20247   4.24674   4.25603   4.28635   4.30302
 Alpha virt. eigenvalues --    4.31327   4.34536   4.38627   4.40471   4.41837
 Alpha virt. eigenvalues --    4.43840   4.48230   4.50875   4.54988   4.55226
 Alpha virt. eigenvalues --    4.58046   4.63065   4.65330   4.66826   4.68616
 Alpha virt. eigenvalues --    4.72342   4.72677   4.74094   4.75960   4.78135
 Alpha virt. eigenvalues --    4.81677   4.85059   4.86926   4.91390   4.92657
 Alpha virt. eigenvalues --    4.96194   4.96924   4.99234   5.03304   5.05070
 Alpha virt. eigenvalues --    5.05324   5.07894   5.10343   5.11751   5.18535
 Alpha virt. eigenvalues --    5.20666   5.21351   5.23259   5.24876   5.29573
 Alpha virt. eigenvalues --    5.31611   5.32686   5.39097   5.44080   5.46063
 Alpha virt. eigenvalues --    5.51220   5.54202   5.57798   5.64539   5.72601
 Alpha virt. eigenvalues --    5.73601   5.77121   5.77853   5.81245   5.83442
 Alpha virt. eigenvalues --    5.87113   6.02536   6.18865   6.24671   6.36008
 Alpha virt. eigenvalues --    6.38906   6.42138   6.58168   6.61371   6.72550
 Alpha virt. eigenvalues --    6.75237   6.77167   6.80992   6.86631   7.01988
 Alpha virt. eigenvalues --    7.05711   7.15390   7.24873   7.35322   7.38260
 Alpha virt. eigenvalues --   10.01448  11.20841  11.59461  12.07501  13.17989
 Alpha virt. eigenvalues --   13.31718  14.22154
          Condensed to atoms (all electrons):
               1          2          3          4          5          6
     1  O    7.850988   0.001647   0.319146  -0.054660  -0.043751   0.346885
     2  O    0.001647   7.785232  -0.002334   0.000836   0.000358  -0.070028
     3  C    0.319146  -0.002334   4.928018   0.330413   0.322680  -0.074122
     4  C   -0.054660   0.000836   0.330413   5.081153  -0.064152  -0.007998
     5  C   -0.043751   0.000358   0.322680  -0.064152   4.971051  -0.001982
     6  C    0.346885  -0.070028  -0.074122  -0.007998  -0.001982   5.089263
     7  C   -0.071531   0.332415  -0.004718  -0.017361   0.001269   0.473701
     8  H   -0.057612   0.000377   0.376133  -0.098539  -0.030107  -0.053515
     9  H    0.001874  -0.000102  -0.036512   0.391708  -0.007307   0.000248
    10  H   -0.007018   0.000034  -0.031078   0.401847   0.008097   0.009460
    11  H    0.004191  -0.000014  -0.025709   0.390482  -0.006921   0.000436
    12  H    0.001139  -0.000044  -0.036549  -0.009882   0.395835   0.000376
    13  H    0.002017   0.000077  -0.033448   0.010759   0.396275   0.000801
    14  H    0.003812  -0.000005  -0.041674  -0.002674   0.395499   0.000108
    15  H   -0.047102   0.005178   0.001187   0.004522  -0.000727   0.429167
    16  H    0.004159  -0.034040  -0.000549   0.000328   0.000034  -0.060312
    17  H    0.008977   0.336921   0.003725   0.003229  -0.001637   0.002695
               7          8          9         10         11         12
     1  O   -0.071531  -0.057612   0.001874  -0.007018   0.004191   0.001139
     2  O    0.332415   0.000377  -0.000102   0.000034  -0.000014  -0.000044
     3  C   -0.004718   0.376133  -0.036512  -0.031078  -0.025709  -0.036549
     4  C   -0.017361  -0.098539   0.391708   0.401847   0.390482  -0.009882
     5  C    0.001269  -0.030107  -0.007307   0.008097  -0.006921   0.395835
     6  C    0.473701  -0.053515   0.000248   0.009460   0.000436   0.000376
     7  C    5.002980   0.033572   0.001280  -0.000728   0.000211   0.000182
     8  H    0.033572   0.773404   0.010085  -0.010953  -0.000004   0.009518
     9  H    0.001280   0.010085   0.567638  -0.032306  -0.029705   0.004238
    10  H   -0.000728  -0.010953  -0.032306   0.550998  -0.028313  -0.000113
    11  H    0.000211  -0.000004  -0.029705  -0.028313   0.575549   0.000352
    12  H    0.000182   0.009518   0.004238  -0.000113   0.000352   0.577581
    13  H   -0.000528  -0.013464  -0.000247  -0.000315  -0.000278  -0.029023
    14  H   -0.000032  -0.003064   0.000109   0.000034  -0.000056  -0.031291
    15  H   -0.090434  -0.003582  -0.000896   0.000701  -0.000105  -0.000116
    16  H    0.403880  -0.000696  -0.000048   0.000338  -0.000002  -0.000005
    17  H   -0.059459  -0.019625  -0.000121   0.000519  -0.000179  -0.000079
              13         14         15         16         17
     1  O    0.002017   0.003812  -0.047102   0.004159   0.008977
     2  O    0.000077  -0.000005   0.005178  -0.034040   0.336921
     3  C   -0.033448  -0.041674   0.001187  -0.000549   0.003725
     4  C    0.010759  -0.002674   0.004522   0.000328   0.003229
     5  C    0.396275   0.395499  -0.000727   0.000034  -0.001637
     6  C    0.000801   0.000108   0.429167  -0.060312   0.002695
     7  C   -0.000528  -0.000032  -0.090434   0.403880  -0.059459
     8  H   -0.013464  -0.003064  -0.003582  -0.000696  -0.019625
     9  H   -0.000247   0.000109  -0.000896  -0.000048  -0.000121
    10  H   -0.000315   0.000034   0.000701   0.000338   0.000519
    11  H   -0.000278  -0.000056  -0.000105  -0.000002  -0.000179
    12  H   -0.029023  -0.031291  -0.000116  -0.000005  -0.000079
    13  H    0.568560  -0.027979   0.000145   0.000000   0.000713
    14  H   -0.027979   0.598174   0.000035  -0.000005   0.000016
    15  H    0.000145   0.000035   0.569483  -0.004442   0.001045
    16  H    0.000000  -0.000005  -0.004442   0.525275   0.006345
    17  H    0.000713   0.000016   0.001045   0.006345   0.443718
 Mulliken charges:
               1
     1  O   -0.263162
     2  O   -0.356508
     3  C    0.005391
     4  C   -0.360010
     5  C   -0.334514
     6  C   -0.085184
     7  C   -0.004700
     8  H    0.088074
     9  H    0.130063
    10  H    0.138797
    11  H    0.120065
    12  H    0.117883
    13  H    0.125937
    14  H    0.108994
    15  H    0.135940
    16  H    0.159739
    17  H    0.273194
 Sum of Mulliken charges =  -0.00000
 Mulliken charges with hydrogens summed into heavy atoms:
               1
     1  O   -0.263162
     2  O   -0.083313
     3  C    0.093466
     4  C    0.028915
     5  C    0.018299
     6  C    0.050756
     7  C    0.155039
 APT charges:
               1
     1  O   -0.197569
     2  O   -0.213537
     3  C   -0.092757
     4  C   -1.082749
     5  C   -1.239622
     6  C   -0.523453
     7  C   -0.391481
     8  H    0.233251
     9  H    0.401486
    10  H    0.261979
    11  H    0.429771
    12  H    0.406117
    13  H    0.356529
    14  H    0.426337
    15  H    0.453896
    16  H    0.570165
    17  H    0.201636
 Sum of APT charges =  -0.00000
 APT charges with hydrogens summed into heavy atoms:
               1
     1  O   -0.197569
     2  O   -0.011901
     3  C    0.140494
     4  C    0.010488
     5  C   -0.050639
     6  C   -0.069557
     7  C    0.178684
 Electronic spatial extent (au):  <R**2>=            862.0145
 Charge=             -0.0000 electrons
 Dipole moment (field-independent basis, Debye):
    X=              1.2252    Y=              0.4717    Z=              0.6056  Tot=              1.4458
 Quadrupole moment (field-independent basis, Debye-Ang):
   XX=            -44.0339   YY=            -42.1113   ZZ=            -46.9935
   XY=             -3.7517   XZ=              2.3076   YZ=             -0.5598
 Traceless Quadrupole moment (field-independent basis, Debye-Ang):
   XX=              0.3457   YY=              2.2683   ZZ=             -2.6139
   XY=             -3.7517   XZ=              2.3076   YZ=             -0.5598
 Octapole moment (field-independent basis, Debye-Ang**2):
  XXX=             -4.3317  YYY=             -6.1963  ZZZ=              1.0850  XYY=             -1.4278
  XXY=              9.0478  XXZ=             -3.1116  XZZ=              1.4331  YZZ=              0.3569
  YYZ=             -3.0777  XYZ=             -1.4317
 Hexadecapole moment (field-independent basis, Debye-Ang**3):
 XXXX=           -716.4009 YYYY=           -215.9291 ZZZZ=           -197.6962 XXXY=            -19.9473
 XXXZ=             -2.6767 YYYX=              5.5572 YYYZ=             -7.9585 ZZZX=             -1.1138
 ZZZY=             -5.2269 XXYY=           -162.5307 XXZZ=           -158.2511 YYZZ=            -67.3714
 XXYZ=              1.1877 YYXZ=             -0.0339 ZZXY=             -2.4368
 N-N= 3.222887973841D+02 E-N=-1.454305790679D+03  KE= 3.447557615400D+02
  Exact polarizability:   0.000   0.000   0.000   0.000   0.000   0.000
 Approx polarizability:  87.318   2.219  77.457  -6.635  -7.300  76.568
 No NMR shielding tensors so no spin-rotation constants.
 Leave Link  601 at Sat Sep 28 10:54:47 2019, MaxMem=   671088640 cpu:              61.9 elap:              31.0
 (Enter /shared/centos7/gaussian/g16/l701.exe)
 SCFChk:  SCF convergence  4.27D-09 required  1.00D-08
 ... and contract with generalized density number  0.
 Compute integral second derivatives.
 Entering OneElI...
 Calculate overlap and kinetic energy integrals
    NBasis = 395  MinDer = 2  MaxDer = 2
 Requested accuracy = 0.1000D-12
 PrmmSu-InSpLW:  IPartL=    0 NPrtUS=   20 NPrtUL=    1 DoSpLW=F IThBeg=    0 IThEnd=   19 NThAct=   20.
 PrsmSu:  NPrtUS=  20 ThrOK=T IAlg=1 NPAlg=1 LenDen=           0 ISkipM=0 DoSpLW=F IThBeg=    0 IThEnd=   19.
 Prism:   IPart=     0 DynPar=F LinDyn=F Incr=           4.
 PRISM was handed    33310257 working-precision words and  8475 shell-pairs
 PRISM was handed    33310257 working-precision words and  8475 shell-pairs
 PRISM was handed    33310257 working-precision words and  8475 shell-pairs
 PRISM was handed    33310257 working-precision words and  8475 shell-pairs
 PRISM was handed    33310257 working-precision words and  8475 shell-pairs
 PRISM was handed    33310257 working-precision words and  8475 shell-pairs
 PRISM was handed    33310257 working-precision words and  8475 shell-pairs
 PRISM was handed    33310257 working-precision words and  8475 shell-pairs
 PRISM was handed    33310257 working-precision words and  8475 shell-pairs
 PRISM was handed    33310257 working-precision words and  8475 shell-pairs
 PRISM was handed    33310257 working-precision words and  8475 shell-pairs
 PRISM was handed    33310257 working-precision words and  8475 shell-pairs
 PRISM was handed    33310257 working-precision words and  8475 shell-pairs
 IPart=  0 NShTot=         472 NBatch=          85 AvBLen=         5.6
 PRISM was handed    33310257 working-precision words and  8475 shell-pairs
 PRISM was handed    33310257 working-precision words and  8475 shell-pairs
 PRISM was handed    33310257 working-precision words and  8475 shell-pairs
 IPart=  4 NShTot=         446 NBatch=          66 AvBLen=         6.8
 PRISM was handed    33310257 working-precision words and  8475 shell-pairs
 PRISM was handed    33310257 working-precision words and  8475 shell-pairs
 PRISM was handed    33310257 working-precision words and  8475 shell-pairs
 IPart= 17 NShTot=         402 NBatch=          39 AvBLen=        10.3
 IPart= 12 NShTot=         407 NBatch=          41 AvBLen=         9.9
 PRISM was handed    33310257 working-precision words and  8475 shell-pairs
 IPart=  2 NShTot=         455 NBatch=          73 AvBLen=         6.2
 IPart=  8 NShTot=         418 NBatch=          49 AvBLen=         8.5
 IPart= 14 NShTot=         406 NBatch=          40 AvBLen=        10.2
 IPart=  3 NShTot=         450 NBatch=          69 AvBLen=         6.5
 IPart= 11 NShTot=         413 NBatch=          46 AvBLen=         9.0
 IPart=  7 NShTot=         428 NBatch=          53 AvBLen=         8.1
 IPart=  5 NShTot=         438 NBatch=          62 AvBLen=         7.1
 IPart= 10 NShTot=         415 NBatch=          48 AvBLen=         8.6
 IPart= 13 NShTot=         407 NBatch=          41 AvBLen=         9.9
 IPart= 16 NShTot=         403 NBatch=          39 AvBLen=        10.3
 IPart=  9 NShTot=         416 NBatch=          48 AvBLen=         8.7
 IPart= 19 NShTot=         398 NBatch=          38 AvBLen=        10.5
 IPart=  6 NShTot=         435 NBatch=          60 AvBLen=         7.3
 IPart= 18 NShTot=         399 NBatch=          38 AvBLen=        10.5
 IPart= 15 NShTot=         403 NBatch=          39 AvBLen=        10.3
 IPart=  1 NShTot=         464 NBatch=          80 AvBLen=         5.8
 PrSmSu:  NxtVal=             81.
 Entering OneElI...
 Calculate potential energy integrals
    NBasis = 395  MinDer = 2  MaxDer = 2
 Requested accuracy = 0.1000D-12
 PrmmSu-InSpLW:  IPartL=    0 NPrtUS=   20 NPrtUL=    1 DoSpLW=F IThBeg=    0 IThEnd=   19 NThAct=   20.
 PrsmSu:  NPrtUS=  20 ThrOK=T IAlg=1 NPAlg=1 LenDen=           0 ISkipM=0 DoSpLW=F IThBeg=    0 IThEnd=   19.
 Prism:   IPart=     0 DynPar=F LinDyn=F Incr=          66.
 PRISM was handed    33351953 working-precision words and  7851 shell-pairs
 PRISM was handed    33351953 working-precision words and  7851 shell-pairs
 PRISM was handed    33351953 working-precision words and  7851 shell-pairs
 PRISM was handed    33351953 working-precision words and  7851 shell-pairs
 PRISM was handed    33351953 working-precision words and  7851 shell-pairs
 PRISM was handed    33351953 working-precision words and  7851 shell-pairs
 PRISM was handed    33351953 working-precision words and  7851 shell-pairs
 PRISM was handed    33351953 working-precision words and  7851 shell-pairs
 PRISM was handed    33351953 working-precision words and  7851 shell-pairs
 PRISM was handed    33351953 working-precision words and  7851 shell-pairs
 PRISM was handed    33351953 working-precision words and  7851 shell-pairs
 PRISM was handed    33351953 working-precision words and  7851 shell-pairs
 PRISM was handed    33351953 working-precision words and  7851 shell-pairs
 PRISM was handed    33351953 working-precision words and  7851 shell-pairs
 PRISM was handed    33351953 working-precision words and  7851 shell-pairs
 PRISM was handed    33351953 working-precision words and  7851 shell-pairs
 PRISM was handed    33351953 working-precision words and  7851 shell-pairs
 PRISM was handed    33351953 working-precision words and  7851 shell-pairs
 PRISM was handed    33351953 working-precision words and  7851 shell-pairs
 PRISM was handed    33351953 working-precision words and  7851 shell-pairs
 IPart=  3 NShTot=        7038 NBatch=         414 AvBLen=        17.0
 IPart= 17 NShTot=        6358 NBatch=         374 AvBLen=        17.0
 IPart=  0 NShTot=        7293 NBatch=         429 AvBLen=        17.0
 IPart= 10 NShTot=        6562 NBatch=         386 AvBLen=        17.0
 IPart=  5 NShTot=        6868 NBatch=         404 AvBLen=        17.0
 IPart=  4 NShTot=        6970 NBatch=         410 AvBLen=        17.0
 IPart=  7 NShTot=        6698 NBatch=         394 AvBLen=        17.0
 IPart= 19 NShTot=        6256 NBatch=         368 AvBLen=        17.0
 IPart= 13 NShTot=        6426 NBatch=         378 AvBLen=        17.0
 IPart= 16 NShTot=        6392 NBatch=         376 AvBLen=        17.0
 IPart=  8 NShTot=        6647 NBatch=         391 AvBLen=        17.0
 IPart=  9 NShTot=        6596 NBatch=         388 AvBLen=        17.0
 IPart= 18 NShTot=        6290 NBatch=         370 AvBLen=        17.0
 IPart= 11 NShTot=        6528 NBatch=         384 AvBLen=        17.0
 IPart= 14 NShTot=        6426 NBatch=         378 AvBLen=        17.0
 IPart=  1 NShTot=        7225 NBatch=         425 AvBLen=        17.0
 IPart=  6 NShTot=        6834 NBatch=         402 AvBLen=        17.0
 IPart=  2 NShTot=        7157 NBatch=         421 AvBLen=        17.0
 IPart= 12 NShTot=        6494 NBatch=         382 AvBLen=        17.0
 IPart= 15 NShTot=        6409 NBatch=         377 AvBLen=        17.0
 PrSmSu:  NxtVal=           1321.
 Polarizability after L701:
                1             2             3 
      1  0.000000D+00
      2  0.000000D+00  0.000000D+00
      3  0.000000D+00  0.000000D+00  0.000000D+00
 Dipole Derivatives after L701:
                 1             2             3             4             5 
      1  -0.318728D+00 -0.498353D-01 -0.649769D-01  0.236622D+00  0.133969D+00
      2  -0.158065D-01 -0.204230D+00 -0.553527D-02  0.719143D+00 -0.648975D+00
      3  -0.245049D+00  0.597224D-01 -0.697502D-01 -0.239636D+00 -0.731980D-01
                 6             7             8             9            10 
      1  -0.377968D+00  0.221005D+00  0.379723D-01 -0.202686D+00 -0.100084D+01
      2  -0.254154D+00 -0.249835D+00 -0.175320D+00  0.232993D+00 -0.965394D-01
      3  -0.228258D+00  0.914066D-02  0.286343D+00 -0.323956D+00 -0.835297D-01
                11            12            13            14            15 
      1  -0.511172D+00 -0.312225D+00 -0.173918D+01  0.421678D+00  0.286338D+00
      2  -0.111494D+01 -0.190604D+00  0.248847D+00 -0.105993D+01 -0.373257D-01
      3  -0.313537D+00 -0.113247D+01  0.252909D-01  0.262898D-01 -0.919752D+00
                16            17            18            19            20 
      1  -0.581966D+00  0.405159D+00  0.371904D+00 -0.744472D+00  0.343427D+00
      2   0.274667D+00 -0.789242D+00  0.273291D+00  0.123993D+00 -0.131479D+00
      3   0.192540D+00  0.370104D+00 -0.199152D+00  0.183783D+00  0.246322D+00
                21            22            23            24            25 
      1  -0.252496D-01  0.101966D+00 -0.886847D-01  0.114807D+00  0.484398D+00
      2   0.307115D+00  0.156934D+00  0.348128D+00 -0.887446D-01  0.399930D+00
      3  -0.298491D+00 -0.691851D-01 -0.126843D+00  0.249661D+00  0.504916D-01
                26            27            28            29            30 
      1   0.495201D+00 -0.286469D+00  0.154467D+00  0.122246D-01 -0.942307D-03
      2   0.636947D+00 -0.302950D+00 -0.504774D+00  0.393660D+00  0.139344D+00
      3   0.826604D-01  0.831137D-01 -0.412104D+00  0.214185D+00  0.237811D+00
                31            32            33            34            35 
      1   0.421003D+00 -0.112400D+00  0.568244D+00  0.789219D+00  0.671268D+00
      2   0.133740D+00  0.704905D-01  0.234089D+00  0.533819D-02  0.135870D+00
      3   0.388887D+00 -0.147777D+00  0.797820D+00 -0.228714D+00 -0.230031D+00
                36            37            38            39            40 
      1  -0.579769D+00  0.496967D-01 -0.641053D+00 -0.415121D+00  0.703296D+00
      2  -0.230183D-01  0.885424D-01  0.702141D+00  0.377533D+00 -0.232119D+00
      3   0.293263D+00  0.307978D-01  0.318923D+00  0.317748D+00  0.174493D+00
                41            42            43            44            45 
      1  -0.284439D+00  0.827340D+00  0.260702D+00 -0.402843D+00  0.233604D+00
      2   0.205267D+00 -0.324415D+00 -0.967613D-01  0.696184D+00 -0.403973D+00
      3  -0.876030D-01  0.370448D+00  0.592459D-01 -0.507093D+00  0.404801D+00
                46            47            48            49            50 
      1   0.125736D+01 -0.662208D+00 -0.176404D+00 -0.294554D+00  0.231737D+00
      2  -0.267081D+00  0.322392D+00 -0.122444D-03 -0.688218D+00  0.613037D+00
      3  -0.571823D-01 -0.169766D-01  0.130739D+00  0.220731D+00 -0.101491D+00
                51 
      1   0.395729D-01
      2   0.664775D-01
      3   0.286425D+00
 Hessian after L701:
                1             2             3             4             5 
      1  0.629554D+01
      2  0.408183D+01  0.169429D+02
      3 -0.223732D+01  0.461005D+00  0.128821D+02
      4  0.302206D+00  0.321479D+00 -0.581034D+00  0.961044D+01
      5  0.258372D+00 -0.273819D+00 -0.233278D+00  0.163328D+01  0.791597D+01
      6 -0.559104D+00 -0.277549D+00  0.483139D-01  0.170082D+01  0.400733D+01
      7 -0.575805D+01 -0.136044D+01  0.422841D+01  0.392165D+00  0.146572D+00
      8 -0.133684D+01 -0.924824D+01 -0.121294D+01  0.297885D+00 -0.224729D+00
      9  0.397196D+01 -0.118891D+01 -0.358527D+01 -0.209901D+00 -0.623455D-01
     10 -0.860777D-01  0.286869D+00  0.609521D-01  0.181907D+00  0.226970D+00
     11  0.240890D+00  0.253052D+00  0.428412D+00  0.198219D+00 -0.307797D-01
     12  0.103460D+00  0.535516D+00  0.104393D+00  0.269820D-01  0.944742D-02
     13  0.322096D+00 -0.241652D+00  0.950833D-01  0.184314D+00  0.177760D-02
     14 -0.231883D+00 -0.716562D-01 -0.408587D-01  0.377258D-01 -0.105248D+00
     15  0.151595D+00 -0.577112D-01 -0.251335D+00 -0.609279D-01 -0.323028D-02
     16 -0.164646D+01 -0.407815D+01 -0.127097D+01  0.344478D+00  0.454075D+00
     17 -0.403710D+01 -0.821628D+01  0.775456D+00  0.338462D+00  0.769577D-01
     18 -0.900751D+00  0.704764D+00 -0.920614D+01  0.727191D-01  0.191584D+00
     19  0.303098D+00  0.658028D+00 -0.284011D-01 -0.881207D+01 -0.613799D+00
     20  0.623468D+00  0.383110D-01 -0.124179D+00 -0.290734D+00 -0.200733D+01
     21 -0.195978D+00 -0.912562D-01  0.153814D+00 -0.914848D-01 -0.416038D+01
     22  0.233313D+00  0.165042D+00 -0.384404D+00 -0.803008D-01 -0.561657D-01
     23  0.163787D+00  0.544194D+00 -0.800870D-03 -0.886842D-01 -0.622354D-01
     24 -0.327214D+00 -0.653888D-01 -0.416254D+00 -0.913581D-01 -0.184269D-01
     25 -0.245017D-02  0.618090D-01  0.702151D-01  0.209020D-01  0.193681D-01
     26  0.603375D-01  0.180116D-01  0.800917D-01  0.307142D-01  0.714072D-02
     27  0.358976D-01  0.402361D-01  0.479605D-02 -0.835050D-02 -0.440939D-02
     28 -0.104299D-01 -0.220926D-01 -0.333369D-01 -0.222906D-01  0.166750D-01
     29  0.430085D-02  0.358355D-01  0.471611D-01  0.632228D-01  0.352445D-01
     30  0.904906D-02  0.465203D-01  0.157229D-02  0.201278D-01  0.214098D-01
     31 -0.556527D-02  0.134067D-01  0.896522D-01  0.348315D-01  0.194664D-01
     32  0.102794D-01 -0.452997D-01  0.205541D-01  0.145437D-01 -0.814686D-02
     33  0.811021D-01  0.224842D-01  0.131531D+00  0.371935D-01  0.120100D-01
     34  0.103833D+00 -0.309160D-01  0.318184D-01  0.277861D-01  0.504164D-02
     35  0.132324D-01 -0.505450D-01 -0.249470D-02  0.173798D-01 -0.581926D-02
     36 -0.509819D-02 -0.267608D-02 -0.505603D-01 -0.172991D-01 -0.233965D-02
     37  0.482746D-01 -0.511259D-01  0.188622D-01  0.238453D-01 -0.616862D-02
     38 -0.107367D+00 -0.401315D-02 -0.140828D-01 -0.320810D-01 -0.693806D-02
     39 -0.101664D-01  0.139885D-01 -0.600808D-01 -0.298778D-01  0.646342D-02
     40  0.685867D-01 -0.484937D-01  0.103538D+00  0.386324D-01 -0.333198D-02
     41 -0.497409D-01 -0.232057D-01 -0.461420D-01 -0.686359D-02 -0.971085D-02
     42  0.947081D-01 -0.418492D-01  0.352179D-01  0.191317D-01 -0.177904D-02
     43 -0.241302D+00  0.273578D+00 -0.491538D-01 -0.432662D-01  0.303171D-01
     44  0.275805D+00  0.146822D+00 -0.266785D-01  0.653716D-01  0.117541D+00
     45 -0.637053D-01 -0.314338D-01  0.204697D+00 -0.378579D-01 -0.114260D+00
     46  0.160314D+00 -0.471774D-01 -0.616436D-01  0.146501D+00  0.670848D-01
     47 -0.679986D-01 -0.294400D-01  0.262370D-01  0.777712D-01 -0.212865D+00
     48 -0.552865D-01  0.174397D-01 -0.228658D-01 -0.661070D-01  0.133299D+00
     49 -0.869237D-01  0.180053D-01 -0.522649D-01 -0.235008D+01 -0.219953D+01
     50  0.986329D-01 -0.166623D-01 -0.137467D+00 -0.267769D+01 -0.520523D+01
     51 -0.931518D-01 -0.851806D-01  0.261013D-01 -0.682780D+00  0.218906D+00
                6             7             8             9            10 
      6  0.132473D+02
      7 -0.167366D+00  0.179754D+02
      8 -0.854650D-01  0.140999D+01  0.211581D+02
      9 -0.205177D+00 -0.300708D+01  0.168880D+00  0.180060D+02
     10  0.413207D-01 -0.630347D+01  0.616740D+00  0.395682D+00  0.145365D+02
     11  0.220143D-01  0.530270D+00 -0.316915D+01  0.239168D+01 -0.285073D+00
     12 -0.153298D+00  0.325405D+00  0.241081D+01 -0.446659D+01 -0.525792D+00
     13 -0.753861D-01 -0.282798D+01 -0.180823D+01 -0.907156D+00  0.283069D-01
     14 -0.115545D-01 -0.177100D+01 -0.561655D+01  0.423932D+00 -0.188277D+00
     15 -0.837722D-01 -0.887301D+00  0.424764D+00 -0.629078D+01 -0.110858D+00
     16  0.351269D-01  0.363554D+00 -0.141092D+00  0.372722D+00  0.214949D+00
     17  0.265654D+00 -0.138608D+00  0.159795D+00 -0.108462D+00  0.665814D-01
     18 -0.191435D-01  0.298806D+00 -0.537929D-01  0.142188D+00  0.283859D+00
     19  0.790246D-01  0.304674D+00  0.554744D-01  0.785629D-01 -0.368957D-02
     20 -0.427024D+01  0.189730D-01 -0.166926D+00  0.127866D-01  0.336659D-01
     21 -0.620308D+01  0.566347D-01  0.345094D-01 -0.197478D+00  0.754538D-02
     22 -0.141417D+00 -0.433220D+01  0.908721D+00 -0.699085D+00  0.254750D+00
     23  0.273266D-02  0.106033D+01 -0.306181D+01 -0.148559D+01 -0.306922D+00
     24 -0.595828D-01 -0.834085D+00 -0.152433D+01 -0.353776D+01 -0.171691D-01
     25 -0.549147D-02  0.765501D-01 -0.332556D-01 -0.713283D-02 -0.327312D+01
     26 -0.564845D-02 -0.376221D-01 -0.686640D-01  0.873860D-02  0.103953D+01
     27 -0.808107D-02 -0.299793D-01 -0.497935D-01  0.963182D-01 -0.551222D+00
     28  0.672000D-02  0.724922D-01  0.204858D-01 -0.167374D-02 -0.230305D+01
     29  0.126562D-01  0.868522D-01 -0.294288D-01 -0.319688D-01 -0.122695D+01
     30 -0.263778D-01  0.602642D-01 -0.598727D-01  0.251191D-01 -0.730578D+00
     31  0.136453D-01 -0.926814D-02 -0.228673D-01 -0.350773D-01 -0.331463D+01
     32  0.356094D-02 -0.465780D-01  0.624111D-01 -0.360859D-01 -0.177844D+00
     33 -0.547808D-02 -0.650692D-01  0.717609D-02 -0.158614D-01  0.105624D+01
     34 -0.126402D-01  0.259608D-02 -0.174301D-01  0.708910D-01 -0.772738D-02
     35 -0.594762D-02  0.353566D-01  0.955855D-01 -0.279715D-01  0.153455D-01
     36 -0.170032D-02  0.409653D-01 -0.230894D-02  0.245582D-01 -0.733587D-02
     37 -0.141057D-01  0.487331D-01  0.703832D-01  0.716252D-01 -0.437606D-01
     38  0.131830D-01  0.207346D-01  0.437335D-01 -0.469237D-01 -0.513620D-01
     39 -0.159022D-02  0.285607D-01 -0.244690D-01  0.262463D-02 -0.345364D-01
     40 -0.193190D-02 -0.608162D-01  0.412147D-01 -0.122916D+00  0.165627D-01
     41  0.217957D-03  0.576816D-01  0.575163D-01  0.592132D-01 -0.475059D-01
     42 -0.105843D-01 -0.808634D-01  0.284020D-01  0.783217D-01  0.183911D-01
     43 -0.127911D-01  0.136882D-01 -0.579925D-01  0.331136D-01  0.555469D-01
     44 -0.116210D+00 -0.853613D-01  0.520555D-01 -0.589266D-01 -0.577302D-01
     45  0.378709D-01  0.454055D-01 -0.573322D-01 -0.479816D-02  0.962598D-01
     46 -0.453809D-01  0.334329D-01 -0.458087D-02 -0.472968D-02  0.445092D-01
     47  0.108512D+00 -0.194904D-01 -0.930402D-02  0.337906D-02 -0.687615D-02
     48  0.478390D-01 -0.869460D-03 -0.229078D-04 -0.125200D-01  0.850606D-02
     49 -0.841047D+00  0.848625D-02  0.139818D-02  0.192927D-03  0.245201D-02
     50  0.336753D+00  0.923359D-01 -0.343460D-01 -0.214257D-01  0.628403D-01
     51 -0.660342D+01 -0.118371D-01 -0.421931D-02 -0.589417D-01  0.873682D-02
               11            12            13            14            15 
     11  0.137517D+02
     12 -0.203782D+01  0.141215D+02
     13 -0.101397D+00 -0.555644D-01  0.121315D+02
     14  0.701815D-01  0.103159D+00  0.160676D+01  0.144759D+02
     15  0.102312D+00 -0.247936D-01  0.419716D+00 -0.291400D+00  0.153099D+02
     16  0.739279D-02  0.246466D+00  0.148669D+00 -0.110073D+00  0.718249D-01
     17 -0.237451D+00  0.431036D-01 -0.105897D+00 -0.761914D-01 -0.245635D-01
     18 -0.623457D-03 -0.750966D-01  0.446252D-01 -0.135164D-01 -0.109332D+00
     19 -0.246139D-01 -0.145022D-01  0.126400D+00 -0.478983D-01 -0.696831D-02
     20 -0.662765D-01  0.202653D-01 -0.456897D-01 -0.661089D-01  0.942143D-02
     21  0.142391D-01 -0.799875D-01 -0.225030D-01  0.115384D-01 -0.773950D-01
     22 -0.254565D+00 -0.482821D-01 -0.140340D+00 -0.251893D-01  0.783103D-01
     23 -0.300728D+00 -0.929222D-01 -0.182614D-01  0.977152D-01 -0.556220D-02
     24 -0.157937D-01  0.376072D+00  0.892983D-01  0.634110D-02  0.592922D-01
     25  0.102033D+01 -0.660475D+00 -0.359560D-02  0.180203D-02 -0.344023D-02
     26 -0.271162D+01 -0.933076D+00  0.558161D-03  0.696930D-02  0.926252D-04
     27 -0.767754D+00 -0.360027D+01 -0.364932D-02 -0.148858D-01 -0.122784D-01
     28 -0.982583D+00 -0.501411D+00  0.455571D-01 -0.979156D-01 -0.620076D-01
     29 -0.383506D+01  0.243749D+00 -0.104292D+00  0.515432D-01  0.619120D-01
     30  0.293485D+00 -0.420224D+01 -0.693227D-01  0.657333D-01 -0.929599D-02
     31 -0.246092D+00  0.104509D+01 -0.104520D-01  0.195568D-02  0.472934D-02
     32 -0.385441D+01 -0.366423D+00  0.176709D-02 -0.153356D-01  0.179833D-02
     33 -0.491756D+00 -0.199506D+01  0.518904D-02  0.138275D-01  0.228543D-01
     34  0.865024D-02  0.693895D-02 -0.295654D+01  0.108006D+01 -0.884405D+00
     35 -0.138366D-02 -0.911803D-02  0.892876D+00 -0.292742D+01 -0.815046D+00
     36  0.760638D-03  0.227260D-02 -0.786921D+00 -0.884453D+00 -0.310069D+01
     37 -0.569121D-01 -0.423471D-01 -0.402725D+01  0.116065D+00  0.744404D-01
     38  0.115130D+00  0.119502D+00  0.299702D+00 -0.221611D+01  0.120945D+01
     39  0.110721D+00  0.219116D-01  0.192989D+00  0.115642D+01 -0.317108D+01
     40 -0.438173D-01  0.395851D-02 -0.301518D+01 -0.363315D+00  0.121098D+01
     41  0.187362D-01 -0.229486D-02 -0.373706D+00 -0.360061D+01 -0.599924D+00
     42 -0.138134D-01 -0.269930D-01  0.106874D+01 -0.518129D+00 -0.224205D+01
     43 -0.360331D-01  0.777320D-01 -0.415897D-03 -0.329775D-02  0.313067D-02
     44 -0.162879D-01 -0.499741D-01 -0.105470D-01 -0.121787D-02 -0.866026D-02
     45 -0.425001D-01  0.368844D-01  0.677203D-02 -0.604051D-02 -0.304434D-02
     46 -0.476700D-02  0.501141D-02  0.143894D-01 -0.419484D-02  0.317672D-03
     47 -0.892878D-02 -0.161866D-04 -0.802151D-02 -0.367175D-02 -0.830914D-03
     48  0.108929D-03 -0.109615D-01 -0.144162D-02 -0.127543D-03 -0.515957D-02
     49  0.301063D-01  0.733007D-02 -0.195037D-01 -0.132645D-02  0.866726D-03
     50  0.233058D-01  0.609365D-02  0.142596D-01 -0.217114D-02 -0.282056D-02
     51  0.633234D-02 -0.277441D-01 -0.464576D-03  0.149110D-04 -0.110147D-01
               16            17            18            19            20 
     16  0.109007D+02
     17  0.266354D+01  0.203830D+02
     18  0.543669D+01  0.382940D+01  0.218744D+02
     19 -0.559430D+01  0.152700D+01 -0.571095D+01  0.153397D+02
     20  0.127415D+01 -0.100013D+02 -0.354483D+01 -0.109571D+00  0.160975D+02
     21 -0.526527D+01 -0.365126D+01 -0.908727D+01  0.539563D+01  0.740754D+01
     22 -0.183278D-02  0.203244D+00 -0.978175D-01  0.202634D+00 -0.128255D+00
     23  0.190044D+00 -0.467733D-01  0.946235D-01 -0.195204D+00 -0.874367D-01
     24 -0.108935D+00  0.131730D+00  0.135736D+00  0.252538D+00 -0.859748D-01
     25  0.317866D-01  0.265207D-01  0.226211D-01  0.477542D-01  0.275893D-01
     26  0.314358D-01 -0.797574D-02  0.116713D-01  0.381050D-01  0.103608D-02
     27  0.118625D-01  0.110080D-02 -0.182432D-01  0.341118D-02  0.229788D-03
     28 -0.608644D-01  0.113133D-01  0.307084D-01 -0.150446D-01  0.356284D-02
     29  0.488571D-01 -0.466261D-01  0.787047D-01  0.361484D-01 -0.118317D-01
     30  0.785433D-01  0.621696D-01  0.336352D-01  0.202621D-01  0.100393D-01
     31  0.120791D-01 -0.115334D-02  0.334898D-01  0.240589D-01  0.646349D-02
     32  0.856585D-03 -0.173550D-01 -0.266349D-02  0.393013D-02 -0.101879D-01
     33  0.371850D-01 -0.334617D-03  0.239131D-01  0.293719D-01  0.541600D-02
     34  0.393706D-01 -0.917223D-02 -0.475160D-02  0.269433D-01 -0.160933D-02
     35  0.226644D-02 -0.119189D-01 -0.182106D-03  0.610833D-02 -0.630437D-02
     36 -0.112845D-01  0.308681D-03 -0.132027D-01 -0.104079D-01  0.361068D-03
     37  0.175921D-01 -0.229766D-01 -0.389274D-02  0.804495D-03 -0.398400D-02
     38 -0.382469D-01  0.114560D-01  0.509231D-02 -0.164594D-01  0.115326D-02
     39 -0.103224D-01  0.783497D-02 -0.143875D-01 -0.919395D-02  0.459872D-02
     40  0.169029D-01 -0.955934D-02  0.891317D-02  0.159891D-01 -0.515805D-02
     41 -0.113887D-01 -0.431364D-02 -0.401414D-02 -0.732306D-02 -0.462041D-02
     42  0.155821D-01 -0.511569D-02 -0.165259D-02  0.105645D-01 -0.228327D-02
     43 -0.442250D+01 -0.497337D+00  0.265406D+00  0.256251D+00 -0.225750D+00
     44 -0.382549D+00 -0.217418D+01 -0.134453D+01 -0.304658D+00 -0.168559D+00
     45  0.202237D+00 -0.138536D+01 -0.370736D+01  0.219137D+00  0.406173D+00
     46 -0.339930D+00 -0.387908D-01  0.223037D+00 -0.232884D+01 -0.118786D+01
     47 -0.936108D-02  0.242278D+00 -0.151466D-01 -0.117736D+01 -0.363618D+01
     48  0.204501D+00 -0.137289D-01  0.128239D+00 -0.234933D+00  0.134359D+00
     49 -0.241905D-01  0.239344D-01 -0.271463D-02  0.105637D+00  0.107352D-01
     50  0.982386D-01 -0.330804D-01  0.634578D-01  0.172092D+00  0.951219D-01
     51 -0.459589D-01  0.720689D-01 -0.862890D-01 -0.731511D-01  0.163148D-01
               21            22            23            24            25 
     21  0.196915D+02
     22  0.224536D+00  0.379319D+01
     23 -0.101304D+00 -0.102074D+01  0.287700D+01
     24 -0.439759D-01  0.108210D+01  0.165266D+01  0.350084D+01
     25  0.197851D-02  0.144834D-02  0.804499D-01 -0.156718D-01  0.315468D+01
     26  0.104667D-02  0.741083D-01  0.118415D+00 -0.327091D-01 -0.112286D+01
     27 -0.137285D-01 -0.842523D-02 -0.190035D-01 -0.351073D-01  0.412259D+00
     28 -0.804856D-02  0.331116D-01  0.469200D-02  0.446817D-02 -0.168885D+00
     29  0.822881D-02  0.156218D-01 -0.851422D-01 -0.175141D-01 -0.663054D-01
     30 -0.326929D-01  0.380808D-02 -0.280799D-01  0.298194D-01  0.170127D+00
     31  0.182300D-01  0.246485D-02  0.116423D-01  0.935986D-03  0.130252D+00
     32  0.306279D-02  0.594709D-02  0.450983D-02  0.242898D-02 -0.833193D-03
     33  0.340341D-02  0.995308D-02  0.136798D-01 -0.484048D-02  0.210400D-01
     34 -0.833777D-02  0.717984D-01  0.535802D-01 -0.787698D-01 -0.928328D-02
     35 -0.230392D-02  0.406425D-01 -0.150596D-01 -0.280393D-01 -0.134193D-01
     36 -0.435533D-02 -0.677418D-01 -0.328453D-01  0.175966D-01 -0.950467D-02
     37 -0.392356D-02 -0.249633D-01  0.241000D-01  0.674998D-01 -0.151029D-02
     38  0.748938D-02  0.299887D-01  0.237844D-01 -0.298108D-01  0.394576D-02
     39 -0.304012D-02  0.572238D-01 -0.244894D-01 -0.207502D-01  0.180012D-02
     40  0.194006D-02 -0.156063D-01  0.612038D-02 -0.220482D-02 -0.413671D-02
     41 -0.115928D-03  0.129045D-02  0.346619D-02  0.276923D-03 -0.136310D-02
     42 -0.523021D-02  0.574736D-02  0.328833D-02  0.349027D-02 -0.125104D-02
     43  0.158773D+00 -0.439279D-02  0.189307D-01 -0.167775D-01 -0.130389D-02
     44  0.386810D+00  0.238967D-01 -0.183001D-01  0.242943D-01 -0.574422D-02
     45  0.149991D-01 -0.187202D-01  0.220991D-01 -0.101693D-01  0.269077D-02
     46 -0.271527D+00 -0.102556D-01 -0.773409D-03  0.567863D-03  0.576522D-02
     47  0.151261D+00  0.567579D-02  0.223163D-02 -0.123409D-02 -0.186749D-02
     48 -0.429185D+01 -0.137893D-02  0.808377D-03 -0.131690D-03 -0.241501D-03
     49  0.179936D-02  0.171794D-01  0.169117D-01 -0.521865D-02 -0.486011D-02
     50 -0.191004D-01  0.107381D-01  0.616839D-02  0.148782D-02  0.384136D-02
     51  0.176363D+00  0.559852D-02  0.700834D-03  0.572515D-02  0.476833D-03
               26            27            28            29            30 
     26  0.247969D+01
     27  0.611252D+00  0.368729D+01
     28 -0.706685D-01  0.130558D+00  0.252849D+01
     29  0.129091D+00  0.233048D-01  0.103504D+01  0.370135D+01
     30  0.338067D-01  0.501655D-01  0.544145D+00 -0.492286D+00  0.405324D+01
[...]
   yx        -0.509477D+01     -0.754966D+00     -0.840013D+00
   yy         0.651682D+02      0.965692D+01      0.107448D+02
   zx         0.102973D+02      0.152590D+01      0.169779D+01
   zy        -0.168024D+01     -0.248986D+00     -0.277035D+00
   zz         0.837453D+02      0.124098D+02      0.138077D+02

 ----------------------------------------------------------------------

 Test job not archived.
 1\1\GINC-C0152\Freq\RM062X\CC-pVTZ\C5H10O2\HARMS.N\29-Sep-2019\0\\#P G
 eom=AllCheck Guess=TCheck SCRF=Check Test GenChk RM062X/CC-pVTZ Freq\\
 Gaussian input prepared by ASE\\0,1\O,2.530253629,1.8867308187,1.51297
 82989\O,1.8529558474,-0.3969461902,2.8767551696\C,2.2456336945,3.25002
 23003,1.1874711408\C,2.7572226213,3.5817581932,-0.2041806438\C,2.91341
 07934,4.0932947082,2.2529731185\C,1.6955838772,0.9587988602,0.94326249
 31\C,1.4005318659,-0.1408134559,1.6229658002\H,1.1605016333,3.39123255
 5,1.2302620722\H,3.836222381,3.4303645607,-0.2427077408\H,2.2943028882
 ,2.9547249098,-0.9649746883\H,2.5406942807,4.6216857122,-0.4478988213\
 H,3.9882927604,3.910351105,2.2451090402\H,2.5252909061,3.8435354584,3.
 2389134643\H,2.7397113341,5.1521010835,2.06496016\H,1.3324642948,1.136
 6594915,-0.0588006411\H,0.7870774588,-0.9258094599,1.2098516365\H,2.39
 6649962,0.354675674,3.1424190055\\Version=EM64L-G16RevA.03\State=1-A\H
 F=-346.9479196\RMSD=2.686e-09\RMSF=8.034e-07\ZeroPoint=0.1475351\Therm
 al=0.156027\Dipole=-0.0858365,0.8545255,-0.4334998\DipoleDeriv=-0.5267
 819,-0.538393,0.0198169,-0.3968289,-1.6464767,0.2346274,-0.1451965,-0.
 1408373,-0.4504355,-0.3646463,0.2404435,-0.337605,-0.0039387,-0.426825
 7,0.0943288,-0.0865057,0.6195335,-1.1231638,0.2954092,-0.0660587,-0.02
 22557,0.1448129,1.1134244,-0.1348852,-0.0802261,-0.2180152,0.5137006,0
 .0551601,-0.010634,0.0451593,-0.0382952,-0.0245154,-0.0093773,0.052371
 5,0.0866535,-0.1355454,0.0605048,-0.0540618,-0.032053,-0.053426,-0.032
 2468,-0.0174516,-0.0314508,-0.0607598,-0.044282,0.1888929,0.7119874,0.
 0546962,0.4401517,0.5434117,0.0446418,0.1903508,0.3760425,-0.0565373,0
 .0201301,-0.1301279,0.339508,0.047023,0.1883009,-0.2306304,0.2087315,-
 0.6293113,0.928446,-0.152114,0.0738368,0.0027667,-0.0502479,-0.027958,
 -0.0005583,0.0216328,0.0261169,-0.0229239,-0.1009928,0.0057646,0.03215
 85,0.0348265,0.0661135,0.0025219,-0.0330851,0.0085006,0.0443367,0.0235
 129,-0.0533297,-0.0497838,-0.0488656,0.0130429,-0.0960798,-0.0399671,-
 0.0783917,-0.0472733,0.0541034,0.0330753,0.0022276,0.0224491,-0.119869
 4,0.0587794,0.0176033,0.0295125,0.054111,-0.0998905,0.0028005,-0.01497
 63,0.0551964,0.0580457,-0.0075796,0.0301722,-0.0246022,0.0476429,0.035
 5812,-0.0244112,0.0534407,-0.0239939,0.0601685,0.048052,0.0358466,0.00
 65589,-0.1073845,0.0543657,0.0246479,-0.0147502,0.005978,-0.1193145,0.
 0162918,-0.0229097,0.0450025,0.0549934,0.0855029,-0.1057469,-0.0433864
 ,-0.0202507,0.0770224,0.0383759,-0.0725693,0.0025194,-0.0327997,0.0926
 625,-0.0539553,-0.0632924,-0.0730312,0.0299798,-0.024598,-0.056611,-0.
 001639,0.0383417,0.2785996,-0.0558377,0.0283289,-0.0415594,0.2476965,-
 0.0164587,0.0118127,-0.0468837,0.3387732\Polar=56.0234734,9.4735585,82
 .4160007,1.2334827,-7.4454623,67.5512126\Quadrupole=-0.0447738,-0.7364
 81,0.7812548,0.6550644,1.7967373,2.057642\PG=C01 [X(C5H10O2)]\NImag=0\
 \0.24339661,0.09337751,0.51253133,0.12783216,0.00727342,0.19297745,0.0
 0230705,0.00773055,0.00778804,0.24946230,0.00659242,0.00047470,-0.0000
 6050,0.22386516,0.42703809,0.01170277,0.00752610,0.00972601,0.19087459
 ,0.01014007,0.42147801,-0.08828747,0.04721988,-0.02594086,-0.00020168,
 -0.00021806,0.00047177,0.62329346,0.02225906,-0.18265126,0.02791752,-0
 .00124526,0.00183738,-0.00612492,0.00661008,0.46513753,-0.02408218,0.0
 4300754,-0.08353369,0.00313143,0.00098122,0.00328789,0.00942010,0.0209
 1793,0.50712421,0.00617787,0.00487802,-0.00840671,-0.00005085,0.000278
 27,-0.00037854,-0.10256889,-0.01095360,0.04591275,0.56843631,-0.010343
 21,-0.03218501,0.04039077,-0.00048655,-0.00060766,0.00016115,-0.007914
 01,-0.07535820,0.00914840,-0.01039417,0.58209623,0.00024436,0.01259027
 ,-0.00811776,-0.00029983,0.00029842,-0.00028801,0.04006888,0.01568203,
 -0.18102128,0.03544716,0.02414112,0.50628863,0.00573121,0.00501912,0.0
 0462810,-0.00015197,0.00008451,0.00040218,-0.11362564,-0.03638163,-0.0
 4626287,0.00598271,0.00736506,0.00820498,0.56035989,-0.02027241,-0.044
 78335,-0.02674072,0.00057756,-0.00007424,0.00080355,-0.02623660,-0.104
 59855,-0.04366583,0.00306501,0.00701958,0.00081527,-0.02369727,0.56495
 304,0.00349572,0.00453082,0.00689536,-0.00036976,-0.00007147,-0.000867
 27,-0.04377141,-0.05457544,-0.14800336,-0.01451628,-0.01851658,-0.0313
 8222,-0.03222386,-0.03913938,0.54694674,-0.14901013,-0.10911276,-0.083
 76104,0.00573298,0.01181434,-0.02896979,0.00147724,-0.00976217,0.00834
 442,-0.00018479,0.00245817,0.00149029,-0.00050308,0.00369378,-0.001153
 06,0.29577492,-0.08220593,-0.18229060,-0.03586135,-0.00489707,0.000060
 02,0.01165522,-0.02581021,-0.04610436,-0.01739110,-0.00059258,0.002815
 72,0.00080536,0.00005509,-0.00435562,0.00168745,0.20287784,0.70561812,
 -0.08182710,-0.04772805,-0.11445731,-0.01105411,0.04193098,-0.05733252
 ,0.01072648,-0.00740959,0.00409391,-0.00045536,0.00517168,0.00096397,-
 0.00024174,0.00110699,-0.00073916,0.14495847,-0.23735111,0.67007297,-0
 .01494923,-0.04941824,0.00199486,-0.09132337,-0.02024175,-0.07789125,-
 0.00287701,0.00626799,-0.00497785,0.00016355,-0.00046546,-0.00013303,0
 .00067896,-0.00151377,0.00089233,-0.08942403,-0.09050845,0.03310345,0.
 34237463,-0.02558054,-0.04289953,0.00988956,0.00135233,-0.10864538,0.0
 7464553,-0.00307852,0.00340996,-0.00175869,0.00020898,-0.00067021,-0.0
 0047267,0.00061444,-0.00069198,0.00036680,-0.10702650,-0.41136677,0.19
 014728,0.27800082,0.76970654,-0.01842249,-0.03160928,0.00606759,-0.101
 03958,0.03356985,-0.29345896,-0.00447889,0.00461465,-0.00669939,0.0002
 0390,-0.00036669,-0.00023562,-0.00017672,-0.00209896,0.00130495,0.0480
 3674,0.21472096,-0.20880859,0.14610753,-0.16422175,0.62373059,-0.00527
 607,0.00966492,-0.00213583,-0.00015363,-0.00016792,-0.00055531,-0.2977
 5564,0.02624671,0.01215809,-0.01044626,0.00009410,0.00137098,-0.013266
 44,0.00016138,-0.00003459,0.00118312,-0.00183406,-0.00182298,0.0009859
 0,0.00065105,0.00117800,0.32253216,0.03683202,-0.02802525,0.00305763,-
 0.00006552,-0.00016301,-0.00049089,0.01899204,-0.05032983,-0.00325371,
 -0.00695177,0.00305113,-0.00022188,-0.01977858,0.00342342,0.00036749,0
 .00500008,0.00513554,0.00203750,-0.00095861,-0.00085020,0.00096609,-0.
 03256222,0.06809913,-0.00985337,0.00564965,0.00184654,-0.00007099,0.00
 004412,-0.00048154,0.01368950,-0.00155952,-0.05328266,0.03254946,-0.00
 272989,-0.00282525,-0.02486616,0.00173068,0.00006749,-0.00007394,-0.00
 149743,0.00018420,0.00029206,-0.00011367,0.00010364,-0.01116067,-0.000
 59851,0.05913976,0.00183848,-0.00077595,-0.00090671,0.00005827,-0.0000
 6871,0.00017505,-0.01463117,0.00260195,0.00118382,-0.31066867,0.037317
 01,0.00616661,0.00095511,-0.00017110,-0.00094500,-0.00017801,-0.000160
 79,-0.00007672,0.00006485,0.00012962,-0.00006959,0.00083315,-0.0006527
 2,0.00227185,0.33737271,0.00004924,0.00151213,-0.00095331,0.00001209,-
 0.00000895,-0.00004124,-0.00794033,-0.00036914,0.00144038,0.03804910,-
 0.05237197,-0.00215902,0.00040198,-0.00020252,-0.00039816,-0.00050724,
 -0.00067987,-0.00042831,0.00015615,0.00005511,0.00014586,-0.00066937,0
 .00039129,0.00147243,-0.04094907,0.05123018,-0.00194712,-0.00144339,0.
 00247393,-0.00001970,-0.00003407,0.00004899,0.03430146,-0.00547659,-0.
 00319435,0.00451196,-0.00093372,-0.04674910,0.00119785,0.00023159,0.00
 201962,-0.00019329,0.00006603,-0.00006338,-0.00000907,-0.00010864,0.00
 005905,0.00169423,0.00167311,-0.00564840,-0.00915430,0.00114868,0.0515
 5963,-0.00013964,0.00033040,-0.00128740,0.00010452,-0.00006715,0.00000
 450,0.00535757,0.00943365,0.00843079,-0.09885851,-0.06871360,-0.080821
 11,-0.00035866,-0.00091128,0.00191073,-0.00035811,-0.00027215,-0.00004
 658,-0.00004247,0.00011316,0.00010790,0.00053366,0.00054275,-0.0007521
 2,-0.01222988,-0.01955452,-0.02193792,0.10291612,0.00053797,0.00114765
 ,-0.00130333,0.00001635,0.00000617,-0.00018640,0.00463919,0.00376270,0
 .00622251,-0.06814296,-0.13799924,-0.10951147,-0.00027047,-0.00006971,
 0.00131360,-0.00063437,-0.00077117,0.00026046,0.00009533,-0.00001086,0
 .00027281,0.00019669,0.00005305,-0.00069791,0.00226947,0.00272130,0.00
 465638,0.07640649,0.14821622,0.00004743,-0.00009375,0.00272918,0.00018
 729,-0.00026835,0.00076071,-0.01510274,-0.01994042,-0.02013411,-0.0803
 7668,-0.10776990,-0.17627928,0.00360030,0.00286669,-0.00499396,-0.0006
 9566,-0.00023652,-0.00083980,0.00026522,0.00058849,-0.00001504,0.00014
 678,0.00016948,0.00119126,0.00071105,0.00149206,0.00075650,0.08693692,
 0.11888082,0.19195422,0.00045759,-0.00229300,0.00283509,0.00000497,-0.
 00015499,0.00011889,0.00110390,-0.01092531,0.00052343,-0.05788326,0.05
 283891,-0.01118246,0.00005011,0.00009003,-0.00033181,0.00033269,0.0002
 5467,0.00025342,0.00004292,0.00006857,0.00003496,-0.00007921,0.0002172
 8,-0.00072959,-0.00417599,0.03080108,-0.00732773,0.00213392,-0.0139635
 0,0.00423270,0.05777373,-0.00156108,-0.00040633,0.00184577,0.00008686,
 -0.00016076,0.00040000,0.00222403,-0.00711358,-0.00123782,0.05221600,-
 0.29376001,0.05760100,0.00014064,-0.00024185,-0.00072422,0.00066491,0.
 00088616,0.00041560,-0.00012079,0.00003186,-0.00023690,-0.00043116,0.0
 0025723,0.00028551,0.00009620,-0.00257586,0.00014552,0.00388158,-0.016
 62932,0.00441338,-0.05712754,0.31858210,0.00271035,0.00588690,-0.00692
 314,0.00013822,0.00008432,-0.00001057,-0.00920140,0.02675264,-0.002010
 42,-0.01062490,0.05531322,-0.06010811,-0.00043884,0.00005375,0.0010376
 8,-0.00144575,-0.00146910,-0.00149291,0.00031592,0.00049771,0.00030571
 ,0.00050777,-0.00057149,0.00101620,-0.00001301,-0.00156843,-0.00105524
 ,0.00569912,-0.02164939,0.00566506,0.01190461,-0.06257946,0.06365006,0
 .00152908,0.00017117,0.00060306,0.00012908,-0.00005608,0.00015859,-0.0
 1870769,0.00289313,-0.00063618,0.00096598,0.00021643,0.00104059,-0.307
 43142,0.04597786,0.00422019,0.00043011,-0.00018163,0.00021467,-0.00000
 971,0.00009802,-0.00016590,0.00038721,-0.00201113,-0.00241088,0.000548
 73,0.00017102,-0.00077006,0.00038171,-0.00014519,0.00008279,0.00002692
 ,-0.00012467,-0.00000883,0.33499785,0.00070609,0.00225431,0.00066711,0
 .00004404,0.00000315,0.00007121,-0.02082485,0.00192000,-0.00068966,0.0
 0002959,0.00012025,0.00126318,0.04756272,-0.05460034,0.00019914,-0.000
 18152,-0.00040591,-0.00010121,0.00015066,0.00014811,-0.00001335,-0.001
 54689,-0.00177685,-0.00281683,0.00041325,0.00024713,-0.00002323,-0.000
 00524,-0.00010697,0.00014948,0.00014042,0.00002432,-0.00000035,-0.0494
 3583,0.05523694,0.00150844,0.00147838,0.00073994,-0.00006138,0.0000047
 0,0.00006716,-0.02633802,0.00483082,-0.00113781,-0.00118886,0.00069785
 ,0.00166798,0.00572287,-0.00070503,-0.04780814,0.00009717,-0.00004739,
 -0.00012634,0.00010668,0.00007539,0.00000536,-0.00176184,-0.00312083,-
 0.00289774,0.00052582,-0.00026955,-0.00042543,0.00040604,-0.00003809,0
 .00020537,-0.00000632,0.00003596,-0.00009477,-0.00217824,0.00259912,0.
 05006063,0.00007607,0.00120060,0.00070757,-0.00013562,0.00000452,-0.00
 019399,0.00541641,0.00446152,-0.01575110,-0.00102517,-0.00212064,-0.00
 175058,-0.08471199,-0.02376968,0.09111876,-0.00016038,0.00021849,-0.00
 013937,0.00007898,-0.00007610,0.00026320,0.00070449,0.00089376,0.00031
 470,0.00035045,-0.00016161,-0.00034755,0.00069979,-0.00009062,-0.00091
 667,-0.00015385,-0.00017062,0.00018991,-0.01000351,-0.00841224,0.02882
 057,0.08759812,0.00034902,0.00198263,0.00065435,-0.00000483,0.00013149
 ,0.00014357,0.00805864,0.00292734,-0.01802654,-0.00166460,-0.00225282,
 -0.00202950,-0.02361738,-0.06223148,0.05958831,-0.00022528,-0.00013828
 ,-0.00007905,0.00001506,0.00008510,-0.00010046,0.00031685,0.00050882,0
 .00085857,-0.00012783,-0.00012348,0.00014721,0.00008895,0.00048848,-0.
 00109118,-0.00012173,0.00028786,-0.00019036,0.00199617,0.00052727,-0.0
 0612697,0.02692595,0.06356453,0.00013569,0.00093836,0.00249906,0.00003
 771,0.00007203,0.00026109,0.00962859,0.00737171,-0.02237587,-0.0034222
 9,-0.00385551,-0.00229178,0.08911957,0.05694212,-0.26796676,-0.0001908
 3,-0.00016567,0.00011254,-0.00004872,0.00002539,-0.00022277,-0.0002616
 9,0.00025584,0.00090436,-0.00007951,-0.00001839,0.00027952,0.00062307,
 0.00032876,-0.00141169,-0.00005411,0.00003737,0.00033376,-0.00045310,-
 0.00048073,0.00092329,-0.09624553,-0.06192779,0.29236493,-0.00108438,-
 0.00337610,-0.00265417,0.00017356,-0.00005320,0.00019585,0.00196747,-0
 .01340599,0.00487947,0.00019529,0.00021658,0.00033566,-0.05394963,0.04
 375277,-0.00868149,0.00096062,-0.00055444,0.00007820,-0.00029444,-0.00
 009157,-0.00031064,0.00002703,0.00049486,0.00071065,-0.00001594,0.0001
 5482,-0.00007208,-0.00017862,-0.00003860,0.00014009,0.00029192,0.00004
 181,-0.00003109,-0.00306789,0.03138848,-0.00573557,0.00109158,-0.01218
 951,0.00102380,0.05409265,-0.00348789,-0.00326382,-0.00343813,0.000155
 32,-0.00009863,0.00033313,0.00574245,-0.01551766,0.00682779,0.00046681
 ,0.00020379,0.00098370,0.04246305,-0.30301138,0.04482981,0.00126462,0.
 00019349,0.00041505,-0.00037680,-0.00018960,-0.00055636,-0.00050530,0.
 00042948,0.00007904,-0.00010228,-0.00003041,-0.00007654,-0.00020588,0.
 00041056,-0.00002507,-0.00003723,0.00064266,-0.00046434,0.00025698,-0.
 00363632,0.00053768,0.00096553,-0.00558147,0.00062428,-0.04635297,0.32
 953404,-0.00313126,-0.00484070,-0.00283358,0.00017641,0.00003326,0.000
 36165,0.00725613,-0.01980606,0.00532622,0.00027693,0.00020022,0.000457
 78,-0.00882176,0.04784142,-0.05669799,0.00075864,-0.00097931,0.0007030
 4,-0.00042780,-0.00020232,-0.00068148,-0.00008037,0.00067762,0.0007286
 3,0.00010375,-0.00000410,-0.00002184,-0.00003929,0.00017745,0.00028323
 ,-0.00016324,-0.00018668,-0.00084552,0.00023527,-0.00099959,-0.0012621
 4,-0.00611708,0.02819763,-0.00342331,0.01014145,-0.04991965,0.05800057
 ,-0.00958386,-0.00231451,-0.02190173,0.00803829,-0.00543706,-0.0005033
 6,0.00027383,0.00276891,-0.00073841,-0.00024833,-0.00019404,-0.0002961
 1,-0.00001748,-0.00037910,0.00030550,-0.06631800,0.00633781,-0.0933757
 2,0.00254480,0.00056963,0.00684295,0.00014712,-0.00016154,0.00028033,-
 0.00005433,0.00003383,0.00001554,0.00008546,-0.00084800,0.00079994,0.0
 0012242,0.00020815,0.00034407,0.00001498,0.00008036,-0.00002103,0.0000
 2729,0.00010594,0.00013874,-0.00004206,-0.00018079,-0.00005141,0.06873
 375,-0.01217981,-0.00016318,-0.02421264,-0.00558855,-0.00195434,0.0029
 1012,-0.00064946,0.00333088,-0.00217556,-0.00040077,-0.00029158,0.0002
 7145,0.00022715,-0.00040332,0.00014674,0.00764746,-0.06104677,0.057215
 93,0.01200499,0.00284984,0.02328094,0.00025004,-0.00046711,-0.00018027
 ,0.00016367,0.00019593,0.00002041,-0.00105448,-0.00121114,0.00098858,0
 .00017375,0.00015763,0.00000989,0.00018097,0.00008684,0.00003982,-0.00
 000946,0.00008184,0.00012263,-0.00000444,-0.00015244,0.00001503,-0.001
 92853,0.06055688,-0.00700988,-0.00586406,-0.00995520,-0.00236856,0.003
 48951,0.00280656,-0.00141658,0.00364439,-0.00015248,0.00034866,-0.0003
 1758,-0.00011513,0.00036220,-0.00039547,0.00005944,-0.09521944,0.05799
 576,-0.30101828,-0.00463655,-0.00154821,-0.01008592,0.00054268,-0.0005
 6160,-0.00018727,0.00011654,0.00007989,-0.00000144,0.00073283,0.001207
 81,0.00027388,-0.00004366,-0.00007752,0.00032230,0.00008125,0.00014242
 ,0.00009418,-0.00003121,0.00004353,0.00009548,-0.00004484,-0.00012887,
 -0.00006606,0.10662102,-0.05688820,0.31805134,0.00912581,-0.00186268,-
 0.00028426,-0.00638290,-0.00716675,-0.00808555,-0.00010035,-0.00123602
 ,-0.00113821,-0.00000944,0.00014739,0.00005354,0.00012639,-0.00036792,
 0.00016952,-0.00228243,-0.00304818,-0.00302160,-0.13639376,-0.13163668
 ,-0.06649466,-0.00024065,-0.00007383,-0.00007485,-0.00001783,-0.000021
 48,0.00002265,-0.00003225,-0.00001872,0.00002363,-0.00002473,0.0000211
 2,-0.00003942,-0.00003460,0.00000904,-0.00000322,0.00000223,0.00001792
 ,0.00000355,-0.00008608,-0.00006408,-0.00007860,-0.00288790,0.00140260
 ,0.00167343,0.13741557,-0.00318559,-0.00191368,0.00362220,0.00579697,0
 .00939956,0.00284181,-0.00127768,0.00135168,0.00040569,0.00005979,-0.0
 0037959,-0.00005542,0.00006866,-0.00012321,0.00005320,-0.01217431,-0.0
 0977789,-0.01372271,-0.13521248,-0.21806848,-0.07585153,0.00020106,-0.
 00003299,0.00003317,0.00001200,0.00002222,-0.00002625,0.00001953,0.000
 03157,0.00001164,-0.00001080,-0.00003398,0.00011984,0.00002870,0.00002
 990,0.00001751,-0.00000411,0.00002015,-0.00000141,0.00001342,-0.000034
 84,-0.00003990,0.00193734,-0.00098793,-0.00024241,0.14291554,0.2193722
 5,-0.00316199,0.00485208,-0.00097516,-0.02185240,-0.02424264,-0.017266
 00,0.00077706,0.00028706,0.00087190,-0.00002196,0.00007104,-0.00000549
 ,-0.00014385,0.00043004,-0.00020887,0.01011647,0.00937170,0.01101802,-
 0.06430856,-0.07224736,-0.08970427,0.00003964,0.00006763,0.00002117,0.
 00000734,-0.00000439,-0.00000970,0.00001957,0.00000083,-0.00001715,0.0
 0002029,0.00001389,-0.00003072,0.00001693,-0.00001767,-0.00001892,-0.0
 0002260,0.00000188,0.00001869,0.00006795,0.00008687,0.00011822,0.00123
 217,-0.00094517,-0.00052002,0.07918661,0.08018398,0.10154613,-0.002308
 97,-0.00043893,0.00088983,-0.16761101,-0.20900755,-0.08752638,-0.00013
 434,0.00036697,-0.00039750,0.00002245,-0.00002198,0.00006008,0.0001319
 4,0.00000074,-0.00008552,0.00252727,0.00032158,0.00272660,-0.01162056,
 -0.01431671,-0.01161672,-0.00011596,0.00024314,-0.00011597,-0.00004994
 ,-0.00002569,0.00003512,-0.00001462,-0.00000906,-0.00008238,-0.0000240
 6,-0.00004543,-0.00000673,-0.00015683,-0.00011809,0.00010690,0.0001451
 0,0.00007666,0.00004506,-0.00008108,-0.00000153,-0.00003778,-0.0008359
 8,-0.00023513,0.00029210,0.00182291,0.00081196,-0.00197270,0.17830368,
 -0.00188686,-0.00132074,-0.00274833,-0.22734945,-0.32723760,-0.1047879
 8,0.00046342,-0.00163489,-0.00075258,-0.00015112,0.00056958,-0.0000018
 5,-0.00025709,-0.00000851,0.00034188,0.00420296,0.00222819,0.00811857,
 0.00212535,0.00710649,-0.00251587,-0.00006587,0.00029615,0.00004084,0.
 00000526,-0.00001308,0.00003350,-0.00003221,-0.00003930,-0.00013543,0.
 00004936,0.00005189,-0.00022536,-0.00003594,-0.00007183,-0.00000937,0.
 00014471,-0.00027798,-0.00026901,0.00000409,0.00010254,-0.00016432,-0.
 00059841,-0.00058204,-0.00057940,0.00098276,0.00112526,0.00209023,0.22
 239905,0.31970585,0.00175848,-0.00215428,0.00084079,-0.06519737,-0.065
 97144,-0.06909321,-0.00009006,0.00287378,0.00084130,0.00014076,-0.0008
 0559,0.00004066,-0.00006226,-0.00007672,0.00033644,-0.00209942,-0.0013
 0350,-0.00227035,-0.03064523,-0.03556284,-0.02166484,0.00017511,-0.000
 45349,0.00011961,-0.00001700,0.00006559,-0.00002838,0.00001294,0.00006
 516,-0.00012837,-0.00008445,-0.00015140,0.00024065,-0.00003017,0.00005
 095,0.00000738,0.00010097,-0.00006321,-0.00010053,-0.00004323,-0.00010
 839,-0.00014740,0.00030751,-0.00061970,0.00039864,-0.00191256,0.002650
 59,-0.00483781,0.09768599,0.10156448,0.09544541\\-0.00000013,-0.000000
 10,0.00000011,-0.00000048,-0.00000010,-0.00000024,-0.00000022,-0.00000
 006,-0.00000006,0.00000096,0.00000010,0.00000039,-0.00000139,0.0000002
 1,0.00000061,0.00000074,-0.00000014,-0.00000042,0.00000044,-0.00000006
 ,-0.00000112,-0.00000024,-0.00000032,-0.00000098,0.00000103,0.00000048
 ,0.00000137,0.00000182,0.00000007,0.00000004,0.00000085,0.00000012,0.0
 0000023,-0.00000125,0.00000047,0.00000150,-0.00000215,0.00000005,0.000
 00022,-0.00000150,0.00000014,0.00000042,0.00000156,-0.00000032,-0.0000
 0079,0.00000103,-0.00000048,-0.00000135,-0.00000106,-0.00000006,0.0000
 0007\\\@


 TO BEHOLD HARMS OF OUR OWN HANDS DOING,
 WHERE NONE BESIDE US WROUGHT,
 CAUSES SHARP RUING...

                                         SOPHOCLES
 Job cpu time:       0 days  3 hours 34 minutes 19.6 seconds.
 Elapsed time:       0 days  1 hours 47 minutes 11.9 seconds.
 File lengths (MBytes):  RWF=   1392 Int=      0 D2E=      0 Chk=     32 Scr=     32
 Normal termination of Gaussian 16 at Sun Sep 29 00:41:07 2019.
