 Entering Gaussian System, Link 0=g16
 Input=verytight/species/CC(C)OC=CO/conformers/CC(C)OC=CO_33.com
 Output=verytight/species/CC(C)OC=CO/conformers/CC(C)OC=CO_33.log
 Initial command:
 /shared/centos7/gaussian/g16/l1.exe "/scratch/harms.n/gauss_scrdir/Gau-8569.inp" -scrdir="/scratch/harms.n/gauss_scrdir/"
 Entering Link 1 = /shared/centos7/gaussian/g16/l1.exe PID=      8570.
  
 Copyright (c) 1988,1990,1992,1993,1995,1998,2003,2009,2016,
            Gaussian, Inc.  All Rights Reserved.
  
 This is part of the Gaussian(R) 16 program.  It is based on
 the Gaussian(R) 09 system (copyright 2009, Gaussian, Inc.),
 the Gaussian(R) 03 system (copyright 2003, Gaussian, Inc.),
 the Gaussian(R) 98 system (copyright 1998, Gaussian, Inc.),
 the Gaussian(R) 94 system (copyright 1995, Gaussian, Inc.),
 the Gaussian 92(TM) system (copyright 1992, Gaussian, Inc.),
 the Gaussian 90(TM) system (copyright 1990, Gaussian, Inc.),
 the Gaussian 88(TM) system (copyright 1988, Gaussian, Inc.),
 the Gaussian 86(TM) system (copyright 1986, Carnegie Mellon
 University), and the Gaussian 82(TM) system (copyright 1983,
 Carnegie Mellon University). Gaussian is a federally registered
 trademark of Gaussian, Inc.
  
 This software contains proprietary and confidential information,
 including trade secrets, belonging to Gaussian, Inc.
  
 This software is provided under written license and may be
 used, copied, transmitted, or stored only in accord with that
 written license.
  
 The following legend is applicable only to US Government
 contracts under FAR:
  
                    RESTRICTED RIGHTS LEGEND
  
 Use, reproduction and disclosure by the US Government is
 subject to restrictions as set forth in subparagraphs (a)
 and (c) of the Commercial Computer Software - Restricted
 Rights clause in FAR 52.227-19.
  
 Gaussian, Inc.
 340 Quinnipiac St., Bldg. 40, Wallingford CT 06492
  
  
 ---------------------------------------------------------------
 Warning -- This program may not be used in any manner that
 competes with the business of Gaussian, Inc. or will provide
 assistance to any competitor of Gaussian, Inc.  The licensee
 of this program is prohibited from giving any competitor of
 Gaussian, Inc. access to this program.  By using this program,
 the user acknowledges that Gaussian, Inc. is engaged in the
 business of creating and licensing software in the field of
 computational chemistry and represents and warrants to the
 licensee that it is not a competitor of Gaussian, Inc. and that
 it will not use this program in any manner prohibited above.
 ---------------------------------------------------------------
  

 Cite this work as:
 Gaussian 16, Revision A.03,
 M. J. Frisch, G. W. Trucks, H. B. Schlegel, G. E. Scuseria, 
 M. A. Robb, J. R. Cheeseman, G. Scalmani, V. Barone, 
 G. A. Petersson, H. Nakatsuji, X. Li, M. Caricato, A. V. Marenich, 
 J. Bloino, B. G. Janesko, R. Gomperts, B. Mennucci, H. P. Hratchian, 
 J. V. Ortiz, A. F. Izmaylov, J. L. Sonnenberg, D. Williams-Young, 
 F. Ding, F. Lipparini, F. Egidi, J. Goings, B. Peng, A. Petrone, 
 T. Henderson, D. Ranasinghe, V. G. Zakrzewski, J. Gao, N. Rega, 
 G. Zheng, W. Liang, M. Hada, M. Ehara, K. Toyota, R. Fukuda, 
 J. Hasegawa, M. Ishida, T. Nakajima, Y. Honda, O. Kitao, H. Nakai, 
 T. Vreven, K. Throssell, J. A. Montgomery, Jr., J. E. Peralta, 
 F. Ogliaro, M. J. Bearpark, J. J. Heyd, E. N. Brothers, K. N. Kudin, 
 V. N. Staroverov, T. A. Keith, R. Kobayashi, J. Normand, 
 K. Raghavachari, A. P. Rendell, J. C. Burant, S. S. Iyengar, 
 J. Tomasi, M. Cossi, J. M. Millam, M. Klene, C. Adamo, R. Cammi, 
 J. W. Ochterski, R. L. Martin, K. Morokuma, O. Farkas, 
 J. B. Foresman, and D. J. Fox, Gaussian, Inc., Wallingford CT, 2016.
 
 ******************************************
 Gaussian 16:  EM64L-G16RevA.03 25-Dec-2016
                28-Sep-2019 
 ******************************************
 %nprocshared=20
 Will use up to   20 processors via shared memory.
 %mem=5GB
 ----------------------------------------------------------------------
 #p m062x/cc-pVTZ opt=(calcfc,maxcycles=900,Tight) freq IOP(7/33=1,2/16
 =3) scf=(maxcycle=900)
 ----------------------------------------------------------------------
 1/6=900,7=10,10=4,18=20,19=15,26=3,38=1/1,3;
 2/9=110,12=2,16=3,17=6,18=5,40=1/2;
 3/5=16,6=1,11=2,25=1,30=1,71=2,74=-55,140=1/1,2,3;
 4//1;
 5/5=2,7=900,38=5/2;
 8/6=4,10=90,11=11/1;
 11/6=1,8=1,9=11,15=111,16=1/1,2,10;
 10/6=1,13=1/2;
 6/7=2,8=2,9=2,10=2,28=1/1;
 7/10=1,18=20,25=1,33=1/1,2,3,16;
 1/6=900,7=10,10=4,18=20,19=15,26=3/3(2);
 2/9=110,16=3/2;
 99//99;
 2/9=110,16=3/2;
 3/5=16,6=1,11=2,25=1,30=1,71=1,74=-55/1,2,3;
 4/5=5,16=3,69=1/1;
 5/5=2,7=900,38=5/2;
 7/33=1/1,2,3,16;
 1/6=900,7=10,18=20,19=15,26=3/3(-5);
 2/9=110,16=3/2;
 6/7=2,8=2,9=2,10=2,19=2,28=1/1;
 99/9=1/99;
 Leave Link    1 at Sat Sep 28 23:06:55 2019, MaxMem=   671088640 cpu:               4.2 elap:               2.1
 (Enter /shared/centos7/gaussian/g16/l101.exe)
 ------------------------------
 Gaussian input prepared by ASE
 ------------------------------
 Symbolic Z-matrix:
 Charge =  0 Multiplicity = 1
 O                     2.30433   2.86866   0.05358 
 O                     2.45308   1.15708   2.55514 
 C                     2.90753   3.5192    1.15213 
 C                     1.86499   4.05026   2.13606 
 C                     3.7968    4.60602   0.64411 
 C                     1.65336   1.69371   0.35297 
 C                     1.70209   0.93618   1.41023 
 H                     3.5516    2.77662   1.69994 
 H                     1.20575   3.23107   2.49178 
 H                     2.35728   4.50623   3.01426 
 H                     1.21869   4.83337   1.65474 
 H                     3.21341   5.39216   0.07991 
 H                     4.57038   4.20121  -0.04129 
 H                     4.32462   5.12016   1.49653 
 H                     1.02999   1.37256  -0.49675 
 H                     1.11224   0.03187   1.4372 
 H                     2.20423   0.4372    3.20446 
 
 ITRead=  0  0  0  0  0  0  0  0  0  0  0  0  0  0  0  0  0
 MicOpt= -1 -1 -1 -1 -1 -1 -1 -1 -1 -1 -1 -1 -1 -1 -1 -1 -1
 NAtoms=     17 NQM=       17 NQMF=       0 NMMI=      0 NMMIF=      0
                NMic=       0 NMicF=      0.
                    Isotopes and Nuclear Properties:
 (Nuclear quadrupole moments (NQMom) in fm**2, nuclear magnetic moments (NMagM)
  in nuclear magnetons)

  Atom         1           2           3           4           5           6           7           8           9          10
 IAtWgt=          16          16          12          12          12          12          12           1           1           1
 AtmWgt=  15.9949146  15.9949146  12.0000000  12.0000000  12.0000000  12.0000000  12.0000000   1.0078250   1.0078250   1.0078250
 NucSpn=           0           0           0           0           0           0           0           1           1           1
 AtZEff=  -0.0000000  -0.0000000  -0.0000000  -0.0000000  -0.0000000  -0.0000000  -0.0000000  -0.0000000  -0.0000000  -0.0000000
 NQMom=    0.0000000   0.0000000   0.0000000   0.0000000   0.0000000   0.0000000   0.0000000   0.0000000   0.0000000   0.0000000
 NMagM=    0.0000000   0.0000000   0.0000000   0.0000000   0.0000000   0.0000000   0.0000000   2.7928460   2.7928460   2.7928460
 AtZNuc=   8.0000000   8.0000000   6.0000000   6.0000000   6.0000000   6.0000000   6.0000000   1.0000000   1.0000000   1.0000000

  Atom        11          12          13          14          15          16          17
 IAtWgt=           1           1           1           1           1           1           1
 AtmWgt=   1.0078250   1.0078250   1.0078250   1.0078250   1.0078250   1.0078250   1.0078250
 NucSpn=           1           1           1           1           1           1           1
 AtZEff=  -0.0000000  -0.0000000  -0.0000000  -0.0000000  -0.0000000  -0.0000000  -0.0000000
 NQMom=    0.0000000   0.0000000   0.0000000   0.0000000   0.0000000   0.0000000   0.0000000
 NMagM=    2.7928460   2.7928460   2.7928460   2.7928460   2.7928460   2.7928460   2.7928460
 AtZNuc=   1.0000000   1.0000000   1.0000000   1.0000000   1.0000000   1.0000000   1.0000000
 Leave Link  101 at Sat Sep 28 23:06:56 2019, MaxMem=   671088640 cpu:               2.7 elap:               1.4
 (Enter /shared/centos7/gaussian/g16/l103.exe)

 GradGradGradGradGradGradGradGradGradGradGradGradGradGradGradGradGradGrad
 Berny optimization.
 Initialization pass.
                           ----------------------------
                           !    Initial Parameters    !
                           ! (Angstroms and Degrees)  !
 --------------------------                            --------------------------
 ! Name  Definition              Value          Derivative Info.                !
 --------------------------------------------------------------------------------
 ! R1    R(1,3)                  1.412          calculate D2E/DX2 analytically  !
 ! R2    R(1,6)                  1.3762         calculate D2E/DX2 analytically  !
 ! R3    R(2,7)                  1.3869         calculate D2E/DX2 analytically  !
 ! R4    R(2,17)                 1.0009         calculate D2E/DX2 analytically  !
 ! R5    R(3,4)                  1.5287         calculate D2E/DX2 analytically  !
 ! R6    R(3,5)                  1.4933         calculate D2E/DX2 analytically  !
 ! R7    R(3,8)                  1.1253         calculate D2E/DX2 analytically  !
 ! R8    R(4,9)                  1.1101         calculate D2E/DX2 analytically  !
 ! R9    R(4,10)                 1.1052         calculate D2E/DX2 analytically  !
 ! R10   R(4,11)                 1.1237         calculate D2E/DX2 analytically  !
 ! R11   R(5,12)                 1.1299         calculate D2E/DX2 analytically  !
 ! R12   R(5,13)                 1.11           calculate D2E/DX2 analytically  !
 ! R13   R(5,14)                 1.1267         calculate D2E/DX2 analytically  !
 ! R14   R(6,7)                  1.3016         calculate D2E/DX2 analytically  !
 ! R15   R(6,15)                 1.1017         calculate D2E/DX2 analytically  !
 ! R16   R(7,16)                 1.08           calculate D2E/DX2 analytically  !
 ! A1    A(3,1,6)              115.2238         calculate D2E/DX2 analytically  !
 ! A2    A(7,2,17)             106.6397         calculate D2E/DX2 analytically  !
 ! A3    A(1,3,4)              111.6822         calculate D2E/DX2 analytically  !
 ! A4    A(1,3,5)              108.9661         calculate D2E/DX2 analytically  !
 ! A5    A(1,3,8)              108.6152         calculate D2E/DX2 analytically  !
 ! A6    A(4,3,5)              111.8536         calculate D2E/DX2 analytically  !
 ! A7    A(4,3,8)              107.8324         calculate D2E/DX2 analytically  !
 ! A8    A(5,3,8)              107.7594         calculate D2E/DX2 analytically  !
 ! A9    A(3,4,9)              110.787          calculate D2E/DX2 analytically  !
 ! A10   A(3,4,10)             110.5473         calculate D2E/DX2 analytically  !
 ! A11   A(3,4,11)             111.0177         calculate D2E/DX2 analytically  !
 ! A12   A(9,4,10)             108.3222         calculate D2E/DX2 analytically  !
 ! A13   A(9,4,11)             108.0585         calculate D2E/DX2 analytically  !
 ! A14   A(10,4,11)            108.0009         calculate D2E/DX2 analytically  !
 ! A15   A(3,5,12)             111.6394         calculate D2E/DX2 analytically  !
 ! A16   A(3,5,13)             111.0795         calculate D2E/DX2 analytically  !
 ! A17   A(3,5,14)             110.7123         calculate D2E/DX2 analytically  !
 ! A18   A(12,5,13)            107.7732         calculate D2E/DX2 analytically  !
 ! A19   A(12,5,14)            107.5867         calculate D2E/DX2 analytically  !
 ! A20   A(13,5,14)            107.8838         calculate D2E/DX2 analytically  !
 ! A21   A(1,6,7)              130.9891         calculate D2E/DX2 analytically  !
 ! A22   A(1,6,15)             110.4101         calculate D2E/DX2 analytically  !
 ! A23   A(7,6,15)             118.5576         calculate D2E/DX2 analytically  !
 ! A24   A(2,7,6)              126.7362         calculate D2E/DX2 analytically  !
 ! A25   A(2,7,16)             114.1091         calculate D2E/DX2 analytically  !
 ! A26   A(6,7,16)             119.1546         calculate D2E/DX2 analytically  !
 ! D1    D(6,1,3,4)            -67.37           calculate D2E/DX2 analytically  !
 ! D2    D(6,1,3,5)            168.5596         calculate D2E/DX2 analytically  !
 ! D3    D(6,1,3,8)             51.4243         calculate D2E/DX2 analytically  !
 ! D4    D(3,1,6,7)            -15.0811         calculate D2E/DX2 analytically  !
 ! D5    D(3,1,6,15)           167.3994         calculate D2E/DX2 analytically  !
 ! D6    D(17,2,7,6)           175.0821         calculate D2E/DX2 analytically  !
 ! D7    D(17,2,7,16)           -5.0215         calculate D2E/DX2 analytically  !
 ! D8    D(1,3,4,9)             56.8162         calculate D2E/DX2 analytically  !
 ! D9    D(1,3,4,10)           176.9074         calculate D2E/DX2 analytically  !
 ! D10   D(1,3,4,11)           -63.2536         calculate D2E/DX2 analytically  !
 ! D11   D(5,3,4,9)            179.2477         calculate D2E/DX2 analytically  !
 ! D12   D(5,3,4,10)           -60.6611         calculate D2E/DX2 analytically  !
 ! D13   D(5,3,4,11)            59.1779         calculate D2E/DX2 analytically  !
 ! D14   D(8,3,4,9)            -62.4425         calculate D2E/DX2 analytically  !
 ! D15   D(8,3,4,10)            57.6488         calculate D2E/DX2 analytically  !
 ! D16   D(8,3,4,11)           177.4878         calculate D2E/DX2 analytically  !
 ! D17   D(1,3,5,12)            62.321          calculate D2E/DX2 analytically  !
 ! D18   D(1,3,5,13)           -58.0014         calculate D2E/DX2 analytically  !
 ! D19   D(1,3,5,14)          -177.8426         calculate D2E/DX2 analytically  !
 ! D20   D(4,3,5,12)           -61.6481         calculate D2E/DX2 analytically  !
 ! D21   D(4,3,5,13)           178.0296         calculate D2E/DX2 analytically  !
 ! D22   D(4,3,5,14)            58.1883         calculate D2E/DX2 analytically  !
 ! D23   D(8,3,5,12)           179.9986         calculate D2E/DX2 analytically  !
 ! D24   D(8,3,5,13)            59.6763         calculate D2E/DX2 analytically  !
 ! D25   D(8,3,5,14)           -60.165          calculate D2E/DX2 analytically  !
 ! D26   D(1,6,7,2)              0.8708         calculate D2E/DX2 analytically  !
 ! D27   D(1,6,7,16)          -179.0209         calculate D2E/DX2 analytically  !
 ! D28   D(15,6,7,2)           178.224          calculate D2E/DX2 analytically  !
 ! D29   D(15,6,7,16)           -1.6678         calculate D2E/DX2 analytically  !
 --------------------------------------------------------------------------------
 Trust Radius=3.00D-01 FncErr=1.00D-07 GrdErr=1.00D-06 EigMax=2.50D+02 EigMin=1.00D-04
 Number of steps in this run=    102 maximum allowed number of steps=    102.
 GradGradGradGradGradGradGradGradGradGradGradGradGradGradGradGradGradGrad

 Leave Link  103 at Sat Sep 28 23:06:57 2019, MaxMem=   671088640 cpu:               1.5 elap:               0.8
 (Enter /shared/centos7/gaussian/g16/l202.exe)
                          Input orientation:                          
 ---------------------------------------------------------------------
 Center     Atomic      Atomic             Coordinates (Angstroms)
 Number     Number       Type             X           Y           Z
 ---------------------------------------------------------------------
      1          8           0        2.304330    2.868656    0.053577
      2          8           0        2.453082    1.157080    2.555139
      3          6           0        2.907526    3.519198    1.152133
      4          6           0        1.864994    4.050262    2.136060
      5          6           0        3.796799    4.606017    0.644109
      6          6           0        1.653355    1.693711    0.352965
      7          6           0        1.702095    0.936176    1.410234
      8          1           0        3.551602    2.776625    1.699944
      9          1           0        1.205751    3.231072    2.491781
     10          1           0        2.357281    4.506232    3.014257
     11          1           0        1.218690    4.833370    1.654745
     12          1           0        3.213407    5.392162    0.079915
     13          1           0        4.570380    4.201209   -0.041294
     14          1           0        4.324621    5.120156    1.496533
     15          1           0        1.029990    1.372559   -0.496749
     16          1           0        1.112244    0.031869    1.437203
     17          1           0        2.204228    0.437197    3.204464
 ---------------------------------------------------------------------
                    Distance matrix (angstroms):
                    1          2          3          4          5
     1  O    0.000000
     2  O    3.034705   0.000000
     3  C    1.412047   2.784699   0.000000
     4  C    2.434326   2.981942   1.528729   0.000000
     5  C    2.365294   4.165666   1.493342   2.503328   0.000000
     6  C    1.376189   2.403561   2.354573   2.962693   3.627759
     7  C    2.436736   1.386935   2.862112   3.201701   4.294469
     8  H    2.067530   2.135657   1.125320   2.158007   2.126401
     9  H    2.698715   2.421011   2.184883   1.110050   3.466684
    10  H    3.383798   3.381832   2.178189   1.105209   2.774846
    11  H    2.757255   3.981148   2.198142   1.123668   2.778438
    12  H    2.682387   4.963945   2.179727   2.801187   1.129905
    13  H    2.630529   4.526714   2.157427   3.476028   1.109989
    14  H    3.351560   4.508800   2.165603   2.757432   1.126748
    15  H    2.040859   3.374262   3.294239   3.846947   4.405909
    16  H    3.373848   2.076951   3.932654   4.147591   5.362710
    17  H    3.981219   1.000891   3.769008   3.782962   5.144974
                    6          7          8          9         10
     6  C    0.000000
     7  C    1.301558   0.000000
     8  H    2.567176   2.625235   0.000000
     9  H    2.671772   2.585082   2.517250   0.000000
    10  H    3.935513   3.968307   2.478984   1.795839   0.000000
    11  H    3.426517   3.934664   3.110421   1.807804   1.803242
    12  H    4.023289   4.889747   3.095142   3.810262   3.182481
    13  H    3.866784   4.581968   2.469668   4.321848   3.785134
    14  H    4.492653   4.938702   2.476100   3.779750   2.559455
    15  H    1.101697   2.068511   3.627035   3.523674   4.889660
    16  H    2.056719   1.080011   3.681465   3.369834   4.904808
    17  H    3.164386   1.928829   3.090618   3.051329   4.076352
                   11         12         13         14         15
    11  H    0.000000
    12  H    2.602160   0.000000
    13  H    3.809200   1.809541   0.000000
    14  H    3.123153   1.820876   1.808251   0.000000
    15  H    4.079429   4.610538   4.554455   5.373290   0.000000
    16  H    4.807605   5.915223   5.614985   6.017769   2.354652
    17  H    4.764373   5.944151   5.504672   5.416936   3.994085
                   16         17
    16  H    0.000000
    17  H    2.116585   0.000000
 Stoichiometry    C5H10O2
 Framework group  C1[X(C5H10O2)]
 Deg. of freedom    45
 Full point group                 C1      NOp   1
 Largest Abelian subgroup         C1      NOp   1
 Largest concise Abelian subgroup C1      NOp   1
                         Standard orientation:                         
 ---------------------------------------------------------------------
 Center     Atomic      Atomic             Coordinates (Angstroms)
 Number     Number       Type             X           Y           Z
 ---------------------------------------------------------------------
      1          8           0        0.334042    1.145681    0.132607
      2          8           0       -1.681026   -0.993125   -0.625310
      3          6           0        0.918976   -0.101031   -0.179545
      4          6           0        0.823046   -1.078962    0.991548
      5          6           0        2.333279    0.119407   -0.605249
      6          6           0       -1.031416    1.126600    0.303063
      7          6           0       -1.919241    0.230220   -0.016812
      8          1           0        0.364593   -0.550094   -1.049803
      9          1           0       -0.233415   -1.219394    1.301999
     10          1           0        1.236023   -2.064371    0.708871
     11          1           0        1.399864   -0.702423    1.879314
     12          1           0        2.952607    0.571369    0.224721
     13          1           0        2.385533    0.803331   -1.477941
     14          1           0        2.817297   -0.854607   -0.899500
     15          1           0       -1.375066    2.069465    0.757647
     16          1           0       -2.960656    0.421913    0.195630
     17          1           0       -2.558770   -1.473045   -0.657338
 ---------------------------------------------------------------------
 Rotational constants (GHZ):           4.3214509           1.8986868           1.6154827
 Leave Link  202 at Sat Sep 28 23:06:59 2019, MaxMem=   671088640 cpu:               3.8 elap:               1.9
 (Enter /shared/centos7/gaussian/g16/l301.exe)
 Standard basis: CC-pVTZ (5D, 7F)
 Ernie: Thresh=  0.10000D-02 Tol=  0.10000D-05 Strict=F.
 Ernie:  21 primitive shells out of 262 were deleted.
 There are   395 symmetry adapted cartesian basis functions of A   symmetry.
 There are   350 symmetry adapted basis functions of A   symmetry.
   350 basis functions,   534 primitive gaussians,   395 cartesian basis functions
    28 alpha electrons       28 beta electrons
       nuclear repulsion energy       324.1603713006 Hartrees.
 IExCor= 4336 DFT=T Ex+Corr=M062X ExCW=0 ScaHFX=  0.540000
 ScaDFX=  1.000000  1.000000  1.000000  1.000000 ScalE2=  1.000000  1.000000
 IRadAn=      5 IRanWt=     -1 IRanGd=            0 ICorTp=0 IEmpDi=  4
 NAtoms=   17 NActive=   17 NUniq=   17 SFac= 1.00D+00 NAtFMM=   60 NAOKFM=F Big=F
 Integral buffers will be    131072 words long.
 Raffenetti 2 integral format.
 Two-electron integral symmetry is turned on.
 Leave Link  301 at Sat Sep 28 23:07:00 2019, MaxMem=   671088640 cpu:               1.8 elap:               0.9
 (Enter /shared/centos7/gaussian/g16/l302.exe)
 NPDir=0 NMtPBC=     1 NCelOv=     1 NCel=       1 NClECP=     1 NCelD=      1
         NCelK=      1 NCelE2=     1 NClLst=     1 CellRange=     0.0.
 One-electron integrals computed using PRISM.
 One-electron integral symmetry used in STVInt
 NBasis=   350 RedAO= T EigKep=  3.27D-04  NBF=   350
 NBsUse=   350 1.00D-06 EigRej= -1.00D+00 NBFU=   350
 Precomputing XC quadrature grid using
 IXCGrd= 4 IRadAn=           5 IRanWt=          -1 IRanGd=           0 AccXCQ= 0.00D+00.
 Generated NRdTot=       0 NPtTot=           0 NUsed=           0 NTot=          32
 NSgBfM=   395   395   395   395   395 MxSgAt=    17 MxSgA2=    17.
 Leave Link  302 at Sat Sep 28 23:08:00 2019, MaxMem=   671088640 cpu:             118.8 elap:              59.4
 (Enter /shared/centos7/gaussian/g16/l303.exe)
 DipDrv:  MaxL=1.
 Leave Link  303 at Sat Sep 28 23:08:04 2019, MaxMem=   671088640 cpu:               8.6 elap:               4.3
 (Enter /shared/centos7/gaussian/g16/l401.exe)
 ExpMin= 1.03D-01 ExpMax= 1.53D+04 ExpMxC= 5.22D+02 IAcc=3 IRadAn=         5 AccDes= 0.00D+00
 Harris functional with IExCor= 1009 and IRadAn=       5 diagonalized for initial guess.
 HarFok:  IExCor= 1009 AccDes= 0.00D+00 IRadAn=         5 IDoV= 1 UseB2=F ITyADJ=14
 ICtDFT=  3500011 ScaDFX=  1.000000  1.000000  1.000000  1.000000
 FoFCou: FMM=F IPFlag=           0 FMFlag=      100000 FMFlg1=           0
         NFxFlg=           0 DoJE=T BraDBF=F KetDBF=T FulRan=T
         wScrn=  0.000000 ICntrl=       500 IOpCl=  0 I1Cent=   200000004 NGrid=           0
         NMat0=    1 NMatS0=      1 NMatT0=    0 NMatD0=    1 NMtDS0=    0 NMtDT0=    0
 Petite list used in FoFCou.
 Harris En= -346.814312648436    
 JPrj=0 DoOrth=F DoCkMO=F.
 Leave Link  401 at Sat Sep 28 23:08:41 2019, MaxMem=   671088640 cpu:              74.5 elap:              37.3
 (Enter /shared/centos7/gaussian/g16/l502.exe)
 Integral symmetry usage will be decided dynamically.
 Closed shell SCF:
 Using DIIS extrapolation, IDIIS=  1040.
 NGot=   671088640 LenX=   670765141 LenY=   670608675
 Requested convergence on RMS density matrix=1.00D-08 within 900 cycles.
 Requested convergence on MAX density matrix=1.00D-06.
 Requested convergence on             energy=1.00D-06.
 No special actions if energy rises.
 Fock matrices will be formed incrementally for  20 cycles.
 Integral accuracy reduced to 1.0D-05 until final iterations.

 Cycle   1  Pass 0  IDiag  1:
 FoFJK:  IHMeth= 1 ICntrl=       0 DoSepK=F KAlg= 0 I1Cent=           0 FoldK=F
 IRaf= 960000000 NMat=       1 IRICut=       1 DoRegI=T DoRafI=F ISym2E= 0 IDoP0=0 IntGTp=1.
 FoFCou: FMM=F IPFlag=           0 FMFlag=      100000 FMFlg1=           0
         NFxFlg=           0 DoJE=F BraDBF=F KetDBF=F FulRan=T
         wScrn=  0.000000 ICntrl=         0 IOpCl=  0 I1Cent=           0 NGrid=           0
         NMat0=    1 NMatS0=      1 NMatT0=    0 NMatD0=    1 NMtDS0=    0 NMtDT0=    0
 Symmetry not used in FoFCou.
 E= -346.700383732602    
 DIIS: error= 2.55D-02 at cycle   1 NSaved=   1.
 NSaved= 1 IEnMin= 1 EnMin= -346.700383732602     IErMin= 1 ErrMin= 2.55D-02
 ErrMax= 2.55D-02  0.00D+00 EMaxC= 1.00D-01 BMatC= 2.86D-01 BMatP= 2.86D-01
 IDIUse=3 WtCom= 7.45D-01 WtEn= 2.55D-01
 Coeff-Com:  0.100D+01
 Coeff-En:   0.100D+01
 Coeff:      0.100D+01
 Gap=     0.358 Goal=   None    Shift=    0.000
 GapD=    0.358 DampG=1.000 DampE=0.500 DampFc=0.5000 IDamp=-1.
 Damping current iteration by 5.00D-01
 RMSDP=2.03D-03 MaxDP=8.60D-02              OVMax= 1.41D-01

 Cycle   2  Pass 0  IDiag  1:
 RMSU=  1.02D-03    CP:  9.99D-01
 E= -346.820386163316     Delta-E=       -0.120002430713 Rises=F Damp=T
 DIIS: error= 4.38D-03 at cycle   2 NSaved=   2.
 NSaved= 2 IEnMin= 2 EnMin= -346.820386163316     IErMin= 2 ErrMin= 4.38D-03
 ErrMax= 4.38D-03  0.00D+00 EMaxC= 1.00D-01 BMatC= 2.12D-02 BMatP= 2.86D-01
 IDIUse=3 WtCom= 9.56D-01 WtEn= 4.38D-02
 Coeff-Com: -0.126D+00 0.113D+01
 Coeff-En:   0.000D+00 0.100D+01
 Coeff:     -0.120D+00 0.112D+01
 Gap=     0.317 Goal=   None    Shift=    0.000
 RMSDP=4.66D-04 MaxDP=1.59D-02 DE=-1.20D-01 OVMax= 7.18D-02

 Cycle   3  Pass 0  IDiag  1:
 RMSU=  4.57D-04    CP:  1.00D+00  9.13D-01
 E= -346.929557645880     Delta-E=       -0.109171482565 Rises=F Damp=F
 DIIS: error= 2.55D-03 at cycle   3 NSaved=   3.
 NSaved= 3 IEnMin= 3 EnMin= -346.929557645880     IErMin= 3 ErrMin= 2.55D-03
 ErrMax= 2.55D-03  0.00D+00 EMaxC= 1.00D-01 BMatC= 3.86D-03 BMatP= 2.12D-02
 IDIUse=3 WtCom= 9.74D-01 WtEn= 2.55D-02
 Coeff-Com: -0.829D-01 0.317D+00 0.766D+00
 Coeff-En:   0.000D+00 0.000D+00 0.100D+01
 Coeff:     -0.808D-01 0.309D+00 0.772D+00
 Gap=     0.314 Goal=   None    Shift=    0.000
 RMSDP=1.66D-04 MaxDP=7.88D-03 DE=-1.09D-01 OVMax= 1.26D-02

 Cycle   4  Pass 0  IDiag  1:
 RMSU=  1.24D-04    CP:  1.00D+00  1.01D+00  8.84D-01
 E= -346.931754261394     Delta-E=       -0.002196615513 Rises=F Damp=F
 DIIS: error= 1.30D-03 at cycle   4 NSaved=   4.
 NSaved= 4 IEnMin= 4 EnMin= -346.931754261394     IErMin= 4 ErrMin= 1.30D-03
 ErrMax= 1.30D-03  0.00D+00 EMaxC= 1.00D-01 BMatC= 1.01D-03 BMatP= 3.86D-03
 IDIUse=3 WtCom= 9.87D-01 WtEn= 1.30D-02
 Coeff-Com: -0.281D-01 0.744D-01 0.382D+00 0.572D+00
 Coeff-En:   0.000D+00 0.000D+00 0.146D+00 0.854D+00
 Coeff:     -0.277D-01 0.734D-01 0.379D+00 0.576D+00
 Gap=     0.311 Goal=   None    Shift=    0.000
 RMSDP=6.45D-05 MaxDP=2.92D-03 DE=-2.20D-03 OVMax= 5.09D-03

 Cycle   5  Pass 0  IDiag  1:
 RMSU=  2.87D-05    CP:  1.00D+00  9.89D-01  9.36D-01  6.03D-01
 E= -346.932476291726     Delta-E=       -0.000722030332 Rises=F Damp=F
 DIIS: error= 2.20D-04 at cycle   5 NSaved=   5.
 NSaved= 5 IEnMin= 5 EnMin= -346.932476291726     IErMin= 5 ErrMin= 2.20D-04
 ErrMax= 2.20D-04  0.00D+00 EMaxC= 1.00D-01 BMatC= 3.11D-05 BMatP= 1.01D-03
 IDIUse=3 WtCom= 9.98D-01 WtEn= 2.20D-03
 Coeff-Com: -0.533D-02 0.995D-02 0.999D-01 0.223D+00 0.673D+00
 Coeff-En:   0.000D+00 0.000D+00 0.000D+00 0.000D+00 0.100D+01
 Coeff:     -0.532D-02 0.993D-02 0.996D-01 0.222D+00 0.674D+00
 Gap=     0.311 Goal=   None    Shift=    0.000
 RMSDP=1.17D-05 MaxDP=3.18D-04 DE=-7.22D-04 OVMax= 1.05D-03

 Cycle   6  Pass 0  IDiag  1:
 RMSU=  8.05D-06    CP:  1.00D+00  9.87D-01  9.43D-01  6.48D-01  8.22D-01
 E= -346.932497956610     Delta-E=       -0.000021664884 Rises=F Damp=F
 DIIS: error= 5.53D-05 at cycle   6 NSaved=   6.
 NSaved= 6 IEnMin= 6 EnMin= -346.932497956610     IErMin= 6 ErrMin= 5.53D-05
 ErrMax= 5.53D-05  0.00D+00 EMaxC= 1.00D-01 BMatC= 1.55D-06 BMatP= 3.11D-05
 IDIUse=1 WtCom= 1.00D+00 WtEn= 0.00D+00
 Coeff-Com:  0.306D-05-0.123D-02 0.116D-01 0.476D-01 0.220D+00 0.722D+00
 Coeff:      0.306D-05-0.123D-02 0.116D-01 0.476D-01 0.220D+00 0.722D+00
 Gap=     0.311 Goal=   None    Shift=    0.000
 RMSDP=3.14D-06 MaxDP=1.28D-04 DE=-2.17D-05 OVMax= 4.58D-04

 Initial convergence to 1.0D-05 achieved.  Increase integral accuracy.
 Cycle   7  Pass 1  IDiag  1:
 E= -346.932515012639     Delta-E=       -0.000017056029 Rises=F Damp=F
 DIIS: error= 2.38D-05 at cycle   1 NSaved=   1.
 NSaved= 1 IEnMin= 1 EnMin= -346.932515012639     IErMin= 1 ErrMin= 2.38D-05
 ErrMax= 2.38D-05  0.00D+00 EMaxC= 1.00D-01 BMatC= 6.63D-07 BMatP= 6.63D-07
 IDIUse=1 WtCom= 1.00D+00 WtEn= 0.00D+00
 Coeff-Com:  0.100D+01
 Coeff:      0.100D+01
 Gap=     0.311 Goal=   None    Shift=    0.000
 RMSDP=3.14D-06 MaxDP=1.28D-04 DE=-1.71D-05 OVMax= 3.03D-04

 Cycle   8  Pass 1  IDiag  1:
 RMSU=  6.28D-06    CP:  1.00D+00
 E= -346.932515199452     Delta-E=       -0.000000186813 Rises=F Damp=F
 DIIS: error= 2.78D-05 at cycle   2 NSaved=   2.
 NSaved= 2 IEnMin= 2 EnMin= -346.932515199452     IErMin= 1 ErrMin= 2.38D-05
 ErrMax= 2.78D-05  0.00D+00 EMaxC= 1.00D-01 BMatC= 2.61D-07 BMatP= 6.63D-07
 IDIUse=1 WtCom= 1.00D+00 WtEn= 0.00D+00
 Coeff-Com:  0.349D+00 0.651D+00
 Coeff:      0.349D+00 0.651D+00
 Gap=     0.311 Goal=   None    Shift=    0.000
 RMSDP=1.55D-06 MaxDP=5.94D-05 DE=-1.87D-07 OVMax= 2.85D-04

 Cycle   9  Pass 1  IDiag  1:
 RMSU=  1.53D-06    CP:  1.00D+00  9.66D-01
 E= -346.932515383540     Delta-E=       -0.000000184089 Rises=F Damp=F
 DIIS: error= 1.26D-05 at cycle   3 NSaved=   3.
 NSaved= 3 IEnMin= 3 EnMin= -346.932515383540     IErMin= 3 ErrMin= 1.26D-05
 ErrMax= 1.26D-05  0.00D+00 EMaxC= 1.00D-01 BMatC= 6.56D-08 BMatP= 2.61D-07
 IDIUse=1 WtCom= 1.00D+00 WtEn= 0.00D+00
 Coeff-Com: -0.170D-02 0.328D+00 0.674D+00
 Coeff:     -0.170D-02 0.328D+00 0.674D+00
 Gap=     0.311 Goal=   None    Shift=    0.000
 RMSDP=5.64D-07 MaxDP=2.09D-05 DE=-1.84D-07 OVMax= 9.93D-05

 Cycle  10  Pass 1  IDiag  1:
 RMSU=  2.48D-07    CP:  1.00D+00  1.00D+00  7.03D-01
 E= -346.932515437569     Delta-E=       -0.000000054029 Rises=F Damp=F
 DIIS: error= 1.91D-06 at cycle   4 NSaved=   4.
 NSaved= 4 IEnMin= 4 EnMin= -346.932515437569     IErMin= 4 ErrMin= 1.91D-06
 ErrMax= 1.91D-06  0.00D+00 EMaxC= 1.00D-01 BMatC= 3.58D-09 BMatP= 6.56D-08
 IDIUse=1 WtCom= 1.00D+00 WtEn= 0.00D+00
 Coeff-Com: -0.146D-01 0.144D+00 0.333D+00 0.538D+00
 Coeff:     -0.146D-01 0.144D+00 0.333D+00 0.538D+00
 Gap=     0.311 Goal=   None    Shift=    0.000
 RMSDP=1.10D-07 MaxDP=5.01D-06 DE=-5.40D-08 OVMax= 1.27D-05

 Cycle  11  Pass 1  IDiag  1:
 RMSU=  9.48D-08    CP:  1.00D+00  1.00D+00  7.32D-01  8.75D-01
 E= -346.932515440186     Delta-E=       -0.000000002616 Rises=F Damp=F
 DIIS: error= 4.02D-07 at cycle   5 NSaved=   5.
 NSaved= 5 IEnMin= 5 EnMin= -346.932515440186     IErMin= 5 ErrMin= 4.02D-07
 ErrMax= 4.02D-07  0.00D+00 EMaxC= 1.00D-01 BMatC= 1.06D-10 BMatP= 3.58D-09
 IDIUse=1 WtCom= 1.00D+00 WtEn= 0.00D+00
 Coeff-Com: -0.240D-02-0.437D-02-0.103D-01 0.107D+00 0.910D+00
 Coeff:     -0.240D-02-0.437D-02-0.103D-01 0.107D+00 0.910D+00
 Gap=     0.311 Goal=   None    Shift=    0.000
 RMSDP=3.57D-08 MaxDP=1.12D-06 DE=-2.62D-09 OVMax= 3.07D-06

 Cycle  12  Pass 1  IDiag  1:
 RMSU=  2.17D-08    CP:  1.00D+00  1.00D+00  7.30D-01  9.79D-01  1.09D+00
 E= -346.932515440290     Delta-E=       -0.000000000104 Rises=F Damp=F
 DIIS: error= 1.37D-07 at cycle   6 NSaved=   6.
 NSaved= 6 IEnMin= 6 EnMin= -346.932515440290     IErMin= 6 ErrMin= 1.37D-07
 ErrMax= 1.37D-07  0.00D+00 EMaxC= 1.00D-01 BMatC= 2.50D-11 BMatP= 1.06D-10
 IDIUse=1 WtCom= 1.00D+00 WtEn= 0.00D+00
 Coeff-Com:  0.592D-03-0.185D-01-0.445D-01-0.154D-01 0.397D+00 0.681D+00
 Coeff:      0.592D-03-0.185D-01-0.445D-01-0.154D-01 0.397D+00 0.681D+00
 Gap=     0.311 Goal=   None    Shift=    0.000
 RMSDP=1.27D-08 MaxDP=6.00D-07 DE=-1.04D-10 OVMax= 8.31D-07

 Cycle  13  Pass 1  IDiag  1:
 RMSU=  9.55D-09    CP:  1.00D+00  1.00D+00  7.31D-01  1.00D+00  1.15D+00
                    CP:  9.55D-01
 E= -346.932515440318     Delta-E=       -0.000000000028 Rises=F Damp=F
 DIIS: error= 5.06D-08 at cycle   7 NSaved=   7.
 NSaved= 7 IEnMin= 7 EnMin= -346.932515440318     IErMin= 7 ErrMin= 5.06D-08
 ErrMax= 5.06D-08  0.00D+00 EMaxC= 1.00D-01 BMatC= 1.85D-12 BMatP= 2.50D-11
 IDIUse=1 WtCom= 1.00D+00 WtEn= 0.00D+00
 Coeff-Com:  0.437D-03-0.694D-02-0.171D-01-0.143D-01 0.901D-01 0.285D+00
 Coeff-Com:  0.663D+00
 Coeff:      0.437D-03-0.694D-02-0.171D-01-0.143D-01 0.901D-01 0.285D+00
 Coeff:      0.663D+00
 Gap=     0.311 Goal=   None    Shift=    0.000
 RMSDP=3.46D-09 MaxDP=1.06D-07 DE=-2.83D-11 OVMax= 2.95D-07

 SCF Done:  E(RM062X) =  -346.932515440     A.U. after   13 cycles
            NFock= 13  Conv=0.35D-08     -V/T= 2.0063
 KE= 3.447463814567D+02 PE=-1.458576395565D+03 EE= 4.427371273672D+02
 Leave Link  502 at Sat Sep 28 23:20:00 2019, MaxMem=   671088640 cpu:            1357.7 elap:             679.0
 (Enter /shared/centos7/gaussian/g16/l801.exe)
 DoSCS=F DFT=T ScalE2(SS,OS)=  1.000000  1.000000
 Range of M.O.s used for correlation:     1   350
 NBasis=   350 NAE=    28 NBE=    28 NFC=     0 NFV=     0
 NROrb=    350 NOA=    28 NOB=    28 NVA=   322 NVB=   322

 **** Warning!!: The largest alpha MO coefficient is  0.10969995D+02

 Leave Link  801 at Sat Sep 28 23:20:01 2019, MaxMem=   671088640 cpu:               1.7 elap:               0.8
 (Enter /shared/centos7/gaussian/g16/l1101.exe)
 Using compressed storage, NAtomX=    17.
 Will process     18 centers per pass.
 Leave Link 1101 at Sat Sep 28 23:20:32 2019, MaxMem=   671088640 cpu:              62.9 elap:              31.4
 (Enter /shared/centos7/gaussian/g16/l1102.exe)
 Symmetrizing basis deriv contribution to polar:
 IMax=3 JMax=2 DiffMx= 0.00D+00
 Leave Link 1102 at Sat Sep 28 23:20:35 2019, MaxMem=   671088640 cpu:               5.4 elap:               2.7
 (Enter /shared/centos7/gaussian/g16/l1110.exe)
 Forming Gx(P) for the SCF density, NAtomX=    17.
 Integral derivatives from FoFJK, PRISM(SPDF).
 Do as many integral derivatives as possible in FoFJK.
 G2DrvN: MDV=     671087280.
 G2DrvN: will do    18 centers at a time, making    1 passes.
 Calling FoFCou, ICntrl=  3107 FMM=F I1Cent=   0 AccDes= 0.00D+00.
 FoFJK:  IHMeth= 1 ICntrl=    3107 DoSepK=F KAlg= 0 I1Cent=           0 FoldK=F
 IRaf=         0 NMat=       1 IRICut=       1 DoRegI=T DoRafI=F ISym2E= 0 IDoP0=0 IntGTp=1.
 FoFCou: FMM=F IPFlag=           0 FMFlag=      100000 FMFlg1=           0
         NFxFlg=           0 DoJE=F BraDBF=F KetDBF=F FulRan=T
         wScrn=  0.000000 ICntrl=      3107 IOpCl=  0 I1Cent=           0 NGrid=           0
         NMat0=    1 NMatS0=      1 NMatT0=    0 NMatD0=    1 NMtDS0=    0 NMtDT0=    0
 Symmetry not used in FoFCou.
 End of G2Drv F.D. properties file   721 does not exist.
 End of G2Drv F.D. properties file   722 does not exist.
 End of G2Drv F.D. properties file   788 does not exist.
 Leave Link 1110 at Sat Sep 28 23:40:39 2019, MaxMem=   671088640 cpu:            2408.3 elap:            1204.3
 (Enter /shared/centos7/gaussian/g16/l1002.exe)
 Minotr:  Closed shell wavefunction.
          IDoAtm=11111111111111111
          Direct CPHF calculation.
          Differentiating once with respect to nuclear coordinates.
          Requested convergence is 1.0D-08 RMS, and 1.0D-07 maximum.
          Secondary convergence is 1.0D-12 RMS, and 1.0D-12 maximum.
          NewPWx=T KeepS1=F KeepF1=F KeepIn=T MapXYZ=F SortEE=F KeepMc=T.
         5102 words used for storage of precomputed grid.
 Two-electron integrals replicated using symmetry.
          MDV=     671088640 using IRadAn=       1.
          Solving linear equations simultaneously, MaxMat=     380.
 FoF2E skips out because all densities are zero.
 CalDSu exits because no D1Ps are significant.
 FoFJK:  IHMeth= 1 ICntrl=       0 DoSepK=F KAlg= 0 I1Cent=           0 FoldK=F
 IRaf= 950000000 NMat=      51 IRICut=     127 DoRegI=T DoRafI=T ISym2E= 2 IDoP0=3 IntGTp=3.
 FoFCou: FMM=F IPFlag=           0 FMFlag=      100000 FMFlg1=           0
         NFxFlg=           0 DoJE=F BraDBF=F KetDBF=F FulRan=T
         wScrn=  0.000000 ICntrl=         0 IOpCl=  0 I1Cent=           0 NGrid=           0
         NMat0=   51 NMatS0=     51 NMatT0=    0 NMatD0=   51 NMtDS0=    0 NMtDT0=    0
 Integrals replicated using symmetry in FoFCou.
 Raff kept on since  92.47% of shell-pairs survive, threshold=   0.20 IRatSp=92.
          There are    54 degrees of freedom in the 1st order CPHF.  IDoFFX=6 NUNeed=     0.
     48 vectors produced by pass  0 Test12= 1.67D-14 1.85D-09 XBig12= 7.13D-02 5.67D-02.
 AX will form    48 AO Fock derivatives at one time.
     48 vectors produced by pass  1 Test12= 1.67D-14 1.85D-09 XBig12= 8.62D-03 3.91D-02.
     48 vectors produced by pass  2 Test12= 1.67D-14 1.85D-09 XBig12= 2.55D-04 2.99D-03.
     48 vectors produced by pass  3 Test12= 1.67D-14 1.85D-09 XBig12= 3.43D-06 2.28D-04.
     48 vectors produced by pass  4 Test12= 1.67D-14 1.85D-09 XBig12= 2.44D-08 1.47D-05.
     48 vectors produced by pass  5 Test12= 1.67D-14 1.85D-09 XBig12= 1.21D-10 1.06D-06.
     28 vectors produced by pass  6 Test12= 1.67D-14 1.85D-09 XBig12= 5.33D-13 6.07D-08.
      4 vectors produced by pass  7 Test12= 1.67D-14 1.85D-09 XBig12= 2.11D-15 3.97D-09.
 InvSVY:  IOpt=1 It=  1 EMax= 2.78D-16
 Solved reduced A of dimension   320 with    54 vectors.
 End of Minotr F.D. properties file   721 does not exist.
 End of Minotr F.D. properties file   722 does not exist.
 End of Minotr F.D. properties file   788 does not exist.
 Leave Link 1002 at Sun Sep 29 00:13:43 2019, MaxMem=   671088640 cpu:            3966.7 elap:            1983.6
 (Enter /shared/centos7/gaussian/g16/l601.exe)
 Copying SCF densities to generalized density rwf, IOpCl= 0 IROHF=0.

 **********************************************************************

            Population analysis using the SCF density.

 **********************************************************************

 Orbital symmetries:
       Occupied  (A) (A) (A) (A) (A) (A) (A) (A) (A) (A) (A) (A)
                 (A) (A) (A) (A) (A) (A) (A) (A) (A) (A) (A) (A)
                 (A) (A) (A) (A)
       Virtual   (A) (A) (A) (A) (A) (A) (A) (A) (A) (A) (A) (A)
                 (A) (A) (A) (A) (A) (A) (A) (A) (A) (A) (A) (A)
                 (A) (A) (A) (A) (A) (A) (A) (A) (A) (A) (A) (A)
                 (A) (A) (A) (A) (A) (A) (A) (A) (A) (A) (A) (A)
                 (A) (A) (A) (A) (A) (A) (A) (A) (A) (A) (A) (A)
                 (A) (A) (A) (A) (A) (A) (A) (A) (A) (A) (A) (A)
                 (A) (A) (A) (A) (A) (A) (A) (A) (A) (A) (A) (A)
                 (A) (A) (A) (A) (A) (A) (A) (A) (A) (A) (A) (A)
                 (A) (A) (A) (A) (A) (A) (A) (A) (A) (A) (A) (A)
                 (A) (A) (A) (A) (A) (A) (A) (A) (A) (A) (A) (A)
                 (A) (A) (A) (A) (A) (A) (A) (A) (A) (A) (A) (A)
                 (A) (A) (A) (A) (A) (A) (A) (A) (A) (A) (A) (A)
                 (A) (A) (A) (A) (A) (A) (A) (A) (A) (A) (A) (A)
                 (A) (A) (A) (A) (A) (A) (A) (A) (A) (A) (A) (A)
                 (A) (A) (A) (A) (A) (A) (A) (A) (A) (A) (A) (A)
                 (A) (A) (A) (A) (A) (A) (A) (A) (A) (A) (A) (A)
                 (A) (A) (A) (A) (A) (A) (A) (A) (A) (A) (A) (A)
                 (A) (A) (A) (A) (A) (A) (A) (A) (A) (A) (A) (A)
                 (A) (A) (A) (A) (A) (A) (A) (A) (A) (A) (A) (A)
                 (A) (A) (A) (A) (A) (A) (A) (A) (A) (A) (A) (A)
                 (A) (A) (A) (A) (A) (A) (A) (A) (A) (A) (A) (A)
                 (A) (A) (A) (A) (A) (A) (A) (A) (A) (A) (A) (A)
                 (A) (A) (A) (A) (A) (A) (A) (A) (A) (A) (A) (A)
                 (A) (A) (A) (A) (A) (A) (A) (A) (A) (A) (A) (A)
                 (A) (A) (A) (A) (A) (A) (A) (A) (A) (A) (A) (A)
                 (A) (A) (A) (A) (A) (A) (A) (A) (A) (A) (A) (A)
                 (A) (A) (A) (A) (A) (A) (A) (A) (A) (A)
 The electronic state is 1-A.
 Alpha  occ. eigenvalues --  -19.65419 -19.63984 -10.58274 -10.58171 -10.58055
 Alpha  occ. eigenvalues --  -10.52593 -10.52064  -1.18200  -1.16269  -0.88630
 Alpha  occ. eigenvalues --   -0.84082  -0.76865  -0.70042  -0.63398  -0.62592
 Alpha  occ. eigenvalues --   -0.56355  -0.53294  -0.52651  -0.49642  -0.46622
 Alpha  occ. eigenvalues --   -0.46185  -0.43731  -0.42970  -0.42350  -0.41519
 Alpha  occ. eigenvalues --   -0.38140  -0.36102  -0.27035
 Alpha virt. eigenvalues --    0.04080   0.08326   0.09025   0.10344   0.11958
 Alpha virt. eigenvalues --    0.12783   0.13460   0.14510   0.16113   0.17369
 Alpha virt. eigenvalues --    0.17584   0.18661   0.21499   0.24731   0.25346
 Alpha virt. eigenvalues --    0.27150   0.30343   0.32389   0.32806   0.33171
 Alpha virt. eigenvalues --    0.34999   0.36319   0.36611   0.38824   0.39838
 Alpha virt. eigenvalues --    0.40899   0.41579   0.42512   0.44446   0.47421
 Alpha virt. eigenvalues --    0.48458   0.48809   0.49560   0.50648   0.50926
 Alpha virt. eigenvalues --    0.51262   0.51764   0.52671   0.54008   0.55541
 Alpha virt. eigenvalues --    0.56435   0.58512   0.62456   0.63940   0.66168
 Alpha virt. eigenvalues --    0.66640   0.67912   0.71171   0.72404   0.73339
 Alpha virt. eigenvalues --    0.75665   0.77847   0.79468   0.80846   0.81350
 Alpha virt. eigenvalues --    0.84786   0.86242   0.86913   0.88963   0.90369
 Alpha virt. eigenvalues --    0.92964   0.94361   0.96651   0.99062   1.00150
 Alpha virt. eigenvalues --    1.01927   1.03296   1.03703   1.07021   1.07619
 Alpha virt. eigenvalues --    1.08555   1.10198   1.10713   1.12686   1.14014
 Alpha virt. eigenvalues --    1.15820   1.17675   1.19775   1.22415   1.23600
 Alpha virt. eigenvalues --    1.24868   1.25740   1.27239   1.28181   1.28862
 Alpha virt. eigenvalues --    1.30117   1.32364   1.33327   1.35139   1.35529
 Alpha virt. eigenvalues --    1.35717   1.36778   1.39000   1.39790   1.41710
 Alpha virt. eigenvalues --    1.43548   1.48659   1.50782   1.53318   1.53919
 Alpha virt. eigenvalues --    1.56559   1.58010   1.58763   1.60405   1.63261
 Alpha virt. eigenvalues --    1.65296   1.67117   1.70180   1.75179   1.83773
 Alpha virt. eigenvalues --    1.88109   1.95639   2.01828   2.06998   2.07525
 Alpha virt. eigenvalues --    2.10323   2.11339   2.15725   2.17764   2.19839
 Alpha virt. eigenvalues --    2.24120   2.27877   2.29125   2.32021   2.35020
 Alpha virt. eigenvalues --    2.37770   2.39992   2.43173   2.45344   2.45716
 Alpha virt. eigenvalues --    2.48307   2.51991   2.54497   2.55551   2.58257
 Alpha virt. eigenvalues --    2.60195   2.63810   2.64172   2.65569   2.69098
 Alpha virt. eigenvalues --    2.71604   2.74103   2.75564   2.78720   2.80885
 Alpha virt. eigenvalues --    2.81980   2.82762   2.84276   2.86043   2.87781
 Alpha virt. eigenvalues --    2.88287   2.90429   2.90800   2.93694   2.95769
 Alpha virt. eigenvalues --    2.96553   2.98375   3.01377   3.02026   3.02344
 Alpha virt. eigenvalues --    3.04389   3.05668   3.07061   3.08305   3.10156
 Alpha virt. eigenvalues --    3.10678   3.11751   3.13310   3.13697   3.15147
 Alpha virt. eigenvalues --    3.16987   3.18110   3.20976   3.22972   3.23970
 Alpha virt. eigenvalues --    3.25686   3.27283   3.28476   3.29103   3.30242
 Alpha virt. eigenvalues --    3.30776   3.31546   3.32514   3.34634   3.36969
 Alpha virt. eigenvalues --    3.38350   3.40198   3.41796   3.43239   3.44634
 Alpha virt. eigenvalues --    3.44837   3.47167   3.47348   3.48659   3.51412
 Alpha virt. eigenvalues --    3.52400   3.54167   3.56595   3.57909   3.60551
 Alpha virt. eigenvalues --    3.64242   3.68189   3.68709   3.70077   3.72638
 Alpha virt. eigenvalues --    3.74175   3.75262   3.77731   3.78183   3.78903
 Alpha virt. eigenvalues --    3.80513   3.81510   3.82278   3.84737   3.88005
 Alpha virt. eigenvalues --    3.90977   3.91717   3.92253   3.93513   3.93950
 Alpha virt. eigenvalues --    3.95534   3.96531   3.98241   4.00600   4.01739
 Alpha virt. eigenvalues --    4.02103   4.04548   4.06222   4.07206   4.07983
 Alpha virt. eigenvalues --    4.08719   4.10569   4.12925   4.13794   4.15657
 Alpha virt. eigenvalues --    4.18359   4.19395   4.26916   4.27244   4.30714
 Alpha virt. eigenvalues --    4.31315   4.32713   4.35521   4.39389   4.41175
 Alpha virt. eigenvalues --    4.45925   4.48693   4.52180   4.53376   4.55469
 Alpha virt. eigenvalues --    4.58293   4.61685   4.63540   4.67144   4.70614
 Alpha virt. eigenvalues --    4.71929   4.73629   4.75131   4.77205   4.80119
 Alpha virt. eigenvalues --    4.81649   4.86791   4.87441   4.94158   4.97506
 Alpha virt. eigenvalues --    4.98099   4.98571   5.01609   5.04207   5.06736
 Alpha virt. eigenvalues --    5.08339   5.11137   5.12689   5.15831   5.20591
 Alpha virt. eigenvalues --    5.22175   5.22481   5.24718   5.25302   5.28975
 Alpha virt. eigenvalues --    5.32610   5.34672   5.38435   5.44764   5.47273
 Alpha virt. eigenvalues --    5.54363   5.54774   5.62653   5.68093   5.74188
 Alpha virt. eigenvalues --    5.77377   5.77688   5.79229   5.80984   5.84371
 Alpha virt. eigenvalues --    5.95692   6.04855   6.08070   6.18851   6.23355
 Alpha virt. eigenvalues --    6.34257   6.48658   6.59264   6.59668   6.69156
 Alpha virt. eigenvalues --    6.72390   6.80057   6.81354   6.84913   6.98821
 Alpha virt. eigenvalues --    7.09737   7.20170   7.29987   7.36669   7.43074
 Alpha virt. eigenvalues --   10.13817  11.34045  11.73364  12.05221  13.18175
 Alpha virt. eigenvalues --   13.33063  14.36155
          Condensed to atoms (all electrons):
               1          2          3          4          5          6
     1  O    7.830361   0.003635   0.269104  -0.051990  -0.042258   0.369992
     2  O    0.003635   7.845049  -0.010793  -0.008375   0.000793  -0.083338
     3  C    0.269104  -0.010793   4.944929   0.328838   0.322064  -0.052743
     4  C   -0.051990  -0.008375   0.328838   5.049728  -0.054190  -0.002654
     5  C   -0.042258   0.000793   0.322064  -0.054190   4.962280   0.001419
     6  C    0.369992  -0.083338  -0.052743  -0.002654   0.001419   4.951901
     7  C   -0.072722   0.304245  -0.017911  -0.001269   0.001751   0.510848
     8  H   -0.041741   0.015030   0.407456  -0.068336  -0.034897  -0.012663
     9  H   -0.001123   0.007109  -0.030504   0.395552   0.008321  -0.007277
    10  H    0.004539   0.000568  -0.030302   0.392715  -0.007387   0.000783
    11  H    0.004356   0.000874  -0.033537   0.383207  -0.008683  -0.002538
    12  H    0.001578  -0.000051  -0.037081  -0.013050   0.394836   0.000447
    13  H    0.003022   0.000027  -0.039281   0.010382   0.400260  -0.000325
    14  H    0.003773  -0.000058  -0.048906  -0.001007   0.401219  -0.000101
    15  H   -0.035704   0.002994   0.007489   0.000372  -0.000582   0.440204
    16  H    0.005038  -0.044629  -0.000697   0.000362   0.000075  -0.067247
    17  H   -0.000565   0.306101   0.000768  -0.000157  -0.000059   0.011613
               7          8          9         10         11         12
     1  O   -0.072722  -0.041741  -0.001123   0.004539   0.004356   0.001578
     2  O    0.304245   0.015030   0.007109   0.000568   0.000874  -0.000051
     3  C   -0.017911   0.407456  -0.030504  -0.030302  -0.033537  -0.037081
     4  C   -0.001269  -0.068336   0.395552   0.392715   0.383207  -0.013050
     5  C    0.001751  -0.034897   0.008321  -0.007387  -0.008683   0.394836
     6  C    0.510848  -0.012663  -0.007277   0.000783  -0.002538   0.000447
     7  C    5.014651   0.003969  -0.004749  -0.001142   0.000387  -0.000019
     8  H    0.003969   0.595101  -0.007468  -0.000668   0.009133   0.008956
     9  H   -0.004749  -0.007468   0.559884  -0.027453  -0.029397  -0.000089
    10  H   -0.001142  -0.000668  -0.027453   0.577634  -0.030994   0.000576
    11  H    0.000387   0.009133  -0.029397  -0.030994   0.587621   0.005208
    12  H   -0.000019   0.008956  -0.000089   0.000576   0.005208   0.596414
    13  H   -0.000036  -0.009775  -0.000481  -0.000368  -0.000386  -0.032726
    14  H   -0.000045  -0.003351   0.000068  -0.000503  -0.000012  -0.033530
    15  H   -0.087714  -0.000616  -0.000054   0.000018  -0.000191  -0.000009
    16  H    0.415803   0.000056   0.000475  -0.000017  -0.000027  -0.000012
    17  H   -0.032361   0.000720   0.000269   0.000000   0.000043   0.000010
              13         14         15         16         17
     1  O    0.003022   0.003773  -0.035704   0.005038  -0.000565
     2  O    0.000027  -0.000058   0.002994  -0.044629   0.306101
     3  C   -0.039281  -0.048906   0.007489  -0.000697   0.000768
     4  C    0.010382  -0.001007   0.000372   0.000362  -0.000157
     5  C    0.400260   0.401219  -0.000582   0.000075  -0.000059
     6  C   -0.000325  -0.000101   0.440204  -0.067247   0.011613
     7  C   -0.000036  -0.000045  -0.087714   0.415803  -0.032361
     8  H   -0.009775  -0.003351  -0.000616   0.000056   0.000720
     9  H   -0.000481   0.000068  -0.000054   0.000475   0.000269
    10  H   -0.000368  -0.000503   0.000018  -0.000017   0.000000
    11  H   -0.000386  -0.000012  -0.000191  -0.000027   0.000043
    12  H   -0.032726  -0.033530  -0.000009  -0.000012   0.000010
    13  H    0.576693  -0.027655  -0.000003   0.000002  -0.000007
    14  H   -0.027655   0.606776   0.000032  -0.000007   0.000000
    15  H   -0.000003   0.000032   0.539903  -0.008775  -0.000431
    16  H    0.000002  -0.000007  -0.008775   0.600155  -0.015732
    17  H   -0.000007   0.000000  -0.000431  -0.015732   0.469011
 Mulliken charges:
               1
     1  O   -0.249296
     2  O   -0.339180
     3  C    0.021109
     4  C   -0.360128
     5  C   -0.344962
     6  C   -0.058321
     7  C   -0.033687
     8  H    0.139093
     9  H    0.136917
    10  H    0.121998
    11  H    0.114936
    12  H    0.108541
    13  H    0.120656
    14  H    0.103308
    15  H    0.143067
    16  H    0.115176
    17  H    0.260774
 Sum of Mulliken charges =   0.00000
 Mulliken charges with hydrogens summed into heavy atoms:
               1
     1  O   -0.249296
     2  O   -0.078406
     3  C    0.160202
     4  C    0.013722
     5  C   -0.012457
     6  C    0.084746
     7  C    0.081490
 APT charges:
               1
     1  O   -0.189218
     2  O   -0.845993
     3  C   -0.043330
     4  C   -1.038002
     5  C   -1.270794
     6  C   -0.534155
     7  C   -0.381375
     8  H    0.267404
     9  H    0.248392
    10  H    0.411366
    11  H    0.379046
    12  H    0.386394
    13  H    0.374904
    14  H    0.405494
    15  H    0.516116
    16  H    0.517023
    17  H    0.796728
 Sum of APT charges =   0.00000
 APT charges with hydrogens summed into heavy atoms:
               1
     1  O   -0.189218
     2  O   -0.049265
     3  C    0.224074
     4  C    0.000802
     5  C   -0.104002
     6  C   -0.018040
     7  C    0.135648
 Electronic spatial extent (au):  <R**2>=            836.1796
 Charge=              0.0000 electrons
 Dipole moment (field-independent basis, Debye):
    X=             -2.0436    Y=             -1.2497    Z=              0.0269  Tot=              2.3956
 Quadrupole moment (field-independent basis, Debye-Ang):
   XX=            -34.8366   YY=            -43.5207   ZZ=            -45.4918
   XY=              1.0836   XZ=             -0.3709   YZ=              1.3443
 Traceless Quadrupole moment (field-independent basis, Debye-Ang):
   XX=              6.4464   YY=             -2.2377   ZZ=             -4.2088
   XY=              1.0836   XZ=             -0.3709   YZ=              1.3443
 Octapole moment (field-independent basis, Debye-Ang**2):
  XXX=            -37.0903  YYY=             -3.3181  ZZZ=             -3.4728  XYY=            -10.7965
  XXY=            -10.6714  XXZ=             -3.2059  XZZ=             -0.1545  YZZ=              0.5108
  YYZ=             -0.7032  XYZ=             -3.5696
 Hexadecapole moment (field-independent basis, Debye-Ang**3):
 XXXX=           -610.8077 YYYY=           -250.6573 ZZZZ=           -159.7985 XXXY=             44.9604
 XXXZ=             16.3753 YYYX=             12.1391 YYYZ=             14.0935 ZZZX=              5.8853
 ZZZY=              4.7772 XXYY=           -136.6453 XXZZ=           -143.2866 YYZZ=            -69.6731
 XXYZ=             14.3299 YYXZ=             -0.0057 ZZXY=              7.0404
 N-N= 3.241603713006D+02 E-N=-1.458576407954D+03  KE= 3.447463814567D+02
  Exact polarizability:   0.000   0.000   0.000   0.000   0.000   0.000
 Approx polarizability:  87.068   7.577  83.244   2.575   6.379  70.288
 No NMR shielding tensors so no spin-rotation constants.
 Leave Link  601 at Sun Sep 29 00:14:11 2019, MaxMem=   671088640 cpu:              56.5 elap:              28.3
 (Enter /shared/centos7/gaussian/g16/l701.exe)
 SCFChk:  SCF convergence  3.46D-09 required  1.00D-08
 ... and contract with generalized density number  0.
 Compute integral second derivatives.
 Entering OneElI...
 Calculate overlap and kinetic energy integrals
    NBasis = 395  MinDer = 2  MaxDer = 2
 Requested accuracy = 0.1000D-12
 PrmmSu-InSpLW:  IPartL=    0 NPrtUS=   20 NPrtUL=    1 DoSpLW=F IThBeg=    0 IThEnd=   19 NThAct=   20.
 PrsmSu:  NPrtUS=  20 ThrOK=T IAlg=1 NPAlg=1 LenDen=           0 ISkipM=0 DoSpLW=F IThBeg=    0 IThEnd=   19.
 Prism:   IPart=     0 DynPar=F LinDyn=F Incr=           4.
 PRISM was handed    33310126 working-precision words and  8473 shell-pairs
 PRISM was handed    33310126 working-precision words and  8473 shell-pairs
 PRISM was handed    33310126 working-precision words and  8473 shell-pairs
 PRISM was handed    33310126 working-precision words and  8473 shell-pairs
 PRISM was handed    33310126 working-precision words and  8473 shell-pairs
 PRISM was handed    33310126 working-precision words and  8473 shell-pairs
 PRISM was handed    33310126 working-precision words and  8473 shell-pairs
 PRISM was handed    33310126 working-precision words and  8473 shell-pairs
 PRISM was handed    33310126 working-precision words and  8473 shell-pairs
 PRISM was handed    33310126 working-precision words and  8473 shell-pairs
 PRISM was handed    33310126 working-precision words and  8473 shell-pairs
 PRISM was handed    33310126 working-precision words and  8473 shell-pairs
 PRISM was handed    33310126 working-precision words and  8473 shell-pairs
 PRISM was handed    33310126 working-precision words and  8473 shell-pairs
 IPart=  0 NShTot=         470 NBatch=          83 AvBLen=         5.7
 PRISM was handed    33310126 working-precision words and  8473 shell-pairs
 IPart=  2 NShTot=         457 NBatch=          74 AvBLen=         6.2
 PRISM was handed    33310126 working-precision words and  8473 shell-pairs
 IPart= 12 NShTot=         409 NBatch=          44 AvBLen=         9.3
 IPart=  5 NShTot=         440 NBatch=          62 AvBLen=         7.1
 PRISM was handed    33310126 working-precision words and  8473 shell-pairs
 PRISM was handed    33310126 working-precision words and  8473 shell-pairs
 IPart= 10 NShTot=         414 NBatch=          48 AvBLen=         8.6
 IPart= 17 NShTot=         401 NBatch=          39 AvBLen=        10.3
 PRISM was handed    33310126 working-precision words and  8473 shell-pairs
 PRISM was handed    33310126 working-precision words and  8473 shell-pairs
 IPart=  7 NShTot=         426 NBatch=          52 AvBLen=         8.2
 IPart=  6 NShTot=         438 NBatch=          60 AvBLen=         7.3
 IPart=  9 NShTot=         416 NBatch=          49 AvBLen=         8.5
 IPart= 13 NShTot=         405 NBatch=          41 AvBLen=         9.9
 IPart=  8 NShTot=         417 NBatch=          50 AvBLen=         8.3
 IPart= 15 NShTot=         404 NBatch=          40 AvBLen=        10.1
 IPart= 19 NShTot=         399 NBatch=          39 AvBLen=        10.2
 IPart= 16 NShTot=         402 NBatch=          39 AvBLen=        10.3
 IPart= 11 NShTot=         412 NBatch=          47 AvBLen=         8.8
 IPart=  4 NShTot=         443 NBatch=          63 AvBLen=         7.0
 IPart= 18 NShTot=         400 NBatch=          39 AvBLen=        10.3
 IPart= 14 NShTot=         404 NBatch=          40 AvBLen=        10.1
 IPart=  3 NShTot=         451 NBatch=          70 AvBLen=         6.4
 IPart=  1 NShTot=         465 NBatch=          79 AvBLen=         5.9
 PrSmSu:  NxtVal=             81.
 Entering OneElI...
 Calculate potential energy integrals
    NBasis = 395  MinDer = 2  MaxDer = 2
 Requested accuracy = 0.1000D-12
 PrmmSu-InSpLW:  IPartL=    0 NPrtUS=   20 NPrtUL=    1 DoSpLW=F IThBeg=    0 IThEnd=   19 NThAct=   20.
 PrsmSu:  NPrtUS=  20 ThrOK=T IAlg=1 NPAlg=1 LenDen=           0 ISkipM=0 DoSpLW=F IThBeg=    0 IThEnd=   19.
 Prism:   IPart=     0 DynPar=F LinDyn=F Incr=          66.
 PRISM was handed    33352270 working-precision words and  7807 shell-pairs
 PRISM was handed    33352270 working-precision words and  7807 shell-pairs
 PRISM was handed    33352270 working-precision words and  7807 shell-pairs
 PRISM was handed    33352270 working-precision words and  7807 shell-pairs
 PRISM was handed    33352270 working-precision words and  7807 shell-pairs
 PRISM was handed    33352270 working-precision words and  7807 shell-pairs
 PRISM was handed    33352270 working-precision words and  7807 shell-pairs
 PRISM was handed    33352270 working-precision words and  7807 shell-pairs
 PRISM was handed    33352270 working-precision words and  7807 shell-pairs
 PRISM was handed    33352270 working-precision words and  7807 shell-pairs
 PRISM was handed    33352270 working-precision words and  7807 shell-pairs
 PRISM was handed    33352270 working-precision words and  7807 shell-pairs
 PRISM was handed    33352270 working-precision words and  7807 shell-pairs
 PRISM was handed    33352270 working-precision words and  7807 shell-pairs
 PRISM was handed    33352270 working-precision words and  7807 shell-pairs
 PRISM was handed    33352270 working-precision words and  7807 shell-pairs
 PRISM was handed    33352270 working-precision words and  7807 shell-pairs
 PRISM was handed    33352270 working-precision words and  7807 shell-pairs
 PRISM was handed    33352270 working-precision words and  7807 shell-pairs
 PRISM was handed    33352270 working-precision words and  7807 shell-pairs
 IPart=  9 NShTot=        6545 NBatch=         385 AvBLen=        17.0
 IPart= 12 NShTot=        6443 NBatch=         379 AvBLen=        17.0
 IPart=  7 NShTot=        6647 NBatch=         391 AvBLen=        17.0
 IPart= 17 NShTot=        6341 NBatch=         373 AvBLen=        17.0
 IPart= 13 NShTot=        6443 NBatch=         379 AvBLen=        17.0
 IPart=  0 NShTot=        7293 NBatch=         429 AvBLen=        17.0
 IPart=  4 NShTot=        6902 NBatch=         406 AvBLen=        17.0
 IPart=  2 NShTot=        7055 NBatch=         415 AvBLen=        17.0
 IPart=  6 NShTot=        6800 NBatch=         400 AvBLen=        17.0
 IPart=  8 NShTot=        6596 NBatch=         388 AvBLen=        17.0
 IPart= 16 NShTot=        6358 NBatch=         374 AvBLen=        17.0
 IPart=  1 NShTot=        7123 NBatch=         419 AvBLen=        17.0
 IPart= 18 NShTot=        6307 NBatch=         371 AvBLen=        17.0
 IPart= 14 NShTot=        6409 NBatch=         377 AvBLen=        17.0
 IPart= 11 NShTot=        6494 NBatch=         382 AvBLen=        17.0
 IPart=  5 NShTot=        6834 NBatch=         402 AvBLen=        17.0
 IPart= 19 NShTot=        6239 NBatch=         367 AvBLen=        17.0
 IPart=  3 NShTot=        6953 NBatch=         409 AvBLen=        17.0
 IPart= 10 NShTot=        6545 NBatch=         385 AvBLen=        17.0
 IPart= 15 NShTot=        6392 NBatch=         376 AvBLen=        17.0
 PrSmSu:  NxtVal=           1321.
 Polarizability after L701:
                1             2             3 
      1  0.000000D+00
      2  0.000000D+00  0.000000D+00
      3  0.000000D+00  0.000000D+00  0.000000D+00
 Dipole Derivatives after L701:
                 1             2             3             4             5 
      1  -0.239054D+00  0.258277D-01 -0.306079D-01 -0.144593D+01 -0.654166D+00
      2   0.330241D+00 -0.886339D-01 -0.615921D-02 -0.670026D+00 -0.726991D+00
      3   0.268206D-01  0.269737D-01 -0.239966D+00 -0.284795D+00 -0.999850D-01
                 6             7             8             9            10 
      1  -0.118377D+00  0.359324D+00  0.157533D+00  0.884130D-01 -0.881494D+00
      2  -0.354116D-01  0.495571D-02 -0.173745D+00 -0.233469D+00  0.312730D-03
      3  -0.365060D+00 -0.232012D+00 -0.207975D+00 -0.315568D+00  0.549078D-02
                11            12            13            14            15 
      1   0.290203D+00 -0.391580D+00 -0.186430D+01 -0.161842D+00  0.303694D+00
      2  -0.117243D+01  0.294959D+00  0.217105D-01 -0.930184D+00 -0.322562D-01
      3   0.130652D+00 -0.106008D+01  0.222766D+00  0.100380D-02 -0.101789D+01
                16            17            18            19            20 
      1  -0.787173D+00  0.820783D-02  0.156179D+00 -0.787171D+00  0.658129D+00
      2   0.273062D-01 -0.679148D+00 -0.385889D+00  0.428852D-02 -0.330282D+00
      3   0.694460D-01 -0.341958D+00 -0.136145D+00  0.118665D+00 -0.185022D+00
                21            22            23            24            25 
      1   0.315779D+00  0.995364D-01 -0.873222D-01 -0.120204D+00  0.296465D+00
      2  -0.137441D+00  0.662007D-01  0.245904D+00  0.120012D+00  0.432401D+00
      3  -0.266721D-01  0.156744D+00  0.140307D+00  0.456771D+00 -0.495159D+00
                26            27            28            29            30 
      1  -0.886570D-02 -0.417445D-01  0.293986D+00 -0.439626D+00 -0.966870D-01
      2   0.178116D+00 -0.136365D+00 -0.328881D+00  0.861726D+00  0.178313D+00
      3  -0.547840D-01  0.270594D+00  0.830120D-01 -0.189137D+00  0.783857D-01
                31            32            33            34            35 
      1   0.382154D+00  0.157096D+00  0.453358D+00  0.754970D+00  0.420027D+00
      2  -0.987115D-01  0.485335D-01 -0.172387D+00  0.151184D+00  0.187678D+00
      3   0.377208D+00  0.210442D+00  0.706451D+00  0.761274D-01  0.626453D-01
                36            37            38            39            40 
      1   0.778757D+00  0.201981D+00  0.525063D+00 -0.698855D+00  0.587772D+00
      2   0.177824D+00  0.355382D-01  0.319291D+00 -0.288339D+00 -0.174862D+00
      3   0.216535D+00 -0.299344D-01 -0.367153D+00  0.603440D+00 -0.160632D+00
                41            42            43            44            45 
      1  -0.862780D+00 -0.258627D+00  0.380646D+00 -0.495504D+00 -0.229845D+00
      2   0.448662D+00  0.106579D+00 -0.269161D+00  0.933924D+00  0.392057D+00
      3   0.296731D+00  0.180047D+00 -0.100228D+00  0.322628D+00  0.233777D+00
                46            47            48            49            50 
      1   0.128061D+01 -0.245514D+00 -0.229184D+00  0.136767D+01  0.713532D+00
      2  -0.121876D+00  0.181414D+00  0.690937D-01  0.589378D+00  0.696167D+00
      3  -0.796437D-01  0.567698D-01  0.890418D-01  0.246124D+00  0.197862D+00
                51 
      1   0.119531D+00
      2   0.888787D-01
      3   0.326344D+00
 Hessian after L701:
                1             2             3             4             5 
      1  0.556461D+01
      2  0.294808D+01  0.118292D+02
      3  0.185305D+01 -0.118052D+01  0.182972D+02
      4  0.116867D+00  0.535340D+00  0.191438D+00  0.101085D+02
      5  0.556867D+00  0.279503D+00  0.260095D+00 -0.226826D+01  0.663604D+01
      6  0.190230D+00  0.250773D+00 -0.314253D+00 -0.661999D+00 -0.374296D+01
      7 -0.629517D+01 -0.351964D+01 -0.975278D+00  0.240500D+00  0.201008D+00
      8 -0.325789D+01 -0.259125D+01  0.141725D+01  0.260838D+00 -0.205421D+00
      9 -0.917569D+00  0.138228D+01 -0.864371D+01  0.213848D+00  0.923010D-01
     10 -0.177457D+00  0.368596D-01  0.126835D+00  0.181852D+00 -0.644500D-01
     11  0.291135D-01  0.211971D+00 -0.491139D+00 -0.923357D-02 -0.266380D+00
     12  0.894655D-01 -0.369860D+00  0.133549D+00  0.225173D+00 -0.401804D-01
     13  0.262235D+00 -0.186049D+00 -0.155455D+00  0.167331D+00  0.860463D-01
     14 -0.242876D+00 -0.167575D+00  0.624496D-01  0.831106D-01 -0.907726D-01
     15 -0.167423D+00  0.456471D-01 -0.111665D+00  0.918472D-02  0.198574D-02
     16  0.232647D+00 -0.134105D+00 -0.132872D+01  0.196630D+00  0.237873D+00
     17 -0.453289D+00 -0.986646D+01  0.836621D-01 -0.841184D-04 -0.504585D+00
     18 -0.132750D+01  0.740685D-01 -0.995907D+01  0.756619D-01 -0.353126D+00
     19 -0.200900D-02  0.220713D+00  0.223193D+00 -0.855769D+01 -0.122413D+01
     20  0.367498D+00  0.271157D+00 -0.781057D-01 -0.106198D+01 -0.128665D+01
     21  0.233797D+00 -0.540603D-01  0.324084D+00 -0.561367D+00  0.346294D+01
     22  0.193187D+00  0.176406D+00  0.129240D+00  0.271031D-01  0.681773D-01
     23  0.120741D+00 -0.277521D+00 -0.434409D-01  0.313864D-01 -0.142839D+00
     24  0.107314D+00 -0.710891D-01  0.342497D+00 -0.950656D-01 -0.283282D-01
     25 -0.190599D-01  0.601909D-01 -0.349893D-01 -0.679131D-01  0.671364D-02
     26  0.993859D-02  0.258337D-01 -0.471524D-01 -0.109600D-01 -0.939667D-01
     27 -0.128000D-01 -0.534257D-01 -0.726678D-02  0.793590D-01 -0.576599D-02
     28 -0.313083D-01 -0.662324D-01  0.500404D-02  0.476624D-01 -0.361642D-01
     29 -0.538925D-01  0.159325D+00 -0.954620D-02 -0.510035D-01 -0.410592D-02
     30  0.383425D-02 -0.117983D-01 -0.493625D-01  0.253862D-01 -0.809558D-02
     31 -0.351431D-01 -0.742510D-01  0.510996D-01  0.298838D-01  0.987617D-02
     32 -0.416412D-01  0.410695D-01 -0.605995D-01  0.706921D-02 -0.193107D-01
     33  0.463680D-01 -0.109546D+00  0.812247D-02  0.471229D-01  0.779627D-02
     34  0.102174D+00 -0.499633D-01 -0.416075D-01  0.181855D-01  0.981197D-02
     35 -0.194933D-01 -0.477720D-01  0.104883D-01  0.107004D-01 -0.549963D-02
     36  0.878288D-02  0.623301D-03 -0.551243D-01  0.118845D-01  0.428733D-02
     37  0.659097D-01 -0.379852D-01 -0.545973D-01  0.169218D-01  0.137948D-01
     38 -0.268609D-02 -0.603709D-01 -0.678762D-02  0.203428D-01 -0.227508D-02
     39 -0.102046D+00  0.257187D-01 -0.184791D-01 -0.174813D-01 -0.930773D-02
     40  0.436323D-01 -0.105952D+00 -0.389921D-01  0.292939D-01 -0.154984D-02
     41 -0.949380D-01  0.599134D-01  0.420734D-01 -0.134429D-01 -0.959315D-02
     42 -0.376608D-01  0.452246D-01 -0.273376D-01 -0.609306D-02  0.902615D-03
     43 -0.249715D+00  0.120570D+00  0.578142D-01 -0.385283D-01 -0.117290D-02
     44  0.782099D-01  0.165642D+00  0.389013D-01  0.122321D-01  0.119791D+00
     45  0.434655D-01  0.255662D-01  0.131192D+00  0.701705D-02  0.717898D-01
     46  0.198611D+00  0.477487D-01 -0.167175D-01  0.174525D+00  0.155250D+00
     47  0.219821D-01 -0.460487D-01 -0.675214D-02  0.118225D+00 -0.684704D-01
     48 -0.216204D-01 -0.845469D-02 -0.420461D-01  0.651410D-01 -0.134825D+00
     49  0.299924D-01  0.282711D-01  0.868781D-02 -0.269112D+01  0.225031D+01
     50  0.342707D-01  0.133419D-01  0.912909D-02  0.233573D+01 -0.433547D+01
     51  0.103183D-01  0.885337D-02 -0.837634D-02  0.390790D+00  0.420495D+00
                6             7             8             9            10 
      6  0.135841D+02
      7  0.844243D-01  0.185363D+02
      8  0.529500D-01  0.239402D+01  0.172092D+02
      9 -0.264494D+00  0.124905D+01 -0.275701D+00  0.215239D+02
     10  0.338795D+00 -0.644023D+01  0.776907D-01 -0.980504D-01  0.147363D+02
     11 -0.753058D-02  0.171957D+00 -0.400308D+01 -0.243393D+01  0.203554D+00
     12 -0.831784D-01 -0.169379D+00 -0.245878D+01 -0.380300D+01 -0.667714D-01
     13  0.249454D-02 -0.240839D+01  0.427890D+00 -0.142453D+01  0.848478D-01
     14  0.607445D-03  0.425638D+00 -0.639725D+01 -0.147557D+00  0.151643D+00
     15 -0.113298D+00 -0.138003D+01 -0.143386D+00 -0.602445D+01 -0.202504D+00
     16  0.183815D+00  0.327240D+00 -0.330004D+00 -0.138131D+00  0.605684D-02
     17 -0.335872D+00 -0.229659D+00  0.889911D-01  0.431342D-01 -0.266955D+00
     18  0.235296D+00 -0.133528D+00  0.702427D-01 -0.941974D-02  0.995249D-01
     19 -0.635309D+00  0.191096D+00 -0.628745D-01  0.349227D-01  0.244450D+00
     20  0.347053D+01 -0.441192D-01 -0.117657D+00 -0.237589D-01 -0.136716D+00
     21 -0.685368D+01 -0.215382D-01 -0.717357D-02 -0.115350D+00  0.115362D+00
     22 -0.124020D-01 -0.444620D+01  0.516535D+00  0.100889D+01  0.238843D+00
     23 -0.221633D-02  0.646913D+00 -0.426603D+01  0.120852D+01  0.490730D-01
     24 -0.134504D+00  0.124347D+01  0.121440D+01 -0.291052D+01 -0.164748D+00
     25  0.253370D-02  0.544577D-01 -0.827169D-03  0.454246D-01 -0.189957D+01
     26 -0.820637D-02 -0.731615D-01  0.452285D-01  0.516486D-01  0.543653D+00
     27 -0.558724D-02  0.105818D+00  0.245212D-01 -0.277139D-01 -0.100044D+01
     28  0.342302D-01  0.302220D-01  0.451303D-01 -0.334710D-01 -0.371903D+01
     29 -0.214956D-01  0.767891D-01 -0.435274D-01 -0.477256D-03 -0.895601D+00
     30 -0.195498D-01 -0.463215D-01  0.396948D-01  0.814818D-01 -0.164216D+00
     31  0.425828D-01  0.770218D-01  0.103715D-01  0.629181D-02 -0.333901D+01
     32  0.745062D-02  0.272044D-01  0.667530D-01  0.688285D-01  0.323187D+00
     33  0.206318D-01 -0.888346D-02  0.126275D-01 -0.311336D-01  0.111024D+01
     34  0.571896D-02 -0.919683D-02 -0.523907D-01 -0.211436D-01 -0.271572D-01
     35  0.247071D-02 -0.286007D-01  0.533700D-01  0.324208D-02 -0.127625D-01
     36 -0.554887D-02  0.313466D-01  0.167132D-01  0.109219D+00  0.210866D-01
     37 -0.518530D-02  0.134081D-01 -0.940575D-01  0.571307D-01 -0.116877D-01
     38 -0.562822D-02 -0.478161D-01  0.272336D-01 -0.251758D-03  0.592331D-01
     39 -0.671975D-02  0.268570D-01  0.292528D-01  0.938509D-01 -0.783616D-01
     40 -0.337800D-02 -0.227816D-01  0.145113D+00  0.458283D-01  0.303685D-01
     41  0.185847D-02  0.102379D+00  0.760381D-01 -0.272463D-01 -0.248178D-01
     42 -0.115570D-01  0.554640D-01 -0.539425D-01  0.778734D-01 -0.596612D-01
     43  0.112613D-02  0.604450D-01 -0.113171D+00 -0.488236D-01  0.879053D-02
     44  0.750181D-01 -0.133828D+00  0.720433D-01  0.544461D-01 -0.421704D-01
     45  0.130364D-02 -0.642897D-01  0.616698D-01 -0.270616D-01 -0.349275D-02
     46  0.853375D-01  0.288258D-01  0.478437D-02  0.849829D-02  0.442651D-01
     47 -0.132532D+00 -0.484599D-02 -0.132786D-01 -0.232912D-02 -0.229392D-01
     48  0.734590D-01 -0.276972D-02 -0.152289D-02 -0.137337D-01  0.546323D-02
     49  0.346985D+00  0.624134D-01  0.288416D-01  0.118371D-01  0.383970D-01
     50  0.394778D+00  0.357666D-01 -0.141120D-02  0.684929D-02  0.215191D-01
     51 -0.610240D+01  0.559110D-02  0.118295D-02 -0.157310D-01  0.209402D-01
               11            12            13            14            15 
     11  0.141097D+02
     12  0.196722D+01  0.147953D+02
     13  0.959453D-01 -0.129584D+00  0.119092D+02
     14 -0.596720D-01 -0.929721D-01 -0.582721D-01  0.153060D+02
     15 -0.893147D-01 -0.140429D-01  0.138944D+01  0.991717D-01  0.149479D+02
     16 -0.247367D+00  0.766369D-01  0.191676D+00 -0.121394D+00 -0.886563D-01
     17  0.801068D-01 -0.917851D-01 -0.893308D-01 -0.104403D+00  0.207073D-01
     18 -0.114411D+00 -0.160618D+00 -0.839479D-01  0.243339D-01 -0.109994D+00
     19 -0.129231D+00  0.707285D-01  0.150965D+00 -0.966655D-02 -0.287891D-01
     20 -0.142470D+00 -0.378017D-01  0.749232D-02 -0.882521D-01 -0.352004D-02
     21 -0.452223D-01 -0.141509D+00 -0.274615D-01 -0.191259D-02 -0.792913D-01
     22  0.488281D-01 -0.117679D+00 -0.154576D+00 -0.448820D-01 -0.649584D-01
     23  0.234730D+00  0.138901D+00 -0.477246D-01  0.839964D-01 -0.702309D-02
     24  0.181697D+00 -0.330490D+00 -0.619363D-01  0.375989D-03  0.934479D-01
     25  0.306052D+00 -0.733276D+00  0.901224D-01  0.648030D-01 -0.100905D+00
     26 -0.437999D+01 -0.112753D+00  0.728853D-01 -0.209674D-01 -0.488278D-01
     27 -0.793533D-01 -0.420039D+01 -0.104302D+00 -0.441416D-01  0.205670D-01
     28 -0.884659D+00 -0.219601D+00 -0.103671D-01 -0.557405D-05 -0.515585D-04
     29 -0.198438D+01  0.583698D+00  0.247103D-03  0.228378D-01 -0.102036D-01
     30  0.449492D+00 -0.401026D+01  0.171433D-02  0.159734D-02 -0.145009D-01
     31  0.413364D+00  0.108107D+01  0.171832D-04  0.108029D-03  0.490683D-02
     32 -0.381236D+01  0.579997D+00 -0.201411D-02 -0.122884D-01  0.174170D-01
     33  0.748498D+00 -0.226236D+01  0.473336D-02  0.345903D-02  0.414077D-02
     34 -0.298734D-01  0.180982D-01 -0.300447D+01  0.651554D+00  0.122541D+01
     35 -0.209492D-02  0.674160D-02  0.566510D+00 -0.343382D+01  0.757218D+00
     36  0.107966D-01  0.128267D-01  0.102362D+01  0.723309D+00 -0.256079D+01
     37  0.689675D-01 -0.823683D-01 -0.401905D+01  0.231499D+00 -0.277044D+00
     38  0.239041D-01 -0.996825D-01  0.101904D+00 -0.301520D+01 -0.119639D+01
     39 -0.108787D+00  0.810695D-01 -0.119589D+00 -0.125611D+01 -0.238472D+01
     40 -0.708209D-02 -0.561143D-01 -0.328943D+01 -0.112768D+01 -0.316055D+00
     41 -0.329463D-01  0.170547D-01 -0.969696D+00 -0.202112D+01  0.548725D+00
     42  0.515238D-02  0.143393D-01 -0.306489D+00  0.618768D+00 -0.363620D+01
     43 -0.304038D-01 -0.167589D-02  0.190785D-02 -0.725149D-02 -0.265486D-02
     44  0.353526D-01  0.668778D-02 -0.116466D-01  0.482680D-02  0.506629D-02
     45  0.417642D-02 -0.146003D-01 -0.612067D-02  0.691557D-02 -0.654212D-02
     46 -0.142433D-01  0.989543D-03  0.166832D-01 -0.271420D-02 -0.194494D-02
     47 -0.622089D-02 -0.804557D-03 -0.308599D-02 -0.483759D-02  0.670050D-03
     48 -0.177517D-02 -0.125149D-01 -0.388820D-02  0.101136D-02 -0.596102D-02
     49  0.143123D-01  0.142906D-01  0.113371D-01  0.638742D-02  0.208096D-02
     50 -0.622406D-02  0.431465D-02  0.889848D-02 -0.149088D-02  0.205772D-02
     51  0.443208D-02 -0.411608D-02  0.130532D-02  0.689302D-03 -0.458838D-02
               16            17            18            19            20 
     16  0.932503D+01
     17 -0.317309D+01  0.183256D+02
     18  0.493665D+00 -0.407231D+01  0.268274D+02
     19 -0.557651D+01  0.505728D+01  0.121611D+01  0.150363D+02
     20  0.453297D+01 -0.626254D+01  0.323240D+01 -0.269362D+01  0.121094D+02
     21  0.108415D+01  0.321993D+01 -0.130422D+02 -0.140439D+00 -0.644432D+01
     22 -0.706757D-01  0.603373D-01  0.400702D-01  0.581800D-01 -0.123734D+00
     23  0.316433D-01  0.106641D-01  0.113080D-01 -0.141980D+00  0.203407D-01
     24  0.140047D-01  0.195998D-01  0.326972D-01 -0.666051D-01  0.567894D-01
     25 -0.259479D-01  0.152728D-01 -0.644002D-03 -0.416347D-01  0.569607D-02
     26 -0.235748D-01  0.442343D-01 -0.564048D-01 -0.195621D-01 -0.162260D-01
     27  0.201938D-01 -0.571479D-01  0.166891D-01  0.434440D-01 -0.347588D-01
     28  0.822624D-02 -0.343217D-01  0.244237D-02  0.580012D-02 -0.900296D-02
     29 -0.403735D-01  0.336799D-01 -0.374441D-02 -0.178566D-01  0.169375D-02
     30  0.491027D-02 -0.203299D-02 -0.150590D-01  0.198195D-02 -0.210479D-02
     31 -0.842232D-02 -0.661662D-02  0.111706D-01  0.315476D-01 -0.121158D-01
     32  0.336036D-03 -0.715248D-02 -0.318020D-02 -0.125487D-01 -0.100076D-01
     33  0.129498D-01 -0.106531D-01  0.477347D-02  0.386456D-01 -0.778192D-02
     34  0.393388D-01 -0.428062D-02  0.248713D-02  0.237583D-01  0.443835D-02
     35  0.161002D-03 -0.133054D-01  0.219083D-03  0.506147D-02 -0.566874D-02
     36  0.136571D-01 -0.237504D-03 -0.117464D-01  0.111070D-01  0.303138D-02
     37  0.162511D-01 -0.881491D-03 -0.155804D-01  0.153197D-01  0.623554D-02
     38  0.672426D-02 -0.122476D-01 -0.410920D-02  0.119261D-01 -0.447744D-02
     39 -0.306827D-01 -0.105223D-02  0.370930D-02 -0.221061D-01 -0.723511D-02
     40  0.126847D-01 -0.843161D-02 -0.522412D-02  0.165165D-01 -0.284541D-02
     41 -0.167516D-01  0.414553D-03  0.453774D-02 -0.138461D-01 -0.542066D-02
     42 -0.748075D-02  0.306806D-02 -0.572821D-02 -0.654038D-02  0.501038D-03
     43 -0.425423D+01 -0.825175D+00 -0.400100D+00  0.294843D+00 -0.141678D+00
     44 -0.699626D+00 -0.220897D+01  0.109937D+01 -0.209394D+00 -0.270865D+00
     45 -0.339380D+00  0.109176D+01 -0.400257D+01 -0.103756D+00 -0.261820D+00
     46 -0.475620D+00 -0.222362D+00 -0.337344D-01 -0.187997D+01 -0.682185D+00
     47 -0.190806D+00  0.227030D+00  0.159650D-01 -0.642126D+00 -0.418606D+01
     48 -0.238146D-01  0.156498D-01  0.240659D+00 -0.574637D+00  0.193083D+00
     49  0.556245D-01  0.181587D+00  0.591313D-01 -0.109552D-01 -0.163379D-01
     50  0.167383D+00  0.168951D+00  0.748417D-01 -0.118148D+00 -0.628203D-02
     51  0.528780D-01  0.735757D-01 -0.447598D-01 -0.619495D-01 -0.551307D-01
               21            22            23            24            25 
     21  0.240837D+02
     22 -0.162081D-01  0.412126D+01
     23  0.429582D-01 -0.695956D+00  0.436707D+01
     24 -0.403575D-01 -0.113042D+01 -0.142025D+01  0.284796D+01
     25  0.100344D-01  0.190074D-01 -0.947494D-02  0.140915D-01  0.214702D+01
     26 -0.356509D-01 -0.864013D-02  0.175037D-01  0.290342D-01 -0.518955D+00
     27  0.226725D-01  0.278799D-01  0.248979D-01 -0.658886D-01  0.823272D+00
     28  0.547152D-02  0.429443D-03  0.285766D-03  0.675313D-02 -0.110843D+00
     29 -0.598349D-02 -0.823458D-02 -0.311061D-02 -0.139698D-01  0.135860D+00
     30 -0.709430D-02  0.268264D-02 -0.106074D-02  0.318040D-02  0.776349D-01
     31  0.280332D-01 -0.122684D-01  0.155114D-02  0.648221D-01 -0.156870D+00
     32 -0.654196D-02 -0.352225D-02 -0.367220D-01 -0.707878D-02 -0.703483D-01
     33  0.876120D-02  0.602095D-01  0.775832D-02  0.132482D+00 -0.104400D+00
     34  0.284378D-02  0.808982D-01  0.591206D-01  0.759142D-01  0.895001D-02
     35  0.627015D-03  0.490568D-01 -0.715513D-02  0.312110D-01  0.593593D-02
     36 -0.505829D-02  0.597130D-01  0.292777D-01  0.442817D-02  0.335820D-02
     37 -0.876103D-02 -0.423273D-01 -0.505666D-01  0.119759D-01 -0.718334D-03
     38 -0.416430D-02 -0.438155D-01 -0.154428D-02  0.103562D-01  0.213648D-02
     39 -0.704736D-03  0.149691D-01  0.802866D-02  0.224269D-01 -0.302877D-02
     40 -0.396970D-02 -0.229839D-01  0.791151D-02  0.287152D-02  0.938423D-02
     41  0.197239D-02 -0.655133D-03  0.417470D-02 -0.481212D-02 -0.543744D-02
     42 -0.557859D-02 -0.184517D-02  0.151060D-03  0.546919D-02 -0.737339D-02
     43 -0.720315D-01 -0.303975D-02 -0.301436D-03 -0.195051D-02 -0.458395D-02
     44 -0.272694D+00  0.469818D-02  0.217386D-02  0.543506D-02  0.621783D-02
     45  0.158039D+00  0.269711D-02  0.111530D-02  0.202551D-02  0.199806D-02
     46 -0.602909D+00  0.287399D-03 -0.482735D-02 -0.763865D-02 -0.753206D-03
     47  0.192903D+00 -0.771473D-03 -0.585282D-03  0.259488D-02 -0.275682D-02
     48 -0.430382D+01 -0.108528D-02  0.171495D-02  0.171149D-03  0.274778D-02
     49 -0.250107D-01  0.128790D-01  0.220536D-02 -0.128554D-01 -0.105249D-02
     50 -0.436063D-01  0.617306D-02 -0.514544D-02 -0.596048D-02 -0.107841D-02
     51 -0.261818D-02 -0.175373D-02 -0.636771D-03 -0.502706D-02  0.352047D-02
               26            27            28            29            30 
     26  0.424609D+01
     27  0.312329D+00  0.409379D+01
     28  0.144215D+00  0.105937D+00  0.363469D+01
     29  0.476434D-01 -0.621458D-01  0.875494D+00  0.184738D+01
     30 -0.484610D-01  0.677956D-01  0.115922D+00 -0.223655D+00  0.401647D+01
[...]
   yx         0.540626D+01      0.801126D+00      0.891372D+00
   yy         0.667780D+02      0.989548D+01      0.110102D+02
   zx         0.107082D+01      0.158679D+00      0.176554D+00
   zy        -0.872285D+01     -0.129259D+01     -0.143820D+01
   zz         0.766481D+02      0.113581D+02      0.126376D+02

 ----------------------------------------------------------------------

 Test job not archived.
 1\1\GINC-C0162\Freq\RM062X\CC-pVTZ\C5H10O2\HARMS.N\29-Sep-2019\0\\#P G
 eom=AllCheck Guess=TCheck SCRF=Check Test GenChk RM062X/CC-pVTZ Freq\\
 Gaussian input prepared by ASE\\0,1\O,2.3320304173,2.8584274851,0.1371
 256344\O,2.4207965545,1.006684107,2.5416092386\C,2.9528389872,3.539688
 2172,1.235683669\C,1.8985215068,4.0841431169,2.1819641286\C,3.78260528
 62,4.6405532532,0.609326591\C,1.683312119,1.6924936587,0.3546415803\C,
 1.6882533271,0.8547017159,1.3868830973\H,3.5997417735,2.8392938541,1.7
 637220887\H,1.2863220081,3.2808512736,2.5864496816\H,2.3761229644,4.60
 2603,3.0134539109\H,1.2565734503,4.7898158861,1.6529235475\H,3.1374012
 251,5.3196744526,0.0512785662\H,4.5190316286,4.2223754948,-0.074597351
 \H,4.3011667065,5.2075277245,1.3817260334\H,1.0858816807,1.4096171325,
 -0.5005162757\H,1.0825741948,-0.0375952118,1.3091264703\H,2.0672017903
 ,0.4226953022,3.214214148\\Version=EM64L-G16RevA.03\State=1-A\HF=-346.
 9424039\RMSD=2.881e-09\RMSF=6.954e-07\ZeroPoint=0.1472915\Thermal=0.15
 59755\Dipole=-0.2880679,-0.4146985,0.6286247\DipoleDeriv=-0.6093452,-0
 .8000646,0.0852777,-0.4773214,-1.4016922,0.1102978,-0.1117337,-0.20357
 16,-0.5697477,-0.3976671,0.2348137,-0.4903724,0.0083339,-0.4261754,-0.
 0144801,-0.2455226,0.3170746,-1.0535849,0.4865095,0.3186086,-0.0629835
 ,0.1826473,0.6491332,0.1518571,0.0990608,0.4571704,0.4357562,-0.057884
 4,-0.0107717,0.1531772,-0.0263129,-0.0107117,-0.0146008,0.0686871,-0.1
 117406,-0.0158713,0.0176174,-0.0839206,0.0487683,-0.0683651,-0.0207771
 ,0.0103668,0.0676846,0.018238,0.054157,0.1937336,0.6313377,-0.050086,0
 .4809173,1.0541571,-0.2274596,-0.0307669,-0.26135,0.1022875,0.0367811,
 -0.0749235,0.5260937,0.0534747,-0.09496,-0.0040509,0.3854414,-0.155345
 2,0.714517,-0.0422231,0.0191797,-0.0135164,0.0724324,-0.0515903,0.0319
 727,-0.0420956,-0.0599515,-0.0124999,-0.019422,-0.0599478,0.0517776,-0
 .0765404,0.0017756,0.0627002,0.0478896,0.04709,0.0314358,0.0217823,-0.
 0389385,-0.0862457,-0.0246293,0.0057835,-0.0729694,-0.0545151,-0.09326
 37,-0.0285471,0.0001399,0.0680337,-0.0186918,0.077098,-0.0155265,0.027
 4062,-0.0639047,0.0882563,0.0007867,-0.0218206,0.0923818,-0.0695035,0.
 0289826,-0.0078698,0.0492964,-0.0208284,0.0717788,0.0207681,-0.0274899
 ,0.0256213,0.081954,0.0517626,0.0284486,-0.0455915,0.1037135,-0.008927
 8,-0.013692,0.0269174,-0.0588991,-0.0377597,-0.0559974,-0.0074547,-0.0
 377375,-0.0751617,-0.0793474,-0.0419644,0.06176,-0.0803388,-0.0780248,
 -0.0734524,0.0062385,-0.0074722,-0.0755432,-0.0329836,0.0190158,0.0679
 491,-0.0820977,-0.0823892,-0.1007169,-0.02025,0.0074286,-0.0483507,0.0
 217409,0.0348185,0.2626621,-0.1000741,0.0425245,-0.0523131,0.3114711,-
 0.0269637,-0.0040542,-0.0148676,0.3223646\Polar=58.888295,8.6138995,76
 .1074813,-0.0257371,-6.0764435,67.3640269\Quadrupole=-1.6361333,2.3113
 736,-0.6752403,3.1369202,-0.1953225,-1.9724659\PG=C01 [X(C5H10O2)]\NIm
 ag=0\\0.21106903,0.21382739,0.43360191,0.06534016,0.01923987,0.3154645
 3,0.00792299,0.01714838,0.00201000,0.23081203,0.00476469,0.00501604,-0
 .00338946,0.18401330,0.28771830,0.01791376,0.01494701,0.00446215,0.021
 24180,-0.21958911,0.56322799,-0.08426917,-0.02405818,-0.03847369,-0.00
 691473,-0.00400402,-0.00200833,0.53970048,-0.02239069,-0.09315339,-0.0
 1760453,-0.00228323,-0.00398946,-0.00135513,-0.04836327,0.55571662,-0.
 05096773,-0.03767878,-0.16940537,-0.00550132,-0.00301713,-0.00720014,0
 .01255763,-0.07744627,0.50733245,0.01028406,-0.01316822,-0.01567596,-0
 .00016551,0.00202122,0.00217074,-0.14913419,0.03544654,0.05854707,0.53
 852843,0.00570828,-0.01329781,-0.02315647,0.00072077,-0.00101243,0.000
 80228,0.03293336,-0.09612865,-0.01981489,0.03266168,0.57188850,0.01130
 890,-0.02424239,-0.03380894,0.00083518,0.00103032,0.00102392,0.0492324
 8,-0.01854079,-0.11349308,0.04134310,-0.02560151,0.54741471,-0.0156192
 2,-0.02478338,0.00116682,0.00115119,0.00092874,-0.00023689,-0.11433868
 ,-0.04256980,0.02889750,-0.01846948,-0.01805510,0.01629092,0.56233544,
 -0.02001179,-0.02524580,-0.00011208,-0.00021195,-0.00030221,0.00080276
 ,-0.04607959,-0.14700739,0.04400435,0.00570386,0.01090616,-0.00145478,
 -0.03428468,0.53600514,-0.02337247,-0.03282205,0.00671164,0.00109807,0
 .00083389,0.00113067,0.03893308,0.05544679,-0.10562260,0.01560092,0.01
 725859,-0.01087222,0.01856273,0.03520935,0.57562558,-0.10991062,-0.116
 42470,-0.00477369,-0.00273680,0.01498492,-0.04048011,-0.02138942,-0.02
 087304,-0.00454298,0.00398985,0.00330536,0.00281818,-0.00115013,-0.001
 28470,-0.00232145,0.33074634,-0.12154633,-0.26037578,0.03224697,-0.009
 00675,0.01313968,-0.02120658,-0.01738548,-0.02900089,-0.01028986,0.003
 74840,0.00264356,0.00125297,-0.00013211,0.00022423,-0.00044633,0.20030
 084,0.61359922,0.01099542,0.05660147,-0.11230280,-0.00651550,0.0232148
 6,-0.03451966,-0.01304673,-0.02527313,0.00818915,-0.00268399,-0.002551
 30,-0.00065995,-0.00172718,-0.00199959,-0.00407169,0.17418461,-0.21095
 804,0.75326925,-0.00650585,-0.03765736,0.01793103,-0.12962791,-0.03754
 733,-0.13214494,0.00873190,0.00366373,0.01117137,-0.00152909,-0.000688
 52,-0.00147822,-0.00099645,-0.00026287,-0.00146448,-0.07104216,-0.0146
 5277,-0.02355209,0.32373335,-0.01642545,-0.03982612,0.03086173,-0.0537
 4660,-0.08325082,-0.01888148,0.00488906,0.00371879,0.00827363,-0.00022
 635,-0.00045182,-0.00102978,-0.00032848,-0.00015008,-0.00106046,-0.025
 25948,-0.26861517,0.21844899,0.21556649,0.63232750,-0.00772059,-0.0050
 3589,0.00438451,-0.09707008,0.01274415,-0.24689248,0.00556492,0.001857
 22,0.00917914,-0.00100257,-0.00003916,-0.00206318,-0.00115441,-0.00023
 868,-0.00158212,-0.00613356,0.23900512,-0.36936831,0.14636193,-0.24679
 244,0.70538126,-0.01314107,0.00047428,-0.01695727,0.00122642,0.0000692
 3,0.00118820,-0.14121605,0.10054617,-0.06877695,-0.01444793,0.01734755
 ,-0.00893196,0.01235117,-0.01359738,0.01065444,0.00204958,0.00371005,-
 0.00076124,-0.00225595,-0.00123224,-0.00186734,0.15602810,-0.01804842,
 0.00937660,-0.01752949,-0.00241267,-0.00485149,0.00398031,0.10764926,-
 0.16682468,0.08503747,0.00739571,-0.00696231,0.00517702,0.01275985,-0.
 01570809,0.01152827,0.00117154,0.00497225,-0.00097344,0.00030513,-0.00
 006494,-0.00077021,-0.10637056,0.18113706,-0.02453795,0.00730603,-0.02
 540716,0.00130813,0.00251197,-0.00054211,-0.07153914,0.07792683,-0.105
 68977,0.01398008,-0.01402658,0.01097344,-0.00560165,0.00999463,-0.0054
 5381,0.00202525,0.00346196,0.00006433,-0.00075150,-0.00126746,0.000382
 35,0.08101677,-0.08594769,0.12658979,0.00157264,0.00056895,-0.00128939
 ,-0.00016278,-0.00100612,-0.00156768,-0.01428362,-0.01965870,0.0070341
 6,-0.13208265,-0.11212114,0.05645844,-0.00271808,0.00332762,0.00288517
 ,-0.00026491,-0.00064705,0.00003932,0.00099074,0.00048678,0.00171179,0
 .00056681,-0.00030590,-0.00046095,0.14240168,-0.00058447,0.00032615,0.
 00131655,0.00049354,-0.00159496,-0.00006520,0.00724920,0.01056392,-0.0
 0458871,-0.11595299,-0.19969389,0.07655377,0.00150133,-0.00057587,-0.0
 0174296,0.00017813,0.00009857,-0.00004276,0.00040304,-0.00233492,-0.00
 145167,-0.00058933,0.00058857,0.00059825,0.12456737,0.21695714,-0.0011
 7113,0.00024806,0.00170791,-0.00034495,0.00069880,-0.00079715,0.011534
 24,0.01699631,-0.00879351,0.05582608,0.07493721,-0.08362585,0.00269859
 ,-0.00286456,-0.00236830,0.00005296,0.00010872,-0.00117399,0.00026279,
 -0.00118048,0.00081466,-0.00074476,-0.00019826,0.00046736,-0.06409940,
 -0.08155512,0.08876696,-0.00132158,0.00414185,0.00604322,-0.00016582,-
 0.00016980,-0.00007657,0.01158693,0.00926378,0.01547782,-0.10058825,-0
 .05682601,-0.09228431,0.00045432,-0.00027235,-0.00034027,-0.00083590,-
 0.00146497,0.00077714,0.00035859,0.00030164,-0.00035993,0.00067467,-0.
 00011484,-0.00111887,-0.00811923,-0.00684080,-0.01422363,0.10626479,0.
 00123447,-0.00152183,-0.00281129,0.00046878,-0.00015643,0.00077571,-0.
 00747705,-0.00651456,-0.00691669,-0.05577188,-0.10690146,-0.09808661,-
 0.00052818,-0.00000158,0.00034163,0.00079694,0.00109366,-0.00010831,-0
 .00036403,0.00029085,-0.00044227,0.00005645,0.00000843,0.00042634,-0.0
 0931239,-0.01072717,-0.01899438,0.06197093,0.11280008,0.00270311,-0.00
 473760,-0.00380372,0.00048830,-0.00009707,0.00046976,-0.01260817,-0.00
 696666,-0.01377939,-0.09006008,-0.09755985,-0.20245696,-0.00100976,0.0
 0011160,0.00041431,0.00124823,0.00242505,-0.00055686,-0.00066913,-0.00
 031104,0.00000637,0.00026402,-0.00007438,0.00074150,0.00541467,0.00570
 510,0.01063600,0.09872420,0.10863804,0.21931628,0.00243194,-0.00162489
 ,-0.00013954,0.00024189,-0.00037244,-0.00050711,-0.01793084,0.01660106
 ,-0.01340530,-0.13715852,0.09935049,-0.07583183,0.00095472,0.00061926,
 -0.00145033,-0.00018524,-0.00010958,0.00013628,-0.00001434,-0.00015164
 ,0.00023685,-0.00238670,0.00119312,0.00405790,0.01229323,-0.01114693,0
 .00942824,-0.00825269,0.00879682,-0.00542045,0.14973748,-0.00098025,0.
 00138633,0.00044480,-0.00013473,-0.00096061,-0.00084485,0.00882301,-0.
 00982552,0.00633512,0.09951082,-0.15857686,0.08574788,-0.00124558,0.00
 053849,0.00007450,-0.00041899,-0.00070745,0.00010516,0.00064741,0.0003
 2435,0.00100697,0.00148255,0.00008427,-0.00187140,0.01488809,-0.013938
 08,0.01076518,-0.01001142,0.01145394,-0.00751919,-0.11239118,0.1695524
 4,-0.00042277,0.00187128,0.00217180,-0.00012298,0.00024554,0.00039464,
 0.01409628,-0.01463695,0.00937656,-0.07798369,0.08642868,-0.11237312,-
 0.00039227,-0.00101859,0.00125203,-0.00033194,-0.00025492,0.00010085,0
 .00001915,0.00012527,-0.00024515,0.00323386,-0.00168214,-0.00224478,-0
 .00676531,0.00559758,-0.00608560,-0.01278493,0.01677170,-0.01130397,0.
 08192943,-0.09362517,0.11900331,0.00128745,0.00195180,0.00049821,-0.00
 021639,-0.00024619,-0.00000049,0.01073317,-0.01253033,0.01032753,0.001
 78731,-0.00066798,-0.00010436,-0.14466814,0.10113123,-0.08236883,-0.00
 008644,-0.00022226,0.00019992,0.00020584,0.00012006,0.00020017,-0.0014
 9222,-0.00296330,0.00137375,0.00008602,0.00003187,-0.00015291,-0.00003
 155,0.00010698,0.00007811,-0.00015043,0.00013275,-0.00027470,0.1541922
 4,0.00090597,0.00250635,-0.00041242,-0.00047147,-0.00035834,-0.0000821
 1,0.01598341,-0.01899197,0.01499872,0.00103731,0.00074812,-0.00139488,
 0.09938511,-0.14815761,0.08317145,-0.00026781,-0.00002607,-0.00025224,
 0.00053436,0.00035551,0.00051558,-0.00373964,-0.00241229,0.00135398,-0
 .00011958,0.00006592,-0.00033397,-0.00010520,0.00003796,-0.00008245,-0
 .00066619,0.00070828,0.00026127,-0.10809945,0.16137904,0.00038343,-0.0
 0116958,0.00099946,0.00017487,0.00019705,-0.00018040,-0.00989648,0.009
 81982,-0.00972653,-0.00129296,-0.00003992,0.00024852,-0.08064513,0.083
 97524,-0.11644551,0.00002105,-0.00040350,0.00014194,-0.00015209,-0.000
 06803,-0.00018714,0.00227687,0.00162664,-0.00001065,0.00016922,-0.0002
 6529,0.00027190,0.00003251,0.00007816,-0.00005386,0.00080506,-0.000133
 66,-0.00013622,0.08807414,-0.09542772,0.12435985,0.00164725,0.00120210
 ,-0.00055670,-0.00015065,-0.00015090,-0.00032646,-0.01339893,0.0081597
 9,0.01098983,-0.00132062,-0.00396769,0.00098436,-0.17128305,0.07253873
 ,0.11421773,-0.00011403,-0.00047798,-0.00014368,0.00033414,0.00025492,
 0.00026499,0.00082750,-0.00024075,-0.00052727,-0.00055510,0.00044055,0
 .00102570,0.00017449,0.00016664,0.00013963,0.00047712,-0.00020293,-0.0
 0018722,-0.01252339,0.00658387,0.01225919,0.18366525,0.00188626,0.0018
 2970,0.00027554,-0.00004372,-0.00002950,-0.00024027,-0.01883262,0.0101
 4377,0.01667780,-0.00256064,-0.00382306,0.00115903,0.07474114,-0.09033
 224,-0.06848984,-0.00009692,-0.00032790,0.00014550,0.00014015,0.000174
 29,0.00015478,0.00079254,0.00123328,-0.00038476,-0.00121863,0.00060680
 ,0.00093524,0.00016343,-0.00009380,0.00009290,-0.00029396,0.00000345,-
 0.00009196,0.01192973,-0.00789716,-0.01313047,-0.07823651,0.09529890,-
 0.00123821,-0.00027026,0.00097387,-0.00006744,0.00010168,0.00002056,0.
 00896124,-0.00717222,-0.01055669,0.00116037,0.00327778,-0.00049246,0.1
 1509304,-0.06599604,-0.15363890,-0.00017112,0.00008723,0.00012880,-0.0
 0005274,-0.00003354,0.00000611,-0.00042175,-0.00016284,0.00002332,0.00
 095515,-0.00047599,-0.00027350,-0.00022355,0.00013055,0.00039470,0.000
 12299,-0.00012626,0.00007260,-0.01187044,0.00655500,0.01172693,-0.1277
 8513,0.07156847,0.16498245,-0.00231264,-0.00487375,0.00138265,0.000218
 34,0.00007951,0.00036682,-0.00793650,-0.00455875,-0.01429057,0.0003887
 2,0.00042643,-0.00060642,-0.10809520,-0.06698709,-0.09017187,0.0002728
 5,0.00029894,-0.00072713,-0.00039727,-0.00024041,-0.00031299,0.0005482
 4,0.00009982,0.00023628,0.00027571,0.00014289,0.00013469,-0.00029465,-
 0.00010131,0.00079870,-0.00008608,-0.00005613,-0.00004365,-0.00910669,
 -0.01085799,-0.01226778,0.01233032,0.01163241,0.01545868,0.11432015,-0
 .00451542,-0.00612860,0.00196211,0.00035852,0.00009702,0.00057728,-0.0
 0783350,-0.00927205,-0.01957796,0.00056535,0.00057447,-0.00073821,-0.0
 6716029,-0.11938780,-0.09801108,-0.00043016,0.00111928,-0.00112254,-0.
 00046445,-0.00031036,-0.00046968,0.00093371,0.00025886,0.00006449,0.00
 031735,-0.00007592,0.00017637,-0.00011066,0.00040811,0.00042000,0.0000
 0967,-0.00000030,0.00015400,0.00933759,0.01217627,0.01480392,-0.006129
 60,-0.00688214,-0.00744234,0.07526408,0.12787001,0.00224377,0.00291166
 ,0.00015185,-0.00001772,-0.00005392,0.00004259,0.00620721,0.00563621,0
 .00928025,-0.00005713,-0.00012996,-0.00003314,-0.09237125,-0.10042958,
 -0.18544154,0.00063429,0.00053020,0.00093519,-0.00003746,-0.00008419,0
 .00001153,-0.00072206,-0.00051850,0.00042302,-0.00014703,0.00004598,0.
 00026914,0.00045504,0.00026162,-0.00000712,0.00002404,-0.00013828,0.00
 000642,-0.00591445,-0.00872302,-0.01109348,-0.01038149,-0.00869168,-0.
 01334638,0.09998678,0.10915979,0.19884411,-0.01080193,-0.01360363,-0.0
 1385014,0.00693262,-0.00287775,-0.00132736,0.00135730,0.00009688,0.003
 62746,-0.00019191,-0.00019524,-0.00028578,-0.00017654,-0.00033051,-0.0
 0068775,-0.12633792,-0.04341617,-0.13259482,0.00034409,0.00025836,-0.0
 0027921,-0.00001281,0.00012720,0.00006071,0.00007430,-0.00008191,-0.00
 008661,0.00010025,-0.00006536,-0.00007851,0.00004823,0.00006214,0.0000
 1032,0.00002355,-0.00002081,0.00001151,-0.00003252,0.00001777,0.000013
 47,-0.00013041,-0.00019950,0.00010731,0.13122180,-0.02286781,-0.019696
 34,-0.02601220,-0.00436705,-0.00045267,0.00426356,-0.00236091,-0.00042
 472,0.00421591,-0.00021729,0.00005900,0.00005407,-0.00060806,-0.000510
 73,-0.00136263,-0.04223345,-0.06078313,-0.05010993,0.01159335,0.006312
 54,0.01433117,-0.00040939,-0.00033256,-0.00041894,0.00013876,0.0000322
 9,-0.00003607,0.00010935,-0.00004980,-0.00008744,0.00005929,-0.0000743
 2,-0.00000331,0.00008262,-0.00002816,0.00005012,0.00001008,0.00005767,
 0.00001569,-0.00024082,-0.00041779,0.00023974,0.05864570,0.07720738,0.
 00328358,0.00028984,0.00868981,-0.00016853,0.00498597,0.00010693,0.000
 68808,0.00172987,0.00130959,0.00001268,0.00014596,0.00020563,0.0001059
 1,0.00007561,0.00005538,-0.13457216,-0.05170623,-0.24160772,-0.0142667
 0,-0.00922330,-0.01582931,0.00005960,0.00004082,-0.00008659,-0.0000917
 1,0.00011061,0.00005095,-0.00001134,0.00001582,-0.00000865,-0.00002429
 ,-0.00009209,0.00002372,-0.00001952,-0.00000019,0.00001304,0.00002538,
 0.00000925,0.00000039,0.00000928,0.00002727,-0.00001416,0.14428803,0.0
 5367536,0.24826413,0.00781929,-0.00264703,-0.00298716,-0.01049366,-0.0
 1312152,-0.00916074,-0.00038032,-0.00038502,-0.00070445,-0.00003448,-0
 .00013289,0.00015600,0.00009829,0.00003012,0.00011970,-0.00054082,0.00
 180435,-0.00120626,-0.12576286,-0.14253058,-0.01414983,0.00026094,0.00
 016303,0.00013360,-0.00008404,0.00007630,-0.00002852,0.00003214,0.0000
 5600,-0.00001876,-0.00003201,-0.00006670,0.00002814,-0.00000706,-0.000
 02102,0.00000577,-0.00005195,-0.00001707,0.00003168,-0.00000361,0.0000
 6993,0.00001001,-0.00303105,0.00249543,0.00194107,0.13181889,-0.002628
 60,0.00293047,0.00476497,0.00026185,0.00285287,-0.00213573,0.00039279,
 0.00106159,0.00056501,0.00003320,0.00009718,-0.00005100,-0.00003974,-0
 .00008300,-0.00016102,-0.01107850,-0.01556172,-0.00376520,-0.14348731,
 -0.24972746,-0.00458204,-0.00000413,-0.00000603,-0.00017401,-0.0001059
 7,0.00005241,0.00001812,-0.00001189,-0.00004520,-0.00000601,0.00003074
 ,-0.00002398,0.00001160,0.00001058,0.00001514,0.00002006,0.00003730,0.
 00002203,-0.00001150,-0.00003053,-0.00007127,-0.00001513,0.00245515,-0
 .00132215,-0.00048874,0.15446100,0.25833307,-0.00398166,0.00424316,-0.
 00126798,-0.02241876,-0.02432386,-0.01153243,-0.00072827,-0.00042946,-
 0.00131058,0.00017899,0.00013485,0.00012264,0.00018626,0.00008694,0.00
 029432,0.01507023,0.01980769,0.00428322,-0.01436603,-0.00377866,-0.051
 65581,0.00023184,0.00000052,-0.00010503,-0.00017110,0.00002176,-0.0000
 6322,-0.00003962,0.00006489,0.00006166,0.00001751,-0.00006196,0.000008
 55,-0.00002233,-0.00008465,0.00002981,-0.00002076,-0.00001579,-0.00001
 695,0.00008821,0.00007005,-0.00000875,0.00209824,-0.00021146,-0.000987
 86,0.02514934,0.00659744,0.05932774,-0.00015258,-0.00047361,0.00033144
 ,-0.09787123,-0.14736556,0.14495538,-0.00091735,-0.00016513,-0.0004410
 6,0.00014426,0.00020068,0.00009534,0.00016984,-0.00002792,0.00010559,-
 0.00246421,-0.00080111,-0.00337405,0.00343324,0.01826392,-0.02429014,0
 .00041929,-0.00040822,0.00034485,0.00000927,0.00011220,-0.00011138,-0.
 00003648,-0.00003381,0.00000589,0.00001226,-0.00003885,-0.00000770,-0.
 00003325,-0.00006085,0.00004082,-0.00002584,-0.00000336,0.00003376,0.0
 0000873,-0.00001262,-0.00001986,0.00061294,0.00017021,-0.00125936,0.00
 039230,-0.00029595,-0.00127212,0.09629881,0.00167219,0.00227211,-0.000
 08460,-0.13078697,-0.21186499,0.23825158,-0.00152548,-0.00007142,-0.00
 077772,-0.00022673,-0.00006870,0.00016491,0.00041922,-0.00021161,0.000
 23190,-0.00236998,-0.00149234,-0.00135950,0.00227096,0.00122785,-0.009
 79294,0.00053017,-0.00049693,0.00044636,0.00020056,-0.00035095,0.00027
 882,-0.00002302,-0.00008120,0.00004897,0.00009636,0.00005558,-0.000153
 90,-0.00010570,-0.00012098,0.00006716,0.00001238,0.00001592,-0.0000454
 2,0.00000272,0.00004221,-0.00000095,-0.00087232,0.00042350,0.00040414,
 -0.00023432,0.00147606,-0.00212147,0.13093996,0.20924588,-0.00075963,-
 0.00170185,0.00027845,0.10507093,0.20390632,-0.26921483,0.00052562,0.0
 0001209,0.00091055,-0.00006366,-0.00006571,-0.00010995,0.00013677,-0.0
 0014660,0.00001278,-0.00272777,-0.00366045,-0.00285175,0.01318911,0.02
 600121,-0.03234243,0.00025773,0.00046590,-0.00012522,-0.00007535,0.000
 23811,0.00019625,-0.00004691,-0.00014490,-0.00007004,0.00002057,-0.000
 06674,-0.00002164,-0.00002379,-0.00006235,0.00004234,0.00002190,0.0000
 2624,-0.00000485,-0.00004168,-0.00005346,-0.00001952,-0.00102688,0.001
 39635,-0.00018526,0.00068043,-0.00058683,0.00282068,-0.11513739,-0.225
 55734,0.30068446\\0.00000062,-0.00000007,-0.00000046,-0.00000115,0.000
 00026,-0.00000020,0.00000037,0.00000004,0.00000071,-0.00000027,0.00000
 016,-0.00000040,0.00000100,-0.00000034,0.00000062,0.00000015,-0.000000
 55,0.00000053,-0.00000071,0.00000077,-0.00000100,-0.00000038,-0.000000
 35,0.00000071,-0.00000062,0.00000042,-0.00000072,-0.00000056,0.0000000
 6,-0.00000018,0.00000041,0.00000034,-0.00000076,0.00000153,-0.00000034
 ,0.00000032,0.00000121,-0.00000067,0.00000123,0.00000056,-0.00000062,0
 .00000092,0.00000077,0.00000035,-0.00000073,-0.00000091,0.00000046,-0.
 00000074,-0.00000202,0.00000009,0.00000014\\\@


 TIME GOES, YOU SAY?  AH NO!
 ALAS, TIME STAYS, WE GO.
    -- A. DOBSON (1840-1921)
 Job cpu time:       0 days  2 hours 59 minutes 53.2 seconds.
 Elapsed time:       0 days  1 hours 29 minutes 57.5 seconds.
 File lengths (MBytes):  RWF=   1392 Int=      0 D2E=      0 Chk=     32 Scr=     32
 Normal termination of Gaussian 16 at Sun Sep 29 05:16:14 2019.
