 Entering Gaussian System, Link 0=g16
 Input=verytight/species/CC(C)OC=CO/conformers/CC(C)OC=CO_12.com
 Output=verytight/species/CC(C)OC=CO/conformers/CC(C)OC=CO_12.log
 Initial command:
 /shared/centos7/gaussian/g16/l1.exe "/scratch/harms.n/gauss_scrdir/Gau-36380.inp" -scrdir="/scratch/harms.n/gauss_scrdir/"
 Entering Link 1 = /shared/centos7/gaussian/g16/l1.exe PID=     36381.
  
 Copyright (c) 1988,1990,1992,1993,1995,1998,2003,2009,2016,
            Gaussian, Inc.  All Rights Reserved.
  
 This is part of the Gaussian(R) 16 program.  It is based on
 the Gaussian(R) 09 system (copyright 2009, Gaussian, Inc.),
 the Gaussian(R) 03 system (copyright 2003, Gaussian, Inc.),
 the Gaussian(R) 98 system (copyright 1998, Gaussian, Inc.),
 the Gaussian(R) 94 system (copyright 1995, Gaussian, Inc.),
 the Gaussian 92(TM) system (copyright 1992, Gaussian, Inc.),
 the Gaussian 90(TM) system (copyright 1990, Gaussian, Inc.),
 the Gaussian 88(TM) system (copyright 1988, Gaussian, Inc.),
 the Gaussian 86(TM) system (copyright 1986, Carnegie Mellon
 University), and the Gaussian 82(TM) system (copyright 1983,
 Carnegie Mellon University). Gaussian is a federally registered
 trademark of Gaussian, Inc.
  
 This software contains proprietary and confidential information,
 including trade secrets, belonging to Gaussian, Inc.
  
 This software is provided under written license and may be
 used, copied, transmitted, or stored only in accord with that
 written license.
  
 The following legend is applicable only to US Government
 contracts under FAR:
  
                    RESTRICTED RIGHTS LEGEND
  
 Use, reproduction and disclosure by the US Government is
 subject to restrictions as set forth in subparagraphs (a)
 and (c) of the Commercial Computer Software - Restricted
 Rights clause in FAR 52.227-19.
  
 Gaussian, Inc.
 340 Quinnipiac St., Bldg. 40, Wallingford CT 06492
  
  
 ---------------------------------------------------------------
 Warning -- This program may not be used in any manner that
 competes with the business of Gaussian, Inc. or will provide
 assistance to any competitor of Gaussian, Inc.  The licensee
 of this program is prohibited from giving any competitor of
 Gaussian, Inc. access to this program.  By using this program,
 the user acknowledges that Gaussian, Inc. is engaged in the
 business of creating and licensing software in the field of
 computational chemistry and represents and warrants to the
 licensee that it is not a competitor of Gaussian, Inc. and that
 it will not use this program in any manner prohibited above.
 ---------------------------------------------------------------
  

 Cite this work as:
 Gaussian 16, Revision A.03,
 M. J. Frisch, G. W. Trucks, H. B. Schlegel, G. E. Scuseria, 
 M. A. Robb, J. R. Cheeseman, G. Scalmani, V. Barone, 
 G. A. Petersson, H. Nakatsuji, X. Li, M. Caricato, A. V. Marenich, 
 J. Bloino, B. G. Janesko, R. Gomperts, B. Mennucci, H. P. Hratchian, 
 J. V. Ortiz, A. F. Izmaylov, J. L. Sonnenberg, D. Williams-Young, 
 F. Ding, F. Lipparini, F. Egidi, J. Goings, B. Peng, A. Petrone, 
 T. Henderson, D. Ranasinghe, V. G. Zakrzewski, J. Gao, N. Rega, 
 G. Zheng, W. Liang, M. Hada, M. Ehara, K. Toyota, R. Fukuda, 
 J. Hasegawa, M. Ishida, T. Nakajima, Y. Honda, O. Kitao, H. Nakai, 
 T. Vreven, K. Throssell, J. A. Montgomery, Jr., J. E. Peralta, 
 F. Ogliaro, M. J. Bearpark, J. J. Heyd, E. N. Brothers, K. N. Kudin, 
 V. N. Staroverov, T. A. Keith, R. Kobayashi, J. Normand, 
 K. Raghavachari, A. P. Rendell, J. C. Burant, S. S. Iyengar, 
 J. Tomasi, M. Cossi, J. M. Millam, M. Klene, C. Adamo, R. Cammi, 
 J. W. Ochterski, R. L. Martin, K. Morokuma, O. Farkas, 
 J. B. Foresman, and D. J. Fox, Gaussian, Inc., Wallingford CT, 2016.
 
 ******************************************
 Gaussian 16:  EM64L-G16RevA.03 25-Dec-2016
                28-Sep-2019 
 ******************************************
 %nprocshared=20
 Will use up to   20 processors via shared memory.
 %mem=5GB
 ----------------------------------------------------------------------
 #p m062x/cc-pVTZ opt=(calcfc,maxcycles=900,Tight) freq IOP(7/33=1,2/16
 =3) scf=(maxcycle=900)
 ----------------------------------------------------------------------
 1/6=900,7=10,10=4,18=20,19=15,26=3,38=1/1,3;
 2/9=110,12=2,16=3,17=6,18=5,40=1/2;
 3/5=16,6=1,11=2,25=1,30=1,71=2,74=-55,140=1/1,2,3;
 4//1;
 5/5=2,7=900,38=5/2;
 8/6=4,10=90,11=11/1;
 11/6=1,8=1,9=11,15=111,16=1/1,2,10;
 10/6=1,13=1/2;
 6/7=2,8=2,9=2,10=2,28=1/1;
 7/10=1,18=20,25=1,33=1/1,2,3,16;
 1/6=900,7=10,10=4,18=20,19=15,26=3/3(2);
 2/9=110,16=3/2;
 99//99;
 2/9=110,16=3/2;
 3/5=16,6=1,11=2,25=1,30=1,71=1,74=-55/1,2,3;
 4/5=5,16=3,69=1/1;
 5/5=2,7=900,38=5/2;
 7/33=1/1,2,3,16;
 1/6=900,7=10,18=20,19=15,26=3/3(-5);
 2/9=110,16=3/2;
 6/7=2,8=2,9=2,10=2,19=2,28=1/1;
 99/9=1/99;
 Leave Link    1 at Sat Sep 28 07:27:20 2019, MaxMem=   671088640 cpu:               4.2 elap:               2.1
 (Enter /shared/centos7/gaussian/g16/l101.exe)
 ------------------------------
 Gaussian input prepared by ASE
 ------------------------------
 Symbolic Z-matrix:
 Charge =  0 Multiplicity = 1
 O                     3.19018   1.54407   0.63251 
 O                     0.76054  -1.19906   0.81748 
 C                     2.45135   2.40815  -0.20497 
 C                     2.43132   1.91487  -1.65179 
 C                     2.99233   3.79531  -0.09004 
 C                     2.56102   0.34495   0.87777 
 C                     1.35002   0.02219   0.52655 
 H                     1.38613   2.41636   0.15777 
 H                     2.03024   0.88136  -1.70851 
 H                     1.79516   2.56804  -2.27641 
 H                     3.46584   1.91084  -2.09039 
 H                     4.06583   3.85125  -0.43813 
 H                     2.95638   4.15095   0.96081 
 H                     2.39102   4.51029  -0.71996 
 H                     3.20799  -0.33964   1.44918 
 H                     0.68782   0.67401  -0.02395 
 H                     1.42868  -1.72842   1.34204 
 
 ITRead=  0  0  0  0  0  0  0  0  0  0  0  0  0  0  0  0  0
 MicOpt= -1 -1 -1 -1 -1 -1 -1 -1 -1 -1 -1 -1 -1 -1 -1 -1 -1
 NAtoms=     17 NQM=       17 NQMF=       0 NMMI=      0 NMMIF=      0
                NMic=       0 NMicF=      0.
                    Isotopes and Nuclear Properties:
 (Nuclear quadrupole moments (NQMom) in fm**2, nuclear magnetic moments (NMagM)
  in nuclear magnetons)

  Atom         1           2           3           4           5           6           7           8           9          10
 IAtWgt=          16          16          12          12          12          12          12           1           1           1
 AtmWgt=  15.9949146  15.9949146  12.0000000  12.0000000  12.0000000  12.0000000  12.0000000   1.0078250   1.0078250   1.0078250
 NucSpn=           0           0           0           0           0           0           0           1           1           1
 AtZEff=  -0.0000000  -0.0000000  -0.0000000  -0.0000000  -0.0000000  -0.0000000  -0.0000000  -0.0000000  -0.0000000  -0.0000000
 NQMom=    0.0000000   0.0000000   0.0000000   0.0000000   0.0000000   0.0000000   0.0000000   0.0000000   0.0000000   0.0000000
 NMagM=    0.0000000   0.0000000   0.0000000   0.0000000   0.0000000   0.0000000   0.0000000   2.7928460   2.7928460   2.7928460
 AtZNuc=   8.0000000   8.0000000   6.0000000   6.0000000   6.0000000   6.0000000   6.0000000   1.0000000   1.0000000   1.0000000

  Atom        11          12          13          14          15          16          17
 IAtWgt=           1           1           1           1           1           1           1
 AtmWgt=   1.0078250   1.0078250   1.0078250   1.0078250   1.0078250   1.0078250   1.0078250
 NucSpn=           1           1           1           1           1           1           1
 AtZEff=  -0.0000000  -0.0000000  -0.0000000  -0.0000000  -0.0000000  -0.0000000  -0.0000000
 NQMom=    0.0000000   0.0000000   0.0000000   0.0000000   0.0000000   0.0000000   0.0000000
 NMagM=    2.7928460   2.7928460   2.7928460   2.7928460   2.7928460   2.7928460   2.7928460
 AtZNuc=   1.0000000   1.0000000   1.0000000   1.0000000   1.0000000   1.0000000   1.0000000
 Leave Link  101 at Sat Sep 28 07:27:23 2019, MaxMem=   671088640 cpu:               5.8 elap:               2.9
 (Enter /shared/centos7/gaussian/g16/l103.exe)

 GradGradGradGradGradGradGradGradGradGradGradGradGradGradGradGradGradGrad
 Berny optimization.
 Initialization pass.
                           ----------------------------
                           !    Initial Parameters    !
                           ! (Angstroms and Degrees)  !
 --------------------------                            --------------------------
 ! Name  Definition              Value          Derivative Info.                !
 --------------------------------------------------------------------------------
 ! R1    R(1,3)                  1.412          calculate D2E/DX2 analytically  !
 ! R2    R(1,6)                  1.3762         calculate D2E/DX2 analytically  !
 ! R3    R(2,7)                  1.3869         calculate D2E/DX2 analytically  !
 ! R4    R(2,17)                 1.0009         calculate D2E/DX2 analytically  !
 ! R5    R(3,4)                  1.5287         calculate D2E/DX2 analytically  !
 ! R6    R(3,5)                  1.4933         calculate D2E/DX2 analytically  !
 ! R7    R(3,8)                  1.1253         calculate D2E/DX2 analytically  !
 ! R8    R(4,9)                  1.1101         calculate D2E/DX2 analytically  !
 ! R9    R(4,10)                 1.1052         calculate D2E/DX2 analytically  !
 ! R10   R(4,11)                 1.1237         calculate D2E/DX2 analytically  !
 ! R11   R(5,12)                 1.1299         calculate D2E/DX2 analytically  !
 ! R12   R(5,13)                 1.11           calculate D2E/DX2 analytically  !
 ! R13   R(5,14)                 1.1267         calculate D2E/DX2 analytically  !
 ! R14   R(6,7)                  1.3016         calculate D2E/DX2 analytically  !
 ! R15   R(6,15)                 1.1017         calculate D2E/DX2 analytically  !
 ! R16   R(7,16)                 1.08           calculate D2E/DX2 analytically  !
 ! A1    A(3,1,6)              113.5589         calculate D2E/DX2 analytically  !
 ! A2    A(7,2,17)             106.9731         calculate D2E/DX2 analytically  !
 ! A3    A(1,3,4)              111.7601         calculate D2E/DX2 analytically  !
 ! A4    A(1,3,5)              109.4649         calculate D2E/DX2 analytically  !
 ! A5    A(1,3,8)              107.973          calculate D2E/DX2 analytically  !
 ! A6    A(4,3,5)              112.1677         calculate D2E/DX2 analytically  !
 ! A7    A(4,3,8)              107.1588         calculate D2E/DX2 analytically  !
 ! A8    A(5,3,8)              108.1394         calculate D2E/DX2 analytically  !
 ! A9    A(3,4,9)              110.7027         calculate D2E/DX2 analytically  !
 ! A10   A(3,4,10)             110.5927         calculate D2E/DX2 analytically  !
 ! A11   A(3,4,11)             111.0083         calculate D2E/DX2 analytically  !
 ! A12   A(9,4,10)             108.2642         calculate D2E/DX2 analytically  !
 ! A13   A(9,4,11)             108.0212         calculate D2E/DX2 analytically  !
 ! A14   A(10,4,11)            108.1469         calculate D2E/DX2 analytically  !
 ! A15   A(3,5,12)             111.4971         calculate D2E/DX2 analytically  !
 ! A16   A(3,5,13)             111.0233         calculate D2E/DX2 analytically  !
 ! A17   A(3,5,14)             110.6756         calculate D2E/DX2 analytically  !
 ! A18   A(12,5,13)            107.8528         calculate D2E/DX2 analytically  !
 ! A19   A(12,5,14)            107.6606         calculate D2E/DX2 analytically  !
 ! A20   A(13,5,14)            107.9796         calculate D2E/DX2 analytically  !
 ! A21   A(1,6,7)              126.395          calculate D2E/DX2 analytically  !
 ! A22   A(1,6,15)             111.4323         calculate D2E/DX2 analytically  !
 ! A23   A(7,6,15)             122.1582         calculate D2E/DX2 analytically  !
 ! A24   A(2,7,6)              123.8624         calculate D2E/DX2 analytically  !
 ! A25   A(2,7,16)             112.1945         calculate D2E/DX2 analytically  !
 ! A26   A(6,7,16)             123.943          calculate D2E/DX2 analytically  !
 ! D1    D(6,1,3,4)            -71.7466         calculate D2E/DX2 analytically  !
 ! D2    D(6,1,3,5)            163.3656         calculate D2E/DX2 analytically  !
 ! D3    D(6,1,3,8)             45.8627         calculate D2E/DX2 analytically  !
 ! D4    D(3,1,6,7)             -7.0435         calculate D2E/DX2 analytically  !
 ! D5    D(3,1,6,15)           174.3295         calculate D2E/DX2 analytically  !
 ! D6    D(17,2,7,6)             1.2208         calculate D2E/DX2 analytically  !
 ! D7    D(17,2,7,16)         -178.7261         calculate D2E/DX2 analytically  !
 ! D8    D(1,3,4,9)             56.347          calculate D2E/DX2 analytically  !
 ! D9    D(1,3,4,10)           176.3402         calculate D2E/DX2 analytically  !
 ! D10   D(1,3,4,11)           -63.6137         calculate D2E/DX2 analytically  !
 ! D11   D(5,3,4,9)            179.7186         calculate D2E/DX2 analytically  !
 ! D12   D(5,3,4,10)           -60.2883         calculate D2E/DX2 analytically  !
 ! D13   D(5,3,4,11)            59.7578         calculate D2E/DX2 analytically  !
 ! D14   D(8,3,4,9)            -61.7501         calculate D2E/DX2 analytically  !
 ! D15   D(8,3,4,10)            58.2431         calculate D2E/DX2 analytically  !
 ! D16   D(8,3,4,11)           178.2891         calculate D2E/DX2 analytically  !
 ! D17   D(1,3,5,12)            62.4162         calculate D2E/DX2 analytically  !
 ! D18   D(1,3,5,13)           -57.8725         calculate D2E/DX2 analytically  !
 ! D19   D(1,3,5,14)          -177.773          calculate D2E/DX2 analytically  !
 ! D20   D(4,3,5,12)           -62.2348         calculate D2E/DX2 analytically  !
 ! D21   D(4,3,5,13)           177.4764         calculate D2E/DX2 analytically  !
 ! D22   D(4,3,5,14)            57.576          calculate D2E/DX2 analytically  !
 ! D23   D(8,3,5,12)           179.8147         calculate D2E/DX2 analytically  !
 ! D24   D(8,3,5,13)            59.526          calculate D2E/DX2 analytically  !
 ! D25   D(8,3,5,14)           -60.3745         calculate D2E/DX2 analytically  !
 ! D26   D(1,6,7,2)           -179.1125         calculate D2E/DX2 analytically  !
 ! D27   D(1,6,7,16)             0.8282         calculate D2E/DX2 analytically  !
 ! D28   D(15,6,7,2)            -0.6223         calculate D2E/DX2 analytically  !
 ! D29   D(15,6,7,16)          179.3184         calculate D2E/DX2 analytically  !
 --------------------------------------------------------------------------------
 Trust Radius=3.00D-01 FncErr=1.00D-07 GrdErr=1.00D-06 EigMax=2.50D+02 EigMin=1.00D-04
 Number of steps in this run=    102 maximum allowed number of steps=    102.
 GradGradGradGradGradGradGradGradGradGradGradGradGradGradGradGradGradGrad

 Leave Link  103 at Sat Sep 28 07:27:24 2019, MaxMem=   671088640 cpu:               1.4 elap:               0.7
 (Enter /shared/centos7/gaussian/g16/l202.exe)
                          Input orientation:                          
 ---------------------------------------------------------------------
 Center     Atomic      Atomic             Coordinates (Angstroms)
 Number     Number       Type             X           Y           Z
 ---------------------------------------------------------------------
      1          8           0        3.190184    1.544074    0.632510
      2          8           0        0.760545   -1.199062    0.817484
      3          6           0        2.451354    2.408152   -0.204973
      4          6           0        2.431315    1.914868   -1.651791
      5          6           0        2.992331    3.795309   -0.090043
      6          6           0        2.561022    0.344951    0.877775
      7          6           0        1.350021    0.022194    0.526554
      8          1           0        1.386133    2.416359    0.157770
      9          1           0        2.030243    0.881362   -1.708508
     10          1           0        1.795157    2.568044   -2.276410
     11          1           0        3.465841    1.910844   -2.090393
     12          1           0        4.065825    3.851250   -0.438134
     13          1           0        2.956375    4.150952    0.960814
     14          1           0        2.391022    4.510286   -0.719961
     15          1           0        3.207992   -0.339635    1.449184
     16          1           0        0.687821    0.674008   -0.023948
     17          1           0        1.428679   -1.728418    1.342043
 ---------------------------------------------------------------------
                    Distance matrix (angstroms):
                    1          2          3          4          5
     1  O    0.000000
     2  O    3.669081   0.000000
     3  C    1.412047   4.112936   0.000000
     4  C    2.435446   4.311073   1.528729   0.000000
     5  C    2.372611   5.545107   1.493342   2.507958   0.000000
     6  C    1.376189   2.372621   2.332631   2.979961   3.609386
     7  C    2.390302   1.386935   2.727794   3.081655   4.160982
     8  H    2.059335   3.727982   1.125320   2.149049   2.131382
     9  H    2.695369   3.510118   2.183813   1.110050   3.469313
    10  H    3.384735   4.983341   2.178764   1.105209   2.778418
    11  H    2.761287   5.044391   2.198023   1.123668   2.788695
    12  H    2.689997   6.164990   2.177938   2.809655   1.129905
    13  H    2.637852   5.784882   2.156724   3.478715   1.109989
    14  H    3.356523   6.133420   2.165137   2.757920   1.126748
    15  H    2.053201   2.669768   3.295311   3.911784   4.417408
    16  H    2.729427   2.054674   2.479934   2.688750   3.880420
    17  H    3.783588   1.000891   4.533247   4.820980   5.916708
                    6          7          8          9         10
     6  C    0.000000
     7  C    1.301558   0.000000
     8  H    2.487871   2.422671   0.000000
     9  H    2.694127   2.489251   2.500818   0.000000
    10  H    3.934155   3.812624   2.472963   1.795181   0.000000
    11  H    3.475735   3.859028   3.104025   1.807377   1.804910
    12  H    4.036109   4.792482   3.097542   3.818073   3.190896
    13  H    3.827380   4.451471   2.473732   4.321252   3.785980
    14  H    4.464490   4.772887   2.482890   3.778423   2.559276
    15  H    1.101697   2.105759   3.547172   3.584542   4.932621
    16  H    2.104819   1.080011   1.885855   2.163986   3.144384
    17  H    2.407614   1.932834   4.310857   4.059395   5.629129
                   11         12         13         14         15
    11  H    0.000000
    12  H    2.618228   0.000000
    13  H    3.819358   1.810457   0.000000
    14  H    3.128964   1.821735   1.809350   0.000000
    15  H    4.202350   4.675614   4.524068   5.375348   0.000000
    16  H    3.676595   4.655892   4.266759   4.254687   3.090122
    17  H    5.401469   6.423104   6.086557   6.640737   2.259680
                   16         17
    16  H    0.000000
    17  H    2.861197   0.000000
 Stoichiometry    C5H10O2
 Framework group  C1[X(C5H10O2)]
 Deg. of freedom    45
 Full point group                 C1      NOp   1
 Largest Abelian subgroup         C1      NOp   1
 Largest concise Abelian subgroup C1      NOp   1
                         Standard orientation:                         
 ---------------------------------------------------------------------
 Center     Atomic      Atomic             Coordinates (Angstroms)
 Number     Number       Type             X           Y           Z
 ---------------------------------------------------------------------
      1          8           0       -0.406878   -0.933766    0.460516
      2          8           0        2.961075    0.290100   -0.327649
      3          6           0       -1.143767    0.049089   -0.235808
      4          6           0       -1.125037    1.393171    0.492275
      5          6           0       -2.533243   -0.444735   -0.471525
      6          6           0        0.954575   -0.739550    0.409312
      7          6           0        1.581274    0.151873   -0.302493
      8          1           0       -0.653492    0.206662   -1.236382
      9          1           0       -0.082057    1.734576    0.659147
     10          1           0       -1.651070    2.163633   -0.100316
     11          1           0       -1.629966    1.316217    1.493152
     12          1           0       -3.078887   -0.625876    0.501175
     13          1           0       -2.525967   -1.397932   -1.040241
     14          1           0       -3.128182    0.308118   -1.062137
     15          1           0        1.488768   -1.464365    1.044148
     16          1           0        1.087731    0.868522   -0.942221
     17          1           0        3.336737   -0.419313    0.270176
 ---------------------------------------------------------------------
 Rotational constants (GHZ):           5.8784992           1.4002505           1.2616631
 Leave Link  202 at Sat Sep 28 07:27:26 2019, MaxMem=   671088640 cpu:               3.3 elap:               1.7
 (Enter /shared/centos7/gaussian/g16/l301.exe)
 Standard basis: CC-pVTZ (5D, 7F)
 Ernie: Thresh=  0.10000D-02 Tol=  0.10000D-05 Strict=F.
 Ernie:  21 primitive shells out of 262 were deleted.
 There are   395 symmetry adapted cartesian basis functions of A   symmetry.
 There are   350 symmetry adapted basis functions of A   symmetry.
   350 basis functions,   534 primitive gaussians,   395 cartesian basis functions
    28 alpha electrons       28 beta electrons
       nuclear repulsion energy       315.6832942924 Hartrees.
 IExCor= 4336 DFT=T Ex+Corr=M062X ExCW=0 ScaHFX=  0.540000
 ScaDFX=  1.000000  1.000000  1.000000  1.000000 ScalE2=  1.000000  1.000000
 IRadAn=      5 IRanWt=     -1 IRanGd=            0 ICorTp=0 IEmpDi=  4
 NAtoms=   17 NActive=   17 NUniq=   17 SFac= 1.00D+00 NAtFMM=   60 NAOKFM=F Big=F
 Integral buffers will be    131072 words long.
 Raffenetti 2 integral format.
 Two-electron integral symmetry is turned on.
 Leave Link  301 at Sat Sep 28 07:27:27 2019, MaxMem=   671088640 cpu:               2.8 elap:               1.4
 (Enter /shared/centos7/gaussian/g16/l302.exe)
 NPDir=0 NMtPBC=     1 NCelOv=     1 NCel=       1 NClECP=     1 NCelD=      1
         NCelK=      1 NCelE2=     1 NClLst=     1 CellRange=     0.0.
 One-electron integrals computed using PRISM.
 One-electron integral symmetry used in STVInt
 NBasis=   350 RedAO= T EigKep=  3.01D-04  NBF=   350
 NBsUse=   350 1.00D-06 EigRej= -1.00D+00 NBFU=   350
 Precomputing XC quadrature grid using
 IXCGrd= 4 IRadAn=           5 IRanWt=          -1 IRanGd=           0 AccXCQ= 0.00D+00.
 Generated NRdTot=       0 NPtTot=           0 NUsed=           0 NTot=          32
 NSgBfM=   395   395   395   395   395 MxSgAt=    17 MxSgA2=    17.
 Leave Link  302 at Sat Sep 28 07:28:23 2019, MaxMem=   671088640 cpu:             111.9 elap:              56.0
 (Enter /shared/centos7/gaussian/g16/l303.exe)
 DipDrv:  MaxL=1.
 Leave Link  303 at Sat Sep 28 07:28:27 2019, MaxMem=   671088640 cpu:               7.9 elap:               3.9
 (Enter /shared/centos7/gaussian/g16/l401.exe)
 ExpMin= 1.03D-01 ExpMax= 1.53D+04 ExpMxC= 5.22D+02 IAcc=3 IRadAn=         5 AccDes= 0.00D+00
 Harris functional with IExCor= 1009 and IRadAn=       5 diagonalized for initial guess.
 HarFok:  IExCor= 1009 AccDes= 0.00D+00 IRadAn=         5 IDoV= 1 UseB2=F ITyADJ=14
 ICtDFT=  3500011 ScaDFX=  1.000000  1.000000  1.000000  1.000000
 FoFCou: FMM=F IPFlag=           0 FMFlag=      100000 FMFlg1=           0
         NFxFlg=           0 DoJE=T BraDBF=F KetDBF=T FulRan=T
         wScrn=  0.000000 ICntrl=       500 IOpCl=  0 I1Cent=   200000004 NGrid=           0
         NMat0=    1 NMatS0=      1 NMatT0=    0 NMatD0=    1 NMtDS0=    0 NMtDT0=    0
 Petite list used in FoFCou.
 Harris En= -346.810089701660    
 JPrj=0 DoOrth=F DoCkMO=F.
 Leave Link  401 at Sat Sep 28 07:28:57 2019, MaxMem=   671088640 cpu:              60.5 elap:              30.3
 (Enter /shared/centos7/gaussian/g16/l502.exe)
 Integral symmetry usage will be decided dynamically.
 Closed shell SCF:
 Using DIIS extrapolation, IDIIS=  1040.
 NGot=   671088640 LenX=   670765141 LenY=   670608675
 Requested convergence on RMS density matrix=1.00D-08 within 900 cycles.
 Requested convergence on MAX density matrix=1.00D-06.
 Requested convergence on             energy=1.00D-06.
 No special actions if energy rises.
 Fock matrices will be formed incrementally for  20 cycles.
 Integral accuracy reduced to 1.0D-05 until final iterations.

 Cycle   1  Pass 0  IDiag  1:
 FoFJK:  IHMeth= 1 ICntrl=       0 DoSepK=F KAlg= 0 I1Cent=           0 FoldK=F
 IRaf= 950000000 NMat=       1 IRICut=       1 DoRegI=T DoRafI=F ISym2E= 0 IDoP0=0 IntGTp=1.
 FoFCou: FMM=F IPFlag=           0 FMFlag=      100000 FMFlg1=           0
         NFxFlg=           0 DoJE=F BraDBF=F KetDBF=F FulRan=T
         wScrn=  0.000000 ICntrl=         0 IOpCl=  0 I1Cent=           0 NGrid=           0
         NMat0=    1 NMatS0=      1 NMatT0=    0 NMatD0=    1 NMtDS0=    0 NMtDT0=    0
 Symmetry not used in FoFCou.
 E= -346.705775467708    
 DIIS: error= 2.90D-02 at cycle   1 NSaved=   1.
 NSaved= 1 IEnMin= 1 EnMin= -346.705775467708     IErMin= 1 ErrMin= 2.90D-02
 ErrMax= 2.90D-02  0.00D+00 EMaxC= 1.00D-01 BMatC= 2.82D-01 BMatP= 2.82D-01
 IDIUse=3 WtCom= 7.10D-01 WtEn= 2.90D-01
 Coeff-Com:  0.100D+01
 Coeff-En:   0.100D+01
 Coeff:      0.100D+01
 Gap=     0.349 Goal=   None    Shift=    0.000
 GapD=    0.349 DampG=1.000 DampE=0.500 DampFc=0.5000 IDamp=-1.
 Damping current iteration by 5.00D-01
 RMSDP=1.81D-03 MaxDP=7.36D-02              OVMax= 1.40D-01

 Cycle   2  Pass 0  IDiag  1:
 RMSU=  9.02D-04    CP:  9.98D-01
 E= -346.823457752791     Delta-E=       -0.117682285083 Rises=F Damp=T
 DIIS: error= 6.04D-03 at cycle   2 NSaved=   2.
 NSaved= 2 IEnMin= 2 EnMin= -346.823457752791     IErMin= 2 ErrMin= 6.04D-03
 ErrMax= 6.04D-03  0.00D+00 EMaxC= 1.00D-01 BMatC= 2.11D-02 BMatP= 2.82D-01
 IDIUse=3 WtCom= 9.40D-01 WtEn= 6.04D-02
 Coeff-Com: -0.137D+00 0.114D+01
 Coeff-En:   0.000D+00 0.100D+01
 Coeff:     -0.128D+00 0.113D+01
 Gap=     0.332 Goal=   None    Shift=    0.000
 RMSDP=4.11D-04 MaxDP=1.43D-02 DE=-1.18D-01 OVMax= 6.65D-02

 Cycle   3  Pass 0  IDiag  1:
 RMSU=  4.09D-04    CP:  1.00D+00  1.03D+00
 E= -346.928909992955     Delta-E=       -0.105452240165 Rises=F Damp=F
 DIIS: error= 2.25D-03 at cycle   3 NSaved=   3.
 NSaved= 3 IEnMin= 3 EnMin= -346.928909992955     IErMin= 3 ErrMin= 2.25D-03
 ErrMax= 2.25D-03  0.00D+00 EMaxC= 1.00D-01 BMatC= 3.18D-03 BMatP= 2.11D-02
 IDIUse=3 WtCom= 9.77D-01 WtEn= 2.25D-02
 Coeff-Com: -0.789D-01 0.295D+00 0.784D+00
 Coeff-En:   0.000D+00 0.000D+00 0.100D+01
 Coeff:     -0.772D-01 0.288D+00 0.789D+00
 Gap=     0.334 Goal=   None    Shift=    0.000
 RMSDP=1.17D-04 MaxDP=4.78D-03 DE=-1.05D-01 OVMax= 1.63D-02

 Cycle   4  Pass 0  IDiag  1:
 RMSU=  1.07D-04    CP:  1.00D+00  1.07D+00  9.31D-01
 E= -346.930484866091     Delta-E=       -0.001574873136 Rises=F Damp=F
 DIIS: error= 1.25D-03 at cycle   4 NSaved=   4.
 NSaved= 4 IEnMin= 4 EnMin= -346.930484866091     IErMin= 4 ErrMin= 1.25D-03
 ErrMax= 1.25D-03  0.00D+00 EMaxC= 1.00D-01 BMatC= 1.06D-03 BMatP= 3.18D-03
 IDIUse=3 WtCom= 9.88D-01 WtEn= 1.25D-02
 Coeff-Com: -0.276D-01 0.723D-01 0.408D+00 0.548D+00
 Coeff-En:   0.000D+00 0.000D+00 0.226D+00 0.774D+00
 Coeff:     -0.272D-01 0.714D-01 0.405D+00 0.551D+00
 Gap=     0.330 Goal=   None    Shift=    0.000
 RMSDP=5.53D-05 MaxDP=2.18D-03 DE=-1.57D-03 OVMax= 8.79D-03

 Cycle   5  Pass 0  IDiag  1:
 RMSU=  2.80D-05    CP:  1.00D+00  1.07D+00  9.60D-01  5.73D-01
 E= -346.931276478017     Delta-E=       -0.000791611926 Rises=F Damp=F
 DIIS: error= 2.35D-04 at cycle   5 NSaved=   5.
 NSaved= 5 IEnMin= 5 EnMin= -346.931276478017     IErMin= 5 ErrMin= 2.35D-04
 ErrMax= 2.35D-04  0.00D+00 EMaxC= 1.00D-01 BMatC= 2.64D-05 BMatP= 1.06D-03
 IDIUse=3 WtCom= 9.98D-01 WtEn= 2.35D-03
 Coeff-Com: -0.503D-02 0.103D-01 0.104D+00 0.206D+00 0.686D+00
 Coeff-En:   0.000D+00 0.000D+00 0.000D+00 0.000D+00 0.100D+01
 Coeff:     -0.502D-02 0.103D-01 0.103D+00 0.205D+00 0.686D+00
 Gap=     0.330 Goal=   None    Shift=    0.000
 RMSDP=1.41D-05 MaxDP=3.73D-04 DE=-7.92D-04 OVMax= 2.15D-03

 Cycle   6  Pass 0  IDiag  1:
 RMSU=  9.69D-06    CP:  1.00D+00  1.07D+00  9.70D-01  6.28D-01  7.85D-01
 E= -346.931296251266     Delta-E=       -0.000019773249 Rises=F Damp=F
 DIIS: error= 6.37D-05 at cycle   6 NSaved=   6.
 NSaved= 6 IEnMin= 6 EnMin= -346.931296251266     IErMin= 6 ErrMin= 6.37D-05
 ErrMax= 6.37D-05  0.00D+00 EMaxC= 1.00D-01 BMatC= 3.79D-06 BMatP= 2.64D-05
 IDIUse=1 WtCom= 1.00D+00 WtEn= 0.00D+00
 Coeff-Com: -0.129D-04-0.136D-02 0.168D-01 0.569D-01 0.328D+00 0.599D+00
 Coeff:     -0.129D-04-0.136D-02 0.168D-01 0.569D-01 0.328D+00 0.599D+00
 Gap=     0.330 Goal=   None    Shift=    0.000
 RMSDP=4.27D-06 MaxDP=1.60D-04 DE=-1.98D-05 OVMax= 6.45D-04

 Initial convergence to 1.0D-05 achieved.  Increase integral accuracy.
 Cycle   7  Pass 1  IDiag  1:
 E= -346.931288370231     Delta-E=        0.000007881035 Rises=F Damp=F
 DIIS: error= 2.79D-05 at cycle   1 NSaved=   1.
 NSaved= 1 IEnMin= 1 EnMin= -346.931288370231     IErMin= 1 ErrMin= 2.79D-05
 ErrMax= 2.79D-05  0.00D+00 EMaxC= 1.00D-01 BMatC= 6.82D-07 BMatP= 6.82D-07
 IDIUse=1 WtCom= 1.00D+00 WtEn= 0.00D+00
 Coeff-Com:  0.100D+01
 Coeff:      0.100D+01
 Gap=     0.330 Goal=   None    Shift=    0.000
 RMSDP=4.27D-06 MaxDP=1.60D-04 DE= 7.88D-06 OVMax= 3.14D-04

 Cycle   8  Pass 1  IDiag  1:
 RMSU=  7.75D-06    CP:  1.00D+00
 E= -346.931288521265     Delta-E=       -0.000000151035 Rises=F Damp=F
 DIIS: error= 2.36D-05 at cycle   2 NSaved=   2.
 NSaved= 2 IEnMin= 2 EnMin= -346.931288521265     IErMin= 2 ErrMin= 2.36D-05
 ErrMax= 2.36D-05  0.00D+00 EMaxC= 1.00D-01 BMatC= 3.69D-07 BMatP= 6.82D-07
 IDIUse=1 WtCom= 1.00D+00 WtEn= 0.00D+00
 Coeff-Com:  0.396D+00 0.604D+00
 Coeff:      0.396D+00 0.604D+00
 Gap=     0.330 Goal=   None    Shift=    0.000
 RMSDP=1.56D-06 MaxDP=5.65D-05 DE=-1.51D-07 OVMax= 2.44D-04

 Cycle   9  Pass 1  IDiag  1:
 RMSU=  1.53D-06    CP:  1.00D+00  9.66D-01
 E= -346.931288729975     Delta-E=       -0.000000208710 Rises=F Damp=F
 DIIS: error= 1.14D-05 at cycle   3 NSaved=   3.
 NSaved= 3 IEnMin= 3 EnMin= -346.931288729975     IErMin= 3 ErrMin= 1.14D-05
 ErrMax= 1.14D-05  0.00D+00 EMaxC= 1.00D-01 BMatC= 8.08D-08 BMatP= 3.69D-07
 IDIUse=1 WtCom= 1.00D+00 WtEn= 0.00D+00
 Coeff-Com: -0.161D-01 0.314D+00 0.702D+00
 Coeff:     -0.161D-01 0.314D+00 0.702D+00
 Gap=     0.330 Goal=   None    Shift=    0.000
 RMSDP=5.80D-07 MaxDP=1.98D-05 DE=-2.09D-07 OVMax= 9.47D-05

 Cycle  10  Pass 1  IDiag  1:
 RMSU=  2.53D-07    CP:  1.00D+00  9.99D-01  7.05D-01
 E= -346.931288790584     Delta-E=       -0.000000060609 Rises=F Damp=F
 DIIS: error= 1.28D-06 at cycle   4 NSaved=   4.
 NSaved= 4 IEnMin= 4 EnMin= -346.931288790584     IErMin= 4 ErrMin= 1.28D-06
 ErrMax= 1.28D-06  0.00D+00 EMaxC= 1.00D-01 BMatC= 1.17D-09 BMatP= 8.08D-08
 IDIUse=1 WtCom= 1.00D+00 WtEn= 0.00D+00
 Coeff-Com: -0.117D-01 0.111D+00 0.277D+00 0.624D+00
 Coeff:     -0.117D-01 0.111D+00 0.277D+00 0.624D+00
 Gap=     0.330 Goal=   None    Shift=    0.000
 RMSDP=7.58D-08 MaxDP=2.76D-06 DE=-6.06D-08 OVMax= 8.68D-06

 Cycle  11  Pass 1  IDiag  1:
 RMSU=  7.09D-08    CP:  1.00D+00  1.00D+00  7.23D-01  9.99D-01
 E= -346.931288791462     Delta-E=       -0.000000000877 Rises=F Damp=F
 DIIS: error= 5.13D-07 at cycle   5 NSaved=   5.
 NSaved= 5 IEnMin= 5 EnMin= -346.931288791462     IErMin= 5 ErrMin= 5.13D-07
 ErrMax= 5.13D-07  0.00D+00 EMaxC= 1.00D-01 BMatC= 1.73D-10 BMatP= 1.17D-09
 IDIUse=1 WtCom= 1.00D+00 WtEn= 0.00D+00
 Coeff-Com: -0.181D-02-0.152D-01-0.151D-01 0.249D+00 0.783D+00
 Coeff:     -0.181D-02-0.152D-01-0.151D-01 0.249D+00 0.783D+00
 Gap=     0.330 Goal=   None    Shift=    0.000
 RMSDP=3.48D-08 MaxDP=1.07D-06 DE=-8.77D-10 OVMax= 3.96D-06

 Cycle  12  Pass 1  IDiag  1:
 RMSU=  2.31D-08    CP:  1.00D+00  1.00D+00  7.25D-01  1.10D+00  9.77D-01
 E= -346.931288791605     Delta-E=       -0.000000000143 Rises=F Damp=F
 DIIS: error= 1.65D-07 at cycle   6 NSaved=   6.
 NSaved= 6 IEnMin= 6 EnMin= -346.931288791605     IErMin= 6 ErrMin= 1.65D-07
 ErrMax= 1.65D-07  0.00D+00 EMaxC= 1.00D-01 BMatC= 1.66D-11 BMatP= 1.73D-10
 IDIUse=1 WtCom= 1.00D+00 WtEn= 0.00D+00
 Coeff-Com:  0.642D-03-0.190D-01-0.364D-01 0.280D-01 0.308D+00 0.719D+00
 Coeff:      0.642D-03-0.190D-01-0.364D-01 0.280D-01 0.308D+00 0.719D+00
 Gap=     0.330 Goal=   None    Shift=    0.000
 RMSDP=1.13D-08 MaxDP=2.94D-07 DE=-1.43D-10 OVMax= 1.23D-06

 Cycle  13  Pass 1  IDiag  1:
 RMSU=  7.30D-09    CP:  1.00D+00  1.00D+00  7.27D-01  1.13D+00  1.03D+00
                    CP:  9.29D-01
 E= -346.931288791613     Delta-E=       -0.000000000008 Rises=F Damp=F
 DIIS: error= 4.43D-08 at cycle   7 NSaved=   7.
 NSaved= 7 IEnMin= 7 EnMin= -346.931288791613     IErMin= 7 ErrMin= 4.43D-08
 ErrMax= 4.43D-08  0.00D+00 EMaxC= 1.00D-01 BMatC= 8.98D-13 BMatP= 1.66D-11
 IDIUse=1 WtCom= 1.00D+00 WtEn= 0.00D+00
 Coeff-Com:  0.325D-03-0.560D-02-0.111D-01-0.603D-02 0.567D-01 0.246D+00
 Coeff-Com:  0.720D+00
 Coeff:      0.325D-03-0.560D-02-0.111D-01-0.603D-02 0.567D-01 0.246D+00
 Coeff:      0.720D+00
 Gap=     0.330 Goal=   None    Shift=    0.000
 RMSDP=2.53D-09 MaxDP=9.09D-08 DE=-8.19D-12 OVMax= 2.61D-07

 SCF Done:  E(RM062X) =  -346.931288792     A.U. after   13 cycles
            NFock= 13  Conv=0.25D-08     -V/T= 2.0063
 KE= 3.447543076487D+02 PE=-1.441245712662D+03 EE= 4.338768219296D+02
 Leave Link  502 at Sat Sep 28 07:39:18 2019, MaxMem=   671088640 cpu:            1240.7 elap:             620.5
 (Enter /shared/centos7/gaussian/g16/l801.exe)
 DoSCS=F DFT=T ScalE2(SS,OS)=  1.000000  1.000000
 Range of M.O.s used for correlation:     1   350
 NBasis=   350 NAE=    28 NBE=    28 NFC=     0 NFV=     0
 NROrb=    350 NOA=    28 NOB=    28 NVA=   322 NVB=   322

 **** Warning!!: The largest alpha MO coefficient is  0.12920771D+02

 Leave Link  801 at Sat Sep 28 07:39:19 2019, MaxMem=   671088640 cpu:               2.1 elap:               1.1
 (Enter /shared/centos7/gaussian/g16/l1101.exe)
 Using compressed storage, NAtomX=    17.
 Will process     18 centers per pass.
 Leave Link 1101 at Sat Sep 28 07:39:47 2019, MaxMem=   671088640 cpu:              55.3 elap:              27.7
 (Enter /shared/centos7/gaussian/g16/l1102.exe)
 Symmetrizing basis deriv contribution to polar:
 IMax=3 JMax=2 DiffMx= 0.00D+00
 Leave Link 1102 at Sat Sep 28 07:39:49 2019, MaxMem=   671088640 cpu:               5.2 elap:               2.6
 (Enter /shared/centos7/gaussian/g16/l1110.exe)
 Forming Gx(P) for the SCF density, NAtomX=    17.
 Integral derivatives from FoFJK, PRISM(SPDF).
 Do as many integral derivatives as possible in FoFJK.
 G2DrvN: MDV=     671087280.
 G2DrvN: will do    18 centers at a time, making    1 passes.
 Calling FoFCou, ICntrl=  3107 FMM=F I1Cent=   0 AccDes= 0.00D+00.
 FoFJK:  IHMeth= 1 ICntrl=    3107 DoSepK=F KAlg= 0 I1Cent=           0 FoldK=F
 IRaf=         0 NMat=       1 IRICut=       1 DoRegI=T DoRafI=F ISym2E= 0 IDoP0=0 IntGTp=1.
 FoFCou: FMM=F IPFlag=           0 FMFlag=      100000 FMFlg1=           0
         NFxFlg=           0 DoJE=F BraDBF=F KetDBF=F FulRan=T
         wScrn=  0.000000 ICntrl=      3107 IOpCl=  0 I1Cent=           0 NGrid=           0
         NMat0=    1 NMatS0=      1 NMatT0=    0 NMatD0=    1 NMtDS0=    0 NMtDT0=    0
 Symmetry not used in FoFCou.
 End of G2Drv F.D. properties file   721 does not exist.
 End of G2Drv F.D. properties file   722 does not exist.
 End of G2Drv F.D. properties file   788 does not exist.
 Leave Link 1110 at Sat Sep 28 07:57:28 2019, MaxMem=   671088640 cpu:            2117.1 elap:            1058.7
 (Enter /shared/centos7/gaussian/g16/l1002.exe)
 Minotr:  Closed shell wavefunction.
          IDoAtm=11111111111111111
          Direct CPHF calculation.
          Differentiating once with respect to nuclear coordinates.
          Requested convergence is 1.0D-08 RMS, and 1.0D-07 maximum.
          Secondary convergence is 1.0D-12 RMS, and 1.0D-12 maximum.
          NewPWx=T KeepS1=F KeepF1=F KeepIn=T MapXYZ=F SortEE=F KeepMc=T.
         5116 words used for storage of precomputed grid.
 Two-electron integrals replicated using symmetry.
          MDV=     671088640 using IRadAn=       1.
          Solving linear equations simultaneously, MaxMat=     380.
 FoF2E skips out because all densities are zero.
 CalDSu exits because no D1Ps are significant.
 FoFJK:  IHMeth= 1 ICntrl=       0 DoSepK=F KAlg= 0 I1Cent=           0 FoldK=F
 IRaf= 930000000 NMat=      51 IRICut=     127 DoRegI=T DoRafI=T ISym2E= 2 IDoP0=3 IntGTp=3.
 FoFCou: FMM=F IPFlag=           0 FMFlag=      100000 FMFlg1=           0
         NFxFlg=           0 DoJE=F BraDBF=F KetDBF=F FulRan=T
         wScrn=  0.000000 ICntrl=         0 IOpCl=  0 I1Cent=           0 NGrid=           0
         NMat0=   51 NMatS0=     51 NMatT0=    0 NMatD0=   51 NMtDS0=    0 NMtDT0=    0
 Integrals replicated using symmetry in FoFCou.
 Raff kept on since  90.70% of shell-pairs survive, threshold=   0.20 IRatSp=91.
          There are    54 degrees of freedom in the 1st order CPHF.  IDoFFX=6 NUNeed=     0.
     48 vectors produced by pass  0 Test12= 1.67D-14 1.85D-09 XBig12= 7.29D-02 5.76D-02.
 AX will form    48 AO Fock derivatives at one time.
     48 vectors produced by pass  1 Test12= 1.67D-14 1.85D-09 XBig12= 7.48D-03 3.60D-02.
     48 vectors produced by pass  2 Test12= 1.67D-14 1.85D-09 XBig12= 2.41D-04 2.61D-03.
     48 vectors produced by pass  3 Test12= 1.67D-14 1.85D-09 XBig12= 3.35D-06 2.41D-04.
     48 vectors produced by pass  4 Test12= 1.67D-14 1.85D-09 XBig12= 2.29D-08 1.35D-05.
     48 vectors produced by pass  5 Test12= 1.67D-14 1.85D-09 XBig12= 1.17D-10 1.15D-06.
     26 vectors produced by pass  6 Test12= 1.67D-14 1.85D-09 XBig12= 5.08D-13 7.95D-08.
      6 vectors produced by pass  7 Test12= 1.67D-14 1.85D-09 XBig12= 1.94D-15 5.29D-09.
 InvSVY:  IOpt=1 It=  1 EMax= 3.05D-16
 Solved reduced A of dimension   320 with    54 vectors.
 End of Minotr F.D. properties file   721 does not exist.
 End of Minotr F.D. properties file   722 does not exist.
 End of Minotr F.D. properties file   788 does not exist.
 Leave Link 1002 at Sat Sep 28 08:28:26 2019, MaxMem=   671088640 cpu:            3714.9 elap:            1857.7
 (Enter /shared/centos7/gaussian/g16/l601.exe)
 Copying SCF densities to generalized density rwf, IOpCl= 0 IROHF=0.

 **********************************************************************

            Population analysis using the SCF density.

 **********************************************************************

 Orbital symmetries:
       Occupied  (A) (A) (A) (A) (A) (A) (A) (A) (A) (A) (A) (A)
                 (A) (A) (A) (A) (A) (A) (A) (A) (A) (A) (A) (A)
                 (A) (A) (A) (A)
       Virtual   (A) (A) (A) (A) (A) (A) (A) (A) (A) (A) (A) (A)
                 (A) (A) (A) (A) (A) (A) (A) (A) (A) (A) (A) (A)
                 (A) (A) (A) (A) (A) (A) (A) (A) (A) (A) (A) (A)
                 (A) (A) (A) (A) (A) (A) (A) (A) (A) (A) (A) (A)
                 (A) (A) (A) (A) (A) (A) (A) (A) (A) (A) (A) (A)
                 (A) (A) (A) (A) (A) (A) (A) (A) (A) (A) (A) (A)
                 (A) (A) (A) (A) (A) (A) (A) (A) (A) (A) (A) (A)
                 (A) (A) (A) (A) (A) (A) (A) (A) (A) (A) (A) (A)
                 (A) (A) (A) (A) (A) (A) (A) (A) (A) (A) (A) (A)
                 (A) (A) (A) (A) (A) (A) (A) (A) (A) (A) (A) (A)
                 (A) (A) (A) (A) (A) (A) (A) (A) (A) (A) (A) (A)
                 (A) (A) (A) (A) (A) (A) (A) (A) (A) (A) (A) (A)
                 (A) (A) (A) (A) (A) (A) (A) (A) (A) (A) (A) (A)
                 (A) (A) (A) (A) (A) (A) (A) (A) (A) (A) (A) (A)
                 (A) (A) (A) (A) (A) (A) (A) (A) (A) (A) (A) (A)
                 (A) (A) (A) (A) (A) (A) (A) (A) (A) (A) (A) (A)
                 (A) (A) (A) (A) (A) (A) (A) (A) (A) (A) (A) (A)
                 (A) (A) (A) (A) (A) (A) (A) (A) (A) (A) (A) (A)
                 (A) (A) (A) (A) (A) (A) (A) (A) (A) (A) (A) (A)
                 (A) (A) (A) (A) (A) (A) (A) (A) (A) (A) (A) (A)
                 (A) (A) (A) (A) (A) (A) (A) (A) (A) (A) (A) (A)
                 (A) (A) (A) (A) (A) (A) (A) (A) (A) (A) (A) (A)
                 (A) (A) (A) (A) (A) (A) (A) (A) (A) (A) (A) (A)
                 (A) (A) (A) (A) (A) (A) (A) (A) (A) (A) (A) (A)
                 (A) (A) (A) (A) (A) (A) (A) (A) (A) (A) (A) (A)
                 (A) (A) (A) (A) (A) (A) (A) (A) (A) (A) (A) (A)
                 (A) (A) (A) (A) (A) (A) (A) (A) (A) (A)
 The electronic state is 1-A.
 Alpha  occ. eigenvalues --  -19.64923 -19.64796 -10.59803 -10.58352 -10.58181
 Alpha  occ. eigenvalues --  -10.53701 -10.53332  -1.18767  -1.16158  -0.89383
 Alpha  occ. eigenvalues --   -0.84205  -0.77971  -0.71640  -0.65823  -0.60882
 Alpha  occ. eigenvalues --   -0.58282  -0.53734  -0.50492  -0.49525  -0.48360
 Alpha  occ. eigenvalues --   -0.46563  -0.45120  -0.44559  -0.43442  -0.42183
 Alpha  occ. eigenvalues --   -0.39468  -0.37523  -0.27057
 Alpha virt. eigenvalues --    0.05983   0.06804   0.08012   0.09303   0.11275
 Alpha virt. eigenvalues --    0.11621   0.12460   0.14084   0.16294   0.17102
 Alpha virt. eigenvalues --    0.17806   0.19768   0.20418   0.22999   0.24755
 Alpha virt. eigenvalues --    0.25760   0.29912   0.30435   0.32679   0.32778
 Alpha virt. eigenvalues --    0.35336   0.35924   0.37741   0.39285   0.39965
 Alpha virt. eigenvalues --    0.41203   0.41743   0.43372   0.45308   0.46627
 Alpha virt. eigenvalues --    0.47315   0.48194   0.49197   0.49464   0.49905
 Alpha virt. eigenvalues --    0.50730   0.51164   0.52322   0.53686   0.55041
 Alpha virt. eigenvalues --    0.56176   0.58723   0.59920   0.63721   0.64227
 Alpha virt. eigenvalues --    0.65470   0.66291   0.68824   0.71366   0.72197
 Alpha virt. eigenvalues --    0.73541   0.76444   0.77393   0.77622   0.80306
 Alpha virt. eigenvalues --    0.81418   0.84729   0.86890   0.87396   0.89681
 Alpha virt. eigenvalues --    0.90368   0.93689   0.95950   0.96910   0.97598
 Alpha virt. eigenvalues --    0.98349   1.00706   1.04042   1.04971   1.05487
 Alpha virt. eigenvalues --    1.08072   1.08878   1.10130   1.12992   1.14867
 Alpha virt. eigenvalues --    1.16371   1.16897   1.18392   1.20533   1.21618
 Alpha virt. eigenvalues --    1.24571   1.25323   1.26173   1.27607   1.28099
 Alpha virt. eigenvalues --    1.29247   1.30342   1.33314   1.34042   1.34436
 Alpha virt. eigenvalues --    1.35554   1.37152   1.38641   1.41005   1.41376
 Alpha virt. eigenvalues --    1.44756   1.46406   1.49227   1.50809   1.51255
 Alpha virt. eigenvalues --    1.54489   1.57609   1.58137   1.59201   1.62515
 Alpha virt. eigenvalues --    1.64164   1.66243   1.71484   1.78840   1.80454
 Alpha virt. eigenvalues --    1.81920   1.90341   1.97204   1.98720   2.05575
 Alpha virt. eigenvalues --    2.08987   2.12289   2.17496   2.19165   2.24092
 Alpha virt. eigenvalues --    2.26299   2.28492   2.30631   2.31824   2.37098
 Alpha virt. eigenvalues --    2.39548   2.40303   2.42335   2.44504   2.47277
 Alpha virt. eigenvalues --    2.48501   2.51693   2.52993   2.53673   2.56553
 Alpha virt. eigenvalues --    2.57668   2.61302   2.63270   2.64559   2.68181
 Alpha virt. eigenvalues --    2.68590   2.71222   2.74544   2.78358   2.79181
 Alpha virt. eigenvalues --    2.80776   2.81855   2.82460   2.82784   2.84507
 Alpha virt. eigenvalues --    2.86778   2.87100   2.88590   2.90457   2.92079
 Alpha virt. eigenvalues --    2.93567   2.95511   2.97587   3.00934   3.02430
 Alpha virt. eigenvalues --    3.03368   3.03540   3.05281   3.06883   3.07906
 Alpha virt. eigenvalues --    3.09984   3.11364   3.11793   3.13202   3.14464
 Alpha virt. eigenvalues --    3.16824   3.18215   3.20623   3.21756   3.22842
 Alpha virt. eigenvalues --    3.23118   3.26833   3.27014   3.29127   3.29691
 Alpha virt. eigenvalues --    3.32037   3.33143   3.34385   3.36277   3.36591
 Alpha virt. eigenvalues --    3.37160   3.38927   3.39947   3.42338   3.43235
 Alpha virt. eigenvalues --    3.45109   3.45968   3.46810   3.49532   3.50891
 Alpha virt. eigenvalues --    3.54022   3.55057   3.57724   3.58474   3.62522
 Alpha virt. eigenvalues --    3.63177   3.63816   3.66644   3.69408   3.71791
 Alpha virt. eigenvalues --    3.72492   3.73852   3.75670   3.77711   3.78648
 Alpha virt. eigenvalues --    3.80262   3.82127   3.82714   3.85268   3.87382
 Alpha virt. eigenvalues --    3.88009   3.89576   3.90718   3.91779   3.93157
 Alpha virt. eigenvalues --    3.95437   3.96268   3.97552   4.00004   4.01249
 Alpha virt. eigenvalues --    4.01515   4.03600   4.05509   4.05929   4.06959
 Alpha virt. eigenvalues --    4.07729   4.10041   4.12473   4.12718   4.17230
 Alpha virt. eigenvalues --    4.18669   4.22138   4.23906   4.28829   4.30640
 Alpha virt. eigenvalues --    4.30854   4.32382   4.34890   4.39647   4.42675
 Alpha virt. eigenvalues --    4.46057   4.49695   4.51437   4.55089   4.57279
 Alpha virt. eigenvalues --    4.59477   4.61516   4.63725   4.66592   4.71076
 Alpha virt. eigenvalues --    4.72517   4.74107   4.76340   4.79456   4.81861
 Alpha virt. eigenvalues --    4.83294   4.86490   4.87062   4.88797   4.93224
 Alpha virt. eigenvalues --    4.96914   4.99240   5.01110   5.02992   5.05104
 Alpha virt. eigenvalues --    5.07565   5.08546   5.11669   5.18284   5.20725
 Alpha virt. eigenvalues --    5.21293   5.22739   5.23779   5.24233   5.28299
 Alpha virt. eigenvalues --    5.31868   5.33317   5.39675   5.44014   5.45223
 Alpha virt. eigenvalues --    5.51001   5.53395   5.62191   5.64924   5.73813
 Alpha virt. eigenvalues --    5.75755   5.76751   5.78816   5.81657   5.84193
 Alpha virt. eigenvalues --    5.93349   6.01097   6.05890   6.20814   6.32006
 Alpha virt. eigenvalues --    6.34753   6.47547   6.51891   6.58866   6.70628
 Alpha virt. eigenvalues --    6.76002   6.76756   6.78475   6.84816   6.96710
 Alpha virt. eigenvalues --    7.06134   7.14047   7.29284   7.32081   7.40429
 Alpha virt. eigenvalues --   10.48512  11.32130  11.67957  11.84897  13.16411
 Alpha virt. eigenvalues --   13.32795  14.24938
          Condensed to atoms (all electrons):
               1          2          3          4          5          6
     1  O    7.837960   0.003504   0.279631  -0.042758  -0.040679   0.367964
     2  O    0.003504   7.792785  -0.001024   0.000201  -0.000022  -0.072944
     3  C    0.279631  -0.001024   4.933972   0.329044   0.329969  -0.071561
     4  C   -0.042758   0.000201   0.329044   5.054885  -0.058240  -0.011867
     5  C   -0.040679  -0.000022   0.329969  -0.058240   4.947954   0.003728
     6  C    0.367964  -0.072944  -0.071561  -0.011867   0.003728   5.024142
     7  C   -0.074700   0.348502  -0.019188  -0.004386   0.002080   0.488586
     8  H   -0.049868  -0.000576   0.396339  -0.080945  -0.035789  -0.009882
     9  H   -0.002689   0.000452  -0.031572   0.406848   0.008001   0.001080
    10  H    0.004501   0.000007  -0.032019   0.393496  -0.007907   0.000732
    11  H    0.000776  -0.000016  -0.035044   0.388714  -0.006256   0.000579
    12  H    0.000598  -0.000000  -0.039207  -0.011263   0.401902  -0.000049
    13  H    0.002838  -0.000000  -0.036229   0.010026   0.399980  -0.000251
    14  H    0.003787  -0.000001  -0.046814  -0.000616   0.400360  -0.000072
    15  H   -0.034814  -0.003639   0.008538  -0.000287  -0.000378   0.431404
    16  H   -0.003447  -0.030986   0.005024  -0.004777   0.000452  -0.076583
    17  H    0.000219   0.328954   0.000206  -0.000039   0.000006  -0.006145
               7          8          9         10         11         12
     1  O   -0.074700  -0.049868  -0.002689   0.004501   0.000776   0.000598
     2  O    0.348502  -0.000576   0.000452   0.000007  -0.000016  -0.000000
     3  C   -0.019188   0.396339  -0.031572  -0.032019  -0.035044  -0.039207
     4  C   -0.004386  -0.080945   0.406848   0.393496   0.388714  -0.011263
     5  C    0.002080  -0.035789   0.008001  -0.007907  -0.006256   0.401902
     6  C    0.488586  -0.009882   0.001080   0.000732   0.000579  -0.000049
     7  C    4.989726   0.003270  -0.002232  -0.000822   0.001190   0.000023
     8  H    0.003270   0.676311  -0.008500   0.000823   0.008767   0.009624
     9  H   -0.002232  -0.008500   0.556491  -0.030860  -0.029150  -0.000178
    10  H   -0.000822   0.000823  -0.030860   0.577072  -0.030380   0.000347
    11  H    0.001190   0.008767  -0.029150  -0.030380   0.574530   0.004387
    12  H    0.000023   0.009624  -0.000178   0.000347   0.004387   0.580625
    13  H   -0.000031  -0.011097  -0.000378  -0.000333  -0.000249  -0.030517
    14  H   -0.000149  -0.004483   0.000080  -0.000427   0.000131  -0.032680
    15  H   -0.082149  -0.000467  -0.000025   0.000039  -0.000056  -0.000040
    16  H    0.427724  -0.002630  -0.005603   0.000924   0.000296  -0.000040
    17  H   -0.051370  -0.000172  -0.000095   0.000005  -0.000000  -0.000001
              13         14         15         16         17
     1  O    0.002838   0.003787  -0.034814  -0.003447   0.000219
     2  O   -0.000000  -0.000001  -0.003639  -0.030986   0.328954
     3  C   -0.036229  -0.046814   0.008538   0.005024   0.000206
     4  C    0.010026  -0.000616  -0.000287  -0.004777  -0.000039
     5  C    0.399980   0.400360  -0.000378   0.000452   0.000006
     6  C   -0.000251  -0.000072   0.431404  -0.076583  -0.006145
     7  C   -0.000031  -0.000149  -0.082149   0.427724  -0.051370
     8  H   -0.011097  -0.004483  -0.000467  -0.002630  -0.000172
     9  H   -0.000378   0.000080  -0.000025  -0.005603  -0.000095
    10  H   -0.000333  -0.000427   0.000039   0.000924   0.000005
    11  H   -0.000249   0.000131  -0.000056   0.000296  -0.000000
    12  H   -0.030517  -0.032680  -0.000040  -0.000040  -0.000001
    13  H    0.568619  -0.027254  -0.000021   0.000029   0.000000
    14  H   -0.027254   0.602243   0.000028   0.000113   0.000000
    15  H   -0.000021   0.000028   0.546038   0.002709   0.004338
    16  H    0.000029   0.000113   0.002709   0.513703   0.006742
    17  H    0.000000   0.000000   0.004338   0.006742   0.457547
 Mulliken charges:
               1
     1  O   -0.252824
     2  O   -0.365196
     3  C    0.029934
     4  C   -0.368035
     5  C   -0.345161
     6  C   -0.068863
     7  C   -0.026076
     8  H    0.109276
     9  H    0.138332
    10  H    0.124799
    11  H    0.121783
    12  H    0.116471
    13  H    0.124867
    14  H    0.105753
    15  H    0.128783
    16  H    0.166352
    17  H    0.259806
 Sum of Mulliken charges =  -0.00000
 Mulliken charges with hydrogens summed into heavy atoms:
               1
     1  O   -0.252824
     2  O   -0.105390
     3  C    0.139210
     4  C    0.016878
     5  C    0.001929
     6  C    0.059921
     7  C    0.140276
 APT charges:
               1
     1  O   -0.170154
     2  O   -0.495613
     3  C   -0.044971
     4  C   -1.058685
     5  C   -1.311662
     6  C   -0.450459
     7  C   -0.284152
     8  H    0.243725
     9  H    0.227882
    10  H    0.437994
    11  H    0.388899
    12  H    0.405374
    13  H    0.376485
    14  H    0.437816
    15  H    0.449720
    16  H    0.243474
    17  H    0.604327
 Sum of APT charges =  -0.00000
 APT charges with hydrogens summed into heavy atoms:
               1
     1  O   -0.170154
     2  O    0.108714
     3  C    0.198755
     4  C   -0.003910
     5  C   -0.091988
     6  C   -0.000739
     7  C   -0.040678
 Electronic spatial extent (au):  <R**2>=            978.7706
 Charge=             -0.0000 electrons
 Dipole moment (field-independent basis, Debye):
    X=             -0.4185    Y=             -0.0463    Z=              0.2197  Tot=              0.4750
 Quadrupole moment (field-independent basis, Debye-Ang):
   XX=            -42.5837   YY=            -44.6023   ZZ=            -44.2315
   XY=             -5.4423   XZ=              4.6524   YZ=             -1.2332
 Traceless Quadrupole moment (field-independent basis, Debye-Ang):
   XX=              1.2221   YY=             -0.7964   ZZ=             -0.4256
   XY=             -5.4423   XZ=              4.6524   YZ=             -1.2332
 Octapole moment (field-independent basis, Debye-Ang**2):
  XXX=             11.7440  YYY=             -2.5636  ZZZ=              0.8514  XYY=              5.5597
  XXY=            -16.2734  XXZ=             13.1898  XZZ=              2.3770  YZZ=             -0.7486
  YYZ=             -0.4749  XYZ=             -3.1097
 Hexadecapole moment (field-independent basis, Debye-Ang**3):
 XXXX=           -898.3203 YYYY=           -231.5903 ZZZZ=           -120.5657 XXXY=            -49.4410
 XXXZ=             40.8580 YYYX=             -0.1504 YYYZ=             -6.4866 ZZZX=             -3.5794
 ZZZY=             -4.6149 XXYY=           -188.5613 XXZZ=           -172.9634 YYZZ=            -56.3256
 XXYZ=             -8.2621 YYXZ=              5.3012 ZZXY=             -0.6179
 N-N= 3.156832942924D+02 E-N=-1.441245707050D+03  KE= 3.447543076487D+02
  Exact polarizability:   0.000   0.000   0.000   0.000   0.000   0.000
 Approx polarizability:  86.784   4.052  78.691  -3.650  -9.695  75.468
 No NMR shielding tensors so no spin-rotation constants.
 Leave Link  601 at Sat Sep 28 08:28:54 2019, MaxMem=   671088640 cpu:              56.4 elap:              28.2
 (Enter /shared/centos7/gaussian/g16/l701.exe)
 SCFChk:  SCF convergence  2.53D-09 required  1.00D-08
 ... and contract with generalized density number  0.
 Compute integral second derivatives.
 Entering OneElI...
 Calculate overlap and kinetic energy integrals
    NBasis = 395  MinDer = 2  MaxDer = 2
 Requested accuracy = 0.1000D-12
 PrmmSu-InSpLW:  IPartL=    0 NPrtUS=   20 NPrtUL=    1 DoSpLW=F IThBeg=    0 IThEnd=   19 NThAct=   20.
 PrsmSu:  NPrtUS=  20 ThrOK=T IAlg=1 NPAlg=1 LenDen=           0 ISkipM=0 DoSpLW=F IThBeg=    0 IThEnd=   19.
 Prism:   IPart=     0 DynPar=F LinDyn=F Incr=           4.
 PRISM was handed    33313183 working-precision words and  8399 shell-pairs
 PRISM was handed    33313183 working-precision words and  8399 shell-pairs
 PRISM was handed    33313183 working-precision words and  8399 shell-pairs
 PRISM was handed    33313183 working-precision words and  8399 shell-pairs
 PRISM was handed    33313183 working-precision words and  8399 shell-pairs
 PRISM was handed    33313183 working-precision words and  8399 shell-pairs
 PRISM was handed    33313183 working-precision words and  8399 shell-pairs
 PRISM was handed    33313183 working-precision words and  8399 shell-pairs
 PRISM was handed    33313183 working-precision words and  8399 shell-pairs
 PRISM was handed    33313183 working-precision words and  8399 shell-pairs
 PRISM was handed    33313183 working-precision words and  8399 shell-pairs
 PRISM was handed    33313183 working-precision words and  8399 shell-pairs
 IPart=  8 NShTot=         418 NBatch=          50 AvBLen=         8.4
 IPart=  0 NShTot=         468 NBatch=          85 AvBLen=         5.5
 PRISM was handed    33313183 working-precision words and  8399 shell-pairs
 IPart=  5 NShTot=         436 NBatch=          63 AvBLen=         6.9
 PRISM was handed    33313183 working-precision words and  8399 shell-pairs
 PRISM was handed    33313183 working-precision words and  8399 shell-pairs
 PRISM was handed    33313183 working-precision words and  8399 shell-pairs
 PRISM was handed    33313183 working-precision words and  8399 shell-pairs
 IPart= 15 NShTot=         399 NBatch=          39 AvBLen=        10.2
 PRISM was handed    33313183 working-precision words and  8399 shell-pairs
 PRISM was handed    33313183 working-precision words and  8399 shell-pairs
 PRISM was handed    33313183 working-precision words and  8399 shell-pairs
 IPart=  7 NShTot=         420 NBatch=          51 AvBLen=         8.2
 IPart= 18 NShTot=         393 NBatch=          36 AvBLen=        10.9
 IPart= 13 NShTot=         402 NBatch=          41 AvBLen=         9.8
 IPart=  1 NShTot=         464 NBatch=          83 AvBLen=         5.6
 IPart=  4 NShTot=         442 NBatch=          66 AvBLen=         6.7
 IPart= 12 NShTot=         406 NBatch=          42 AvBLen=         9.7
 IPart= 10 NShTot=         413 NBatch=          48 AvBLen=         8.6
 IPart= 17 NShTot=         394 NBatch=          37 AvBLen=        10.6
 IPart= 19 NShTot=         393 NBatch=          36 AvBLen=        10.9
 IPart= 16 NShTot=         395 NBatch=          38 AvBLen=        10.4
 IPart=  6 NShTot=         430 NBatch=          60 AvBLen=         7.2
 IPart=  9 NShTot=         417 NBatch=          50 AvBLen=         8.3
 IPart=  2 NShTot=         453 NBatch=          74 AvBLen=         6.1
 IPart= 11 NShTot=         410 NBatch=          46 AvBLen=         8.9
 IPart= 14 NShTot=         400 NBatch=          40 AvBLen=        10.0
 IPart=  3 NShTot=         446 NBatch=          69 AvBLen=         6.5
 PrSmSu:  NxtVal=             81.
 Entering OneElI...
 Calculate potential energy integrals
    NBasis = 395  MinDer = 2  MaxDer = 2
 Requested accuracy = 0.1000D-12
 PrmmSu-InSpLW:  IPartL=    0 NPrtUS=   20 NPrtUL=    1 DoSpLW=F IThBeg=    0 IThEnd=   19 NThAct=   20.
 PrsmSu:  NPrtUS=  20 ThrOK=T IAlg=1 NPAlg=1 LenDen=           0 ISkipM=0 DoSpLW=F IThBeg=    0 IThEnd=   19.
 Prism:   IPart=     0 DynPar=F LinDyn=F Incr=          65.
 PRISM was handed    33354927 working-precision words and  7667 shell-pairs
 PRISM was handed    33354927 working-precision words and  7667 shell-pairs
 PRISM was handed    33354927 working-precision words and  7667 shell-pairs
 PRISM was handed    33354927 working-precision words and  7667 shell-pairs
 PRISM was handed    33354927 working-precision words and  7667 shell-pairs
 PRISM was handed    33354927 working-precision words and  7667 shell-pairs
 PRISM was handed    33354927 working-precision words and  7667 shell-pairs
 PRISM was handed    33354927 working-precision words and  7667 shell-pairs
 PRISM was handed    33354927 working-precision words and  7667 shell-pairs
 PRISM was handed    33354927 working-precision words and  7667 shell-pairs
 PRISM was handed    33354927 working-precision words and  7667 shell-pairs
 PRISM was handed    33354927 working-precision words and  7667 shell-pairs
 PRISM was handed    33354927 working-precision words and  7667 shell-pairs
 PRISM was handed    33354927 working-precision words and  7667 shell-pairs
 PRISM was handed    33354927 working-precision words and  7667 shell-pairs
 PRISM was handed    33354927 working-precision words and  7667 shell-pairs
 PRISM was handed    33354927 working-precision words and  7667 shell-pairs
 PRISM was handed    33354927 working-precision words and  7667 shell-pairs
 PRISM was handed    33354927 working-precision words and  7667 shell-pairs
 PRISM was handed    33354927 working-precision words and  7667 shell-pairs
 IPart= 16 NShTot=        6239 NBatch=         367 AvBLen=        17.0
 IPart=  0 NShTot=        7106 NBatch=         418 AvBLen=        17.0
 IPart= 17 NShTot=        6154 NBatch=         362 AvBLen=        17.0
 IPart= 12 NShTot=        6341 NBatch=         373 AvBLen=        17.0
 IPart=  6 NShTot=        6698 NBatch=         394 AvBLen=        17.0
 IPart= 19 NShTot=        6086 NBatch=         358 AvBLen=        17.0
 IPart=  1 NShTot=        7072 NBatch=         416 AvBLen=        17.0
 IPart= 10 NShTot=        6426 NBatch=         378 AvBLen=        17.0
 IPart= 18 NShTot=        6137 NBatch=         361 AvBLen=        17.0
 IPart= 11 NShTot=        6375 NBatch=         375 AvBLen=        17.0
 IPart=  9 NShTot=        6443 NBatch=         379 AvBLen=        17.0
 IPart=  4 NShTot=        6800 NBatch=         400 AvBLen=        17.0
 IPart=  2 NShTot=        6987 NBatch=         411 AvBLen=        17.0
 IPart=  5 NShTot=        6749 NBatch=         397 AvBLen=        17.0
 IPart=  8 NShTot=        6477 NBatch=         381 AvBLen=        17.0
 IPart=  3 NShTot=        6868 NBatch=         404 AvBLen=        17.0
 IPart= 14 NShTot=        6307 NBatch=         371 AvBLen=        17.0
 IPart=  7 NShTot=        6494 NBatch=         382 AvBLen=        17.0
 IPart= 13 NShTot=        6307 NBatch=         371 AvBLen=        17.0
 IPart= 15 NShTot=        6273 NBatch=         369 AvBLen=        17.0
 PrSmSu:  NxtVal=           1301.
 Polarizability after L701:
                1             2             3 
      1  0.000000D+00
      2  0.000000D+00  0.000000D+00
      3  0.000000D+00  0.000000D+00  0.000000D+00
 Dipole Derivatives after L701:
                 1             2             3             4             5 
      1  -0.226269D+00  0.432791D-01 -0.160787D-01 -0.509201D+00  0.143501D+01
      2   0.243370D+00 -0.982379D-01 -0.898422D-01  0.258388D+00 -0.517666D+00
      3  -0.123042D+00 -0.937248D-01 -0.185954D+00 -0.220177D+00  0.614281D-01
                 6             7             8             9            10 
      1  -0.119789D+01  0.359732D+00  0.139510D+00 -0.243117D+00 -0.892447D+00
      2   0.109433D+00  0.659321D-01 -0.181865D-01  0.172575D+00  0.699969D-02
      3  -0.459973D+00  0.158390D+00  0.151228D+00 -0.476458D+00 -0.806967D-02
                11            12            13            14            15 
      1   0.569801D+00  0.328361D+00 -0.196529D+01 -0.414937D+00 -0.182607D+00
      2  -0.137496D+01 -0.200950D+00 -0.891353D-01 -0.955711D+00  0.301373D-02
      3  -0.242956D-01 -0.908644D+00 -0.187994D+00 -0.479963D-01 -0.101398D+01
                16            17            18            19            20 
      1  -0.636997D+00  0.675793D-01 -0.158537D+00 -0.257451D+00 -0.291422D+00
      2   0.159530D-01 -0.432366D+00  0.410188D+00 -0.938019D-01 -0.334690D+00
      3  -0.522671D-01  0.387293D+00 -0.282013D+00  0.109813D-01  0.360994D+00
                21            22            23            24            25 
      1   0.317979D+00  0.631514D-01 -0.388190D-01  0.212195D+00  0.177912D+00
      2   0.320303D+00  0.612777D-01  0.184644D+00 -0.283671D-01  0.638727D+00
      3  -0.260315D+00 -0.166210D+00 -0.886406D-01  0.483380D+00  0.241593D+00
                26            27            28            29            30 
      1  -0.970128D-02 -0.119757D-02  0.417671D+00 -0.477129D+00  0.319047D+00
      2   0.339489D+00  0.809659D-01 -0.403972D+00  0.723387D+00 -0.413084D+00
      3   0.943245D-01  0.166245D+00  0.580029D-01 -0.724691D-01  0.172925D+00
                31            32            33            34            35 
      1   0.384674D+00  0.139667D-02 -0.572449D+00  0.739740D+00  0.190585D+00
      2  -0.200233D+00  0.117420D+00  0.408032D+00  0.140996D+00  0.139551D+00
      3  -0.285579D+00 -0.114732D-01  0.664602D+00 -0.127455D+00 -0.404630D-01
                36            37            38            39            40 
      1  -0.969525D+00  0.163250D+00  0.799958D+00  0.495563D+00  0.763669D+00
      2  -0.203396D+00  0.180912D-01  0.623056D+00  0.322310D+00 -0.961184D-01
      3   0.336830D+00 -0.729332D-02  0.366546D+00  0.343149D+00  0.242581D+00
                41            42            43            44            45 
      1  -0.747373D+00  0.586933D+00  0.444930D+00 -0.426397D+00  0.361334D+00
      2   0.227664D+00 -0.105730D+00 -0.283372D+00  0.539731D+00 -0.400930D+00
      3  -0.293228D+00  0.322115D+00  0.202947D+00 -0.346131D+00  0.364498D+00
                46            47            48            49            50 
      1  -0.637680D-01  0.307624D+00 -0.275184D+00  0.103670D+01 -0.114897D+01
      2  -0.192382D+00  0.413239D+00 -0.258310D+00 -0.907203D-01  0.423639D+00
      3   0.204951D+00 -0.308327D+00  0.380951D+00  0.586428D-01 -0.950635D-01
                51 
      1   0.995170D+00
      2  -0.126210D+00
      3   0.352644D+00
 Hessian after L701:
                1             2             3             4             5 
      1  0.460950D+01
      2  0.185640D+01  0.137243D+02
      3 -0.203502D+01  0.257787D+01  0.169149D+02
      4  0.419789D+00  0.239310D+00 -0.155270D+00  0.360740D+01
      5  0.270110D+00 -0.129151D+00 -0.511936D-01  0.255238D+00  0.119665D+02
      6 -0.179891D+00 -0.521710D-01 -0.182500D+00 -0.746152D+00  0.222645D+01
      7 -0.536028D+01 -0.327279D+01  0.254920D+01  0.200245D+00  0.366992D-01
      8 -0.306883D+01 -0.481174D+01 -0.285922D+01  0.242466D-01 -0.106470D+00
      9  0.240105D+01 -0.286860D+01 -0.731837D+01 -0.328726D-01 -0.656508D-03
     10 -0.242893D+00 -0.117043D+00 -0.172470D+00  0.181688D+00 -0.704538D-01
     11 -0.969194D-01  0.617089D+00  0.329111D+00 -0.398004D-01 -0.879425D-01
     12 -0.131776D+00  0.235998D+00 -0.213169D+00 -0.411119D-01  0.147332D-01
     13  0.278914D+00 -0.820916D-01  0.217596D+00  0.687225D-01  0.222534D-01
     14 -0.124542D+00 -0.224011D+00 -0.255068D-01  0.122596D-01 -0.481680D-01
     15  0.231746D+00 -0.606991D-02 -0.115209D+00 -0.205642D-02 -0.524065D-03
     16  0.392792D+00  0.120325D+01 -0.171879D+00 -0.145345D+00  0.174478D+00
     17  0.940450D+00 -0.968040D+01 -0.830401D-01  0.683528D-01  0.191863D+00
     18 -0.566563D-01 -0.942394D-01 -0.982562D+01 -0.792730D-01  0.105955D+00
     19 -0.180735D+00  0.136469D+00 -0.201439D+00  0.609881D+00  0.929452D+00
     20  0.185678D+00  0.370438D+00  0.834003D-02  0.845812D+00 -0.830749D+01
     21 -0.189279D+00  0.161932D-01  0.366461D+00 -0.768243D-01 -0.612747D-01
     22  0.181793D+00  0.156646D+00 -0.163367D+00  0.999635D-02  0.165363D-01
     23  0.119316D+00 -0.200541D+00  0.225783D+00 -0.195687D-02 -0.195226D-01
     24 -0.136764D+00  0.287512D+00  0.367041D+00  0.388516D-01  0.955119D-02
     25 -0.269679D-01  0.574165D-01  0.776137D-02  0.426101D-02 -0.157781D-01
     26  0.153428D-02  0.836406D-01  0.441439D-01 -0.397183D-01 -0.115434D-01
     27  0.436033D-02  0.378687D-01 -0.321866D-01 -0.236228D-01  0.100350D-01
     28 -0.146420D-01 -0.808836D-01  0.251879D-01  0.217208D-01 -0.917395D-02
     29 -0.722483D-01  0.125601D+00 -0.591335D-01 -0.204054D-01 -0.359308D-02
     30  0.221800D-01 -0.564875D-01 -0.306025D-01  0.548836D-02 -0.925547D-03
     31 -0.245728D-01 -0.650846D-01 -0.193270D-01  0.193361D-01 -0.170836D-02
     32 -0.366094D-01  0.528670D-01  0.224146D-01 -0.551801D-02 -0.806150D-02
     33 -0.283322D-01  0.678438D-01 -0.232340D-01 -0.216344D-01 -0.865420D-04
     34  0.109510D+00 -0.204161D-01  0.355846D-01  0.156984D-01  0.684711D-02
     35 -0.807220D-02 -0.511473D-01 -0.416813D-02  0.380230D-02 -0.352721D-02
     36 -0.224633D-01  0.175922D-02 -0.491963D-01 -0.113489D-01 -0.475667D-02
     37  0.601785D-01 -0.722414D-03  0.557860D-01  0.105732D-01  0.664379D-02
     38  0.506738D-01 -0.553258D-01  0.310663D-01  0.157915D-01  0.311245D-02
     39  0.887126D-01  0.327398D-02 -0.199644D-01  0.937355D-02  0.564978D-02
     40  0.688825D-01 -0.833162D-01  0.762612D-01  0.157343D-01  0.271256D-02
     41 -0.742366D-01  0.376913D-02 -0.479674D-01 -0.697012D-02 -0.662340D-02
     42  0.717100D-01 -0.505260D-01  0.419211D-02  0.712119D-02  0.140368D-02
     43 -0.312943D+00  0.509899D-01 -0.331202D-01 -0.353410D-01  0.150898D-02
     44  0.257372D-01  0.161021D+00 -0.506973D-01  0.351926D-01  0.292894D-01
     45 -0.167726D-01 -0.430005D-01  0.161070D+00 -0.280796D-01 -0.602237D-01
     46 -0.190153D-01  0.111375D-01 -0.130031D-01 -0.234529D+00  0.503059D-01
     47  0.565044D-01  0.362650D-01 -0.593807D-01  0.203608D-01  0.119886D+00
     48 -0.496688D-01 -0.615949D-01  0.168017D-01 -0.724450D-01 -0.239144D-01
     49  0.606930D-01  0.107246D-01 -0.248531D-02 -0.476983D+01 -0.167567D+01
     50 -0.249435D-01 -0.227197D-01  0.158154D-02 -0.140600D+01 -0.357856D+01
     51  0.268614D-01  0.437082D-02 -0.203906D-01  0.122986D+01 -0.217022D+01
                6             7             8             9            10 
      6  0.128828D+02
      7 -0.233434D-01  0.174070D+02
      8  0.326222D-02  0.187177D+01  0.177848D+02
      9 -0.112324D+00 -0.216698D+01  0.142670D+01  0.207638D+02
     10 -0.782647D-01 -0.626727D+01 -0.136495D+00 -0.108572D+00  0.144782D+02
     11  0.101380D-01 -0.466022D-01 -0.223882D+01  0.188677D+01  0.211633D+00
     12 -0.950654D-01 -0.737600D-01  0.188002D+01 -0.534614D+01  0.267361D-01
     13 -0.181291D-02 -0.239184D+01  0.131108D+01  0.832074D+00  0.586890D-01
     14  0.168362D-02  0.128278D+01 -0.598604D+01  0.251921D+00  0.203227D+00
     15 -0.476832D-01  0.821522D+00  0.251371D+00 -0.622300D+01  0.109934D+00
     16 -0.179888D+00  0.351732D+00 -0.186644D+00  0.114845D+00  0.410052D-01
     17  0.976873D-01 -0.970581D-01  0.156706D-01  0.395595D-01 -0.228076D+00
     18  0.211232D+00  0.908950D-01 -0.355610D-02  0.139094D+00  0.128023D-01
     19 -0.144415D+00  0.133151D+00  0.531456D-01 -0.359034D-01  0.283618D+00
     20 -0.618419D-01  0.311739D-01 -0.157997D+00  0.268937D-01 -0.162487D+00
     21 -0.845727D+01  0.851895D-01  0.177583D-01 -0.122815D+00 -0.712015D-01
     22  0.187927D-01 -0.435771D+01  0.155619D+00 -0.966757D+00  0.248024D+00
     23  0.163631D-02  0.204825D+00 -0.464619D+01 -0.593795D+00  0.121825D+00
     24 -0.848458D-02 -0.117542D+01 -0.578140D+00 -0.204475D+01  0.181853D+00
     25 -0.756296D-02  0.546678D-01 -0.111064D-01 -0.411236D-01 -0.195333D+01
     26  0.163029D-01 -0.100002D+00  0.963251D-02 -0.669297D-01  0.109790D+01
     27 -0.171009D-01 -0.712742D-01 -0.465069D-01  0.397741D-02  0.492832D+00
     28 -0.302712D-02  0.127074D-01  0.733921D-01  0.198409D-01 -0.339994D+01
     29  0.307888D-02  0.114071D+00 -0.266786D-01  0.296117D-01 -0.915394D+00
     30 -0.991646D-02  0.207694D-01 -0.319773D-02  0.760552D-01  0.559308D+00
     31 -0.149092D-01  0.754153D-01  0.103934D-01 -0.765356D-02 -0.345188D+01
     32  0.263832D-02  0.270542D-01  0.278636D-01 -0.955100D-01 -0.433710D-01
     33  0.453311D-02 -0.479225D-02 -0.371515D-01  0.195973D-01 -0.101622D+01
     34 -0.607511D-02  0.412899D-02 -0.488901D-01  0.704558D-01 -0.154131D-01
     35 -0.109844D-02 -0.419702D-01  0.455389D-01  0.344419D-01 -0.907933D-02
     36 -0.210754D-03  0.637237D-02  0.142807D-01  0.904460D-01 -0.159178D-01
     37  0.298326D-03  0.324055D-01 -0.931520D-01 -0.171147D-01 -0.224488D-01
     38 -0.761960D-03 -0.344981D-01  0.860217D-02  0.264742D-01  0.727056D-01
     39 -0.648063D-02  0.160057D-02  0.445106D-02  0.783737D-01  0.408824D-01
     40  0.160660D-03 -0.429713D-01  0.104695D+00 -0.860527D-01  0.333860D-01
     41  0.614133D-03  0.590218D-01  0.108213D+00  0.469250D-02  0.432342D-02
     42 -0.534115D-02 -0.796971D-01  0.288599D-01  0.493592D-01  0.601801D-01
     43 -0.210646D-02  0.109273D+00 -0.102176D+00  0.816502D-01  0.126946D-01
     44 -0.605387D-01 -0.117322D+00  0.986001D-02 -0.528026D-01 -0.312951D-01
     45  0.689739D-02  0.999444D-01 -0.580002D-01 -0.103595D-01  0.124987D-01
     46 -0.959437D-01  0.970656D-02  0.438348D-01 -0.541965D-01 -0.357070D-02
     47 -0.223289D-01  0.102068D+00 -0.292075D-01 -0.521916D-01  0.233360D-01
     48  0.808756D-01 -0.971558D-01 -0.405610D-01 -0.322164D-01 -0.457898D-01
     49  0.146414D+01  0.296362D-01 -0.871617D-03 -0.269390D-02  0.194378D-01
     50 -0.216475D+01 -0.192152D-01 -0.701050D-02  0.341760D-02 -0.212554D-01
     51 -0.424392D+01  0.169267D-01 -0.372382D-03 -0.106852D-01  0.114122D-01
               11            12            13            14            15 
     11  0.123739D+02
     12 -0.121288D+01  0.156650D+02
     13  0.121311D+00  0.646637D-01  0.116821D+02
     14  0.341641D-01  0.758072D-01 -0.826877D+00  0.148901D+02
     15  0.756270D-01 -0.744664D-01 -0.997569D+00 -0.229350D+00  0.149635D+02
     16 -0.188792D+00  0.392316D-01  0.258184D+00 -0.541880D-01  0.116441D+00
     17  0.350315D-01 -0.355405D-02 -0.228700D-01 -0.141085D+00 -0.319852D-03
     18  0.242410D-01 -0.148326D+00  0.974598D-01 -0.325231D-02 -0.117506D+00
     19 -0.939051D-01 -0.636391D-01  0.177775D+00  0.395447D-01  0.595701D-02
     20 -0.157313D+00  0.574052D-01  0.489366D-01 -0.896411D-01  0.740533D-02
     21  0.381912D-01 -0.170815D+00  0.998861D-02  0.583305D-02 -0.966305D-01
     22  0.113628D+00  0.132391D+00 -0.115401D+00 -0.360443D-01  0.683661D-01
     23  0.112383D+00 -0.273525D+00 -0.405824D-01  0.752508D-01  0.151269D-01
     24 -0.330838D+00 -0.146788D+00  0.705824D-01  0.877599D-02  0.880409D-01
     25  0.781437D+00  0.385182D+00  0.777011D-01  0.102268D+00  0.565687D-01
     26 -0.406808D+01  0.133730D+00  0.111343D+00  0.340774D-01  0.472261D-01
     27  0.118160D+00 -0.426737D+01  0.554798D-01  0.417052D-01 -0.249196D-01
     28 -0.864335D+00  0.599447D+00 -0.942493D-02 -0.478626D-02  0.902405D-03
     29 -0.266650D+01 -0.101334D+01 -0.548391D-02  0.172189D-01 -0.273259D-02
     30 -0.898800D+00 -0.334645D+01  0.398344D-03 -0.139505D-01 -0.112305D-01
     31  0.377502D-01 -0.104135D+01 -0.560351D-02  0.513317D-02  0.136318D-02
     32 -0.401137D+01  0.440166D-01  0.472532D-02 -0.145464D-01 -0.469164D-03
     33 -0.127723D+00 -0.184932D+01  0.414842D-02  0.151744D-01  0.956390D-02
     34 -0.213746D-01 -0.590950D-02 -0.315632D+01  0.230624D+00 -0.129548D+01
     35 -0.608882D-02 -0.111949D-02  0.216344D+00 -0.375474D+01 -0.422662D+00
     36 -0.657723D-02  0.113242D-01 -0.107886D+01 -0.371785D+00 -0.200977D+01
     37  0.828397D-01  0.411403D-01 -0.398337D+01  0.192769D+00  0.106969D+00
     38  0.111068D+00  0.862940D-01  0.152622D-01 -0.204695D+01  0.108541D+01
     39  0.949553D-01 -0.286139D-02  0.459431D-02  0.113202D+01 -0.324994D+01
     40  0.197746D-01  0.520805D-01 -0.297358D+01 -0.102308D+01  0.769406D+00
     41 -0.329324D-01  0.640184D-02 -0.883698D+00 -0.273607D+01 -0.807264D+00
     42  0.176562D-01  0.685651D-02  0.718245D+00 -0.874017D+00 -0.307198D+01
     43 -0.202847D-01  0.967320D-02  0.904927D-02 -0.794152D-02  0.681437D-02
     44  0.103544D-01 -0.135820D-01 -0.108157D-01 -0.172153D-02 -0.605735D-02
     45 -0.874823D-02 -0.715673D-02  0.114449D-01 -0.778351D-02 -0.357654D-02
     46  0.786119D-02  0.474310D-02  0.155731D-01  0.109069D-01 -0.237557D-02
     47 -0.204785D-01 -0.134443D-01  0.263206D-01 -0.626406D-02 -0.636160D-02
     48 -0.940555D-02 -0.112024D-01 -0.140895D-01 -0.549141D-02 -0.120706D-01
     49 -0.422038D-02  0.225488D-02  0.886897D-02 -0.204737D-02  0.148841D-02
     50 -0.451400D-02 -0.295262D-02 -0.515476D-02 -0.161733D-02 -0.354800D-03
     51  0.131924D-03 -0.409896D-02  0.565780D-02 -0.178380D-02 -0.311391D-02
               16            17            18            19            20 
     16  0.988047D+01
     17 -0.311897D+01  0.204421D+02
     18  0.157439D+01  0.619203D+01  0.235427D+02
     19 -0.715185D+01  0.355411D+01 -0.244140D+01  0.973067D+01
     20  0.329752D+01 -0.756581D+01 -0.545375D+01 -0.329946D+01  0.195998D+02
     21 -0.229240D+01 -0.549026D+01 -0.100715D+02  0.186662D+01  0.632161D+01
     22 -0.639937D-01 -0.167213D-01 -0.803724D-01  0.990561D-01 -0.194249D+00
     23 -0.264291D-01  0.472687D-01 -0.126171D-01 -0.190500D+00 -0.551577D-01
     24 -0.435251D-01 -0.328758D-01 -0.555413D-01  0.854388D-01 -0.908977D-01
     25 -0.467294D-01 -0.259213D-02 -0.127130D-02 -0.357317D-01  0.345292D-02
     26 -0.524686D-01  0.749374D-01  0.221711D-01 -0.504342D-01 -0.119898D-01
     27 -0.113223D-01  0.236044D-01 -0.399600D-01 -0.263696D-01  0.224587D-01
     28  0.162835D-01 -0.325540D-01  0.760553D-02  0.154003D-01 -0.198213D-01
     29 -0.405501D-01  0.209553D-01 -0.687592D-02 -0.254021D-01  0.585435D-02
     30  0.863781D-02 -0.976328D-02 -0.122645D-01  0.105770D-02 -0.319594D-03
     31  0.202824D-01 -0.308574D-01 -0.123148D-01  0.437898D-01 -0.206480D-01
     32 -0.278859D-01 -0.133826D-02  0.603370D-02 -0.243678D-01 -0.100284D-01
     33 -0.245275D-01  0.161079D-01 -0.103329D-01 -0.459513D-01  0.163351D-01
     34  0.293254D-01  0.159723D-02 -0.231084D-02  0.254140D-01  0.346037D-02
     35  0.109445D-02 -0.119019D-01  0.111298D-03  0.516930D-02 -0.768901D-02
     36 -0.151717D-01 -0.867069D-03 -0.854987D-02 -0.169845D-01 -0.129483D-02
     37  0.201583D-01  0.670598D-02  0.126043D-01  0.167196D-01  0.105181D-01
     38  0.213294D-01 -0.686088D-02  0.807443D-02  0.253193D-01 -0.668958D-03
     39  0.259554D-01  0.735003D-02 -0.408606D-02  0.159319D-01  0.631977D-02
     40  0.184420D-01 -0.500114D-02  0.726966D-02  0.214118D-01 -0.252783D-02
     41 -0.127776D-01 -0.490362D-02 -0.403585D-02 -0.976697D-02 -0.573551D-02
     42  0.133162D-01 -0.266807D-02 -0.416658D-02  0.109418D-01 -0.108996D-02
     43 -0.387349D+01 -0.963395D+00  0.840163D+00  0.350816D+00 -0.116445D-01
     44 -0.933626D+00 -0.320955D+01 -0.118352D+01 -0.425233D-01 -0.145955D+00
     45  0.808345D+00 -0.117404D+01 -0.356885D+01  0.396256D-01  0.391668D+00
     46  0.355192D+00 -0.102367D+00  0.805183D-01 -0.428740D+01 -0.827852D+00
     47 -0.417419D-01 -0.206687D+00  0.406487D+00 -0.100524D+01 -0.355604D+01
     48  0.359568D-01  0.420445D+00 -0.264849D-01  0.956098D+00 -0.127610D+01
     49 -0.102457D+00  0.492513D-01 -0.501059D-01  0.148020D+00  0.112143D+00
     50 -0.135948D-01  0.678499D-03 -0.325990D-02 -0.160314D-02  0.954132D-01
     51  0.159627D-02  0.610994D-03  0.138855D-03 -0.556368D-02  0.268522D-01
               21            22            23            24            25 
     21  0.223370D+02
     22  0.121952D-01  0.401025D+01
     23 -0.619882D-01 -0.120819D+00  0.474560D+01
     24 -0.571996D-01  0.112855D+01  0.729681D+00  0.172825D+01
     25  0.118184D-02  0.209041D-01 -0.159169D-01 -0.116674D-01  0.219293D+01
     26  0.173327D-01 -0.200259D-01 -0.144385D-01 -0.542966D-01 -0.967125D+00
     27 -0.392114D-01 -0.229551D-01 -0.487365D-01 -0.377281D-01 -0.420311D+00
     28 -0.846681D-03 -0.730643D-03 -0.683326D-02 -0.105488D-01 -0.160416D+00
     29  0.338418D-03 -0.137015D-01  0.693896D-02  0.198721D-01  0.909568D-01
     30 -0.942051D-02 -0.241671D-02  0.656290D-02 -0.375408D-02 -0.128370D+00
     31 -0.295081D-01 -0.135524D-01 -0.165112D-01 -0.545568D-01 -0.126068D+00
     32  0.115007D-01 -0.195205D-01 -0.185055D-01  0.553053D-01 -0.481668D-01
     33  0.232252D-02 -0.488772D-01  0.401756D-01  0.107782D+00  0.128889D+00
     34 -0.338303D-02  0.668951D-01  0.373848D-01 -0.921408D-01  0.721397D-02
     35  0.129300D-03  0.331210D-01 -0.203723D-01 -0.301072D-01  0.450811D-02
     36 -0.591032D-02 -0.753046D-01 -0.278257D-01  0.315031D-01 -0.596406D-02
     37  0.593397D-02 -0.301362D-01 -0.539367D-01  0.110972D-01 -0.129955D-03
     38  0.743920D-02 -0.483879D-01 -0.122845D-01  0.468596D-02  0.432858D-02
     39 -0.526026D-02  0.418909D-02  0.504228D-02  0.268486D-01  0.285477D-02
     40  0.767194D-02 -0.261880D-01  0.382123D-02 -0.215537D-02  0.101650D-01
     41 -0.295918D-02 -0.228407D-02  0.836363D-02  0.366938D-02 -0.142669D-02
     42 -0.415779D-02  0.298430D-02 -0.707968D-04  0.669600D-02  0.812955D-02
     43  0.102813D-01 -0.294519D-02 -0.155280D-02  0.385274D-02 -0.487775D-02
     44  0.403210D+00  0.213301D-02  0.148722D-02 -0.544942D-02  0.371192D-02
     45 -0.496963D-01 -0.159187D-02 -0.252798D-02  0.369855D-02 -0.296390D-02
     46  0.773090D+00 -0.243836D-01 -0.104819D-01  0.208048D-02 -0.987730D-02
     47 -0.124735D+01 -0.618103D-02 -0.114076D-01  0.805721D-02  0.110168D-01
     48 -0.370260D+01 -0.616763D-02 -0.129251D-02 -0.922430D-02  0.308181D-01
     49 -0.108707D+00 -0.187266D-02 -0.165197D-02  0.447605D-02 -0.371735D-02
     50  0.242950D-01  0.252513D-03  0.112287D-02 -0.450479D-02  0.301557D-02
     51  0.866622D-01  0.344820D-03 -0.162876D-02  0.360385D-02 -0.215243D-02
               26            27            28            29            30 
     26  0.369205D+01
     27 -0.213662D+00  0.437172D+01
     28  0.812539D-01 -0.154483D+00  0.337541D+01
     29  0.114484D+00  0.389478D-01  0.881264D+00  0.233991D+01
     30  0.265640D-01  0.501542D-01 -0.471474D+00  0.804528D+00  0.349561D+01
[...]
   xx         0.646492D+02      0.958003D+01      0.106592D+02
   yx        -0.211214D+01     -0.312986D+00     -0.348244D+00
   yy         0.548754D+02      0.813170D+01      0.904774D+01
   zx        -0.289966D+01     -0.429685D+00     -0.478089D+00
   zy        -0.636565D+00     -0.943292D-01     -0.104955D+00
   zz         0.831151D+02      0.123164D+02      0.137038D+02

 ----------------------------------------------------------------------

 Test job not archived.
 1\1\GINC-C0250\Freq\RM062X\CC-pVTZ\C5H10O2\HARMS.N\28-Sep-2019\0\\#P G
 eom=AllCheck Guess=TCheck SCRF=Check Test GenChk RM062X/CC-pVTZ Freq\\
 Gaussian input prepared by ASE\\0,1\O,3.1225919573,1.5292462091,0.5465
 873402\O,0.808272748,-1.2958842292,0.9575023501\C,2.3882382426,2.43728
 98742,-0.2692175725\C,2.420469007,2.0003180273,-1.7257070124\C,3.03305
 81225,3.7938905913,-0.0726984343\C,2.5362307387,0.3480235392,0.8763407
 082\C,1.3268322462,-0.0943313708,0.5491264992\H,1.3557515117,2.4713969
 219,0.0952318229\H,2.045195557,0.9866706396,-1.8511544324\H,1.81499719
 23,2.671677536,-2.3344433047\H,3.4473888267,2.0331065556,-2.0905788671
 \H,4.0785002297,3.7508434845,-0.3786648589\H,2.989901225,4.0905188432,
 0.9735317445\H,2.5245235584,4.5459293254,-0.6749789513\H,3.1933367755,
 -0.2522862466,1.4953645453\H,0.6311420828,0.4435703132,-0.0755676958\H
 ,1.4354295703,-1.7344417947,1.5392981472\\Version=EM64L-G16RevA.03\Sta
 te=1-A\HF=-346.9414773\RMSD=6.635e-09\RMSF=7.241e-07\ZeroPoint=0.14742
 83\Thermal=0.155883\Dipole=0.1371398,0.203225,-0.0458113\DipoleDeriv=-
 0.5596191,-0.1161735,-0.1080879,-0.502719,-1.4613675,0.4386072,0.08597
 99,0.5258034,-0.5913592,-0.4550942,-0.2852049,0.121059,-0.5896335,-1.1
 818331,0.1979079,0.2786952,0.3151812,-0.3990187,0.2132342,-0.252993,0.
 1338237,0.0659462,0.7812043,-0.1789312,-0.0230009,-0.2980358,0.6164996
 ,0.0851154,0.0239379,-0.0062821,-0.0628153,-0.0571587,-0.0840023,-0.00
 15396,0.0042579,-0.1357318,0.0854739,-0.061561,-0.0111154,-0.0554876,-
 0.0688423,0.0001037,-0.0006276,-0.0249764,0.0282812,0.2952287,0.294719
 9,0.0217972,0.511211,0.862747,-0.3497153,-0.0618761,-0.3857213,0.04676
 58,0.2044566,0.2556336,0.0340476,0.6028212,0.7886646,-0.2534305,-0.158
 9288,-0.3787776,0.0049819,-0.1104363,0.0486889,0.0275133,-0.0503057,-0
 .0110668,0.0110293,0.0774937,0.0120986,-0.058582,0.0386469,-0.0555943,
 -0.0082825,-0.0500671,-0.0760971,-0.0530952,-0.006232,-0.0384899,0.063
 6571,0.0142959,0.0710292,-0.057326,0.0734116,-0.0065942,0.0804997,-0.0
 185455,0.0687868,-0.0070755,-0.0918503,-0.0106522,0.0806864,-0.0119854
 ,0.0652889,0.009109,0.0077311,-0.0066802,0.0275643,-0.0879994,-0.03160
 88,0.0456406,0.0467065,0.0432594,-0.0208491,0.0570241,-0.0104338,0.048
 0383,0.0591924,-0.0204805,0.0118413,-0.0100584,0.0324108,-0.0355652,-0
 .0015712,-0.0803584,-0.0981781,0.014534,0.0593745,-0.0570851,0.0176677
 ,-0.0379671,0.0560586,-0.049715,0.0884203,0.0071656,0.0528502,0.015601
 7,-0.0605098,0.0069711,-0.0492311,0.1214305,-0.0553131,0.1247801,0.072
 1042,0.0745071,0.04074,-0.075967,-0.0007376,0.029763,0.0746339,-0.0518
 419,0.0880967,0.0922218,0.1674639,0.0245426,-0.0917533,0.0090741,0.346
 82,-0.013791,-0.0777324,-0.0039515,0.2826656\Polar=65.0021491,9.692465
 6,76.5667622,1.8405717,-7.5314748,61.0709132\Quadrupole=-2.7381268,1.8
 263471,0.9117797,-3.1478678,1.029441,-3.2816575\PG=C01 [X(C5H10O2)]\NI
 mag=0\\0.29169353,0.06261807,0.47596828,0.07192675,-0.17810939,0.20236
 264,-0.00443596,-0.01097610,-0.00282643,0.38241745,-0.01008421,-0.0187
 8518,0.01107874,-0.01548642,0.43223282,-0.00231080,0.01061744,0.006635
 13,0.19648157,-0.24073238,0.26616928,-0.13446681,0.04765361,-0.0562479
 5,-0.00380064,-0.00555939,0.00029559,0.60015180,0.02525892,-0.11804008
 ,0.04141830,0.00423623,0.00635753,-0.00146047,0.02897767,0.50409023,-0
 .04255164,0.05168846,-0.10874746,-0.00315707,-0.00546559,0.00115243,-0
 .04815288,0.01423852,0.49357128,-0.00251859,0.00404984,-0.02874836,0.0
 0054771,0.00082188,-0.00012498,-0.08083952,0.00102074,0.01887651,0.581
 93411,0.00437128,-0.00155067,0.03354687,-0.00038024,-0.00102416,-0.000
 17507,-0.00137216,-0.09327743,-0.04233637,0.00177048,0.58667230,-0.009
 46991,0.00674157,-0.03053209,0.00051141,0.00060314,-0.00030550,0.01052
 701,-0.03847597,-0.18179725,0.00752627,-0.02453675,0.48602776,0.009820
 11,0.02543632,-0.00252784,0.00085684,0.00029936,-0.00013628,-0.1118846
 7,-0.06365641,-0.00581007,0.00071029,-0.00007452,-0.00059065,0.5640147
 9,-0.00747568,-0.04107388,0.00843245,-0.00055413,-0.00031143,0.0000475
 8,-0.05017261,-0.17253744,-0.01820198,-0.00718747,-0.01231406,-0.00926
 819,-0.03972873,0.51523939,0.00701908,0.03039105,-0.00236575,0.0005370
 0,0.00085033,-0.00021197,-0.00793677,-0.02532640,-0.08032529,-0.014769
 26,-0.03481956,-0.00698007,-0.00107099,-0.01066525,0.59522704,-0.14094
 257,-0.11375059,0.00691966,-0.00982442,-0.00819748,-0.00119216,0.01058
 738,0.01399168,0.00011730,-0.00054758,0.00321161,0.00012797,-0.0032312
 4,0.00307638,-0.00277805,0.78549186,-0.08361029,-0.25225300,0.07448352
 ,-0.03987176,-0.01440368,-0.00906977,-0.00085300,-0.04307220,0.0172109
 0,-0.00310921,0.00599375,-0.00129660,0.00086860,-0.00103976,0.00201199
 ,0.14260051,0.56930520,-0.00768624,0.06253538,-0.06848016,0.01629683,0
 .00583118,0.00606231,0.00892619,0.02443488,-0.01288705,-0.00031993,0.0
 0109944,-0.00094313,-0.00091497,0.00011040,-0.00075099,0.23818884,-0.1
 7101388,0.31299510,-0.01059912,-0.01353388,0.00228315,-0.12721623,-0.1
 0779665,0.01281526,0.00364623,-0.00204238,0.00063623,-0.00046028,-0.00
 002784,-0.00043152,-0.00058998,0.00056831,-0.00027893,-0.46934593,-0.1
 1642151,-0.13407368,0.79332150,-0.03343397,-0.00572832,-0.01113075,-0.
 06734174,-0.25659560,0.09237951,-0.00182382,-0.00162860,-0.00092564,-0
 .00011362,0.00059348,-0.00007984,-0.00035638,0.00015078,0.00004285,-0.
 12962460,-0.15522749,-0.00510228,0.13399316,0.55258678,0.01031524,-0.0
 0266746,0.00831141,-0.01039146,0.07083740,-0.07626943,0.00394273,0.000
 17079,0.00027218,0.00010228,-0.00084598,-0.00112189,-0.00022690,0.0003
 2819,-0.00009311,-0.12644423,0.00129880,-0.10919751,0.25105627,-0.1794
 0579,0.32905836,-0.02413415,0.01372607,-0.00498437,0.00110572,0.000922
 47,0.00015149,-0.26531514,0.00391468,0.08213688,0.00068303,-0.00092285
 ,0.00091970,-0.01198616,-0.00196968,0.00479204,-0.00002998,-0.00424570
 ,0.00091172,-0.00139212,-0.00104703,-0.00090004,0.29762937,0.02851557,
 -0.01151027,0.00180443,-0.00025255,-0.00005254,0.00046456,-0.00160348,
 -0.04989064,-0.00197112,0.00918551,0.00085048,-0.00508529,-0.02979653,
 -0.00021717,0.00971454,0.00388284,0.00529381,-0.00168871,-0.00143650,-
 0.00115353,-0.00114508,-0.00638674,0.06243273,-0.02546366,0.00905932,0
 .00298852,-0.00039177,0.00005373,-0.00033642,0.08598668,-0.00251567,-0
 .08267084,0.03058472,-0.00060195,-0.01222170,-0.00510108,-0.00085020,0
 .00209575,-0.00272238,-0.00319131,0.00140212,0.00244143,-0.00017502,0.
 00098984,-0.08316997,-0.00013001,0.09026271,-0.00037949,-0.00050954,0.
 00003324,-0.00022278,-0.00011694,0.00008869,-0.00086004,0.00259681,-0.
 00106721,-0.08104272,-0.08875330,-0.00947709,0.00049278,0.00001510,-0.
 00020217,-0.00010390,0.00032597,-0.00028845,0.00004217,-0.00015850,0.0
 0085550,0.00014115,0.00023309,-0.00044018,0.08393285,-0.00012462,0.000
 96377,-0.00027911,0.00011680,0.00003795,0.00031936,-0.00227371,-0.0085
 8271,0.00023728,-0.08884898,-0.28476469,-0.02865954,0.00078228,0.00059
 612,-0.00229890,-0.00028680,-0.00060779,0.00087733,-0.00089893,-0.0004
 1457,0.00125277,0.00017129,0.00010882,-0.00016746,0.09828285,0.3087960
 4,0.00084795,0.00185973,0.00281968,0.00003721,-0.00035957,0.00010239,-
 0.01231769,-0.03241303,-0.00100451,-0.00956957,-0.02564102,-0.05028213
 ,0.00079304,-0.00046237,-0.00672249,-0.00069371,-0.00039963,-0.0004515
 3,0.00065532,0.00129494,-0.00107933,0.00014658,0.00063700,0.00112481,0
 .00931263,0.03017368,0.05444287,0.00174811,0.00001089,0.00018855,0.000
 04606,0.00018018,-0.00001733,-0.00092210,-0.00131739,0.00194425,-0.130
 62699,0.09360077,-0.08370374,-0.00018064,0.00022692,0.00006848,-0.0001
 8006,-0.00031990,0.00018976,-0.00003693,-0.00005732,0.00008448,0.00019
 647,-0.00031382,-0.00040637,0.00683249,-0.00704216,0.00789842,0.137939
 98,-0.00098411,0.00124147,-0.00304043,-0.00006809,-0.00005023,0.000110
 18,-0.00596586,0.00439981,-0.00414765,0.09432068,-0.15027772,0.0932801
 9,-0.00007059,-0.00019203,0.00024165,-0.00031280,-0.00012117,-0.000139
 92,0.00004710,0.00026953,0.00013299,0.00005212,0.00039265,0.00070279,0
 .01771201,-0.01664764,0.01664065,-0.10309734,0.16054939,-0.00068021,0.
 00103216,-0.00987006,0.00029220,0.00062630,-0.00014657,-0.01799187,0.0
 2142061,-0.01175073,-0.08249173,0.09126500,-0.12996525,-0.00006685,0.0
 0067150,0.00102246,-0.00154825,-0.00267642,0.00049196,0.00017379,-0.00
 023088,0.00040614,0.00096614,0.00025347,0.00101474,0.00337303,-0.00243
 250,0.00185558,0.09178735,-0.10124897,0.14051356,0.00136938,-0.0009654
 1,0.00035018,0.00004802,-0.00013480,0.00008189,-0.00267788,0.00057527,
 0.00039200,-0.28777318,-0.00874753,0.08297284,0.00096864,-0.00012192,-
 0.00077106,-0.00004575,0.00007209,0.00017921,-0.00011789,0.00020561,-0
 .00009598,0.00140953,-0.00010464,-0.00014610,-0.00938551,0.00037151,0.
 00273259,-0.01516861,-0.00164004,0.00571994,0.31063618,-0.00061908,0.0
 0077550,0.00053065,0.00009082,0.00002224,0.00009868,0.01069511,-0.0012
 1478,-0.00351282,-0.01012258,-0.04765382,0.00313959,0.00124305,0.00051
 267,-0.00001490,-0.00049726,-0.00109697,0.00025010,-0.00002539,-0.0000
 3093,0.00031892,-0.00032852,0.00000874,-0.00224225,-0.02902703,0.00078
 604,0.01006338,0.01880429,0.00061086,-0.00797136,0.00989271,0.04740096
 ,-0.00059789,-0.00047087,0.00353427,-0.00010207,-0.00009077,0.00001178
 ,0.03368805,-0.00064610,-0.01452927,0.08095058,0.00358945,-0.07347951,
 0.00096162,0.00153629,0.00141104,0.00005270,0.00066440,-0.00008628,0.0
 0001691,-0.00012881,0.00010978,-0.00056452,-0.00191257,-0.00583854,-0.
 00360673,0.00047096,0.00020814,-0.01784673,-0.00204640,0.00642986,-0.0
 9160196,-0.00053180,0.08208553,0.00159874,0.00060826,-0.00018134,0.000
 05903,-0.00008974,0.00007058,-0.01760832,0.00045026,0.00444560,0.00065
 130,0.00090733,0.00052555,-0.29358203,0.01232694,0.07303078,0.00032477
 ,-0.00001867,-0.00000863,-0.00003065,0.00020431,-0.00023140,0.00038037
 ,-0.00287551,-0.00082642,0.00046109,-0.00001515,-0.00005572,0.00004865
 ,-0.00008231,0.00007123,0.00032506,-0.00033906,-0.00085718,0.31964560,
 0.00085778,0.00332490,-0.00116058,0.00026471,0.00007878,-0.00000664,-0
 .03265260,-0.00070653,0.00888991,-0.00018006,0.00142389,0.00170957,0.0
 1493117,-0.04680175,-0.00462007,-0.00016529,-0.00038756,0.00013249,-0.
 00026259,-0.00010763,-0.00009002,-0.00207238,-0.00518608,-0.00092217,0
 .00031099,0.00003027,0.00014631,0.00008405,-0.00000356,-0.00008738,0.0
 0056058,0.00003837,-0.00056681,-0.01112291,0.05044934,0.00032468,0.000
 10527,-0.00007794,-0.00004768,-0.00008092,0.00003841,-0.00427448,0.000
 85208,0.00017723,-0.00134292,0.00035595,0.00055172,0.07356901,-0.00457
 164,-0.06961104,-0.00002847,0.00018930,-0.00016955,-0.00010851,-0.0000
 3326,-0.00005913,-0.00047408,-0.00077174,0.00064520,0.00016602,0.00009
 588,-0.00004001,-0.00011211,-0.00004584,-0.00005154,0.00012742,-0.0003
 5004,0.00008091,-0.08006235,0.00587899,0.07057842,0.00000651,0.0012577
 3,0.00042754,-0.00001935,0.00000598,0.00002173,-0.00047429,-0.00356740
 ,-0.01622523,-0.00101340,-0.00301245,0.00037804,-0.04872008,0.00335145
 ,0.01370275,-0.00000608,0.00014679,0.00005846,-0.00005591,0.00003389,-
 0.00001787,0.00029400,0.00077284,-0.00034774,0.00055304,-0.00045842,-0
 .00097449,0.00006196,0.00001049,0.00041034,0.00031083,-0.00017149,-0.0
 0030084,0.00017977,0.00812461,0.03034907,0.04882943,0.00022184,0.00326
 726,0.00011599,0.00016571,0.00022549,-0.00005323,0.00238037,-0.0089642
 0,-0.03081824,-0.00259813,-0.00561089,0.00073902,0.00351771,-0.0657851
 7,-0.06757572,-0.00028403,-0.00046401,0.00036219,-0.00007554,0.0000207
 8,-0.00000403,0.00031696,0.00124527,0.00054563,-0.00017732,-0.00039924
 ,-0.00189609,-0.00021486,0.00019585,-0.00005056,-0.00002070,-0.0000106
 5,0.00030725,0.00013791,-0.00140061,-0.00107218,-0.00109564,0.07066384
 ,0.00036829,0.00024055,0.00122931,0.00000661,-0.00004694,0.00003014,0.
 00016592,0.00069297,-0.00434279,-0.00101373,-0.00128772,0.00093618,0.0
 1234662,-0.07092242,-0.30187852,0.00007598,-0.00000832,0.00023537,-0.0
 0003904,0.00009762,0.00001636,-0.00045367,-0.00027481,0.00057614,0.000
 06961,-0.00000390,-0.00028883,0.00013057,0.00014008,0.00018211,-0.0001
 2501,0.00022859,0.00024233,-0.00023930,-0.00149322,-0.00734848,-0.0128
 7694,0.07749808,0.32529287,-0.00043493,-0.00426575,0.00022505,-0.00007
 733,-0.00003172,0.00004430,0.00640401,-0.00823178,0.00862435,0.0001310
 7,0.00024534,0.00000453,-0.10742838,0.08820978,-0.07175978,0.00097769,
 -0.00049475,0.00017929,0.00006401,0.00009888,-0.00002079,0.00021335,0.
 00086890,0.00037394,-0.00004279,0.00000507,0.00027042,0.00023821,-0.00
 017554,-0.00009149,-0.00003586,0.00013822,-0.00013031,-0.01249875,0.02
 117180,-0.01811351,0.00001238,-0.00237499,0.00153541,0.11260754,-0.003
 79091,-0.00832218,0.00098326,-0.00038131,-0.00051355,0.00014514,0.0175
 4482,-0.01464368,0.01619153,0.00071365,0.00103449,0.00048321,0.0859730
 7,-0.17565519,0.10135105,0.00161191,0.00032111,-0.00008286,0.00017046,
 0.00012565,-0.00001075,-0.00046388,0.00088371,0.00023117,-0.00027900,0
 .00037185,0.00003359,-0.00043741,-0.00016076,-0.00082615,-0.00000743,-
 0.00006660,-0.00007394,-0.00008929,-0.00072226,-0.00051865,-0.00538459
 ,0.00707830,-0.00478206,-0.09496018,0.19060080,0.00001123,-0.00067363,
 0.00081732,0.00009223,0.00013968,-0.00010993,0.00277937,-0.00310898,0.
 00020722,-0.00018222,-0.00012101,-0.00012140,-0.07140512,0.10380181,-0
 .13035952,-0.00012567,-0.00053908,0.00067992,0.00001063,-0.00004778,0.
 00002726,0.00020937,0.00031807,0.00006874,0.00019128,0.00008130,0.0001
 2277,-0.00015734,-0.00059008,-0.00000741,0.00018400,0.00004490,0.00001
 208,0.00419308,-0.00800313,0.00526033,-0.01454169,0.02198657,-0.014843
 30,0.07880597,-0.11324102,0.13816733,0.01161409,-0.01168308,0.01095333
 ,0.00146140,0.00248859,0.00214501,-0.00027733,-0.00263246,0.00007533,0
 .00003754,-0.00010073,-0.00009728,0.00046499,-0.00038761,0.00030684,-0
 .16524427,0.09299834,-0.10817769,-0.01234731,0.01658647,-0.01825463,0.
 00010628,-0.00028515,0.00008382,-0.00002098,0.00009117,0.00009097,0.00
 000569,0.00005299,0.00003952,0.00000385,0.00000716,0.00001552,-0.00003
 011,0.00003060,0.00002167,0.00000907,0.00001181,-0.00001311,-0.0001208
 4,-0.00018506,-0.00003733,0.16766780,0.01564927,-0.02904210,0.02325192
 ,0.00077869,0.00178216,-0.00394841,-0.00509729,-0.00000859,-0.00150313
 ,0.00042257,-0.00048063,0.00033232,0.00084914,-0.00067094,0.00096112,0
 .08858783,-0.12487239,0.08758502,-0.00698961,0.00680113,-0.00281172,0.
 00025744,0.00001963,-0.00012590,-0.00007532,0.00000723,0.00009354,-0.0
 0002745,0.00002784,0.00028809,-0.00002118,0.00004209,0.00001006,-0.000
 04757,0.00002932,0.00002005,0.00000828,-0.00000776,-0.00006848,-0.0002
 1791,-0.00044058,-0.00005377,-0.09146045,0.14579535,-0.00275499,0.0101
 2593,-0.00529580,0.00328626,-0.00323270,-0.00291572,0.00092712,-0.0000
 8290,0.00296538,0.00010701,-0.00004428,0.00043110,-0.00048350,0.000257
 81,-0.00031202,-0.10596837,0.08957398,-0.13252133,-0.00595570,0.008297
 49,0.00048985,-0.00021823,0.00031576,-0.00031926,-0.00011016,-0.000185
 69,0.00005040,-0.00004807,-0.00010009,0.00000166,0.00005059,0.00005828
 ,-0.00002140,0.00004805,-0.00002962,0.00000396,0.00000474,-0.00003607,
 0.00000456,0.00011271,0.00017644,0.00004671,0.11541739,-0.10696259,0.1
 3147989,0.00170831,0.00090275,0.00211071,0.01121755,-0.00897213,0.0096
 1290,-0.00167817,0.00041256,-0.00017680,0.00018355,-0.00069859,0.00026
 737,0.00030588,-0.00022447,0.00012872,-0.01063198,0.01580868,-0.016449
 66,-0.18425166,0.09178967,-0.12069813,0.00076065,-0.00037649,-0.000434
 40,-0.00042063,0.00013966,0.00080403,-0.00000942,0.00017670,0.00004115
 ,0.00013522,0.00027784,-0.00007378,0.00007767,0.00012888,-0.00000098,0
 .00002224,0.00007847,0.00005405,-0.00001514,-0.00004855,-0.00003254,-0
 .00240848,-0.00351388,-0.00336189,0.18454987,0.00193299,-0.00100612,-0
 .00040834,0.01722925,-0.02259459,0.02195866,-0.00064368,-0.00147591,-0
 .00035546,-0.00006615,0.00024555,0.00051945,0.00000039,-0.00002585,-0.
 00011399,-0.00487301,0.01122058,-0.00533161,0.08731139,-0.11413064,0.0
 8472290,-0.00172558,-0.00329552,0.00025521,-0.00039814,-0.00023356,0.0
 0018291,-0.00006325,-0.00024424,0.00004469,0.00007027,-0.00012220,-0.0
 0012631,0.00003793,0.00000132,-0.00005690,-0.00002170,-0.00000840,-0.0
 0001398,-0.00000174,0.00001033,0.00002208,-0.00391010,0.00090690,0.002
 36441,-0.09212214,0.13460807,0.00090000,-0.00081090,-0.00271079,-0.004
 77187,0.00944116,-0.00588385,0.00049406,0.00033580,-0.00016084,0.00025
 687,0.00060509,-0.00017410,0.00061829,-0.00017621,-0.00024006,-0.00400
 983,0.00541049,0.00149124,-0.11947322,0.08652862,-0.14092894,0.0003326
 8,-0.00067010,0.00029417,0.00113304,0.00044603,-0.00080397,-0.00001758
 ,0.00014438,-0.00016766,-0.00005576,-0.00014715,-0.00015703,0.00007407
 ,0.00021379,0.00002121,-0.00006609,-0.00005125,-0.00003095,-0.00004693
 ,-0.00000713,0.00002055,-0.00298687,0.00232768,0.00582761,0.12699621,-
 0.10531101,0.14153526,-0.00164718,-0.00057920,0.00009812,-0.25216306,0
 .15175102,-0.21802746,0.00001549,0.00001300,-0.00010753,-0.00005634,-0
 .00001660,0.00000950,-0.00003114,0.00004743,-0.00001867,0.00275207,-0.
 00387619,0.00298895,0.00937010,-0.00895501,0.01092494,-0.00006237,-0.0
 0002735,-0.00002053,0.00002328,-0.00001189,0.00002201,0.00000713,0.000
 02460,-0.00000427,-0.00000202,-0.00001877,-0.00000336,-0.00000218,-0.0
 0000934,0.00000724,0.00000987,0.00001042,0.00000772,0.00000576,0.00001
 369,0.00000476,-0.00092139,0.00089745,-0.00105295,0.00045454,-0.002756
 71,0.00062291,0.24224743,0.00069716,0.00177062,-0.00151754,0.11243012,
 -0.12640602,0.12930485,0.00076601,-0.00080475,0.00078140,-0.00007914,0
 .00014012,-0.00014587,-0.00021794,0.00012572,-0.00012980,0.00102911,0.
 00141158,0.00014085,0.02742040,-0.02553081,0.02791807,-0.00019868,0.00
 006991,0.00007409,0.00001827,-0.00004788,0.00004597,-0.00001622,0.0000
 0994,-0.00007761,0.00001560,-0.00000152,0.00001595,0.00000728,-0.00006
 022,0.00000364,-0.00000037,-0.00004586,0.00000395,0.00001639,0.0000985
 9,-0.00001593,-0.00162250,0.00011135,-0.00049617,-0.00375895,-0.003855
 73,0.00172070,-0.13650654,0.15301496,-0.00019787,-0.00166464,-0.000618
 25,-0.19585297,0.15054719,-0.19402248,-0.00081107,0.00046556,-0.000129
 70,0.00015846,-0.00005211,-0.00002271,0.00004567,-0.00006777,0.0000945
 3,0.00002867,-0.00264836,0.00212952,-0.00972839,0.00861901,-0.01093182
 ,0.00019826,0.00014160,-0.00007597,-0.00003104,0.00007251,-0.00005384,
 0.00001741,-0.00003353,0.00004115,0.00000521,0.00003722,-0.00001369,0.
 00000339,0.00000858,0.00000030,-0.00000178,0.00000262,-0.00001249,-0.0
 0001315,-0.00005285,0.00001135,0.00041751,0.00060421,0.00008441,0.0012
 1303,0.00164730,0.00206815,0.20454865,-0.15762654,0.20145154\\-0.00000
 042,0.00000010,0.00000021,-0.00000181,0.00000156,-0.00000048,0.0000013
 0,-0.00000017,-0.00000007,-0.00000038,0.00000010,-0.00000005,0.0000012
 2,-0.00000095,0.00000017,-0.00000095,-0.00000072,-0.00000048,-0.000001
 05,-0.00000002,0.00000028,0.00000047,0.00000102,0.00000027,-0.00000023
 ,0.00000023,0.00000007,0.00000004,0.00000027,0.00000024,-0.00000003,-0
 .00000018,-0.00000021,0.00000140,-0.00000100,-0.00000006,0.00000149,-0
 .00000047,0.,0.00000157,-0.00000004,0.,-0.00000085,-0.00000071,-0.0000
 0023,-0.00000057,0.00000090,0.00000014,-0.00000119,0.00000008,0.000000
 20\\\@


 LIFE IS A CONTINUAL STRUGGLE AGAINST THE TENDENCY TO PRODUCE ENTROPY.
 Job cpu time:       0 days  2 hours 42 minutes 28.7 seconds.
 Elapsed time:       0 days  1 hours 21 minutes 17.4 seconds.
 File lengths (MBytes):  RWF=   1392 Int=      0 D2E=      0 Chk=     32 Scr=     32
 Normal termination of Gaussian 16 at Sat Sep 28 12:04:57 2019.
