 Entering Gaussian System, Link 0=g16
 Input=verytight/species/CC(C)OC=CO/conformers/CC(C)OC=CO_24.com
 Output=verytight/species/CC(C)OC=CO/conformers/CC(C)OC=CO_24.log
 Initial command:
 /shared/centos7/gaussian/g16/l1.exe "/scratch/harms.n/gauss_scrdir/Gau-43956.inp" -scrdir="/scratch/harms.n/gauss_scrdir/"
 Entering Link 1 = /shared/centos7/gaussian/g16/l1.exe PID=     43957.
  
 Copyright (c) 1988,1990,1992,1993,1995,1998,2003,2009,2016,
            Gaussian, Inc.  All Rights Reserved.
  
 This is part of the Gaussian(R) 16 program.  It is based on
 the Gaussian(R) 09 system (copyright 2009, Gaussian, Inc.),
 the Gaussian(R) 03 system (copyright 2003, Gaussian, Inc.),
 the Gaussian(R) 98 system (copyright 1998, Gaussian, Inc.),
 the Gaussian(R) 94 system (copyright 1995, Gaussian, Inc.),
 the Gaussian 92(TM) system (copyright 1992, Gaussian, Inc.),
 the Gaussian 90(TM) system (copyright 1990, Gaussian, Inc.),
 the Gaussian 88(TM) system (copyright 1988, Gaussian, Inc.),
 the Gaussian 86(TM) system (copyright 1986, Carnegie Mellon
 University), and the Gaussian 82(TM) system (copyright 1983,
 Carnegie Mellon University). Gaussian is a federally registered
 trademark of Gaussian, Inc.
  
 This software contains proprietary and confidential information,
 including trade secrets, belonging to Gaussian, Inc.
  
 This software is provided under written license and may be
 used, copied, transmitted, or stored only in accord with that
 written license.
  
 The following legend is applicable only to US Government
 contracts under FAR:
  
                    RESTRICTED RIGHTS LEGEND
  
 Use, reproduction and disclosure by the US Government is
 subject to restrictions as set forth in subparagraphs (a)
 and (c) of the Commercial Computer Software - Restricted
 Rights clause in FAR 52.227-19.
  
 Gaussian, Inc.
 340 Quinnipiac St., Bldg. 40, Wallingford CT 06492
  
  
 ---------------------------------------------------------------
 Warning -- This program may not be used in any manner that
 competes with the business of Gaussian, Inc. or will provide
 assistance to any competitor of Gaussian, Inc.  The licensee
 of this program is prohibited from giving any competitor of
 Gaussian, Inc. access to this program.  By using this program,
 the user acknowledges that Gaussian, Inc. is engaged in the
 business of creating and licensing software in the field of
 computational chemistry and represents and warrants to the
 licensee that it is not a competitor of Gaussian, Inc. and that
 it will not use this program in any manner prohibited above.
 ---------------------------------------------------------------
  

 Cite this work as:
 Gaussian 16, Revision A.03,
 M. J. Frisch, G. W. Trucks, H. B. Schlegel, G. E. Scuseria, 
 M. A. Robb, J. R. Cheeseman, G. Scalmani, V. Barone, 
 G. A. Petersson, H. Nakatsuji, X. Li, M. Caricato, A. V. Marenich, 
 J. Bloino, B. G. Janesko, R. Gomperts, B. Mennucci, H. P. Hratchian, 
 J. V. Ortiz, A. F. Izmaylov, J. L. Sonnenberg, D. Williams-Young, 
 F. Ding, F. Lipparini, F. Egidi, J. Goings, B. Peng, A. Petrone, 
 T. Henderson, D. Ranasinghe, V. G. Zakrzewski, J. Gao, N. Rega, 
 G. Zheng, W. Liang, M. Hada, M. Ehara, K. Toyota, R. Fukuda, 
 J. Hasegawa, M. Ishida, T. Nakajima, Y. Honda, O. Kitao, H. Nakai, 
 T. Vreven, K. Throssell, J. A. Montgomery, Jr., J. E. Peralta, 
 F. Ogliaro, M. J. Bearpark, J. J. Heyd, E. N. Brothers, K. N. Kudin, 
 V. N. Staroverov, T. A. Keith, R. Kobayashi, J. Normand, 
 K. Raghavachari, A. P. Rendell, J. C. Burant, S. S. Iyengar, 
 J. Tomasi, M. Cossi, J. M. Millam, M. Klene, C. Adamo, R. Cammi, 
 J. W. Ochterski, R. L. Martin, K. Morokuma, O. Farkas, 
 J. B. Foresman, and D. J. Fox, Gaussian, Inc., Wallingford CT, 2016.
 
 ******************************************
 Gaussian 16:  EM64L-G16RevA.03 25-Dec-2016
                28-Sep-2019 
 ******************************************
 %nprocshared=20
 Will use up to   20 processors via shared memory.
 %mem=5GB
 ----------------------------------------------------------------------
 #p m062x/cc-pVTZ opt=(calcfc,maxcycles=900,Tight) freq IOP(7/33=1,2/16
 =3) scf=(maxcycle=900)
 ----------------------------------------------------------------------
 1/6=900,7=10,10=4,18=20,19=15,26=3,38=1/1,3;
 2/9=110,12=2,16=3,17=6,18=5,40=1/2;
 3/5=16,6=1,11=2,25=1,30=1,71=2,74=-55,140=1/1,2,3;
 4//1;
 5/5=2,7=900,38=5/2;
 8/6=4,10=90,11=11/1;
 11/6=1,8=1,9=11,15=111,16=1/1,2,10;
 10/6=1,13=1/2;
 6/7=2,8=2,9=2,10=2,28=1/1;
 7/10=1,18=20,25=1,33=1/1,2,3,16;
 1/6=900,7=10,10=4,18=20,19=15,26=3/3(2);
 2/9=110,16=3/2;
 99//99;
 2/9=110,16=3/2;
 3/5=16,6=1,11=2,25=1,30=1,71=1,74=-55/1,2,3;
 4/5=5,16=3,69=1/1;
 5/5=2,7=900,38=5/2;
 7/33=1/1,2,3,16;
 1/6=900,7=10,18=20,19=15,26=3/3(-5);
 2/9=110,16=3/2;
 6/7=2,8=2,9=2,10=2,19=2,28=1/1;
 99/9=1/99;
 Leave Link    1 at Sat Sep 28 06:08:29 2019, MaxMem=   671088640 cpu:               4.5 elap:               2.2
 (Enter /shared/centos7/gaussian/g16/l101.exe)
 ------------------------------
 Gaussian input prepared by ASE
 ------------------------------
 Symbolic Z-matrix:
 Charge =  0 Multiplicity = 1
 O                     0.96744  -2.7751    0.04087 
 O                     2.14816   0.5256    1.06104 
 C                    -0.42194  -2.54386   0.14091 
 C                    -0.86715  -2.32997   1.58765 
 C                    -1.15217  -3.66599  -0.52064 
 C                     1.7349   -1.6914    0.4021 
 C                     1.29075  -0.51074   0.72276 
 H                    -0.65378  -1.60088  -0.42776 
 H                    -0.05085  -2.58082   2.29683 
 H                    -1.15938  -1.27932   1.76716 
 H                    -1.7513   -2.97479   1.84284 
 H                    -0.93785  -4.65336  -0.01482 
 H                    -0.85858  -3.75956  -1.587 
 H                    -2.26516  -3.49485  -0.48157 
 H                     2.81015  -1.92958   0.37325 
 H                     0.23969  -0.26396   0.75129 
 H                     1.57487   1.31445   1.28652 
 
 ITRead=  0  0  0  0  0  0  0  0  0  0  0  0  0  0  0  0  0
 MicOpt= -1 -1 -1 -1 -1 -1 -1 -1 -1 -1 -1 -1 -1 -1 -1 -1 -1
 NAtoms=     17 NQM=       17 NQMF=       0 NMMI=      0 NMMIF=      0
                NMic=       0 NMicF=      0.
                    Isotopes and Nuclear Properties:
 (Nuclear quadrupole moments (NQMom) in fm**2, nuclear magnetic moments (NMagM)
  in nuclear magnetons)

  Atom         1           2           3           4           5           6           7           8           9          10
 IAtWgt=          16          16          12          12          12          12          12           1           1           1
 AtmWgt=  15.9949146  15.9949146  12.0000000  12.0000000  12.0000000  12.0000000  12.0000000   1.0078250   1.0078250   1.0078250
 NucSpn=           0           0           0           0           0           0           0           1           1           1
 AtZEff=  -0.0000000  -0.0000000  -0.0000000  -0.0000000  -0.0000000  -0.0000000  -0.0000000  -0.0000000  -0.0000000  -0.0000000
 NQMom=    0.0000000   0.0000000   0.0000000   0.0000000   0.0000000   0.0000000   0.0000000   0.0000000   0.0000000   0.0000000
 NMagM=    0.0000000   0.0000000   0.0000000   0.0000000   0.0000000   0.0000000   0.0000000   2.7928460   2.7928460   2.7928460
 AtZNuc=   8.0000000   8.0000000   6.0000000   6.0000000   6.0000000   6.0000000   6.0000000   1.0000000   1.0000000   1.0000000

  Atom        11          12          13          14          15          16          17
 IAtWgt=           1           1           1           1           1           1           1
 AtmWgt=   1.0078250   1.0078250   1.0078250   1.0078250   1.0078250   1.0078250   1.0078250
 NucSpn=           1           1           1           1           1           1           1
 AtZEff=  -0.0000000  -0.0000000  -0.0000000  -0.0000000  -0.0000000  -0.0000000  -0.0000000
 NQMom=    0.0000000   0.0000000   0.0000000   0.0000000   0.0000000   0.0000000   0.0000000
 NMagM=    2.7928460   2.7928460   2.7928460   2.7928460   2.7928460   2.7928460   2.7928460
 AtZNuc=   1.0000000   1.0000000   1.0000000   1.0000000   1.0000000   1.0000000   1.0000000
 Leave Link  101 at Sat Sep 28 06:08:31 2019, MaxMem=   671088640 cpu:               3.0 elap:               1.5
 (Enter /shared/centos7/gaussian/g16/l103.exe)

 GradGradGradGradGradGradGradGradGradGradGradGradGradGradGradGradGradGrad
 Berny optimization.
 Initialization pass.
                           ----------------------------
                           !    Initial Parameters    !
                           ! (Angstroms and Degrees)  !
 --------------------------                            --------------------------
 ! Name  Definition              Value          Derivative Info.                !
 --------------------------------------------------------------------------------
 ! R1    R(1,3)                  1.412          calculate D2E/DX2 analytically  !
 ! R2    R(1,6)                  1.3762         calculate D2E/DX2 analytically  !
 ! R3    R(2,7)                  1.3869         calculate D2E/DX2 analytically  !
 ! R4    R(2,17)                 1.0009         calculate D2E/DX2 analytically  !
 ! R5    R(3,4)                  1.5287         calculate D2E/DX2 analytically  !
 ! R6    R(3,5)                  1.4933         calculate D2E/DX2 analytically  !
 ! R7    R(3,8)                  1.1253         calculate D2E/DX2 analytically  !
 ! R8    R(4,9)                  1.1101         calculate D2E/DX2 analytically  !
 ! R9    R(4,10)                 1.1052         calculate D2E/DX2 analytically  !
 ! R10   R(4,11)                 1.1237         calculate D2E/DX2 analytically  !
 ! R11   R(5,12)                 1.1299         calculate D2E/DX2 analytically  !
 ! R12   R(5,13)                 1.11           calculate D2E/DX2 analytically  !
 ! R13   R(5,14)                 1.1267         calculate D2E/DX2 analytically  !
 ! R14   R(6,7)                  1.3016         calculate D2E/DX2 analytically  !
 ! R15   R(6,15)                 1.1017         calculate D2E/DX2 analytically  !
 ! R16   R(7,16)                 1.08           calculate D2E/DX2 analytically  !
 ! A1    A(3,1,6)              113.651          calculate D2E/DX2 analytically  !
 ! A2    A(7,2,17)             106.8437         calculate D2E/DX2 analytically  !
 ! A3    A(1,3,4)              112.118          calculate D2E/DX2 analytically  !
 ! A4    A(1,3,5)              109.0686         calculate D2E/DX2 analytically  !
 ! A5    A(1,3,8)              107.7062         calculate D2E/DX2 analytically  !
 ! A6    A(4,3,5)              112.4557         calculate D2E/DX2 analytically  !
 ! A7    A(4,3,8)              107.5172         calculate D2E/DX2 analytically  !
 ! A8    A(5,3,8)              107.7622         calculate D2E/DX2 analytically  !
 ! A9    A(3,4,9)              111.0283         calculate D2E/DX2 analytically  !
 ! A10   A(3,4,10)             111.3293         calculate D2E/DX2 analytically  !
 ! A11   A(3,4,11)             111.3328         calculate D2E/DX2 analytically  !
 ! A12   A(9,4,10)             107.7882         calculate D2E/DX2 analytically  !
 ! A13   A(9,4,11)             107.6888         calculate D2E/DX2 analytically  !
 ! A14   A(10,4,11)            107.4928         calculate D2E/DX2 analytically  !
 ! A15   A(3,5,12)             111.442          calculate D2E/DX2 analytically  !
 ! A16   A(3,5,13)             111.0748         calculate D2E/DX2 analytically  !
 ! A17   A(3,5,14)             110.7027         calculate D2E/DX2 analytically  !
 ! A18   A(12,5,13)            107.8331         calculate D2E/DX2 analytically  !
 ! A19   A(12,5,14)            107.7328         calculate D2E/DX2 analytically  !
 ! A20   A(13,5,14)            107.902          calculate D2E/DX2 analytically  !
 ! A21   A(1,6,7)              126.0639         calculate D2E/DX2 analytically  !
 ! A22   A(1,6,15)             111.5407         calculate D2E/DX2 analytically  !
 ! A23   A(7,6,15)             122.3862         calculate D2E/DX2 analytically  !
 ! A24   A(2,7,6)              121.7985         calculate D2E/DX2 analytically  !
 ! A25   A(2,7,16)             115.1163         calculate D2E/DX2 analytically  !
 ! A26   A(6,7,16)             123.0845         calculate D2E/DX2 analytically  !
 ! D1    D(6,1,3,4)            -65.847          calculate D2E/DX2 analytically  !
 ! D2    D(6,1,3,5)            168.9316         calculate D2E/DX2 analytically  !
 ! D3    D(6,1,3,8)             52.2401         calculate D2E/DX2 analytically  !
 ! D4    D(3,1,6,7)             -4.7334         calculate D2E/DX2 analytically  !
 ! D5    D(3,1,6,15)           176.3527         calculate D2E/DX2 analytically  !
 ! D6    D(17,2,7,6)          -178.6318         calculate D2E/DX2 analytically  !
 ! D7    D(17,2,7,16)            1.0779         calculate D2E/DX2 analytically  !
 ! D8    D(1,3,4,9)            -10.4323         calculate D2E/DX2 analytically  !
 ! D9    D(1,3,4,10)           109.6651         calculate D2E/DX2 analytically  !
 ! D10   D(1,3,4,11)          -130.4063         calculate D2E/DX2 analytically  !
 ! D11   D(5,3,4,9)            112.9049         calculate D2E/DX2 analytically  !
 ! D12   D(5,3,4,10)          -126.9977         calculate D2E/DX2 analytically  !
 ! D13   D(5,3,4,11)            -7.0691         calculate D2E/DX2 analytically  !
 ! D14   D(8,3,4,9)           -128.6316         calculate D2E/DX2 analytically  !
 ! D15   D(8,3,4,10)            -8.5341         calculate D2E/DX2 analytically  !
 ! D16   D(8,3,4,11)           111.3944         calculate D2E/DX2 analytically  !
 ! D17   D(1,3,5,12)            61.6709         calculate D2E/DX2 analytically  !
 ! D18   D(1,3,5,13)           -58.5908         calculate D2E/DX2 analytically  !
 ! D19   D(1,3,5,14)          -178.4454         calculate D2E/DX2 analytically  !
 ! D20   D(4,3,5,12)           -63.3537         calculate D2E/DX2 analytically  !
 ! D21   D(4,3,5,13)           176.3846         calculate D2E/DX2 analytically  !
 ! D22   D(4,3,5,14)            56.53           calculate D2E/DX2 analytically  !
 ! D23   D(8,3,5,12)           178.3269         calculate D2E/DX2 analytically  !
 ! D24   D(8,3,5,13)            58.0651         calculate D2E/DX2 analytically  !
 ! D25   D(8,3,5,14)           -61.7895         calculate D2E/DX2 analytically  !
 ! D26   D(1,6,7,2)           -179.3389         calculate D2E/DX2 analytically  !
 ! D27   D(1,6,7,16)             0.9748         calculate D2E/DX2 analytically  !
 ! D28   D(15,6,7,2)            -0.5352         calculate D2E/DX2 analytically  !
 ! D29   D(15,6,7,16)          179.7785         calculate D2E/DX2 analytically  !
 --------------------------------------------------------------------------------
 Trust Radius=3.00D-01 FncErr=1.00D-07 GrdErr=1.00D-06 EigMax=2.50D+02 EigMin=1.00D-04
 Number of steps in this run=    102 maximum allowed number of steps=    102.
 GradGradGradGradGradGradGradGradGradGradGradGradGradGradGradGradGradGrad

 Leave Link  103 at Sat Sep 28 06:08:31 2019, MaxMem=   671088640 cpu:               1.5 elap:               0.7
 (Enter /shared/centos7/gaussian/g16/l202.exe)
                          Input orientation:                          
 ---------------------------------------------------------------------
 Center     Atomic      Atomic             Coordinates (Angstroms)
 Number     Number       Type             X           Y           Z
 ---------------------------------------------------------------------
      1          8           0        0.967442   -2.775101    0.040866
      2          8           0        2.148163    0.525598    1.061041
      3          6           0       -0.421945   -2.543860    0.140908
      4          6           0       -0.867153   -2.329968    1.587646
      5          6           0       -1.152173   -3.665995   -0.520643
      6          6           0        1.734899   -1.691397    0.402099
      7          6           0        1.290746   -0.510737    0.722760
      8          1           0       -0.653780   -1.600877   -0.427758
      9          1           0       -0.050852   -2.580824    2.296827
     10          1           0       -1.159380   -1.279319    1.767163
     11          1           0       -1.751301   -2.974785    1.842838
     12          1           0       -0.937849   -4.653360   -0.014817
     13          1           0       -0.858576   -3.759557   -1.587002
     14          1           0       -2.265162   -3.494846   -0.481574
     15          1           0        2.810154   -1.929581    0.373255
     16          1           0        0.239694   -0.263963    0.751294
     17          1           0        1.574873    1.314446    1.286522
 ---------------------------------------------------------------------
                    Distance matrix (angstroms):
                    1          2          3          4          5
     1  O    0.000000
     2  O    3.650955   0.000000
     3  C    1.412047   4.107758   0.000000
     4  C    2.440576   4.186131   1.528729   0.000000
     5  C    2.366803   5.564476   1.493342   2.512188   0.000000
     6  C    1.376189   2.349480   2.333858   2.929841   3.617413
     7  C    2.386807   1.386935   2.721296   2.951975   4.179660
     8  H    2.055912   3.819594   1.125320   2.153824   2.126438
     9  H    2.482746   4.001586   2.187936   1.110050   3.213821
    10  H    3.121031   3.833559   2.188054   1.105209   3.306105
    11  H    3.267803   5.298085   2.202147   1.123668   2.534318
    12  H    2.676022   6.123932   2.177246   2.823303   1.129905
    13  H    2.636940   5.866444   2.157368   3.481694   1.109989
    14  H    3.352716   6.166123   2.165481   2.755548   1.126748
    15  H    2.054501   2.634234   3.298149   3.893281   4.417491
    16  H    2.709270   2.088445   2.451177   2.488568   3.889594
    17  H    4.317988   1.000891   4.492910   4.397262   5.958810
                    6          7          8          9         10
     6  C    0.000000
     7  C    1.301558   0.000000
     8  H    2.530345   2.508640   0.000000
     9  H    2.751360   2.926232   2.957563   0.000000
    10  H    3.226463   2.772114   2.275238   1.789774   0.000000
    11  H    3.984521   4.071874   2.871896   1.803562   1.797416
    12  H    4.011313   4.761511   3.093360   3.228911   3.822131
    13  H    3.867806   4.528732   2.458798   4.138352   4.182402
    14  H    4.475913   4.795812   2.487281   3.668531   3.344867
    15  H    1.101697   2.108050   3.570505   3.508504   4.257114
    16  H    2.096460   1.080011   1.993940   2.800167   2.005080
    17  H    3.137340   1.931282   4.050278   4.340141   3.799312
                   11         12         13         14         15
    11  H    0.000000
    12  H    2.632527   0.000000
    13  H    3.629963   1.810231   0.000000
    14  H    2.436680   1.822574   1.808459   0.000000
    15  H    4.904997   4.649419   4.544337   5.379556   0.000000
    16  H    3.536112   4.608725   4.346608   4.269997   3.086173
    17  H    5.456228   6.604693   6.318569   6.403228   3.589385
                   16         17
    16  H    0.000000
    17  H    2.135543   0.000000
 Stoichiometry    C5H10O2
 Framework group  C1[X(C5H10O2)]
 Deg. of freedom    45
 Full point group                 C1      NOp   1
 Largest Abelian subgroup         C1      NOp   1
 Largest concise Abelian subgroup C1      NOp   1
                         Standard orientation:                         
 ---------------------------------------------------------------------
 Center     Atomic      Atomic             Coordinates (Angstroms)
 Number     Number       Type             X           Y           Z
 ---------------------------------------------------------------------
      1          8           0       -0.456080   -0.995815    0.373296
      2          8           0        2.959728    0.159475   -0.198570
      3          6           0       -1.146596    0.065193   -0.252265
      4          6           0       -0.981339    1.384038    0.502950
      5          6           0       -2.579622   -0.318734   -0.422873
      6          6           0        0.912022   -0.847339    0.361143
      7          6           0        1.574368    0.102832   -0.232594
      8          1           0       -0.704034    0.204220   -1.277524
      9          1           0       -0.508196    1.219236    1.493499
     10          1           0       -0.347576    2.093062   -0.060181
     11          1           0       -1.973254    1.882457    0.677057
     12          1           0       -3.078953   -0.504365    0.573568
     13          1           0       -2.675583   -1.243812   -1.028758
     14          1           0       -3.151474    0.498958   -0.946254
     15          1           0        1.411933   -1.659267    0.913047
     16          1           0        1.096183    0.902028   -0.779446
     17          1           0        3.228775    0.982267   -0.700975
 ---------------------------------------------------------------------
 Rotational constants (GHZ):           5.9559245           1.4242257           1.2619290
 Leave Link  202 at Sat Sep 28 06:08:33 2019, MaxMem=   671088640 cpu:               2.8 elap:               1.4
 (Enter /shared/centos7/gaussian/g16/l301.exe)
 Standard basis: CC-pVTZ (5D, 7F)
 Ernie: Thresh=  0.10000D-02 Tol=  0.10000D-05 Strict=F.
 Ernie:  21 primitive shells out of 262 were deleted.
 There are   395 symmetry adapted cartesian basis functions of A   symmetry.
 There are   350 symmetry adapted basis functions of A   symmetry.
   350 basis functions,   534 primitive gaussians,   395 cartesian basis functions
    28 alpha electrons       28 beta electrons
       nuclear repulsion energy       316.2235954104 Hartrees.
 IExCor= 4336 DFT=T Ex+Corr=M062X ExCW=0 ScaHFX=  0.540000
 ScaDFX=  1.000000  1.000000  1.000000  1.000000 ScalE2=  1.000000  1.000000
 IRadAn=      5 IRanWt=     -1 IRanGd=            0 ICorTp=0 IEmpDi=  4
 NAtoms=   17 NActive=   17 NUniq=   17 SFac= 1.00D+00 NAtFMM=   60 NAOKFM=F Big=F
 Integral buffers will be    131072 words long.
 Raffenetti 2 integral format.
 Two-electron integral symmetry is turned on.
 Leave Link  301 at Sat Sep 28 06:08:34 2019, MaxMem=   671088640 cpu:               2.1 elap:               1.1
 (Enter /shared/centos7/gaussian/g16/l302.exe)
 NPDir=0 NMtPBC=     1 NCelOv=     1 NCel=       1 NClECP=     1 NCelD=      1
         NCelK=      1 NCelE2=     1 NClLst=     1 CellRange=     0.0.
 One-electron integrals computed using PRISM.
 One-electron integral symmetry used in STVInt
 NBasis=   350 RedAO= T EigKep=  3.11D-04  NBF=   350
 NBsUse=   350 1.00D-06 EigRej= -1.00D+00 NBFU=   350
 Precomputing XC quadrature grid using
 IXCGrd= 4 IRadAn=           5 IRanWt=          -1 IRanGd=           0 AccXCQ= 0.00D+00.
 Generated NRdTot=       0 NPtTot=           0 NUsed=           0 NTot=          32
 NSgBfM=   395   395   395   395   395 MxSgAt=    17 MxSgA2=    17.
 Leave Link  302 at Sat Sep 28 06:09:36 2019, MaxMem=   671088640 cpu:             123.9 elap:              62.0
 (Enter /shared/centos7/gaussian/g16/l303.exe)
 DipDrv:  MaxL=1.
 Leave Link  303 at Sat Sep 28 06:09:40 2019, MaxMem=   671088640 cpu:               8.4 elap:               4.2
 (Enter /shared/centos7/gaussian/g16/l401.exe)
 ExpMin= 1.03D-01 ExpMax= 1.53D+04 ExpMxC= 5.22D+02 IAcc=3 IRadAn=         5 AccDes= 0.00D+00
 Harris functional with IExCor= 1009 and IRadAn=       5 diagonalized for initial guess.
 HarFok:  IExCor= 1009 AccDes= 0.00D+00 IRadAn=         5 IDoV= 1 UseB2=F ITyADJ=14
 ICtDFT=  3500011 ScaDFX=  1.000000  1.000000  1.000000  1.000000
 FoFCou: FMM=F IPFlag=           0 FMFlag=      100000 FMFlg1=           0
         NFxFlg=           0 DoJE=T BraDBF=F KetDBF=T FulRan=T
         wScrn=  0.000000 ICntrl=       500 IOpCl=  0 I1Cent=   200000004 NGrid=           0
         NMat0=    1 NMatS0=      1 NMatT0=    0 NMatD0=    1 NMtDS0=    0 NMtDT0=    0
 Petite list used in FoFCou.
 Harris En= -346.806300724199    
 JPrj=0 DoOrth=F DoCkMO=F.
 Leave Link  401 at Sat Sep 28 06:10:15 2019, MaxMem=   671088640 cpu:              69.2 elap:              34.6
 (Enter /shared/centos7/gaussian/g16/l502.exe)
 Integral symmetry usage will be decided dynamically.
 Closed shell SCF:
 Using DIIS extrapolation, IDIIS=  1040.
 NGot=   671088640 LenX=   670765141 LenY=   670608675
 Requested convergence on RMS density matrix=1.00D-08 within 900 cycles.
 Requested convergence on MAX density matrix=1.00D-06.
 Requested convergence on             energy=1.00D-06.
 No special actions if energy rises.
 Fock matrices will be formed incrementally for  20 cycles.
 Integral accuracy reduced to 1.0D-05 until final iterations.

 Cycle   1  Pass 0  IDiag  1:
 FoFJK:  IHMeth= 1 ICntrl=       0 DoSepK=F KAlg= 0 I1Cent=           0 FoldK=F
 IRaf= 950000000 NMat=       1 IRICut=       1 DoRegI=T DoRafI=F ISym2E= 0 IDoP0=0 IntGTp=1.
 FoFCou: FMM=F IPFlag=           0 FMFlag=      100000 FMFlg1=           0
         NFxFlg=           0 DoJE=F BraDBF=F KetDBF=F FulRan=T
         wScrn=  0.000000 ICntrl=         0 IOpCl=  0 I1Cent=           0 NGrid=           0
         NMat0=    1 NMatS0=      1 NMatT0=    0 NMatD0=    1 NMtDS0=    0 NMtDT0=    0
 Symmetry not used in FoFCou.
 E= -346.696949688850    
 DIIS: error= 2.12D-02 at cycle   1 NSaved=   1.
 NSaved= 1 IEnMin= 1 EnMin= -346.696949688850     IErMin= 1 ErrMin= 2.12D-02
 ErrMax= 2.12D-02  0.00D+00 EMaxC= 1.00D-01 BMatC= 2.86D-01 BMatP= 2.86D-01
 IDIUse=3 WtCom= 7.88D-01 WtEn= 2.12D-01
 Coeff-Com:  0.100D+01
 Coeff-En:   0.100D+01
 Coeff:      0.100D+01
 Gap=     0.351 Goal=   None    Shift=    0.000
 GapD=    0.351 DampG=1.000 DampE=0.500 DampFc=0.5000 IDamp=-1.
 Damping current iteration by 5.00D-01
 RMSDP=1.98D-03 MaxDP=1.06D-01              OVMax= 1.29D-01

 Cycle   2  Pass 0  IDiag  1:
 RMSU=  9.92D-04    CP:  9.99D-01
 E= -346.815974809884     Delta-E=       -0.119025121034 Rises=F Damp=T
 DIIS: error= 6.47D-03 at cycle   2 NSaved=   2.
 NSaved= 2 IEnMin= 2 EnMin= -346.815974809884     IErMin= 2 ErrMin= 6.47D-03
 ErrMax= 6.47D-03  0.00D+00 EMaxC= 1.00D-01 BMatC= 2.09D-02 BMatP= 2.86D-01
 IDIUse=3 WtCom= 9.35D-01 WtEn= 6.47D-02
 Coeff-Com: -0.128D+00 0.113D+01
 Coeff-En:   0.000D+00 0.100D+01
 Coeff:     -0.119D+00 0.112D+01
 Gap=     0.314 Goal=   None    Shift=    0.000
 RMSDP=4.37D-04 MaxDP=1.51D-02 DE=-1.19D-01 OVMax= 6.73D-02

 Cycle   3  Pass 0  IDiag  1:
 RMSU=  4.35D-04    CP:  1.00D+00  9.78D-01
 E= -346.923993351328     Delta-E=       -0.108018541444 Rises=F Damp=F
 DIIS: error= 2.15D-03 at cycle   3 NSaved=   3.
 NSaved= 3 IEnMin= 3 EnMin= -346.923993351328     IErMin= 3 ErrMin= 2.15D-03
 ErrMax= 2.15D-03  0.00D+00 EMaxC= 1.00D-01 BMatC= 2.97D-03 BMatP= 2.09D-02
 IDIUse=3 WtCom= 9.79D-01 WtEn= 2.15D-02
 Coeff-Com: -0.758D-01 0.280D+00 0.796D+00
 Coeff-En:   0.000D+00 0.000D+00 0.100D+01
 Coeff:     -0.742D-01 0.274D+00 0.800D+00
 Gap=     0.313 Goal=   None    Shift=    0.000
 RMSDP=1.19D-04 MaxDP=4.82D-03 DE=-1.08D-01 OVMax= 9.99D-03

 Cycle   4  Pass 0  IDiag  1:
 RMSU=  1.01D-04    CP:  1.00D+00  1.03D+00  9.30D-01
 E= -346.925490449987     Delta-E=       -0.001497098659 Rises=F Damp=F
 DIIS: error= 1.39D-03 at cycle   4 NSaved=   4.
 NSaved= 4 IEnMin= 4 EnMin= -346.925490449987     IErMin= 4 ErrMin= 1.39D-03
 ErrMax= 1.39D-03  0.00D+00 EMaxC= 1.00D-01 BMatC= 8.89D-04 BMatP= 2.97D-03
 IDIUse=3 WtCom= 9.86D-01 WtEn= 1.39D-02
 Coeff-Com: -0.267D-01 0.690D-01 0.400D+00 0.558D+00
 Coeff-En:   0.000D+00 0.000D+00 0.182D+00 0.818D+00
 Coeff:     -0.263D-01 0.681D-01 0.397D+00 0.561D+00
 Gap=     0.310 Goal=   None    Shift=    0.000
 RMSDP=5.14D-05 MaxDP=2.14D-03 DE=-1.50D-03 OVMax= 5.32D-03

 Cycle   5  Pass 0  IDiag  1:
 RMSU=  2.88D-05    CP:  1.00D+00  1.03D+00  9.55D-01  5.94D-01
 E= -346.926118210172     Delta-E=       -0.000627760185 Rises=F Damp=F
 DIIS: error= 2.11D-04 at cycle   5 NSaved=   5.
 NSaved= 5 IEnMin= 5 EnMin= -346.926118210172     IErMin= 5 ErrMin= 2.11D-04
 ErrMax= 2.11D-04  0.00D+00 EMaxC= 1.00D-01 BMatC= 1.92D-05 BMatP= 8.89D-04
 IDIUse=3 WtCom= 9.98D-01 WtEn= 2.11D-03
 Coeff-Com: -0.391D-02 0.727D-02 0.854D-01 0.189D+00 0.722D+00
 Coeff-En:   0.000D+00 0.000D+00 0.000D+00 0.000D+00 0.100D+01
 Coeff:     -0.390D-02 0.726D-02 0.853D-01 0.189D+00 0.722D+00
 Gap=     0.310 Goal=   None    Shift=    0.000
 RMSDP=1.11D-05 MaxDP=3.09D-04 DE=-6.28D-04 OVMax= 1.30D-03

 Cycle   6  Pass 0  IDiag  1:
 RMSU=  8.19D-06    CP:  1.00D+00  1.03D+00  9.63D-01  6.38D-01  8.71D-01
 E= -346.926132042791     Delta-E=       -0.000013832619 Rises=F Damp=F
 DIIS: error= 5.22D-05 at cycle   6 NSaved=   6.
 NSaved= 6 IEnMin= 6 EnMin= -346.926132042791     IErMin= 6 ErrMin= 5.22D-05
 ErrMax= 5.22D-05  0.00D+00 EMaxC= 1.00D-01 BMatC= 1.96D-06 BMatP= 1.92D-05
 IDIUse=1 WtCom= 1.00D+00 WtEn= 0.00D+00
 Coeff-Com:  0.176D-03-0.157D-02 0.110D-01 0.473D-01 0.296D+00 0.647D+00
 Coeff:      0.176D-03-0.157D-02 0.110D-01 0.473D-01 0.296D+00 0.647D+00
 Gap=     0.310 Goal=   None    Shift=    0.000
 RMSDP=3.77D-06 MaxDP=1.25D-04 DE=-1.38D-05 OVMax= 5.45D-04

 Initial convergence to 1.0D-05 achieved.  Increase integral accuracy.
 Cycle   7  Pass 1  IDiag  1:
 E= -346.926115867383     Delta-E=        0.000016175408 Rises=F Damp=F
 DIIS: error= 2.78D-05 at cycle   1 NSaved=   1.
 NSaved= 1 IEnMin= 1 EnMin= -346.926115867383     IErMin= 1 ErrMin= 2.78D-05
 ErrMax= 2.78D-05  0.00D+00 EMaxC= 1.00D-01 BMatC= 6.92D-07 BMatP= 6.92D-07
 IDIUse=1 WtCom= 1.00D+00 WtEn= 0.00D+00
 Coeff-Com:  0.100D+01
 Coeff:      0.100D+01
 Gap=     0.310 Goal=   None    Shift=    0.000
 RMSDP=3.77D-06 MaxDP=1.25D-04 DE= 1.62D-05 OVMax= 3.46D-04

 Cycle   8  Pass 1  IDiag  1:
 RMSU=  7.05D-06    CP:  1.00D+00
 E= -346.926116053810     Delta-E=       -0.000000186428 Rises=F Damp=F
 DIIS: error= 2.14D-05 at cycle   2 NSaved=   2.
 NSaved= 2 IEnMin= 2 EnMin= -346.926116053810     IErMin= 2 ErrMin= 2.14D-05
 ErrMax= 2.14D-05  0.00D+00 EMaxC= 1.00D-01 BMatC= 3.01D-07 BMatP= 6.92D-07
 IDIUse=1 WtCom= 1.00D+00 WtEn= 0.00D+00
 Coeff-Com:  0.358D+00 0.642D+00
 Coeff:      0.358D+00 0.642D+00
 Gap=     0.310 Goal=   None    Shift=    0.000
 RMSDP=1.65D-06 MaxDP=6.22D-05 DE=-1.86D-07 OVMax= 3.03D-04

 Cycle   9  Pass 1  IDiag  1:
 RMSU=  1.62D-06    CP:  1.00D+00  9.56D-01
 E= -346.926116233612     Delta-E=       -0.000000179801 Rises=F Damp=F
 DIIS: error= 1.24D-05 at cycle   3 NSaved=   3.
 NSaved= 3 IEnMin= 3 EnMin= -346.926116233612     IErMin= 3 ErrMin= 1.24D-05
 ErrMax= 1.24D-05  0.00D+00 EMaxC= 1.00D-01 BMatC= 9.14D-08 BMatP= 3.01D-07
 IDIUse=1 WtCom= 1.00D+00 WtEn= 0.00D+00
 Coeff-Com: -0.129D-01 0.352D+00 0.661D+00
 Coeff:     -0.129D-01 0.352D+00 0.661D+00
 Gap=     0.310 Goal=   None    Shift=    0.000
 RMSDP=6.52D-07 MaxDP=2.07D-05 DE=-1.80D-07 OVMax= 1.10D-04

 Cycle  10  Pass 1  IDiag  1:
 RMSU=  2.57D-07    CP:  1.00D+00  9.94D-01  6.72D-01
 E= -346.926116306669     Delta-E=       -0.000000073058 Rises=F Damp=F
 DIIS: error= 1.79D-06 at cycle   4 NSaved=   4.
 NSaved= 4 IEnMin= 4 EnMin= -346.926116306669     IErMin= 4 ErrMin= 1.79D-06
 ErrMax= 1.79D-06  0.00D+00 EMaxC= 1.00D-01 BMatC= 1.85D-09 BMatP= 9.14D-08
 IDIUse=1 WtCom= 1.00D+00 WtEn= 0.00D+00
 Coeff-Com: -0.131D-01 0.144D+00 0.296D+00 0.574D+00
 Coeff:     -0.131D-01 0.144D+00 0.296D+00 0.574D+00
 Gap=     0.310 Goal=   None    Shift=    0.000
 RMSDP=7.98D-08 MaxDP=4.11D-06 DE=-7.31D-08 OVMax= 7.59D-06

 Cycle  11  Pass 1  IDiag  1:
 RMSU=  7.68D-08    CP:  1.00D+00  9.96D-01  6.75D-01  9.32D-01
 E= -346.926116308153     Delta-E=       -0.000000001483 Rises=F Damp=F
 DIIS: error= 2.97D-07 at cycle   5 NSaved=   5.
 NSaved= 5 IEnMin= 5 EnMin= -346.926116308153     IErMin= 5 ErrMin= 2.97D-07
 ErrMax= 2.97D-07  0.00D+00 EMaxC= 1.00D-01 BMatC= 6.37D-11 BMatP= 1.85D-09
 IDIUse=1 WtCom= 1.00D+00 WtEn= 0.00D+00
 Coeff-Com: -0.143D-03-0.300D-01-0.481D-01 0.723D-01 0.101D+01
 Coeff:     -0.143D-03-0.300D-01-0.481D-01 0.723D-01 0.101D+01
 Gap=     0.310 Goal=   None    Shift=    0.000
 RMSDP=3.72D-08 MaxDP=1.15D-06 DE=-1.48D-09 OVMax= 3.74D-06

 Cycle  12  Pass 1  IDiag  1:
 RMSU=  2.09D-08    CP:  1.00D+00  9.96D-01  6.80D-01  1.04D+00  1.12D+00
 E= -346.926116308254     Delta-E=       -0.000000000101 Rises=F Damp=F
 DIIS: error= 1.10D-07 at cycle   6 NSaved=   6.
 NSaved= 6 IEnMin= 6 EnMin= -346.926116308254     IErMin= 6 ErrMin= 1.10D-07
 ErrMax= 1.10D-07  0.00D+00 EMaxC= 1.00D-01 BMatC= 7.47D-12 BMatP= 6.37D-11
 IDIUse=1 WtCom= 1.00D+00 WtEn= 0.00D+00
 Coeff-Com:  0.706D-03-0.187D-01-0.336D-01-0.869D-02 0.354D+00 0.706D+00
 Coeff:      0.706D-03-0.187D-01-0.336D-01-0.869D-02 0.354D+00 0.706D+00
 Gap=     0.310 Goal=   None    Shift=    0.000
 RMSDP=9.14D-09 MaxDP=2.74D-07 DE=-1.01D-10 OVMax= 1.09D-06

 SCF Done:  E(RM062X) =  -346.926116308     A.U. after   12 cycles
            NFock= 12  Conv=0.91D-08     -V/T= 2.0063
 KE= 3.447634379339D+02 PE=-1.442435673890D+03 EE= 4.345225242379D+02
 Leave Link  502 at Sat Sep 28 06:23:33 2019, MaxMem=   671088640 cpu:            1595.9 elap:             798.3
 (Enter /shared/centos7/gaussian/g16/l801.exe)
 DoSCS=F DFT=T ScalE2(SS,OS)=  1.000000  1.000000
 Range of M.O.s used for correlation:     1   350
 NBasis=   350 NAE=    28 NBE=    28 NFC=     0 NFV=     0
 NROrb=    350 NOA=    28 NOB=    28 NVA=   322 NVB=   322

 **** Warning!!: The largest alpha MO coefficient is  0.10684651D+02

 Leave Link  801 at Sat Sep 28 06:23:34 2019, MaxMem=   671088640 cpu:               1.7 elap:               0.9
 (Enter /shared/centos7/gaussian/g16/l1101.exe)
 Using compressed storage, NAtomX=    17.
 Will process     18 centers per pass.
 Leave Link 1101 at Sat Sep 28 06:24:05 2019, MaxMem=   671088640 cpu:              61.4 elap:              30.7
 (Enter /shared/centos7/gaussian/g16/l1102.exe)
 Symmetrizing basis deriv contribution to polar:
 IMax=3 JMax=2 DiffMx= 0.00D+00
 Leave Link 1102 at Sat Sep 28 06:24:07 2019, MaxMem=   671088640 cpu:               4.2 elap:               2.1
 (Enter /shared/centos7/gaussian/g16/l1110.exe)
 Forming Gx(P) for the SCF density, NAtomX=    17.
 Integral derivatives from FoFJK, PRISM(SPDF).
 Do as many integral derivatives as possible in FoFJK.
 G2DrvN: MDV=     671087280.
 G2DrvN: will do    18 centers at a time, making    1 passes.
 Calling FoFCou, ICntrl=  3107 FMM=F I1Cent=   0 AccDes= 0.00D+00.
 FoFJK:  IHMeth= 1 ICntrl=    3107 DoSepK=F KAlg= 0 I1Cent=           0 FoldK=F
 IRaf=         0 NMat=       1 IRICut=       1 DoRegI=T DoRafI=F ISym2E= 0 IDoP0=0 IntGTp=1.
 FoFCou: FMM=F IPFlag=           0 FMFlag=      100000 FMFlg1=           0
         NFxFlg=           0 DoJE=F BraDBF=F KetDBF=F FulRan=T
         wScrn=  0.000000 ICntrl=      3107 IOpCl=  0 I1Cent=           0 NGrid=           0
         NMat0=    1 NMatS0=      1 NMatT0=    0 NMatD0=    1 NMtDS0=    0 NMtDT0=    0
 Symmetry not used in FoFCou.
 End of G2Drv F.D. properties file   721 does not exist.
 End of G2Drv F.D. properties file   722 does not exist.
 End of G2Drv F.D. properties file   788 does not exist.
 Leave Link 1110 at Sat Sep 28 06:49:21 2019, MaxMem=   671088640 cpu:            3026.7 elap:            1513.7
 (Enter /shared/centos7/gaussian/g16/l1002.exe)
 Minotr:  Closed shell wavefunction.
          IDoAtm=11111111111111111
          Direct CPHF calculation.
          Differentiating once with respect to nuclear coordinates.
          Requested convergence is 1.0D-08 RMS, and 1.0D-07 maximum.
          Secondary convergence is 1.0D-12 RMS, and 1.0D-12 maximum.
          NewPWx=T KeepS1=F KeepF1=F KeepIn=T MapXYZ=F SortEE=F KeepMc=T.
         5109 words used for storage of precomputed grid.
 Two-electron integrals replicated using symmetry.
          MDV=     671088640 using IRadAn=       1.
          Solving linear equations simultaneously, MaxMat=     380.
 FoF2E skips out because all densities are zero.
 CalDSu exits because no D1Ps are significant.
 FoFJK:  IHMeth= 1 ICntrl=       0 DoSepK=F KAlg= 0 I1Cent=           0 FoldK=F
 IRaf= 930000000 NMat=      51 IRICut=     127 DoRegI=T DoRafI=T ISym2E= 2 IDoP0=3 IntGTp=3.
 FoFCou: FMM=F IPFlag=           0 FMFlag=      100000 FMFlg1=           0
         NFxFlg=           0 DoJE=F BraDBF=F KetDBF=F FulRan=T
         wScrn=  0.000000 ICntrl=         0 IOpCl=  0 I1Cent=           0 NGrid=           0
         NMat0=   51 NMatS0=     51 NMatT0=    0 NMatD0=   51 NMtDS0=    0 NMtDT0=    0
 Integrals replicated using symmetry in FoFCou.
 Raff kept on since  90.79% of shell-pairs survive, threshold=   0.20 IRatSp=91.
          There are    54 degrees of freedom in the 1st order CPHF.  IDoFFX=6 NUNeed=     0.
     48 vectors produced by pass  0 Test12= 1.67D-14 1.85D-09 XBig12= 7.19D-02 6.03D-02.
 AX will form    48 AO Fock derivatives at one time.
     48 vectors produced by pass  1 Test12= 1.67D-14 1.85D-09 XBig12= 7.17D-03 3.65D-02.
     48 vectors produced by pass  2 Test12= 1.67D-14 1.85D-09 XBig12= 2.03D-04 1.99D-03.
     48 vectors produced by pass  3 Test12= 1.67D-14 1.85D-09 XBig12= 2.23D-06 2.22D-04.
     48 vectors produced by pass  4 Test12= 1.67D-14 1.85D-09 XBig12= 1.38D-08 1.64D-05.
     48 vectors produced by pass  5 Test12= 1.67D-14 1.85D-09 XBig12= 7.36D-11 1.01D-06.
     29 vectors produced by pass  6 Test12= 1.67D-14 1.85D-09 XBig12= 3.38D-13 5.41D-08.
      5 vectors produced by pass  7 Test12= 1.67D-14 1.85D-09 XBig12= 1.32D-15 4.37D-09.
 InvSVY:  IOpt=1 It=  1 EMax= 3.05D-16
 Solved reduced A of dimension   322 with    54 vectors.
 End of Minotr F.D. properties file   721 does not exist.
 End of Minotr F.D. properties file   722 does not exist.
 End of Minotr F.D. properties file   788 does not exist.
 Leave Link 1002 at Sat Sep 28 07:31:23 2019, MaxMem=   671088640 cpu:            5043.7 elap:            2522.5
 (Enter /shared/centos7/gaussian/g16/l601.exe)
 Copying SCF densities to generalized density rwf, IOpCl= 0 IROHF=0.

 **********************************************************************

            Population analysis using the SCF density.

 **********************************************************************

 Orbital symmetries:
       Occupied  (A) (A) (A) (A) (A) (A) (A) (A) (A) (A) (A) (A)
                 (A) (A) (A) (A) (A) (A) (A) (A) (A) (A) (A) (A)
                 (A) (A) (A) (A)
       Virtual   (A) (A) (A) (A) (A) (A) (A) (A) (A) (A) (A) (A)
                 (A) (A) (A) (A) (A) (A) (A) (A) (A) (A) (A) (A)
                 (A) (A) (A) (A) (A) (A) (A) (A) (A) (A) (A) (A)
                 (A) (A) (A) (A) (A) (A) (A) (A) (A) (A) (A) (A)
                 (A) (A) (A) (A) (A) (A) (A) (A) (A) (A) (A) (A)
                 (A) (A) (A) (A) (A) (A) (A) (A) (A) (A) (A) (A)
                 (A) (A) (A) (A) (A) (A) (A) (A) (A) (A) (A) (A)
                 (A) (A) (A) (A) (A) (A) (A) (A) (A) (A) (A) (A)
                 (A) (A) (A) (A) (A) (A) (A) (A) (A) (A) (A) (A)
                 (A) (A) (A) (A) (A) (A) (A) (A) (A) (A) (A) (A)
                 (A) (A) (A) (A) (A) (A) (A) (A) (A) (A) (A) (A)
                 (A) (A) (A) (A) (A) (A) (A) (A) (A) (A) (A) (A)
                 (A) (A) (A) (A) (A) (A) (A) (A) (A) (A) (A) (A)
                 (A) (A) (A) (A) (A) (A) (A) (A) (A) (A) (A) (A)
                 (A) (A) (A) (A) (A) (A) (A) (A) (A) (A) (A) (A)
                 (A) (A) (A) (A) (A) (A) (A) (A) (A) (A) (A) (A)
                 (A) (A) (A) (A) (A) (A) (A) (A) (A) (A) (A) (A)
                 (A) (A) (A) (A) (A) (A) (A) (A) (A) (A) (A) (A)
                 (A) (A) (A) (A) (A) (A) (A) (A) (A) (A) (A) (A)
                 (A) (A) (A) (A) (A) (A) (A) (A) (A) (A) (A) (A)
                 (A) (A) (A) (A) (A) (A) (A) (A) (A) (A) (A) (A)
                 (A) (A) (A) (A) (A) (A) (A) (A) (A) (A) (A) (A)
                 (A) (A) (A) (A) (A) (A) (A) (A) (A) (A) (A) (A)
                 (A) (A) (A) (A) (A) (A) (A) (A) (A) (A) (A) (A)
                 (A) (A) (A) (A) (A) (A) (A) (A) (A) (A) (A) (A)
                 (A) (A) (A) (A) (A) (A) (A) (A) (A) (A) (A) (A)
                 (A) (A) (A) (A) (A) (A) (A) (A) (A) (A)
 The electronic state is 1-A.
 Alpha  occ. eigenvalues --  -19.64617 -19.64611 -10.59707 -10.57879 -10.57641
 Alpha  occ. eigenvalues --  -10.53655 -10.53511  -1.18442  -1.15956  -0.89274
 Alpha  occ. eigenvalues --   -0.84294  -0.78071  -0.70745  -0.63162  -0.62601
 Alpha  occ. eigenvalues --   -0.57414  -0.54059  -0.53019  -0.49797  -0.46849
 Alpha  occ. eigenvalues --   -0.46320  -0.44775  -0.44714  -0.42825  -0.41130
 Alpha  occ. eigenvalues --   -0.39392  -0.37454  -0.26744
 Alpha virt. eigenvalues --    0.04265   0.07211   0.08301   0.10019   0.11333
 Alpha virt. eigenvalues --    0.11910   0.12839   0.14394   0.14875   0.16161
 Alpha virt. eigenvalues --    0.17828   0.19673   0.21803   0.22627   0.25194
 Alpha virt. eigenvalues --    0.26842   0.29794   0.31359   0.32609   0.33038
 Alpha virt. eigenvalues --    0.35030   0.36407   0.36653   0.38850   0.41002
 Alpha virt. eigenvalues --    0.41670   0.42856   0.44280   0.45169   0.46944
 Alpha virt. eigenvalues --    0.47621   0.48424   0.48848   0.49575   0.50038
 Alpha virt. eigenvalues --    0.50655   0.51863   0.52143   0.53175   0.53964
 Alpha virt. eigenvalues --    0.56269   0.57495   0.59507   0.61056   0.63880
 Alpha virt. eigenvalues --    0.65593   0.67071   0.67890   0.70200   0.71107
 Alpha virt. eigenvalues --    0.72725   0.75991   0.78362   0.79768   0.81812
 Alpha virt. eigenvalues --    0.83112   0.86054   0.88143   0.89691   0.90834
 Alpha virt. eigenvalues --    0.91407   0.93142   0.95894   0.96741   0.99064
 Alpha virt. eigenvalues --    1.01642   1.02259   1.04881   1.05499   1.06565
 Alpha virt. eigenvalues --    1.08836   1.09563   1.11608   1.12447   1.13620
 Alpha virt. eigenvalues --    1.14345   1.15932   1.17576   1.19718   1.20458
 Alpha virt. eigenvalues --    1.22391   1.23389   1.26327   1.27533   1.28415
 Alpha virt. eigenvalues --    1.29663   1.31563   1.31891   1.33374   1.35038
 Alpha virt. eigenvalues --    1.36469   1.36901   1.38451   1.40273   1.41926
 Alpha virt. eigenvalues --    1.44631   1.45687   1.47744   1.50441   1.51070
 Alpha virt. eigenvalues --    1.53659   1.56520   1.58110   1.60043   1.61493
 Alpha virt. eigenvalues --    1.66348   1.67898   1.73703   1.78111   1.80360
 Alpha virt. eigenvalues --    1.86564   1.89513   1.98989   2.01022   2.02717
 Alpha virt. eigenvalues --    2.05166   2.09958   2.17102   2.18540   2.20689
 Alpha virt. eigenvalues --    2.27355   2.28796   2.29855   2.32417   2.35345
 Alpha virt. eigenvalues --    2.36888   2.39174   2.42187   2.45654   2.46109
 Alpha virt. eigenvalues --    2.47637   2.51465   2.53352   2.56472   2.59026
 Alpha virt. eigenvalues --    2.60757   2.62951   2.63952   2.66204   2.69673
 Alpha virt. eigenvalues --    2.71913   2.73054   2.75125   2.77533   2.80560
 Alpha virt. eigenvalues --    2.81663   2.82964   2.84577   2.85446   2.86301
 Alpha virt. eigenvalues --    2.86861   2.88653   2.90953   2.93373   2.93787
 Alpha virt. eigenvalues --    2.95991   2.96890   2.97396   2.98144   3.01021
 Alpha virt. eigenvalues --    3.01436   3.02859   3.03668   3.05992   3.07608
 Alpha virt. eigenvalues --    3.08359   3.10023   3.11155   3.12270   3.13866
 Alpha virt. eigenvalues --    3.17188   3.17462   3.20752   3.21529   3.22262
 Alpha virt. eigenvalues --    3.24524   3.27363   3.28805   3.29205   3.30527
 Alpha virt. eigenvalues --    3.31837   3.33237   3.34625   3.35809   3.36583
 Alpha virt. eigenvalues --    3.38496   3.40915   3.41983   3.42431   3.43928
 Alpha virt. eigenvalues --    3.45977   3.48272   3.49052   3.50430   3.52275
 Alpha virt. eigenvalues --    3.54103   3.55469   3.56355   3.59368   3.60818
 Alpha virt. eigenvalues --    3.61616   3.63802   3.66072   3.68269   3.69814
 Alpha virt. eigenvalues --    3.70664   3.73677   3.77395   3.77880   3.79727
 Alpha virt. eigenvalues --    3.81468   3.82111   3.83774   3.85234   3.87456
 Alpha virt. eigenvalues --    3.88910   3.90018   3.91256   3.93322   3.94891
 Alpha virt. eigenvalues --    3.95568   3.97427   3.98228   3.99458   4.00271
 Alpha virt. eigenvalues --    4.02210   4.03209   4.03664   4.05033   4.05593
 Alpha virt. eigenvalues --    4.09024   4.11687   4.13737   4.15098   4.16401
 Alpha virt. eigenvalues --    4.18508   4.21734   4.24336   4.27544   4.30379
 Alpha virt. eigenvalues --    4.34294   4.36622   4.38242   4.38529   4.43174
 Alpha virt. eigenvalues --    4.45934   4.49415   4.50887   4.54289   4.56357
 Alpha virt. eigenvalues --    4.57957   4.61050   4.64266   4.66200   4.70115
 Alpha virt. eigenvalues --    4.71553   4.73602   4.77097   4.79257   4.81328
 Alpha virt. eigenvalues --    4.84589   4.88147   4.89508   4.93623   4.94902
 Alpha virt. eigenvalues --    4.95526   4.99460   5.00873   5.04719   5.07091
 Alpha virt. eigenvalues --    5.08081   5.10142   5.12127   5.14001   5.18676
 Alpha virt. eigenvalues --    5.20506   5.23658   5.24084   5.25667   5.28483
 Alpha virt. eigenvalues --    5.29214   5.33924   5.36576   5.41009   5.46669
 Alpha virt. eigenvalues --    5.51450   5.54533   5.67839   5.70414   5.74998
 Alpha virt. eigenvalues --    5.75607   5.78128   5.80011   5.83679   5.84769
 Alpha virt. eigenvalues --    5.91839   5.98979   6.00440   6.19891   6.25754
 Alpha virt. eigenvalues --    6.32957   6.41099   6.57638   6.62699   6.71457
 Alpha virt. eigenvalues --    6.75310   6.75866   6.76740   6.82581   6.95809
 Alpha virt. eigenvalues --    7.04373   7.19703   7.27199   7.35503   7.40631
 Alpha virt. eigenvalues --   10.63367  11.02109  11.70511  11.77508  13.24636
 Alpha virt. eigenvalues --   13.42572  14.42120
          Condensed to atoms (all electrons):
               1          2          3          4          5          6
     1  O    7.821208   0.001856   0.299560  -0.064671  -0.042480   0.389206
     2  O    0.001856   7.795277  -0.001340  -0.000548  -0.000041  -0.064748
     3  C    0.299560  -0.001340   4.956306   0.268585   0.316782  -0.095404
     4  C   -0.064671  -0.000548   0.268585   5.160888  -0.051992   0.028838
     5  C   -0.042480  -0.000041   0.316782  -0.051992   4.961344   0.001846
     6  C    0.389206  -0.064748  -0.095404   0.028838   0.001846   4.951853
     7  C   -0.086385   0.334578  -0.010162   0.001976   0.002653   0.527151
     8  H   -0.050532  -0.000334   0.409166  -0.101960  -0.025160  -0.016544
     9  H    0.001555   0.000226  -0.032543   0.378864   0.002424  -0.002540
    10  H    0.005401   0.000685  -0.035004   0.379600   0.005970  -0.003873
    11  H    0.002357  -0.000024  -0.041891   0.399421  -0.007500   0.001104
    12  H    0.001566   0.000001  -0.044502  -0.010426   0.404220  -0.000294
    13  H    0.002859  -0.000000  -0.033893   0.010561   0.398362  -0.000015
    14  H    0.003698  -0.000001  -0.046277  -0.002996   0.400826  -0.000065
    15  H   -0.031963   0.003163   0.007506   0.000077  -0.000246   0.403443
    16  H   -0.003468  -0.049704   0.011753  -0.006183   0.001606  -0.081617
    17  H   -0.000321   0.332762  -0.000101  -0.000097  -0.000006   0.007931
               7          8          9         10         11         12
     1  O   -0.086385  -0.050532   0.001555   0.005401   0.002357   0.001566
     2  O    0.334578  -0.000334   0.000226   0.000685  -0.000024   0.000001
     3  C   -0.010162   0.409166  -0.032543  -0.035004  -0.041891  -0.044502
     4  C    0.001976  -0.101960   0.378864   0.379600   0.399421  -0.010426
     5  C    0.002653  -0.025160   0.002424   0.005970  -0.007500   0.404220
     6  C    0.527151  -0.016544  -0.002540  -0.003873   0.001104  -0.000294
     7  C    4.920730   0.014206  -0.004413  -0.009891   0.000873   0.000149
     8  H    0.014206   0.668754   0.009279  -0.007688   0.004301   0.010160
     9  H   -0.004413   0.009279   0.553145  -0.030765  -0.024567   0.001494
    10  H   -0.009891  -0.007688  -0.030765   0.622396  -0.035097   0.000193
    11  H    0.000873   0.004301  -0.024567  -0.035097   0.584170   0.000923
    12  H    0.000149   0.010160   0.001494   0.000193   0.000923   0.581106
    13  H   -0.000069  -0.010793  -0.000587  -0.000636   0.000544  -0.030141
    14  H   -0.000156  -0.003587   0.000541  -0.000279  -0.002218  -0.033213
    15  H   -0.064491  -0.000434  -0.000253  -0.000071   0.000056  -0.000080
    16  H    0.438549  -0.004523  -0.001670  -0.002333   0.000703  -0.000065
    17  H   -0.043433   0.000108   0.000036   0.000066  -0.000006   0.000001
              13         14         15         16         17
     1  O    0.002859   0.003698  -0.031963  -0.003468  -0.000321
     2  O   -0.000000  -0.000001   0.003163  -0.049704   0.332762
     3  C   -0.033893  -0.046277   0.007506   0.011753  -0.000101
     4  C    0.010561  -0.002996   0.000077  -0.006183  -0.000097
     5  C    0.398362   0.400826  -0.000246   0.001606  -0.000006
     6  C   -0.000015  -0.000065   0.403443  -0.081617   0.007931
     7  C   -0.000069  -0.000156  -0.064491   0.438549  -0.043433
     8  H   -0.010793  -0.003587  -0.000434  -0.004523   0.000108
     9  H   -0.000587   0.000541  -0.000253  -0.001670   0.000036
    10  H   -0.000636  -0.000279  -0.000071  -0.002333   0.000066
    11  H    0.000544  -0.002218   0.000056   0.000703  -0.000006
    12  H   -0.030141  -0.033213  -0.000080  -0.000065   0.000001
    13  H    0.568292  -0.028445  -0.000013   0.000020  -0.000000
    14  H   -0.028445   0.606986   0.000025   0.000121   0.000001
    15  H   -0.000013   0.000025   0.530115   0.005248  -0.000627
    16  H    0.000020   0.000121   0.005248   0.590189  -0.011092
    17  H   -0.000000   0.000001  -0.000627  -0.011092   0.450747
 Mulliken charges:
               1
     1  O   -0.249446
     2  O   -0.351808
     3  C    0.071461
     4  C   -0.389939
     5  C   -0.368607
     6  C   -0.046273
     7  C   -0.021867
     8  H    0.105581
     9  H    0.149772
    10  H    0.111327
    11  H    0.116852
    12  H    0.118910
    13  H    0.123956
    14  H    0.105038
    15  H    0.148546
    16  H    0.112464
    17  H    0.264032
 Sum of Mulliken charges =  -0.00000
 Mulliken charges with hydrogens summed into heavy atoms:
               1
     1  O   -0.249446
     2  O   -0.087777
     3  C    0.177042
     4  C   -0.011988
     5  C   -0.020703
     6  C    0.102274
     7  C    0.090597
 APT charges:
               1
     1  O   -0.169337
     2  O   -0.584784
     3  C   -0.003867
     4  C   -1.042844
     5  C   -1.350639
     6  C   -0.418374
     7  C   -0.246258
     8  H    0.252436
     9  H    0.272225
    10  H    0.265480
    11  H    0.467917
    12  H    0.397983
    13  H    0.389671
    14  H    0.436170
    15  H    0.468366
    16  H    0.191693
    17  H    0.674160
 Sum of APT charges =  -0.00000
 APT charges with hydrogens summed into heavy atoms:
               1
     1  O   -0.169337
     2  O    0.089375
     3  C    0.248570
     4  C   -0.037221
     5  C   -0.126815
     6  C    0.049993
     7  C   -0.054565
 Electronic spatial extent (au):  <R**2>=            971.2416
 Charge=             -0.0000 electrons
 Dipole moment (field-independent basis, Debye):
    X=             -0.4587    Y=              2.3012    Z=             -1.2602  Tot=              2.6634
 Quadrupole moment (field-independent basis, Debye-Ang):
   XX=            -43.7105   YY=            -42.7735   ZZ=            -43.6621
   XY=              3.0983   XZ=             -1.7763   YZ=             -2.3513
 Traceless Quadrupole moment (field-independent basis, Debye-Ang):
   XX=             -0.3284   YY=              0.6085   ZZ=             -0.2801
   XY=              3.0983   XZ=             -1.7763   YZ=             -2.3513
 Octapole moment (field-independent basis, Debye-Ang**2):
  XXX=              4.5932  YYY=             -1.3900  ZZZ=              0.1761  XYY=             12.2562
  XXY=             14.4215  XXZ=             -9.0930  XZZ=              5.3702  YZZ=              0.1473
  YYZ=             -1.4312  XYZ=             -7.5808
 Hexadecapole moment (field-independent basis, Debye-Ang**3):
 XXXX=           -915.5129 YYYY=           -235.5692 ZZZZ=           -111.2628 XXXY=             55.4405
 XXXZ=            -36.3048 YYYX=              9.4375 YYYZ=             -8.6821 ZZZX=             -5.9605
 ZZZY=             -4.6176 XXYY=           -168.5682 XXZZ=           -163.5236 YYZZ=            -55.2192
 XXYZ=            -19.5415 YYXZ=             -1.6593 ZZXY=              5.4044
 N-N= 3.162235954104D+02 E-N=-1.442435702974D+03  KE= 3.447634379339D+02
  Exact polarizability:   0.000   0.000   0.000   0.000   0.000   0.000
 Approx polarizability:  86.692   5.892  80.688  -4.226  -9.007  73.050
 No NMR shielding tensors so no spin-rotation constants.
 Leave Link  601 at Sat Sep 28 07:31:55 2019, MaxMem=   671088640 cpu:              63.2 elap:              31.7
 (Enter /shared/centos7/gaussian/g16/l701.exe)
 SCFChk:  SCF convergence  9.14D-09 required  1.00D-08
 ... and contract with generalized density number  0.
 Compute integral second derivatives.
 Entering OneElI...
 Calculate overlap and kinetic energy integrals
    NBasis = 395  MinDer = 2  MaxDer = 2
 Requested accuracy = 0.1000D-12
 PrmmSu-InSpLW:  IPartL=    0 NPrtUS=   20 NPrtUL=    1 DoSpLW=F IThBeg=    0 IThEnd=   19 NThAct=   20.
 PrsmSu:  NPrtUS=  20 ThrOK=T IAlg=1 NPAlg=1 LenDen=           0 ISkipM=0 DoSpLW=F IThBeg=    0 IThEnd=   19.
 Prism:   IPart=     0 DynPar=F LinDyn=F Incr=           4.
 PRISM was handed    33312602 working-precision words and  8399 shell-pairs
 PRISM was handed    33312602 working-precision words and  8399 shell-pairs
 PRISM was handed    33312602 working-precision words and  8399 shell-pairs
 PRISM was handed    33312602 working-precision words and  8399 shell-pairs
 PRISM was handed    33312602 working-precision words and  8399 shell-pairs
 PRISM was handed    33312602 working-precision words and  8399 shell-pairs
 PRISM was handed    33312602 working-precision words and  8399 shell-pairs
 PRISM was handed    33312602 working-precision words and  8399 shell-pairs
 PRISM was handed    33312602 working-precision words and  8399 shell-pairs
 PRISM was handed    33312602 working-precision words and  8399 shell-pairs
 PRISM was handed    33312602 working-precision words and  8399 shell-pairs
 PRISM was handed    33312602 working-precision words and  8399 shell-pairs
 PRISM was handed    33312602 working-precision words and  8399 shell-pairs
 PRISM was handed    33312602 working-precision words and  8399 shell-pairs
 PRISM was handed    33312602 working-precision words and  8399 shell-pairs
 PRISM was handed    33312602 working-precision words and  8399 shell-pairs
 PRISM was handed    33312602 working-precision words and  8399 shell-pairs
 PRISM was handed    33312602 working-precision words and  8399 shell-pairs
 PRISM was handed    33312602 working-precision words and  8399 shell-pairs
 PRISM was handed    33312602 working-precision words and  8399 shell-pairs
 IPart= 12 NShTot=         408 NBatch=          42 AvBLen=         9.7
 IPart=  3 NShTot=         446 NBatch=          68 AvBLen=         6.6
 IPart=  8 NShTot=         417 NBatch=          49 AvBLen=         8.5
 IPart= 16 NShTot=         394 NBatch=          38 AvBLen=        10.4
 IPart=  9 NShTot=         415 NBatch=          48 AvBLen=         8.6
 IPart=  0 NShTot=         468 NBatch=          86 AvBLen=         5.4
 IPart= 11 NShTot=         412 NBatch=          46 AvBLen=         9.0
 IPart= 10 NShTot=         415 NBatch=          48 AvBLen=         8.6
 IPart= 19 NShTot=         393 NBatch=          37 AvBLen=        10.6
 IPart=  5 NShTot=         435 NBatch=          63 AvBLen=         6.9
 IPart=  6 NShTot=         429 NBatch=          59 AvBLen=         7.3
 IPart= 13 NShTot=         404 NBatch=          40 AvBLen=        10.1
 IPart= 15 NShTot=         398 NBatch=          39 AvBLen=        10.2
 IPart=  2 NShTot=         452 NBatch=          73 AvBLen=         6.2
 IPart=  1 NShTot=         463 NBatch=          83 AvBLen=         5.6
 IPart=  7 NShTot=         418 NBatch=          49 AvBLen=         8.5
 IPart= 14 NShTot=         404 NBatch=          40 AvBLen=        10.1
 IPart=  4 NShTot=         441 NBatch=          64 AvBLen=         6.9
 IPart= 18 NShTot=         393 NBatch=          37 AvBLen=        10.6
 IPart= 17 NShTot=         394 NBatch=          38 AvBLen=        10.4
 PrSmSu:  NxtVal=             81.
 Entering OneElI...
 Calculate potential energy integrals
    NBasis = 395  MinDer = 2  MaxDer = 2
 Requested accuracy = 0.1000D-12
 PrmmSu-InSpLW:  IPartL=    0 NPrtUS=   20 NPrtUL=    1 DoSpLW=F IThBeg=    0 IThEnd=   19 NThAct=   20.
 PrsmSu:  NPrtUS=  20 ThrOK=T IAlg=1 NPAlg=1 LenDen=           0 ISkipM=0 DoSpLW=F IThBeg=    0 IThEnd=   19.
 Prism:   IPart=     0 DynPar=F LinDyn=F Incr=          65.
 PRISM was handed    33354587 working-precision words and  7679 shell-pairs
 PRISM was handed    33354587 working-precision words and  7679 shell-pairs
 PRISM was handed    33354587 working-precision words and  7679 shell-pairs
 PRISM was handed    33354587 working-precision words and  7679 shell-pairs
 PRISM was handed    33354587 working-precision words and  7679 shell-pairs
 PRISM was handed    33354587 working-precision words and  7679 shell-pairs
 PRISM was handed    33354587 working-precision words and  7679 shell-pairs
 PRISM was handed    33354587 working-precision words and  7679 shell-pairs
 PRISM was handed    33354587 working-precision words and  7679 shell-pairs
 PRISM was handed    33354587 working-precision words and  7679 shell-pairs
 PRISM was handed    33354587 working-precision words and  7679 shell-pairs
 PRISM was handed    33354587 working-precision words and  7679 shell-pairs
 PRISM was handed    33354587 working-precision words and  7679 shell-pairs
 PRISM was handed    33354587 working-precision words and  7679 shell-pairs
 PRISM was handed    33354587 working-precision words and  7679 shell-pairs
 PRISM was handed    33354587 working-precision words and  7679 shell-pairs
 PRISM was handed    33354587 working-precision words and  7679 shell-pairs
 PRISM was handed    33354587 working-precision words and  7679 shell-pairs
 PRISM was handed    33354587 working-precision words and  7679 shell-pairs
 PRISM was handed    33354587 working-precision words and  7679 shell-pairs
 IPart= 16 NShTot=        6222 NBatch=         366 AvBLen=        17.0
 IPart=  8 NShTot=        6528 NBatch=         384 AvBLen=        17.0
 IPart=  0 NShTot=        7140 NBatch=         420 AvBLen=        17.0
 IPart=  9 NShTot=        6477 NBatch=         381 AvBLen=        17.0
 IPart= 19 NShTot=        6086 NBatch=         358 AvBLen=        17.0
 IPart=  5 NShTot=        6698 NBatch=         394 AvBLen=        17.0
 IPart=  3 NShTot=        6902 NBatch=         406 AvBLen=        17.0
 IPart= 11 NShTot=        6392 NBatch=         376 AvBLen=        17.0
 IPart= 12 NShTot=        6358 NBatch=         374 AvBLen=        17.0
 IPart= 13 NShTot=        6307 NBatch=         371 AvBLen=        17.0
 IPart=  4 NShTot=        6817 NBatch=         401 AvBLen=        17.0
 IPart= 15 NShTot=        6273 NBatch=         369 AvBLen=        17.0
 IPart=  6 NShTot=        6698 NBatch=         394 AvBLen=        17.0
 IPart= 17 NShTot=        6188 NBatch=         364 AvBLen=        17.0
 IPart= 18 NShTot=        6137 NBatch=         361 AvBLen=        17.0
 IPart=  1 NShTot=        7072 NBatch=         416 AvBLen=        17.0
 IPart=  7 NShTot=        6545 NBatch=         385 AvBLen=        17.0
 IPart=  2 NShTot=        6987 NBatch=         411 AvBLen=        17.0
 IPart= 14 NShTot=        6290 NBatch=         370 AvBLen=        17.0
 IPart= 10 NShTot=        6426 NBatch=         378 AvBLen=        17.0
 PrSmSu:  NxtVal=           1301.
 Polarizability after L701:
                1             2             3 
      1  0.000000D+00
      2  0.000000D+00  0.000000D+00
      3  0.000000D+00  0.000000D+00  0.000000D+00
 Dipole Derivatives after L701:
                 1             2             3             4             5 
      1  -0.228512D+00  0.459122D-01 -0.100710D-01 -0.364100D+00 -0.155895D+01
      2   0.258112D+00 -0.870207D-01 -0.713185D-01 -0.224205D+00 -0.816518D+00
      3  -0.942159D-01 -0.749986D-01 -0.192479D+00  0.132518D+00  0.304300D+00
                 6             7             8             9            10 
      1   0.993030D+00  0.412215D+00  0.238287D-01 -0.270463D+00 -0.895303D+00
      2   0.253556D+00  0.116344D+00  0.650958D-01  0.238405D+00 -0.105722D+00
      3  -0.573735D+00  0.176786D+00  0.156250D+00 -0.488911D+00 -0.612346D-01
                11            12            13            14            15 
      1   0.524549D+00  0.325423D+00 -0.200946D+01 -0.282385D+00 -0.124730D+00
      2  -0.134770D+01 -0.271210D+00 -0.667775D-01 -0.997641D+00  0.495929D-02
      3  -0.264774D-01 -0.885532D+00 -0.164246D+00 -0.235540D-01 -0.104482D+01
                16            17            18            19            20 
      1  -0.556706D+00 -0.499250D-01 -0.124445D+00 -0.219032D+00  0.300781D+00
      2   0.222296D-01 -0.519575D+00  0.394526D+00  0.141590D+00 -0.364504D+00
      3  -0.429547D-01  0.334109D+00 -0.178840D+00 -0.178606D+00  0.288881D+00
                21            22            23            24            25 
      1  -0.924465D-01  0.622928D-01 -0.329870D-01  0.238519D+00  0.529954D-01
      2   0.286302D+00  0.554155D-01  0.188422D+00 -0.321009D-01  0.206707D+00
      3  -0.155237D+00 -0.128836D+00 -0.786931D-01  0.506594D+00  0.306274D+00
                26            27            28            29            30 
      1  -0.114940D-01 -0.134192D+00  0.742118D-01 -0.464881D-01  0.125176D-01
      2   0.854064D-01  0.352100D+00  0.494084D+00  0.554221D+00 -0.392852D+00
      3  -0.769800D-01  0.678273D+00 -0.574663D-01 -0.470093D-01  0.168008D+00
                31            32            33            34            35 
      1   0.818942D+00 -0.358669D+00 -0.122981D+00  0.689362D+00  0.181289D+00
      2  -0.615151D+00  0.451212D+00  0.124433D+00  0.111265D+00  0.136055D+00
      3  -0.217007D+00  0.126527D+00  0.133598D+00 -0.128790D+00 -0.437904D-01
                36            37            38            39            40 
      1  -0.988065D+00  0.254111D+00  0.829292D+00  0.570513D+00  0.737420D+00
      2  -0.171170D+00  0.659279D-01  0.555834D+00  0.310217D+00 -0.127553D+00
      3   0.368534D+00  0.324390D-01  0.354038D+00  0.359068D+00  0.210167D+00
                41            42            43            44            45 
      1  -0.818321D+00  0.494017D+00  0.408287D+00 -0.454960D+00  0.315468D+00
      2   0.298662D+00 -0.119329D+00 -0.311302D+00  0.679728D+00 -0.406993D+00
      3  -0.281635D+00  0.272427D+00  0.169684D+00 -0.330486D+00  0.317085D+00
                46            47            48            49            50 
      1  -0.823248D-01  0.327681D+00 -0.234297D+00  0.845595D+00  0.138084D+01
      2  -0.169225D+00  0.408435D+00 -0.234865D+00  0.148258D+00  0.709885D+00
      3   0.154433D+00 -0.272916D+00  0.248968D+00 -0.108944D+00 -0.307565D+00
                51 
      1  -0.847797D+00
      2  -0.264661D+00
      3   0.466999D+00
 Hessian after L701:
                1             2             3             4             5 
      1  0.492138D+01
      2  0.218233D+01  0.132436D+02
      3 -0.196546D+01  0.253722D+01  0.176015D+02
      4  0.408200D+00  0.205343D+00 -0.102584D+00  0.397252D+01
      5  0.176689D+00 -0.160295D+00 -0.245688D-01 -0.225796D+01  0.109904D+02
      6 -0.812986D-01 -0.210142D-01 -0.200761D+00  0.101138D+01  0.209972D+01
      7 -0.575621D+01 -0.343503D+01  0.206030D+01  0.189545D+00 -0.141660D-01
      8 -0.322554D+01 -0.431033D+01 -0.297950D+01 -0.773383D-02 -0.108523D+00
      9  0.196022D+01 -0.293013D+01 -0.790471D+01 -0.150091D-01  0.150398D-01
     10 -0.140077D+00 -0.910646D-01 -0.110045D+00  0.179567D+00 -0.133684D+00
     11 -0.465756D-01  0.579556D+00  0.555109D+00 -0.621304D-01 -0.925604D-01
     12 -0.738501D-01  0.370913D+00 -0.387628D-01 -0.298064D-01  0.178065D-01
     13  0.298275D+00 -0.119648D+00  0.208191D+00  0.673954D-01  0.341594D-02
     14 -0.168362D+00 -0.205268D+00 -0.315158D-01  0.537607D-02 -0.476184D-01
     15  0.213699D+00 -0.155812D-01 -0.106504D+00  0.296122D-02  0.120033D-02
     16  0.318681D+00  0.103524D+01  0.168771D+00 -0.351839D+00  0.645412D-01
     17  0.727311D+00 -0.980180D+01 -0.730304D-01  0.100057D+00  0.866513D-01
     18  0.233607D+00 -0.849777D-01 -0.100440D+02 -0.127224D+00  0.611168D-01
     19 -0.616002D-01  0.148106D+00 -0.216718D+00  0.787187D+00  0.540810D+00
     20  0.221469D+00  0.348281D+00  0.148028D-01  0.555952D+00 -0.827977D+01
     21 -0.188657D+00  0.351706D-01  0.409794D+00  0.225280D+00  0.254139D-01
     22  0.166831D+00  0.154127D+00 -0.148108D+00  0.173002D-01  0.870845D-02
     23  0.121358D+00 -0.196577D+00  0.191526D+00 -0.596897D-02 -0.158473D-01
     24 -0.131754D+00  0.239129D+00  0.383859D+00  0.422597D-01 -0.357973D-02
     25 -0.692534D-01  0.395113D-01  0.224983D-01  0.117161D-01 -0.776566D-02
     26  0.559137D-02  0.997443D-01  0.823434D-02 -0.105822D-01 -0.151503D-01
     27  0.896160D-02  0.858125D-01 -0.597901D-01 -0.403164D-01  0.182090D-01
     28 -0.563570D-01  0.330097D-01 -0.783674D-02  0.164399D-01 -0.185964D-01
     29  0.143022D-01  0.179376D+00 -0.656230D-01 -0.443154D-01  0.890153D-02
     30 -0.782358D-02 -0.706843D-01 -0.417920D-01  0.136155D-01 -0.115231D-01
     31  0.124915D-01 -0.950883D-01 -0.108988D-01  0.209727D-01 -0.157644D-01
     32 -0.712659D-01  0.872084D-01  0.166905D-01 -0.125800D-01  0.251082D-03
     33 -0.119280D-01  0.227449D-01 -0.404989D-01 -0.541029D-02  0.311280D-02
     34  0.107865D+00 -0.361470D-01  0.335591D-01  0.158153D-01 -0.102308D-02
     35 -0.209272D-01 -0.511680D-01 -0.698615D-02  0.281160D-02 -0.533363D-02
     36 -0.262470D-01  0.396457D-02 -0.543037D-01 -0.116386D-01  0.232137D-02
     37  0.718427D-01 -0.988879D-02  0.544446D-01  0.117757D-01  0.223459D-02
     38  0.419168D-01 -0.591248D-01  0.243365D-01  0.139327D-01 -0.555876D-02
     39  0.884179D-01 -0.293874D-02 -0.245946D-01  0.101832D-01  0.135999D-03
     40  0.630691D-01 -0.915138D-01  0.661200D-01  0.148135D-01 -0.535407D-02
     41 -0.818941D-01  0.193453D-01 -0.479659D-01 -0.837362D-02 -0.104532D-02
     42  0.608484D-01 -0.492972D-01 -0.656034D-02  0.610332D-02 -0.248685D-02
     43 -0.286439D+00  0.463169D-01 -0.317724D-01  0.324421D-01  0.638452D-01
     44  0.189510D-01  0.164435D+00 -0.533816D-01  0.119298D+00  0.969516D-02
     45 -0.102113D-01 -0.482105D-01  0.131166D+00 -0.727011D-01 -0.513659D-01
     46 -0.164018D-01  0.223532D-01 -0.137195D-01 -0.270966D+00  0.594387D-01
     47  0.672678D-01  0.528370D-01 -0.562931D-01  0.108290D+00  0.247732D+00
     48 -0.456288D-01 -0.618308D-01 -0.231764D-02 -0.140975D+00 -0.144239D-01
     49  0.177022D-01  0.120482D-01 -0.674675D-02 -0.512288D+01  0.153463D+01
     50  0.373810D-01  0.101865D-01 -0.905054D-02  0.129859D+01 -0.261197D+01
     51 -0.228990D-01 -0.102829D-01 -0.164341D-02 -0.766121D+00 -0.213613D+01
                6             7             8             9            10 
      6  0.133841D+02
      7  0.442926D-01  0.173863D+02
      8  0.498291D-02  0.209644D+01  0.174595D+02
      9 -0.119946D+00 -0.172734D+01  0.152746D+01  0.207842D+02
     10 -0.594506D-01 -0.583101D+01  0.285347D+00  0.145425D+00  0.139101D+02
     11  0.264271D-01  0.387219D+00 -0.221729D+01  0.189145D+01  0.299204D+00
     12 -0.100567D+00  0.168869D+00  0.187971D+01 -0.501496D+01 -0.127653D+00
     13  0.970833D-02 -0.211780D+01  0.101290D+01  0.651228D+00  0.569022D-01
     14  0.507990D-03  0.987262D+00 -0.613515D+01  0.147724D+00  0.238093D+00
     15 -0.481428D-01  0.637809D+00  0.141722D+00 -0.622393D+01  0.104515D+00
     16 -0.148087D+00  0.299051D+00 -0.159541D+00 -0.952945D-02  0.397559D-02
     17  0.522170D-01 -0.692653D-01  0.184008D+00  0.112057D+00 -0.425979D+00
     18  0.165338D+00 -0.493040D-01  0.807112D-01  0.188662D+00  0.404391D-01
     19  0.260170D+00  0.988290D-01 -0.420845D-01 -0.171506D+00  0.428173D+00
     20  0.305322D-01 -0.543595D-01 -0.170447D+00  0.434452D-01 -0.161029D+00
     21 -0.838467D+01 -0.528662D-01  0.493941D-01 -0.127603D+00  0.434576D-01
     22  0.241886D-01 -0.461125D+01  0.101393D+00 -0.771757D+00  0.380514D+00
     23 -0.208872D-02  0.138472D+00 -0.470548D+01 -0.520728D+00  0.259306D-01
     24  0.254783D-02 -0.926201D+00 -0.470903D+00 -0.188737D+01  0.262895D-01
     25 -0.122051D-01  0.702073D-01 -0.128998D-01 -0.169405D-01 -0.367768D+01
     26  0.356515D-02 -0.521353D-01  0.388575D-01 -0.110824D+00 -0.657606D-01
     27 -0.146751D-02 -0.426942D-01 -0.595506D-01 -0.280682D-01  0.107736D+01
     28  0.106959D-02  0.859155D-01 -0.206529D-01 -0.374633D-01 -0.327989D+01
     29 -0.409497D-02 -0.741628D-01 -0.103864D+00 -0.699757D-01  0.108293D+01
     30 -0.198937D-01 -0.426671D-01 -0.714618D-01  0.929545D-01 -0.722382D+00
     31 -0.118329D-02  0.117516D+00  0.361029D-01  0.126312D-01 -0.211007D+01
     32  0.573262D-03  0.692112D-01 -0.833364D-01 -0.531174D-01 -0.114685D+01
     33 -0.700806D-02  0.233972D-01 -0.506575D-01  0.776708D-01 -0.436368D+00
     34 -0.628530D-03  0.957496D-02 -0.440025D-01  0.777222D-01 -0.182000D-01
     35  0.104610D-03 -0.382909D-01  0.680483D-01  0.307611D-01 -0.752020D-02
     36 -0.525682D-02  0.120034D-01  0.119453D-01  0.102985D+00 -0.731423D-02
     37  0.355583D-02  0.364948D-02 -0.950903D-01 -0.150461D-01 -0.252551D-02
     38  0.485631D-02 -0.377758D-01  0.148900D-01  0.301980D-01  0.892448D-01
     39 -0.216103D-02  0.226022D-02  0.999691D-02  0.768863D-01  0.541361D-01
     40  0.521682D-02 -0.471272D-01  0.115995D+00 -0.633141D-01  0.473965D-01
     41 -0.312623D-02  0.656567D-01  0.917934D-01  0.296288D-02 -0.493101D-02
     42 -0.269649D-02 -0.650490D-01  0.278142D-01  0.655190D-01  0.447012D-01
     43 -0.366249D-01  0.876842D-01 -0.104182D+00  0.618854D-01  0.120859D-01
     44 -0.483050D-01 -0.114377D+00  0.297064D-01 -0.446970D-01 -0.363336D-01
     45 -0.435334D-01  0.789901D-01 -0.554564D-01 -0.204860D-01  0.978311D-02
     46 -0.108253D+00 -0.361669D-02  0.599057D-01 -0.734164D-01  0.176803D-01
     47 -0.697776D-02  0.122186D+00 -0.500141D-01 -0.606228D-01  0.308283D-01
     48  0.185239D+00 -0.108888D+00 -0.436786D-01 -0.610923D-01 -0.607907D-01
     49 -0.911854D+00  0.186872D-01  0.363921D-02 -0.778826D-02  0.230132D-01
     50 -0.213788D+01  0.231174D-01 -0.233801D-02 -0.110062D-01  0.215676D-01
     51 -0.480110D+01 -0.129118D-01 -0.253481D-02 -0.763372D-03 -0.220999D-01
               11            12            13            14            15 
     11  0.122791D+02
     12 -0.117967D+01  0.155348D+02
     13  0.137181D+00  0.508498D-01  0.115183D+02
     14  0.633248D-01  0.964746D-01 -0.654848D+00  0.149370D+02
     15  0.912348D-01 -0.117391D+00 -0.845404D+00 -0.164279D+00  0.150238D+02
     16 -0.395698D+00  0.455210D-01  0.228155D+00 -0.833736D-01  0.878691D-01
     17  0.798861D-01 -0.444543D-01 -0.558579D-01 -0.129006D+00 -0.747045D-02
     18 -0.332908D-01 -0.321252D+00  0.687485D-01 -0.898108D-02 -0.121985D+00
     19 -0.124291D+00  0.297620D-01  0.198648D+00  0.326593D-01  0.474540D-02
     20 -0.263605D+00 -0.117824D-01  0.406733D-01 -0.962655D-01  0.635170D-02
     21 -0.539013D-01 -0.307576D+00  0.934892D-02  0.583571D-02 -0.973271D-01
     22  0.143210D-01  0.496427D-02 -0.123775D+00 -0.115720D-01  0.756531D-01
     23  0.140196D+00 -0.330504D+00 -0.132327D-01  0.533136D-01  0.684396D-02
     24 -0.416883D+00 -0.205754D+00  0.610219D-01 -0.477073D-02  0.539122D-01
     25 -0.156410D+00  0.926775D+00  0.150363D-01  0.328869D-01  0.577590D-01
     26 -0.417942D+01 -0.154422D+00  0.307783D-01 -0.162046D-01  0.321197D-01
     27 -0.380438D+00 -0.203764D+01  0.571185D-01  0.372654D-01  0.324586D-01
     28  0.892909D+00 -0.690811D+00  0.382995D-01  0.956043D-01  0.915526D-02
     29 -0.305314D+01 -0.905519D+00  0.992199D-01  0.649340D-01  0.125660D-01
     30 -0.781859D+00 -0.351070D+01  0.541264D-02  0.363216D-02 -0.414649D-01
     31 -0.101780D+01 -0.388988D+00 -0.688401D-02 -0.116720D-01 -0.770340D-02
     32 -0.337363D+01  0.204839D+00  0.168723D-01  0.749291D-03  0.208393D-02
     33  0.203853D+00 -0.383686D+01  0.636486D-02  0.387713D-02 -0.262603D-01
     34 -0.229124D-01  0.553618D-02 -0.326989D+01  0.227065D+00 -0.124620D+01
     35 -0.112159D-01  0.749333D-02  0.200357D+00 -0.375746D+01 -0.429408D+00
     36  0.219714D-02  0.112657D-01 -0.102530D+01 -0.394779D+00 -0.191829D+01
     37  0.988972D-01  0.521782D-01 -0.393277D+01  0.380846D+00  0.240160D+00
     38  0.955722D-01  0.820711D-01  0.208490D+00 -0.216917D+01  0.111263D+01
     39  0.918491D-01 -0.832345D-03  0.134940D+00  0.115745D+01 -0.315782D+01
     40  0.102907D-01  0.295481D-01 -0.302476D+01 -0.107996D+01  0.662612D+00
     41 -0.269882D-01 -0.831213D-02 -0.934815D+00 -0.255328D+01 -0.775983D+00
     42  0.112259D-02 -0.139836D-01  0.616289D+00 -0.833665D+00 -0.322584D+01
     43 -0.233353D-01  0.792219D-02  0.104130D-01 -0.974831D-02  0.676102D-02
     44  0.166518D-01 -0.133979D-01 -0.132888D-01  0.326620D-03 -0.652027D-02
     45 -0.698924D-02 -0.952525D-02  0.109023D-01 -0.786507D-02 -0.483904D-02
     46  0.718754D-02 -0.707931D-02  0.378394D-01  0.177809D-01 -0.311467D-02
     47 -0.339545D-01 -0.112925D-01  0.339178D-01 -0.831241D-02 -0.576530D-02
     48 -0.727441D-02 -0.237198D-01 -0.154087D-01 -0.608407D-02 -0.178208D-01
     49  0.194309D-02 -0.373793D-02  0.663321D-02  0.195838D-02 -0.127452D-02
     50 -0.252815D-02  0.399007D-04  0.788109D-02 -0.190755D-02 -0.174871D-02
     51 -0.294503D-02 -0.658030D-02 -0.400784D-02 -0.828821D-03 -0.252955D-02
               16            17            18            19            20 
     16  0.101223D+02
     17 -0.321086D+01  0.192059D+02
     18  0.124870D+01  0.553716D+01  0.253658D+02
     19 -0.727136D+01  0.395748D+01 -0.204058D+01  0.954056D+01
     20  0.370562D+01 -0.649325D+01 -0.488814D+01 -0.301569D+01  0.186640D+02
     21 -0.195294D+01 -0.493165D+01 -0.115427D+02  0.107094D+01  0.569891D+01
     22 -0.561617D-01  0.106540D-01 -0.923331D-01  0.119528D+00 -0.147909D+00
     23  0.451685D-02  0.530315D-01  0.133766D-01 -0.150058D+00 -0.833453D-01
     24 -0.672452D-01 -0.564510D-02 -0.442027D-01  0.112241D+00 -0.719475D-01
     25 -0.453712D-01  0.432219D-02 -0.453855D-02 -0.259280D-01 -0.786717D-02
     26 -0.857070D-02  0.115953D-01  0.359969D-01 -0.870733D-02 -0.321076D-02
     27 -0.302576D-01  0.659337D-01  0.199154D-01 -0.402678D-01  0.293488D-01
     28 -0.101082D-01  0.767742D-02 -0.104007D-01 -0.631123D-01  0.367765D-01
     29 -0.105136D-01  0.187737D-01  0.199464D-01  0.113791D-01  0.165915D-01
     30 -0.312626D-02 -0.245912D-03 -0.101544D-01 -0.380462D-02  0.742379D-02
     31  0.271405D-01 -0.349947D-01  0.103229D-02  0.453179D-01 -0.198329D-01
     32 -0.371796D-01  0.915630D-02 -0.160098D-02 -0.296427D-01 -0.462280D-02
     33 -0.116637D-02  0.957445D-04 -0.152980D-01 -0.137031D-01  0.656932D-02
     34  0.248913D-01 -0.288207D-02 -0.317107D-02  0.286852D-01  0.464408D-02
     35 -0.182047D-02 -0.115403D-01  0.672046D-04  0.467681D-02 -0.806940D-02
     36 -0.158413D-01  0.805112D-03 -0.727814D-02 -0.198747D-01 -0.287961D-02
     37  0.247585D-01  0.456795D-02  0.128654D-01  0.185455D-01  0.100020D-01
     38  0.184725D-01 -0.102030D-01  0.627913D-02  0.237134D-01 -0.605356D-03
     39  0.262622D-01  0.475279D-02 -0.476057D-02  0.168240D-01  0.684180D-02
     40  0.174968D-01 -0.769020D-02  0.552780D-02  0.217040D-01 -0.210514D-02
     41 -0.148484D-01 -0.243171D-02 -0.372502D-02 -0.125391D-01 -0.615129D-02
     42  0.107715D-01 -0.357443D-02 -0.519755D-02  0.932656D-02 -0.376212D-03
     43 -0.380224D+01 -0.101634D+01  0.719918D+00  0.289662D+00 -0.355584D-01
     44 -0.100521D+01 -0.290089D+01 -0.108943D+01 -0.557041D-01 -0.236210D+00
     45  0.698193D+00 -0.106788D+01 -0.368317D+01  0.360257D-01  0.311443D+00
     46  0.384045D+00 -0.113872D+00  0.652021D-01 -0.416299D+01 -0.980456D+00
     47 -0.372711D-01 -0.365522D+00  0.417923D+00 -0.125781D+01 -0.340253D+01
     48  0.208344D-01  0.428024D+00  0.759812D-01  0.946819D+00 -0.122080D+01
     49  0.866034D-01  0.125669D+00 -0.684887D-01  0.815600D-02 -0.150325D+00
     50  0.136501D+00  0.656543D-01 -0.624395D-01 -0.222920D-01  0.192037D-01
     51 -0.787299D-01 -0.670955D-01 -0.156095D-01  0.195993D-01  0.402483D-01
               21            22            23            24            25 
     21  0.241502D+02
     22  0.225955D-01  0.415381D+01
     23 -0.512311D-01 -0.590666D-01  0.483906D+01
     24 -0.901589D-01  0.100478D+01  0.687893D+00  0.156811D+01
     25 -0.223764D-02 -0.368783D-01  0.409949D-02  0.160983D-01  0.369804D+01
     26  0.134630D-01  0.358499D-02 -0.208326D-01  0.591153D-01  0.193188D-01
     27  0.247722D-01  0.628274D-02  0.425582D-01  0.125230D+00 -0.938646D+00
     28 -0.177494D-01  0.219149D-01 -0.115464D-01 -0.239073D-02  0.142449D+00
     29  0.233643D-01 -0.188124D-01 -0.534396D-01 -0.460642D-01 -0.215170D-01
     30  0.509192D-02 -0.977987D-02 -0.456336D-01 -0.546456D-02  0.550046D-01
     31 -0.763843D-02  0.367805D-02 -0.253669D-01 -0.433149D-01 -0.100316D+00
     32  0.475028D-02 -0.295052D-01  0.127715D-01  0.505741D-01  0.924737D-01
     33 -0.142387D-01 -0.307821D-01  0.355012D-01  0.305399D-01 -0.126211D+00
     34 -0.547497D-02  0.623042D-01  0.329012D-01 -0.983317D-01  0.167786D-01
     35 -0.645089D-04  0.281308D-01 -0.245451D-01 -0.278395D-01  0.141907D-01
     36 -0.518007D-02 -0.795847D-01 -0.259799D-01  0.408100D-01  0.343492D-03
     37  0.598201D-02 -0.344709D-01 -0.482300D-01  0.120926D-01 -0.112729D-02
     38  0.600683D-02 -0.433550D-01 -0.383191D-02  0.429268D-02  0.640347D-03
     39 -0.490486D-02  0.617618D-02  0.635729D-02  0.241129D-01  0.829781D-03
     40  0.597047D-02 -0.235010D-01  0.567681D-02 -0.156679D-02  0.981848D-02
     41 -0.262285D-02  0.171047D-03  0.619329D-02  0.421856D-02 -0.153987D-02
     42 -0.498501D-02  0.402243D-02 -0.680433D-03  0.460310D-02  0.121229D-01
     43  0.212625D-01 -0.176312D-02 -0.188615D-02  0.474606D-02 -0.256280D-02
     44  0.326249D+00  0.844819D-03  0.186500D-02 -0.680410D-02  0.159508D-02
     45  0.377271D-01 -0.191816D-05 -0.278455D-02  0.422704D-02 -0.956898D-03
     46  0.723259D+00 -0.417997D-01 -0.174313D-01 -0.134680D-01 -0.578557D-02
     47 -0.119329D+01 -0.145153D-01  0.226165D-04  0.317432D-02 -0.585241D-03
     48 -0.410712D+01 -0.162830D-01 -0.511560D-02 -0.437493D-03  0.112871D-01
     49  0.994683D-01  0.371190D-02 -0.167743D-03  0.474758D-02  0.862808D-03
     50  0.441976D-01  0.280060D-02 -0.256045D-02  0.604076D-02 -0.453244D-03
     51  0.588567D-01 -0.293872D-04  0.690521D-03 -0.456237D-02 -0.982660D-03
               26            27            28            29            30 
     26  0.399482D+01
     27 -0.102546D+00  0.207345D+01
     28 -0.211346D-02  0.271027D-01  0.328421D+01
     29  0.377295D-01  0.203683D+00 -0.982456D+00  0.275150D+01
     30  0.164872D+00 -0.192936D+00  0.583266D+00  0.805520D+00  0.367967D+01
     31  0.745031D-01 -0.116060D+00 -0.181410D+00 -0.584471D-01  0.133849D+00
     32  0.540948D-01  0.584476D-01 -0.385883D-01  0.139296D+00  0.700213D-02
     33  0.519835D-01  0.425475D-01  0.148727D+00  0.182396D-01  0.595860D-01
     34  0.143854D-01  0.146008D-01  0.706264D-02  0.932521D-02 -0.348532D-02
     35  0.125939D-02  0.787490D-02  0.724185D-02  0.399278D-02 -0.236457D-02
     36  0.208403D-02 -0.913724D-02 -0.665005D-02 -0.587738D-02  0.524386D-03
     37 -0.387194D-02 -0.143237D-02 -0.142514D-02 -0.431225D-02 -0.273954D-02
     38 -0.245414D-02  0.229234D-02  0.603179D-03 -0.155127D-02 -0.381202D-02
     39 -0.210886D-02  0.168194D-02  0.946965D-03  0.409557D-03 -0.162257D-02
     40  0.328484D-02  0.149525D-01  0.848815D-02  0.684145D-02 -0.879639D-03
[...]
   yx         0.138732D+02      0.205580D+01      0.228739D+01
   yy         0.740619D+02      0.109748D+02      0.122112D+02
   zx        -0.278145D+01     -0.412168D+00     -0.458599D+00
   zy        -0.747985D+00     -0.110840D+00     -0.123326D+00
   zz         0.641034D+02      0.949914D+01      0.105692D+02

 ----------------------------------------------------------------------

 Test job not archived.
 1\1\GINC-C0249\Freq\RM062X\CC-pVTZ\C5H10O2\HARMS.N\28-Sep-2019\0\\#P G
 eom=AllCheck Guess=TCheck SCRF=Check Test GenChk RM062X/CC-pVTZ Freq\\
 Gaussian input prepared by ASE\\0,1\O,0.8642411292,-2.7186770031,0.171
 322028\O,2.3905405195,0.5246638435,0.7480391314\C,-0.541438495,-2.4848
 089718,0.1931520308\C,-1.0496318323,-2.3999371141,1.6238458827\C,-1.17
 12419788,-3.6363027892,-0.5629905123\C,1.6916678386,-1.6767991873,0.41
 84885443\C,1.3780400885,-0.4090383886,0.661067195\H,-0.7422182804,-1.5
 480957459,-0.3376596332\H,-0.5263021614,-1.6323433006,2.190485833\H,-2
 .1154792177,-2.1723855032,1.6328517563\H,-0.8953709639,-3.3578905761,2
 .1210934747\H,-0.9254976027,-4.5772528334,-0.070452716\H,-0.7986712998
 ,-3.6723702146,-1.5848826927\H,-2.2550092858,-3.5272500422,-0.58531694
 82\H,2.7328688558,-1.9658393404,0.3677211832\H,0.3651803275,-0.0342608
 877,0.7332282643\H,2.2461231436,1.0744616863,1.5214294226\\Version=EM6
 4L-G16RevA.03\State=1-A\HF=-346.9406099\RMSD=3.265e-09\RMSF=9.995e-07\
 ZeroPoint=0.1472789\Thermal=0.1557827\Dipole=-0.7624924,0.242372,0.487
 5128\DipoleDeriv=-1.2592964,-0.8071005,-0.1136459,-0.347632,-1.0122309
 ,-0.1703249,-0.0983713,-0.233796,-0.3557058,-0.7186399,-0.5766038,-0.1
 737552,-0.3459461,-1.056194,-0.0712788,-0.1132876,0.0160797,-0.2509975
 ,0.8968874,0.3723431,0.0233431,0.0048117,0.2540395,0.0308288,-0.037461
 7,0.0575784,0.4367773,-0.0170623,-0.0920718,0.0038265,-0.0009462,0.047
 5367,-0.0389226,0.0849049,-0.0516755,-0.1314044,0.0280693,-0.0686571,-
 0.0006956,-0.0760979,0.0120938,-0.0658871,-0.0282586,-0.063549,0.00528
 88,0.5817023,0.5730059,0.0870787,0.420969,0.8924671,0.183855,0.1059122
 ,0.2146074,-0.0438307,0.4494668,0.6602223,0.1257344,0.2493092,0.499677
 4,0.0866355,0.0502952,0.04688,-0.2211545,-0.0265979,-0.0514837,0.01580
 81,0.05426,-0.0941595,0.0719148,0.0017312,0.0514609,-0.0512388,0.04919
 61,-0.0457236,-0.058364,-0.0453517,-0.0261613,-0.0780572,-0.0448171,-0
 .0674821,-0.0071525,-0.1221369,0.0177912,0.0180284,0.0353134,0.0660772
 ,0.0072456,-0.0094209,0.0329469,0.0567157,0.0551418,0.0445154,-0.00744
 8,0.0035058,-0.0744587,0.0894102,0.0099316,0.0295654,0.0217565,0.05741
 36,0.053817,-0.0295649,-0.0015099,-0.0615052,0.0321205,-0.0290254,0.08
 92923,0.0075632,0.0522043,0.0058858,0.0683088,-0.0193516,0.0446387,-0.
 0103319,0.033609,-0.0304129,-0.0999185,-0.1199004,-0.0133676,-0.015016
 5,0.0324249,0.036147,-0.0100441,0.0138319,-0.0162492,0.0675463,-0.0607
 353,-0.0207535,-0.006746,-0.0133566,0.0528429,-0.0190201,0.0003945,-0.
 0210512,0.154621,-0.1114114,-0.0273444,0.0007942,0.028488,0.0370302,-0
 .0319448,0.0107709,0.0127503,0.1720855,0.265699,-0.0244746,0.0623141,0
 .0211102,0.3821589,-0.0061988,0.0492611,-0.0669456,0.2390485\Polar=69.
 5715613,9.6262406,76.3316018,0.5509113,6.8620497,57.5750409\Quadrupole
 =-0.8367621,0.9413678,-0.1046057,-0.5264812,1.7316182,3.1171034\PG=C01
  [X(C5H10O2)]\NImag=0\\0.50774906,0.10328683,0.38087386,0.02966950,0.0
 6840170,0.09464916,-0.00757009,-0.00559170,-0.00439132,0.27396756,-0.0
 1120156,-0.01454738,-0.00894329,0.11985643,0.39819115,-0.00047165,-0.0
 0419034,0.01059939,-0.07655481,0.27288204,0.39727210,-0.19575537,0.022
 32936,0.00196350,0.00321879,0.00934997,0.00104480,0.46521522,0.0487599
 4,-0.10148205,-0.00515839,0.00029900,-0.00203524,-0.00098151,0.0018348
 1,0.60931560,0.00580098,-0.00429770,-0.06404177,-0.00008841,0.00033018
 ,0.00017420,0.01500398,-0.03779912,0.52499051,-0.03873728,0.00296260,0
 .03755434,-0.00036737,-0.00116642,-0.00021416,-0.08065751,-0.00177052,
 0.02488698,0.57585667,0.00755571,0.00167632,-0.00683914,0.00013032,0.0
 0044405,-0.00007092,-0.00339723,-0.08310579,0.00202095,0.00274249,0.58
 411906,0.00505073,-0.00271478,0.00228356,0.00010204,0.00000706,-0.0005
 7831,0.03237136,-0.00375633,-0.19264723,0.03762909,0.00289969,0.494912
 99,-0.04133506,-0.03684651,-0.02124768,-0.00009493,-0.00123000,0.00005
 735,-0.08722196,-0.02965825,-0.02009640,0.00837258,0.00764146,0.003337
 36,0.57866853,0.00012051,0.00659402,0.00226250,-0.00020592,0.00040284,
 -0.00029205,-0.04338190,-0.16544641,-0.05179418,0.00040366,-0.00285786
 ,-0.00494880,-0.03028946,0.52544757,-0.00358441,-0.00157363,0.00121924
 ,0.00040432,0.00021927,0.00021858,-0.02640015,-0.04820769,-0.11257402,
 -0.01331834,-0.02894670,-0.02407934,-0.02248355,-0.03250253,0.57088868
 ,-0.18706046,-0.08679086,-0.02143900,0.01059450,-0.03711178,-0.0098839
 6,-0.04532399,-0.03135964,-0.00904703,0.00275891,-0.00061624,0.0012234
 8,-0.00400410,0.00117374,0.00080964,0.70065856,-0.11614967,-0.24451134
 ,-0.04898667,-0.00146977,-0.03118241,-0.00908164,-0.01559496,0.0058187
 8,0.00137968,0.00525101,0.00071646,0.00303802,0.00405144,-0.00145194,0
 .00039473,-0.07942161,0.84777650,-0.02691802,-0.04483986,-0.04884083,0
 .00266901,0.00027925,0.00024052,-0.00609345,0.00162044,-0.00470532,0.0
 0414970,0.00005680,0.00114624,-0.00146227,-0.00021069,0.00013600,-0.00
 716688,0.14681636,0.15753665,0.01826794,-0.02262415,-0.00421988,-0.208
 85377,-0.12393517,-0.01081853,0.00225190,-0.00454890,-0.00029875,0.000
 15317,0.00038680,0.00125458,-0.00033252,-0.00002691,-0.00006435,-0.162
 70438,0.10842845,0.01987475,0.64972840,-0.00631627,-0.03232750,-0.0049
 1947,-0.10566021,-0.18355491,-0.03895712,-0.00012703,0.00031766,-0.001
 75566,0.00013630,-0.00030586,-0.00005117,0.00053223,-0.00016280,0.0002
 6365,0.12561082,-0.49354510,-0.09143097,-0.08685563,0.83816735,-0.0034
 9152,-0.01169268,0.00199515,0.01447337,-0.01683233,-0.05479418,0.00157
 677,0.00111924,-0.00146791,-0.00011840,-0.00017930,-0.00098633,0.00004
 927,-0.00002363,0.00026699,0.02557452,-0.08333689,-0.06908508,-0.03174
 221,0.14736520,0.14997862,-0.03111962,0.03184981,-0.01827281,-0.000300
 23,-0.00053404,0.00047295,-0.05354845,0.02784796,-0.01706351,0.0034021
 1,-0.00973369,0.00550671,0.00378070,-0.01255673,0.00686498,0.00490604,
 0.00769393,0.00104629,0.00105350,-0.00218510,-0.00086938,0.07241030,0.
 01055797,-0.00437566,0.00248741,-0.00027713,0.00097849,0.00048461,0.03
 437247,-0.23294434,0.10517303,-0.00104885,0.00259113,-0.00148638,0.002
 54831,-0.02210088,0.01066016,-0.00174529,0.00086722,-0.00112051,0.0002
 5760,-0.00215811,-0.00124864,-0.04031692,0.25752446,-0.00358657,-0.001
 34621,0.00265714,0.00049890,-0.00049855,0.00027461,-0.01916212,0.10455
 890,-0.11204819,-0.00363875,0.02759484,-0.01671372,0.00292484,-0.01648
 436,0.00839363,0.00085338,0.00066238,0.00077572,-0.00121325,0.00071937
 ,-0.00048808,0.02291441,-0.11062462,0.12097853,0.00109427,-0.00036094,
 -0.00145113,-0.00001065,0.00031233,0.00030615,0.00540420,0.00996594,0.
 00592792,-0.11123022,-0.09439325,-0.06961019,-0.00077076,0.00012759,0.
 00222151,-0.00085935,0.00007851,0.00061257,-0.00106078,-0.00152915,0.0
 0053260,0.00009006,-0.00012776,-0.00069539,0.11778685,0.00022695,-0.00
 041044,-0.00011177,-0.00008008,-0.00015672,0.00034508,0.00094085,-0.00
 097169,-0.00030591,-0.09360004,-0.18513665,-0.09932333,0.00044104,0.00
 085229,-0.00071719,0.00007332,-0.00013709,0.00001836,-0.00104844,-0.00
 072177,0.00090808,0.00040144,0.00031165,-0.00034436,0.10457282,0.19926
 167,0.00005393,0.00150183,0.00276334,-0.00056778,-0.00008815,-0.000029
 37,-0.01851775,-0.02370333,-0.01518317,-0.06675267,-0.09824281,-0.1191
 2959,0.00348293,0.00118223,-0.00573131,-0.00032909,-0.00114207,-0.0001
 9446,0.00082610,0.00055766,0.00031099,-0.00023043,0.00034206,0.0010160
 8,0.07344049,0.10838705,0.12969404,-0.00136496,-0.00096957,0.00312009,
 -0.00025516,-0.00043492,-0.00001278,-0.01040157,0.00190028,-0.00350714
 ,-0.30527339,0.05581700,0.00154172,-0.00019990,-0.00018307,-0.00070412
 ,0.00112609,0.00144809,0.00031799,0.00035376,0.00001587,0.00001828,0.0
 0035773,-0.00042574,0.00032520,-0.01356536,0.00366481,0.00048494,0.331
 48077,0.00030293,0.00135714,-0.00049087,0.00002276,0.00001330,0.000090
 14,0.00036698,-0.00242838,0.00080154,0.05543346,-0.05799544,-0.0000428
 2,0.00007062,-0.00013177,0.00017903,-0.00010791,-0.00037414,-0.0000581
 3,-0.00004701,0.00005876,0.00019767,-0.00008302,0.00008325,-0.00019867
 ,-0.02297918,0.00582147,0.00152449,-0.06091560,0.05835347,0.00721369,-
 0.00008184,-0.00679029,0.00017043,0.00031107,0.00009948,0.02836339,-0.
 00674212,0.00455548,-0.00080293,0.00049257,-0.04760246,-0.00023295,0.0
 0007124,0.00101240,-0.00119972,-0.00237035,-0.00073729,-0.00031913,0.0
 0027664,0.00038012,-0.00067814,0.00083480,0.00114888,-0.01595763,0.005
 27553,-0.00020443,-0.00166574,0.00029425,0.04912345,0.00213200,0.00006
 038,-0.00067822,-0.00005088,0.00014371,0.00006079,0.00025106,-0.010173
 53,0.00644545,-0.05255702,0.03444803,-0.01870631,-0.00003311,-0.000177
 86,-0.00068114,-0.00080059,-0.00093850,-0.00043062,-0.00017638,0.00004
 348,0.00018578,-0.00003123,0.00000803,0.00217832,0.00240862,-0.0142119
 6,0.00835883,-0.00288051,0.02825379,-0.01455525,0.05172059,-0.00093413
 ,0.00067112,-0.00018389,-0.00025836,0.00001159,0.00000619,0.00004002,0
 .00050836,-0.00042224,0.03454100,-0.25769703,0.10643864,-0.00004365,0.
 00128321,-0.00088198,-0.00035900,-0.00048747,0.00004664,0.00013096,0.0
 0001932,0.00019115,0.00003684,0.00109020,-0.00089209,0.00438750,-0.018
 77347,0.01021369,0.00016036,-0.00477969,0.00155048,-0.03782358,0.27733
 190,-0.00122981,-0.00107226,0.00285818,-0.00002991,-0.00003386,0.00008
 610,-0.00576699,0.03065372,-0.01900042,-0.01736945,0.10437179,-0.09890
 884,-0.00009776,0.00172135,0.00165060,0.00005835,-0.00017388,0.0000531
 7,-0.00030929,-0.00010869,0.00012604,0.00265001,-0.00121910,-0.0054753
 9,0.00388576,-0.01488605,0.00793464,-0.00009524,-0.00157423,-0.0004554
 6,0.01817823,-0.11627679,0.11120329,0.00204564,0.00082924,0.00060271,0
 .00001078,0.00020708,-0.00006642,0.00192996,-0.01396234,0.00629432,-0.
 00020251,0.00052692,0.00076740,-0.06077985,0.05484896,-0.02816314,-0.0
 0030547,-0.00045881,-0.00000900,-0.00008861,-0.00009488,0.00004832,-0.
 00068964,-0.00215329,-0.00152329,-0.00008966,-0.00005592,0.00011566,0.
 00003248,0.00012370,-0.00004525,0.00025898,0.00035073,0.00003192,0.061
 28930,0.00115760,0.00251246,0.00015636,-0.00018221,0.00009036,-0.00005
 789,0.00662690,-0.02706946,0.01263613,0.00013331,0.00105742,0.00158207
 ,0.05300223,-0.24412986,0.10558759,-0.00026106,0.00005658,-0.00009662,
 0.00029332,-0.00000185,-0.00008219,-0.00258399,-0.00240803,-0.00341901
 ,-0.00021185,0.00048815,-0.00010172,-0.00010080,0.00004096,-0.00003530
 ,0.00018999,0.00039937,-0.00109506,-0.05729699,0.26848957,0.00150413,0
 .00115006,0.00034049,-0.00006631,0.00005364,-0.00004773,0.00438478,-0.
 01583021,0.00706970,0.00040081,-0.00089067,0.00177681,-0.02846217,0.10
 749075,-0.10521261,0.00006402,-0.00021444,-0.00004863,0.00001636,-0.00
 022055,-0.00003872,-0.00158173,-0.00263804,-0.00103608,-0.00003904,0.0
 0022975,0.00005890,0.00006744,-0.00005182,-0.00008402,-0.00023413,0.00
 022211,-0.00023932,0.03204430,-0.11433134,0.11094650,0.00176440,0.0007
 8142,0.00033909,0.00008192,0.00018874,-0.00000644,0.00325793,-0.000081
 98,-0.01466105,-0.00118142,-0.00178712,-0.00112403,-0.08028877,0.00299
 185,0.09077809,-0.00024562,-0.00045510,-0.00008787,-0.00002389,0.00002
 317,0.00000216,0.00030982,0.00066054,0.00049776,0.00054337,-0.00035211
 ,-0.00068640,0.00030661,-0.00018878,-0.00015502,-0.00014439,-0.0000948
 2,0.00013635,0.00217745,-0.00081923,-0.00820283,0.08256328,0.00159195,
 0.00114938,0.00165708,0.00003071,0.00008363,0.00002851,0.01056410,-0.0
 0114959,-0.02644513,-0.00326580,-0.00395565,-0.00180945,0.00140394,-0.
 04798815,-0.00388479,-0.00012049,-0.00019084,0.00011611,0.00005306,-0.
 00001487,0.00007148,0.00080712,0.00091257,0.00048941,0.00037448,0.0001
 9823,-0.00177750,-0.00011829,-0.00002108,0.00033292,-0.00014139,0.0001
 7922,-0.00027594,-0.01090783,0.00176664,0.02590607,-0.00129192,0.05048
 646,0.00054969,0.00106729,0.00162173,-0.00001179,0.00011360,-0.0000054
 1,0.00649783,0.00067123,-0.01588269,-0.00234587,-0.00332801,-0.0005314
 4,0.08830706,-0.00603865,-0.28829895,-0.00039974,-0.00027041,0.0001354
 8,0.00006823,0.00003513,0.00011916,-0.00017695,-0.00015242,0.00088581,
 0.00056884,-0.00014802,-0.00089945,0.00014538,0.00007129,0.00014980,-0
 .00002132,-0.00008758,0.00049763,0.00486084,-0.00107163,-0.01250485,-0
 .09714892,0.00881919,0.31192432,-0.00209119,-0.00412040,-0.00154978,-0
 .00020043,-0.00046664,-0.00000460,-0.01227989,0.00503347,0.00192291,0.
 00006562,0.00079826,0.00060623,-0.31507442,0.02721522,-0.00612426,0.00
 050508,0.00125316,-0.00018040,0.00003102,0.00002302,-0.00007148,0.0003
 0289,-0.00042886,0.00017105,0.00035613,-0.00016647,0.00006229,0.000647
 32,-0.00013294,-0.00023996,-0.00004687,-0.00014077,-0.00005504,-0.0055
 3540,0.00018576,0.00021571,-0.00914783,0.00098695,-0.00086824,0.342618
 34,-0.00496261,-0.00505106,-0.00314636,-0.00009512,-0.00032717,0.00003
 212,-0.02320783,0.00538480,0.00192509,0.00019511,0.00066748,0.00044584
 ,0.02975087,-0.05077397,-0.00057846,-0.00086324,0.00142286,-0.00037936
 ,0.00008245,0.00010603,-0.00002958,0.00059357,0.00044972,0.00097423,0.
 00003363,-0.00009184,0.00033043,0.00009429,-0.00002714,-0.00046396,0.0
 0016858,0.00000718,-0.00006403,0.02797528,-0.00137360,-0.00093618,0.00
 040173,-0.00150910,0.00028605,-0.02992598,0.05144291,-0.00295904,-0.00
 361886,-0.00092306,-0.00003122,-0.00015345,-0.00007070,-0.01430977,0.0
 0532797,-0.00111548,0.00012111,0.00036367,0.00031011,-0.00396972,-0.00
 069061,-0.04758121,-0.00060347,0.00047452,0.00020476,-0.00002293,0.000
 06013,-0.00002625,0.00038718,0.00011466,0.00040981,0.00015292,0.000124
 59,0.00019597,0.00002239,-0.00057546,-0.00055096,-0.00007720,0.0001214
 8,-0.00004991,-0.01500635,0.00017868,-0.00103436,0.03033488,-0.0031052
 7,0.00291366,0.00612541,0.00162029,0.04727340,-0.02595702,-0.00278149,
 -0.00090125,0.00115798,-0.00090235,0.00005050,0.00366781,-0.00285865,-
 0.00067539,-0.00025541,0.00007424,-0.00015657,-0.00091149,0.00035377,0
 .00017397,-0.31352544,0.08478915,0.01451136,-0.00633330,0.00080856,0.0
 0021920,-0.00012524,0.00020542,-0.00004220,0.00003405,0.00004844,0.000
 05712,-0.00004639,0.00002208,0.00015910,0.00000347,-0.00003111,0.00001
 328,0.00002557,-0.00002568,0.00002421,0.00002535,0.00000456,-0.0000276
 2,-0.00012490,-0.00026281,-0.00016837,0.34173084,-0.03507576,0.0049187
 6,0.00039959,-0.00023900,0.00212511,0.00143999,-0.00044664,-0.00315056
 ,-0.00143149,-0.00030125,0.00005354,-0.00018646,-0.00117625,0.00041692
 ,0.00005376,0.08877497,-0.08071924,-0.00720059,0.02858208,-0.00273959,
 -0.00238947,-0.00032288,0.00006610,-0.00015423,0.00002068,-0.00000457,
 0.00016809,-0.00003721,0.00001918,0.00016027,0.00000710,0.00000355,0.0
 0003019,0.00003177,-0.00002675,0.00005494,0.00002295,0.00001479,-0.000
 03209,-0.00014763,-0.00033543,-0.00019787,-0.07998354,0.08390868,-0.00
 877361,0.00096704,0.00122977,-0.00066190,0.00252638,-0.00642609,0.0001
 5292,-0.00183292,0.00242244,-0.00071683,0.00014647,0.00022173,-0.00014
 517,-0.00007434,0.00013284,0.01623070,-0.00808342,-0.04180825,0.006687
 54,-0.00137994,0.00932559,0.00051585,0.00010238,-0.00010262,-0.0001210
 0,-0.00017368,0.00000242,-0.00012869,-0.00008461,0.00011858,0.00004937
 ,0.00005895,0.00001337,-0.00002748,0.00001335,-0.00000513,-0.00000611,
 -0.00000659,-0.00003874,-0.00005255,-0.00001759,-0.00001439,-0.0131649
 8,0.01177283,0.02741370,-0.00038497,0.00030063,0.00012623,-0.02601942,
 -0.00337784,-0.00123147,-0.00127438,-0.00073209,-0.00086278,0.00006354
 ,-0.00021507,0.00035820,0.00034285,-0.00043329,0.00023354,-0.00315699,
 0.00127488,-0.00041190,-0.29294556,0.10227458,0.02148218,-0.00078595,-
 0.00233976,-0.00037033,-0.00020946,-0.00080699,0.00006745,-0.00027000,
 -0.00014823,-0.00010266,-0.00010895,-0.00005600,-0.00003538,-0.0000913
 7,-0.00014105,-0.00013430,-0.00001243,0.00000940,-0.00002800,0.0000111
 4,0.00004901,0.00002572,0.00055057,0.00021342,0.00035584,0.32432393,-0
 .00208182,0.00180962,0.00108053,-0.03040882,0.00504926,0.00139271,0.00
 076081,-0.00171622,-0.00000274,-0.00078091,-0.00013231,0.00000547,-0.0
 0028361,0.00011318,-0.00006521,0.02933678,-0.00132721,-0.00076348,0.09
 983655,-0.09868561,-0.01249969,-0.00107735,-0.00086922,-0.00110968,-0.
 00017453,-0.00059290,0.00079606,-0.00001892,-0.00002150,0.00010694,0.0
 0015901,0.00022948,-0.00000658,0.00006361,0.00010729,0.00001394,0.0000
 2727,0.00004025,0.00007004,-0.00002832,-0.00003629,-0.00004171,0.00051
 502,-0.00470813,-0.00284965,-0.09596126,0.09908567,0.00165171,0.001953
 35,-0.00243023,-0.00168864,0.00079943,0.00415221,-0.00119126,0.0004628
 4,-0.00086255,0.00056031,0.00041755,0.00054949,0.00001274,0.00031247,-
 0.00036207,0.00468814,-0.00072220,0.00508619,0.01795683,-0.01254780,-0
 .03637812,-0.00151742,-0.00184925,-0.00055047,0.00019194,0.00076393,-0
 .00071337,0.00007938,-0.00007869,-0.00015759,-0.00009430,-0.00014908,-
 0.00027555,0.00007531,0.00010042,0.00004838,-0.00000633,-0.00009978,-0
 .00007294,0.00002767,-0.00000568,0.00005107,0.00007625,-0.00277139,0.0
 0802725,-0.02045927,0.01314389,0.02364109,-0.00167730,-0.00231464,0.00
 077561,-0.04530860,0.05030248,0.09727228,0.00126626,-0.00049550,0.0000
 1791,-0.00021044,0.00002139,-0.00015180,-0.00011778,0.00001983,0.00003
 739,-0.00256279,0.00021979,-0.00042128,0.00067950,-0.02669977,-0.02786
 948,-0.00001278,0.00025325,-0.00013197,0.00007871,-0.00004766,0.000134
 38,-0.00004751,0.00000635,0.00004777,0.00005520,0.00009399,0.00003497,
 0.00001236,0.00003373,-0.00000127,0.00001423,0.00001944,0.00003056,-0.
 00003662,-0.00002692,-0.00002153,0.00008354,0.00007719,-0.00019390,-0.
 00003253,0.00011651,-0.00036305,0.04781656,0.00316143,0.00114276,0.002
 33467,0.02412911,-0.17558595,-0.22306992,-0.00103068,0.00015453,-0.000
 01243,0.00013485,-0.00013886,-0.00009726,0.00008558,-0.00006639,-0.000
 00003,-0.00621251,-0.00273162,-0.00285378,0.00103495,-0.02445114,-0.02
 153843,0.00016306,-0.00001855,0.00007266,-0.00009684,0.00006368,0.0000
 5198,0.00010341,0.00003163,-0.00001314,-0.00001530,0.00000318,0.000009
 42,-0.00002724,0.00000076,-0.00000802,-0.00002660,-0.00000188,-0.00000
 502,0.00006217,0.00004463,-0.00000277,0.00002441,0.00015764,-0.0010846
 6,0.00008965,0.00165465,0.00026998,-0.02157945,0.19974092,-0.00047973,
 0.00038686,0.00080901,0.06577402,-0.25097229,-0.35116538,0.00008215,-0
 .00040273,0.00031641,-0.00002494,0.00013323,-0.00002366,0.00002612,0.0
 0001929,-0.00007943,0.00056667,0.00161628,0.00010512,0.00232392,0.0020
 9358,0.00076201,0.00003198,0.00013986,-0.00012565,0.00003366,-0.000042
 09,0.00010877,-0.00000911,-0.00000309,-0.00000570,0.00002171,0.0000443
 3,-0.00001813,0.00000015,0.00003614,0.00001068,-0.00000334,-0.00001634
 ,-0.00001312,0.00001503,0.00000715,0.00000755,-0.00014862,0.00028393,-
 0.00051245,0.00098692,0.00072916,0.00024722,-0.06919659,0.24594673,0.3
 4957677\\0.00000076,-0.00000005,0.00000126,-0.00000051,0.00000034,-0.0
 0000069,0.00000051,-0.00000048,0.00000012,-0.00000070,0.00000074,-0.00
 000044,0.00000113,-0.00000143,0.00000055,-0.00000009,0.00000032,0.0000
 0073,-0.00000055,0.00000039,-0.00000037,0.00000061,-0.00000094,-0.0000
 0078,-0.00000132,0.00000137,-0.00000077,-0.00000107,0.00000061,-0.0000
 0178,-0.00000102,0.00000137,0.00000031,0.00000095,-0.00000052,0.000001
 34,0.00000200,-0.00000203,0.00000082,0.00000133,-0.00000144,-0.0000004
 9,0.00000005,0.00000030,0.00000219,-0.00000049,0.00000011,-0.00000137,
 -0.00000158,0.00000134,-0.00000064\\\@


 UNLESS WE CHANGE DIRECTIONS, WE WILL WIND UP WHERE WE ARE HEADED.
     -- CONFUCIUS
 Job cpu time:       0 days  3 hours 35 minutes 13.5 seconds.
 Elapsed time:       0 days  1 hours 47 minutes 39.6 seconds.
 File lengths (MBytes):  RWF=   1392 Int=      0 D2E=      0 Chk=     32 Scr=     32
 Normal termination of Gaussian 16 at Sat Sep 28 14:13:36 2019.
