 Entering Gaussian System, Link 0=g16
 Input=med/species/COC=CO/conformers/COC=CO_12.com
 Output=med/species/COC=CO/conformers/COC=CO_12.log
 Initial command:
 /shared/centos7/gaussian/g16/l1.exe "/scratch/harms.n/gauss_scrdir/Gau-29009.inp" -scrdir="/scratch/harms.n/gauss_scrdir/"
 Entering Link 1 = /shared/centos7/gaussian/g16/l1.exe PID=     29010.
  
 Copyright (c) 1988,1990,1992,1993,1995,1998,2003,2009,2016,
            Gaussian, Inc.  All Rights Reserved.
  
 This is part of the Gaussian(R) 16 program.  It is based on
 the Gaussian(R) 09 system (copyright 2009, Gaussian, Inc.),
 the Gaussian(R) 03 system (copyright 2003, Gaussian, Inc.),
 the Gaussian(R) 98 system (copyright 1998, Gaussian, Inc.),
 the Gaussian(R) 94 system (copyright 1995, Gaussian, Inc.),
 the Gaussian 92(TM) system (copyright 1992, Gaussian, Inc.),
 the Gaussian 90(TM) system (copyright 1990, Gaussian, Inc.),
 the Gaussian 88(TM) system (copyright 1988, Gaussian, Inc.),
 the Gaussian 86(TM) system (copyright 1986, Carnegie Mellon
 University), and the Gaussian 82(TM) system (copyright 1983,
 Carnegie Mellon University). Gaussian is a federally registered
 trademark of Gaussian, Inc.
  
 This software contains proprietary and confidential information,
 including trade secrets, belonging to Gaussian, Inc.
  
 This software is provided under written license and may be
 used, copied, transmitted, or stored only in accord with that
 written license.
  
 The following legend is applicable only to US Government
 contracts under FAR:
  
                    RESTRICTED RIGHTS LEGEND
  
 Use, reproduction and disclosure by the US Government is
 subject to restrictions as set forth in subparagraphs (a)
 and (c) of the Commercial Computer Software - Restricted
 Rights clause in FAR 52.227-19.
  
 Gaussian, Inc.
 340 Quinnipiac St., Bldg. 40, Wallingford CT 06492
  
  
 ---------------------------------------------------------------
 Warning -- This program may not be used in any manner that
 competes with the business of Gaussian, Inc. or will provide
 assistance to any competitor of Gaussian, Inc.  The licensee
 of this program is prohibited from giving any competitor of
 Gaussian, Inc. access to this program.  By using this program,
 the user acknowledges that Gaussian, Inc. is engaged in the
 business of creating and licensing software in the field of
 computational chemistry and represents and warrants to the
 licensee that it is not a competitor of Gaussian, Inc. and that
 it will not use this program in any manner prohibited above.
 ---------------------------------------------------------------
  

 Cite this work as:
 Gaussian 16, Revision A.03,
 M. J. Frisch, G. W. Trucks, H. B. Schlegel, G. E. Scuseria, 
 M. A. Robb, J. R. Cheeseman, G. Scalmani, V. Barone, 
 G. A. Petersson, H. Nakatsuji, X. Li, M. Caricato, A. V. Marenich, 
 J. Bloino, B. G. Janesko, R. Gomperts, B. Mennucci, H. P. Hratchian, 
 J. V. Ortiz, A. F. Izmaylov, J. L. Sonnenberg, D. Williams-Young, 
 F. Ding, F. Lipparini, F. Egidi, J. Goings, B. Peng, A. Petrone, 
 T. Henderson, D. Ranasinghe, V. G. Zakrzewski, J. Gao, N. Rega, 
 G. Zheng, W. Liang, M. Hada, M. Ehara, K. Toyota, R. Fukuda, 
 J. Hasegawa, M. Ishida, T. Nakajima, Y. Honda, O. Kitao, H. Nakai, 
 T. Vreven, K. Throssell, J. A. Montgomery, Jr., J. E. Peralta, 
 F. Ogliaro, M. J. Bearpark, J. J. Heyd, E. N. Brothers, K. N. Kudin, 
 V. N. Staroverov, T. A. Keith, R. Kobayashi, J. Normand, 
 K. Raghavachari, A. P. Rendell, J. C. Burant, S. S. Iyengar, 
 J. Tomasi, M. Cossi, J. M. Millam, M. Klene, C. Adamo, R. Cammi, 
 J. W. Ochterski, R. L. Martin, K. Morokuma, O. Farkas, 
 J. B. Foresman, and D. J. Fox, Gaussian, Inc., Wallingford CT, 2016.
 
 ******************************************
 Gaussian 16:  EM64L-G16RevA.03 25-Dec-2016
                 5-Sep-2019 
 ******************************************
 %nprocshared=20
 Will use up to   20 processors via shared memory.
 %mem=5GB
 ----------------------------------------------------------------------
 #p m062x/cc-pVTZ opt=(calcfc,maxcycles=900,Tight) freq IOP(7/33=1,2/16
 =3) scf=(maxcycle=900)
 ----------------------------------------------------------------------
 1/6=900,7=10,10=4,18=20,19=15,26=3,38=1/1,3;
 2/9=110,12=2,16=3,17=6,18=5,40=1/2;
 3/5=16,6=1,11=2,25=1,30=1,71=2,74=-55,140=1/1,2,3;
 4//1;
 5/5=2,7=900,38=5/2;
 8/6=4,10=90,11=11/1;
 11/6=1,8=1,9=11,15=111,16=1/1,2,10;
 10/6=1,13=1/2;
 6/7=2,8=2,9=2,10=2,28=1/1;
 7/10=1,18=20,25=1,33=1/1,2,3,16;
 1/6=900,7=10,10=4,18=20,19=15,26=3/3(2);
 2/9=110,16=3/2;
 99//99;
 2/9=110,16=3/2;
 3/5=16,6=1,11=2,25=1,30=1,71=1,74=-55/1,2,3;
 4/5=5,16=3,69=1/1;
 5/5=2,7=900,38=5/2;
 7/33=1/1,2,3,16;
 1/6=900,7=10,18=20,19=15,26=3/3(-5);
 2/9=110,16=3/2;
 6/7=2,8=2,9=2,10=2,19=2,28=1/1;
 99/9=1/99;
 Leave Link    1 at Thu Sep  5 15:33:04 2019, MaxMem=   671088640 cpu:               4.8 elap:               2.4
 (Enter /shared/centos7/gaussian/g16/l101.exe)
 ------------------------------
 Gaussian input prepared by ASE
 ------------------------------
 Symbolic Z-matrix:
 Charge =  0 Multiplicity = 1
 O                     0.15992  -0.79825   0.51598 
 O                     2.31269   2.11417   0.06735 
 C                    -1.20309  -0.8875    0.93742 
 C                     0.59703   0.51957   0.47272 
 C                     1.81845   0.8295    0.10794 
 H                    -1.62389   0.1416    1.12794 
 H                    -1.80927  -1.3865    0.12858 
 H                    -1.26927  -1.48316   1.84808 
 H                    -0.14032   1.26246   0.7708 
 H                     2.54666   0.10168  -0.1799 
 H                     1.56531   2.72898   0.3795 
 
 ITRead=  0  0  0  0  0  0  0  0  0  0  0
 MicOpt= -1 -1 -1 -1 -1 -1 -1 -1 -1 -1 -1
 NAtoms=     11 NQM=       11 NQMF=       0 NMMI=      0 NMMIF=      0
                NMic=       0 NMicF=      0.
                    Isotopes and Nuclear Properties:
 (Nuclear quadrupole moments (NQMom) in fm**2, nuclear magnetic moments (NMagM)
  in nuclear magnetons)

  Atom         1           2           3           4           5           6           7           8           9          10
 IAtWgt=          16          16          12          12          12           1           1           1           1           1
 AtmWgt=  15.9949146  15.9949146  12.0000000  12.0000000  12.0000000   1.0078250   1.0078250   1.0078250   1.0078250   1.0078250
 NucSpn=           0           0           0           0           0           1           1           1           1           1
 AtZEff=  -0.0000000  -0.0000000  -0.0000000  -0.0000000  -0.0000000  -0.0000000  -0.0000000  -0.0000000  -0.0000000  -0.0000000
 NQMom=    0.0000000   0.0000000   0.0000000   0.0000000   0.0000000   0.0000000   0.0000000   0.0000000   0.0000000   0.0000000
 NMagM=    0.0000000   0.0000000   0.0000000   0.0000000   0.0000000   2.7928460   2.7928460   2.7928460   2.7928460   2.7928460
 AtZNuc=   8.0000000   8.0000000   6.0000000   6.0000000   6.0000000   1.0000000   1.0000000   1.0000000   1.0000000   1.0000000

  Atom        11
 IAtWgt=           1
 AtmWgt=   1.0078250
 NucSpn=           1
 AtZEff=  -0.0000000
 NQMom=    0.0000000
 NMagM=    2.7928460
 AtZNuc=   1.0000000
 Leave Link  101 at Thu Sep  5 15:33:05 2019, MaxMem=   671088640 cpu:               2.5 elap:               1.3
 (Enter /shared/centos7/gaussian/g16/l103.exe)

 GradGradGradGradGradGradGradGradGradGradGradGradGradGradGradGradGradGrad
 Berny optimization.
 Initialization pass.
                           ----------------------------
                           !    Initial Parameters    !
                           ! (Angstroms and Degrees)  !
 --------------------------                            --------------------------
 ! Name  Definition              Value          Derivative Info.                !
 --------------------------------------------------------------------------------
 ! R1    R(1,3)                  1.4295         calculate D2E/DX2 analytically  !
 ! R2    R(1,4)                  1.3891         calculate D2E/DX2 analytically  !
 ! R3    R(2,5)                  1.3771         calculate D2E/DX2 analytically  !
 ! R4    R(2,11)                 1.0169         calculate D2E/DX2 analytically  !
 ! R5    R(3,6)                  1.128          calculate D2E/DX2 analytically  !
 ! R6    R(3,7)                  1.1272         calculate D2E/DX2 analytically  !
 ! R7    R(3,8)                  1.0902         calculate D2E/DX2 analytically  !
 ! R8    R(4,5)                  1.3119         calculate D2E/DX2 analytically  !
 ! R9    R(4,9)                  1.0883         calculate D2E/DX2 analytically  !
 ! R10   R(5,10)                 1.0691         calculate D2E/DX2 analytically  !
 ! A1    A(3,1,4)              111.6209         calculate D2E/DX2 analytically  !
 ! A2    A(5,2,11)             106.9299         calculate D2E/DX2 analytically  !
 ! A3    A(1,3,6)              110.3975         calculate D2E/DX2 analytically  !
 ! A4    A(1,3,7)              109.1985         calculate D2E/DX2 analytically  !
 ! A5    A(1,3,8)              109.772          calculate D2E/DX2 analytically  !
 ! A6    A(6,3,7)              108.9312         calculate D2E/DX2 analytically  !
 ! A7    A(6,3,8)              109.557          calculate D2E/DX2 analytically  !
 ! A8    A(7,3,8)              108.9579         calculate D2E/DX2 analytically  !
 ! A9    A(1,4,5)              121.7202         calculate D2E/DX2 analytically  !
 ! A10   A(1,4,9)              115.2045         calculate D2E/DX2 analytically  !
 ! A11   A(5,4,9)              123.0725         calculate D2E/DX2 analytically  !
 ! A12   A(2,5,4)              124.2473         calculate D2E/DX2 analytically  !
 ! A13   A(2,5,10)             112.5016         calculate D2E/DX2 analytically  !
 ! A14   A(4,5,10)             123.2465         calculate D2E/DX2 analytically  !
 ! D1    D(4,1,3,6)              0.7696         calculate D2E/DX2 analytically  !
 ! D2    D(4,1,3,7)            120.5054         calculate D2E/DX2 analytically  !
 ! D3    D(4,1,3,8)           -120.1063         calculate D2E/DX2 analytically  !
 ! D4    D(3,1,4,5)           -179.8288         calculate D2E/DX2 analytically  !
 ! D5    D(3,1,4,9)              0.7587         calculate D2E/DX2 analytically  !
 ! D6    D(11,2,5,4)             0.8194         calculate D2E/DX2 analytically  !
 ! D7    D(11,2,5,10)         -178.4161         calculate D2E/DX2 analytically  !
 ! D8    D(1,4,5,2)           -178.8901         calculate D2E/DX2 analytically  !
 ! D9    D(1,4,5,10)             0.2653         calculate D2E/DX2 analytically  !
 ! D10   D(9,4,5,2)              0.4756         calculate D2E/DX2 analytically  !
 ! D11   D(9,4,5,10)           179.631          calculate D2E/DX2 analytically  !
 --------------------------------------------------------------------------------
 Trust Radius=3.00D-01 FncErr=1.00D-07 GrdErr=1.00D-06 EigMax=2.50D+02 EigMin=1.00D-04
 Number of steps in this run=    100 maximum allowed number of steps=    100.
 GradGradGradGradGradGradGradGradGradGradGradGradGradGradGradGradGradGrad

 Leave Link  103 at Thu Sep  5 15:33:06 2019, MaxMem=   671088640 cpu:               1.2 elap:               0.6
 (Enter /shared/centos7/gaussian/g16/l202.exe)
                          Input orientation:                          
 ---------------------------------------------------------------------
 Center     Atomic      Atomic             Coordinates (Angstroms)
 Number     Number       Type             X           Y           Z
 ---------------------------------------------------------------------
      1          8           0        0.159917   -0.798249    0.515976
      2          8           0        2.312692    2.114169    0.067354
      3          6           0       -1.203088   -0.887504    0.937424
      4          6           0        0.597032    0.519568    0.472715
      5          6           0        1.818446    0.829499    0.107937
      6          1           0       -1.623889    0.141602    1.127941
      7          1           0       -1.809272   -1.386500    0.128576
      8          1           0       -1.269266   -1.483162    1.848084
      9          1           0       -0.140320    1.262458    0.770802
     10          1           0        2.546664    0.101680   -0.179902
     11          1           0        1.565306    2.728979    0.379504
 ---------------------------------------------------------------------
                    Distance matrix (angstroms):
                    1          2          3          4          5
     1  O    0.000000
     2  O    3.649367   0.000000
     3  C    1.429464   4.704016   0.000000
     4  C    1.389094   2.377091   2.331574   0.000000
     5  C    2.359402   1.377063   3.572928   1.311858   0.000000
     6  H    2.107080   4.529077   1.128020   2.346203   3.655582
     7  H    2.091369   5.408237   1.127250   3.088985   4.251049
     8  H    2.070310   5.379797   1.090179   3.063598   4.232077
     9  H    2.097997   2.690264   2.404074   1.088314   2.112725
    10  H    2.643989   2.041075   4.035782   2.098000   1.069052
    11  H    3.799353   1.016866   4.588489   2.414071   1.935420
                    6          7          8          9         10
     6  H    0.000000
     7  H    1.835264   0.000000
     8  H    1.812242   1.804898   0.000000
     9  H    1.893368   3.196065   3.158082   0.000000
    10  H    4.370991   4.613460   4.602800   3.077519   0.000000
    11  H    4.174404   5.328031   5.285230   2.283191   2.859842
                   11
    11  H    0.000000
 Stoichiometry    C3H6O2
 Framework group  C1[X(C3H6O2)]
 Deg. of freedom    27
 Full point group                 C1      NOp   1
 Largest Abelian subgroup         C1      NOp   1
 Largest concise Abelian subgroup C1      NOp   1
                         Standard orientation:                         
 ---------------------------------------------------------------------
 Center     Atomic      Atomic             Coordinates (Angstroms)
 Number     Number       Type             X           Y           Z
 ---------------------------------------------------------------------
      1          8           0        1.135472   -0.566063   -0.009000
      2          8           0       -2.424924    0.234814   -0.001018
      3          6           0        2.278745    0.291993   -0.003206
      4          6           0       -0.049039    0.159404    0.005712
      5          6           0       -1.220062   -0.431931    0.006801
      6          1           0        1.958656    1.373243    0.026329
      7          1           0        2.903775    0.070587    0.908390
      8          1           0        2.878542    0.113219   -0.895828
      9          1           0        0.070008    1.241188    0.006008
     10          1           0       -1.340243   -1.494189    0.000756
     11          1           0       -2.212987    1.229141   -0.021349
 ---------------------------------------------------------------------
 Rotational constants (GHZ):          27.5550528           2.2583215           2.1159887
 Leave Link  202 at Thu Sep  5 15:33:07 2019, MaxMem=   671088640 cpu:               3.5 elap:               1.8
 (Enter /shared/centos7/gaussian/g16/l301.exe)
 Standard basis: CC-pVTZ (5D, 7F)
 Ernie: Thresh=  0.10000D-02 Tol=  0.10000D-05 Strict=F.
 Ernie:  15 primitive shells out of 178 were deleted.
 There are   265 symmetry adapted cartesian basis functions of A   symmetry.
 There are   234 symmetry adapted basis functions of A   symmetry.
   234 basis functions,   362 primitive gaussians,   265 cartesian basis functions
    20 alpha electrons       20 beta electrons
       nuclear repulsion energy       171.5201028029 Hartrees.
 IExCor= 4336 DFT=T Ex+Corr=M062X ExCW=0 ScaHFX=  0.540000
 ScaDFX=  1.000000  1.000000  1.000000  1.000000 ScalE2=  1.000000  1.000000
 IRadAn=      5 IRanWt=     -1 IRanGd=            0 ICorTp=0 IEmpDi=  4
 NAtoms=   11 NActive=   11 NUniq=   11 SFac= 1.00D+00 NAtFMM=   60 NAOKFM=F Big=F
 Integral buffers will be    131072 words long.
 Raffenetti 2 integral format.
 Two-electron integral symmetry is turned on.
 Leave Link  301 at Thu Sep  5 15:33:08 2019, MaxMem=   671088640 cpu:               1.4 elap:               0.7
 (Enter /shared/centos7/gaussian/g16/l302.exe)
 NPDir=0 NMtPBC=     1 NCelOv=     1 NCel=       1 NClECP=     1 NCelD=      1
         NCelK=      1 NCelE2=     1 NClLst=     1 CellRange=     0.0.
 One-electron integrals computed using PRISM.
 One-electron integral symmetry used in STVInt
 NBasis=   234 RedAO= T EigKep=  2.59D-04  NBF=   234
 NBsUse=   234 1.00D-06 EigRej= -1.00D+00 NBFU=   234
 Precomputing XC quadrature grid using
 IXCGrd= 4 IRadAn=           5 IRanWt=          -1 IRanGd=           0 AccXCQ= 0.00D+00.
 Generated NRdTot=       0 NPtTot=           0 NUsed=           0 NTot=          32
 NSgBfM=   265   265   265   265   265 MxSgAt=    11 MxSgA2=    11.
 Leave Link  302 at Thu Sep  5 15:34:00 2019, MaxMem=   671088640 cpu:             103.0 elap:              51.5
 (Enter /shared/centos7/gaussian/g16/l303.exe)
 DipDrv:  MaxL=1.
 Leave Link  303 at Thu Sep  5 15:34:03 2019, MaxMem=   671088640 cpu:               7.2 elap:               3.6
 (Enter /shared/centos7/gaussian/g16/l401.exe)
 ExpMin= 1.03D-01 ExpMax= 1.53D+04 ExpMxC= 5.22D+02 IAcc=3 IRadAn=         5 AccDes= 0.00D+00
 Harris functional with IExCor= 1009 and IRadAn=       5 diagonalized for initial guess.
 HarFok:  IExCor= 1009 AccDes= 0.00D+00 IRadAn=         5 IDoV= 1 UseB2=F ITyADJ=14
 ICtDFT=  3500011 ScaDFX=  1.000000  1.000000  1.000000  1.000000
 FoFCou: FMM=F IPFlag=           0 FMFlag=      100000 FMFlg1=           0
         NFxFlg=           0 DoJE=T BraDBF=F KetDBF=T FulRan=T
         wScrn=  0.000000 ICntrl=       500 IOpCl=  0 I1Cent=   200000004 NGrid=           0
         NMat0=    1 NMatS0=      1 NMatT0=    0 NMatD0=    1 NMtDS0=    0 NMtDT0=    0
 Petite list used in FoFCou.
 Harris En= -268.195502340537    
 JPrj=0 DoOrth=F DoCkMO=F.
 Leave Link  401 at Thu Sep  5 15:34:30 2019, MaxMem=   671088640 cpu:              53.8 elap:              27.0
 (Enter /shared/centos7/gaussian/g16/l502.exe)
 Keep R1 ints in memory in canonical form, NReq=399924305.
 FoFCou: FMM=F IPFlag=           0 FMFlag=           0 FMFlg1=           0
         NFxFlg=           0 DoJE=F BraDBF=F KetDBF=F FulRan=T
         wScrn=  0.000000 ICntrl=       600 IOpCl=  0 I1Cent=           0 NGrid=           0
         NMat0=    1 NMatS0=  27495 NMatT0=    0 NMatD0=    1 NMtDS0=    0 NMtDT0=    0
 Symmetry not used in FoFCou.
 Two-electron integral symmetry not used.
 Closed shell SCF:
 Using DIIS extrapolation, IDIIS=  1040.
 NGot=   671088640 LenX=   292939207 LenY=   292868541
 Requested convergence on RMS density matrix=1.00D-08 within 900 cycles.
 Requested convergence on MAX density matrix=1.00D-06.
 Requested convergence on             energy=1.00D-06.
 No special actions if energy rises.
 Integral accuracy reduced to 1.0D-05 until final iterations.

 Cycle   1  Pass 0  IDiag  1:
 E= -268.179779875425    
 DIIS: error= 2.11D-02 at cycle   1 NSaved=   1.
 NSaved= 1 IEnMin= 1 EnMin= -268.179779875425     IErMin= 1 ErrMin= 2.11D-02
 ErrMax= 2.11D-02  0.00D+00 EMaxC= 1.00D-01 BMatC= 1.73D-01 BMatP= 1.73D-01
 IDIUse=3 WtCom= 7.89D-01 WtEn= 2.11D-01
 Coeff-Com:  0.100D+01
 Coeff-En:   0.100D+01
 Coeff:      0.100D+01
 Gap=     0.345 Goal=   None    Shift=    0.000
 GapD=    0.345 DampG=1.000 DampE=0.500 DampFc=0.5000 IDamp=-1.
 Damping current iteration by 5.00D-01
 RMSDP=1.85D-03 MaxDP=6.30D-02              OVMax= 1.15D-01

 Cycle   2  Pass 0  IDiag  1:
 E= -268.245827621883     Delta-E=       -0.066047746458 Rises=F Damp=T
 DIIS: error= 4.85D-03 at cycle   2 NSaved=   2.
 NSaved= 2 IEnMin= 2 EnMin= -268.245827621883     IErMin= 2 ErrMin= 4.85D-03
 ErrMax= 4.85D-03  0.00D+00 EMaxC= 1.00D-01 BMatC= 1.63D-02 BMatP= 1.73D-01
 IDIUse=3 WtCom= 9.51D-01 WtEn= 4.85D-02
 Coeff-Com: -0.171D+00 0.117D+01
 Coeff-En:   0.000D+00 0.100D+01
 Coeff:     -0.163D+00 0.116D+01
 Gap=     0.324 Goal=   None    Shift=    0.000
 RMSDP=3.85D-04 MaxDP=9.53D-03 DE=-6.60D-02 OVMax= 5.40D-02

 Cycle   3  Pass 0  IDiag  1:
 E= -268.303436303183     Delta-E=       -0.057608681300 Rises=F Damp=F
 DIIS: error= 4.03D-03 at cycle   3 NSaved=   3.
 NSaved= 3 IEnMin= 3 EnMin= -268.303436303183     IErMin= 3 ErrMin= 4.03D-03
 ErrMax= 4.03D-03  0.00D+00 EMaxC= 1.00D-01 BMatC= 3.87D-03 BMatP= 1.63D-02
 IDIUse=3 WtCom= 9.60D-01 WtEn= 4.03D-02
 Coeff-Com: -0.116D+00 0.393D+00 0.722D+00
 Coeff-En:   0.000D+00 0.000D+00 0.100D+01
 Coeff:     -0.111D+00 0.378D+00 0.734D+00
 Gap=     0.325 Goal=   None    Shift=    0.000
 RMSDP=1.65D-04 MaxDP=5.91D-03 DE=-5.76D-02 OVMax= 1.93D-02

 Cycle   4  Pass 0  IDiag  1:
 E= -268.305260577636     Delta-E=       -0.001824274453 Rises=F Damp=F
 DIIS: error= 1.71D-03 at cycle   4 NSaved=   4.
 NSaved= 4 IEnMin= 4 EnMin= -268.305260577636     IErMin= 4 ErrMin= 1.71D-03
 ErrMax= 1.71D-03  0.00D+00 EMaxC= 1.00D-01 BMatC= 9.70D-04 BMatP= 3.87D-03
 IDIUse=3 WtCom= 9.83D-01 WtEn= 1.71D-02
 Coeff-Com: -0.366D-01 0.892D-01 0.378D+00 0.570D+00
 Coeff-En:   0.000D+00 0.000D+00 0.211D+00 0.789D+00
 Coeff:     -0.359D-01 0.877D-01 0.375D+00 0.573D+00
 Gap=     0.320 Goal=   None    Shift=    0.000
 RMSDP=7.09D-05 MaxDP=2.93D-03 DE=-1.82D-03 OVMax= 8.37D-03

 Cycle   5  Pass 0  IDiag  1:
 E= -268.306011090243     Delta-E=       -0.000750512607 Rises=F Damp=F
 DIIS: error= 2.08D-04 at cycle   5 NSaved=   5.
 NSaved= 5 IEnMin= 5 EnMin= -268.306011090243     IErMin= 5 ErrMin= 2.08D-04
 ErrMax= 2.08D-04  0.00D+00 EMaxC= 1.00D-01 BMatC= 1.22D-05 BMatP= 9.70D-04
 IDIUse=3 WtCom= 9.98D-01 WtEn= 2.08D-03
 Coeff-Com: -0.564D-02 0.110D-01 0.820D-01 0.177D+00 0.735D+00
 Coeff-En:   0.000D+00 0.000D+00 0.000D+00 0.000D+00 0.100D+01
 Coeff:     -0.563D-02 0.110D-01 0.818D-01 0.177D+00 0.736D+00
 Gap=     0.320 Goal=   None    Shift=    0.000
 RMSDP=1.24D-05 MaxDP=4.50D-04 DE=-7.51D-04 OVMax= 1.86D-03

 Cycle   6  Pass 0  IDiag  1:
 E= -268.306020066242     Delta-E=       -0.000008975999 Rises=F Damp=F
 DIIS: error= 1.01D-04 at cycle   6 NSaved=   6.
 NSaved= 6 IEnMin= 6 EnMin= -268.306020066242     IErMin= 6 ErrMin= 1.01D-04
 ErrMax= 1.01D-04  0.00D+00 EMaxC= 1.00D-01 BMatC= 3.09D-06 BMatP= 1.22D-05
 IDIUse=3 WtCom= 9.99D-01 WtEn= 1.01D-03
 Coeff-Com: -0.585D-03-0.102D-03 0.200D-01 0.616D-01 0.400D+00 0.519D+00
 Coeff-En:   0.000D+00 0.000D+00 0.000D+00 0.000D+00 0.416D-01 0.958D+00
 Coeff:     -0.585D-03-0.102D-03 0.200D-01 0.615D-01 0.400D+00 0.519D+00
 Gap=     0.320 Goal=   None    Shift=    0.000
 RMSDP=4.20D-06 MaxDP=1.49D-04 DE=-8.98D-06 OVMax= 5.56D-04

 Initial convergence to 1.0D-05 achieved.  Increase integral accuracy.
 Cycle   7  Pass 1  IDiag  1:
 E= -268.306044773933     Delta-E=       -0.000024707691 Rises=F Damp=F
 DIIS: error= 2.19D-05 at cycle   1 NSaved=   1.
 NSaved= 1 IEnMin= 1 EnMin= -268.306044773933     IErMin= 1 ErrMin= 2.19D-05
 ErrMax= 2.19D-05  0.00D+00 EMaxC= 1.00D-01 BMatC= 2.73D-07 BMatP= 2.73D-07
 IDIUse=1 WtCom= 1.00D+00 WtEn= 0.00D+00
 Coeff-Com:  0.100D+01
 Coeff:      0.100D+01
 Gap=     0.320 Goal=   None    Shift=    0.000
 RMSDP=4.20D-06 MaxDP=1.49D-04 DE=-2.47D-05 OVMax= 1.99D-04

 Cycle   8  Pass 1  IDiag  1:
 E= -268.306044922434     Delta-E=       -0.000000148501 Rises=F Damp=F
 DIIS: error= 1.81D-05 at cycle   2 NSaved=   2.
 NSaved= 2 IEnMin= 2 EnMin= -268.306044922434     IErMin= 2 ErrMin= 1.81D-05
 ErrMax= 1.81D-05  0.00D+00 EMaxC= 1.00D-01 BMatC= 9.49D-08 BMatP= 2.73D-07
 IDIUse=1 WtCom= 1.00D+00 WtEn= 0.00D+00
 Coeff-Com:  0.304D+00 0.696D+00
 Coeff:      0.304D+00 0.696D+00
 Gap=     0.320 Goal=   None    Shift=    0.000
 RMSDP=1.13D-06 MaxDP=3.14D-05 DE=-1.49D-07 OVMax= 1.34D-04

 Cycle   9  Pass 1  IDiag  1:
 E= -268.306044960619     Delta-E=       -0.000000038185 Rises=F Damp=F
 DIIS: error= 1.44D-05 at cycle   3 NSaved=   3.
 NSaved= 3 IEnMin= 3 EnMin= -268.306044960619     IErMin= 3 ErrMin= 1.44D-05
 ErrMax= 1.44D-05  0.00D+00 EMaxC= 1.00D-01 BMatC= 4.11D-08 BMatP= 9.49D-08
 IDIUse=1 WtCom= 1.00D+00 WtEn= 0.00D+00
 Coeff-Com: -0.330D-01 0.396D+00 0.637D+00
 Coeff:     -0.330D-01 0.396D+00 0.637D+00
 Gap=     0.320 Goal=   None    Shift=    0.000
 RMSDP=5.19D-07 MaxDP=1.79D-05 DE=-3.82D-08 OVMax= 7.46D-05

 Cycle  10  Pass 1  IDiag  1:
 E= -268.306044991696     Delta-E=       -0.000000031077 Rises=F Damp=F
 DIIS: error= 1.36D-06 at cycle   4 NSaved=   4.
 NSaved= 4 IEnMin= 4 EnMin= -268.306044991696     IErMin= 4 ErrMin= 1.36D-06
 ErrMax= 1.36D-06  0.00D+00 EMaxC= 1.00D-01 BMatC= 3.33D-10 BMatP= 4.11D-08
 IDIUse=1 WtCom= 1.00D+00 WtEn= 0.00D+00
 Coeff-Com: -0.132D-01 0.575D-01 0.139D+00 0.817D+00
 Coeff:     -0.132D-01 0.575D-01 0.139D+00 0.817D+00
 Gap=     0.320 Goal=   None    Shift=    0.000
 RMSDP=6.43D-08 MaxDP=2.51D-06 DE=-3.11D-08 OVMax= 9.57D-06

 Cycle  11  Pass 1  IDiag  1:
 E= -268.306044992012     Delta-E=       -0.000000000316 Rises=F Damp=F
 DIIS: error= 4.67D-07 at cycle   5 NSaved=   5.
 NSaved= 5 IEnMin= 5 EnMin= -268.306044992012     IErMin= 5 ErrMin= 4.67D-07
 ErrMax= 4.67D-07  0.00D+00 EMaxC= 1.00D-01 BMatC= 8.77D-11 BMatP= 3.33D-10
 IDIUse=1 WtCom= 1.00D+00 WtEn= 0.00D+00
 Coeff-Com: -0.194D-02-0.246D-01-0.143D-01 0.340D+00 0.701D+00
 Coeff:     -0.194D-02-0.246D-01-0.143D-01 0.340D+00 0.701D+00
 Gap=     0.320 Goal=   None    Shift=    0.000
 RMSDP=3.11D-08 MaxDP=9.27D-07 DE=-3.16D-10 OVMax= 3.96D-06

 Cycle  12  Pass 1  IDiag  1:
 E= -268.306044992085     Delta-E=       -0.000000000073 Rises=F Damp=F
 DIIS: error= 2.38D-07 at cycle   6 NSaved=   6.
 NSaved= 6 IEnMin= 6 EnMin= -268.306044992085     IErMin= 6 ErrMin= 2.38D-07
 ErrMax= 2.38D-07  0.00D+00 EMaxC= 1.00D-01 BMatC= 1.39D-11 BMatP= 8.77D-11
 IDIUse=1 WtCom= 1.00D+00 WtEn= 0.00D+00
 Coeff-Com:  0.170D-02-0.219D-01-0.302D-01 0.909D-02 0.325D+00 0.717D+00
 Coeff:      0.170D-02-0.219D-01-0.302D-01 0.909D-02 0.325D+00 0.717D+00
 Gap=     0.320 Goal=   None    Shift=    0.000
 RMSDP=1.12D-08 MaxDP=3.50D-07 DE=-7.31D-11 OVMax= 1.53D-06

 Cycle  13  Pass 1  IDiag  1:
 E= -268.306044992100     Delta-E=       -0.000000000015 Rises=F Damp=F
 DIIS: error= 2.25D-08 at cycle   7 NSaved=   7.
 NSaved= 7 IEnMin= 7 EnMin= -268.306044992100     IErMin= 7 ErrMin= 2.25D-08
 ErrMax= 2.25D-08  0.00D+00 EMaxC= 1.00D-01 BMatC= 1.67D-13 BMatP= 1.39D-11
 IDIUse=1 WtCom= 1.00D+00 WtEn= 0.00D+00
 Coeff-Com:  0.364D-03-0.321D-02-0.462D-02-0.103D-01 0.371D-01 0.119D+00
 Coeff-Com:  0.862D+00
 Coeff:      0.364D-03-0.321D-02-0.462D-02-0.103D-01 0.371D-01 0.119D+00
 Coeff:      0.862D+00
 Gap=     0.320 Goal=   None    Shift=    0.000
 RMSDP=2.05D-09 MaxDP=6.02D-08 DE=-1.46D-11 OVMax= 1.70D-07

 SCF Done:  E(RM062X) =  -268.306044992     A.U. after   13 cycles
            NFock= 13  Conv=0.21D-08     -V/T= 2.0061
 KE= 2.666891586509D+02 PE=-9.713637027926D+02 EE= 2.648483963466D+02
 Leave Link  502 at Thu Sep  5 15:38:56 2019, MaxMem=   671088640 cpu:             523.9 elap:             265.5
 (Enter /shared/centos7/gaussian/g16/l801.exe)
 DoSCS=F DFT=T ScalE2(SS,OS)=  1.000000  1.000000
 Range of M.O.s used for correlation:     1   234
 NBasis=   234 NAE=    20 NBE=    20 NFC=     0 NFV=     0
 NROrb=    234 NOA=    20 NOB=    20 NVA=   214 NVB=   214

 **** Warning!!: The largest alpha MO coefficient is  0.14976851D+02

 Leave Link  801 at Thu Sep  5 15:38:57 2019, MaxMem=   671088640 cpu:               2.1 elap:               1.1
 (Enter /shared/centos7/gaussian/g16/l1101.exe)
 Using compressed storage, NAtomX=    11.
 Will process     12 centers per pass.
 Leave Link 1101 at Thu Sep  5 15:39:18 2019, MaxMem=   671088640 cpu:              42.1 elap:              21.1
 (Enter /shared/centos7/gaussian/g16/l1102.exe)
 Symmetrizing basis deriv contribution to polar:
 IMax=3 JMax=2 DiffMx= 0.00D+00
 Leave Link 1102 at Thu Sep  5 15:39:20 2019, MaxMem=   671088640 cpu:               4.3 elap:               2.1
 (Enter /shared/centos7/gaussian/g16/l1110.exe)
 Forming Gx(P) for the SCF density, NAtomX=    11.
 Integral derivatives from FoFJK, PRISM(SPDF).
 Do as many integral derivatives as possible in FoFJK.
 G2DrvN: MDV=     671087712.
 G2DrvN: will do    12 centers at a time, making    1 passes.
 Calling FoFCou, ICntrl=  3107 FMM=F I1Cent=   0 AccDes= 0.00D+00.
 FoFJK:  IHMeth= 1 ICntrl=    3107 DoSepK=F KAlg= 0 I1Cent=           0 FoldK=F
 IRaf=         0 NMat=       1 IRICut=       1 DoRegI=T DoRafI=F ISym2E= 0 IDoP0=0 IntGTp=1.
 FoFCou: FMM=F IPFlag=           0 FMFlag=      100000 FMFlg1=           0
         NFxFlg=           0 DoJE=F BraDBF=F KetDBF=F FulRan=T
         wScrn=  0.000000 ICntrl=      3107 IOpCl=  0 I1Cent=           0 NGrid=           0
         NMat0=    1 NMatS0=      1 NMatT0=    0 NMatD0=    1 NMtDS0=    0 NMtDT0=    0
 Symmetry not used in FoFCou.
 End of G2Drv F.D. properties file   721 does not exist.
 End of G2Drv F.D. properties file   722 does not exist.
 End of G2Drv F.D. properties file   788 does not exist.
 Leave Link 1110 at Thu Sep  5 15:44:02 2019, MaxMem=   671088640 cpu:             563.6 elap:             281.9
 (Enter /shared/centos7/gaussian/g16/l1002.exe)
 Minotr:  Closed shell wavefunction.
          IDoAtm=11111111111
          Direct CPHF calculation.
          Differentiating once with respect to nuclear coordinates.
          Requested convergence is 1.0D-08 RMS, and 1.0D-07 maximum.
          Secondary convergence is 1.0D-12 RMS, and 1.0D-12 maximum.
          NewPWx=T KeepS1=F KeepF1=F KeepIn=T MapXYZ=F SortEE=F KeepMc=T.
         3279 words used for storage of precomputed grid.
 Keep R1 ints in memory in canonical form, NReq=399865278.
 FoFCou: FMM=F IPFlag=           0 FMFlag=           0 FMFlg1=           0
         NFxFlg=           0 DoJE=F BraDBF=F KetDBF=F FulRan=T
         wScrn=  0.000000 ICntrl=       600 IOpCl=  0 I1Cent=           0 NGrid=           0
         NMat0=    1 NMatS0=  27495 NMatT0=    0 NMatD0=    1 NMtDS0=    0 NMtDT0=    0
 Symmetry not used in FoFCou.
 Two-electron integral symmetry not used.
          MDV=     671088640 using IRadAn=       1.
          Solving linear equations simultaneously, MaxMat=       0.
          There are    36 degrees of freedom in the 1st order CPHF.  IDoFFX=6 NUNeed=     0.
     30 vectors produced by pass  0 Test12= 1.19D-14 2.78D-09 XBig12= 6.45D-02 7.98D-02.
 AX will form    30 AO Fock derivatives at one time.
     30 vectors produced by pass  1 Test12= 1.19D-14 2.78D-09 XBig12= 1.10D-02 3.42D-02.
     30 vectors produced by pass  2 Test12= 1.19D-14 2.78D-09 XBig12= 4.34D-04 4.61D-03.
     30 vectors produced by pass  3 Test12= 1.19D-14 2.78D-09 XBig12= 4.84D-06 3.96D-04.
     30 vectors produced by pass  4 Test12= 1.19D-14 2.78D-09 XBig12= 4.04D-08 3.22D-05.
     30 vectors produced by pass  5 Test12= 1.19D-14 2.78D-09 XBig12= 1.87D-10 1.96D-06.
     20 vectors produced by pass  6 Test12= 1.19D-14 2.78D-09 XBig12= 8.80D-13 1.55D-07.
      5 vectors produced by pass  7 Test12= 1.19D-14 2.78D-09 XBig12= 3.51D-15 8.77D-09.
 InvSVY:  IOpt=1 It=  1 EMax= 8.88D-16
 Solved reduced A of dimension   205 with    30 vectors.
 End of Minotr F.D. properties file   721 does not exist.
 End of Minotr F.D. properties file   722 does not exist.
 End of Minotr F.D. properties file   788 does not exist.
 Leave Link 1002 at Thu Sep  5 15:51:53 2019, MaxMem=   671088640 cpu:             943.0 elap:             471.6
 (Enter /shared/centos7/gaussian/g16/l601.exe)
 Copying SCF densities to generalized density rwf, IOpCl= 0 IROHF=0.

 **********************************************************************

            Population analysis using the SCF density.

 **********************************************************************

 Orbital symmetries:
       Occupied  (A) (A) (A) (A) (A) (A) (A) (A) (A) (A) (A) (A)
                 (A) (A) (A) (A) (A) (A) (A) (A)
       Virtual   (A) (A) (A) (A) (A) (A) (A) (A) (A) (A) (A) (A)
                 (A) (A) (A) (A) (A) (A) (A) (A) (A) (A) (A) (A)
                 (A) (A) (A) (A) (A) (A) (A) (A) (A) (A) (A) (A)
                 (A) (A) (A) (A) (A) (A) (A) (A) (A) (A) (A) (A)
                 (A) (A) (A) (A) (A) (A) (A) (A) (A) (A) (A) (A)
                 (A) (A) (A) (A) (A) (A) (A) (A) (A) (A) (A) (A)
                 (A) (A) (A) (A) (A) (A) (A) (A) (A) (A) (A) (A)
                 (A) (A) (A) (A) (A) (A) (A) (A) (A) (A) (A) (A)
                 (A) (A) (A) (A) (A) (A) (A) (A) (A) (A) (A) (A)
                 (A) (A) (A) (A) (A) (A) (A) (A) (A) (A) (A) (A)
                 (A) (A) (A) (A) (A) (A) (A) (A) (A) (A) (A) (A)
                 (A) (A) (A) (A) (A) (A) (A) (A) (A) (A) (A) (A)
                 (A) (A) (A) (A) (A) (A) (A) (A) (A) (A) (A) (A)
                 (A) (A) (A) (A) (A) (A) (A) (A) (A) (A) (A) (A)
                 (A) (A) (A) (A) (A) (A) (A) (A) (A) (A) (A) (A)
                 (A) (A) (A) (A) (A) (A) (A) (A) (A) (A) (A) (A)
                 (A) (A) (A) (A) (A) (A) (A) (A) (A) (A) (A) (A)
                 (A) (A) (A) (A) (A) (A) (A) (A) (A) (A)
 The electronic state is 1-A.
 Alpha  occ. eigenvalues --  -19.64953 -19.64731 -10.59705 -10.58143 -10.57977
 Alpha  occ. eigenvalues --   -1.17539  -1.16103  -0.85831  -0.76893  -0.69261
 Alpha  occ. eigenvalues --   -0.60356  -0.58171  -0.53768  -0.50848  -0.48054
 Alpha  occ. eigenvalues --   -0.46941  -0.43665  -0.41851  -0.40281  -0.26294
 Alpha virt. eigenvalues --    0.05754   0.07437   0.08103   0.10291   0.12604
 Alpha virt. eigenvalues --    0.13717   0.14183   0.19197   0.23860   0.27135
 Alpha virt. eigenvalues --    0.27214   0.28841   0.31536   0.35610   0.36160
 Alpha virt. eigenvalues --    0.38662   0.41959   0.43383   0.44437   0.46006
 Alpha virt. eigenvalues --    0.47304   0.48427   0.48647   0.49484   0.52994
 Alpha virt. eigenvalues --    0.56625   0.57486   0.57715   0.61218   0.62462
 Alpha virt. eigenvalues --    0.63806   0.65313   0.70155   0.73214   0.73766
 Alpha virt. eigenvalues --    0.77688   0.78053   0.82990   0.83326   0.88861
 Alpha virt. eigenvalues --    0.90466   0.91304   0.91630   0.99217   0.99472
 Alpha virt. eigenvalues --    1.00017   1.05176   1.06935   1.07486   1.08819
 Alpha virt. eigenvalues --    1.12283   1.14409   1.18915   1.22157   1.26579
 Alpha virt. eigenvalues --    1.27204   1.28918   1.29097   1.33377   1.34413
 Alpha virt. eigenvalues --    1.35952   1.37904   1.42200   1.45152   1.46479
 Alpha virt. eigenvalues --    1.51712   1.56189   1.58592   1.73278   1.79353
 Alpha virt. eigenvalues --    1.81001   1.88480   1.90841   1.98851   1.99091
 Alpha virt. eigenvalues --    2.02378   2.11240   2.11872   2.14260   2.20086
 Alpha virt. eigenvalues --    2.20608   2.24536   2.30505   2.33629   2.35103
 Alpha virt. eigenvalues --    2.37668   2.46645   2.50702   2.55793   2.57781
 Alpha virt. eigenvalues --    2.59766   2.61925   2.67171   2.74584   2.75774
 Alpha virt. eigenvalues --    2.77304   2.80567   2.83099   2.84626   2.87318
 Alpha virt. eigenvalues --    2.88358   2.90067   2.92203   2.94104   2.96213
 Alpha virt. eigenvalues --    2.99395   3.00699   3.03186   3.07885   3.08528
 Alpha virt. eigenvalues --    3.11104   3.17611   3.17833   3.18693   3.20274
 Alpha virt. eigenvalues --    3.21388   3.23734   3.26858   3.27211   3.29184
 Alpha virt. eigenvalues --    3.29844   3.32428   3.37638   3.39165   3.39370
 Alpha virt. eigenvalues --    3.41313   3.44453   3.46981   3.47260   3.54391
 Alpha virt. eigenvalues --    3.54742   3.59056   3.62107   3.68670   3.69264
 Alpha virt. eigenvalues --    3.72365   3.72708   3.75347   3.79589   3.80913
 Alpha virt. eigenvalues --    3.81161   3.85213   3.88308   3.89943   3.91151
 Alpha virt. eigenvalues --    3.95684   3.98916   3.99751   4.02232   4.04061
 Alpha virt. eigenvalues --    4.10276   4.13701   4.17200   4.19532   4.20737
 Alpha virt. eigenvalues --    4.25603   4.31920   4.43161   4.43863   4.49386
 Alpha virt. eigenvalues --    4.53514   4.57629   4.59354   4.60420   4.71751
 Alpha virt. eigenvalues --    4.79572   4.81577   4.83262   4.84564   4.87477
 Alpha virt. eigenvalues --    4.89711   4.94418   5.01334   5.02006   5.03085
 Alpha virt. eigenvalues --    5.05512   5.09101   5.17621   5.25703   5.26573
 Alpha virt. eigenvalues --    5.40718   5.44689   5.47697   5.51278   5.57069
 Alpha virt. eigenvalues --    5.69781   5.75831   5.78812   5.80829   5.87897
 Alpha virt. eigenvalues --    5.91343   5.95749   6.11753   6.27111   6.36507
 Alpha virt. eigenvalues --    6.39711   6.47805   6.58304   6.64703   6.71022
 Alpha virt. eigenvalues --    6.75953   6.76602   6.78381   6.90837   7.03898
 Alpha virt. eigenvalues --    7.11713   7.21043   7.27302   7.35692  10.31263
 Alpha virt. eigenvalues --   10.91802  11.61375  12.90183  14.17002
          Condensed to atoms (all electrons):
               1          2          3          4          5          6
     1  O    7.864323   0.002300   0.303396   0.319076  -0.065758  -0.041174
     2  O    0.002300   7.797070  -0.000079  -0.078173   0.353260  -0.000135
     3  C    0.303396  -0.000079   4.686928  -0.065121   0.005089   0.397061
     4  C    0.319076  -0.078173  -0.065121   4.930064   0.634865  -0.027030
     5  C   -0.065758   0.353260   0.005089   0.634865   4.782574   0.000008
     6  H   -0.041174  -0.000135   0.397061  -0.027030   0.000008   0.675402
     7  H   -0.039325   0.000004   0.395946   0.004558   0.000301  -0.039468
     8  H   -0.038560   0.000004   0.399941   0.004131   0.000243  -0.043227
     9  H   -0.047573  -0.001706  -0.018298   0.397973  -0.062238   0.014460
    10  H    0.005183  -0.030099  -0.000216  -0.062993   0.402214   0.000183
    11  H   -0.000030   0.325486   0.000025  -0.005609  -0.055846  -0.000024
               7          8          9         10         11
     1  O   -0.039325  -0.038560  -0.047573   0.005183  -0.000030
     2  O    0.000004   0.000004  -0.001706  -0.030099   0.325486
     3  C    0.395946   0.399941  -0.018298  -0.000216   0.000025
     4  C    0.004558   0.004131   0.397973  -0.062993  -0.005609
     5  C    0.000301   0.000243  -0.062238   0.402214  -0.055846
     6  H   -0.039468  -0.043227   0.014460   0.000183  -0.000024
     7  H    0.632057  -0.050125   0.000012  -0.000010   0.000001
     8  H   -0.050125   0.620665   0.000258  -0.000005   0.000001
     9  H    0.000012   0.000258   0.610366   0.006507   0.007722
    10  H   -0.000010  -0.000005   0.006507   0.511930   0.007278
    11  H    0.000001   0.000001   0.007722   0.007278   0.459295
 Mulliken charges:
               1
     1  O   -0.261857
     2  O   -0.367933
     3  C   -0.104672
     4  C   -0.051740
     5  C    0.005286
     6  H    0.063946
     7  H    0.096050
     8  H    0.106675
     9  H    0.092517
    10  H    0.160027
    11  H    0.261700
 Sum of Mulliken charges =  -0.00000
 Mulliken charges with hydrogens summed into heavy atoms:
               1
     1  O   -0.261857
     2  O   -0.106233
     3  C    0.161999
     4  C    0.040777
     5  C    0.165314
 APT charges:
               1
     1  O   -0.161457
     2  O   -0.372202
     3  C   -0.947109
     4  C   -0.338681
     5  C   -0.302288
     6  H    0.199504
     7  H    0.427554
     8  H    0.437473
     9  H    0.241606
    10  H    0.383621
    11  H    0.431980
 Sum of APT charges =  -0.00000
 APT charges with hydrogens summed into heavy atoms:
               1
     1  O   -0.161457
     2  O    0.059778
     3  C    0.117422
     4  C   -0.097075
     5  C    0.081333
 Electronic spatial extent (au):  <R**2>=            561.0148
 Charge=             -0.0000 electrons
 Dipole moment (field-independent basis, Debye):
    X=              1.5080    Y=              2.2354    Z=             -0.0420  Tot=              2.6969
 Quadrupole moment (field-independent basis, Debye-Ang):
   XX=            -31.1940   YY=            -26.8120   ZZ=            -32.2161
   XY=             -0.1060   XZ=              0.0345   YZ=             -0.0708
 Traceless Quadrupole moment (field-independent basis, Debye-Ang):
   XX=             -1.1199   YY=              3.2620   ZZ=             -2.1421
   XY=             -0.1060   XZ=              0.0345   YZ=             -0.0708
 Octapole moment (field-independent basis, Debye-Ang**2):
  XXX=             21.2307  YYY=              3.0967  ZZZ=             -0.2115  XYY=            -10.6796
  XXY=              6.0599  XXZ=             -0.3512  XZZ=              1.1294  YZZ=             -0.4119
  YYZ=             -0.0944  XYZ=              0.0701
 Hexadecapole moment (field-independent basis, Debye-Ang**3):
 XXXX=           -607.1274 YYYY=            -69.5195 ZZZZ=            -39.1441 XXXY=            -16.6862
 XXXZ=             -0.2265 YYYX=             -9.2224 YYYZ=             -0.0375 ZZZX=             -0.2359
 ZZZY=             -0.0650 XXYY=            -96.3328 XXZZ=           -102.5761 YYZZ=            -20.9888
 XXYZ=             -0.5002 YYXZ=              0.1362 ZZXY=             -2.6933
 N-N= 1.715201028029D+02 E-N=-9.713636967925D+02  KE= 2.666891586509D+02
  Exact polarizability:   0.000   0.000   0.000   0.000   0.000   0.000
 Approx polarizability:  66.640   4.493  51.502   0.245  -0.108  38.057
 No NMR shielding tensors so no spin-rotation constants.
 Leave Link  601 at Thu Sep  5 15:52:16 2019, MaxMem=   671088640 cpu:              45.7 elap:              22.9
 (Enter /shared/centos7/gaussian/g16/l701.exe)
 SCFChk:  SCF convergence  2.05D-09 required  1.00D-08
 ... and contract with generalized density number  0.
 Compute integral second derivatives.
 Entering OneElI...
 Calculate overlap and kinetic energy integrals
    NBasis = 265  MinDer = 2  MaxDer = 2
 Requested accuracy = 0.1000D-12
 PrmmSu-InSpLW:  IPartL=    0 NPrtUS=   20 NPrtUL=    1 DoSpLW=F IThBeg=    0 IThEnd=   19 NThAct=   20.
 PrsmSu:  NPrtUS=  20 ThrOK=T IAlg=1 NPAlg=1 LenDen=           0 ISkipM=0 DoSpLW=F IThBeg=    0 IThEnd=   19.
 Prism:   IPart=     0 DynPar=F LinDyn=F Incr=           1.
 PRISM was handed    33440902 working-precision words and  3710 shell-pairs
 PRISM was handed    33440902 working-precision words and  3710 shell-pairs
 PRISM was handed    33440902 working-precision words and  3710 shell-pairs
 PRISM was handed    33440902 working-precision words and  3710 shell-pairs
 PRISM was handed    33440902 working-precision words and  3710 shell-pairs
 PRISM was handed    33440902 working-precision words and  3710 shell-pairs
 PRISM was handed    33440902 working-precision words and  3710 shell-pairs
 PRISM was handed    33440902 working-precision words and  3710 shell-pairs
 PRISM was handed    33440902 working-precision words and  3710 shell-pairs
 IPart=  0 NShTot=         228 NBatch=          68 AvBLen=         3.4
 IPart=  2 NShTot=         212 NBatch=          52 AvBLen=         4.1
 IPart= 16 NShTot=         166 NBatch=          25 AvBLen=         6.6
 PRISM was handed    33440902 working-precision words and  3710 shell-pairs
 PRISM was handed    33440902 working-precision words and  3710 shell-pairs
 PRISM was handed    33440902 working-precision words and  3710 shell-pairs
 PRISM was handed    33440902 working-precision words and  3710 shell-pairs
 IPart= 10 NShTot=         178 NBatch=          27 AvBLen=         6.6
 IPart=  5 NShTot=         196 NBatch=          42 AvBLen=         4.7
 IPart=  3 NShTot=         209 NBatch=          50 AvBLen=         4.2
 PRISM was handed    33440902 working-precision words and  3710 shell-pairs
 IPart= 12 NShTot=         177 NBatch=          27 AvBLen=         6.6
 PRISM was handed    33440902 working-precision words and  3710 shell-pairs
 PRISM was handed    33440902 working-precision words and  3710 shell-pairs
 IPart= 13 NShTot=         176 NBatch=          27 AvBLen=         6.5
 PRISM was handed    33440902 working-precision words and  3710 shell-pairs
 IPart=  7 NShTot=         186 NBatch=          34 AvBLen=         5.5
 PRISM was handed    33440902 working-precision words and  3710 shell-pairs
 IPart=  4 NShTot=         202 NBatch=          48 AvBLen=         4.2
 IPart=  6 NShTot=         191 NBatch=          37 AvBLen=         5.2
 PRISM was handed    33440902 working-precision words and  3710 shell-pairs
 IPart= 17 NShTot=         165 NBatch=          25 AvBLen=         6.6
 PRISM was handed    33440902 working-precision words and  3710 shell-pairs
 IPart= 18 NShTot=         164 NBatch=          25 AvBLen=         6.6
 IPart=  1 NShTot=         223 NBatch=          63 AvBLen=         3.5
 IPart= 19 NShTot=         163 NBatch=          25 AvBLen=         6.5
 IPart=  9 NShTot=         179 NBatch=          28 AvBLen=         6.4
 IPart=  8 NShTot=         180 NBatch=          28 AvBLen=         6.4
 IPart= 15 NShTot=         167 NBatch=          25 AvBLen=         6.7
 IPart= 11 NShTot=         177 NBatch=          27 AvBLen=         6.6
 IPart= 14 NShTot=         171 NBatch=          27 AvBLen=         6.3
 PrSmSu:  NxtVal=             21.
 Entering OneElI...
 Calculate potential energy integrals
    NBasis = 265  MinDer = 2  MaxDer = 2
 Requested accuracy = 0.1000D-12
 PrmmSu-InSpLW:  IPartL=    0 NPrtUS=   20 NPrtUL=    1 DoSpLW=F IThBeg=    0 IThEnd=   19 NThAct=   20.
 PrsmSu:  NPrtUS=  20 ThrOK=T IAlg=1 NPAlg=1 LenDen=           0 ISkipM=0 DoSpLW=F IThBeg=    0 IThEnd=   19.
 Prism:   IPart=     0 DynPar=F LinDyn=F Incr=          18.
 PRISM was handed    33457932 working-precision words and  3447 shell-pairs
 PRISM was handed    33457932 working-precision words and  3447 shell-pairs
 PRISM was handed    33457932 working-precision words and  3447 shell-pairs
 PRISM was handed    33457932 working-precision words and  3447 shell-pairs
 PRISM was handed    33457932 working-precision words and  3447 shell-pairs
 PRISM was handed    33457932 working-precision words and  3447 shell-pairs
 PRISM was handed    33457932 working-precision words and  3447 shell-pairs
 PRISM was handed    33457932 working-precision words and  3447 shell-pairs
 PRISM was handed    33457932 working-precision words and  3447 shell-pairs
 PRISM was handed    33457932 working-precision words and  3447 shell-pairs
 PRISM was handed    33457932 working-precision words and  3447 shell-pairs
 PRISM was handed    33457932 working-precision words and  3447 shell-pairs
 PRISM was handed    33457932 working-precision words and  3447 shell-pairs
 PRISM was handed    33457932 working-precision words and  3447 shell-pairs
 PRISM was handed    33457932 working-precision words and  3447 shell-pairs
 PRISM was handed    33457932 working-precision words and  3447 shell-pairs
 PRISM was handed    33457932 working-precision words and  3447 shell-pairs
 PRISM was handed    33457932 working-precision words and  3447 shell-pairs
 PRISM was handed    33457932 working-precision words and  3447 shell-pairs
 PRISM was handed    33457932 working-precision words and  3447 shell-pairs
 IPart=  8 NShTot=        1881 NBatch=         171 AvBLen=        11.0
 IPart=  1 NShTot=        2233 NBatch=         203 AvBLen=        11.0
 IPart=  4 NShTot=        2002 NBatch=         182 AvBLen=        11.0
 IPart=  7 NShTot=        1881 NBatch=         171 AvBLen=        11.0
 IPart=  5 NShTot=        1914 NBatch=         174 AvBLen=        11.0
 IPart=  0 NShTot=        2343 NBatch=         213 AvBLen=        11.0
 IPart= 10 NShTot=        1848 NBatch=         168 AvBLen=        11.0
 IPart= 12 NShTot=        1793 NBatch=         163 AvBLen=        11.0
 IPart=  2 NShTot=        2178 NBatch=         198 AvBLen=        11.0
 IPart= 16 NShTot=        1749 NBatch=         159 AvBLen=        11.0
 IPart= 19 NShTot=        1694 NBatch=         154 AvBLen=        11.0
 IPart= 18 NShTot=        1716 NBatch=         156 AvBLen=        11.0
 IPart=  9 NShTot=        1859 NBatch=         169 AvBLen=        11.0
 IPart= 13 NShTot=        1782 NBatch=         162 AvBLen=        11.0
 IPart=  6 NShTot=        1903 NBatch=         173 AvBLen=        11.0
 IPart= 17 NShTot=        1738 NBatch=         158 AvBLen=        11.0
 IPart= 11 NShTot=        1815 NBatch=         165 AvBLen=        11.0
 IPart= 14 NShTot=        1771 NBatch=         161 AvBLen=        11.0
 IPart=  3 NShTot=        2057 NBatch=         187 AvBLen=        11.0
 IPart= 15 NShTot=        1760 NBatch=         160 AvBLen=        11.0
 PrSmSu:  NxtVal=            361.
 Polarizability after L701:
                1             2             3 
      1  0.000000D+00
      2  0.000000D+00  0.000000D+00
      3  0.000000D+00  0.000000D+00  0.000000D+00
 Dipole Derivatives after L701:
                 1             2             3             4             5 
      1  -0.161744D+00 -0.145611D+00  0.394519D-02  0.368420D+00  0.103140D+01
      2  -0.161513D-01 -0.711978D-01  0.584106D-03 -0.542465D-01 -0.108496D+01
      3   0.427440D-02  0.169860D-02 -0.251430D+00 -0.236866D-02  0.140577D-01
                 6             7             8             9            10 
      1  -0.192674D-01 -0.132627D+01 -0.337009D+00 -0.332574D-01 -0.396640D+00
      2   0.147577D-01 -0.632994D-01 -0.749362D+00 -0.441766D-02  0.990920D-01
      3  -0.400071D+00  0.133299D-02  0.138412D-02 -0.765699D+00  0.114071D-01
                11            12            13            14            15 
      1   0.177394D-01  0.564776D-02 -0.409371D+00 -0.398807D+00 -0.855180D-02
      2  -0.650455D+00 -0.304880D-02 -0.115035D+00 -0.568906D+00 -0.370644D-02
      3  -0.959594D-03  0.310527D-01 -0.788240D-02 -0.458937D-02  0.714132D-01
                16            17            18            19            20 
      1  -0.355319D-01  0.593890D+00  0.993267D-02  0.749296D+00 -0.167746D+00
      2  -0.157156D+00  0.575152D+00  0.130009D-01  0.280027D-01  0.113994D+00
      3  -0.467942D-02  0.117738D-01  0.588922D-01  0.196815D+00 -0.105480D+00
                21            22            23            24            25 
      1   0.833262D+00  0.755309D+00 -0.110315D+00 -0.816934D+00  0.986198D-01
      2  -0.281506D-01  0.341482D-01  0.122499D+00  0.203109D-01  0.631542D-01
      3   0.419370D+00 -0.198042D+00  0.910390D-01  0.434611D+00 -0.123738D-02
                26            27            28            29            30 
      1   0.366451D-01 -0.111534D-02  0.223386D+00  0.596364D+00  0.280186D-02
      2   0.596072D+00  0.180582D-02  0.984573D-01  0.831097D+00  0.225852D-02
      3   0.108731D-02  0.301251D-01  0.213816D-02  0.849993D-03  0.963811D-01
                31            32            33 
      1   0.134524D+00 -0.111655D+01  0.235368D-01
      2   0.830340D-01  0.886062D+00 -0.133945D-01
      3  -0.175748D-02 -0.108616D-01  0.275354D+00
 Hessian after L701:
                1             2             3             4             5 
      1  0.202938D+01
      2  0.358871D+00  0.102918D+02
      3  0.797259D-01 -0.528354D-01  0.144220D+02
      4  0.457105D+00 -0.176150D+00 -0.185721D-02  0.488238D+01
      5 -0.117557D+00 -0.202337D+00  0.581580D-03  0.287487D+01  0.654607D+01
      6 -0.202451D-02  0.925993D-03 -0.212235D+00 -0.370197D-01  0.134172D+00
      7 -0.147125D+01  0.392454D+01  0.218752D-01  0.136911D+00  0.135990D-01
      8  0.373575D+01 -0.430093D+01  0.496135D-02 -0.336022D-02 -0.874926D-01
      9  0.206196D-01  0.380223D-02 -0.716083D+01 -0.872042D-03 -0.210894D-03
     10 -0.104148D+01 -0.394347D+01 -0.886021D-01  0.318651D+00  0.172629D+00
     11 -0.389534D+01 -0.579428D+01  0.594501D-01  0.870269D-01 -0.200066D+00
     12 -0.904549D-01  0.585029D-01 -0.788396D+01 -0.166951D-02  0.395110D-02
     13  0.169229D+00  0.101518D+00 -0.377215D-02 -0.949086D+00 -0.363838D+01
     14  0.124676D+00 -0.170103D+00 -0.223994D-02 -0.379037D+01 -0.568907D+01
     15 -0.377269D-03 -0.272781D-02  0.106137D+00  0.640040D-01 -0.461579D-01
     16 -0.866172D-02 -0.178468D+00  0.832778D-03  0.139571D-01  0.892484D-02
     17 -0.127906D+00  0.174104D+00  0.116866D-01  0.293725D-01  0.111582D-02
     18  0.234915D-03  0.934616D-02  0.904509D-01  0.662045D-03  0.395036D-03
     19 -0.129417D+00 -0.150476D+00  0.152042D+00  0.241397D-01  0.467929D-02
     20 -0.163416D+00 -0.173068D-01 -0.194146D-01 -0.451557D-02 -0.781260D-02
     21  0.142180D+00 -0.368462D-02  0.290211D+00  0.171736D-01  0.329796D-02
     22 -0.126767D+00 -0.153702D+00 -0.166925D+00  0.244087D-01  0.488484D-02
     23 -0.163277D+00 -0.270539D-01  0.707087D-02 -0.331219D-02 -0.759619D-02
     24 -0.155492D+00 -0.611400D-02  0.298405D+00 -0.171416D-01 -0.325857D-02
     25 -0.248343D-01  0.207197D+00  0.598957D-02  0.466167D-01  0.595002D-01
     26  0.205769D+00  0.743429D-01 -0.940077D-02  0.934276D-01  0.128261D-01
     27  0.502375D-02 -0.711451D-02  0.142750D+00 -0.143775D-02 -0.562737D-03
     28  0.131636D+00  0.296197D-01  0.628326D-03 -0.786236D-01  0.176149D+00
     29  0.105400D+00 -0.476195D-01  0.347702D-03  0.129029D+00  0.598671D-02
     30 -0.321534D-03  0.450739D-03 -0.759716D-01 -0.388198D-02  0.630828D-02
     31  0.150602D-01 -0.194846D-01  0.628056D-04 -0.487646D+01  0.440704D+00
     32 -0.629735D-01  0.193793D-01 -0.207451D-03  0.763986D+00 -0.371623D+00
     33  0.885966D-03 -0.551684D-03 -0.169611D-01 -0.179598D-01 -0.985158D-01
                6             7             8             9            10 
      6  0.131116D+02
      7 -0.353340D-03  0.907224D+01
      8  0.120241D-03 -0.310095D+01  0.122718D+02
      9 -0.722434D-01 -0.363961D-01  0.109107D-01  0.148033D+02
     10 -0.234421D-03  0.238400D+00  0.119103D-01  0.144021D-02  0.606806D+01
     11  0.323385D-02 -0.202536D-01 -0.170680D+00  0.719580D-03  0.815783D+00
     12  0.185179D+00  0.402199D-02  0.136323D-02 -0.121827D+00  0.107535D+00
     13  0.580248D-01  0.313193D+00  0.994416D-01 -0.688595D-03 -0.177460D+01
     14 -0.451305D-01  0.105695D+00 -0.130634D+00 -0.252107D-03  0.316704D+01
     15 -0.777757D+01  0.398176D-03  0.172135D-03 -0.134294D+00 -0.170671D-01
     16  0.241412D-03 -0.333297D+01 -0.353716D+00 -0.115239D-01 -0.796978D-01
     17  0.147362D-03 -0.598359D+00 -0.104952D+01  0.645471D-01 -0.198695D-01
     18 -0.125201D-01 -0.164996D-01  0.602135D-01 -0.341798D+01 -0.315505D-02
     19  0.559746D-02 -0.237532D+01 -0.227421D+00  0.116071D+01  0.105645D+00
     20 -0.679374D-03 -0.182565D+00 -0.318708D+01 -0.227565D+00 -0.970037D-02
     21 -0.388905D-02  0.104858D+01 -0.258980D+00 -0.183047D+01  0.637068D-01
     22 -0.578529D-02 -0.257265D+01 -0.165782D+00 -0.113119D+01  0.104192D+00
     23  0.561667D-03 -0.125866D+00 -0.338258D+01  0.146830D+00 -0.452755D-02
     24 -0.375238D-02 -0.102073D+01  0.180992D+00 -0.204500D+01 -0.622559D-01
     25 -0.330546D-02 -0.303510D-01 -0.350214D-02 -0.200670D-02 -0.392631D+01
     26 -0.154169D-02 -0.212896D-01  0.337219D-01  0.128425D-02  0.105183D+00
     27 -0.560890D-01 -0.126055D-02  0.437179D-03  0.581882D-03  0.219234D-02
     28 -0.388766D-02  0.124355D-01  0.125107D-01 -0.946072D-04  0.338147D-02
     29  0.761061D-02  0.248065D-01  0.154903D-02 -0.207748D-03 -0.257030D+00
     30  0.352222D-01 -0.657486D-04  0.512178D-05 -0.138784D-01 -0.562212D-02
     31 -0.112533D-01  0.936475D-02 -0.488020D-02  0.563327D-05 -0.162532D-01
     32 -0.994201D-01 -0.193552D-01  0.187457D-02  0.142303D-03 -0.379571D-01
     33 -0.519366D+01  0.434368D-03 -0.195002D-03 -0.734705D-02  0.206242D-02
               11            12            13            14            15 
     11  0.151342D+02
     12 -0.684657D-01  0.242750D+02
     13  0.322727D+01 -0.103763D-01  0.589086D+01
     14 -0.743368D+01  0.713042D-02  0.293291D+00  0.150400D+02
     15  0.599642D-02 -0.126195D+02 -0.468384D-01  0.266016D-01  0.240529D+02
     16 -0.393367D-01 -0.488760D-02  0.172947D-01  0.149628D-01 -0.603184D-03
     17  0.356936D-01 -0.237289D-02  0.452802D-01  0.370106D-02 -0.239405D-03
     18 -0.862232D-03  0.270909D-01  0.133183D-03  0.711507D-04 -0.175117D-01
     19 -0.172000D-01  0.365180D-01  0.389925D-01  0.651100D-02  0.298261D-02
     20 -0.418390D-01 -0.103957D-01 -0.584350D-04 -0.100328D-01 -0.182144D-02
     21 -0.104156D-01 -0.188668D-01  0.215978D-01  0.335963D-03 -0.838772D-02
     22 -0.137118D-01 -0.366277D-01  0.380289D-01  0.678074D-02 -0.290268D-02
     23 -0.421644D-01  0.925204D-02  0.155446D-02 -0.978219D-02  0.177274D-02
     24  0.886488D-02 -0.174819D-01 -0.211244D-01 -0.348532D-03 -0.810166D-02
     25  0.830924D-01  0.242513D-02  0.829657D-02 -0.295231D+00  0.355412D-02
     26 -0.132578D+01  0.102978D-01 -0.296782D+00 -0.192664D+00  0.524395D-02
     27  0.888238D-02 -0.398840D+01  0.308248D-02  0.423341D-02  0.176871D+00
     28 -0.284228D+00 -0.668688D-02 -0.388064D+01  0.267894D+00 -0.725623D-04
     29 -0.121492D+00 -0.899262D-02  0.200056D+00 -0.143337D+01  0.791232D-02
     30 -0.726492D-02  0.175847D+00  0.192499D-03  0.697481D-02 -0.387712D+01
     31  0.568908D-01  0.202862D-03  0.128423D+00  0.987502D-01 -0.307769D-02
     32 -0.399407D-01 -0.270547D-03 -0.331908D-01  0.256114D-01  0.324740D-02
     33 -0.138783D-03 -0.130172D-01 -0.230954D-03  0.262369D-02  0.106591D+00
               16            17            18            19            20 
     16  0.322098D+01
     17  0.316299D+00  0.102293D+01
     18 -0.740917D-03 -0.483230D-01  0.333693D+01
     19  0.218615D-01  0.145453D+00 -0.939163D-01  0.214152D+01
     20  0.114857D+00 -0.560101D-01  0.130463D+00  0.254247D+00  0.317623D+01
     21 -0.722914D-01  0.129861D+00  0.351679D-01 -0.124109D+01  0.128796D+00
     22  0.292786D-01  0.163067D+00  0.111199D+00  0.162832D+00 -0.560932D-02
     23  0.126759D+00 -0.561198D-01 -0.151003D+00 -0.443811D-02  0.142307D+00
     24  0.876280D-01 -0.155763D+00  0.295267D-01 -0.273675D-01  0.238888D-02
     25  0.114842D+00  0.386640D-01  0.192950D-02  0.506610D-02 -0.358757D-02
     26 -0.125603D-01 -0.782333D-01 -0.320174D-03 -0.120902D-01  0.153962D-02
     27  0.125375D-02  0.273018D-03 -0.680231D-01  0.333758D-02 -0.129807D-02
     28  0.200703D-02  0.675470D-02  0.956165D-04  0.334874D-02  0.820044D-03
     29  0.426972D-02  0.969928D-02  0.181698D-03  0.678622D-02 -0.772546D-03
     30  0.108290D-04  0.265054D-04 -0.190757D-02  0.641947D-03 -0.282799D-03
     31  0.110676D-02  0.124545D-02  0.572389D-04  0.133345D-02 -0.471490D-03
     32 -0.199125D-02 -0.735433D-02 -0.162222D-03 -0.605166D-02  0.773482D-03
     33  0.802086D-04  0.156518D-03 -0.123166D-02  0.543583D-03 -0.190107D-03
               21            22            23            24            25 
     21  0.183235D+01
     22  0.126799D-01  0.232881D+01
     23  0.186810D-01  0.176585D+00  0.338225D+01
     24 -0.293536D+00  0.122483D+01 -0.350149D-01  0.204289D+01
     25  0.382849D-02  0.708254D-02 -0.409038D-02 -0.475029D-02  0.374223D+01
     26 -0.836763D-02 -0.132817D-01  0.687594D-03  0.875551D-02 -0.106998D+00
     27 -0.165476D-02 -0.428937D-02  0.147546D-02 -0.185869D-02 -0.903037D-02
     28  0.285881D-02  0.342510D-02  0.104454D-02 -0.282731D-02 -0.563570D-02
     29  0.525569D-02  0.685478D-02 -0.381851D-03 -0.519433D-02  0.434703D-01
     30 -0.643177D-03 -0.679998D-03  0.253695D-03 -0.606983D-03  0.109059D-03
     31  0.777566D-03  0.136073D-02 -0.431983D-03 -0.763682D-03  0.629985D-01
     32 -0.477926D-02 -0.608504D-02  0.431851D-03  0.469224D-02 -0.185152D-01
     33 -0.283666D-03 -0.302428D-03  0.120464D-03 -0.477165D-03  0.125695D-02
               26            27            28            29            30 
     26  0.143988D+01
     27 -0.647207D-02  0.383793D+01
     28  0.446350D-01  0.181175D-03  0.382844D+01
     29  0.777520D-01  0.341922D-03 -0.228775D+00  0.139580D+01
     30  0.416607D-04 -0.123349D-01  0.946019D-02 -0.576371D-02  0.379288D+01
     31  0.139873D-01  0.946955D-03 -0.197804D-01 -0.348678D-01  0.156851D-03
     32 -0.440711D-01 -0.195980D-03 -0.264248D-01  0.112847D+00 -0.749368D-03
     33  0.479181D-03 -0.297755D-01  0.344907D-03 -0.149153D-02 -0.214861D-01
               31            32            33 
     31  0.469285D+01
     32 -0.551442D+00  0.302072D+00
     33  0.128848D-01  0.977030D-01  0.517765D+01
 Leave Link  701 at Thu Sep  5 15:52:37 2019, MaxMem=   671088640 cpu:              41.7 elap:              20.9
 (Enter /shared/centos7/gaussian/g16/l702.exe)
 L702 exits ... SP integral derivatives will be done elsewhere.
 Leave Link  702 at Thu Sep  5 15:52:38 2019, MaxMem=   671088640 cpu:               1.6 elap:               0.8
 (Enter /shared/centos7/gaussian/g16/l703.exe)
 Integral derivatives from FoFJK, PRISM(SPDF).
 Compute integral second derivatives, UseDBF=F ICtDFT=           0.
 ICntrl=    100147.
 Calling FoFJK, ICntrl=    100147 FMM=F ISym2X=0 I1Cent= 0 IOpClX= 0 NMat=1 NMatS=1 NMatT=0.
 FoFJK:  IHMeth= 1 ICntrl=  100147 DoSepK=F KAlg= 0 I1Cent=           0 FoldK=F
 IRaf=         0 NMat=       1 IRICut=       1 DoRegI=T DoRafI=F ISym2E= 0 IDoP0=0 IntGTp=1.
 FoFCou: FMM=F IPFlag=           0 FMFlag=      100000 FMFlg1=         800
         NFxFlg=           0 DoJE=F BraDBF=F KetDBF=F FulRan=T
         wScrn=  0.000000 ICntrl=    100147 IOpCl=  0 I1Cent=           0 NGrid=           0
         NMat0=    1 NMatS0=      1 NMatT0=    0 NMatD0=    1 NMtDS0=    0 NMtDT0=    0
 Symmetry not used in FoFCou.
 FoFCou:  KetSym=F NOpSet=  1 NOpAb=1 NOp=  1.
 FoFCou:  CnvScl= 1.00D+00 Thresh= 1.00D-08 IAcrcy=      12.
 PrismS was handed   670746257 working-precision words and  3560 shell-pairs
 FoFCou: LinMIO=F DoNuc=F BraDBF=F KetDBF=F HaveP=T PDBF=F HaveZ=T HaveW=F
         NIJTC =      10 NIJTAt=       0 NIJTCD=       0 NIJTT =      10
         IJTBeg=       1 IJTEnd=      10 KLTBeg=       1 KLTEnd=      10
         IPTBeg=       1 IPTEnd=      10 IPTBCv=       1 IPTECv=      10
         IZTBeg=       1 IZTEnd=      10 IZTBCv=       1 IZTECv=      10
         IWTBeg=      11 IWTEnd=      10 IWTBCv=      11 IWTECv=      10
         INTBeg=       1 INTEnd=       0 IFTBCv=       1 IFTECv=      10
 NCel replicated for PrismC:     1
 CoulSu-InSpLW:  IPartL=    0 NPrtUS=   20 NPrtUL=    1 DoSpLW=F IThBeg=    0 IThEnd=   19 NThAct=   20.
 CoulSu:  IncDef=  1024 NBBP=        6338580 NTPThr=   100 NPartT=   20 Incr=        1024 LDynOK=F GPUOK=T.
 CoulSu:  NPrtUS=  20 ThrOK=T IAlg=1 NPAlg=1 LenDen=           0 LWGrdD=           0 DoCopy=F ISkipM=0
          DoSpLW=F IThBeg=    0 IThEnd=   19.
 Enter PrismC:  IPart=  0 JobTyp=22 DoJE=F Cont=F.
 PrismC:  IPart=     0 DynPar=T LinDyn=F Incr=        1024 UseFst=F UseS4=T ISplat=2.
 PrismC was handed    33458946 working-precision words and  3560 shell-pairs
 Enter PrismC:  IPart= 16 JobTyp=22 DoJE=F Cont=F.
 PrismC:  IPart=    16 DynPar=T LinDyn=F Incr=        1024 UseFst=F UseS4=T ISplat=2.
 PrismC was handed    33458946 working-precision words and  3560 shell-pairs
 Enter PrismC:  IPart= 18 JobTyp=22 DoJE=F Cont=F.
 PrismC:  IPart=    18 DynPar=T LinDyn=F Incr=        1024 UseFst=F UseS4=T ISplat=2.
 PrismC was handed    33458946 working-precision words and  3560 shell-pairs
 Enter PrismC:  IPart= 17 JobTyp=22 DoJE=F Cont=F.
 PrismC:  IPart=    17 DynPar=T LinDyn=F Incr=        1024 UseFst=F UseS4=T ISplat=2.
 PrismC was handed    33458946 working-precision words and  3560 shell-pairs
 Enter PrismC:  IPart=  1 JobTyp=22 DoJE=F Cont=F.
 PrismC:  IPart=     1 DynPar=T LinDyn=F Incr=        1024 UseFst=F UseS4=T ISplat=2.
 PrismC was handed    33458946 working-precision words and  3560 shell-pairs
 Enter PrismC:  IPart=  6 JobTyp=22 DoJE=F Cont=F.
 PrismC:  IPart=     6 DynPar=T LinDyn=F Incr=        1024 UseFst=F UseS4=T ISplat=2.
 PrismC was handed    33458946 working-precision words and  3560 shell-pairs
 Enter PrismC:  IPart= 14 JobTyp=22 DoJE=F Cont=F.
 PrismC:  IPart=    14 DynPar=T LinDyn=F Incr=        1024 UseFst=F UseS4=T ISplat=2.
 PrismC was handed    33458946 working-precision words and  3560 shell-pairs
 Enter PrismC:  IPart=  9 JobTyp=22 DoJE=F Cont=F.
 Enter PrismC:  IPart= 19 JobTyp=22 DoJE=F Cont=F.
 PrismC:  IPart=    19 DynPar=T LinDyn=F Incr=        1024 UseFst=F UseS4=T ISplat=2.
 PrismC was handed    33458946 working-precision words and  3560 shell-pairs
 PrismC:  IPart=     9 DynPar=T LinDyn=F Incr=        1024 UseFst=F UseS4=T ISplat=2.
 PrismC was handed    33458946 working-precision words and  3560 shell-pairs
 Enter PrismC:  IPart=  2 JobTyp=22 DoJE=F Cont=F.
 PrismC:  IPart=     2 DynPar=T LinDyn=F Incr=        1024 UseFst=F UseS4=T ISplat=2.
 PrismC was handed    33458946 working-precision words and  3560 shell-pairs
 Enter PrismC:  IPart=  3 JobTyp=22 DoJE=F Cont=F.
 PrismC:  IPart=     3 DynPar=T LinDyn=F Incr=        1024 UseFst=F UseS4=T ISplat=2.
 PrismC was handed    33458946 working-precision words and  3560 shell-pairs
 Enter PrismC:  IPart= 13 JobTyp=22 DoJE=F Cont=F.
 PrismC:  IPart=    13 DynPar=T LinDyn=F Incr=        1024 UseFst=F UseS4=T ISplat=2.
 PrismC was handed    33458946 working-precision words and  3560 shell-pairs
 Enter PrismC:  IPart=  8 JobTyp=22 DoJE=F Cont=F.
 PrismC:  IPart=     8 DynPar=T LinDyn=F Incr=        1024 UseFst=F UseS4=T ISplat=2.
 PrismC was handed    33458946 working-precision words and  3560 shell-pairs
 Enter PrismC:  IPart= 10 JobTyp=22 DoJE=F Cont=F.
 PrismC:  IPart=    10 DynPar=T LinDyn=F Incr=        1024 UseFst=F UseS4=T ISplat=2.
 PrismC was handed    33458946 working-precision words and  3560 shell-pairs
 Enter PrismC:  IPart= 15 JobTyp=22 DoJE=F Cont=F.
 PrismC:  IPart=    15 DynPar=T LinDyn=F Incr=        1024 UseFst=F UseS4=T ISplat=2.
 PrismC was handed    33458946 working-precision words and  3560 shell-pairs
 Enter PrismC:  IPart=  5 JobTyp=22 DoJE=F Cont=F.
 PrismC:  IPart=     5 DynPar=T LinDyn=F Incr=        1024 UseFst=F UseS4=T ISplat=2.
 PrismC was handed    33458946 working-precision words and  3560 shell-pairs
 Enter PrismC:  IPart=  7 JobTyp=22 DoJE=F Cont=F.
 PrismC:  IPart=     7 DynPar=T LinDyn=F Incr=        1024 UseFst=F UseS4=T ISplat=2.
 PrismC was handed    33458946 working-precision words and  3560 shell-pairs
 Enter PrismC:  IPart= 12 JobTyp=22 DoJE=F Cont=F.
 PrismC:  IPart=    12 DynPar=T LinDyn=F Incr=        1024 UseFst=F UseS4=T ISplat=2.
 PrismC was handed    33458946 working-precision words and  3560 shell-pairs
 Enter PrismC:  IPart= 11 JobTyp=22 DoJE=F Cont=F.
 PrismC:  IPart=    11 DynPar=T LinDyn=F Incr=        1024 UseFst=F UseS4=T ISplat=2.
 PrismC was handed    33458946 working-precision words and  3560 shell-pairs
 Enter PrismC:  IPart=  4 JobTyp=22 DoJE=F Cont=F.
 PrismC:  IPart=     4 DynPar=T LinDyn=F Incr=        1024 UseFst=F UseS4=T ISplat=2.
 PrismC was handed    33458946 working-precision words and  3560 shell-pairs
 IPart=  9 NShTot=      170783 NShNF=      170783 NShFF=           0 MinMC=       7
           NShCPU=      170783 NBCPU=        7047 AvBCPU=        24.2
           NShGPU=           0 NBGPU=           0 AvBGPU=         0.0
 IPart=  5 NShTot=      259935 NShNF=      259935 NShFF=           0 MinMC=       7
           NShCPU=      259935 NBCPU=       10781 AvBCPU=        24.1
           NShGPU=           0 NBGPU=           0 AvBGPU=         0.0
 IPart= 19 NShTot=      273545 NShNF=      273545 NShFF=           0 MinMC=       7
           NShCPU=      273545 NBCPU=       10702 AvBCPU=        25.6
           NShGPU=           0 NBGPU=           0 AvBGPU=         0.0
 IPart=  4 NShTot=      174796 NShNF=      174796 NShFF=           0 MinMC=       7
           NShCPU=      174796 NBCPU=        7608 AvBCPU=        23.0
           NShGPU=           0 NBGPU=           0 AvBGPU=         0.0
 IPart= 14 NShTot=      255612 NShNF=      255612 NShFF=           0 MinMC=       7
           NShCPU=      255612 NBCPU=       10829 AvBCPU=        23.6
           NShGPU=           0 NBGPU=           0 AvBGPU=         0.0
 IPart= 12 NShTot=      173331 NShNF=      173331 NShFF=           0 MinMC=       7
           NShCPU=      173331 NBCPU=        7461 AvBCPU=        23.2
           NShGPU=           0 NBGPU=           0 AvBGPU=         0.0
 IPart= 15 NShTot=      253005 NShNF=      253005 NShFF=           0 MinMC=       7
           NShCPU=      253005 NBCPU=       10380 AvBCPU=        24.4
           NShGPU=           0 NBGPU=           0 AvBGPU=         0.0
 IPart=  8 NShTot=      171266 NShNF=      171266 NShFF=           0 MinMC=       7
           NShCPU=      171266 NBCPU=        6830 AvBCPU=        25.1
           NShGPU=           0 NBGPU=           0 AvBGPU=         0.0
 IPart=  1 NShTot=      260376 NShNF=      260376 NShFF=           0 MinMC=       7
           NShCPU=      260376 NBCPU=       10833 AvBCPU=        24.0
           NShGPU=           0 NBGPU=           0 AvBGPU=         0.0
 IPart=  0 NShTot=      162175 NShNF=      162175 NShFF=           0 MinMC=       7
           NShCPU=      162175 NBCPU=        6715 AvBCPU=        24.2
           NShGPU=           0 NBGPU=           0 AvBGPU=         0.0
 IPart=  3 NShTot=      165406 NShNF=      165406 NShFF=           0 MinMC=       7
           NShCPU=      165406 NBCPU=        7312 AvBCPU=        22.6
           NShGPU=           0 NBGPU=           0 AvBGPU=         0.0
 IPart= 18 NShTot=      270587 NShNF=      270587 NShFF=           0 MinMC=       7
           NShCPU=      270587 NBCPU=       11217 AvBCPU=        24.1
           NShGPU=           0 NBGPU=           0 AvBGPU=         0.0
 IPart=  2 NShTot=      174288 NShNF=      174288 NShFF=           0 MinMC=       7
           NShCPU=      174288 NBCPU=        7312 AvBCPU=        23.8
           NShGPU=           0 NBGPU=           0 AvBGPU=         0.0
 IPart=  7 NShTot=      166648 NShNF=      166648 NShFF=           0 MinMC=       7
           NShCPU=      166648 NBCPU=        6972 AvBCPU=        23.9
           NShGPU=           0 NBGPU=           0 AvBGPU=         0.0
 IPart= 16 NShTot=      263821 NShNF=      263821 NShFF=           0 MinMC=       7
           NShCPU=      263821 NBCPU=       11365 AvBCPU=        23.2
           NShGPU=           0 NBGPU=           0 AvBGPU=         0.0
 IPart=  6 NShTot=      168897 NShNF=      168897 NShFF=           0 MinMC=       7
           NShCPU=      168897 NBCPU=        7329 AvBCPU=        23.0
           NShGPU=           0 NBGPU=           0 AvBGPU=         0.0
 IPart= 10 NShTot=      177109 NShNF=      177109 NShFF=           0 MinMC=       7
           NShCPU=      177109 NBCPU=        7195 AvBCPU=        24.6
           NShGPU=           0 NBGPU=           0 AvBGPU=         0.0
 IPart= 17 NShTot=      262515 NShNF=      262515 NShFF=           0 MinMC=       7
           NShCPU=      262515 NBCPU=       10729 AvBCPU=        24.5
           NShGPU=           0 NBGPU=           0 AvBGPU=         0.0
 IPart= 11 NShTot=      165916 NShNF=      165916 NShFF=           0 MinMC=       7
           NShCPU=      165916 NBCPU=        7133 AvBCPU=        23.3
           NShGPU=           0 NBGPU=           0 AvBGPU=         0.0
 IPart= 13 NShTot=      164174 NShNF=      164174 NShFF=           0 MinMC=       7
           NShCPU=      164174 NBCPU=        7549 AvBCPU=        21.7
           NShGPU=           0 NBGPU=           0 AvBGPU=         0.0
 CoulSu:  NxtVal=        6767617 LenVP=       33458947 MinMC=       7.
 ReadGW:  IGet=0 IStart=           1 Next=           1 LGW=           0.
 Remaining memory in FofDFT      639.93 Mw
 CkSvGd:  ISavGI=        -1 IRadAn=       5 IRASav=       5 ISavGd=        -1.
 CalDSu-InSpLW:  IPartL=    0 NPrtUS=   20 NPrtUL=    1 DoSpLW=F IThBeg=    0 IThEnd=   19 NThAct=   20.
 CalDSu:  NPrtUS=  20 ThrOK=T IAlg=1 NPAlg=2 DoDPD=T LenP=       35245 LenD1P=             0 GPUOK=F
          ISkipM=0 DoSpLW=F IThBeg=    0 IThEnd=   19.
 IPart=  0 IRanGd=          0 ScrnBf=T ScrnGd=T RCrit=4.00D+00 DoMicB=T.
 IPart= 18        12871 of        14374 points in      16 batches and       63 microbatches, Max-NSigAt=      11 Max-NSgAt2=      11
 IPart=  2        10292 of        11488 points in      12 batches and       76 microbatches, Max-NSigAt=      11 Max-NSgAt2=      11
 IPart=  8        11910 of        13382 points in      14 batches and       55 microbatches, Max-NSigAt=      11 Max-NSgAt2=      11
 IPart= 12         8542 of         9552 points in      11 batches and       86 microbatches, Max-NSigAt=      11 Max-NSgAt2=      11
 IPart= 19        11493 of        12256 points in      12 batches and       68 microbatches, Max-NSigAt=      11 Max-NSgAt2=      11
 IPart= 14        14407 of        16552 points in      19 batches and      108 microbatches, Max-NSigAt=      11 Max-NSgAt2=      11
 IPart=  3         9985 of        10658 points in      11 batches and       40 microbatches, Max-NSigAt=      11 Max-NSgAt2=      11
 IPart= 11        12492 of        13760 points in      15 batches and       74 microbatches, Max-NSigAt=      11 Max-NSgAt2=      11
 IPart=  1        11545 of        11880 points in      11 batches and       46 microbatches, Max-NSigAt=      11 Max-NSgAt2=      11
 IPart= 10         8882 of         9826 points in      10 batches and       72 microbatches, Max-NSigAt=      11 Max-NSgAt2=      11
 IPart=  5        12672 of        13390 points in      13 batches and       51 microbatches, Max-NSigAt=      11 Max-NSgAt2=      11
 IPart=  9         9273 of         9854 points in      10 batches and       62 microbatches, Max-NSigAt=      11 Max-NSgAt2=      11
 IPart= 15        12137 of        13342 points in      14 batches and       98 microbatches, Max-NSigAt=      11 Max-NSgAt2=      11
 IPart= 16        13594 of        14536 points in      13 batches and       53 microbatches, Max-NSigAt=      11 Max-NSgAt2=      11
 IPart=  6         9029 of         9674 points in      10 batches and       76 microbatches, Max-NSigAt=      11 Max-NSgAt2=      11
 IPart=  0         9657 of        10700 points in      11 batches and       85 microbatches, Max-NSigAt=      11 Max-NSgAt2=      11
 IPart= 17        12290 of        12748 points in      12 batches and       46 microbatches, Max-NSigAt=      11 Max-NSgAt2=      11
 IPart=  4         9543 of        10472 points in      11 batches and       79 microbatches, Max-NSigAt=      11 Max-NSgAt2=      11
 IPart= 13        12035 of        13498 points in      15 batches and       73 microbatches, Max-NSigAt=      11 Max-NSgAt2=      11
 IPart=  7        12722 of        14760 points in      16 batches and       47 microbatches, Max-NSigAt=      11 Max-NSgAt2=      11
 Polarizability after L703:
                1             2             3 
      1  0.000000D+00
      2  0.000000D+00  0.000000D+00
      3  0.000000D+00  0.000000D+00  0.000000D+00
 Dipole Derivatives after L703:
                 1             2             3             4             5 
      1  -0.161744D+00 -0.145611D+00  0.394519D-02  0.368420D+00  0.103140D+01
      2  -0.161513D-01 -0.711978D-01  0.584106D-03 -0.542465D-01 -0.108496D+01
      3   0.427440D-02  0.169860D-02 -0.251430D+00 -0.236866D-02  0.140577D-01
                 6             7             8             9            10 
      1  -0.192674D-01 -0.132627D+01 -0.337009D+00 -0.332574D-01 -0.396640D+00
      2   0.147577D-01 -0.632994D-01 -0.749362D+00 -0.441766D-02  0.990920D-01
      3  -0.400071D+00  0.133299D-02  0.138412D-02 -0.765699D+00  0.114071D-01
                11            12            13            14            15 
      1   0.177394D-01  0.564776D-02 -0.409371D+00 -0.398807D+00 -0.855180D-02
      2  -0.650455D+00 -0.304880D-02 -0.115035D+00 -0.568906D+00 -0.370644D-02
      3  -0.959594D-03  0.310527D-01 -0.788240D-02 -0.458937D-02  0.714132D-01
                16            17            18            19            20 
      1  -0.355319D-01  0.593890D+00  0.993267D-02  0.749296D+00 -0.167746D+00
      2  -0.157156D+00  0.575152D+00  0.130009D-01  0.280027D-01  0.113994D+00
      3  -0.467942D-02  0.117738D-01  0.588922D-01  0.196815D+00 -0.105480D+00
                21            22            23            24            25 
      1   0.833262D+00  0.755309D+00 -0.110315D+00 -0.816934D+00  0.986198D-01
      2  -0.281506D-01  0.341482D-01  0.122499D+00  0.203109D-01  0.631542D-01
      3   0.419370D+00 -0.198042D+00  0.910390D-01  0.434611D+00 -0.123738D-02
                26            27            28            29            30 
      1   0.366451D-01 -0.111534D-02  0.223386D+00  0.596364D+00  0.280186D-02
      2   0.596072D+00  0.180582D-02  0.984573D-01  0.831097D+00  0.225852D-02
      3   0.108731D-02  0.301251D-01  0.213816D-02  0.849993D-03  0.963811D-01
                31            32            33 
      1   0.134524D+00 -0.111655D+01  0.235368D-01
      2   0.830340D-01  0.886062D+00 -0.133945D-01
      3  -0.175748D-02 -0.108616D-01  0.275354D+00
 Hessian after L703:
                1             2             3             4             5 
      1  0.514153D+00
      2  0.345366D-02  0.309460D+00
      3 -0.194245D-02  0.350866D-02  0.509670D-01
      4 -0.227360D-01  0.286661D-02  0.219822D-03  0.400597D+00
      5  0.891474D-02 -0.584574D-02 -0.125356D-03 -0.431022D-01  0.484242D+00
      6 -0.409048D-04  0.153902D-04  0.812565D-02 -0.245309D-03 -0.791412D-02
      7 -0.168761D+00 -0.438358D-01 -0.307766D-03  0.620385D-02 -0.378726D-02
      8 -0.869590D-01 -0.136494D+00 -0.155846D-02  0.579716D-02 -0.161135D-02
      9  0.129770D-02 -0.643168D-03 -0.550200D-01  0.136070D-03 -0.370766D-04
     10 -0.223396D+00  0.548483D-01  0.181112D-02 -0.383878D-01 -0.900511D-02
     11  0.100379D+00 -0.149833D+00 -0.170081D-02  0.219177D-01  0.183192D-01
     12  0.195577D-02 -0.145511D-02 -0.265603D-01 -0.671575D-03  0.300071D-03
     13 -0.312325D-01 -0.123911D-01 -0.557963D-04 -0.266353D+00  0.104883D+00
     14  0.214899D-01  0.238905D-01 -0.772409D-04  0.580735D-01 -0.148931D+00
     15  0.980320D-03 -0.274533D-03  0.637006D-02 -0.121476D-03  0.635838D-03
     16 -0.457526D-02 -0.276749D-01 -0.657043D-03  0.728925D-04  0.222093D-03
     17 -0.946599D-02 -0.259057D-01 -0.505056D-03 -0.680287D-03  0.289981D-03
     18 -0.164053D-03 -0.164652D-03  0.583496D-03 -0.447543D-04  0.197140D-04
     19 -0.274784D-01 -0.183800D-02 -0.185411D-01 -0.123995D-02  0.389123D-03
     20 -0.210339D-01  0.291472D-02 -0.142055D-01 -0.633158D-03  0.188530D-03
     21 -0.321977D-02 -0.424191D-02  0.866609D-02 -0.497527D-03  0.291744D-03
     22 -0.272470D-01 -0.226507D-02  0.193644D-01 -0.118166D-02  0.357604D-03
     23 -0.220337D-01  0.226214D-02  0.148491D-01 -0.671904D-03  0.209839D-03
     24  0.123417D-02  0.353542D-02  0.953267D-02  0.364365D-03 -0.239399D-03
     25 -0.113325D-01  0.268105D-01  0.830323D-04  0.333068D-02 -0.181729D-02
     26  0.757202D-02 -0.206789D-01 -0.143617D-03  0.200278D-03  0.306653D-02
     27  0.136245D-03 -0.444838D-03  0.236302D-02  0.199731D-03 -0.173838D-03
     28  0.239581D-02  0.548934D-03 -0.453069D-05  0.545037D-03  0.361507D-01
     29  0.618853D-03  0.127183D-03  0.639082D-05  0.386812D-02 -0.168693D-01
     30 -0.189103D-03  0.134106D-03 -0.432702D-02 -0.235137D-03  0.395908D-03
     31  0.209821D-03 -0.523022D-03  0.303466D-04 -0.808513D-01 -0.932054D-01
     32 -0.293542D-02  0.101702D-03 -0.481670D-04 -0.476358D-01 -0.333059D+00
     33 -0.479245D-04  0.306407D-04 -0.700691D-03  0.895790D-03  0.684651D-02
                6             7             8             9            10 
      6  0.538577D-01
      7  0.709071D-04  0.523465D+00
      8  0.166093D-04 -0.543244D-01  0.483970D+00
      9  0.318055D-02 -0.378969D-01  0.115146D-01  0.547058D+00
     10  0.298872D-04 -0.567808D-01  0.456884D-02  0.694434D-04  0.863155D+00
     11  0.177325D-03 -0.127704D-01  0.104222D-01  0.679031D-03  0.183514D+00
     12  0.513041D-02  0.141467D-03  0.199328D-03 -0.651127D-02 -0.219368D-02
     13 -0.158839D-02 -0.478042D-02  0.925711D-03  0.121435D-04 -0.490170D+00
     14  0.118076D-02  0.275348D-02 -0.428915D-02 -0.140743D-03 -0.208946D+00
     15 -0.362647D-01 -0.166145D-03 -0.134580D-03 -0.800051D-03 -0.339700D-03
     16  0.130477D-04 -0.767868D-01  0.687463D-01  0.261439D-02 -0.661275D-04
     17 -0.436251D-05  0.554855D-01 -0.224871D+00 -0.558266D-02  0.843779D-02
[...]
     Eigenvalues ---    0.04506   0.08689   0.08753   0.10040   0.12730
     Eigenvalues ---    0.13604   0.15635   0.17816   0.18082   0.18948
     Eigenvalues ---    0.21695   0.23493   0.32984   0.33422   0.34683
     Eigenvalues ---    0.35055   0.36978   0.39795   0.43896   0.46229
     Eigenvalues ---    0.54047   0.65356
 Angle between quadratic step and forces=  65.77 degrees.
 Linear search not attempted -- first point.
 Iteration  1 RMS(Cart)=  0.00001067 RMS(Int)=  0.00000000
 Iteration  2 RMS(Cart)=  0.00000000 RMS(Int)=  0.00000000
 ITry= 1 IFail=0 DXMaxC= 2.94D-05 DCOld= 1.00D+10 DXMaxT= 3.00D-01 DXLimC= 3.00D+00 Rises=F
 Variable       Old X    -DE/DX   Delta X   Delta X   Delta X     New X
                                 (Linear)    (Quad)   (Total)
    R1        2.66967  -0.00000   0.00000   0.00000   0.00000   2.66967
    R2        2.58410  -0.00000   0.00000  -0.00000  -0.00000   2.58409
    R3        2.57255  -0.00000   0.00000  -0.00000  -0.00000   2.57255
    R4        1.81729  -0.00000   0.00000  -0.00000  -0.00000   1.81729
    R5        2.06548   0.00000   0.00000   0.00000   0.00000   2.06548
    R6        2.05367   0.00000   0.00000   0.00000   0.00000   2.05367
    R7        2.06849   0.00000   0.00000   0.00000   0.00000   2.06849
    R8        2.50349   0.00000   0.00000   0.00000   0.00000   2.50350
    R9        2.05854  -0.00000   0.00000  -0.00000  -0.00000   2.05853
   R10        2.04186   0.00000   0.00000   0.00000   0.00000   2.04186
    A1        1.97247  -0.00000   0.00000  -0.00000  -0.00000   1.97247
    A2        1.91328  -0.00000   0.00000  -0.00000  -0.00000   1.91328
    A3        1.93602  -0.00000   0.00000  -0.00000  -0.00000   1.93602
    A4        1.87134   0.00000   0.00000   0.00000   0.00000   1.87134
    A5        1.93548   0.00000   0.00000   0.00000   0.00000   1.93549
    A6        1.91438   0.00000   0.00000  -0.00000  -0.00000   1.91438
    A7        1.90058   0.00000   0.00000   0.00000   0.00000   1.90058
    A8        1.90571  -0.00000   0.00000  -0.00000  -0.00000   1.90571
    A9        2.11248   0.00000   0.00000   0.00000   0.00000   2.11248
   A10        2.03048  -0.00000   0.00000  -0.00000  -0.00000   2.03047
   A11        2.13941   0.00000   0.00000   0.00000   0.00000   2.13941
   A12        2.19770   0.00000   0.00000   0.00000   0.00000   2.19770
   A13        1.96888  -0.00000   0.00000   0.00000   0.00000   1.96888
   A14        2.11635  -0.00000   0.00000  -0.00000  -0.00000   2.11635
    D1        1.10533  -0.00000   0.00000  -0.00002  -0.00002   1.10531
    D2       -3.08797  -0.00000   0.00000  -0.00002  -0.00002  -3.08798
    D3       -1.00892   0.00000   0.00000  -0.00002  -0.00002  -1.00893
    D4       -2.27482   0.00000   0.00000   0.00000   0.00000  -2.27482
    D5        0.90918  -0.00000   0.00000  -0.00001  -0.00001   0.90917
    D6       -0.00000   0.00000   0.00000   0.00002   0.00002   0.00002
    D7       -3.11729   0.00000   0.00000   0.00002   0.00002  -3.11727
    D8       -3.06123  -0.00000   0.00000  -0.00001  -0.00001  -3.06125
    D9        0.05415  -0.00000   0.00000  -0.00001  -0.00001   0.05414
   D10        0.03525  -0.00000   0.00000  -0.00000  -0.00000   0.03525
   D11       -3.13255   0.00000   0.00000   0.00000   0.00000  -3.13255
         Item               Value     Threshold  Converged?
 Maximum Force            0.000001     0.000015     YES
 RMS     Force            0.000000     0.000010     YES
 Maximum Displacement     0.000029     0.000060     YES
 RMS     Displacement     0.000011     0.000040     YES
 Predicted change in Energy=-1.528333D-11
 Optimization completed.
    -- Stationary point found.
                           ----------------------------
                           !   Optimized Parameters   !
                           ! (Angstroms and Degrees)  !
 --------------------------                            --------------------------
 ! Name  Definition              Value          Derivative Info.                !
 --------------------------------------------------------------------------------
 ! R1    R(1,3)                  1.4127         -DE/DX =    0.0                 !
 ! R2    R(1,4)                  1.3674         -DE/DX =    0.0                 !
 ! R3    R(2,5)                  1.3613         -DE/DX =    0.0                 !
 ! R4    R(2,11)                 0.9617         -DE/DX =    0.0                 !
 ! R5    R(3,6)                  1.093          -DE/DX =    0.0                 !
 ! R6    R(3,7)                  1.0868         -DE/DX =    0.0                 !
 ! R7    R(3,8)                  1.0946         -DE/DX =    0.0                 !
 ! R8    R(4,5)                  1.3248         -DE/DX =    0.0                 !
 ! R9    R(4,9)                  1.0893         -DE/DX =    0.0                 !
 ! R10   R(5,10)                 1.0805         -DE/DX =    0.0                 !
 ! A1    A(3,1,4)              113.0143         -DE/DX =    0.0                 !
 ! A2    A(5,2,11)             109.6227         -DE/DX =    0.0                 !
 ! A3    A(1,3,6)              110.926          -DE/DX =    0.0                 !
 ! A4    A(1,3,7)              107.2198         -DE/DX =    0.0                 !
 ! A5    A(1,3,8)              110.8951         -DE/DX =    0.0                 !
 ! A6    A(6,3,7)              109.686          -DE/DX =    0.0                 !
 ! A7    A(6,3,8)              108.8952         -DE/DX =    0.0                 !
 ! A8    A(7,3,8)              109.189          -DE/DX =    0.0                 !
 ! A9    A(1,4,5)              121.0363         -DE/DX =    0.0                 !
 ! A10   A(1,4,9)              116.3377         -DE/DX =    0.0                 !
 ! A11   A(5,4,9)              122.579          -DE/DX =    0.0                 !
 ! A12   A(2,5,4)              125.9188         -DE/DX =    0.0                 !
 ! A13   A(2,5,10)             112.8087         -DE/DX =    0.0                 !
 ! A14   A(4,5,10)             121.2577         -DE/DX =    0.0                 !
 ! D1    D(4,1,3,6)             63.3308         -DE/DX =    0.0                 !
 ! D2    D(4,1,3,7)           -176.9276         -DE/DX =    0.0                 !
 ! D3    D(4,1,3,8)            -57.8067         -DE/DX =    0.0                 !
 ! D4    D(3,1,4,5)           -130.3378         -DE/DX =    0.0                 !
 ! D5    D(3,1,4,9)             52.0922         -DE/DX =    0.0                 !
 ! D6    D(11,2,5,4)            -0.0002         -DE/DX =    0.0                 !
 ! D7    D(11,2,5,10)         -178.6074         -DE/DX =    0.0                 !
 ! D8    D(1,4,5,2)           -175.3957         -DE/DX =    0.0                 !
 ! D9    D(1,4,5,10)             3.1024         -DE/DX =    0.0                 !
 ! D10   D(9,4,5,2)              2.0198         -DE/DX =    0.0                 !
 ! D11   D(9,4,5,10)          -179.4821         -DE/DX =    0.0                 !
 --------------------------------------------------------------------------------
 GradGradGradGradGradGradGradGradGradGradGradGradGradGradGradGradGradGrad

 Leave Link  103 at Thu Sep  5 17:55:03 2019, MaxMem=   671088640 cpu:             106.5 elap:              53.3
 (Enter /shared/centos7/gaussian/g16/l9999.exe)

 ----------------------------------------------------------------------

 Electric dipole moment (input orientation):
 (Debye = 10**-18 statcoulomb cm , SI units = C m)
                  (au)            (Debye)         (10**-30 SI)
   Tot        0.850859D+00      0.216267D+01      0.721388D+01
   x         -0.686604D+00     -0.174517D+01     -0.582127D+01
   y          0.280443D+00      0.712814D+00      0.237769D+01
   z          0.417000D+00      0.105991D+01      0.353547D+01

 Dipole polarizability, Alpha (input orientation).
 (esu units = cm**3 , SI units = C**2 m**2 J**-1)
 Alpha(0;0):
               (au)            (10**-24 esu)      (10**-40 SI)
   iso        0.451719D+02      0.669379D+01      0.744785D+01
   aniso      0.264873D+02      0.392502D+01      0.436717D+01
   xx         0.489085D+02      0.724749D+01      0.806392D+01
   yx         0.121527D+02      0.180085D+01      0.200371D+01
   yy         0.459618D+02      0.681084D+01      0.757808D+01
   zx        -0.821656D+01     -0.121757D+01     -0.135473D+01
   zy        -0.105913D+01     -0.156947D+00     -0.174627D+00
   zz         0.406456D+02      0.602305D+01      0.670155D+01

 ----------------------------------------------------------------------

 Dipole orientation:
     8          1.02645104         -1.79292708         -0.17533872
     8          3.09399660          4.48324160         -2.00359907
     6         -0.40497880         -2.40957836          1.99212819
     6          2.14211738          0.53281630         -0.02121726
     6          1.93105511          2.19166384         -1.88432186
     1         -1.98604960         -1.10172952          2.22869142
     1         -1.11862166         -4.31692892          1.72701222
     1          0.77070263         -2.35385693          3.69310039
     1          3.26137721          0.89875559          1.66724728
     1          0.79689930          1.79273959         -3.53469841
     1          4.10860971          4.73086955         -0.51639243

 Electric dipole moment (dipole orientation):
 (Debye = 10**-18 statcoulomb cm , SI units = C m)
                  (au)            (Debye)         (10**-30 SI)
   Tot        0.850859D+00      0.216267D+01      0.721388D+01
   x          0.000000D+00      0.000000D+00      0.000000D+00
   y          0.000000D+00      0.000000D+00      0.000000D+00
   z          0.850859D+00      0.216267D+01      0.721388D+01

 Dipole polarizability, Alpha (dipole orientation).
 (esu units = cm**3 , SI units = C**2 m**2 J**-1)
 Alpha(0;0):
               (au)            (10**-24 esu)      (10**-40 SI)
   iso        0.451719D+02      0.669379D+01      0.744785D+01
   aniso      0.264873D+02      0.392502D+01      0.436717D+01
   xx         0.381056D+02      0.564667D+01      0.628276D+01
   yx         0.805159D+01      0.119312D+01      0.132753D+01
   yy         0.511143D+02      0.757435D+01      0.842761D+01
   zx        -0.227576D+00     -0.337233D-01     -0.375223D-01
   zy        -0.112127D+02     -0.166156D+01     -0.184873D+01
   zz         0.462960D+02      0.686035D+01      0.763317D+01

 ----------------------------------------------------------------------

 Test job not archived.
 1\1\GINC-C0294\Freq\RM062X\CC-pVTZ\C3H6O2\HARMS.N\05-Sep-2019\0\\#P Ge
 om=AllCheck Guess=TCheck SCRF=Check Test GenChk RM062X/CC-pVTZ Freq\\G
 aussian input prepared by ASE\\0,1\O,0.211329566,-0.8132344173,0.70555
 89397\O,2.2008226161,2.1422477997,0.0196262676\C,-1.1989300744,-0.8729
 250495,0.7639856749\C,0.6975789157,0.4600301617,0.8162951421\C,1.58696
 88372,0.9289646441,-0.0463516551\H,-1.647457085,-0.3393764891,-0.07792
 37633\H,-1.4784902153,-1.9223135619,0.723161505\H,-1.5697525068,-0.437
 8624595,1.6974480303\H,0.3445895285,1.0397740109,1.6683133802\H,1.9161
 403692,0.3382746408,-0.8890997143\H,1.8914226526,2.6189613849,0.795398
 1641\\Version=EM64L-G16RevA.03\State=1-A\HF=-268.3171465\RMSD=3.011e-0
 9\RMSF=2.029e-06\ZeroPoint=0.0903548\Thermal=0.0964586\Dipole=-0.68660
 35,0.2804425,0.4169998\DipoleDeriv=-1.0413967,-0.3697424,0.1592767,-0.
 6215404,-0.9794146,0.1610378,0.049653,-0.0441218,-0.4049392,-0.6587816
 ,-0.3670995,0.0578996,-0.6942712,-1.1427749,0.2420506,-0.1294987,-0.10
 77703,-0.2593463,0.9324331,0.2149017,-0.0692922,0.0023873,0.277069,-0.
 0027263,-0.0587369,-0.0413616,0.3955184,-0.0049477,0.1784664,-0.182215
 8,0.6606578,0.7219953,-0.0660213,0.0246981,0.2564721,0.0738002,0.36104
 93,0.4308565,-0.21613,0.6707539,0.8829493,-0.1688122,-0.0967308,0.1350
 1,0.0916918,-0.057241,-0.0347426,-0.0075556,0.0969899,0.0205852,0.0763
 282,-0.0958187,0.0604955,-0.0811559,0.0010131,-0.0402209,0.0106197,-0.
 0871713,-0.1076941,0.0008727,0.0012002,-0.0056162,0.0739248,-0.0367091
 ,-0.0303761,0.0122183,0.0603399,0.0214398,-0.0920811,0.08849,-0.062597
 4,-0.1199174,0.1176282,0.0153876,0.0808855,-0.0857942,-0.0609419,-0.07
 64635,0.0769025,-0.1058515,-0.0210629,0.1192936,-0.0198977,0.0570043,-
 0.031144,0.0252673,-0.0643912,0.0418429,-0.0705325,0.0625706,0.2676589
 ,0.0224669,0.0972896,0.0287923,0.3415194,-0.0097936,0.0979985,-0.01412
 61,0.188916\Polar=48.9084752,12.1527287,45.9618141,-8.2165582,-1.05912
 87,40.6455534\Quadrupole=-0.2694302,0.0846569,0.1847733,0.6646098,-0.0
 074926,2.8672909\PG=C01 [X(C3H6O2)]\NImag=0\\0.45299265,0.11389659,0.4
 2386173,-0.02645939,0.03223507,0.09957006,-0.00180828,-0.01431563,0.00
 891716,0.20046164,-0.01467757,-0.00973215,0.00136305,0.08320425,0.4722
 6266,0.00673941,-0.00541955,0.00314951,-0.17198969,0.21645065,0.425039
 01,-0.24845315,-0.01252986,0.00953274,0.00538600,0.00634891,0.00097842
 ,0.48163783,0.02350792,-0.08337776,-0.00587140,0.00050503,-0.00176100,
 0.00219158,0.00976163,0.62717303,0.01063195,-0.00425169,-0.06218723,-0
 .00054242,-0.00230626,-0.00050121,0.00622647,0.00231711,0.56876799,-0.
 10502520,-0.05610958,0.01306072,-0.01009382,-0.01662586,0.00875754,-0.
 03013160,-0.05011312,-0.00205618,0.50529912,-0.09482725,-0.28746098,-0
 .02783384,-0.02970636,-0.01826742,0.02668527,-0.02268762,-0.01611058,0
 .00115370,0.19569064,0.57212928,0.01181862,-0.02741191,-0.06289703,-0.
 00535550,0.00238447,0.01066881,-0.00079647,0.00401135,-0.00317751,-0.3
 3969647,0.04603998,0.58006258,-0.00789979,-0.00833721,0.00494136,-0.11
 983692,-0.12555234,0.01514158,-0.00134831,-0.00101648,0.00188788,-0.28
 572169,-0.11154002,0.23343546,0.48817664,-0.03189587,-0.02094046,0.026
 02014,-0.10067300,-0.27682730,-0.04139339,0.00089164,-0.00223700,0.002
 31327,-0.10684210,-0.15185564,0.07460666,0.19505207,0.60152015,-0.0048
 6475,0.00781352,0.00794390,0.03650180,-0.00620422,-0.09007618,-0.00217
 567,-0.00452063,0.00131464,0.23044615,0.07207739,-0.30498978,-0.342495
 01,0.08070995,0.63554271,-0.03690751,0.01367068,-0.02760602,-0.0004741
 9,-0.00073622,-0.00005849,-0.08111772,0.04288844,-0.07032951,0.0038091
 0,0.00666042,-0.00067407,0.00019314,-0.00049434,0.00121680,0.10429613,
 0.00011409,0.00345827,-0.00215943,0.00080002,0.00091622,0.00018623,0.0
 4741941,-0.11747799,0.10005153,0.00016104,0.00194583,-0.00266889,-0.00
 038212,-0.00032161,0.00070197,-0.05411445,0.11702001,-0.00249562,-0.00
 245830,0.00829491,-0.00038035,-0.00043596,-0.00006573,-0.07500792,0.09
 955115,-0.21174074,0.00045083,-0.00002936,0.00126603,-0.00012200,-0.00
 033759,-0.00026880,0.08494712,-0.10924133,0.22161724,-0.02048253,-0.04
 061963,-0.00211743,-0.00038039,-0.00126516,0.00062683,-0.06005515,-0.0
 5012100,-0.00237988,-0.00590502,0.00142355,0.00192406,-0.00008579,-0.0
 0084455,-0.00109670,0.00459617,0.01123352,0.00197338,0.07867279,-0.002
 38053,0.00113197,0.00013133,-0.00027050,-0.00065975,-0.00001041,-0.064
 29260,-0.31280940,-0.01043469,-0.00074677,0.00219687,0.00053293,0.0002
 9622,0.00078556,-0.00047351,-0.00243449,-0.01273917,-0.00178522,0.0711
 5119,0.33207459,0.00109813,0.00188282,0.00067463,0.00003312,0.00015977
 ,-0.00005690,-0.00337384,-0.01044336,-0.05222031,0.00037085,-0.0005338
 1,0.00044380,-0.00025919,-0.00011139,0.00051105,0.00624535,0.02491898,
 0.00261272,0.00248484,0.01133634,0.04763336,-0.03367860,0.01047900,0.0
 3205122,-0.00051928,-0.00042799,-0.00010743,-0.06898361,0.02657681,0.0
 5944156,0.00265242,0.00755322,0.00236548,-0.00011682,-0.00096055,-0.00
 020799,0.00610425,-0.00525554,-0.00945353,0.00378111,-0.00162467,-0.00
 672547,0.09013434,0.00112244,0.00215729,0.00131638,0.00005815,0.000293
 91,-0.00011643,0.03015614,-0.09454358,-0.08810970,-0.00104296,0.002074
 20,0.00274165,0.00003929,-0.00020931,0.00010523,-0.00495285,0.00721769
 ,0.01465240,0.00911518,-0.01013682,-0.02754256,-0.03527979,0.09280172,
 0.00738099,0.00115701,0.00520486,0.00013517,0.00038088,-0.00004940,0.0
 6385082,-0.08817239,-0.24183342,-0.00133469,-0.00080795,0.00094999,-0.
 00010013,0.00030957,0.00009144,0.00654035,-0.01154202,-0.02112762,-0.0
 0104248,0.00041398,0.00026955,-0.07637084,0.09746233,0.25662732,0.0039
 2714,-0.00944680,-0.00848083,-0.00092463,0.00386349,-0.00247682,0.0037
 5467,-0.00132477,-0.00280562,-0.07773045,0.03818391,0.08168746,0.00026
 673,0.01078075,0.01649285,-0.00036828,0.00011006,0.00005662,0.00004105
 ,0.00025355,0.00010592,0.00045840,0.00076184,0.00092263,0.06882996,0.0
 0099083,-0.03057454,-0.02689932,0.00248336,0.00189362,0.00202087,0.006
 04866,0.00065176,-0.00091856,0.03966993,-0.11592631,-0.10702235,-0.005
 55408,0.00772447,0.00786378,-0.00069561,-0.00000838,0.00008708,-0.0003
 6005,0.00011142,0.00035479,-0.00109973,0.00058516,0.00105073,-0.038274
 47,0.13531285,-0.00129951,-0.00581848,0.00256818,-0.00288736,0.0023666
 2,0.00026511,0.00108218,0.00091000,0.00138610,0.08274062,-0.10717191,-
 0.21614483,0.00553726,-0.01532090,-0.01162570,-0.00018533,-0.00009658,
 -0.00060704,-0.00036699,0.00022498,0.00012100,-0.00088490,-0.00055846,
 -0.00024697,-0.09045716,0.12469548,0.22336467,-0.00171386,0.00256128,-
 0.00460372,0.00607495,-0.01252079,-0.01470438,-0.00057867,-0.00041976,
 0.00010381,0.00253609,0.01175494,0.01754497,-0.07968059,0.04731810,0.0
 8433257,-0.00011989,-0.00009808,0.00010429,-0.00013964,0.00003186,0.00
 000188,0.00018544,0.00008276,-0.00000363,0.00200058,-0.00384072,0.0056
 2942,0.07097217,0.00244916,0.00022371,0.00139353,0.00616279,-0.0231073
 8,-0.02591310,-0.00015227,0.00017913,0.00013814,-0.00498807,0.00956281
 ,0.00672075,0.04425447,-0.12920348,-0.12029168,0.00011221,0.00006960,-
 0.00006847,0.00008826,-0.00003574,-0.00001716,0.00000491,-0.00016369,-
 0.00019846,-0.00395556,0.00026663,-0.00032581,-0.04071497,0.14586143,-
 0.00348352,0.00074861,-0.00094903,-0.00166764,-0.00263163,0.00198046,0
 .00007487,0.00004632,-0.00012914,0.00740523,-0.01365781,-0.00917157,0.
 08097264,-0.12373033,-0.23459969,-0.00012626,-0.00005400,0.00003968,-0
 .00006876,0.00002650,0.00004931,-0.00018653,0.00004798,0.00015873,0.00
 515043,-0.00011076,0.00149913,-0.08879861,0.13867392,0.23842698,-0.000
 95086,0.00075116,0.00076418,-0.07788507,0.07838928,0.15709301,-0.00011
 030,-0.00024472,-0.00017806,0.00031105,-0.00250543,-0.00225354,0.00605
 340,-0.01233216,-0.01815004,-0.00001120,0.00001206,-0.00007281,-0.0000
 4260,0.00001673,0.00001840,-0.00001766,-0.00006020,0.00002180,-0.00025
 516,0.00063188,0.00109177,0.00046343,-0.00326093,0.00072814,0.07244497
 ,0.00170019,0.00125291,0.00030450,0.05175189,-0.14501141,-0.17468172,-
 0.00096404,0.00031338,0.00004714,0.00094686,0.00171194,0.00006535,0.01
 274018,-0.02843539,-0.03778179,0.00009619,-0.00008045,0.00006561,0.000
 19869,0.00008049,-0.00000442,0.00003433,-0.00007656,-0.00005371,-0.000
 95199,-0.00003667,0.00109505,-0.00415462,-0.00365299,0.00064120,-0.061
 39768,0.17393476,0.00093368,0.00152289,-0.00137277,0.13723570,-0.21152
 738,-0.35035348,-0.00039161,-0.00001974,0.00032084,-0.00014460,0.00407
 834,0.00298950,0.00106013,-0.00306598,-0.00384359,0.00003006,-0.000096
 46,-0.00002065,0.00006312,0.00003778,-0.00003822,0.00007844,0.00000117
 ,-0.00004449,-0.00019547,-0.00112174,-0.00057966,0.00039340,-0.0001116
 5,0.00269515,-0.13906286,0.21030280,0.35024737\\-0.00000006,-0.0000005
 6,-0.00000218,0.00000004,-0.00000028,-0.00000039,-0.00000048,0.0000002
 9,0.00000052,0.00000103,-0.00000026,-0.00000144,-0.00000196,0.00000017
 ,-0.00000177,-0.00000224,0.00000248,0.00000402,-0.00000065,0.00000105,
 -0.00000059,0.00000271,-0.00000153,0.00000312,0.00000361,-0.00000261,0
 .00000169,-0.00000401,0.00000257,-0.00000428,0.00000200,-0.00000133,0.
 00000130\\\@


 ART, GLORY, FREEDOM FAIL, BUT NATURE STILL IS FAIR.

                                           -- BYRON
 Job cpu time:       0 days  0 hours 49 minutes 54.6 seconds.
 Elapsed time:       0 days  0 hours 24 minutes 58.1 seconds.
 File lengths (MBytes):  RWF=   1312 Int=      0 D2E=      0 Chk=     32 Scr=     32
 Normal termination of Gaussian 16 at Thu Sep  5 17:55:04 2019.
