 Entering Gaussian System, Link 0=g16
 Input=tight/species/COC=CO/conformers/COC=CO_16.com
 Output=tight/species/COC=CO/conformers/COC=CO_16.log
 Initial command:
 /shared/centos7/gaussian/g16/l1.exe "/scratch/harms.n/gauss_scrdir/Gau-48786.inp" -scrdir="/scratch/harms.n/gauss_scrdir/"
 Entering Link 1 = /shared/centos7/gaussian/g16/l1.exe PID=     48787.
  
 Copyright (c) 1988,1990,1992,1993,1995,1998,2003,2009,2016,
            Gaussian, Inc.  All Rights Reserved.
  
 This is part of the Gaussian(R) 16 program.  It is based on
 the Gaussian(R) 09 system (copyright 2009, Gaussian, Inc.),
 the Gaussian(R) 03 system (copyright 2003, Gaussian, Inc.),
 the Gaussian(R) 98 system (copyright 1998, Gaussian, Inc.),
 the Gaussian(R) 94 system (copyright 1995, Gaussian, Inc.),
 the Gaussian 92(TM) system (copyright 1992, Gaussian, Inc.),
 the Gaussian 90(TM) system (copyright 1990, Gaussian, Inc.),
 the Gaussian 88(TM) system (copyright 1988, Gaussian, Inc.),
 the Gaussian 86(TM) system (copyright 1986, Carnegie Mellon
 University), and the Gaussian 82(TM) system (copyright 1983,
 Carnegie Mellon University). Gaussian is a federally registered
 trademark of Gaussian, Inc.
  
 This software contains proprietary and confidential information,
 including trade secrets, belonging to Gaussian, Inc.
  
 This software is provided under written license and may be
 used, copied, transmitted, or stored only in accord with that
 written license.
  
 The following legend is applicable only to US Government
 contracts under FAR:
  
                    RESTRICTED RIGHTS LEGEND
  
 Use, reproduction and disclosure by the US Government is
 subject to restrictions as set forth in subparagraphs (a)
 and (c) of the Commercial Computer Software - Restricted
 Rights clause in FAR 52.227-19.
  
 Gaussian, Inc.
 340 Quinnipiac St., Bldg. 40, Wallingford CT 06492
  
  
 ---------------------------------------------------------------
 Warning -- This program may not be used in any manner that
 competes with the business of Gaussian, Inc. or will provide
 assistance to any competitor of Gaussian, Inc.  The licensee
 of this program is prohibited from giving any competitor of
 Gaussian, Inc. access to this program.  By using this program,
 the user acknowledges that Gaussian, Inc. is engaged in the
 business of creating and licensing software in the field of
 computational chemistry and represents and warrants to the
 licensee that it is not a competitor of Gaussian, Inc. and that
 it will not use this program in any manner prohibited above.
 ---------------------------------------------------------------
  

 Cite this work as:
 Gaussian 16, Revision A.03,
 M. J. Frisch, G. W. Trucks, H. B. Schlegel, G. E. Scuseria, 
 M. A. Robb, J. R. Cheeseman, G. Scalmani, V. Barone, 
 G. A. Petersson, H. Nakatsuji, X. Li, M. Caricato, A. V. Marenich, 
 J. Bloino, B. G. Janesko, R. Gomperts, B. Mennucci, H. P. Hratchian, 
 J. V. Ortiz, A. F. Izmaylov, J. L. Sonnenberg, D. Williams-Young, 
 F. Ding, F. Lipparini, F. Egidi, J. Goings, B. Peng, A. Petrone, 
 T. Henderson, D. Ranasinghe, V. G. Zakrzewski, J. Gao, N. Rega, 
 G. Zheng, W. Liang, M. Hada, M. Ehara, K. Toyota, R. Fukuda, 
 J. Hasegawa, M. Ishida, T. Nakajima, Y. Honda, O. Kitao, H. Nakai, 
 T. Vreven, K. Throssell, J. A. Montgomery, Jr., J. E. Peralta, 
 F. Ogliaro, M. J. Bearpark, J. J. Heyd, E. N. Brothers, K. N. Kudin, 
 V. N. Staroverov, T. A. Keith, R. Kobayashi, J. Normand, 
 K. Raghavachari, A. P. Rendell, J. C. Burant, S. S. Iyengar, 
 J. Tomasi, M. Cossi, J. M. Millam, M. Klene, C. Adamo, R. Cammi, 
 J. W. Ochterski, R. L. Martin, K. Morokuma, O. Farkas, 
 J. B. Foresman, and D. J. Fox, Gaussian, Inc., Wallingford CT, 2016.
 
 ******************************************
 Gaussian 16:  EM64L-G16RevA.03 25-Dec-2016
                25-Sep-2019 
 ******************************************
 %nprocshared=20
 Will use up to   20 processors via shared memory.
 %mem=5GB
 ----------------------------------------------------------------------
 #p m062x/cc-pVTZ opt=(calcfc,maxcycles=900,Tight) freq IOP(7/33=1,2/16
 =3) scf=(maxcycle=900)
 ----------------------------------------------------------------------
 1/6=900,7=10,10=4,18=20,19=15,26=3,38=1/1,3;
 2/9=110,12=2,16=3,17=6,18=5,40=1/2;
 3/5=16,6=1,11=2,25=1,30=1,71=2,74=-55,140=1/1,2,3;
 4//1;
 5/5=2,7=900,38=5/2;
 8/6=4,10=90,11=11/1;
 11/6=1,8=1,9=11,15=111,16=1/1,2,10;
 10/6=1,13=1/2;
 6/7=2,8=2,9=2,10=2,28=1/1;
 7/10=1,18=20,25=1,33=1/1,2,3,16;
 1/6=900,7=10,10=4,18=20,19=15,26=3/3(2);
 2/9=110,16=3/2;
 99//99;
 2/9=110,16=3/2;
 3/5=16,6=1,11=2,25=1,30=1,71=1,74=-55/1,2,3;
 4/5=5,16=3,69=1/1;
 5/5=2,7=900,38=5/2;
 7/33=1/1,2,3,16;
 1/6=900,7=10,18=20,19=15,26=3/3(-5);
 2/9=110,16=3/2;
 6/7=2,8=2,9=2,10=2,19=2,28=1/1;
 99/9=1/99;
 Leave Link    1 at Wed Sep 25 04:14:56 2019, MaxMem=   671088640 cpu:               4.3 elap:               2.2
 (Enter /shared/centos7/gaussian/g16/l101.exe)
 ------------------------------
 Gaussian input prepared by ASE
 ------------------------------
 Symbolic Z-matrix:
 Charge =  0 Multiplicity = 1
 O                     0.20652  -0.72125   1.08553 
 O                     0.45074   2.90138   0.46002 
 C                    -1.19691  -0.89009   0.87282 
 C                     0.6537    0.58637   0.94499 
 C                    -0.05401   1.62474   0.56828 
 H                    -1.6496   -1.3505    1.79776 
 H                    -1.70347   0.09699   0.67343 
 H                    -1.36199  -1.55838   0.02746 
 H                     1.71054   0.66448   1.19283 
 H                    -1.09356   1.57451   0.324 
 H                     1.42971   2.85566   0.73119 
 
 ITRead=  0  0  0  0  0  0  0  0  0  0  0
 MicOpt= -1 -1 -1 -1 -1 -1 -1 -1 -1 -1 -1
 NAtoms=     11 NQM=       11 NQMF=       0 NMMI=      0 NMMIF=      0
                NMic=       0 NMicF=      0.
                    Isotopes and Nuclear Properties:
 (Nuclear quadrupole moments (NQMom) in fm**2, nuclear magnetic moments (NMagM)
  in nuclear magnetons)

  Atom         1           2           3           4           5           6           7           8           9          10
 IAtWgt=          16          16          12          12          12           1           1           1           1           1
 AtmWgt=  15.9949146  15.9949146  12.0000000  12.0000000  12.0000000   1.0078250   1.0078250   1.0078250   1.0078250   1.0078250
 NucSpn=           0           0           0           0           0           1           1           1           1           1
 AtZEff=  -0.0000000  -0.0000000  -0.0000000  -0.0000000  -0.0000000  -0.0000000  -0.0000000  -0.0000000  -0.0000000  -0.0000000
 NQMom=    0.0000000   0.0000000   0.0000000   0.0000000   0.0000000   0.0000000   0.0000000   0.0000000   0.0000000   0.0000000
 NMagM=    0.0000000   0.0000000   0.0000000   0.0000000   0.0000000   2.7928460   2.7928460   2.7928460   2.7928460   2.7928460
 AtZNuc=   8.0000000   8.0000000   6.0000000   6.0000000   6.0000000   1.0000000   1.0000000   1.0000000   1.0000000   1.0000000

  Atom        11
 IAtWgt=           1
 AtmWgt=   1.0078250
 NucSpn=           1
 AtZEff=  -0.0000000
 NQMom=    0.0000000
 NMagM=    2.7928460
 AtZNuc=   1.0000000
 Leave Link  101 at Wed Sep 25 04:14:58 2019, MaxMem=   671088640 cpu:               2.8 elap:               1.4
 (Enter /shared/centos7/gaussian/g16/l103.exe)

 GradGradGradGradGradGradGradGradGradGradGradGradGradGradGradGradGradGrad
 Berny optimization.
 Initialization pass.
                           ----------------------------
                           !    Initial Parameters    !
                           ! (Angstroms and Degrees)  !
 --------------------------                            --------------------------
 ! Name  Definition              Value          Derivative Info.                !
 --------------------------------------------------------------------------------
 ! R1    R(1,3)                  1.4295         calculate D2E/DX2 analytically  !
 ! R2    R(1,4)                  1.3891         calculate D2E/DX2 analytically  !
 ! R3    R(2,5)                  1.3771         calculate D2E/DX2 analytically  !
 ! R4    R(2,11)                 1.0169         calculate D2E/DX2 analytically  !
 ! R5    R(3,6)                  1.128          calculate D2E/DX2 analytically  !
 ! R6    R(3,7)                  1.1272         calculate D2E/DX2 analytically  !
 ! R7    R(3,8)                  1.0902         calculate D2E/DX2 analytically  !
 ! R8    R(4,5)                  1.3119         calculate D2E/DX2 analytically  !
 ! R9    R(4,9)                  1.0883         calculate D2E/DX2 analytically  !
 ! R10   R(5,10)                 1.0691         calculate D2E/DX2 analytically  !
 ! A1    A(3,1,4)              114.3421         calculate D2E/DX2 analytically  !
 ! A2    A(5,2,11)             106.8714         calculate D2E/DX2 analytically  !
 ! A3    A(1,3,6)              108.6749         calculate D2E/DX2 analytically  !
 ! A4    A(1,3,7)              111.3519         calculate D2E/DX2 analytically  !
 ! A5    A(1,3,8)              109.6614         calculate D2E/DX2 analytically  !
 ! A6    A(6,3,7)              108.7901         calculate D2E/DX2 analytically  !
 ! A7    A(6,3,8)              108.9564         calculate D2E/DX2 analytically  !
 ! A8    A(7,3,8)              109.3644         calculate D2E/DX2 analytically  !
 ! A9    A(1,4,5)              126.9048         calculate D2E/DX2 analytically  !
 ! A10   A(1,4,9)              110.9242         calculate D2E/DX2 analytically  !
 ! A11   A(5,4,9)              122.171          calculate D2E/DX2 analytically  !
 ! A12   A(2,5,4)              123.9623         calculate D2E/DX2 analytically  !
 ! A13   A(2,5,10)             112.4588         calculate D2E/DX2 analytically  !
 ! A14   A(4,5,10)             123.5737         calculate D2E/DX2 analytically  !
 ! D1    D(4,1,3,6)           -122.5493         calculate D2E/DX2 analytically  !
 ! D2    D(4,1,3,7)             -2.7349         calculate D2E/DX2 analytically  !
 ! D3    D(4,1,3,8)            118.4451         calculate D2E/DX2 analytically  !
 ! D4    D(3,1,4,5)             -4.4026         calculate D2E/DX2 analytically  !
 ! D5    D(3,1,4,9)            175.6368         calculate D2E/DX2 analytically  !
 ! D6    D(11,2,5,4)            -0.5563         calculate D2E/DX2 analytically  !
 ! D7    D(11,2,5,10)          178.6328         calculate D2E/DX2 analytically  !
 ! D8    D(1,4,5,2)            179.4286         calculate D2E/DX2 analytically  !
 ! D9    D(1,4,5,10)             0.328          calculate D2E/DX2 analytically  !
 ! D10   D(9,4,5,2)             -0.6148         calculate D2E/DX2 analytically  !
 ! D11   D(9,4,5,10)          -179.7154         calculate D2E/DX2 analytically  !
 --------------------------------------------------------------------------------
 Trust Radius=3.00D-01 FncErr=1.00D-07 GrdErr=1.00D-06 EigMax=2.50D+02 EigMin=1.00D-04
 Number of steps in this run=    100 maximum allowed number of steps=    100.
 GradGradGradGradGradGradGradGradGradGradGradGradGradGradGradGradGradGrad

 Leave Link  103 at Wed Sep 25 04:14:59 2019, MaxMem=   671088640 cpu:               2.0 elap:               1.0
 (Enter /shared/centos7/gaussian/g16/l202.exe)
                          Input orientation:                          
 ---------------------------------------------------------------------
 Center     Atomic      Atomic             Coordinates (Angstroms)
 Number     Number       Type             X           Y           Z
 ---------------------------------------------------------------------
      1          8           0        0.206525   -0.721250    1.085527
      2          8           0        0.450736    2.901382    0.460021
      3          6           0       -1.196905   -0.890085    0.872818
      4          6           0        0.653700    0.586369    0.944992
      5          6           0       -0.054006    1.624739    0.568281
      6          1           0       -1.649595   -1.350498    1.797762
      7          1           0       -1.703472    0.096994    0.673427
      8          1           0       -1.361991   -1.558377    0.027465
      9          1           0        1.710537    0.664481    1.192828
     10          1           0       -1.093562    1.574507    0.323996
     11          1           0        1.429711    2.855657    0.731190
 ---------------------------------------------------------------------
                    Distance matrix (angstroms):
                    1          2          3          4          5
     1  O    0.000000
     2  O    3.684340   0.000000
     3  C    1.429464   4.154557   0.000000
     4  C    1.389094   2.373958   2.368515   0.000000
     5  C    2.416420   1.377063   2.779083   1.311858   0.000000
     6  H    2.085285   4.927416   1.128020   3.127913   3.592988
     7  H    2.118357   3.542703   1.127250   2.422704   2.250733
     8  H    2.068942   4.833481   1.090179   3.082986   3.483610
     9  H    2.047881   2.669799   3.312447   1.088314   2.103751
    10  H    2.746025   2.040577   2.527073   2.101184   1.069052
    11  H    3.796841   1.016866   4.577090   2.407815   1.934713
                    6          7          8          9         10
     6  H    0.000000
     7  H    1.833648   0.000000
     8  H    1.805515   1.809456   0.000000
     9  H    3.964413   3.499611   3.967317   0.000000
    10  H    3.322170   1.636196   3.158314   3.073432   0.000000
    11  H    5.320850   4.174972   5.269965   2.256817   2.859030
                   11
    11  H    0.000000
 Stoichiometry    C3H6O2
 Framework group  C1[X(C3H6O2)]
 Deg. of freedom    27
 Full point group                 C1      NOp   1
 Largest Abelian subgroup         C1      NOp   1
 Largest concise Abelian subgroup C1      NOp   1
                         Standard orientation:                         
 ---------------------------------------------------------------------
 Center     Atomic      Atomic             Coordinates (Angstroms)
 Number     Number       Type             X           Y           Z
 ---------------------------------------------------------------------
      1          8           0        1.284425    0.698781   -0.023293
      2          8           0       -2.266349   -0.283693    0.009990
      3          6           0        1.875997   -0.601941    0.015860
      4          6           0       -0.104469    0.697050    0.000228
      5          6           0       -0.891498   -0.352137   -0.027437
      6          1           0        2.563986   -0.659129    0.907953
      7          1           0        1.092192   -1.406644    0.109637
      8          1           0        2.457645   -0.767815   -0.891147
      9          1           0       -0.493691    1.712359    0.045845
     10          1           0       -0.533651   -1.358712   -0.067774
     11          1           0       -2.511269    0.701410    0.070001
 ---------------------------------------------------------------------
 Rotational constants (GHZ):          16.6157141           2.7592813           2.4040535
 Leave Link  202 at Wed Sep 25 04:15:01 2019, MaxMem=   671088640 cpu:               3.9 elap:               1.9
 (Enter /shared/centos7/gaussian/g16/l301.exe)
 Standard basis: CC-pVTZ (5D, 7F)
 Ernie: Thresh=  0.10000D-02 Tol=  0.10000D-05 Strict=F.
 Ernie:  15 primitive shells out of 178 were deleted.
 There are   265 symmetry adapted cartesian basis functions of A   symmetry.
 There are   234 symmetry adapted basis functions of A   symmetry.
   234 basis functions,   362 primitive gaussians,   265 cartesian basis functions
    20 alpha electrons       20 beta electrons
       nuclear repulsion energy       174.7315821690 Hartrees.
 IExCor= 4336 DFT=T Ex+Corr=M062X ExCW=0 ScaHFX=  0.540000
 ScaDFX=  1.000000  1.000000  1.000000  1.000000 ScalE2=  1.000000  1.000000
 IRadAn=      5 IRanWt=     -1 IRanGd=            0 ICorTp=0 IEmpDi=  4
 NAtoms=   11 NActive=   11 NUniq=   11 SFac= 1.00D+00 NAtFMM=   60 NAOKFM=F Big=F
 Integral buffers will be    131072 words long.
 Raffenetti 2 integral format.
 Two-electron integral symmetry is turned on.
 Leave Link  301 at Wed Sep 25 04:15:02 2019, MaxMem=   671088640 cpu:               1.9 elap:               1.0
 (Enter /shared/centos7/gaussian/g16/l302.exe)
 NPDir=0 NMtPBC=     1 NCelOv=     1 NCel=       1 NClECP=     1 NCelD=      1
         NCelK=      1 NCelE2=     1 NClLst=     1 CellRange=     0.0.
 One-electron integrals computed using PRISM.
 One-electron integral symmetry used in STVInt
 NBasis=   234 RedAO= T EigKep=  3.38D-04  NBF=   234
 NBsUse=   234 1.00D-06 EigRej= -1.00D+00 NBFU=   234
 Precomputing XC quadrature grid using
 IXCGrd= 4 IRadAn=           5 IRanWt=          -1 IRanGd=           0 AccXCQ= 0.00D+00.
 Generated NRdTot=       0 NPtTot=           0 NUsed=           0 NTot=          32
 NSgBfM=   265   265   265   265   265 MxSgAt=    11 MxSgA2=    11.
 Leave Link  302 at Wed Sep 25 04:15:56 2019, MaxMem=   671088640 cpu:             108.9 elap:              54.4
 (Enter /shared/centos7/gaussian/g16/l303.exe)
 DipDrv:  MaxL=1.
 Leave Link  303 at Wed Sep 25 04:16:01 2019, MaxMem=   671088640 cpu:               8.5 elap:               4.3
 (Enter /shared/centos7/gaussian/g16/l401.exe)
 ExpMin= 1.03D-01 ExpMax= 1.53D+04 ExpMxC= 5.22D+02 IAcc=3 IRadAn=         5 AccDes= 0.00D+00
 Harris functional with IExCor= 1009 and IRadAn=       5 diagonalized for initial guess.
 HarFok:  IExCor= 1009 AccDes= 0.00D+00 IRadAn=         5 IDoV= 1 UseB2=F ITyADJ=14
 ICtDFT=  3500011 ScaDFX=  1.000000  1.000000  1.000000  1.000000
 FoFCou: FMM=F IPFlag=           0 FMFlag=      100000 FMFlg1=           0
         NFxFlg=           0 DoJE=T BraDBF=F KetDBF=T FulRan=T
         wScrn=  0.000000 ICntrl=       500 IOpCl=  0 I1Cent=   200000004 NGrid=           0
         NMat0=    1 NMatS0=      1 NMatT0=    0 NMatD0=    1 NMtDS0=    0 NMtDT0=    0
 Petite list used in FoFCou.
 Harris En= -268.191118349606    
 JPrj=0 DoOrth=F DoCkMO=F.
 Leave Link  401 at Wed Sep 25 04:16:27 2019, MaxMem=   671088640 cpu:              52.7 elap:              26.4
 (Enter /shared/centos7/gaussian/g16/l502.exe)
 Keep R1 ints in memory in canonical form, NReq=399924305.
 FoFCou: FMM=F IPFlag=           0 FMFlag=           0 FMFlg1=           0
         NFxFlg=           0 DoJE=F BraDBF=F KetDBF=F FulRan=T
         wScrn=  0.000000 ICntrl=       600 IOpCl=  0 I1Cent=           0 NGrid=           0
         NMat0=    1 NMatS0=  27495 NMatT0=    0 NMatD0=    1 NMtDS0=    0 NMtDT0=    0
 Symmetry not used in FoFCou.
 Two-electron integral symmetry not used.
 Closed shell SCF:
 Using DIIS extrapolation, IDIIS=  1040.
 NGot=   671088640 LenX=   292939207 LenY=   292868541
 Requested convergence on RMS density matrix=1.00D-08 within 900 cycles.
 Requested convergence on MAX density matrix=1.00D-06.
 Requested convergence on             energy=1.00D-06.
 No special actions if energy rises.
 Integral accuracy reduced to 1.0D-05 until final iterations.

 Cycle   1  Pass 0  IDiag  1:
 E= -268.179672108834    
 DIIS: error= 2.05D-02 at cycle   1 NSaved=   1.
 NSaved= 1 IEnMin= 1 EnMin= -268.179672108834     IErMin= 1 ErrMin= 2.05D-02
 ErrMax= 2.05D-02  0.00D+00 EMaxC= 1.00D-01 BMatC= 1.71D-01 BMatP= 1.71D-01
 IDIUse=3 WtCom= 7.95D-01 WtEn= 2.05D-01
 Coeff-Com:  0.100D+01
 Coeff-En:   0.100D+01
 Coeff:      0.100D+01
 Gap=     0.349 Goal=   None    Shift=    0.000
 GapD=    0.349 DampG=1.000 DampE=0.500 DampFc=0.5000 IDamp=-1.
 Damping current iteration by 5.00D-01
 RMSDP=1.90D-03 MaxDP=6.47D-02              OVMax= 1.10D-01

 Cycle   2  Pass 0  IDiag  1:
 E= -268.244251855491     Delta-E=       -0.064579746657 Rises=F Damp=T
 DIIS: error= 5.10D-03 at cycle   2 NSaved=   2.
 NSaved= 2 IEnMin= 2 EnMin= -268.244251855491     IErMin= 2 ErrMin= 5.10D-03
 ErrMax= 5.10D-03  0.00D+00 EMaxC= 1.00D-01 BMatC= 1.66D-02 BMatP= 1.71D-01
 IDIUse=3 WtCom= 9.49D-01 WtEn= 5.10D-02
 Coeff-Com: -0.179D+00 0.118D+01
 Coeff-En:   0.000D+00 0.100D+01
 Coeff:     -0.170D+00 0.117D+01
 Gap=     0.328 Goal=   None    Shift=    0.000
 RMSDP=3.70D-04 MaxDP=1.08D-02 DE=-6.46D-02 OVMax= 5.21D-02

 Cycle   3  Pass 0  IDiag  1:
 E= -268.300566057784     Delta-E=       -0.056314202293 Rises=F Damp=F
 DIIS: error= 3.56D-03 at cycle   3 NSaved=   3.
 NSaved= 3 IEnMin= 3 EnMin= -268.300566057784     IErMin= 3 ErrMin= 3.56D-03
 ErrMax= 3.56D-03  0.00D+00 EMaxC= 1.00D-01 BMatC= 3.53D-03 BMatP= 1.66D-02
 IDIUse=3 WtCom= 9.64D-01 WtEn= 3.56D-02
 Coeff-Com: -0.116D+00 0.383D+00 0.733D+00
 Coeff-En:   0.000D+00 0.000D+00 0.100D+01
 Coeff:     -0.112D+00 0.369D+00 0.742D+00
 Gap=     0.329 Goal=   None    Shift=    0.000
 RMSDP=1.66D-04 MaxDP=5.97D-03 DE=-5.63D-02 OVMax= 1.86D-02

 Cycle   4  Pass 0  IDiag  1:
 E= -268.302200487516     Delta-E=       -0.001634429732 Rises=F Damp=F
 DIIS: error= 1.29D-03 at cycle   4 NSaved=   4.
 NSaved= 4 IEnMin= 4 EnMin= -268.302200487516     IErMin= 4 ErrMin= 1.29D-03
 ErrMax= 1.29D-03  0.00D+00 EMaxC= 1.00D-01 BMatC= 8.92D-04 BMatP= 3.53D-03
 IDIUse=3 WtCom= 9.87D-01 WtEn= 1.29D-02
 Coeff-Com: -0.385D-01 0.971D-01 0.383D+00 0.559D+00
 Coeff-En:   0.000D+00 0.000D+00 0.207D+00 0.793D+00
 Coeff:     -0.380D-01 0.958D-01 0.380D+00 0.562D+00
 Gap=     0.324 Goal=   None    Shift=    0.000
 RMSDP=7.61D-05 MaxDP=2.89D-03 DE=-1.63D-03 OVMax= 8.99D-03

 Cycle   5  Pass 0  IDiag  1:
 E= -268.302883690244     Delta-E=       -0.000683202728 Rises=F Damp=F
 DIIS: error= 2.35D-04 at cycle   5 NSaved=   5.
 NSaved= 5 IEnMin= 5 EnMin= -268.302883690244     IErMin= 5 ErrMin= 2.35D-04
 ErrMax= 2.35D-04  0.00D+00 EMaxC= 1.00D-01 BMatC= 1.73D-05 BMatP= 8.92D-04
 IDIUse=3 WtCom= 9.98D-01 WtEn= 2.35D-03
 Coeff-Com: -0.596D-02 0.117D-01 0.851D-01 0.193D+00 0.716D+00
 Coeff-En:   0.000D+00 0.000D+00 0.000D+00 0.000D+00 0.100D+01
 Coeff:     -0.594D-02 0.117D-01 0.849D-01 0.193D+00 0.717D+00
 Gap=     0.325 Goal=   None    Shift=    0.000
 RMSDP=1.40D-05 MaxDP=4.61D-04 DE=-6.83D-04 OVMax= 1.92D-03

 Cycle   6  Pass 0  IDiag  1:
 E= -268.302896786576     Delta-E=       -0.000013096331 Rises=F Damp=F
 DIIS: error= 8.68D-05 at cycle   6 NSaved=   6.
 NSaved= 6 IEnMin= 6 EnMin= -268.302896786576     IErMin= 6 ErrMin= 8.68D-05
 ErrMax= 8.68D-05  0.00D+00 EMaxC= 1.00D-01 BMatC= 3.03D-06 BMatP= 1.73D-05
 IDIUse=1 WtCom= 1.00D+00 WtEn= 0.00D+00
 Coeff-Com: -0.114D-02 0.103D-02 0.257D-01 0.764D-01 0.383D+00 0.515D+00
 Coeff:     -0.114D-02 0.103D-02 0.257D-01 0.764D-01 0.383D+00 0.515D+00
 Gap=     0.325 Goal=   None    Shift=    0.000
 RMSDP=4.57D-06 MaxDP=1.49D-04 DE=-1.31D-05 OVMax= 5.39D-04

 Initial convergence to 1.0D-05 achieved.  Increase integral accuracy.
 Cycle   7  Pass 1  IDiag  1:
 E= -268.302928498175     Delta-E=       -0.000031711600 Rises=F Damp=F
 DIIS: error= 1.91D-05 at cycle   1 NSaved=   1.
 NSaved= 1 IEnMin= 1 EnMin= -268.302928498175     IErMin= 1 ErrMin= 1.91D-05
 ErrMax= 1.91D-05  0.00D+00 EMaxC= 1.00D-01 BMatC= 2.86D-07 BMatP= 2.86D-07
 IDIUse=1 WtCom= 1.00D+00 WtEn= 0.00D+00
 Coeff-Com:  0.100D+01
 Coeff:      0.100D+01
 Gap=     0.325 Goal=   None    Shift=    0.000
 RMSDP=4.57D-06 MaxDP=1.49D-04 DE=-3.17D-05 OVMax= 2.12D-04

 Cycle   8  Pass 1  IDiag  1:
 E= -268.302928655481     Delta-E=       -0.000000157306 Rises=F Damp=F
 DIIS: error= 1.94D-05 at cycle   2 NSaved=   2.
 NSaved= 2 IEnMin= 2 EnMin= -268.302928655481     IErMin= 1 ErrMin= 1.91D-05
 ErrMax= 1.94D-05  0.00D+00 EMaxC= 1.00D-01 BMatC= 1.18D-07 BMatP= 2.86D-07
 IDIUse=1 WtCom= 1.00D+00 WtEn= 0.00D+00
 Coeff-Com:  0.339D+00 0.661D+00
 Coeff:      0.339D+00 0.661D+00
 Gap=     0.325 Goal=   None    Shift=    0.000
 RMSDP=1.29D-06 MaxDP=3.43D-05 DE=-1.57D-07 OVMax= 1.44D-04

 Cycle   9  Pass 1  IDiag  1:
 E= -268.302928711677     Delta-E=       -0.000000056196 Rises=F Damp=F
 DIIS: error= 1.33D-05 at cycle   3 NSaved=   3.
 NSaved= 3 IEnMin= 3 EnMin= -268.302928711677     IErMin= 3 ErrMin= 1.33D-05
 ErrMax= 1.33D-05  0.00D+00 EMaxC= 1.00D-01 BMatC= 4.04D-08 BMatP= 1.18D-07
 IDIUse=1 WtCom= 1.00D+00 WtEn= 0.00D+00
 Coeff-Com: -0.355D-01 0.365D+00 0.670D+00
 Coeff:     -0.355D-01 0.365D+00 0.670D+00
 Gap=     0.325 Goal=   None    Shift=    0.000
 RMSDP=5.58D-07 MaxDP=1.91D-05 DE=-5.62D-08 OVMax= 7.22D-05

 Cycle  10  Pass 1  IDiag  1:
 E= -268.302928742758     Delta-E=       -0.000000031081 Rises=F Damp=F
 DIIS: error= 1.60D-06 at cycle   4 NSaved=   4.
 NSaved= 4 IEnMin= 4 EnMin= -268.302928742758     IErMin= 4 ErrMin= 1.60D-06
 ErrMax= 1.60D-06  0.00D+00 EMaxC= 1.00D-01 BMatC= 6.22D-10 BMatP= 4.04D-08
 IDIUse=1 WtCom= 1.00D+00 WtEn= 0.00D+00
 Coeff-Com: -0.193D-01 0.893D-01 0.215D+00 0.715D+00
 Coeff:     -0.193D-01 0.893D-01 0.215D+00 0.715D+00
 Gap=     0.325 Goal=   None    Shift=    0.000
 RMSDP=9.13D-08 MaxDP=3.37D-06 DE=-3.11D-08 OVMax= 8.53D-06

 Cycle  11  Pass 1  IDiag  1:
 E= -268.302928743318     Delta-E=       -0.000000000560 Rises=F Damp=F
 DIIS: error= 5.66D-07 at cycle   5 NSaved=   5.
 NSaved= 5 IEnMin= 5 EnMin= -268.302928743318     IErMin= 5 ErrMin= 5.66D-07
 ErrMax= 5.66D-07  0.00D+00 EMaxC= 1.00D-01 BMatC= 1.21D-10 BMatP= 6.22D-10
 IDIUse=1 WtCom= 1.00D+00 WtEn= 0.00D+00
 Coeff-Com: -0.306D-02-0.218D-01-0.927D-02 0.289D+00 0.745D+00
 Coeff:     -0.306D-02-0.218D-01-0.927D-02 0.289D+00 0.745D+00
 Gap=     0.325 Goal=   None    Shift=    0.000
 RMSDP=4.02D-08 MaxDP=1.00D-06 DE=-5.60D-10 OVMax= 3.88D-06

 Cycle  12  Pass 1  IDiag  1:
 E= -268.302928743431     Delta-E=       -0.000000000113 Rises=F Damp=F
 DIIS: error= 2.92D-07 at cycle   6 NSaved=   6.
 NSaved= 6 IEnMin= 6 EnMin= -268.302928743431     IErMin= 6 ErrMin= 2.92D-07
 ErrMax= 2.92D-07  0.00D+00 EMaxC= 1.00D-01 BMatC= 1.84D-11 BMatP= 1.21D-10
 IDIUse=1 WtCom= 1.00D+00 WtEn= 0.00D+00
 Coeff-Com:  0.152D-02-0.233D-01-0.339D-01 0.322D-01 0.346D+00 0.678D+00
 Coeff:      0.152D-02-0.233D-01-0.339D-01 0.322D-01 0.346D+00 0.678D+00
 Gap=     0.325 Goal=   None    Shift=    0.000
 RMSDP=1.33D-08 MaxDP=4.69D-07 DE=-1.13D-10 OVMax= 1.30D-06

 Cycle  13  Pass 1  IDiag  1:
 E= -268.302928743445     Delta-E=       -0.000000000014 Rises=F Damp=F
 DIIS: error= 4.53D-08 at cycle   7 NSaved=   7.
 NSaved= 7 IEnMin= 7 EnMin= -268.302928743445     IErMin= 7 ErrMin= 4.53D-08
 ErrMax= 4.53D-08  0.00D+00 EMaxC= 1.00D-01 BMatC= 5.33D-13 BMatP= 1.84D-11
 IDIUse=1 WtCom= 1.00D+00 WtEn= 0.00D+00
 Coeff-Com:  0.674D-03-0.582D-02-0.958D-02-0.796D-02 0.633D-01 0.198D+00
 Coeff-Com:  0.762D+00
 Coeff:      0.674D-03-0.582D-02-0.958D-02-0.796D-02 0.633D-01 0.198D+00
 Coeff:      0.762D+00
 Gap=     0.325 Goal=   None    Shift=    0.000
 RMSDP=3.42D-09 MaxDP=8.79D-08 DE=-1.44D-11 OVMax= 2.21D-07

 SCF Done:  E(RM062X) =  -268.302928743     A.U. after   13 cycles
            NFock= 13  Conv=0.34D-08     -V/T= 2.0060
 KE= 2.666966659566D+02 PE=-9.777273762270D+02 EE= 2.679961993580D+02
 Leave Link  502 at Wed Sep 25 04:23:07 2019, MaxMem=   671088640 cpu:             792.6 elap:             400.5
 (Enter /shared/centos7/gaussian/g16/l801.exe)
 DoSCS=F DFT=T ScalE2(SS,OS)=  1.000000  1.000000
 Range of M.O.s used for correlation:     1   234
 NBasis=   234 NAE=    20 NBE=    20 NFC=     0 NFV=     0
 NROrb=    234 NOA=    20 NOB=    20 NVA=   214 NVB=   214

 **** Warning!!: The largest alpha MO coefficient is  0.11421000D+02

 Leave Link  801 at Wed Sep 25 04:23:08 2019, MaxMem=   671088640 cpu:               1.5 elap:               0.7
 (Enter /shared/centos7/gaussian/g16/l1101.exe)
 Using compressed storage, NAtomX=    11.
 Will process     12 centers per pass.
 Leave Link 1101 at Wed Sep 25 04:23:32 2019, MaxMem=   671088640 cpu:              47.7 elap:              23.9
 (Enter /shared/centos7/gaussian/g16/l1102.exe)
 Symmetrizing basis deriv contribution to polar:
 IMax=3 JMax=2 DiffMx= 0.00D+00
 Leave Link 1102 at Wed Sep 25 04:23:34 2019, MaxMem=   671088640 cpu:               4.6 elap:               2.3
 (Enter /shared/centos7/gaussian/g16/l1110.exe)
 Forming Gx(P) for the SCF density, NAtomX=    11.
 Integral derivatives from FoFJK, PRISM(SPDF).
 Do as many integral derivatives as possible in FoFJK.
 G2DrvN: MDV=     671087712.
 G2DrvN: will do    12 centers at a time, making    1 passes.
 Calling FoFCou, ICntrl=  3107 FMM=F I1Cent=   0 AccDes= 0.00D+00.
 FoFJK:  IHMeth= 1 ICntrl=    3107 DoSepK=F KAlg= 0 I1Cent=           0 FoldK=F
 IRaf=         0 NMat=       1 IRICut=       1 DoRegI=T DoRafI=F ISym2E= 0 IDoP0=0 IntGTp=1.
 FoFCou: FMM=F IPFlag=           0 FMFlag=      100000 FMFlg1=           0
         NFxFlg=           0 DoJE=F BraDBF=F KetDBF=F FulRan=T
         wScrn=  0.000000 ICntrl=      3107 IOpCl=  0 I1Cent=           0 NGrid=           0
         NMat0=    1 NMatS0=      1 NMatT0=    0 NMatD0=    1 NMtDS0=    0 NMtDT0=    0
 Symmetry not used in FoFCou.
 End of G2Drv F.D. properties file   721 does not exist.
 End of G2Drv F.D. properties file   722 does not exist.
 End of G2Drv F.D. properties file   788 does not exist.
 Leave Link 1110 at Wed Sep 25 04:30:39 2019, MaxMem=   671088640 cpu:             848.4 elap:             424.3
 (Enter /shared/centos7/gaussian/g16/l1002.exe)
 Minotr:  Closed shell wavefunction.
          IDoAtm=11111111111
          Direct CPHF calculation.
          Differentiating once with respect to nuclear coordinates.
          Requested convergence is 1.0D-08 RMS, and 1.0D-07 maximum.
          Secondary convergence is 1.0D-12 RMS, and 1.0D-12 maximum.
          NewPWx=T KeepS1=F KeepF1=F KeepIn=T MapXYZ=F SortEE=F KeepMc=T.
         3279 words used for storage of precomputed grid.
 Keep R1 ints in memory in canonical form, NReq=399865278.
 FoFCou: FMM=F IPFlag=           0 FMFlag=           0 FMFlg1=           0
         NFxFlg=           0 DoJE=F BraDBF=F KetDBF=F FulRan=T
         wScrn=  0.000000 ICntrl=       600 IOpCl=  0 I1Cent=           0 NGrid=           0
         NMat0=    1 NMatS0=  27495 NMatT0=    0 NMatD0=    1 NMtDS0=    0 NMtDT0=    0
 Symmetry not used in FoFCou.
 Two-electron integral symmetry not used.
          MDV=     671088640 using IRadAn=       1.
          Solving linear equations simultaneously, MaxMat=       0.
          There are    36 degrees of freedom in the 1st order CPHF.  IDoFFX=6 NUNeed=     0.
     30 vectors produced by pass  0 Test12= 1.19D-14 2.78D-09 XBig12= 6.54D-02 6.74D-02.
 AX will form    30 AO Fock derivatives at one time.
     30 vectors produced by pass  1 Test12= 1.19D-14 2.78D-09 XBig12= 7.95D-03 3.79D-02.
     30 vectors produced by pass  2 Test12= 1.19D-14 2.78D-09 XBig12= 2.44D-04 3.61D-03.
     30 vectors produced by pass  3 Test12= 1.19D-14 2.78D-09 XBig12= 3.36D-06 3.23D-04.
     30 vectors produced by pass  4 Test12= 1.19D-14 2.78D-09 XBig12= 2.17D-08 2.22D-05.
     30 vectors produced by pass  5 Test12= 1.19D-14 2.78D-09 XBig12= 9.76D-11 1.30D-06.
     20 vectors produced by pass  6 Test12= 1.19D-14 2.78D-09 XBig12= 4.81D-13 1.20D-07.
      3 vectors produced by pass  7 Test12= 1.19D-14 2.78D-09 XBig12= 1.90D-15 5.95D-09.
 InvSVY:  IOpt=1 It=  1 EMax= 1.22D-15
 Solved reduced A of dimension   203 with    30 vectors.
 End of Minotr F.D. properties file   721 does not exist.
 End of Minotr F.D. properties file   722 does not exist.
 End of Minotr F.D. properties file   788 does not exist.
 Leave Link 1002 at Wed Sep 25 04:40:34 2019, MaxMem=   671088640 cpu:            1190.6 elap:             595.4
 (Enter /shared/centos7/gaussian/g16/l601.exe)
 Copying SCF densities to generalized density rwf, IOpCl= 0 IROHF=0.

 **********************************************************************

            Population analysis using the SCF density.

 **********************************************************************

 Orbital symmetries:
       Occupied  (A) (A) (A) (A) (A) (A) (A) (A) (A) (A) (A) (A)
                 (A) (A) (A) (A) (A) (A) (A) (A)
       Virtual   (A) (A) (A) (A) (A) (A) (A) (A) (A) (A) (A) (A)
                 (A) (A) (A) (A) (A) (A) (A) (A) (A) (A) (A) (A)
                 (A) (A) (A) (A) (A) (A) (A) (A) (A) (A) (A) (A)
                 (A) (A) (A) (A) (A) (A) (A) (A) (A) (A) (A) (A)
                 (A) (A) (A) (A) (A) (A) (A) (A) (A) (A) (A) (A)
                 (A) (A) (A) (A) (A) (A) (A) (A) (A) (A) (A) (A)
                 (A) (A) (A) (A) (A) (A) (A) (A) (A) (A) (A) (A)
                 (A) (A) (A) (A) (A) (A) (A) (A) (A) (A) (A) (A)
                 (A) (A) (A) (A) (A) (A) (A) (A) (A) (A) (A) (A)
                 (A) (A) (A) (A) (A) (A) (A) (A) (A) (A) (A) (A)
                 (A) (A) (A) (A) (A) (A) (A) (A) (A) (A) (A) (A)
                 (A) (A) (A) (A) (A) (A) (A) (A) (A) (A) (A) (A)
                 (A) (A) (A) (A) (A) (A) (A) (A) (A) (A) (A) (A)
                 (A) (A) (A) (A) (A) (A) (A) (A) (A) (A) (A) (A)
                 (A) (A) (A) (A) (A) (A) (A) (A) (A) (A) (A) (A)
                 (A) (A) (A) (A) (A) (A) (A) (A) (A) (A) (A) (A)
                 (A) (A) (A) (A) (A) (A) (A) (A) (A) (A) (A) (A)
                 (A) (A) (A) (A) (A) (A) (A) (A) (A) (A)
 The electronic state is 1-A.
 Alpha  occ. eigenvalues --  -19.65044 -19.64957 -10.59332 -10.58582 -10.58272
 Alpha  occ. eigenvalues --   -1.17625  -1.16206  -0.85293  -0.79234  -0.68111
 Alpha  occ. eigenvalues --   -0.59978  -0.59612  -0.53806  -0.49875  -0.47560
 Alpha  occ. eigenvalues --   -0.47046  -0.46489  -0.40406  -0.39894  -0.26834
 Alpha virt. eigenvalues --    0.05673   0.07830   0.08002   0.09744   0.13408
 Alpha virt. eigenvalues --    0.14568   0.15254   0.18683   0.24834   0.25798
 Alpha virt. eigenvalues --    0.28318   0.29115   0.32763   0.36876   0.37909
 Alpha virt. eigenvalues --    0.38337   0.40260   0.41624   0.42440   0.44842
 Alpha virt. eigenvalues --    0.46035   0.47342   0.48355   0.50399   0.52812
 Alpha virt. eigenvalues --    0.57217   0.58233   0.60979   0.61687   0.63219
 Alpha virt. eigenvalues --    0.63925   0.67800   0.68926   0.71784   0.73828
 Alpha virt. eigenvalues --    0.75989   0.80498   0.81125   0.82503   0.87335
 Alpha virt. eigenvalues --    0.89682   0.92586   0.96529   0.99646   1.01374
 Alpha virt. eigenvalues --    1.03644   1.06491   1.08333   1.09263   1.11521
 Alpha virt. eigenvalues --    1.12763   1.14911   1.17395   1.21735   1.24555
 Alpha virt. eigenvalues --    1.25732   1.28428   1.31774   1.35957   1.36236
 Alpha virt. eigenvalues --    1.37061   1.39966   1.42623   1.45763   1.48071
 Alpha virt. eigenvalues --    1.52594   1.54880   1.66931   1.75532   1.78535
 Alpha virt. eigenvalues --    1.81302   1.85805   1.94200   1.95283   1.99871
 Alpha virt. eigenvalues --    2.05911   2.10669   2.11268   2.18499   2.22761
 Alpha virt. eigenvalues --    2.24299   2.27966   2.30279   2.31951   2.36474
 Alpha virt. eigenvalues --    2.38277   2.47473   2.50803   2.53045   2.57031
 Alpha virt. eigenvalues --    2.61821   2.63124   2.68760   2.72141   2.77050
 Alpha virt. eigenvalues --    2.79254   2.79657   2.82822   2.83782   2.84846
 Alpha virt. eigenvalues --    2.86975   2.91412   2.93051   2.96101   2.97314
 Alpha virt. eigenvalues --    3.00171   3.03077   3.03880   3.06185   3.11480
 Alpha virt. eigenvalues --    3.12738   3.15475   3.16686   3.19536   3.22662
 Alpha virt. eigenvalues --    3.24327   3.26253   3.26950   3.28796   3.29242
 Alpha virt. eigenvalues --    3.30613   3.35230   3.36574   3.38188   3.41730
 Alpha virt. eigenvalues --    3.46291   3.48074   3.49843   3.53231   3.56891
 Alpha virt. eigenvalues --    3.60605   3.61451   3.63084   3.66015   3.68970
 Alpha virt. eigenvalues --    3.72030   3.74268   3.78150   3.80885   3.81444
 Alpha virt. eigenvalues --    3.81928   3.86475   3.89036   3.91506   3.92488
 Alpha virt. eigenvalues --    3.98049   4.00068   4.00625   4.03875   4.06261
 Alpha virt. eigenvalues --    4.07665   4.15891   4.20720   4.21979   4.25934
 Alpha virt. eigenvalues --    4.27603   4.29411   4.38753   4.46539   4.50810
 Alpha virt. eigenvalues --    4.54193   4.56875   4.58559   4.66367   4.72932
 Alpha virt. eigenvalues --    4.77833   4.80725   4.86195   4.87967   4.88477
 Alpha virt. eigenvalues --    4.90363   4.95005   4.97580   5.00999   5.03422
 Alpha virt. eigenvalues --    5.09118   5.14292   5.18743   5.24329   5.30989
 Alpha virt. eigenvalues --    5.36078   5.42905   5.47584   5.53118   5.59744
 Alpha virt. eigenvalues --    5.68868   5.71673   5.74203   5.80732   5.89456
 Alpha virt. eigenvalues --    5.98159   6.00917   6.17692   6.26993   6.30055
 Alpha virt. eigenvalues --    6.39745   6.49655   6.58230   6.64889   6.71595
 Alpha virt. eigenvalues --    6.75708   6.76158   6.83732   6.92515   7.04686
 Alpha virt. eigenvalues --    7.12838   7.20681   7.27800   7.34043  10.42856
 Alpha virt. eigenvalues --   10.87655  11.65896  12.89941  14.05942
          Condensed to atoms (all electrons):
               1          2          3          4          5          6
     1  O    7.846066   0.003108   0.282278   0.343751  -0.067526  -0.036300
     2  O    0.003108   7.801311   0.000250  -0.073265   0.341219   0.000004
     3  C    0.282278   0.000250   4.717502  -0.050909  -0.025243   0.397756
     4  C    0.343751  -0.073265  -0.050909   4.952594   0.546167   0.002579
     5  C   -0.067526   0.341219  -0.025243   0.546167   4.953559   0.001356
     6  H   -0.036300   0.000004   0.397756   0.002579   0.001356   0.616414
     7  H   -0.040053  -0.000934   0.391417  -0.016923  -0.007173  -0.037391
     8  H   -0.034988   0.000009   0.407357   0.000194   0.002449  -0.044564
     9  H   -0.033263  -0.002960   0.006492   0.429468  -0.080278  -0.000121
    10  H   -0.001735  -0.029296  -0.009095  -0.063902   0.420183   0.000159
    11  H    0.000251   0.326952  -0.000063  -0.004490  -0.054210   0.000009
               7          8          9         10         11
     1  O   -0.040053  -0.034988  -0.033263  -0.001735   0.000251
     2  O   -0.000934   0.000009  -0.002960  -0.029296   0.326952
     3  C    0.391417   0.407357   0.006492  -0.009095  -0.000063
     4  C   -0.016923   0.000194   0.429468  -0.063902  -0.004490
     5  C   -0.007173   0.002449  -0.080278   0.420183  -0.054210
     6  H   -0.037391  -0.044564  -0.000121   0.000159   0.000009
     7  H    0.697358  -0.049223  -0.000140  -0.007306  -0.000193
     8  H   -0.049223   0.608658  -0.000311   0.001309   0.000006
     9  H   -0.000140  -0.000311   0.537717   0.002797   0.004690
    10  H   -0.007306   0.001309   0.002797   0.517827   0.006718
    11  H   -0.000193   0.000006   0.004690   0.006718   0.456846
 Mulliken charges:
               1
     1  O   -0.261588
     2  O   -0.366397
     3  C   -0.117743
     4  C   -0.065263
     5  C   -0.030503
     6  H    0.100098
     7  H    0.070558
     8  H    0.109104
     9  H    0.135909
    10  H    0.162342
    11  H    0.263482
 Sum of Mulliken charges =  -0.00000
 Mulliken charges with hydrogens summed into heavy atoms:
               1
     1  O   -0.261588
     2  O   -0.102914
     3  C    0.162018
     4  C    0.070646
     5  C    0.131839
 APT charges:
               1
     1  O   -0.150429
     2  O   -0.474673
     3  C   -0.883238
     4  C   -0.418790
     5  C   -0.301561
     6  H    0.429878
     7  H    0.149489
     8  H    0.422365
     9  H    0.386474
    10  H    0.313447
    11  H    0.527038
 Sum of APT charges =  -0.00000
 APT charges with hydrogens summed into heavy atoms:
               1
     1  O   -0.150429
     2  O    0.052366
     3  C    0.118494
     4  C   -0.032316
     5  C    0.011886
 Electronic spatial extent (au):  <R**2>=            500.2561
 Charge=             -0.0000 electrons
 Dipole moment (field-independent basis, Debye):
    X=              0.3273    Y=              0.0357    Z=              0.1221  Tot=              0.3512
 Quadrupole moment (field-independent basis, Debye-Ang):
   XX=            -30.5802   YY=            -27.9918   ZZ=            -32.1867
   XY=             -7.2076   XZ=             -0.2092   YZ=              0.3087
 Traceless Quadrupole moment (field-independent basis, Debye-Ang):
   XX=             -0.3273   YY=              2.2611   ZZ=             -1.9339
   XY=             -7.2076   XZ=             -0.2092   YZ=              0.3087
 Octapole moment (field-independent basis, Debye-Ang**2):
  XXX=              2.5759  YYY=              2.5208  ZZZ=             -0.0688  XYY=             -6.3681
  XXY=              7.8902  XXZ=              0.8722  XZZ=              1.2578  YZZ=              0.1500
  YYZ=              0.0843  XYZ=             -0.2318
 Hexadecapole moment (field-independent basis, Debye-Ang**3):
 XXXX=           -455.7243 YYYY=           -103.9605 ZZZZ=            -39.2523 XXXY=            -36.0156
 XXXZ=             -1.8267 YYYX=             -0.4173 YYYZ=              0.5063 ZZZX=             -0.6338
 ZZZY=              0.2842 XXYY=            -94.1606 XXZZ=            -83.0094 YYZZ=            -26.4196
 XXYZ=              1.2523 YYXZ=             -0.4975 ZZXY=              0.0479
 N-N= 1.747315821690D+02 E-N=-9.777273657719D+02  KE= 2.666966659566D+02
  Exact polarizability:   0.000   0.000   0.000   0.000   0.000   0.000
 Approx polarizability:  61.192   5.876  56.966   0.290   0.495  38.136
 No NMR shielding tensors so no spin-rotation constants.
 Leave Link  601 at Wed Sep 25 04:40:56 2019, MaxMem=   671088640 cpu:              44.1 elap:              22.1
 (Enter /shared/centos7/gaussian/g16/l701.exe)
 SCFChk:  SCF convergence  3.42D-09 required  1.00D-08
 ... and contract with generalized density number  0.
 Compute integral second derivatives.
 Entering OneElI...
 Calculate overlap and kinetic energy integrals
    NBasis = 265  MinDer = 2  MaxDer = 2
 Requested accuracy = 0.1000D-12
 PrmmSu-InSpLW:  IPartL=    0 NPrtUS=   20 NPrtUL=    1 DoSpLW=F IThBeg=    0 IThEnd=   19 NThAct=   20.
 PrsmSu:  NPrtUS=  20 ThrOK=T IAlg=1 NPAlg=1 LenDen=           0 ISkipM=0 DoSpLW=F IThBeg=    0 IThEnd=   19.
 Prism:   IPart=     0 DynPar=F LinDyn=F Incr=           1.
 PRISM was handed    33439720 working-precision words and  3729 shell-pairs
 PRISM was handed    33439720 working-precision words and  3729 shell-pairs
 PRISM was handed    33439720 working-precision words and  3729 shell-pairs
 PRISM was handed    33439720 working-precision words and  3729 shell-pairs
 PRISM was handed    33439720 working-precision words and  3729 shell-pairs
 PRISM was handed    33439720 working-precision words and  3729 shell-pairs
 PRISM was handed    33439720 working-precision words and  3729 shell-pairs
 PRISM was handed    33439720 working-precision words and  3729 shell-pairs
 PRISM was handed    33439720 working-precision words and  3729 shell-pairs
 PRISM was handed    33439720 working-precision words and  3729 shell-pairs
 PRISM was handed    33439720 working-precision words and  3729 shell-pairs
 PRISM was handed    33439720 working-precision words and  3729 shell-pairs
 PRISM was handed    33439720 working-precision words and  3729 shell-pairs
 PRISM was handed    33439720 working-precision words and  3729 shell-pairs
 PRISM was handed    33439720 working-precision words and  3729 shell-pairs
 PRISM was handed    33439720 working-precision words and  3729 shell-pairs
 PRISM was handed    33439720 working-precision words and  3729 shell-pairs
 IPart=  0 NShTot=         231 NBatch=          71 AvBLen=         3.3
 IPart=  8 NShTot=         182 NBatch=          29 AvBLen=         6.3
 PRISM was handed    33439720 working-precision words and  3729 shell-pairs
 IPart=  1 NShTot=         221 NBatch=          61 AvBLen=         3.6
 PRISM was handed    33439720 working-precision words and  3729 shell-pairs
 IPart= 15 NShTot=         169 NBatch=          26 AvBLen=         6.5
 PRISM was handed    33439720 working-precision words and  3729 shell-pairs
 IPart= 13 NShTot=         176 NBatch=          27 AvBLen=         6.5
 IPart=  6 NShTot=         196 NBatch=          40 AvBLen=         4.9
 IPart= 19 NShTot=         163 NBatch=          25 AvBLen=         6.5
 IPart= 14 NShTot=         175 NBatch=          27 AvBLen=         6.5
 IPart=  9 NShTot=         178 NBatch=          27 AvBLen=         6.6
 IPart=  4 NShTot=         204 NBatch=          48 AvBLen=         4.3
 IPart= 16 NShTot=         165 NBatch=          25 AvBLen=         6.6
 IPart=  7 NShTot=         190 NBatch=          35 AvBLen=         5.4
 IPart=  5 NShTot=         198 NBatch=          42 AvBLen=         4.7
 IPart= 12 NShTot=         176 NBatch=          27 AvBLen=         6.5
 IPart= 10 NShTot=         177 NBatch=          27 AvBLen=         6.6
 IPart= 17 NShTot=         165 NBatch=          25 AvBLen=         6.6
 IPart= 18 NShTot=         164 NBatch=          25 AvBLen=         6.6
 IPart=  3 NShTot=         209 NBatch=          49 AvBLen=         4.3
 IPart= 11 NShTot=         177 NBatch=          27 AvBLen=         6.6
 IPart=  2 NShTot=         213 NBatch=          53 AvBLen=         4.0
 PrSmSu:  NxtVal=             21.
 Entering OneElI...
 Calculate potential energy integrals
    NBasis = 265  MinDer = 2  MaxDer = 2
 Requested accuracy = 0.1000D-12
 PrmmSu-InSpLW:  IPartL=    0 NPrtUS=   20 NPrtUL=    1 DoSpLW=F IThBeg=    0 IThEnd=   19 NThAct=   20.
 PrsmSu:  NPrtUS=  20 ThrOK=T IAlg=1 NPAlg=1 LenDen=           0 ISkipM=0 DoSpLW=F IThBeg=    0 IThEnd=   19.
 Prism:   IPart=     0 DynPar=F LinDyn=F Incr=          19.
 PRISM was handed    33456110 working-precision words and  3522 shell-pairs
 PRISM was handed    33456110 working-precision words and  3522 shell-pairs
 PRISM was handed    33456110 working-precision words and  3522 shell-pairs
 PRISM was handed    33456110 working-precision words and  3522 shell-pairs
 PRISM was handed    33456110 working-precision words and  3522 shell-pairs
 PRISM was handed    33456110 working-precision words and  3522 shell-pairs
 PRISM was handed    33456110 working-precision words and  3522 shell-pairs
 PRISM was handed    33456110 working-precision words and  3522 shell-pairs
 PRISM was handed    33456110 working-precision words and  3522 shell-pairs
 PRISM was handed    33456110 working-precision words and  3522 shell-pairs
 PRISM was handed    33456110 working-precision words and  3522 shell-pairs
 PRISM was handed    33456110 working-precision words and  3522 shell-pairs
 PRISM was handed    33456110 working-precision words and  3522 shell-pairs
 PRISM was handed    33456110 working-precision words and  3522 shell-pairs
 PRISM was handed    33456110 working-precision words and  3522 shell-pairs
 PRISM was handed    33456110 working-precision words and  3522 shell-pairs
 PRISM was handed    33456110 working-precision words and  3522 shell-pairs
 PRISM was handed    33456110 working-precision words and  3522 shell-pairs
 PRISM was handed    33456110 working-precision words and  3522 shell-pairs
 PRISM was handed    33456110 working-precision words and  3522 shell-pairs
 IPart=  1 NShTot=        2332 NBatch=         212 AvBLen=        11.0
 IPart=  4 NShTot=        2090 NBatch=         190 AvBLen=        11.0
 IPart= 19 NShTot=        1749 NBatch=         159 AvBLen=        11.0
 IPart= 14 NShTot=        1793 NBatch=         163 AvBLen=        11.0
 IPart= 15 NShTot=        1771 NBatch=         161 AvBLen=        11.0
 IPart= 13 NShTot=        1815 NBatch=         165 AvBLen=        11.0
 IPart=  0 NShTot=        2431 NBatch=         221 AvBLen=        11.0
 IPart=  9 NShTot=        1881 NBatch=         171 AvBLen=        11.0
 IPart=  6 NShTot=        1958 NBatch=         178 AvBLen=        11.0
 IPart= 17 NShTot=        1760 NBatch=         160 AvBLen=        11.0
 IPart=  2 NShTot=        2222 NBatch=         202 AvBLen=        11.0
 IPart= 12 NShTot=        1826 NBatch=         166 AvBLen=        11.0
 IPart= 18 NShTot=        1749 NBatch=         159 AvBLen=        11.0
 IPart= 16 NShTot=        1760 NBatch=         160 AvBLen=        11.0
 IPart=  3 NShTot=        2123 NBatch=         193 AvBLen=        11.0
 IPart=  8 NShTot=        1892 NBatch=         172 AvBLen=        11.0
 IPart= 10 NShTot=        1870 NBatch=         170 AvBLen=        11.0
 IPart=  5 NShTot=        1969 NBatch=         179 AvBLen=        11.0
 IPart= 11 NShTot=        1837 NBatch=         167 AvBLen=        11.0
 IPart=  7 NShTot=        1914 NBatch=         174 AvBLen=        11.0
 PrSmSu:  NxtVal=            381.
 Polarizability after L701:
                1             2             3 
      1  0.000000D+00
      2  0.000000D+00  0.000000D+00
      3  0.000000D+00  0.000000D+00  0.000000D+00
 Dipole Derivatives after L701:
                 1             2             3             4             5 
      1  -0.614692D-01  0.101434D+00 -0.755234D-02 -0.287939D+00  0.141005D+01
      2   0.201926D+00 -0.135019D+00 -0.827034D-02  0.306262D+00 -0.737655D+00
      3   0.101389D-02 -0.588346D-02 -0.254800D+00  0.176433D-01 -0.388282D-01
                 6             7             8             9            10 
      1   0.747536D-01 -0.107410D+01  0.566685D+00 -0.716403D-02 -0.512601D+00
      2  -0.270887D-01  0.893206D-01 -0.787029D+00 -0.797396D-02  0.271002D-01
      3  -0.398424D+00 -0.180097D-01  0.976341D-03 -0.788586D+00  0.166330D-01
                11            12            13            14            15 
      1  -0.473465D-01  0.423717D-01 -0.343828D+00 -0.283607D+00 -0.255808D-01
      2  -0.761845D+00 -0.393203D-01 -0.102011D+00 -0.604794D+00  0.339051D-02
      3  -0.286102D-01  0.180755D-01  0.188741D-02 -0.417241D-01  0.439397D-01
                16            17            18            19            20 
      1   0.719559D+00 -0.102078D+00  0.752036D+00 -0.726410D-01 -0.252107D+00
      2  -0.162057D+00  0.155258D+00 -0.145827D+00  0.399325D+00  0.450690D+00
      3   0.241711D+00  0.780578D-02  0.414817D+00 -0.226139D-01 -0.403910D-01
                21            22            23            24            25 
      1   0.107186D-02  0.625137D+00 -0.216901D+00 -0.741251D+00  0.226520D+00
      2  -0.122160D-01 -0.164109D+00  0.196677D+00  0.182790D+00 -0.247744D+00
      3   0.704188D-01 -0.213467D+00  0.342179D-01  0.445279D+00 -0.594326D-02
                26            27            28            29            30 
      1  -0.194157D+00 -0.686543D-02  0.920535D-01  0.230198D+00 -0.767167D-02
      2   0.857127D+00  0.327983D-01 -0.244357D+00  0.753909D+00 -0.117522D-04
      3   0.257052D-01  0.757751D-01 -0.871191D-02  0.523943D-01  0.943775D-01
                31            32            33 
      1   0.689307D+00 -0.121217D+01 -0.741474D-01
      2  -0.103656D+00  0.612681D+00  0.217287D-01
      3  -0.101429D-01  0.343375D-01  0.279128D+00
 Hessian after L701:
                1             2             3             4             5 
      1  0.352342D+01
      2  0.257721D+01  0.887168D+01
      3  0.262809D-01  0.164008D+00  0.145349D+02
      4  0.448938D+00  0.189897D+00 -0.644811D-02  0.291547D+01
      5  0.228588D+00 -0.167310D+00 -0.399191D-02  0.128552D+01  0.863396D+01
      6 -0.354803D-02 -0.205262D-02 -0.206521D+00  0.309074D+00 -0.262865D+00
      7 -0.523777D+01 -0.338948D+01  0.140532D+00  0.208614D+00 -0.738018D-02
      8 -0.316956D+01 -0.612538D+00 -0.132501D+00 -0.215617D-02 -0.118366D+00
      9  0.132054D+00 -0.151471D+00 -0.703452D+01  0.167082D-03  0.121150D-02
     10  0.112043D+01 -0.281645D+00 -0.234744D+00  0.471772D-01  0.320345D+00
     11 -0.464341D+00 -0.811146D+01 -0.539393D-01  0.220046D+00 -0.728779D-02
     12 -0.182864D+00 -0.381455D-01 -0.810248D+01  0.324890D-01 -0.115493D-01
     13  0.727880D-01  0.372122D+00  0.867752D-01  0.102824D+01 -0.385308D+00
     14  0.383814D+00  0.136847D+00  0.125829D-01 -0.521250D+00 -0.770373D+01
     15  0.509572D-01  0.899157D-02  0.199642D+00 -0.258288D+00 -0.102114D-01
     16  0.301612D-01  0.120641D+00  0.126536D+00  0.293650D-01  0.320758D-02
     17  0.132282D+00 -0.164355D+00 -0.253624D-01 -0.303832D-02 -0.912858D-02
     18  0.116119D+00 -0.409864D-01  0.248995D+00  0.181595D-01  0.377306D-02
     19  0.180455D+00  0.213196D+00 -0.181636D-01 -0.185119D-02 -0.420431D-02
     20  0.136683D+00 -0.112177D-02 -0.634165D-01 -0.360749D-01 -0.163027D-01
     21 -0.148132D-01 -0.401552D-01  0.102971D+00  0.378342D-02 -0.207655D-02
     22  0.300748D-01  0.101144D+00 -0.131744D+00  0.291814D-01  0.164281D-02
     23  0.104136D+00 -0.166599D+00  0.679662D-01 -0.653077D-02 -0.101899D-01
     24 -0.125510D+00  0.823140D-01  0.260172D+00 -0.193922D-01 -0.349194D-02
     25 -0.206446D+00  0.645006D-01 -0.356758D-02 -0.217123D-01  0.296476D-01
     26  0.220345D-01  0.158102D+00  0.110542D-01  0.750353D-01  0.816304D-01
     27 -0.131786D-02  0.701384D-02  0.591976D-01  0.326649D-02  0.588285D-02
     28 -0.163894D-01  0.332346D-01  0.162039D-01 -0.173416D+00  0.873515D-01
     29  0.964291D-01  0.767559D-01  0.222854D-01  0.377350D-01  0.102882D+00
     30  0.682825D-02  0.104461D-01 -0.440312D-01  0.564845D-03  0.665462D-02
     31  0.543458D-01 -0.817905D-03 -0.166075D-02 -0.451001D+01 -0.155941D+01
     32 -0.472711D-01 -0.200004D-01  0.131444D-02 -0.123918D+01 -0.786160D+00
     33 -0.418616D-02  0.376295D-04 -0.183600D-01 -0.833759D-01  0.276664D+00
                6             7             8             9            10 
      6  0.131455D+02
      7 -0.317343D-02  0.122306D+02
      8  0.131221D-02  0.289094D+01  0.953180D+01
      9 -0.109277D+00 -0.182554D+00  0.155559D+00  0.152402D+02
     10  0.693975D-01  0.295563D+00 -0.342887D+00  0.414753D-01  0.704445D+01
     11  0.358616D-02 -0.276874D+00 -0.158403D-03 -0.386586D-01 -0.285370D+01
     12  0.173905D+00  0.458071D-01 -0.511009D-01 -0.176457D+00  0.255286D+00
     13 -0.269328D+00  0.227828D+00  0.371674D-01  0.363588D-01 -0.515513D+01
     14 -0.311484D-01 -0.705873D-01 -0.176246D+00 -0.952434D-02  0.421659D+01
     15 -0.775887D+01  0.437137D-01 -0.112542D-01 -0.171847D+00 -0.698476D-01
     16  0.814800D-02 -0.237765D+01 -0.180088D+00  0.116204D+01  0.777910D-01
     17 -0.532276D-03 -0.209537D+00 -0.326631D+01 -0.270084D+00 -0.506971D-01
     18 -0.465515D-02  0.107518D+01 -0.212936D+00 -0.196519D+01  0.684071D-01
     19  0.909885D-02 -0.262155D+01  0.112922D+01 -0.118837D+00 -0.351019D-01
     20 -0.508785D-02  0.143708D+01 -0.204805D+01 -0.161164D+00  0.330678D-01
     21 -0.219028D-01 -0.142577D+00 -0.155078D+00 -0.362380D+01 -0.170726D-01
     22 -0.794760D-02 -0.278994D+01 -0.291184D+00 -0.106504D+01  0.415652D-01
     23  0.936053D-03 -0.307886D+00 -0.339281D+01  0.470653D+00 -0.461578D-01
     24 -0.502970D-02 -0.967973D+00  0.401766D+00 -0.208472D+01 -0.572218D-01
     25  0.332485D-02  0.553685D-01 -0.976897D-01  0.982226D-04 -0.360618D+01
     26  0.747801D-02 -0.114223D+00  0.652837D-01  0.913264D-03 -0.876402D+00
     27 -0.488573D-01 -0.271936D-02  0.278212D-02 -0.426195D-01 -0.400015D-01
     28 -0.151317D-01 -0.727089D-02  0.276699D-01 -0.535203D-02  0.206369D+00
     29  0.196063D-01  0.705600D-01  0.242825D-01  0.243421D-02 -0.957834D-01
     30  0.383608D-01 -0.465638D-02  0.139647D-02 -0.249176D-01 -0.134983D-01
     31 -0.999146D-01  0.162153D-01 -0.143095D-02 -0.409627D-03 -0.369369D-01
     32  0.268767D+00 -0.226126D-01 -0.688805D-02  0.131602D-03 -0.227278D-01
     33 -0.520267D+01 -0.157652D-02  0.533567D-04 -0.687760D-02 -0.218041D-02
               11            12            13            14            15 
     11  0.137908D+02
     12 -0.152266D+00  0.244191D+02
     13  0.434721D+01 -0.830015D-01  0.711636D+01
     14 -0.364220D+01  0.169247D+00 -0.306026D+01  0.134245D+02
     15  0.169637D+00 -0.125236D+02  0.285016D+00 -0.149248D+00  0.241758D+02
     16 -0.482854D-01  0.511954D-01  0.684977D-01 -0.109240D-02  0.124861D-01
     17 -0.172169D-01 -0.160429D-01 -0.648690D-02 -0.223446D-01  0.246243D-02
     18 -0.266060D-01 -0.382538D-02  0.312464D-01  0.141753D-03 -0.156632D-01
     19  0.764693D-01 -0.233750D-01  0.147096D-02 -0.136377D+00 -0.478409D-01
     20 -0.272832D-01  0.341821D-01 -0.192750D+00  0.852982D-01  0.204669D-01
     21  0.286639D-01  0.553766D-02 -0.334026D-01  0.582415D-02 -0.711851D-01
     22 -0.408809D-01 -0.407399D-01  0.822592D-01 -0.142705D-01 -0.167551D-01
     23 -0.625584D-02  0.181883D-01 -0.224462D-01 -0.237599D-01  0.531026D-03
     24  0.289205D-01  0.854308D-03 -0.364916D-01  0.363714D-02 -0.170444D-01
     25 -0.875547D+00 -0.416087D-01  0.252634D+00 -0.116572D+00 -0.564399D-02
     26 -0.162936D+01  0.109817D+00 -0.125527D+00 -0.363156D+00 -0.387015D-01
     27  0.103887D+00 -0.395478D+01 -0.700626D-02 -0.319583D-01  0.227313D+00
     28 -0.150078D+00 -0.129119D-01 -0.382217D+01 -0.795749D+00  0.340314D-02
     29 -0.327142D+00 -0.647752D-01 -0.938416D+00 -0.176805D+01  0.898628D-02
     30 -0.605113D-01  0.174640D+00 -0.419341D-02  0.347899D-01 -0.413852D+01
     31  0.659764D-01 -0.276922D-03  0.127216D+00  0.115756D+00  0.279997D-02
     32 -0.224729D-01  0.244508D-02 -0.253114D-01  0.528688D-01 -0.165987D-02
     33 -0.271301D-02 -0.129756D-01 -0.597276D-02 -0.434418D-02  0.939243D-01
               16            17            18            19            20 
     16  0.211132D+01
     17  0.238815D+00  0.328784D+01
     18 -0.119721D+01  0.391722D+00  0.197693D+01
     19 -0.103768D+00 -0.951340D-01 -0.109447D+00  0.267078D+01
     20 -0.123414D+00  0.590856D-01 -0.742012D-01 -0.109342D+01  0.185291D+01
     21 -0.131441D+00 -0.701761D-01  0.494840D-01  0.125423D+00  0.139835D+00
     22  0.152599D+00 -0.461573D-02 -0.115064D-01 -0.104069D+00 -0.141098D+00
     23 -0.740397D-02  0.131399D+00 -0.376121D-01 -0.997291D-01  0.107300D+00
     24 -0.368179D-01 -0.124326D-01 -0.282422D+00  0.179543D+00  0.110212D+00
     25  0.353671D-02 -0.149756D-02  0.425183D-02 -0.370970D-02 -0.573242D-02
     26 -0.849942D-02  0.233412D-02 -0.656617D-02  0.376409D-02  0.111798D-01
     27  0.101970D-02 -0.661935D-03 -0.125296D-02  0.288271D-03 -0.535391D-04
     28  0.409808D-02  0.115591D-02  0.199670D-02  0.199557D-01 -0.102534D-01
     29  0.124616D-01 -0.206899D-02  0.776765D-02  0.393034D-02 -0.296189D-01
     30  0.398914D-02  0.112852D-02 -0.171615D-02  0.297059D-02 -0.106242D-02
     31  0.404873D-02 -0.124560D-02  0.280255D-02 -0.261359D-02 -0.408546D-02
     32 -0.634164D-02  0.764426D-03 -0.449678D-02  0.228735D-02  0.660250D-02
     33  0.531480D-04 -0.208302D-04 -0.683631D-03  0.340238D-03  0.289730D-03
               21            22            23            24            25 
     21  0.357124D+01
     22  0.206459D+00  0.253797D+01
     23  0.921649D-01  0.385652D+00  0.336332D+01
     24  0.141867D-01  0.107657D+01 -0.612847D+00  0.211769D+01
     25 -0.101913D-03  0.132715D-02 -0.333760D-03 -0.369651D-02  0.351399D+01
     26  0.294939D-03 -0.586934D-02  0.243428D-02  0.621630D-02  0.996251D+00
     27 -0.262058D-02 -0.997082D-03  0.669453D-03 -0.547503D-03  0.475664D-01
     28  0.373128D-02  0.152912D-01  0.239962D-02 -0.612858D-02 -0.132643D-01
     29  0.649123D-03  0.154151D-01 -0.638602D-02 -0.902088D-02 -0.780439D-02
     30 -0.229006D-01 -0.748932D-02 -0.954621D-03 -0.303599D-02  0.196672D-03
     31  0.122027D-04  0.374512D-02 -0.170023D-02 -0.287801D-02  0.244564D-01
     32  0.538992D-04 -0.593583D-02  0.154391D-02  0.472643D-02  0.147783D-01
     33 -0.100485D-02 -0.807594D-03  0.305704D-03 -0.102214D-03 -0.819319D-03
               26            27            28            29            30 
     26  0.163705D+01
     27 -0.895382D-01  0.378833D+01
     28 -0.836380D-02 -0.158549D-03  0.375776D+01
     29  0.575304D-01  0.243094D-02  0.877790D+00  0.181074D+01
     30  0.612060D-03 -0.345706D-02  0.187318D-01  0.367025D-02  0.404611D+01
     31  0.417996D-01  0.597157D-04  0.290421D-01 -0.723181D-01 -0.344389D-02
     32 -0.230304D-01 -0.453777D-03 -0.651583D-01  0.610737D-01  0.383038D-02
     33 -0.157956D-02 -0.207028D-01 -0.438406D-02  0.596599D-02 -0.205336D-01
               31            32            33 
     31  0.429049D+01
     32  0.141747D+01  0.735699D+00
     33  0.102909D+00 -0.274658D+00  0.518999D+01
 Leave Link  701 at Wed Sep 25 04:41:20 2019, MaxMem=   671088640 cpu:              47.3 elap:              23.6
 (Enter /shared/centos7/gaussian/g16/l702.exe)
 L702 exits ... SP integral derivatives will be done elsewhere.
 Leave Link  702 at Wed Sep 25 04:41:21 2019, MaxMem=   671088640 cpu:               1.7 elap:               0.9
 (Enter /shared/centos7/gaussian/g16/l703.exe)
 Integral derivatives from FoFJK, PRISM(SPDF).
 Compute integral second derivatives, UseDBF=F ICtDFT=           0.
 ICntrl=    100147.
 Calling FoFJK, ICntrl=    100147 FMM=F ISym2X=0 I1Cent= 0 IOpClX= 0 NMat=1 NMatS=1 NMatT=0.
 FoFJK:  IHMeth= 1 ICntrl=  100147 DoSepK=F KAlg= 0 I1Cent=           0 FoldK=F
 IRaf=         0 NMat=       1 IRICut=       1 DoRegI=T DoRafI=F ISym2E= 0 IDoP0=0 IntGTp=1.
 FoFCou: FMM=F IPFlag=           0 FMFlag=      100000 FMFlg1=         800
         NFxFlg=           0 DoJE=F BraDBF=F KetDBF=F FulRan=T
         wScrn=  0.000000 ICntrl=    100147 IOpCl=  0 I1Cent=           0 NGrid=           0
         NMat0=    1 NMatS0=      1 NMatT0=    0 NMatD0=    1 NMtDS0=    0 NMtDT0=    0
 Symmetry not used in FoFCou.
 FoFCou:  KetSym=F NOpSet=  1 NOpAb=1 NOp=  1.
 FoFCou:  CnvScl= 1.00D+00 Thresh= 1.00D-08 IAcrcy=      12.
 PrismS was handed   670741907 working-precision words and  3634 shell-pairs
 FoFCou: LinMIO=F DoNuc=F BraDBF=F KetDBF=F HaveP=T PDBF=F HaveZ=T HaveW=F
         NIJTC =      10 NIJTAt=       0 NIJTCD=       0 NIJTT =      10
         IJTBeg=       1 IJTEnd=      10 KLTBeg=       1 KLTEnd=      10
         IPTBeg=       1 IPTEnd=      10 IPTBCv=       1 IPTECv=      10
         IZTBeg=       1 IZTEnd=      10 IZTBCv=       1 IZTECv=      10
         IWTBeg=      11 IWTEnd=      10 IWTBCv=      11 IWTECv=      10
         INTBeg=       1 INTEnd=       0 IFTBCv=       1 IFTECv=      10
 NCel replicated for PrismC:     1
 CoulSu-InSpLW:  IPartL=    0 NPrtUS=   20 NPrtUL=    1 DoSpLW=F IThBeg=    0 IThEnd=   19 NThAct=   20.
 CoulSu:  IncDef=  1024 NBBP=        6604795 NTPThr=   100 NPartT=   20 Incr=        1024 LDynOK=F GPUOK=T.
 CoulSu:  NPrtUS=  20 ThrOK=T IAlg=1 NPAlg=1 LenDen=           0 LWGrdD=           0 DoCopy=F ISkipM=0
          DoSpLW=F IThBeg=    0 IThEnd=   19.
 Enter PrismC:  IPart=  0 JobTyp=22 DoJE=F Cont=F.
 PrismC:  IPart=     0 DynPar=T LinDyn=F Incr=        1024 UseFst=F UseS4=T ISplat=2.
 PrismC was handed    33456885 working-precision words and  3634 shell-pairs
 Enter PrismC:  IPart=  6 JobTyp=22 DoJE=F Cont=F.
 PrismC:  IPart=     6 DynPar=T LinDyn=F Incr=        1024 UseFst=F UseS4=T ISplat=2.
 PrismC was handed    33456885 working-precision words and  3634 shell-pairs
 Enter PrismC:  IPart= 16 JobTyp=22 DoJE=F Cont=F.
 Enter PrismC:  IPart=  1 JobTyp=22 DoJE=F Cont=F.
 PrismC:  IPart=    16 DynPar=T LinDyn=F Incr=        1024 UseFst=F UseS4=T ISplat=2.
 PrismC was handed    33456885 working-precision words and  3634 shell-pairs
 PrismC:  IPart=     1 DynPar=T LinDyn=F Incr=        1024 UseFst=F UseS4=T ISplat=2.
 PrismC was handed    33456885 working-precision words and  3634 shell-pairs
 Enter PrismC:  IPart= 13 JobTyp=22 DoJE=F Cont=F.
 PrismC:  IPart=    13 DynPar=T LinDyn=F Incr=        1024 UseFst=F UseS4=T ISplat=2.
 PrismC was handed    33456885 working-precision words and  3634 shell-pairs
 Enter PrismC:  IPart=  8 JobTyp=22 DoJE=F Cont=F.
 PrismC:  IPart=     8 DynPar=T LinDyn=F Incr=        1024 UseFst=F UseS4=T ISplat=2.
 PrismC was handed    33456885 working-precision words and  3634 shell-pairs
 Enter PrismC:  IPart= 19 JobTyp=22 DoJE=F Cont=F.
 PrismC:  IPart=    19 DynPar=T LinDyn=F Incr=        1024 UseFst=F UseS4=T ISplat=2.
 PrismC was handed    33456885 working-precision words and  3634 shell-pairs
 Enter PrismC:  IPart= 11 JobTyp=22 DoJE=F Cont=F.
 PrismC:  IPart=    11 DynPar=T LinDyn=F Incr=        1024 UseFst=F UseS4=T ISplat=2.
 PrismC was handed    33456885 working-precision words and  3634 shell-pairs
 Enter PrismC:  IPart= 14 JobTyp=22 DoJE=F Cont=F.
 PrismC:  IPart=    14 DynPar=T LinDyn=F Incr=        1024 UseFst=F UseS4=T ISplat=2.
 PrismC was handed    33456885 working-precision words and  3634 shell-pairs
 Enter PrismC:  IPart=  4 JobTyp=22 DoJE=F Cont=F.
 Enter PrismC:  IPart=  5 JobTyp=22 DoJE=F Cont=F.
 PrismC:  IPart=     4 DynPar=T LinDyn=F Incr=        1024 UseFst=F UseS4=T ISplat=2.
 PrismC was handed    33456885 working-precision words and  3634 shell-pairs
 PrismC:  IPart=     5 DynPar=T LinDyn=F Incr=        1024 UseFst=F UseS4=T ISplat=2.
 PrismC was handed    33456885 working-precision words and  3634 shell-pairs
 Enter PrismC:  IPart= 18 JobTyp=22 DoJE=F Cont=F.
 PrismC:  IPart=    18 DynPar=T LinDyn=F Incr=        1024 UseFst=F UseS4=T ISplat=2.
 PrismC was handed    33456885 working-precision words and  3634 shell-pairs
 Enter PrismC:  IPart= 10 JobTyp=22 DoJE=F Cont=F.
 PrismC:  IPart=    10 DynPar=T LinDyn=F Incr=        1024 UseFst=F UseS4=T ISplat=2.
 PrismC was handed    33456885 working-precision words and  3634 shell-pairs
 Enter PrismC:  IPart=  3 JobTyp=22 DoJE=F Cont=F.
 PrismC:  IPart=     3 DynPar=T LinDyn=F Incr=        1024 UseFst=F UseS4=T ISplat=2.
 PrismC was handed    33456885 working-precision words and  3634 shell-pairs
 Enter PrismC:  IPart= 17 JobTyp=22 DoJE=F Cont=F.
 PrismC:  IPart=    17 DynPar=T LinDyn=F Incr=        1024 UseFst=F UseS4=T ISplat=2.
 PrismC was handed    33456885 working-precision words and  3634 shell-pairs
 Enter PrismC:  IPart= 12 JobTyp=22 DoJE=F Cont=F.
 PrismC:  IPart=    12 DynPar=T LinDyn=F Incr=        1024 UseFst=F UseS4=T ISplat=2.
 PrismC was handed    33456885 working-precision words and  3634 shell-pairs
 Enter PrismC:  IPart=  9 JobTyp=22 DoJE=F Cont=F.
 PrismC:  IPart=     9 DynPar=T LinDyn=F Incr=        1024 UseFst=F UseS4=T ISplat=2.
 PrismC was handed    33456885 working-precision words and  3634 shell-pairs
 Enter PrismC:  IPart= 15 JobTyp=22 DoJE=F Cont=F.
 PrismC:  IPart=    15 DynPar=T LinDyn=F Incr=        1024 UseFst=F UseS4=T ISplat=2.
 PrismC was handed    33456885 working-precision words and  3634 shell-pairs
 Enter PrismC:  IPart=  2 JobTyp=22 DoJE=F Cont=F.
 PrismC:  IPart=     2 DynPar=T LinDyn=F Incr=        1024 UseFst=F UseS4=T ISplat=2.
 PrismC was handed    33456885 working-precision words and  3634 shell-pairs
 Enter PrismC:  IPart=  7 JobTyp=22 DoJE=F Cont=F.
 PrismC:  IPart=     7 DynPar=T LinDyn=F Incr=        1024 UseFst=F UseS4=T ISplat=2.
 PrismC was handed    33456885 working-precision words and  3634 shell-pairs
 IPart=  4 NShTot=      182803 NShNF=      182803 NShFF=           0 MinMC=       7
           NShCPU=      182803 NBCPU=        7350 AvBCPU=        24.9
           NShGPU=           0 NBGPU=           0 AvBGPU=         0.0
 IPart=  8 NShTot=      178901 NShNF=      178901 NShFF=           0 MinMC=       7
           NShCPU=      178901 NBCPU=        7681 AvBCPU=        23.3
           NShGPU=           0 NBGPU=           0 AvBGPU=         0.0
 IPart=  9 NShTot=      252730 NShNF=      252730 NShFF=           0 MinMC=       7
           NShCPU=      252730 NBCPU=       11024 AvBCPU=        22.9
           NShGPU=           0 NBGPU=           0 AvBGPU=         0.0
 IPart= 13 NShTot=      178491 NShNF=      178491 NShFF=           0 MinMC=       7
           NShCPU=      178491 NBCPU=        7443 AvBCPU=        24.0
           NShGPU=           0 NBGPU=           0 AvBGPU=         0.0
 IPart=  7 NShTot=      258446 NShNF=      258446 NShFF=           0 MinMC=       7
           NShCPU=      258446 NBCPU=       11023 AvBCPU=        23.4
           NShGPU=           0 NBGPU=           0 AvBGPU=         0.0
 IPart=  0 NShTot=      178195 NShNF=      178195 NShFF=           0 MinMC=       7
           NShCPU=      178195 NBCPU=        7571 AvBCPU=        23.5
           NShGPU=           0 NBGPU=           0 AvBGPU=         0.0
 IPart= 14 NShTot=      267390 NShNF=      267390 NShFF=           0 MinMC=       7
           NShCPU=      267390 NBCPU=       11186 AvBCPU=        23.9
           NShGPU=           0 NBGPU=           0 AvBGPU=         0.0
 IPart=  5 NShTot=      271959 NShNF=      271959 NShFF=           0 MinMC=       7
           NShCPU=      271959 NBCPU=       10894 AvBCPU=        25.0
           NShGPU=           0 NBGPU=           0 AvBGPU=         0.0
 IPart=  2 NShTot=      258213 NShNF=      258213 NShFF=           0 MinMC=       7
           NShCPU=      258213 NBCPU=       10909 AvBCPU=        23.7
           NShGPU=           0 NBGPU=           0 AvBGPU=         0.0
 IPart= 17 NShTot=      226138 NShNF=      226138 NShFF=           0 MinMC=       7
           NShCPU=      226138 NBCPU=        9273 AvBCPU=        24.4
           NShGPU=           0 NBGPU=           0 AvBGPU=         0.0
 IPart= 19 NShTot=      262773 NShNF=      262773 NShFF=           0 MinMC=       7
           NShCPU=      262773 NBCPU=       11610 AvBCPU=        22.6
           NShGPU=           0 NBGPU=           0 AvBGPU=         0.0
 IPart=  6 NShTot=      268756 NShNF=      268756 NShFF=           0 MinMC=       7
           NShCPU=      268756 NBCPU=       10859 AvBCPU=        24.7
           NShGPU=           0 NBGPU=           0 AvBGPU=         0.0
 IPart= 15 NShTot=      273546 NShNF=      273546 NShFF=           0 MinMC=       7
           NShCPU=      273546 NBCPU=       11403 AvBCPU=        24.0
           NShGPU=           0 NBGPU=           0 AvBGPU=         0.0
 IPart= 10 NShTot=      184809 NShNF=      184809 NShFF=           0 MinMC=       7
           NShCPU=      184809 NBCPU=        7310 AvBCPU=        25.3
           NShGPU=           0 NBGPU=           0 AvBGPU=         0.0
 IPart=  1 NShTot=      187625 NShNF=      187625 NShFF=           0 MinMC=       7
           NShCPU=      187625 NBCPU=        7850 AvBCPU=        23.9
           NShGPU=           0 NBGPU=           0 AvBGPU=         0.0
 IPart= 11 NShTot=      175989 NShNF=      175989 NShFF=           0 MinMC=       7
           NShCPU=      175989 NBCPU=        7674 AvBCPU=        22.9
           NShGPU=           0 NBGPU=           0 AvBGPU=         0.0
 IPart= 18 NShTot=      259308 NShNF=      259308 NShFF=           0 MinMC=       7
           NShCPU=      259308 NBCPU=       10619 AvBCPU=        24.4
           NShGPU=           0 NBGPU=           0 AvBGPU=         0.0
 IPart=  3 NShTot=      249250 NShNF=      249250 NShFF=           0 MinMC=       7
           NShCPU=      249250 NBCPU=       11038 AvBCPU=        22.6
           NShGPU=           0 NBGPU=           0 AvBGPU=         0.0
 IPart= 16 NShTot=      179196 NShNF=      179196 NShFF=           0 MinMC=       7
           NShCPU=      179196 NBCPU=        7614 AvBCPU=        23.5
           NShGPU=           0 NBGPU=           0 AvBGPU=         0.0
 IPart= 12 NShTot=      189262 NShNF=      189262 NShFF=           0 MinMC=       7
           NShCPU=      189262 NBCPU=        7820 AvBCPU=        24.2
           NShGPU=           0 NBGPU=           0 AvBGPU=         0.0
 CoulSu:  NxtVal=        7044097 LenVP=       33456886 MinMC=       7.
 ReadGW:  IGet=0 IStart=           1 Next=           1 LGW=           0.
 Remaining memory in FofDFT      639.93 Mw
 CkSvGd:  ISavGI=        -1 IRadAn=       5 IRASav=       5 ISavGd=        -1.
 CalDSu-InSpLW:  IPartL=    0 NPrtUS=   20 NPrtUL=    1 DoSpLW=F IThBeg=    0 IThEnd=   19 NThAct=   20.
 CalDSu:  NPrtUS=  20 ThrOK=T IAlg=1 NPAlg=2 DoDPD=T LenP=       35245 LenD1P=             0 GPUOK=F
          ISkipM=0 DoSpLW=F IThBeg=    0 IThEnd=   19.
 IPart=  0 IRanGd=          0 ScrnBf=T ScrnGd=T RCrit=4.00D+00 DoMicB=T.
 IPart= 15        10098 of        11634 points in      14 batches and       81 microbatches, Max-NSigAt=      11 Max-NSgAt2=      11
 IPart=  5         9040 of        10632 points in      12 batches and       74 microbatches, Max-NSigAt=      11 Max-NSgAt2=      11
 IPart= 13        13589 of        14886 points in      16 batches and       79 microbatches, Max-NSigAt=      11 Max-NSgAt2=      11
 IPart= 11         9539 of        10756 points in      12 batches and       78 microbatches, Max-NSigAt=      11 Max-NSgAt2=      11
 IPart= 17         9252 of        10324 points in      11 batches and       67 microbatches, Max-NSigAt=      11 Max-NSgAt2=      11
 IPart=  4        10089 of        10704 points in      10 batches and       51 microbatches, Max-NSigAt=      11 Max-NSgAt2=      11
 IPart=  2         9665 of        10752 points in      11 batches and       66 microbatches, Max-NSigAt=      11 Max-NSgAt2=      11
 IPart= 10        13900 of        15040 points in      15 batches and       92 microbatches, Max-NSigAt=      11 Max-NSgAt2=      11
 IPart=  3        10639 of        11910 points in      12 batches and       41 microbatches, Max-NSigAt=      11 Max-NSgAt2=      11
 IPart=  0        15721 of        17324 points in      18 batches and       83 microbatches, Max-NSigAt=      11 Max-NSgAt2=      11
 IPart=  8        15560 of        16392 points in      16 batches and       84 microbatches, Max-NSigAt=      11 Max-NSgAt2=      11
 IPart=  1        15411 of        16604 points in      16 batches and       71 microbatches, Max-NSigAt=      11 Max-NSgAt2=      11
 IPart=  9        10067 of        10886 points in      11 batches and       59 microbatches, Max-NSigAt=      11 Max-NSgAt2=      11
 IPart=  6        10106 of        10866 points in      11 batches and       66 microbatches, Max-NSigAt=      11 Max-NSgAt2=      11
 IPart= 14         9129 of        10100 points in      11 batches and       81 microbatches, Max-NSigAt=      11 Max-NSgAt2=      11
 IPart= 16        11181 of        12352 points in      13 batches and       60 microbatches, Max-NSigAt=      11 Max-NSgAt2=      11
 IPart= 19        12051 of        13172 points in      13 batches and       35 microbatches, Max-NSigAt=      11 Max-NSgAt2=      11
 IPart= 18         9521 of        10396 points in      12 batches and       55 microbatches, Max-NSigAt=      11 Max-NSgAt2=      11
 IPart= 12         9923 of        10442 points in      10 batches and       51 microbatches, Max-NSigAt=      11 Max-NSgAt2=      11
 IPart=  7        10197 of        11228 points in      11 batches and       62 microbatches, Max-NSigAt=      11 Max-NSgAt2=      11
 Polarizability after L703:
                1             2             3 
      1  0.000000D+00
      2  0.000000D+00  0.000000D+00
      3  0.000000D+00  0.000000D+00  0.000000D+00
 Dipole Derivatives after L703:
                 1             2             3             4             5 
      1  -0.614692D-01  0.101434D+00 -0.755234D-02 -0.287939D+00  0.141005D+01
      2   0.201926D+00 -0.135019D+00 -0.827034D-02  0.306262D+00 -0.737655D+00
      3   0.101389D-02 -0.588346D-02 -0.254800D+00  0.176433D-01 -0.388282D-01
                 6             7             8             9            10 
      1   0.747536D-01 -0.107410D+01  0.566685D+00 -0.716403D-02 -0.512601D+00
      2  -0.270887D-01  0.893206D-01 -0.787029D+00 -0.797396D-02  0.271002D-01
      3  -0.398424D+00 -0.180097D-01  0.976341D-03 -0.788586D+00  0.166330D-01
                11            12            13            14            15 
      1  -0.473465D-01  0.423717D-01 -0.343828D+00 -0.283607D+00 -0.255808D-01
      2  -0.761845D+00 -0.393203D-01 -0.102011D+00 -0.604794D+00  0.339051D-02
      3  -0.286102D-01  0.180755D-01  0.188741D-02 -0.417241D-01  0.439397D-01
                16            17            18            19            20 
      1   0.719559D+00 -0.102078D+00  0.752036D+00 -0.726410D-01 -0.252107D+00
      2  -0.162057D+00  0.155258D+00 -0.145827D+00  0.399325D+00  0.450690D+00
      3   0.241711D+00  0.780578D-02  0.414817D+00 -0.226139D-01 -0.403910D-01
                21            22            23            24            25 
      1   0.107186D-02  0.625137D+00 -0.216901D+00 -0.741251D+00  0.226520D+00
      2  -0.122160D-01 -0.164109D+00  0.196677D+00  0.182790D+00 -0.247744D+00
      3   0.704188D-01 -0.213467D+00  0.342179D-01  0.445279D+00 -0.594326D-02
                26            27            28            29            30 
      1  -0.194157D+00 -0.686543D-02  0.920535D-01  0.230198D+00 -0.767167D-02
      2   0.857127D+00  0.327983D-01 -0.244357D+00  0.753909D+00 -0.117522D-04
      3   0.257052D-01  0.757751D-01 -0.871191D-02  0.523943D-01  0.943775D-01
                31            32            33 
      1   0.689307D+00 -0.121217D+01 -0.741474D-01
      2  -0.103656D+00  0.612681D+00  0.217287D-01
      3  -0.101429D-01  0.343375D-01  0.279128D+00
 Hessian after L703:
                1             2             3             4             5 
      1  0.460534D+00
      2 -0.726544D-01  0.356765D+00
      3 -0.270050D-02 -0.771895D-02  0.641059D-01
      4 -0.234248D-01  0.141010D-03  0.948894D-03  0.452446D+00
      5 -0.140081D-02 -0.300729D-02 -0.898859D-03 -0.593963D-01  0.432411D+00
      6  0.875888D-03 -0.175864D-03  0.114948D-01 -0.131254D-01  0.219931D-01
      7 -0.107741D+00  0.237121D-01  0.337765D-03  0.424373D-02  0.188915D-02
      8  0.594626D-01 -0.198940D+00  0.403029D-02 -0.793907D-02 -0.279927D-02
      9 -0.160182D-03  0.436346D-02 -0.597998D-01  0.937500D-05  0.626678D-03
     10 -0.269476D+00  0.513429D-02  0.230946D-02 -0.342119D-01 -0.355147D-01
     11 -0.330310D-01 -0.104614D+00  0.852067D-03  0.177793D-02  0.972711D-02
     12  0.438909D-02 -0.368392D-03 -0.326414D-01  0.681216D-03  0.118443D-02
     13 -0.243154D-01 -0.290456D-01 -0.170430D-02 -0.308904D+00  0.274449D-01
     14 -0.671368D-02  0.144215D-01  0.167867D-02 -0.197027D-01 -0.103941D+00
     15 -0.418929D-03  0.344117D-03  0.427279D-02  0.565693D-02 -0.401361D-02
     16 -0.121558D-01  0.989797D-02 -0.913604D-02 -0.904421D-03  0.317562D-03
     17  0.308422D-01 -0.130382D-01  0.224632D-01  0.984943D-03  0.522098D-03
     18 -0.160470D-02  0.573005D-02  0.731863D-02 -0.515604D-03 -0.397935D-04
     19  0.102206D-01  0.153165D-01 -0.870476D-03 -0.200790D-03  0.519038D-03
     20 -0.823144D-02 -0.367074D-01  0.287381D-02  0.596031D-03  0.101158D-02
     21  0.275506D-03  0.137093D-02 -0.117976D-02 -0.196393D-03 -0.304357D-03
     22 -0.108307D-01  0.962732D-02  0.103492D-01 -0.672536D-03  0.181383D-03
     23  0.285884D-01 -0.170977D-01 -0.236118D-01  0.988854D-03  0.368839D-03
     24 -0.104249D-02 -0.333513D-02  0.100158D-01  0.418110D-03 -0.350319D-04
     25 -0.229394D-01  0.349901D-01  0.584158D-03  0.383689D-02 -0.163697D-02
     26  0.341034D-02  0.242472D-02  0.142600D-03  0.877652D-03  0.270202D-02
     27  0.741342D-03 -0.278995D-03  0.139652D-02 -0.441264D-03  0.514212D-03
     28 -0.153017D-02  0.386708D-02 -0.987849D-04 -0.186311D-01  0.347462D-01
     29  0.138895D-02  0.573359D-03  0.374640D-04  0.315865D-02  0.211527D-02
     30 -0.337848D-03 -0.476570D-04 -0.367331D-02  0.895924D-03 -0.945100D-03
     31  0.165836D-02 -0.986326D-03 -0.193889D-04 -0.735768D-01  0.328505D-01
     32 -0.166108D-02 -0.780462D-03  0.151539D-03  0.785130D-01 -0.339110D+00
     33 -0.171680D-04  0.116435D-03 -0.131026D-02  0.566817D-02 -0.180816D-01
                6             7             8             9            10 
      6  0.545510D-01
      7 -0.244692D-03  0.550732D+00
      8 -0.407355D-04  0.173736D-01  0.450254D+00
      9  0.687774D-03 -0.389055D-01  0.127145D-01  0.549611D+00
     10 -0.830565D-03 -0.259362D-01  0.258351D-01 -0.767540D-04  0.666108D+00
     11 -0.253914D-03  0.445007D-01 -0.842103D-02 -0.129458D-02  0.143516D+00
     12  0.411291D-02 -0.731331D-03 -0.293930D-03 -0.569923D-02 -0.269741D-02
     13  0.859251D-02 -0.541786D-02  0.595941D-03 -0.724115D-03 -0.277088D+00
     14 -0.245781D-02 -0.521144D-02  0.280253D-02 -0.132513D-02 -0.210458D+00
     15 -0.357231D-01  0.378907D-03  0.748615D-03  0.102560D-02 -0.386014D-02
     16 -0.110655D-03 -0.124666D+00 -0.217115D-02 -0.906043D-01  0.130548D-02
     17 -0.343435D-03 -0.676254D-02 -0.517759D-01 -0.412312D-02 -0.396579D-02
     18  0.470566D-04 -0.925711D-01  0.343656D-04 -0.184145D+00  0.249425D-02
[...]
     Eigenvalues ---    0.04427   0.08806   0.08811   0.10931   0.13133
     Eigenvalues ---    0.13659   0.16237   0.17950   0.18678   0.20377
     Eigenvalues ---    0.22501   0.31079   0.33039   0.33499   0.35245
     Eigenvalues ---    0.36308   0.37434   0.40546   0.44209   0.51139
     Eigenvalues ---    0.54166   0.65553
 Angle between quadratic step and forces=  72.87 degrees.
 Linear search not attempted -- first point.
 Iteration  1 RMS(Cart)=  0.00002737 RMS(Int)=  0.00000000
 Iteration  2 RMS(Cart)=  0.00000000 RMS(Int)=  0.00000000
 ITry= 1 IFail=0 DXMaxC= 7.23D-05 DCOld= 1.00D+10 DXMaxT= 3.00D-01 DXLimC= 3.00D+00 Rises=F
 Variable       Old X    -DE/DX   Delta X   Delta X   Delta X     New X
                                 (Linear)    (Quad)   (Total)
    R1        2.65861  -0.00000   0.00000  -0.00000  -0.00000   2.65861
    R2        2.56838   0.00000   0.00000  -0.00000  -0.00000   2.56838
    R3        2.58763  -0.00000   0.00000  -0.00000  -0.00000   2.58763
    R4        1.81657   0.00000   0.00000   0.00001   0.00001   1.81657
    R5        2.05178  -0.00000   0.00000  -0.00000  -0.00000   2.05178
    R6        2.06764  -0.00000   0.00000  -0.00000  -0.00000   2.06763
    R7        2.06763   0.00000   0.00000   0.00000   0.00000   2.06763
    R8        2.51126  -0.00000   0.00000  -0.00000  -0.00000   2.51125
    R9        2.04733   0.00000   0.00000   0.00000   0.00000   2.04733
   R10        2.03837  -0.00000   0.00000  -0.00000  -0.00000   2.03836
    A1        2.01872   0.00000   0.00000   0.00000   0.00000   2.01872
    A2        1.91222   0.00000   0.00000   0.00000   0.00000   1.91222
    A3        1.86506   0.00000   0.00000   0.00000   0.00000   1.86506
    A4        1.93529   0.00000   0.00000   0.00000   0.00000   1.93529
    A5        1.93530  -0.00000   0.00000  -0.00000  -0.00000   1.93529
    A6        1.91340   0.00000   0.00000   0.00001   0.00001   1.91341
    A7        1.91341  -0.00000   0.00000  -0.00000  -0.00000   1.91341
    A8        1.90113  -0.00000   0.00000  -0.00001  -0.00001   1.90113
    A9        2.21963   0.00000   0.00000   0.00001   0.00001   2.21963
   A10        1.94478  -0.00000   0.00000  -0.00000  -0.00000   1.94478
   A11        2.11878  -0.00000   0.00000  -0.00000  -0.00000   2.11878
   A12        2.17288  -0.00000   0.00000  -0.00000  -0.00000   2.17288
   A13        1.94815  -0.00000   0.00000  -0.00000  -0.00000   1.94814
   A14        2.16216   0.00000   0.00000   0.00000   0.00000   2.16216
    D1        3.14153   0.00000   0.00000   0.00007   0.00007  -3.14159
    D2       -1.05723   0.00000   0.00000   0.00008   0.00008  -1.05716
    D3        1.05709   0.00000   0.00000   0.00007   0.00007   1.05716
    D4        0.00006  -0.00000   0.00000  -0.00006  -0.00006  -0.00000
    D5       -3.14153  -0.00000   0.00000  -0.00006  -0.00006   3.14159
    D6       -0.00005   0.00000   0.00000   0.00005   0.00005   0.00000
    D7        3.14155   0.00000   0.00000   0.00005   0.00005  -3.14159
    D8        3.14159   0.00000   0.00000   0.00000   0.00000   3.14159
    D9       -0.00001   0.00000   0.00000   0.00001   0.00001   0.00000
   D10       -0.00000   0.00000   0.00000   0.00000   0.00000  -0.00000
   D11        3.14159   0.00000   0.00000   0.00000   0.00000  -3.14159
         Item               Value     Threshold  Converged?
 Maximum Force            0.000003     0.000015     YES
 RMS     Force            0.000001     0.000010     YES
 Maximum Displacement     0.000072     0.000060     NO 
 RMS     Displacement     0.000027     0.000040     YES
 Predicted change in Energy=-1.062221D-10
                           ----------------------------
                           ! Non-Optimized Parameters !
                           ! (Angstroms and Degrees)  !
 --------------------------                            --------------------------
 ! Name  Definition              Value          Derivative Info.                !
 --------------------------------------------------------------------------------
 ! R1    R(1,3)                  1.4069         -DE/DX =    0.0                 !
 ! R2    R(1,4)                  1.3591         -DE/DX =    0.0                 !
 ! R3    R(2,5)                  1.3693         -DE/DX =    0.0                 !
 ! R4    R(2,11)                 0.9613         -DE/DX =    0.0                 !
 ! R5    R(3,6)                  1.0858         -DE/DX =    0.0                 !
 ! R6    R(3,7)                  1.0941         -DE/DX =    0.0                 !
 ! R7    R(3,8)                  1.0941         -DE/DX =    0.0                 !
 ! R8    R(4,5)                  1.3289         -DE/DX =    0.0                 !
 ! R9    R(4,9)                  1.0834         -DE/DX =    0.0                 !
 ! R10   R(5,10)                 1.0787         -DE/DX =    0.0                 !
 ! A1    A(3,1,4)              115.6639         -DE/DX =    0.0                 !
 ! A2    A(5,2,11)             109.5622         -DE/DX =    0.0                 !
 ! A3    A(1,3,6)              106.86           -DE/DX =    0.0                 !
 ! A4    A(1,3,7)              110.8841         -DE/DX =    0.0                 !
 ! A5    A(1,3,8)              110.8841         -DE/DX =    0.0                 !
 ! A6    A(6,3,7)              109.6301         -DE/DX =    0.0                 !
 ! A7    A(6,3,8)              109.6301         -DE/DX =    0.0                 !
 ! A8    A(7,3,8)              108.9266         -DE/DX =    0.0                 !
 ! A9    A(1,4,5)              127.1756         -DE/DX =    0.0                 !
 ! A10   A(1,4,9)              111.4274         -DE/DX =    0.0                 !
 ! A11   A(5,4,9)              121.397          -DE/DX =    0.0                 !
 ! A12   A(2,5,4)              124.4969         -DE/DX =    0.0                 !
 ! A13   A(2,5,10)             111.6203         -DE/DX =    0.0                 !
 ! A14   A(4,5,10)             123.8827         -DE/DX =    0.0                 !
 ! D1    D(4,1,3,6)           -180.0            -DE/DX =    0.0                 !
 ! D2    D(4,1,3,7)            -60.5707         -DE/DX =    0.0                 !
 ! D3    D(4,1,3,8)             60.5707         -DE/DX =    0.0                 !
 ! D4    D(3,1,4,5)              0.0            -DE/DX =    0.0                 !
 ! D5    D(3,1,4,9)            180.0            -DE/DX =    0.0                 !
 ! D6    D(11,2,5,4)             0.0001         -DE/DX =    0.0                 !
 ! D7    D(11,2,5,10)         -179.9999         -DE/DX =    0.0                 !
 ! D8    D(1,4,5,2)            180.0            -DE/DX =    0.0                 !
 ! D9    D(1,4,5,10)             0.0            -DE/DX =    0.0                 !
 ! D10   D(9,4,5,2)              0.0            -DE/DX =    0.0                 !
 ! D11   D(9,4,5,10)          -180.0            -DE/DX =    0.0                 !
 --------------------------------------------------------------------------------
 GradGradGradGradGradGradGradGradGradGradGradGradGradGradGradGradGradGrad

 Leave Link  103 at Wed Sep 25 07:21:22 2019, MaxMem=   671088640 cpu:             112.6 elap:              57.0
 (Enter /shared/centos7/gaussian/g16/l9999.exe)

 ----------------------------------------------------------------------

 Electric dipole moment (input orientation):
 (Debye = 10**-18 statcoulomb cm , SI units = C m)
                  (au)            (Debye)         (10**-30 SI)
   Tot        0.167479D+00      0.425689D+00      0.141995D+01
   x         -0.186399D-01     -0.473779D-01     -0.158036D+00
   y         -0.155666D+00     -0.395663D+00     -0.131979D+01
   z          0.589066D-01      0.149726D+00      0.499431D+00

 Dipole polarizability, Alpha (input orientation).
 (esu units = cm**3 , SI units = C**2 m**2 J**-1)
 Alpha(0;0):
               (au)            (10**-24 esu)      (10**-40 SI)
   iso        0.437928D+02      0.648942D+01      0.722046D+01
   aniso      0.213474D+02      0.316336D+01      0.351971D+01
   xx         0.435940D+02      0.645996D+01      0.718768D+01
   yx         0.472930D+01      0.700810D+00      0.779757D+00
   yy         0.523568D+02      0.775848D+01      0.863247D+01
   zx         0.274987D+01      0.407489D+00      0.453392D+00
   zy        -0.709199D+01     -0.105092D+01     -0.116931D+01
   zz         0.354276D+02      0.524982D+01      0.584122D+01

 ----------------------------------------------------------------------

 Dipole orientation:
     8          0.58093791          2.03612950          1.99032174
     8          0.64797259          2.05426139         -4.93982532
     6         -1.94825933          1.33984984          2.42224804
     6          1.27656082          2.22747670         -0.47465135
     6         -0.16397597          1.83088475         -2.49306109
     1         -2.20680600          1.26867030          4.45642776
     1         -3.24470075          2.72807524          1.60543355
     1         -2.35155448         -0.51628549          1.60541336
     1          3.24262848          2.76862079         -0.65713110
     1         -2.12718724          1.29051635         -2.39958854
     1          2.39929633          2.53639043         -4.95789390

 Electric dipole moment (dipole orientation):
 (Debye = 10**-18 statcoulomb cm , SI units = C m)
                  (au)            (Debye)         (10**-30 SI)
   Tot        0.167479D+00      0.425689D+00      0.141995D+01
   x          0.000000D+00      0.000000D+00      0.000000D+00
   y          0.000000D+00      0.000000D+00      0.000000D+00
   z          0.167479D+00      0.425689D+00      0.141995D+01

 Dipole polarizability, Alpha (dipole orientation).
 (esu units = cm**3 , SI units = C**2 m**2 J**-1)
 Alpha(0;0):
               (au)            (10**-24 esu)      (10**-40 SI)
   iso        0.437928D+02      0.648942D+01      0.722046D+01
   aniso      0.213474D+02      0.316336D+01      0.351971D+01
   xx         0.435542D+02      0.645407D+01      0.718112D+01
   yx         0.336067D+01      0.498000D+00      0.554100D+00
   yy         0.322701D+02      0.478193D+01      0.532062D+01
   zx        -0.216271D+01     -0.320481D+00     -0.356583D+00
   zy        -0.594545D+00     -0.881025D-01     -0.980273D-01
   zz         0.555541D+02      0.823227D+01      0.915963D+01

 ----------------------------------------------------------------------

 Test job not archived.
 1\1\GINC-C0201\Freq\RM062X\CC-pVTZ\C3H6O2\HARMS.N\25-Sep-2019\0\\#P Ge
 om=AllCheck Guess=TCheck SCRF=Check Test GenChk RM062X/CC-pVTZ Freq\\G
 aussian input prepared by ASE\\0,1\O,0.1049224737,-0.6136196008,1.4061
 355203\O,0.5474923774,2.7957273561,0.1291280391\C,-1.2184473245,-0.856
 6084193,0.9951031293\C,0.6070842935,0.6071510414,1.0824258724\C,-0.013
 2926982,1.5825068473,0.4268437677\H,-1.4709324681,-1.8602444951,1.3234
 778483\H,-1.9063204652,-0.1372395417,1.4495185558\H,-1.3066294189,-0.7
 929892863,-0.093624398\H,1.6267807893,0.7206277584,1.4304170083\H,-1.0
 262807755,1.51284086,0.0628359171\H,1.4472994817,2.8257645136,0.466046
 1033\\Version=EM64L-G16RevA.03\State=1-A\HF=-268.3193098\RMSD=1.789e-0
 9\RMSF=1.031e-06\ZeroPoint=0.0911026\Thermal=0.0968972\Dipole=-0.01863
 99,-0.1556657,0.0589066\DipoleDeriv=-0.831352,-0.6022896,0.0360007,-0.
 2737347,-1.1919507,0.2874558,-0.1036449,0.1598064,-0.3734848,-0.382995
 4,-0.5375114,0.2186879,-0.2154862,-1.2154576,0.2807231,0.081831,0.1556
 125,-0.3922164,0.6963518,0.3339972,-0.00673,0.0490788,0.3258945,0.0286
 3,0.11437,0.139354,0.333602,0.2564701,0.4618924,-0.0395566,0.231669,0.
 8563422,-0.336364,0.0582829,-0.2469253,-0.0193382,0.1455239,0.5329347,
 -0.1097927,0.167618,0.8752071,-0.3726173,0.0454631,-0.2306708,-0.03911
 92,0.0405476,-0.0408752,0.0007445,-0.0724435,-0.0873648,0.0443866,0.01
 41589,0.056654,0.0647636,-0.0598716,-0.0185816,0.0293543,0.1248505,-0.
 02682,-0.0768985,0.0355717,-0.0698628,-0.0016479,-0.0095676,-0.0453766
 ,0.0412865,0.0185387,0.0585982,0.0420918,-0.0530496,-0.0455253,-0.1373
 564,-0.0594389,-0.0865726,-0.0540447,-0.0820547,0.0284506,0.0301137,-0
 .055962,0.0283545,0.1405363,-0.0068149,-0.0636909,-0.0439711,-0.031073
 8,0.0719768,0.0321385,-0.0578325,0.0194621,0.1452641,0.2111471,0.06607
 37,-0.0719787,0.083038,0.3051236,0.0403404,-0.0791885,0.0337408,0.2789
 969\Polar=43.5939971,4.7293016,52.3568263,2.7498703,-7.09199,35.427567
 3\Quadrupole=4.1305186,-2.0597803,-2.0707382,3.6259982,0.7179318,1.569
 4984\PG=C01 [X(C3H6O2)]\NImag=0\\0.43868033,0.14785563,0.42024968,0.07
 831398,-0.08908340,0.14375770,-0.00470735,-0.00925623,-0.00308558,0.59
 092196,-0.01048849,-0.01895987,0.00965997,0.12117642,0.36263280,-0.002
 56197,0.01013909,0.00805370,0.16821988,-0.09618303,0.13178384,-0.23180
 624,-0.03810907,-0.04896750,0.00214983,0.00993569,-0.00336834,0.498775
 63,-0.00380438,-0.08743019,0.00842701,-0.00011745,0.00121305,-0.000582
 11,0.00043276,0.62783958,-0.06354979,-0.00490553,-0.08673782,0.0009042
 1,0.00332448,-0.00111077,-0.02737664,-0.02494774,0.56871407,-0.1226213
 2,-0.05852837,-0.00868522,0.01507674,-0.01791135,0.01271557,-0.0331021
 4,-0.04480633,0.00680068,0.67933617,-0.09819588,-0.27960787,0.06526711
 ,0.01548337,-0.03190229,0.02039975,-0.01883079,-0.01944763,0.00026826,
 -0.02245382,0.69093628,0.00817556,0.08068397,-0.06737457,-0.00147718,0
 .00742379,-0.00178630,-0.00424009,-0.00982678,0.00093090,0.22952169,-0
 .25425712,0.31045938,0.01744122,-0.00679862,0.00880302,-0.13249498,-0.
 06503685,-0.01112760,0.00540568,-0.00312176,0.00353655,-0.23480262,0.1
 2930732,-0.12667193,0.68839361,0.01468083,-0.02739856,0.01829106,-0.10
 862854,-0.27028010,0.05874880,-0.00170650,-0.00277026,0.00039525,0.142
 71478,-0.32756270,0.17331895,-0.02793791,0.68213050,-0.00032475,0.0099
 4584,-0.00213412,0.00740038,0.07568946,-0.06202215,0.00293477,-0.00015
 478,0.00092628,-0.13237070,0.16810851,-0.17311746,0.23601303,-0.253346
 05,0.31094424,-0.02016580,-0.03996166,0.00919561,0.00024710,-0.0008771
 7,0.00041740,-0.05708074,-0.04223057,0.01588669,-0.00469380,0.00132664
 ,-0.00270273,-0.00079946,0.00098376,-0.00086531,0.07475037,-0.00569866
 ,-0.00456362,-0.00032930,-0.00038068,-0.00036859,0.00006499,-0.0547795
 3,-0.28998628,0.07993581,-0.00008873,0.00230051,-0.00066879,0.00040656
 ,0.00037591,0.00014763,0.06343831,0.30894218,-0.00536532,-0.01364498,0
 .00358519,0.00020636,-0.00012791,0.00026705,0.02121943,0.08481247,-0.0
 7957848,-0.00210048,-0.00011801,0.00004249,-0.00061993,0.00037196,-0.0
 0004739,-0.01629586,-0.08652537,0.07774994,-0.04274618,0.01515368,0.00
 794344,-0.00020661,-0.00123024,0.00014895,-0.13615895,0.09706081,0.065
 07582,0.00314713,0.00723841,-0.00149333,0.00102194,-0.00009791,0.00029
 002,0.00622038,-0.00365849,-0.00334957,0.16582703,-0.00366474,0.007296
 19,0.00617057,0.00015402,0.00097717,-0.00079157,0.10260031,-0.16886425
 ,-0.07558260,-0.00149479,0.00391423,-0.00068989,0.00199567,-0.00154555
 ,0.00161627,0.01691872,-0.01710062,-0.01395924,-0.11332991,0.17442690,
 -0.01132445,0.00938245,0.00841326,-0.00040590,0.00020242,-0.00013974,0
 .06833420,-0.07527403,-0.10177985,0.00019652,0.00057858,0.00007094,0.0
 0135588,-0.00095752,0.00004462,-0.00718745,0.00743041,0.00530707,-0.07
 000964,0.08042585,0.10195844,-0.01930883,-0.00424509,-0.04212268,-0.00
 051865,-0.00041538,0.00024950,-0.04980343,0.00000863,-0.00246132,0.002
 64694,0.00639212,-0.00249248,0.00173320,-0.00064253,0.00153490,0.00131
 691,0.00108712,0.00603531,0.00311564,-0.00191356,0.01907790,0.06122776
 ,-0.00326837,0.00004984,-0.00604922,0.00005327,0.00056946,0.00023572,0
 .00052987,-0.05438289,0.01793253,0.00018965,0.00359673,-0.00252398,0.0
 0123041,-0.00096404,0.00022305,0.00138063,0.00056423,0.02955844,-0.000
 36444,0.00154188,-0.02209894,0.00040953,0.05075273,-0.01527326,-0.0023
 2829,-0.00777864,0.00001679,-0.00147825,0.00058014,-0.00829591,0.01526
 824,-0.30261983,0.00216555,0.00201241,0.00088945,-0.00121649,0.0012555
 0,-0.00124846,0.00100426,0.00005833,-0.00745355,0.00077967,0.00189590,
 -0.01303692,0.02021381,-0.01659065,0.33023460,-0.01427223,-0.00836229,
 -0.00228824,0.00201577,0.00076144,0.00275876,0.00346342,-0.00142254,0.
 00088988,-0.30101184,-0.02091920,-0.09399850,-0.01166823,-0.00550499,-
 0.00509021,-0.00059704,-0.00015625,-0.00030136,-0.00005920,0.00020669,
 0.00001305,-0.00034659,-0.00001610,-0.00017843,0.32162328,-0.03712523,
 -0.01062106,-0.00958878,0.00229638,0.00226834,-0.00258635,0.00022012,-
 0.00370896,0.00282282,-0.01554060,-0.05217758,0.00074410,0.01957316,0.
 00569742,0.00835152,-0.00141602,-0.00021116,-0.00031206,-0.00047804,-0
 .00003431,-0.00000392,0.00001327,0.00001621,-0.00024923,0.03314591,0.0
 6147052,0.00993656,0.00158835,0.00394783,0.00210645,-0.00318282,-0.003
 74558,0.00019087,0.00218387,0.00187634,-0.09628421,-0.00134568,-0.0730
 6017,-0.01574808,-0.00139318,0.00192575,0.00023404,0.00017746,0.000364
 92,-0.00036302,-0.00023168,-0.00019121,0.00047612,0.00023313,0.0000458
 8,0.10222500,-0.00377376,0.06361143,-0.00094698,-0.00033738,0.00123826
 ,-0.01391777,-0.00682254,-0.00315349,-0.00083721,-0.00188571,0.0008486
 8,-0.00845035,-0.00214955,-0.00491184,-0.31151954,-0.01112677,-0.10233
 551,0.00062886,-0.00021565,0.00054450,-0.00025228,-0.00136235,0.000014
 85,-0.00002526,-0.00005723,0.00055835,0.00108913,0.00027689,-0.0029793
 5,0.33271459,-0.00164572,0.00062632,-0.00250572,-0.03506657,-0.0075805
 5,-0.00969945,0.00054296,-0.00243405,0.00083758,0.02046508,0.00927655,
 0.00678967,-0.00675129,-0.05139950,0.00392807,0.00023164,0.00001522,-0
 .00014438,-0.00039719,-0.00044578,0.00038574,-0.00073831,-0.00177197,0
 .00003040,0.00059227,-0.00222820,0.00476987,0.02561076,0.06055992,0.00
 179423,-0.00199745,-0.00221838,0.00885037,0.00127561,0.00455609,-0.000
 18307,-0.00010601,-0.00098569,-0.01452286,-0.00199792,0.00174750,-0.10
 419532,0.00222826,-0.07741869,0.00035434,-0.00031816,-0.00026348,0.001
 00357,0.00130180,-0.00062647,-0.00055115,-0.00099612,0.00047238,-0.003
 11334,0.00464734,0.00526863,0.10968476,-0.00625531,0.06770344,0.000453
 38,0.00258939,-0.00034510,-0.45856603,-0.02909152,-0.16429866,-0.00100
 585,-0.00011346,-0.00055477,0.00447509,0.00280139,0.00029083,-0.022710
 83,-0.00273422,-0.00718662,0.00017322,0.00004601,0.00002691,0.00009109
 ,-0.00011006,-0.00006495,-0.00003768,-0.00008721,0.00022566,-0.0002364
 8,-0.00096583,0.00020562,0.00151680,-0.00284363,0.00087848,0.47584729,
 0.00135500,0.00035915,-0.00025928,0.01428602,-0.03856941,0.02025415,-0
 .00083582,-0.00002811,-0.00008087,-0.00254551,0.00067378,-0.00099392,-
 0.04286667,-0.00628312,-0.01450952,0.00020573,0.00003222,0.00008906,0.
 00010333,-0.00016585,-0.00007105,0.00004420,0.00002782,0.00012565,0.00
 167507,-0.00047123,0.00097444,-0.00193047,-0.00461796,0.00221797,0.030
 50914,0.04904272,0.00017921,0.00021994,-0.00151415,-0.18273577,0.00339
 628,-0.07643627,-0.00024773,0.00019986,0.00036484,0.00256346,0.0010841
 1,0.00119785,0.00987086,0.00108697,0.00214737,-0.00004099,0.00002697,0
 .00002625,-0.00002592,-0.00015540,-0.00002014,0.00004008,0.00007605,-0
 .00008507,-0.00091661,-0.00005169,-0.00004383,0.00049080,0.00186353,0.
 00176467,0.17082260,-0.00774663,0.07259850\\-0.00000060,0.00000075,0.0
 0000168,0.00000304,0.00000044,0.00000082,0.00000018,0.00000036,-0.0000
 0271,0.00000132,-0.00000132,0.00000023,-0.00000041,0.00000074,-0.00000
 018,-0.00000036,-0.00000011,0.00000004,-0.00000018,0.00000013,0.000001
 03,-0.00000024,0.00000009,-0.00000005,0.00000006,-0.00000033,-0.000000
 23,-0.00000016,-0.00000033,0.00000002,-0.00000267,-0.00000043,-0.00000
 065\\\@


 HE THAT WALD REACHE THE SWEITE ROSE
 SULD NOW AND THEN BE SCRATCHED WT THE SCHARPE BREERES.
 -- PROVERBS AND REASONS OF THE YEAR 1585
           AS REPRINTED IN PAISLEY MAGAZINE 1828.
 Job cpu time:       0 days  1 hours  9 minutes 55.5 seconds.
 Elapsed time:       0 days  0 hours 34 minutes 59.8 seconds.
 File lengths (MBytes):  RWF=   1312 Int=      0 D2E=      0 Chk=     32 Scr=     32
 Normal termination of Gaussian 16 at Wed Sep 25 07:21:23 2019.
