 Entering Gaussian System, Link 0=g16
 Input=tight/species/COC=CO/conformers/COC=CO_7.com
 Output=tight/species/COC=CO/conformers/COC=CO_7.log
 Initial command:
 /shared/centos7/gaussian/g16/l1.exe "/scratch/harms.n/gauss_scrdir/Gau-36099.inp" -scrdir="/scratch/harms.n/gauss_scrdir/"
 Entering Link 1 = /shared/centos7/gaussian/g16/l1.exe PID=     36100.
  
 Copyright (c) 1988,1990,1992,1993,1995,1998,2003,2009,2016,
            Gaussian, Inc.  All Rights Reserved.
  
 This is part of the Gaussian(R) 16 program.  It is based on
 the Gaussian(R) 09 system (copyright 2009, Gaussian, Inc.),
 the Gaussian(R) 03 system (copyright 2003, Gaussian, Inc.),
 the Gaussian(R) 98 system (copyright 1998, Gaussian, Inc.),
 the Gaussian(R) 94 system (copyright 1995, Gaussian, Inc.),
 the Gaussian 92(TM) system (copyright 1992, Gaussian, Inc.),
 the Gaussian 90(TM) system (copyright 1990, Gaussian, Inc.),
 the Gaussian 88(TM) system (copyright 1988, Gaussian, Inc.),
 the Gaussian 86(TM) system (copyright 1986, Carnegie Mellon
 University), and the Gaussian 82(TM) system (copyright 1983,
 Carnegie Mellon University). Gaussian is a federally registered
 trademark of Gaussian, Inc.
  
 This software contains proprietary and confidential information,
 including trade secrets, belonging to Gaussian, Inc.
  
 This software is provided under written license and may be
 used, copied, transmitted, or stored only in accord with that
 written license.
  
 The following legend is applicable only to US Government
 contracts under FAR:
  
                    RESTRICTED RIGHTS LEGEND
  
 Use, reproduction and disclosure by the US Government is
 subject to restrictions as set forth in subparagraphs (a)
 and (c) of the Commercial Computer Software - Restricted
 Rights clause in FAR 52.227-19.
  
 Gaussian, Inc.
 340 Quinnipiac St., Bldg. 40, Wallingford CT 06492
  
  
 ---------------------------------------------------------------
 Warning -- This program may not be used in any manner that
 competes with the business of Gaussian, Inc. or will provide
 assistance to any competitor of Gaussian, Inc.  The licensee
 of this program is prohibited from giving any competitor of
 Gaussian, Inc. access to this program.  By using this program,
 the user acknowledges that Gaussian, Inc. is engaged in the
 business of creating and licensing software in the field of
 computational chemistry and represents and warrants to the
 licensee that it is not a competitor of Gaussian, Inc. and that
 it will not use this program in any manner prohibited above.
 ---------------------------------------------------------------
  

 Cite this work as:
 Gaussian 16, Revision A.03,
 M. J. Frisch, G. W. Trucks, H. B. Schlegel, G. E. Scuseria, 
 M. A. Robb, J. R. Cheeseman, G. Scalmani, V. Barone, 
 G. A. Petersson, H. Nakatsuji, X. Li, M. Caricato, A. V. Marenich, 
 J. Bloino, B. G. Janesko, R. Gomperts, B. Mennucci, H. P. Hratchian, 
 J. V. Ortiz, A. F. Izmaylov, J. L. Sonnenberg, D. Williams-Young, 
 F. Ding, F. Lipparini, F. Egidi, J. Goings, B. Peng, A. Petrone, 
 T. Henderson, D. Ranasinghe, V. G. Zakrzewski, J. Gao, N. Rega, 
 G. Zheng, W. Liang, M. Hada, M. Ehara, K. Toyota, R. Fukuda, 
 J. Hasegawa, M. Ishida, T. Nakajima, Y. Honda, O. Kitao, H. Nakai, 
 T. Vreven, K. Throssell, J. A. Montgomery, Jr., J. E. Peralta, 
 F. Ogliaro, M. J. Bearpark, J. J. Heyd, E. N. Brothers, K. N. Kudin, 
 V. N. Staroverov, T. A. Keith, R. Kobayashi, J. Normand, 
 K. Raghavachari, A. P. Rendell, J. C. Burant, S. S. Iyengar, 
 J. Tomasi, M. Cossi, J. M. Millam, M. Klene, C. Adamo, R. Cammi, 
 J. W. Ochterski, R. L. Martin, K. Morokuma, O. Farkas, 
 J. B. Foresman, and D. J. Fox, Gaussian, Inc., Wallingford CT, 2016.
 
 ******************************************
 Gaussian 16:  EM64L-G16RevA.03 25-Dec-2016
                28-Sep-2019 
 ******************************************
 %nprocshared=20
 Will use up to   20 processors via shared memory.
 %mem=5GB
 ----------------------------------------------------------------------
 #p m062x/cc-pVTZ opt=(calcfc,maxcycles=900,Tight) freq IOP(7/33=1,2/16
 =3) scf=(maxcycle=900)
 ----------------------------------------------------------------------
 1/6=900,7=10,10=4,18=20,19=15,26=3,38=1/1,3;
 2/9=110,12=2,16=3,17=6,18=5,40=1/2;
 3/5=16,6=1,11=2,25=1,30=1,71=2,74=-55,140=1/1,2,3;
 4//1;
 5/5=2,7=900,38=5/2;
 8/6=4,10=90,11=11/1;
 11/6=1,8=1,9=11,15=111,16=1/1,2,10;
 10/6=1,13=1/2;
 6/7=2,8=2,9=2,10=2,28=1/1;
 7/10=1,18=20,25=1,33=1/1,2,3,16;
 1/6=900,7=10,10=4,18=20,19=15,26=3/3(2);
 2/9=110,16=3/2;
 99//99;
 2/9=110,16=3/2;
 3/5=16,6=1,11=2,25=1,30=1,71=1,74=-55/1,2,3;
 4/5=5,16=3,69=1/1;
 5/5=2,7=900,38=5/2;
 7/33=1/1,2,3,16;
 1/6=900,7=10,18=20,19=15,26=3/3(-5);
 2/9=110,16=3/2;
 6/7=2,8=2,9=2,10=2,19=2,28=1/1;
 99/9=1/99;
 Leave Link    1 at Sat Sep 28 22:05:18 2019, MaxMem=   671088640 cpu:               4.0 elap:               2.0
 (Enter /shared/centos7/gaussian/g16/l101.exe)
 ------------------------------
 Gaussian input prepared by ASE
 ------------------------------
 Symbolic Z-matrix:
 Charge =  0 Multiplicity = 1
 O                     0.22747  -0.76481   1.14661 
 O                     2.47755   2.0971    0.85004 
 C                    -1.16553  -0.86101   0.84057 
 C                     0.6999    0.51885   0.90451 
 C                     1.95647   0.84563   1.09215 
 H                    -1.35857  -0.62698  -0.24589 
 H                    -1.484    -1.92268   1.04583 
 H                    -1.75246  -0.18152   1.45887 
 H                    -0.04103   1.23505   0.55451 
 H                     2.69218   0.15656   1.44821 
 H                     1.71489   2.67478   0.5056 
 
 ITRead=  0  0  0  0  0  0  0  0  0  0  0
 MicOpt= -1 -1 -1 -1 -1 -1 -1 -1 -1 -1 -1
 NAtoms=     11 NQM=       11 NQMF=       0 NMMI=      0 NMMIF=      0
                NMic=       0 NMicF=      0.
                    Isotopes and Nuclear Properties:
 (Nuclear quadrupole moments (NQMom) in fm**2, nuclear magnetic moments (NMagM)
  in nuclear magnetons)

  Atom         1           2           3           4           5           6           7           8           9          10
 IAtWgt=          16          16          12          12          12           1           1           1           1           1
 AtmWgt=  15.9949146  15.9949146  12.0000000  12.0000000  12.0000000   1.0078250   1.0078250   1.0078250   1.0078250   1.0078250
 NucSpn=           0           0           0           0           0           1           1           1           1           1
 AtZEff=  -0.0000000  -0.0000000  -0.0000000  -0.0000000  -0.0000000  -0.0000000  -0.0000000  -0.0000000  -0.0000000  -0.0000000
 NQMom=    0.0000000   0.0000000   0.0000000   0.0000000   0.0000000   0.0000000   0.0000000   0.0000000   0.0000000   0.0000000
 NMagM=    0.0000000   0.0000000   0.0000000   0.0000000   0.0000000   2.7928460   2.7928460   2.7928460   2.7928460   2.7928460
 AtZNuc=   8.0000000   8.0000000   6.0000000   6.0000000   6.0000000   1.0000000   1.0000000   1.0000000   1.0000000   1.0000000

  Atom        11
 IAtWgt=           1
 AtmWgt=   1.0078250
 NucSpn=           1
 AtZEff=  -0.0000000
 NQMom=    0.0000000
 NMagM=    2.7928460
 AtZNuc=   1.0000000
 Leave Link  101 at Sat Sep 28 22:05:19 2019, MaxMem=   671088640 cpu:               2.4 elap:               1.2
 (Enter /shared/centos7/gaussian/g16/l103.exe)

 GradGradGradGradGradGradGradGradGradGradGradGradGradGradGradGradGradGrad
 Berny optimization.
 Initialization pass.
                           ----------------------------
                           !    Initial Parameters    !
                           ! (Angstroms and Degrees)  !
 --------------------------                            --------------------------
 ! Name  Definition              Value          Derivative Info.                !
 --------------------------------------------------------------------------------
 ! R1    R(1,3)                  1.4295         calculate D2E/DX2 analytically  !
 ! R2    R(1,4)                  1.3891         calculate D2E/DX2 analytically  !
 ! R3    R(2,5)                  1.3771         calculate D2E/DX2 analytically  !
 ! R4    R(2,11)                 1.0169         calculate D2E/DX2 analytically  !
 ! R5    R(3,6)                  1.128          calculate D2E/DX2 analytically  !
 ! R6    R(3,7)                  1.1272         calculate D2E/DX2 analytically  !
 ! R7    R(3,8)                  1.0902         calculate D2E/DX2 analytically  !
 ! R8    R(4,5)                  1.3119         calculate D2E/DX2 analytically  !
 ! R9    R(4,9)                  1.0883         calculate D2E/DX2 analytically  !
 ! R10   R(5,10)                 1.0691         calculate D2E/DX2 analytically  !
 ! A1    A(3,1,4)              110.8731         calculate D2E/DX2 analytically  !
 ! A2    A(5,2,11)             106.9796         calculate D2E/DX2 analytically  !
 ! A3    A(1,3,6)              111.0396         calculate D2E/DX2 analytically  !
 ! A4    A(1,3,7)              107.4401         calculate D2E/DX2 analytically  !
 ! A5    A(1,3,8)              111.1788         calculate D2E/DX2 analytically  !
 ! A6    A(6,3,7)              108.8104         calculate D2E/DX2 analytically  !
 ! A7    A(6,3,8)              108.954          calculate D2E/DX2 analytically  !
 ! A8    A(7,3,8)              109.3685         calculate D2E/DX2 analytically  !
 ! A9    A(1,4,5)              122.0754         calculate D2E/DX2 analytically  !
 ! A10   A(1,4,9)              115.6352         calculate D2E/DX2 analytically  !
 ! A11   A(5,4,9)              122.2887         calculate D2E/DX2 analytically  !
 ! A12   A(2,5,4)              124.3113         calculate D2E/DX2 analytically  !
 ! A13   A(2,5,10)             112.5774         calculate D2E/DX2 analytically  !
 ! A14   A(4,5,10)             123.1104         calculate D2E/DX2 analytically  !
 ! D1    D(4,1,3,6)             60.5098         calculate D2E/DX2 analytically  !
 ! D2    D(4,1,3,7)            179.3883         calculate D2E/DX2 analytically  !
 ! D3    D(4,1,3,8)            -60.9736         calculate D2E/DX2 analytically  !
 ! D4    D(3,1,4,5)           -178.9314         calculate D2E/DX2 analytically  !
 ! D5    D(3,1,4,9)              1.3684         calculate D2E/DX2 analytically  !
 ! D6    D(11,2,5,4)            -0.4481         calculate D2E/DX2 analytically  !
 ! D7    D(11,2,5,10)          179.2147         calculate D2E/DX2 analytically  !
 ! D8    D(1,4,5,2)            179.0791         calculate D2E/DX2 analytically  !
 ! D9    D(1,4,5,10)            -0.5491         calculate D2E/DX2 analytically  !
 ! D10   D(9,4,5,2)             -1.2407         calculate D2E/DX2 analytically  !
 ! D11   D(9,4,5,10)           179.1311         calculate D2E/DX2 analytically  !
 --------------------------------------------------------------------------------
 Trust Radius=3.00D-01 FncErr=1.00D-07 GrdErr=1.00D-06 EigMax=2.50D+02 EigMin=1.00D-04
 Number of steps in this run=    100 maximum allowed number of steps=    100.
 GradGradGradGradGradGradGradGradGradGradGradGradGradGradGradGradGradGrad

 Leave Link  103 at Sat Sep 28 22:05:20 2019, MaxMem=   671088640 cpu:               1.5 elap:               0.8
 (Enter /shared/centos7/gaussian/g16/l202.exe)
                          Input orientation:                          
 ---------------------------------------------------------------------
 Center     Atomic      Atomic             Coordinates (Angstroms)
 Number     Number       Type             X           Y           Z
 ---------------------------------------------------------------------
      1          8           0        0.227471   -0.764813    1.146609
      2          8           0        2.477554    2.097099    0.850040
      3          6           0       -1.165530   -0.861011    0.840570
      4          6           0        0.699902    0.518846    0.904511
      5          6           0        1.956474    0.845635    1.092148
      6          1           0       -1.358574   -0.626975   -0.245888
      7          1           0       -1.483999   -1.922678    1.045832
      8          1           0       -1.752462   -0.181523    1.458872
      9          1           0       -0.041033    1.235047    0.554512
     10          1           0        2.692177    0.156555    1.448215
     11          1           0        1.714887    2.674778    0.505597
 ---------------------------------------------------------------------
                    Distance matrix (angstroms):
                    1          2          3          4          5
     1  O    0.000000
     2  O    3.652583   0.000000
     3  C    1.429464   4.692821   0.000000
     4  C    1.389094   2.377792   2.321192   0.000000
     5  C    2.363464   1.377063   3.566909   1.311858   0.000000
     6  H    2.115086   4.830892   1.128020   2.621765   3.866325
     7  H    2.068801   5.647198   1.127250   3.278786   4.416170
     8  H    2.087552   4.843121   1.090179   2.609966   3.865973
     9  H    2.102882   2.678386   2.395784   1.088314   2.104930
    10  H    2.648520   2.041956   4.035663   2.096670   1.069052
    11  H    3.801853   1.016866   4.572834   2.416065   1.936019
                    6          7          8          9         10
     6  H    0.000000
     7  H    1.833880   0.000000
     8  H    1.805487   1.809501   0.000000
     9  H    2.417371   3.506390   2.398651   0.000000
    10  H    4.460100   4.682475   4.457491   3.071203   0.000000
    11  H    4.573015   5.626840   4.592352   2.271227   2.860956
                   11
    11  H    0.000000
 Stoichiometry    C3H6O2
 Framework group  C1[X(C3H6O2)]
 Deg. of freedom    27
 Full point group                 C1      NOp   1
 Largest Abelian subgroup         C1      NOp   1
 Largest concise Abelian subgroup C1      NOp   1
                         Standard orientation:                         
 ---------------------------------------------------------------------
 Center     Atomic      Atomic             Coordinates (Angstroms)
 Number     Number       Type             X           Y           Z
 ---------------------------------------------------------------------
      1          8           0        1.138745   -0.571561   -0.001755
      2          8           0       -2.422784    0.238874    0.006487
      3          6           0        2.269600    0.302801    0.003237
      4          6           0       -0.046653    0.152493   -0.014375
      5          6           0       -1.220639   -0.432769   -0.000278
      6          1           0        2.265747    0.964646    0.916679
      7          1           0        3.194510   -0.341219    0.024922
      8          1           0        2.286520    0.929913   -0.888354
      9          1           0        0.063039    1.234917   -0.041816
     10          1           0       -1.343668   -1.494635    0.013048
     11          1           0       -2.207681    1.232728    0.006160
 ---------------------------------------------------------------------
 Rotational constants (GHZ):          27.2604339           2.2636871           2.1190114
 Leave Link  202 at Sat Sep 28 22:05:22 2019, MaxMem=   671088640 cpu:               3.6 elap:               1.8
 (Enter /shared/centos7/gaussian/g16/l301.exe)
 Standard basis: CC-pVTZ (5D, 7F)
 Ernie: Thresh=  0.10000D-02 Tol=  0.10000D-05 Strict=F.
 Ernie:  15 primitive shells out of 178 were deleted.
 There are   265 symmetry adapted cartesian basis functions of A   symmetry.
 There are   234 symmetry adapted basis functions of A   symmetry.
   234 basis functions,   362 primitive gaussians,   265 cartesian basis functions
    20 alpha electrons       20 beta electrons
       nuclear repulsion energy       171.5042596319 Hartrees.
 IExCor= 4336 DFT=T Ex+Corr=M062X ExCW=0 ScaHFX=  0.540000
 ScaDFX=  1.000000  1.000000  1.000000  1.000000 ScalE2=  1.000000  1.000000
 IRadAn=      5 IRanWt=     -1 IRanGd=            0 ICorTp=0 IEmpDi=  4
 NAtoms=   11 NActive=   11 NUniq=   11 SFac= 1.00D+00 NAtFMM=   60 NAOKFM=F Big=F
 Integral buffers will be    131072 words long.
 Raffenetti 2 integral format.
 Two-electron integral symmetry is turned on.
 Leave Link  301 at Sat Sep 28 22:05:23 2019, MaxMem=   671088640 cpu:               1.4 elap:               0.7
 (Enter /shared/centos7/gaussian/g16/l302.exe)
 NPDir=0 NMtPBC=     1 NCelOv=     1 NCel=       1 NClECP=     1 NCelD=      1
         NCelK=      1 NCelE2=     1 NClLst=     1 CellRange=     0.0.
 One-electron integrals computed using PRISM.
 One-electron integral symmetry used in STVInt
 NBasis=   234 RedAO= T EigKep=  2.50D-04  NBF=   234
 NBsUse=   234 1.00D-06 EigRej= -1.00D+00 NBFU=   234
 Precomputing XC quadrature grid using
 IXCGrd= 4 IRadAn=           5 IRanWt=          -1 IRanGd=           0 AccXCQ= 0.00D+00.
 Generated NRdTot=       0 NPtTot=           0 NUsed=           0 NTot=          32
 NSgBfM=   265   265   265   265   265 MxSgAt=    11 MxSgA2=    11.
 Leave Link  302 at Sat Sep 28 22:06:24 2019, MaxMem=   671088640 cpu:             123.3 elap:              61.7
 (Enter /shared/centos7/gaussian/g16/l303.exe)
 DipDrv:  MaxL=1.
 Leave Link  303 at Sat Sep 28 22:06:29 2019, MaxMem=   671088640 cpu:               9.3 elap:               4.7
 (Enter /shared/centos7/gaussian/g16/l401.exe)
 ExpMin= 1.03D-01 ExpMax= 1.53D+04 ExpMxC= 5.22D+02 IAcc=3 IRadAn=         5 AccDes= 0.00D+00
 Harris functional with IExCor= 1009 and IRadAn=       5 diagonalized for initial guess.
 HarFok:  IExCor= 1009 AccDes= 0.00D+00 IRadAn=         5 IDoV= 1 UseB2=F ITyADJ=14
 ICtDFT=  3500011 ScaDFX=  1.000000  1.000000  1.000000  1.000000
 FoFCou: FMM=F IPFlag=           0 FMFlag=      100000 FMFlg1=           0
         NFxFlg=           0 DoJE=T BraDBF=F KetDBF=T FulRan=T
         wScrn=  0.000000 ICntrl=       500 IOpCl=  0 I1Cent=   200000004 NGrid=           0
         NMat0=    1 NMatS0=      1 NMatT0=    0 NMatD0=    1 NMtDS0=    0 NMtDT0=    0
 Petite list used in FoFCou.
 Harris En= -268.198431079627    
 JPrj=0 DoOrth=F DoCkMO=F.
 Leave Link  401 at Sat Sep 28 22:06:53 2019, MaxMem=   671088640 cpu:              46.9 elap:              23.5
 (Enter /shared/centos7/gaussian/g16/l502.exe)
 Keep R1 ints in memory in canonical form, NReq=399924305.
 FoFCou: FMM=F IPFlag=           0 FMFlag=           0 FMFlg1=           0
         NFxFlg=           0 DoJE=F BraDBF=F KetDBF=F FulRan=T
         wScrn=  0.000000 ICntrl=       600 IOpCl=  0 I1Cent=           0 NGrid=           0
         NMat0=    1 NMatS0=  27495 NMatT0=    0 NMatD0=    1 NMtDS0=    0 NMtDT0=    0
 Symmetry not used in FoFCou.
 Two-electron integral symmetry not used.
 Closed shell SCF:
 Using DIIS extrapolation, IDIIS=  1040.
 NGot=   671088640 LenX=   292939207 LenY=   292868541
 Requested convergence on RMS density matrix=1.00D-08 within 900 cycles.
 Requested convergence on MAX density matrix=1.00D-06.
 Requested convergence on             energy=1.00D-06.
 No special actions if energy rises.
 Integral accuracy reduced to 1.0D-05 until final iterations.

 Cycle   1  Pass 0  IDiag  1:
 E= -268.183806406864    
 DIIS: error= 2.25D-02 at cycle   1 NSaved=   1.
 NSaved= 1 IEnMin= 1 EnMin= -268.183806406864     IErMin= 1 ErrMin= 2.25D-02
 ErrMax= 2.25D-02  0.00D+00 EMaxC= 1.00D-01 BMatC= 1.73D-01 BMatP= 1.73D-01
 IDIUse=3 WtCom= 7.75D-01 WtEn= 2.25D-01
 Coeff-Com:  0.100D+01
 Coeff-En:   0.100D+01
 Coeff:      0.100D+01
 Gap=     0.342 Goal=   None    Shift=    0.000
 GapD=    0.342 DampG=1.000 DampE=0.500 DampFc=0.5000 IDamp=-1.
 Damping current iteration by 5.00D-01
 RMSDP=1.96D-03 MaxDP=6.22D-02              OVMax= 1.21D-01

 Cycle   2  Pass 0  IDiag  1:
 E= -268.249799660663     Delta-E=       -0.065993253798 Rises=F Damp=T
 DIIS: error= 4.79D-03 at cycle   2 NSaved=   2.
 NSaved= 2 IEnMin= 2 EnMin= -268.249799660663     IErMin= 2 ErrMin= 4.79D-03
 ErrMax= 4.79D-03  0.00D+00 EMaxC= 1.00D-01 BMatC= 1.63D-02 BMatP= 1.73D-01
 IDIUse=3 WtCom= 9.52D-01 WtEn= 4.79D-02
 Coeff-Com: -0.173D+00 0.117D+01
 Coeff-En:   0.000D+00 0.100D+01
 Coeff:     -0.164D+00 0.116D+01
 Gap=     0.326 Goal=   None    Shift=    0.000
 RMSDP=4.04D-04 MaxDP=8.89D-03 DE=-6.60D-02 OVMax= 5.78D-02

 Cycle   3  Pass 0  IDiag  1:
 E= -268.307373660473     Delta-E=       -0.057573999810 Rises=F Damp=F
 DIIS: error= 3.48D-03 at cycle   3 NSaved=   3.
 NSaved= 3 IEnMin= 3 EnMin= -268.307373660473     IErMin= 3 ErrMin= 3.48D-03
 ErrMax= 3.48D-03  0.00D+00 EMaxC= 1.00D-01 BMatC= 3.78D-03 BMatP= 1.63D-02
 IDIUse=3 WtCom= 9.65D-01 WtEn= 3.48D-02
 Coeff-Com: -0.116D+00 0.391D+00 0.725D+00
 Coeff-En:   0.000D+00 0.000D+00 0.100D+01
 Coeff:     -0.112D+00 0.377D+00 0.734D+00
 Gap=     0.328 Goal=   None    Shift=    0.000
 RMSDP=1.63D-04 MaxDP=5.86D-03 DE=-5.76D-02 OVMax= 1.86D-02

 Cycle   4  Pass 0  IDiag  1:
 E= -268.309146878076     Delta-E=       -0.001773217604 Rises=F Damp=F
 DIIS: error= 1.48D-03 at cycle   4 NSaved=   4.
 NSaved= 4 IEnMin= 4 EnMin= -268.309146878076     IErMin= 4 ErrMin= 1.48D-03
 ErrMax= 1.48D-03  0.00D+00 EMaxC= 1.00D-01 BMatC= 9.44D-04 BMatP= 3.78D-03
 IDIUse=3 WtCom= 9.85D-01 WtEn= 1.48D-02
 Coeff-Com: -0.370D-01 0.904D-01 0.378D+00 0.569D+00
 Coeff-En:   0.000D+00 0.000D+00 0.208D+00 0.792D+00
 Coeff:     -0.364D-01 0.891D-01 0.375D+00 0.572D+00
 Gap=     0.322 Goal=   None    Shift=    0.000
 RMSDP=7.03D-05 MaxDP=2.84D-03 DE=-1.77D-03 OVMax= 8.13D-03

 Cycle   5  Pass 0  IDiag  1:
 E= -268.309874648717     Delta-E=       -0.000727770641 Rises=F Damp=F
 DIIS: error= 2.25D-04 at cycle   5 NSaved=   5.
 NSaved= 5 IEnMin= 5 EnMin= -268.309874648717     IErMin= 5 ErrMin= 2.25D-04
 ErrMax= 2.25D-04  0.00D+00 EMaxC= 1.00D-01 BMatC= 1.23D-05 BMatP= 9.44D-04
 IDIUse=3 WtCom= 9.98D-01 WtEn= 2.25D-03
 Coeff-Com: -0.559D-02 0.108D-01 0.806D-01 0.177D+00 0.737D+00
 Coeff-En:   0.000D+00 0.000D+00 0.000D+00 0.000D+00 0.100D+01
 Coeff:     -0.558D-02 0.108D-01 0.804D-01 0.176D+00 0.738D+00
 Gap=     0.323 Goal=   None    Shift=    0.000
 RMSDP=1.30D-05 MaxDP=4.60D-04 DE=-7.28D-04 OVMax= 1.82D-03

 Cycle   6  Pass 0  IDiag  1:
 E= -268.309883934056     Delta-E=       -0.000009285339 Rises=F Damp=F
 DIIS: error= 7.61D-05 at cycle   6 NSaved=   6.
 NSaved= 6 IEnMin= 6 EnMin= -268.309883934056     IErMin= 6 ErrMin= 7.61D-05
 ErrMax= 7.61D-05  0.00D+00 EMaxC= 1.00D-01 BMatC= 2.78D-06 BMatP= 1.23D-05
 IDIUse=1 WtCom= 1.00D+00 WtEn= 0.00D+00
 Coeff-Com: -0.625D-03-0.170D-04 0.198D-01 0.618D-01 0.391D+00 0.528D+00
 Coeff:     -0.625D-03-0.170D-04 0.198D-01 0.618D-01 0.391D+00 0.528D+00
 Gap=     0.323 Goal=   None    Shift=    0.000
 RMSDP=4.13D-06 MaxDP=1.51D-04 DE=-9.29D-06 OVMax= 5.56D-04

 Initial convergence to 1.0D-05 achieved.  Increase integral accuracy.
 Cycle   7  Pass 1  IDiag  1:
 E= -268.309886628678     Delta-E=       -0.000002694622 Rises=F Damp=F
 DIIS: error= 2.51D-05 at cycle   1 NSaved=   1.
 NSaved= 1 IEnMin= 1 EnMin= -268.309886628678     IErMin= 1 ErrMin= 2.51D-05
 ErrMax= 2.51D-05  0.00D+00 EMaxC= 1.00D-01 BMatC= 2.66D-07 BMatP= 2.66D-07
 IDIUse=1 WtCom= 1.00D+00 WtEn= 0.00D+00
 Coeff-Com:  0.100D+01
 Coeff:      0.100D+01
 Gap=     0.323 Goal=   None    Shift=    0.000
 RMSDP=4.13D-06 MaxDP=1.51D-04 DE=-2.69D-06 OVMax= 2.26D-04

 Cycle   8  Pass 1  IDiag  1:
 E= -268.309886758416     Delta-E=       -0.000000129738 Rises=F Damp=F
 DIIS: error= 1.78D-05 at cycle   2 NSaved=   2.
 NSaved= 2 IEnMin= 2 EnMin= -268.309886758416     IErMin= 2 ErrMin= 1.78D-05
 ErrMax= 1.78D-05  0.00D+00 EMaxC= 1.00D-01 BMatC= 1.25D-07 BMatP= 2.66D-07
 IDIUse=1 WtCom= 1.00D+00 WtEn= 0.00D+00
 Coeff-Com:  0.365D+00 0.635D+00
 Coeff:      0.365D+00 0.635D+00
 Gap=     0.323 Goal=   None    Shift=    0.000
 RMSDP=1.24D-06 MaxDP=3.43D-05 DE=-1.30D-07 OVMax= 1.52D-04

 Cycle   9  Pass 1  IDiag  1:
 E= -268.309886824584     Delta-E=       -0.000000066168 Rises=F Damp=F
 DIIS: error= 1.13D-05 at cycle   3 NSaved=   3.
 NSaved= 3 IEnMin= 3 EnMin= -268.309886824584     IErMin= 3 ErrMin= 1.13D-05
 ErrMax= 1.13D-05  0.00D+00 EMaxC= 1.00D-01 BMatC= 3.44D-08 BMatP= 1.25D-07
 IDIUse=1 WtCom= 1.00D+00 WtEn= 0.00D+00
 Coeff-Com: -0.334D-01 0.339D+00 0.695D+00
 Coeff:     -0.334D-01 0.339D+00 0.695D+00
 Gap=     0.323 Goal=   None    Shift=    0.000
 RMSDP=4.99D-07 MaxDP=1.66D-05 DE=-6.62D-08 OVMax= 7.03D-05

 Cycle  10  Pass 1  IDiag  1:
 E= -268.309886851486     Delta-E=       -0.000000026902 Rises=F Damp=F
 DIIS: error= 1.40D-06 at cycle   4 NSaved=   4.
 NSaved= 4 IEnMin= 4 EnMin= -268.309886851486     IErMin= 4 ErrMin= 1.40D-06
 ErrMax= 1.40D-06  0.00D+00 EMaxC= 1.00D-01 BMatC= 3.23D-10 BMatP= 3.44D-08
 IDIUse=1 WtCom= 1.00D+00 WtEn= 0.00D+00
 Coeff-Com: -0.138D-01 0.524D-01 0.153D+00 0.808D+00
 Coeff:     -0.138D-01 0.524D-01 0.153D+00 0.808D+00
 Gap=     0.323 Goal=   None    Shift=    0.000
 RMSDP=6.70D-08 MaxDP=2.16D-06 DE=-2.69D-08 OVMax= 9.97D-06

 Cycle  11  Pass 1  IDiag  1:
 E= -268.309886851794     Delta-E=       -0.000000000308 Rises=F Damp=F
 DIIS: error= 5.25D-07 at cycle   5 NSaved=   5.
 NSaved= 5 IEnMin= 5 EnMin= -268.309886851794     IErMin= 5 ErrMin= 5.25D-07
 ErrMax= 5.25D-07  0.00D+00 EMaxC= 1.00D-01 BMatC= 1.07D-10 BMatP= 3.23D-10
 IDIUse=1 WtCom= 1.00D+00 WtEn= 0.00D+00
 Coeff-Com: -0.219D-02-0.238D-01-0.219D-01 0.362D+00 0.686D+00
 Coeff:     -0.219D-02-0.238D-01-0.219D-01 0.362D+00 0.686D+00
 Gap=     0.323 Goal=   None    Shift=    0.000
 RMSDP=3.16D-08 MaxDP=8.66D-07 DE=-3.08D-10 OVMax= 3.13D-06

 Cycle  12  Pass 1  IDiag  1:
 E= -268.309886851877     Delta-E=       -0.000000000082 Rises=F Damp=F
 DIIS: error= 2.02D-07 at cycle   6 NSaved=   6.
 NSaved= 6 IEnMin= 6 EnMin= -268.309886851877     IErMin= 6 ErrMin= 2.02D-07
 ErrMax= 2.02D-07  0.00D+00 EMaxC= 1.00D-01 BMatC= 1.19D-11 BMatP= 1.07D-10
 IDIUse=1 WtCom= 1.00D+00 WtEn= 0.00D+00
 Coeff-Com:  0.166D-02-0.197D-01-0.348D-01 0.174D-01 0.293D+00 0.743D+00
 Coeff:      0.166D-02-0.197D-01-0.348D-01 0.174D-01 0.293D+00 0.743D+00
 Gap=     0.323 Goal=   None    Shift=    0.000
 RMSDP=1.10D-08 MaxDP=3.60D-07 DE=-8.24D-11 OVMax= 1.55D-06

 Cycle  13  Pass 1  IDiag  1:
 E= -268.309886851884     Delta-E=       -0.000000000007 Rises=F Damp=F
 DIIS: error= 1.95D-08 at cycle   7 NSaved=   7.
 NSaved= 7 IEnMin= 7 EnMin= -268.309886851884     IErMin= 7 ErrMin= 1.95D-08
 ErrMax= 1.95D-08  0.00D+00 EMaxC= 1.00D-01 BMatC= 1.70D-13 BMatP= 1.19D-11
 IDIUse=1 WtCom= 1.00D+00 WtEn= 0.00D+00
 Coeff-Com:  0.414D-03-0.374D-02-0.676D-02-0.552D-02 0.500D-01 0.165D+00
 Coeff-Com:  0.801D+00
 Coeff:      0.414D-03-0.374D-02-0.676D-02-0.552D-02 0.500D-01 0.165D+00
 Coeff:      0.801D+00
 Gap=     0.323 Goal=   None    Shift=    0.000
 RMSDP=1.74D-09 MaxDP=5.59D-08 DE=-7.16D-12 OVMax= 1.49D-07

 SCF Done:  E(RM062X) =  -268.309886852     A.U. after   13 cycles
            NFock= 13  Conv=0.17D-08     -V/T= 2.0061
 KE= 2.666708566505D+02 PE=-9.712993313303D+02 EE= 2.648143281960D+02
 Leave Link  502 at Sat Sep 28 22:11:49 2019, MaxMem=   671088640 cpu:             584.9 elap:             296.0
 (Enter /shared/centos7/gaussian/g16/l801.exe)
 DoSCS=F DFT=T ScalE2(SS,OS)=  1.000000  1.000000
 Range of M.O.s used for correlation:     1   234
 NBasis=   234 NAE=    20 NBE=    20 NFC=     0 NFV=     0
 NROrb=    234 NOA=    20 NOB=    20 NVA=   214 NVB=   214

 **** Warning!!: The largest alpha MO coefficient is  0.13406696D+02

 Leave Link  801 at Sat Sep 28 22:11:49 2019, MaxMem=   671088640 cpu:               1.3 elap:               0.7
 (Enter /shared/centos7/gaussian/g16/l1101.exe)
 Using compressed storage, NAtomX=    11.
 Will process     12 centers per pass.
 Leave Link 1101 at Sat Sep 28 22:12:11 2019, MaxMem=   671088640 cpu:              42.9 elap:              21.5
 (Enter /shared/centos7/gaussian/g16/l1102.exe)
 Symmetrizing basis deriv contribution to polar:
 IMax=3 JMax=2 DiffMx= 0.00D+00
 Leave Link 1102 at Sat Sep 28 22:12:13 2019, MaxMem=   671088640 cpu:               4.6 elap:               2.3
 (Enter /shared/centos7/gaussian/g16/l1110.exe)
 Forming Gx(P) for the SCF density, NAtomX=    11.
 Integral derivatives from FoFJK, PRISM(SPDF).
 Do as many integral derivatives as possible in FoFJK.
 G2DrvN: MDV=     671087712.
 G2DrvN: will do    12 centers at a time, making    1 passes.
 Calling FoFCou, ICntrl=  3107 FMM=F I1Cent=   0 AccDes= 0.00D+00.
 FoFJK:  IHMeth= 1 ICntrl=    3107 DoSepK=F KAlg= 0 I1Cent=           0 FoldK=F
 IRaf=         0 NMat=       1 IRICut=       1 DoRegI=T DoRafI=F ISym2E= 0 IDoP0=0 IntGTp=1.
 FoFCou: FMM=F IPFlag=           0 FMFlag=      100000 FMFlg1=           0
         NFxFlg=           0 DoJE=F BraDBF=F KetDBF=F FulRan=T
         wScrn=  0.000000 ICntrl=      3107 IOpCl=  0 I1Cent=           0 NGrid=           0
         NMat0=    1 NMatS0=      1 NMatT0=    0 NMatD0=    1 NMtDS0=    0 NMtDT0=    0
 Symmetry not used in FoFCou.
 End of G2Drv F.D. properties file   721 does not exist.
 End of G2Drv F.D. properties file   722 does not exist.
 End of G2Drv F.D. properties file   788 does not exist.
 Leave Link 1110 at Sat Sep 28 22:17:05 2019, MaxMem=   671088640 cpu:             584.4 elap:             292.2
 (Enter /shared/centos7/gaussian/g16/l1002.exe)
 Minotr:  Closed shell wavefunction.
          IDoAtm=11111111111
          Direct CPHF calculation.
          Differentiating once with respect to nuclear coordinates.
          Requested convergence is 1.0D-08 RMS, and 1.0D-07 maximum.
          Secondary convergence is 1.0D-12 RMS, and 1.0D-12 maximum.
          NewPWx=T KeepS1=F KeepF1=F KeepIn=T MapXYZ=F SortEE=F KeepMc=T.
         3300 words used for storage of precomputed grid.
 Keep R1 ints in memory in canonical form, NReq=399865299.
 FoFCou: FMM=F IPFlag=           0 FMFlag=           0 FMFlg1=           0
         NFxFlg=           0 DoJE=F BraDBF=F KetDBF=F FulRan=T
         wScrn=  0.000000 ICntrl=       600 IOpCl=  0 I1Cent=           0 NGrid=           0
         NMat0=    1 NMatS0=  27495 NMatT0=    0 NMatD0=    1 NMtDS0=    0 NMtDT0=    0
 Symmetry not used in FoFCou.
 Two-electron integral symmetry not used.
          MDV=     671088640 using IRadAn=       1.
          Solving linear equations simultaneously, MaxMat=       0.
          There are    36 degrees of freedom in the 1st order CPHF.  IDoFFX=6 NUNeed=     0.
     30 vectors produced by pass  0 Test12= 1.19D-14 2.78D-09 XBig12= 6.61D-02 9.90D-02.
 AX will form    30 AO Fock derivatives at one time.
     30 vectors produced by pass  1 Test12= 1.19D-14 2.78D-09 XBig12= 1.10D-02 3.47D-02.
     30 vectors produced by pass  2 Test12= 1.19D-14 2.78D-09 XBig12= 4.31D-04 4.39D-03.
     30 vectors produced by pass  3 Test12= 1.19D-14 2.78D-09 XBig12= 4.72D-06 3.96D-04.
     30 vectors produced by pass  4 Test12= 1.19D-14 2.78D-09 XBig12= 3.98D-08 2.70D-05.
     30 vectors produced by pass  5 Test12= 1.19D-14 2.78D-09 XBig12= 2.13D-10 1.98D-06.
     19 vectors produced by pass  6 Test12= 1.19D-14 2.78D-09 XBig12= 9.48D-13 1.56D-07.
      4 vectors produced by pass  7 Test12= 1.19D-14 2.78D-09 XBig12= 3.62D-15 8.98D-09.
 InvSVY:  IOpt=1 It=  1 EMax= 1.55D-15
 Solved reduced A of dimension   203 with    30 vectors.
 End of Minotr F.D. properties file   721 does not exist.
 End of Minotr F.D. properties file   722 does not exist.
 End of Minotr F.D. properties file   788 does not exist.
 Leave Link 1002 at Sat Sep 28 22:24:01 2019, MaxMem=   671088640 cpu:             831.9 elap:             416.0
 (Enter /shared/centos7/gaussian/g16/l601.exe)
 Copying SCF densities to generalized density rwf, IOpCl= 0 IROHF=0.

 **********************************************************************

            Population analysis using the SCF density.

 **********************************************************************

 Orbital symmetries:
       Occupied  (A) (A) (A) (A) (A) (A) (A) (A) (A) (A) (A) (A)
                 (A) (A) (A) (A) (A) (A) (A) (A)
       Virtual   (A) (A) (A) (A) (A) (A) (A) (A) (A) (A) (A) (A)
                 (A) (A) (A) (A) (A) (A) (A) (A) (A) (A) (A) (A)
                 (A) (A) (A) (A) (A) (A) (A) (A) (A) (A) (A) (A)
                 (A) (A) (A) (A) (A) (A) (A) (A) (A) (A) (A) (A)
                 (A) (A) (A) (A) (A) (A) (A) (A) (A) (A) (A) (A)
                 (A) (A) (A) (A) (A) (A) (A) (A) (A) (A) (A) (A)
                 (A) (A) (A) (A) (A) (A) (A) (A) (A) (A) (A) (A)
                 (A) (A) (A) (A) (A) (A) (A) (A) (A) (A) (A) (A)
                 (A) (A) (A) (A) (A) (A) (A) (A) (A) (A) (A) (A)
                 (A) (A) (A) (A) (A) (A) (A) (A) (A) (A) (A) (A)
                 (A) (A) (A) (A) (A) (A) (A) (A) (A) (A) (A) (A)
                 (A) (A) (A) (A) (A) (A) (A) (A) (A) (A) (A) (A)
                 (A) (A) (A) (A) (A) (A) (A) (A) (A) (A) (A) (A)
                 (A) (A) (A) (A) (A) (A) (A) (A) (A) (A) (A) (A)
                 (A) (A) (A) (A) (A) (A) (A) (A) (A) (A) (A) (A)
                 (A) (A) (A) (A) (A) (A) (A) (A) (A) (A) (A) (A)
                 (A) (A) (A) (A) (A) (A) (A) (A) (A) (A) (A) (A)
                 (A) (A) (A) (A) (A) (A) (A) (A) (A) (A)
 The electronic state is 1-A.
 Alpha  occ. eigenvalues --  -19.65149 -19.64732 -10.59702 -10.58325 -10.58086
 Alpha  occ. eigenvalues --   -1.17560  -1.16255  -0.85878  -0.76887  -0.69236
 Alpha  occ. eigenvalues --   -0.60078  -0.58390  -0.53946  -0.50792  -0.48476
 Alpha  occ. eigenvalues --   -0.47036  -0.43930  -0.41385  -0.40124  -0.26615
 Alpha virt. eigenvalues --    0.05703   0.07303   0.07455   0.11091   0.12539
 Alpha virt. eigenvalues --    0.13413   0.15439   0.15964   0.23731   0.27402
 Alpha virt. eigenvalues --    0.29542   0.30770   0.32767   0.33696   0.38333
 Alpha virt. eigenvalues --    0.38845   0.41744   0.42904   0.43254   0.44177
 Alpha virt. eigenvalues --    0.45932   0.47470   0.48503   0.49916   0.53304
 Alpha virt. eigenvalues --    0.54387   0.56105   0.58294   0.61276   0.62033
 Alpha virt. eigenvalues --    0.64055   0.67866   0.72171   0.72613   0.74770
 Alpha virt. eigenvalues --    0.75574   0.78204   0.80421   0.82363   0.86438
 Alpha virt. eigenvalues --    0.89302   0.90830   0.93465   0.98497   1.02485
 Alpha virt. eigenvalues --    1.03413   1.04606   1.05072   1.09368   1.10134
 Alpha virt. eigenvalues --    1.12882   1.14955   1.17201   1.17877   1.22708
 Alpha virt. eigenvalues --    1.29280   1.29583   1.29963   1.31559   1.32874
 Alpha virt. eigenvalues --    1.35998   1.38125   1.41660   1.46620   1.48229
 Alpha virt. eigenvalues --    1.51438   1.53402   1.59464   1.70101   1.80676
 Alpha virt. eigenvalues --    1.85962   1.87976   1.93584   1.96823   1.97752
 Alpha virt. eigenvalues --    2.01015   2.10237   2.12760   2.13103   2.17640
 Alpha virt. eigenvalues --    2.19458   2.28173   2.31687   2.32801   2.34953
 Alpha virt. eigenvalues --    2.41081   2.47149   2.51440   2.52327   2.55327
 Alpha virt. eigenvalues --    2.59052   2.61665   2.68972   2.72524   2.77539
 Alpha virt. eigenvalues --    2.77868   2.80178   2.82216   2.84022   2.84851
 Alpha virt. eigenvalues --    2.86373   2.91430   2.92023   2.96860   2.97364
 Alpha virt. eigenvalues --    2.99860   3.00984   3.02425   3.07025   3.10129
 Alpha virt. eigenvalues --    3.12691   3.14140   3.17853   3.19918   3.20017
 Alpha virt. eigenvalues --    3.21923   3.22032   3.27362   3.27954   3.29200
 Alpha virt. eigenvalues --    3.31411   3.34577   3.35263   3.36943   3.38851
 Alpha virt. eigenvalues --    3.41670   3.43832   3.45699   3.46465   3.54619
 Alpha virt. eigenvalues --    3.59162   3.59700   3.61115   3.65695   3.69447
 Alpha virt. eigenvalues --    3.71677   3.74164   3.76543   3.79524   3.80062
 Alpha virt. eigenvalues --    3.81652   3.83965   3.87162   3.87968   3.93174
 Alpha virt. eigenvalues --    3.96136   3.99098   4.01008   4.01286   4.03920
 Alpha virt. eigenvalues --    4.05851   4.12455   4.16113   4.19418   4.24849
 Alpha virt. eigenvalues --    4.25857   4.28893   4.34447   4.45005   4.46040
 Alpha virt. eigenvalues --    4.53431   4.57291   4.58348   4.61285   4.72570
 Alpha virt. eigenvalues --    4.74209   4.81200   4.83207   4.84444   4.88218
 Alpha virt. eigenvalues --    4.91113   4.93004   4.96357   5.00016   5.02001
 Alpha virt. eigenvalues --    5.07669   5.14497   5.19115   5.26093   5.27291
 Alpha virt. eigenvalues --    5.39944   5.40113   5.44666   5.48134   5.69086
 Alpha virt. eigenvalues --    5.69887   5.71871   5.74949   5.78661   5.89564
 Alpha virt. eigenvalues --    5.91441   5.95199   6.13304   6.26933   6.33794
 Alpha virt. eigenvalues --    6.40336   6.47869   6.58102   6.69964   6.70037
 Alpha virt. eigenvalues --    6.76079   6.76724   6.78523   6.87033   7.04156
 Alpha virt. eigenvalues --    7.11619   7.25851   7.27610   7.34874  10.54170
 Alpha virt. eigenvalues --   10.85926  11.61065  12.87926  14.12438
          Condensed to atoms (all electrons):
               1          2          3          4          5          6
     1  O    7.853931   0.002326   0.309841   0.321446  -0.061292  -0.047332
     2  O    0.002326   7.792490  -0.000120  -0.079108   0.359636  -0.000052
     3  C    0.309841  -0.000120   4.717546  -0.068435   0.001767   0.392338
     4  C    0.321446  -0.079108  -0.068435   4.935227   0.634567  -0.006894
     5  C   -0.061292   0.359636   0.001767   0.634567   4.766001   0.001170
     6  H   -0.047332  -0.000052   0.392338  -0.006894   0.001170   0.688769
     7  H   -0.028454   0.000004   0.394088   0.007956   0.000135  -0.029137
     8  H   -0.046938  -0.000042   0.393060  -0.007853   0.000975  -0.082464
     9  H   -0.051482  -0.003120  -0.001893   0.386875  -0.058777   0.002956
    10  H    0.005578  -0.030128   0.000062  -0.064828   0.401057   0.000102
    11  H   -0.000018   0.324404   0.000060  -0.007218  -0.053704  -0.000002
               7          8          9         10         11
     1  O   -0.028454  -0.046938  -0.051482   0.005578  -0.000018
     2  O    0.000004  -0.000042  -0.003120  -0.030128   0.324404
     3  C    0.394088   0.393060  -0.001893   0.000062   0.000060
     4  C    0.007956  -0.007853   0.386875  -0.064828  -0.007218
     5  C    0.000135   0.000975  -0.058777   0.401057  -0.053704
     6  H   -0.029137  -0.082464   0.002956   0.000102  -0.000002
     7  H    0.575749  -0.032328  -0.000537  -0.000045   0.000000
     8  H   -0.032328   0.678694   0.003376   0.000083  -0.000007
     9  H   -0.000537   0.003376   0.611381   0.006910   0.007209
    10  H   -0.000045   0.000083   0.006910   0.514219   0.007386
    11  H    0.000000  -0.000007   0.007209   0.007386   0.459678
 Mulliken charges:
               1
     1  O   -0.257604
     2  O   -0.366291
     3  C   -0.138314
     4  C   -0.051733
     5  C    0.008464
     6  H    0.080545
     7  H    0.112569
     8  H    0.093444
     9  H    0.097103
    10  H    0.159607
    11  H    0.262212
 Sum of Mulliken charges =  -0.00000
 Mulliken charges with hydrogens summed into heavy atoms:
               1
     1  O   -0.257604
     2  O   -0.104079
     3  C    0.148243
     4  C    0.045370
     5  C    0.168071
 APT charges:
               1
     1  O   -0.170611
     2  O   -0.367690
     3  C   -0.964684
     4  C   -0.338161
     5  C   -0.310562
     6  H    0.278572
     7  H    0.519259
     8  H    0.293142
     9  H    0.244340
    10  H    0.381973
    11  H    0.434421
 Sum of APT charges =  -0.00000
 APT charges with hydrogens summed into heavy atoms:
               1
     1  O   -0.170611
     2  O    0.066731
     3  C    0.126290
     4  C   -0.093821
     5  C    0.071411
 Electronic spatial extent (au):  <R**2>=            560.3997
 Charge=             -0.0000 electrons
 Dipole moment (field-independent basis, Debye):
    X=              1.4189    Y=              2.1781    Z=             -0.0278  Tot=              2.5997
 Quadrupole moment (field-independent basis, Debye-Ang):
   XX=            -30.9478   YY=            -26.8902   ZZ=            -32.3580
   XY=             -0.2164   XZ=             -0.0430   YZ=             -0.0672
 Traceless Quadrupole moment (field-independent basis, Debye-Ang):
   XX=             -0.8825   YY=              3.1751   ZZ=             -2.2927
   XY=             -0.2164   XZ=             -0.0430   YZ=             -0.0672
 Octapole moment (field-independent basis, Debye-Ang**2):
  XXX=             22.1686  YYY=              2.2969  ZZZ=             -0.0383  XYY=            -10.4308
  XXY=              5.2173  XXZ=             -0.0739  XZZ=              0.0207  YZZ=              0.4985
  YYZ=             -0.0102  XYZ=             -0.0654
 Hexadecapole moment (field-independent basis, Debye-Ang**3):
 XXXX=           -597.9472 YYYY=            -71.6473 ZZZZ=            -39.8129 XXXY=            -20.8881
 XXXZ=             -0.2881 YYYX=            -10.5988 YYYZ=             -0.1893 ZZZX=             -0.3475
 ZZZY=             -0.0780 XXYY=            -94.0362 XXZZ=           -107.0531 YYZZ=            -20.0759
 XXYZ=             -0.2136 YYXZ=             -0.1615 ZZXY=             -0.5480
 N-N= 1.715042596319D+02 E-N=-9.712993273741D+02  KE= 2.666708566505D+02
  Exact polarizability:   0.000   0.000   0.000   0.000   0.000   0.000
 Approx polarizability:  66.776   5.034  51.883  -0.039   0.183  38.510
 No NMR shielding tensors so no spin-rotation constants.
 Leave Link  601 at Sat Sep 28 22:24:26 2019, MaxMem=   671088640 cpu:              49.7 elap:              25.0
 (Enter /shared/centos7/gaussian/g16/l701.exe)
 SCFChk:  SCF convergence  1.74D-09 required  1.00D-08
 ... and contract with generalized density number  0.
 Compute integral second derivatives.
 Entering OneElI...
 Calculate overlap and kinetic energy integrals
    NBasis = 265  MinDer = 2  MaxDer = 2
 Requested accuracy = 0.1000D-12
 PrmmSu-InSpLW:  IPartL=    0 NPrtUS=   20 NPrtUL=    1 DoSpLW=F IThBeg=    0 IThEnd=   19 NThAct=   20.
 PrsmSu:  NPrtUS=  20 ThrOK=T IAlg=1 NPAlg=1 LenDen=           0 ISkipM=0 DoSpLW=F IThBeg=    0 IThEnd=   19.
 Prism:   IPart=     0 DynPar=F LinDyn=F Incr=           1.
 PRISM was handed    33440999 working-precision words and  3714 shell-pairs
 PRISM was handed    33440999 working-precision words and  3714 shell-pairs
 PRISM was handed    33440999 working-precision words and  3714 shell-pairs
 PRISM was handed    33440999 working-precision words and  3714 shell-pairs
 PRISM was handed    33440999 working-precision words and  3714 shell-pairs
 PRISM was handed    33440999 working-precision words and  3714 shell-pairs
 PRISM was handed    33440999 working-precision words and  3714 shell-pairs
 PRISM was handed    33440999 working-precision words and  3714 shell-pairs
 PRISM was handed    33440999 working-precision words and  3714 shell-pairs
 PRISM was handed    33440999 working-precision words and  3714 shell-pairs
 PRISM was handed    33440999 working-precision words and  3714 shell-pairs
 PRISM was handed    33440999 working-precision words and  3714 shell-pairs
 PRISM was handed    33440999 working-precision words and  3714 shell-pairs
 IPart=  3 NShTot=         210 NBatch=          50 AvBLen=         4.2
 IPart=  0 NShTot=         231 NBatch=          69 AvBLen=         3.3
 PRISM was handed    33440999 working-precision words and  3714 shell-pairs
 IPart=  4 NShTot=         203 NBatch=          46 AvBLen=         4.4
 PRISM was handed    33440999 working-precision words and  3714 shell-pairs
 PRISM was handed    33440999 working-precision words and  3714 shell-pairs
 IPart= 18 NShTot=         165 NBatch=          25 AvBLen=         6.6
 IPart= 15 NShTot=         167 NBatch=          25 AvBLen=         6.7
 PRISM was handed    33440999 working-precision words and  3714 shell-pairs
 PRISM was handed    33440999 working-precision words and  3714 shell-pairs
 IPart=  9 NShTot=         180 NBatch=          28 AvBLen=         6.4
 PRISM was handed    33440999 working-precision words and  3714 shell-pairs
 IPart= 19 NShTot=         165 NBatch=          25 AvBLen=         6.6
 IPart= 12 NShTot=         176 NBatch=          26 AvBLen=         6.8
 PRISM was handed    33440999 working-precision words and  3714 shell-pairs
 IPart= 16 NShTot=         167 NBatch=          25 AvBLen=         6.7
 IPart= 11 NShTot=         177 NBatch=          27 AvBLen=         6.6
 IPart= 14 NShTot=         169 NBatch=          26 AvBLen=         6.5
 IPart=  2 NShTot=         213 NBatch=          53 AvBLen=         4.0
 IPart=  6 NShTot=         191 NBatch=          36 AvBLen=         5.3
 IPart= 13 NShTot=         173 NBatch=          26 AvBLen=         6.7
 IPart= 17 NShTot=         166 NBatch=          25 AvBLen=         6.6
 IPart=  1 NShTot=         223 NBatch=          63 AvBLen=         3.5
 IPart=  5 NShTot=         193 NBatch=          38 AvBLen=         5.1
 IPart=  7 NShTot=         187 NBatch=          34 AvBLen=         5.5
 IPart= 10 NShTot=         178 NBatch=          27 AvBLen=         6.6
 IPart=  8 NShTot=         180 NBatch=          28 AvBLen=         6.4
 PrSmSu:  NxtVal=             21.
 Entering OneElI...
 Calculate potential energy integrals
    NBasis = 265  MinDer = 2  MaxDer = 2
 Requested accuracy = 0.1000D-12
 PrmmSu-InSpLW:  IPartL=    0 NPrtUS=   20 NPrtUL=    1 DoSpLW=F IThBeg=    0 IThEnd=   19 NThAct=   20.
 PrsmSu:  NPrtUS=  20 ThrOK=T IAlg=1 NPAlg=1 LenDen=           0 ISkipM=0 DoSpLW=F IThBeg=    0 IThEnd=   19.
 Prism:   IPart=     0 DynPar=F LinDyn=F Incr=          18.
 PRISM was handed    33457707 working-precision words and  3448 shell-pairs
 PRISM was handed    33457707 working-precision words and  3448 shell-pairs
 PRISM was handed    33457707 working-precision words and  3448 shell-pairs
 PRISM was handed    33457707 working-precision words and  3448 shell-pairs
 PRISM was handed    33457707 working-precision words and  3448 shell-pairs
 PRISM was handed    33457707 working-precision words and  3448 shell-pairs
 PRISM was handed    33457707 working-precision words and  3448 shell-pairs
 PRISM was handed    33457707 working-precision words and  3448 shell-pairs
 PRISM was handed    33457707 working-precision words and  3448 shell-pairs
 PRISM was handed    33457707 working-precision words and  3448 shell-pairs
 PRISM was handed    33457707 working-precision words and  3448 shell-pairs
 PRISM was handed    33457707 working-precision words and  3448 shell-pairs
 PRISM was handed    33457707 working-precision words and  3448 shell-pairs
 PRISM was handed    33457707 working-precision words and  3448 shell-pairs
 PRISM was handed    33457707 working-precision words and  3448 shell-pairs
 PRISM was handed    33457707 working-precision words and  3448 shell-pairs
 PRISM was handed    33457707 working-precision words and  3448 shell-pairs
 PRISM was handed    33457707 working-precision words and  3448 shell-pairs
 PRISM was handed    33457707 working-precision words and  3448 shell-pairs
 PRISM was handed    33457707 working-precision words and  3448 shell-pairs
 IPart= 19 NShTot=        1705 NBatch=         155 AvBLen=        11.0
 IPart=  0 NShTot=        2354 NBatch=         214 AvBLen=        11.0
 IPart= 16 NShTot=        1749 NBatch=         159 AvBLen=        11.0
 IPart=  9 NShTot=        1837 NBatch=         167 AvBLen=        11.0
 IPart= 18 NShTot=        1716 NBatch=         156 AvBLen=        11.0
 IPart=  4 NShTot=        2024 NBatch=         184 AvBLen=        11.0
 IPart= 12 NShTot=        1826 NBatch=         166 AvBLen=        11.0
 IPart=  1 NShTot=        2233 NBatch=         203 AvBLen=        11.0
 IPart=  5 NShTot=        1914 NBatch=         174 AvBLen=        11.0
 IPart=  8 NShTot=        1859 NBatch=         169 AvBLen=        11.0
 IPart= 10 NShTot=        1826 NBatch=         166 AvBLen=        11.0
 IPart= 15 NShTot=        1771 NBatch=         161 AvBLen=        11.0
 IPart= 14 NShTot=        1771 NBatch=         161 AvBLen=        11.0
 IPart=  2 NShTot=        2167 NBatch=         197 AvBLen=        11.0
 IPart= 17 NShTot=        1738 NBatch=         158 AvBLen=        11.0
 IPart= 11 NShTot=        1826 NBatch=         166 AvBLen=        11.0
 IPart=  7 NShTot=        1870 NBatch=         170 AvBLen=        11.0
 IPart=  3 NShTot=        2057 NBatch=         187 AvBLen=        11.0
 IPart=  6 NShTot=        1903 NBatch=         173 AvBLen=        11.0
 IPart= 13 NShTot=        1782 NBatch=         162 AvBLen=        11.0
 PrSmSu:  NxtVal=            361.
 Polarizability after L701:
                1             2             3 
      1  0.000000D+00
      2  0.000000D+00  0.000000D+00
      3  0.000000D+00  0.000000D+00  0.000000D+00
 Dipole Derivatives after L701:
                 1             2             3             4             5 
      1  -0.206686D+00 -0.107418D+00  0.193641D-02  0.380490D+00  0.100877D+01
      2  -0.141573D-01 -0.570814D-01 -0.121650D-02 -0.538334D-01 -0.108436D+01
      3  -0.466815D-02  0.141616D-02 -0.248066D+00 -0.245901D-04 -0.427773D-02
                 6             7             8             9            10 
      1  -0.621633D-02 -0.129176D+01 -0.342443D+00 -0.343221D-01 -0.419873D+00
      2  -0.101062D-02 -0.726217D-01 -0.803956D+00 -0.109309D-01  0.894170D-01
      3  -0.399198D+00 -0.462903D-02  0.109155D-02 -0.798340D+00 -0.278870D-02
                11            12            13            14            15 
      1   0.121663D-01  0.104869D-02 -0.429467D+00 -0.379827D+00  0.108866D-01
      2  -0.637112D+00  0.168897D-01 -0.114435D+00 -0.577777D+00  0.643519D-02
      3   0.187976D-01  0.425022D-01  0.131097D-01  0.747943D-02  0.755590D-01
                16            17            18            19            20 
      1   0.127088D+00  0.503413D+00  0.489440D+00  0.121987D+01 -0.718290D+00
      2   0.253445D-01  0.301328D+00  0.231748D+00 -0.124824D+00  0.241083D+00
      3  -0.228106D-01  0.202181D+00  0.407299D+00  0.103484D-01 -0.933869D-02
                21            22            23            24            25 
      1   0.148241D-01  0.154026D+00  0.501523D+00 -0.471672D+00  0.104474D+00
      2  -0.574007D-02  0.316390D-01  0.305204D+00 -0.216406D+00  0.507141D-01
      3   0.968286D-01  0.172390D-01 -0.194670D+00  0.420197D+00 -0.255818D-02
                26            27            28            29            30 
      1   0.354347D-01 -0.202828D-02  0.221927D+00  0.596562D+00 -0.340969D-02
      2   0.597027D+00 -0.156161D-01  0.994567D-01  0.828080D+00 -0.480862D-02
      3  -0.176085D-01  0.315207D-01 -0.309969D-02 -0.879342D-02  0.959120D-01
                31            32            33 
      1   0.139911D+00 -0.110989D+01 -0.487301D-03
      2   0.832997D-01  0.887565D+00  0.655877D-03
      3  -0.118115D-03  0.372195D-02  0.275786D+00
 Hessian after L701:
                1             2             3             4             5 
      1  0.194157D+01
      2  0.360507D+00  0.103806D+02
      3 -0.100642D+00  0.326229D-01  0.146469D+02
      4  0.457650D+00 -0.175457D+00 -0.551738D-03  0.489019D+01
      5 -0.120577D+00 -0.199630D+00  0.204472D-03  0.293341D+01  0.654027D+01
      6 -0.225779D-02  0.732874D-03 -0.209894D+00  0.570153D-01 -0.373506D-01
      7 -0.155900D+01  0.395704D+01  0.332665D-01  0.140855D+00  0.142363D-01
      8  0.375902D+01 -0.407059D+01  0.223840D-01 -0.139393D-02 -0.883061D-01
      9  0.340419D-01  0.195870D-01 -0.741257D+01 -0.875550D-03 -0.426434D-03
     10 -0.103943D+01 -0.387342D+01  0.836857D-01  0.356191D+00  0.176356D+00
     11 -0.382749D+01 -0.588495D+01 -0.374383D-01  0.958715D-01 -0.195531D+00
     12  0.862709D-01 -0.401363D-01 -0.794502D+01  0.627622D-03  0.136492D-02
     13  0.190154D+00  0.963819D-01  0.213563D-03 -0.996580D+00 -0.369698D+01
     14  0.121253D+00 -0.179409D+00  0.454217D-02 -0.385420D+01 -0.568626D+01
     15 -0.224967D-02  0.465500D-02  0.734610D-01 -0.570297D-01  0.389872D-01
     16 -0.909162D-01 -0.213816D+00  0.603851D-01  0.190288D-01  0.764941D-02
     17 -0.165646D+00 -0.379015D-01  0.178942D+00  0.155661D-01 -0.395386D-02
     18  0.403756D-01  0.141811D+00  0.374856D+00  0.195483D-01  0.729462D-02
     19  0.527746D-01 -0.165154D+00  0.109209D-01  0.279624D-01  0.265285D-02
     20 -0.228535D+00 -0.180917D-02 -0.277630D-02 -0.122133D-01 -0.769065D-02
     21  0.796532D-02 -0.204889D-02  0.131421D-01  0.181273D-03 -0.253730D-04
     22 -0.947560D-01 -0.214353D+00 -0.828004D-01  0.193546D-01  0.750967D-02
     23 -0.165025D+00 -0.429495D-01 -0.194071D+00  0.151600D-01 -0.403708D-02
     24 -0.591621D-01 -0.154043D+00  0.391390D+00 -0.188687D-01 -0.680480D-02
     25 -0.126517D-01  0.221673D+00 -0.210596D-02  0.357681D-01  0.550860D-01
     26  0.227180D+00  0.694114D-01 -0.335447D-02  0.866805D-01  0.165222D-01
     27 -0.287434D-02 -0.254875D-02  0.162425D+00 -0.154215D-02 -0.192661D-02
     28  0.139535D+00  0.262765D-01 -0.221441D-02 -0.762329D-01  0.175458D+00
     29  0.102190D+00 -0.514123D-01 -0.116930D-02  0.128416D+00  0.392830D-02
     30 -0.143580D-02 -0.670703D-03 -0.776398D-01  0.156622D-02 -0.451304D-02
     31  0.150781D-01 -0.196858D-01 -0.157272D-03 -0.487419D+01  0.445198D+00
     32 -0.628777D-01  0.186818D-01  0.113543D-03  0.768161D+00 -0.375314D+00
     33 -0.319358D-04  0.391557D-04 -0.170345D-01 -0.709255D-04  0.319568D-02
                6             7             8             9            10 
      6  0.131698D+02
      7 -0.151464D-03  0.911667D+01
      8 -0.839138D-04 -0.320860D+01  0.120607D+02
      9 -0.762279D-01 -0.270345D-01 -0.627328D-01  0.147853D+02
     10 -0.157252D-02  0.332358D+00 -0.217625D-02  0.672040D-03  0.580080D+01
     11  0.316476D-02 -0.642757D-01 -0.192659D+00  0.191466D-02  0.757728D+00
     12  0.185984D+00  0.128122D-02  0.183501D-02 -0.778100D-01  0.647204D-02
     13 -0.543420D-01  0.291776D+00  0.786642D-01 -0.308868D-04 -0.173479D+01
     14  0.393209D-01  0.937057D-01 -0.128105D+00 -0.648349D-04  0.316130D+01
     15 -0.784652D+01  0.313943D-03  0.436683D-03 -0.119494D+00 -0.104253D+00
     16  0.674254D-02 -0.331371D+01  0.179932D+00  0.254767D+00  0.115625D-01
     17  0.297269D-02  0.675416D-01 -0.234935D+01  0.122790D+01  0.339480D-01
     18 -0.523661D-02  0.109993D+00  0.116922D+01 -0.178400D+01 -0.348628D-02
     19  0.113492D-03 -0.159362D+01 -0.100828D+01  0.300263D-01  0.169505D+00
     20 -0.349330D-04 -0.901914D+00 -0.264278D+01 -0.168925D-01 -0.595857D-01
     21 -0.638008D-02  0.274666D-01 -0.162707D-01 -0.321272D+01  0.247858D-02
     22 -0.673303D-02 -0.346751D+01  0.202238D+00 -0.291738D+00  0.100165D-01
     23 -0.288166D-02  0.902774D-01 -0.257159D+01 -0.116823D+01  0.325043D-01
     24 -0.504473D-02 -0.147555D+00 -0.111377D+01 -0.202788D+01  0.867740D-02
     25 -0.179974D-03  0.271609D-01 -0.109125D-01  0.657288D-03 -0.388878D+01
     26 -0.144973D-02 -0.563633D-01 -0.226052D-01 -0.804342D-03  0.654495D-01
     27 -0.514581D-01  0.249297D-02 -0.911792D-03 -0.524148D-01 -0.281386D-02
     28  0.194755D-02  0.147009D-01  0.163474D-01 -0.398910D-03 -0.150625D-02
     29 -0.636937D-02  0.287101D-01  0.345486D-02 -0.565119D-03 -0.266236D+00
     30  0.350009D-01 -0.582521D-04 -0.137099D-03 -0.145113D-01  0.953692D-02
     31 -0.582084D-03  0.103124D-01 -0.484338D-02 -0.863768D-04 -0.159228D-01
     32  0.197898D-02 -0.203596D-01  0.184384D-02  0.311709D-03 -0.258763D-01
     33 -0.519006D+01 -0.149284D-04  0.259353D-04 -0.765533D-02  0.602777D-03
               11            12            13            14            15 
     11  0.152907D+02
     12  0.194148D+00  0.242693D+02
     13  0.322542D+01 -0.108928D+00  0.587416D+01
     14 -0.746102D+01 -0.983562D-01  0.360709D+00  0.150679D+02
     15 -0.101484D+00 -0.125756D+02  0.150994D+00  0.608487D-01  0.241188D+02
     16  0.242160D-01 -0.422983D-01  0.393614D-01  0.206988D-01 -0.368464D-02
     17 -0.483299D-02 -0.587878D-02  0.355760D-01 -0.593748D-02  0.266409D-03
     18  0.924126D-02 -0.313955D-01  0.200048D-01  0.597357D-02 -0.164967D-01
     19 -0.645888D-01  0.226509D-02  0.433513D-01  0.227746D-02 -0.282598D-04
     20 -0.331734D-01 -0.777164D-03 -0.123228D-01 -0.720158D-02 -0.996559D-04
     21 -0.874689D-03 -0.449377D-01  0.230299D-03 -0.655846D-04 -0.951971D-02
     22  0.244352D-01  0.460792D-01  0.380460D-01  0.197381D-01  0.477165D-02
     23 -0.244722D-02  0.714040D-02  0.339961D-01 -0.595075D-02  0.106607D-03
     24 -0.821003D-02 -0.284747D-01 -0.179422D-01 -0.524012D-02 -0.158492D-01
     25  0.536395D-01 -0.270131D-02  0.202116D-02 -0.286481D+00  0.986105D-02
     26 -0.135280D+01 -0.714601D-01 -0.280880D+00 -0.188652D+00  0.126198D-01
     27 -0.716643D-01 -0.392615D+01  0.954518D-02  0.118237D-01  0.163620D+00
     28 -0.291785D+00  0.101111D-01 -0.387854D+01  0.272213D+00 -0.429968D-03
     29 -0.119366D+00  0.126721D-01  0.204964D+00 -0.143164D+01 -0.134371D-01
     30  0.118563D-01  0.181834D+00 -0.849209D-03 -0.157167D-01 -0.387158D+01
     31  0.668360D-01  0.820440D-03  0.131036D+00  0.887868D-01  0.173453D-02
     32 -0.439647D-01 -0.551725D-03 -0.455217D-01  0.262329D-01 -0.289940D-02
     33 -0.653265D-03 -0.765049D-02  0.110452D-02 -0.306566D-02  0.992149D-01
               16            17            18            19            20 
     16  0.302224D+01
     17 -0.914359D-01  0.219089D+01
     18 -0.330066D+00 -0.125908D+01  0.193253D+01
     19  0.253609D-01  0.889999D-01  0.700999D-01  0.123925D+01
     20  0.788507D-01 -0.476974D-01 -0.816644D-01  0.104845D+01  0.278660D+01
     21  0.725050D-01 -0.971013D-01  0.179125D-01 -0.274650D-01  0.254823D-02
     22  0.258267D+00  0.853033D-02  0.496380D-01  0.322074D-01  0.892566D-01
     23  0.605477D-02  0.276384D+00  0.175496D-01  0.104253D+00 -0.509099D-01
     24 -0.333461D-01 -0.504912D-01 -0.478934D+00 -0.862482D-01  0.999596D-01
     25  0.247401D-01  0.192905D-02  0.198224D-01 -0.199594D-02 -0.427017D-03
     26 -0.138131D-01 -0.187713D-01 -0.111043D-01 -0.913895D-02  0.495600D-02
     27  0.139221D-01  0.149673D-02 -0.775186D-02  0.288412D-03 -0.228698D-03
     28  0.259607D-02  0.451119D-02  0.288912D-02  0.388404D-02 -0.896988D-03
     29  0.518126D-02  0.569125D-02  0.542559D-02  0.803432D-02 -0.344608D-02
     30  0.472218D-03  0.806531D-03 -0.895348D-03  0.167498D-04 -0.249733D-04
     31  0.146537D-02  0.480035D-03  0.118127D-02  0.131834D-02 -0.659826D-03
     32 -0.351832D-02 -0.452403D-02 -0.467254D-02 -0.750634D-02  0.314909D-02
     33  0.601718D-03  0.160667D-03 -0.589433D-03  0.107254D-04 -0.929125D-05
               21            22            23            24            25 
     21  0.323047D+01
     22 -0.833266D-01  0.317036D+01
     23  0.113938D+00 -0.123093D+00  0.242053D+01
     24  0.157875D-01  0.378610D+00  0.122827D+01  0.216082D+01
     25 -0.694338D-04  0.301709D-01  0.115694D-02 -0.203118D-01  0.373068D+01
     26 -0.912462D-04 -0.157533D-01 -0.200960D-01  0.110325D-01 -0.635050D-01
     27 -0.201440D-02 -0.135232D-01 -0.925080D-03 -0.104263D-01 -0.255990D-02
     28  0.283972D-04  0.247368D-02  0.426175D-02 -0.275358D-02 -0.610712D-02
     29  0.446799D-04  0.508968D-02  0.546127D-02 -0.516873D-02  0.448904D-01
     30 -0.118751D-02 -0.408098D-03 -0.749064D-03 -0.823756D-03 -0.778036D-03
     31  0.552214D-05  0.137119D-02  0.454759D-03 -0.109963D-02  0.589949D-01
     32 -0.531162D-04 -0.359710D-02 -0.440166D-02  0.446133D-02 -0.170493D-01
     33 -0.554575D-03 -0.569832D-03 -0.150054D-03 -0.569234D-03 -0.163440D-02
               26            27            28            29            30 
     26  0.147421D+01
     27  0.663742D-01  0.376586D+01
     28  0.462890D-01 -0.971807D-03  0.381934D+01
     29  0.801178D-01 -0.218098D-02 -0.226144D+00  0.139299D+01
     30 -0.146379D-02 -0.131920D-01 -0.826821D-02  0.110186D-01  0.378470D+01
     31  0.138539D-01 -0.196343D-02 -0.201414D-01 -0.350961D-01  0.205504D-03
     32 -0.422888D-01  0.691614D-03 -0.265305D-01  0.114216D+00 -0.406132D-03
     33 -0.298498D-03 -0.284988D-01  0.607456D-04 -0.270402D-03 -0.217016D-01
               31            32            33 
     31  0.469067D+01
     32 -0.555324D+00  0.306369D+00
     33 -0.584678D-04  0.102574D-02  0.517510D+01
 Leave Link  701 at Sat Sep 28 22:24:51 2019, MaxMem=   671088640 cpu:              49.9 elap:              24.9
 (Enter /shared/centos7/gaussian/g16/l702.exe)
 L702 exits ... SP integral derivatives will be done elsewhere.
 Leave Link  702 at Sat Sep 28 22:24:52 2019, MaxMem=   671088640 cpu:               1.8 elap:               0.9
 (Enter /shared/centos7/gaussian/g16/l703.exe)
 Integral derivatives from FoFJK, PRISM(SPDF).
 Compute integral second derivatives, UseDBF=F ICtDFT=           0.
 ICntrl=    100147.
 Calling FoFJK, ICntrl=    100147 FMM=F ISym2X=0 I1Cent= 0 IOpClX= 0 NMat=1 NMatS=1 NMatT=0.
 FoFJK:  IHMeth= 1 ICntrl=  100147 DoSepK=F KAlg= 0 I1Cent=           0 FoldK=F
 IRaf=         0 NMat=       1 IRICut=       1 DoRegI=T DoRafI=F ISym2E= 0 IDoP0=0 IntGTp=1.
 FoFCou: FMM=F IPFlag=           0 FMFlag=      100000 FMFlg1=         800
         NFxFlg=           0 DoJE=F BraDBF=F KetDBF=F FulRan=T
         wScrn=  0.000000 ICntrl=    100147 IOpCl=  0 I1Cent=           0 NGrid=           0
         NMat0=    1 NMatS0=      1 NMatT0=    0 NMatD0=    1 NMtDS0=    0 NMtDT0=    0
 Symmetry not used in FoFCou.
 FoFCou:  KetSym=F NOpSet=  1 NOpAb=1 NOp=  1.
 FoFCou:  CnvScl= 1.00D+00 Thresh= 1.00D-08 IAcrcy=      12.
 PrismS was handed   670746525 working-precision words and  3562 shell-pairs
 FoFCou: LinMIO=F DoNuc=F BraDBF=F KetDBF=F HaveP=T PDBF=F HaveZ=T HaveW=F
         NIJTC =      10 NIJTAt=       0 NIJTCD=       0 NIJTT =      10
         IJTBeg=       1 IJTEnd=      10 KLTBeg=       1 KLTEnd=      10
         IPTBeg=       1 IPTEnd=      10 IPTBCv=       1 IPTECv=      10
         IZTBeg=       1 IZTEnd=      10 IZTBCv=       1 IZTECv=      10
         IWTBeg=      11 IWTEnd=      10 IWTBCv=      11 IWTECv=      10
         INTBeg=       1 INTEnd=       0 IFTBCv=       1 IFTECv=      10
 NCel replicated for PrismC:     1
 CoulSu-InSpLW:  IPartL=    0 NPrtUS=   20 NPrtUL=    1 DoSpLW=F IThBeg=    0 IThEnd=   19 NThAct=   20.
 CoulSu:  IncDef=  1024 NBBP=        6345703 NTPThr=   100 NPartT=   20 Incr=        1024 LDynOK=F GPUOK=T.
 CoulSu:  NPrtUS=  20 ThrOK=T IAlg=1 NPAlg=1 LenDen=           0 LWGrdD=           0 DoCopy=F ISkipM=0
          DoSpLW=F IThBeg=    0 IThEnd=   19.
 Enter PrismC:  IPart=  0 JobTyp=22 DoJE=F Cont=F.
 PrismC:  IPart=     0 DynPar=T LinDyn=F Incr=        1024 UseFst=F UseS4=T ISplat=2.
 PrismC was handed    33459118 working-precision words and  3562 shell-pairs
 Enter PrismC:  IPart=  1 JobTyp=22 DoJE=F Cont=F.
 PrismC:  IPart=     1 DynPar=T LinDyn=F Incr=        1024 UseFst=F UseS4=T ISplat=2.
 PrismC was handed    33459118 working-precision words and  3562 shell-pairs
 Enter PrismC:  IPart=  2 JobTyp=22 DoJE=F Cont=F.
 PrismC:  IPart=     2 DynPar=T LinDyn=F Incr=        1024 UseFst=F UseS4=T ISplat=2.
 PrismC was handed    33459118 working-precision words and  3562 shell-pairs
 Enter PrismC:  IPart=  6 JobTyp=22 DoJE=F Cont=F.
 PrismC:  IPart=     6 DynPar=T LinDyn=F Incr=        1024 UseFst=F UseS4=T ISplat=2.
 PrismC was handed    33459118 working-precision words and  3562 shell-pairs
 Enter PrismC:  IPart= 12 JobTyp=22 DoJE=F Cont=F.
 PrismC:  IPart=    12 DynPar=T LinDyn=F Incr=        1024 UseFst=F UseS4=T ISplat=2.
 PrismC was handed    33459118 working-precision words and  3562 shell-pairs
 Enter PrismC:  IPart= 13 JobTyp=22 DoJE=F Cont=F.
 PrismC:  IPart=    13 DynPar=T LinDyn=F Incr=        1024 UseFst=F UseS4=T ISplat=2.
 PrismC was handed    33459118 working-precision words and  3562 shell-pairs
 Enter PrismC:  IPart=  3 JobTyp=22 DoJE=F Cont=F.
 PrismC:  IPart=     3 DynPar=T LinDyn=F Incr=        1024 UseFst=F UseS4=T ISplat=2.
 PrismC was handed    33459118 working-precision words and  3562 shell-pairs
 Enter PrismC:  IPart= 19 JobTyp=22 DoJE=F Cont=F.
 PrismC:  IPart=    19 DynPar=T LinDyn=F Incr=        1024 UseFst=F UseS4=T ISplat=2.
 PrismC was handed    33459118 working-precision words and  3562 shell-pairs
 Enter PrismC:  IPart= 16 JobTyp=22 DoJE=F Cont=F.
 PrismC:  IPart=    16 DynPar=T LinDyn=F Incr=        1024 UseFst=F UseS4=T ISplat=2.
 PrismC was handed    33459118 working-precision words and  3562 shell-pairs
 Enter PrismC:  IPart= 10 JobTyp=22 DoJE=F Cont=F.
 PrismC:  IPart=    10 DynPar=T LinDyn=F Incr=        1024 UseFst=F UseS4=T ISplat=2.
 PrismC was handed    33459118 working-precision words and  3562 shell-pairs
 Enter PrismC:  IPart=  8 JobTyp=22 DoJE=F Cont=F.
 PrismC:  IPart=     8 DynPar=T LinDyn=F Incr=        1024 UseFst=F UseS4=T ISplat=2.
 PrismC was handed    33459118 working-precision words and  3562 shell-pairs
 Enter PrismC:  IPart= 17 JobTyp=22 DoJE=F Cont=F.
 PrismC:  IPart=    17 DynPar=T LinDyn=F Incr=        1024 UseFst=F UseS4=T ISplat=2.
 PrismC was handed    33459118 working-precision words and  3562 shell-pairs
 Enter PrismC:  IPart= 14 JobTyp=22 DoJE=F Cont=F.
 PrismC:  IPart=    14 DynPar=T LinDyn=F Incr=        1024 UseFst=F UseS4=T ISplat=2.
 PrismC was handed    33459118 working-precision words and  3562 shell-pairs
 Enter PrismC:  IPart= 11 JobTyp=22 DoJE=F Cont=F.
 PrismC:  IPart=    11 DynPar=T LinDyn=F Incr=        1024 UseFst=F UseS4=T ISplat=2.
 PrismC was handed    33459118 working-precision words and  3562 shell-pairs
 Enter PrismC:  IPart=  4 JobTyp=22 DoJE=F Cont=F.
 PrismC:  IPart=     4 DynPar=T LinDyn=F Incr=        1024 UseFst=F UseS4=T ISplat=2.
 PrismC was handed    33459118 working-precision words and  3562 shell-pairs
 Enter PrismC:  IPart=  9 JobTyp=22 DoJE=F Cont=F.
 PrismC:  IPart=     9 DynPar=T LinDyn=F Incr=        1024 UseFst=F UseS4=T ISplat=2.
 PrismC was handed    33459118 working-precision words and  3562 shell-pairs
 Enter PrismC:  IPart=  5 JobTyp=22 DoJE=F Cont=F.
 PrismC:  IPart=     5 DynPar=T LinDyn=F Incr=        1024 UseFst=F UseS4=T ISplat=2.
 PrismC was handed    33459118 working-precision words and  3562 shell-pairs
 Enter PrismC:  IPart=  7 JobTyp=22 DoJE=F Cont=F.
 PrismC:  IPart=     7 DynPar=T LinDyn=F Incr=        1024 UseFst=F UseS4=T ISplat=2.
 PrismC was handed    33459118 working-precision words and  3562 shell-pairs
 Enter PrismC:  IPart= 15 JobTyp=22 DoJE=F Cont=F.
 PrismC:  IPart=    15 DynPar=T LinDyn=F Incr=        1024 UseFst=F UseS4=T ISplat=2.
 PrismC was handed    33459118 working-precision words and  3562 shell-pairs
 Enter PrismC:  IPart= 18 JobTyp=22 DoJE=F Cont=F.
 PrismC:  IPart=    18 DynPar=T LinDyn=F Incr=        1024 UseFst=F UseS4=T ISplat=2.
 PrismC was handed    33459118 working-precision words and  3562 shell-pairs
 IPart=  9 NShTot=      194548 NShNF=      194548 NShFF=           0 MinMC=       7
           NShCPU=      194548 NBCPU=        8300 AvBCPU=        23.4
           NShGPU=           0 NBGPU=           0 AvBGPU=         0.0
 IPart= 15 NShTot=      197788 NShNF=      197788 NShFF=           0 MinMC=       7
           NShCPU=      197788 NBCPU=        8392 AvBCPU=        23.6
           NShGPU=           0 NBGPU=           0 AvBGPU=         0.0
 IPart=  7 NShTot=      216902 NShNF=      216902 NShFF=           0 MinMC=       7
           NShCPU=      216902 NBCPU=        8783 AvBCPU=        24.7
           NShGPU=           0 NBGPU=           0 AvBGPU=         0.0
 IPart= 17 NShTot=      208517 NShNF=      208517 NShFF=           0 MinMC=       7
           NShCPU=      208517 NBCPU=        8651 AvBCPU=        24.1
           NShGPU=           0 NBGPU=           0 AvBGPU=         0.0
 IPart= 18 NShTot=      214678 NShNF=      214678 NShFF=           0 MinMC=       7
           NShCPU=      214678 NBCPU=        8526 AvBCPU=        25.2
           NShGPU=           0 NBGPU=           0 AvBGPU=         0.0
 IPart=  5 NShTot=      198578 NShNF=      198578 NShFF=           0 MinMC=       7
           NShCPU=      198578 NBCPU=        8667 AvBCPU=        22.9
           NShGPU=           0 NBGPU=           0 AvBGPU=         0.0
 IPart=  3 NShTot=      216107 NShNF=      216107 NShFF=           0 MinMC=       7
           NShCPU=      216107 NBCPU=        8810 AvBCPU=        24.5
           NShGPU=           0 NBGPU=           0 AvBGPU=         0.0
 IPart=  6 NShTot=      216298 NShNF=      216298 NShFF=           0 MinMC=       7
           NShCPU=      216298 NBCPU=        9169 AvBCPU=        23.6
           NShGPU=           0 NBGPU=           0 AvBGPU=         0.0
 IPart= 10 NShTot=      207985 NShNF=      207985 NShFF=           0 MinMC=       7
           NShCPU=      207985 NBCPU=        8667 AvBCPU=        24.0
           NShGPU=           0 NBGPU=           0 AvBGPU=         0.0
 IPart= 11 NShTot=      204866 NShNF=      204866 NShFF=           0 MinMC=       7
           NShCPU=      204866 NBCPU=        8826 AvBCPU=        23.2
           NShGPU=           0 NBGPU=           0 AvBGPU=         0.0
 IPart=  1 NShTot=      205243 NShNF=      205243 NShFF=           0 MinMC=       7
           NShCPU=      205243 NBCPU=        8669 AvBCPU=        23.7
           NShGPU=           0 NBGPU=           0 AvBGPU=         0.0
 IPart= 13 NShTot=      204802 NShNF=      204802 NShFF=           0 MinMC=       7
           NShCPU=      204802 NBCPU=        8456 AvBCPU=        24.2
           NShGPU=           0 NBGPU=           0 AvBGPU=         0.0
 IPart=  0 NShTot=      201480 NShNF=      201480 NShFF=           0 MinMC=       7
           NShCPU=      201480 NBCPU=        8567 AvBCPU=        23.5
           NShGPU=           0 NBGPU=           0 AvBGPU=         0.0
 IPart=  4 NShTot=      213582 NShNF=      213582 NShFF=           0 MinMC=       7
           NShCPU=      213582 NBCPU=        9243 AvBCPU=        23.1
           NShGPU=           0 NBGPU=           0 AvBGPU=         0.0
 IPart= 12 NShTot=      213987 NShNF=      213987 NShFF=           0 MinMC=       7
           NShCPU=      213987 NBCPU=        8881 AvBCPU=        24.1
           NShGPU=           0 NBGPU=           0 AvBGPU=         0.0
 IPart= 19 NShTot=      209816 NShNF=      209816 NShFF=           0 MinMC=       7
           NShCPU=      209816 NBCPU=        9156 AvBCPU=        22.9
           NShGPU=           0 NBGPU=           0 AvBGPU=         0.0
 IPart=  8 NShTot=      202954 NShNF=      202954 NShFF=           0 MinMC=       7
           NShCPU=      202954 NBCPU=        9180 AvBCPU=        22.1
           NShGPU=           0 NBGPU=           0 AvBGPU=         0.0
 IPart= 14 NShTot=      210591 NShNF=      210591 NShFF=           0 MinMC=       7
           NShCPU=      210591 NBCPU=        8084 AvBCPU=        26.1
           NShGPU=           0 NBGPU=           0 AvBGPU=         0.0
 IPart=  2 NShTot=      204469 NShNF=      204469 NShFF=           0 MinMC=       7
           NShCPU=      204469 NBCPU=        8396 AvBCPU=        24.4
           NShGPU=           0 NBGPU=           0 AvBGPU=         0.0
 IPart= 16 NShTot=      212024 NShNF=      212024 NShFF=           0 MinMC=       7
           NShCPU=      212024 NBCPU=        8815 AvBCPU=        24.1
           NShGPU=           0 NBGPU=           0 AvBGPU=         0.0
 CoulSu:  NxtVal=        6778881 LenVP=       33459119 MinMC=       7.
 ReadGW:  IGet=0 IStart=           1 Next=           1 LGW=           0.
 Remaining memory in FofDFT      639.93 Mw
 CkSvGd:  ISavGI=        -1 IRadAn=       5 IRASav=       5 ISavGd=        -1.
 CalDSu-InSpLW:  IPartL=    0 NPrtUS=   20 NPrtUL=    1 DoSpLW=F IThBeg=    0 IThEnd=   19 NThAct=   20.
 CalDSu:  NPrtUS=  20 ThrOK=T IAlg=1 NPAlg=2 DoDPD=T LenP=       35245 LenD1P=             0 GPUOK=F
          ISkipM=0 DoSpLW=F IThBeg=    0 IThEnd=   19.
 IPart=  0 IRanGd=          0 ScrnBf=T ScrnGd=T RCrit=4.00D+00 DoMicB=T.
 IPart=  7        12523 of        13958 points in      15 batches and       83 microbatches, Max-NSigAt=      11 Max-NSgAt2=      11
 IPart=  3        11159 of        11864 points in      11 batches and       48 microbatches, Max-NSigAt=      11 Max-NSgAt2=      11
 IPart= 17        10499 of        11356 points in      12 batches and       57 microbatches, Max-NSigAt=      11 Max-NSgAt2=      11
 IPart=  1        11702 of        13082 points in      14 batches and       81 microbatches, Max-NSigAt=      11 Max-NSgAt2=      11
 IPart=  8        12161 of        13458 points in      14 batches and       66 microbatches, Max-NSigAt=      11 Max-NSgAt2=      11
 IPart=  0         9572 of        10082 points in      10 batches and       51 microbatches, Max-NSigAt=      11 Max-NSgAt2=      11
 IPart= 13        12029 of        13488 points in      15 batches and       60 microbatches, Max-NSigAt=      11 Max-NSgAt2=      11
 IPart= 16        14343 of        16958 points in      19 batches and       75 microbatches, Max-NSigAt=      11 Max-NSgAt2=      11
 IPart= 18        11380 of        12554 points in      13 batches and       51 microbatches, Max-NSigAt=      11 Max-NSgAt2=      11
 IPart=  5        11205 of        11940 points in      12 batches and       73 microbatches, Max-NSigAt=      11 Max-NSgAt2=      11
 IPart= 15        11294 of        11854 points in      12 batches and       71 microbatches, Max-NSigAt=      11 Max-NSgAt2=      11
 IPart=  2        10907 of        11348 points in      11 batches and       55 microbatches, Max-NSigAt=      11 Max-NSgAt2=      11
 IPart= 10        10914 of        11952 points in      13 batches and       72 microbatches, Max-NSigAt=      11 Max-NSgAt2=      11
 IPart= 19        12092 of        13770 points in      14 batches and       65 microbatches, Max-NSigAt=      11 Max-NSgAt2=      11
 IPart= 11        10929 of        12356 points in      13 batches and      103 microbatches, Max-NSigAt=      11 Max-NSgAt2=      11
 IPart=  4        10098 of        10854 points in      11 batches and       67 microbatches, Max-NSigAt=      11 Max-NSgAt2=      11
 IPart=  6         9958 of        10704 points in      11 batches and       74 microbatches, Max-NSigAt=      11 Max-NSgAt2=      11
 IPart= 12        10185 of        10840 points in      11 batches and       78 microbatches, Max-NSigAt=      11 Max-NSgAt2=      11
 IPart= 14        12046 of        13082 points in      13 batches and       57 microbatches, Max-NSigAt=      11 Max-NSgAt2=      11
 IPart=  9        10166 of        10900 points in      11 batches and       69 microbatches, Max-NSigAt=      11 Max-NSgAt2=      11
 Polarizability after L703:
                1             2             3 
      1  0.000000D+00
      2  0.000000D+00  0.000000D+00
      3  0.000000D+00  0.000000D+00  0.000000D+00
 Dipole Derivatives after L703:
                 1             2             3             4             5 
      1  -0.206686D+00 -0.107418D+00  0.193641D-02  0.380490D+00  0.100877D+01
      2  -0.141573D-01 -0.570814D-01 -0.121650D-02 -0.538334D-01 -0.108436D+01
      3  -0.466815D-02  0.141616D-02 -0.248066D+00 -0.245901D-04 -0.427773D-02
                 6             7             8             9            10 
      1  -0.621633D-02 -0.129176D+01 -0.342443D+00 -0.343221D-01 -0.419873D+00
      2  -0.101062D-02 -0.726217D-01 -0.803956D+00 -0.109309D-01  0.894170D-01
      3  -0.399198D+00 -0.462903D-02  0.109155D-02 -0.798340D+00 -0.278870D-02
                11            12            13            14            15 
      1   0.121663D-01  0.104869D-02 -0.429467D+00 -0.379827D+00  0.108866D-01
      2  -0.637112D+00  0.168897D-01 -0.114435D+00 -0.577777D+00  0.643519D-02
      3   0.187976D-01  0.425022D-01  0.131097D-01  0.747943D-02  0.755590D-01
                16            17            18            19            20 
      1   0.127088D+00  0.503413D+00  0.489440D+00  0.121987D+01 -0.718290D+00
      2   0.253445D-01  0.301328D+00  0.231748D+00 -0.124824D+00  0.241083D+00
      3  -0.228106D-01  0.202181D+00  0.407299D+00  0.103484D-01 -0.933869D-02
                21            22            23            24            25 
      1   0.148241D-01  0.154026D+00  0.501523D+00 -0.471672D+00  0.104474D+00
      2  -0.574007D-02  0.316390D-01  0.305204D+00 -0.216406D+00  0.507141D-01
      3   0.968286D-01  0.172390D-01 -0.194670D+00  0.420197D+00 -0.255818D-02
                26            27            28            29            30 
      1   0.354347D-01 -0.202828D-02  0.221927D+00  0.596562D+00 -0.340969D-02
      2   0.597027D+00 -0.156161D-01  0.994567D-01  0.828080D+00 -0.480862D-02
      3  -0.176085D-01  0.315207D-01 -0.309969D-02 -0.879342D-02  0.959120D-01
                31            32            33 
      1   0.139911D+00 -0.110989D+01 -0.487301D-03
      2   0.832997D-01  0.887565D+00  0.655877D-03
      3  -0.118115D-03  0.372195D-02  0.275786D+00
 Hessian after L703:
                1             2             3             4             5 
      1  0.498134D+00
      2  0.832346D-02  0.327297D+00
      3  0.217472D-02 -0.233303D-02  0.677653D-01
      4 -0.224614D-01  0.176175D-02  0.989651D-04  0.398750D+00
      5  0.939547D-02 -0.512795D-02  0.121341D-03 -0.415415D-01  0.484914D+00
      6 -0.268413D-04  0.360194D-03  0.930642D-02 -0.184763D-02  0.402962D-03
      7 -0.159432D+00 -0.471815D-01 -0.958361D-03  0.622543D-02 -0.411560D-02
      8 -0.904876D-01 -0.150057D+00  0.304507D-03  0.724027D-02 -0.255806D-02
      9  0.123194D-02  0.198965D-02 -0.583989D-01  0.139141D-03 -0.142222D-04
     10 -0.222859D+00  0.537089D-01 -0.126738D-02 -0.402353D-01 -0.804007D-02
     11  0.973519D-01 -0.155965D+00  0.183499D-02  0.218845D-01  0.183352D-01
     12 -0.103899D-02  0.149017D-02 -0.349187D-01  0.154341D-03 -0.799360D-04
     13 -0.317031D-01 -0.106864D-01  0.366697D-03 -0.263689D+00  0.103974D+00
     14  0.203666D-01  0.243841D-01 -0.178395D-03  0.579189D-01 -0.150194D+00
     15 -0.486728D-03 -0.126277D-03  0.516954D-02  0.105452D-02  0.394938D-04
     16 -0.121624D-01 -0.239237D-01 -0.219947D-01 -0.201910D-05 -0.111443D-04
     17 -0.135530D-01 -0.178547D-01 -0.162315D-01 -0.117872D-02  0.636284D-03
     18 -0.536881D-02 -0.168141D-02  0.678964D-02 -0.713563D-03  0.386551D-03
     19 -0.297760D-01  0.117320D-01 -0.459754D-03 -0.111804D-02  0.143285D-03
     20 -0.229025D-01  0.129498D-01 -0.481647D-03 -0.452018D-03 -0.128564D-03
     21 -0.162735D-03 -0.805091D-04  0.465807D-03 -0.370344D-05 -0.246850D-05
     22 -0.134390D-01 -0.249305D-01  0.228438D-01 -0.670355D-04  0.127172D-04
     23 -0.137651D-01 -0.177438D-01  0.165319D-01 -0.112046D-02  0.601154D-03
     24  0.385391D-02  0.435684D-03  0.767749D-02  0.590395D-03 -0.325967D-03
     25 -0.901191D-02  0.311542D-01 -0.774614D-03  0.324690D-02 -0.180349D-02
     26  0.751002D-02 -0.180936D-01  0.449139D-03  0.372806D-03  0.314910D-02
     27 -0.285378D-03  0.103516D-03  0.169415D-02 -0.148409D-04 -0.165113D-03
     28  0.265001D-02  0.756632D-03 -0.289123D-04  0.727872D-03  0.360288D-01
     29  0.633390D-03  0.229061D-03 -0.502697D-04  0.372884D-02 -0.169042D-01
     30  0.593900D-04 -0.123517D-03 -0.474413D-02  0.207020D-03 -0.284772D-03
     31  0.606885D-04 -0.714848D-03  0.000000D+00 -0.813767D-01 -0.940426D-01
     32 -0.287267D-02 -0.180025D-04  0.330156D-04 -0.486143D-01 -0.332723D+00
     33  0.495254D-04 -0.344668D-04 -0.806679D-03  0.335357D-03 -0.778683D-04
                6             7             8             9            10 
      6  0.545531D-01
      7  0.264990D-04  0.498318D+00
      8 -0.532938D-04 -0.495581D-01  0.514908D+00
      9  0.262292D-02 -0.222968D-03 -0.397913D-01  0.544660D+00
     10  0.328586D-03 -0.588158D-01  0.162187D-01 -0.934279D-03  0.861475D+00
     11 -0.539700D-03 -0.124774D-01  0.153386D-01  0.462251D-04  0.178735D+00
     12  0.502274D-02 -0.666375D-03 -0.195644D-03 -0.479593D-02 -0.556189D-02
     13  0.161951D-02 -0.429975D-02 -0.294015D-03 -0.232165D-04 -0.490455D+00
     14  0.168703D-03  0.381158D-02 -0.318580D-02 -0.617096D-04 -0.207739D+00
     15 -0.373284D-01  0.240741D-04  0.126080D-03 -0.150335D-02  0.554644D-02
     16  0.523795D-03 -0.562790D-01  0.116319D-01  0.113902D-01  0.507294D-02
     17  0.956272D-04  0.663519D-02 -0.113759D+00 -0.852740D-01  0.359183D-02
     18 -0.542898D-04  0.788689D-02 -0.862814D-01 -0.189775D+00  0.100615D-02
[...]
     Eigenvalues ---    0.04506   0.08689   0.08753   0.10040   0.12730
     Eigenvalues ---    0.13604   0.15635   0.17816   0.18082   0.18948
     Eigenvalues ---    0.21695   0.23493   0.32984   0.33422   0.34683
     Eigenvalues ---    0.35055   0.36978   0.39795   0.43896   0.46229
     Eigenvalues ---    0.54047   0.65356
 Angle between quadratic step and forces=  75.30 degrees.
 Linear search not attempted -- first point.
 Iteration  1 RMS(Cart)=  0.00000390 RMS(Int)=  0.00000000
 Iteration  2 RMS(Cart)=  0.00000000 RMS(Int)=  0.00000000
 ITry= 1 IFail=0 DXMaxC= 1.04D-05 DCOld= 1.00D+10 DXMaxT= 3.00D-01 DXLimC= 3.00D+00 Rises=F
 Variable       Old X    -DE/DX   Delta X   Delta X   Delta X     New X
                                 (Linear)    (Quad)   (Total)
    R1        2.66968  -0.00000   0.00000  -0.00000  -0.00000   2.66967
    R2        2.58409  -0.00000   0.00000  -0.00000  -0.00000   2.58409
    R3        2.57255   0.00000   0.00000   0.00000   0.00000   2.57255
    R4        1.81729  -0.00000   0.00000  -0.00000  -0.00000   1.81729
    R5        2.06548  -0.00000   0.00000  -0.00000  -0.00000   2.06548
    R6        2.05367   0.00000   0.00000   0.00000   0.00000   2.05367
    R7        2.06849  -0.00000   0.00000  -0.00000  -0.00000   2.06849
    R8        2.50350   0.00000   0.00000   0.00000   0.00000   2.50350
    R9        2.05853  -0.00000   0.00000  -0.00000  -0.00000   2.05853
   R10        2.04186   0.00000   0.00000   0.00000   0.00000   2.04186
    A1        1.97247  -0.00000   0.00000  -0.00000  -0.00000   1.97247
    A2        1.91328   0.00000   0.00000   0.00000   0.00000   1.91328
    A3        1.93602   0.00000   0.00000   0.00000   0.00000   1.93602
    A4        1.87134   0.00000   0.00000   0.00000   0.00000   1.87134
    A5        1.93549  -0.00000   0.00000  -0.00000  -0.00000   1.93549
    A6        1.91438   0.00000   0.00000  -0.00000  -0.00000   1.91438
    A7        1.90058  -0.00000   0.00000  -0.00000  -0.00000   1.90058
    A8        1.90571   0.00000   0.00000  -0.00000  -0.00000   1.90571
    A9        2.11248   0.00000   0.00000   0.00000   0.00000   2.11248
   A10        2.03047  -0.00000   0.00000  -0.00000  -0.00000   2.03047
   A11        2.13941   0.00000   0.00000   0.00000   0.00000   2.13941
   A12        2.19770   0.00000   0.00000   0.00000   0.00000   2.19770
   A13        1.96888  -0.00000   0.00000  -0.00000  -0.00000   1.96888
   A14        2.11635  -0.00000   0.00000   0.00000   0.00000   2.11635
    D1        1.10532  -0.00000   0.00000  -0.00000  -0.00000   1.10531
    D2       -3.08798  -0.00000   0.00000  -0.00000  -0.00000  -3.08798
    D3       -1.00893  -0.00000   0.00000  -0.00000  -0.00000  -1.00893
    D4       -2.27482  -0.00000   0.00000  -0.00001  -0.00001  -2.27482
    D5        0.90918  -0.00000   0.00000  -0.00001  -0.00001   0.90917
    D6        0.00002   0.00000   0.00000   0.00000   0.00000   0.00002
    D7       -3.11727  -0.00000   0.00000   0.00000   0.00000  -3.11727
    D8       -3.06125   0.00000   0.00000   0.00000   0.00000  -3.06125
    D9        0.05414   0.00000   0.00000   0.00000   0.00000   0.05414
   D10        0.03525  -0.00000   0.00000  -0.00000  -0.00000   0.03525
   D11       -3.13255  -0.00000   0.00000  -0.00000  -0.00000  -3.13255
         Item               Value     Threshold  Converged?
 Maximum Force            0.000000     0.000015     YES
 RMS     Force            0.000000     0.000010     YES
 Maximum Displacement     0.000010     0.000060     YES
 RMS     Displacement     0.000004     0.000040     YES
 Predicted change in Energy=-3.400881D-13
 Optimization completed.
    -- Stationary point found.
                           ----------------------------
                           !   Optimized Parameters   !
                           ! (Angstroms and Degrees)  !
 --------------------------                            --------------------------
 ! Name  Definition              Value          Derivative Info.                !
 --------------------------------------------------------------------------------
 ! R1    R(1,3)                  1.4127         -DE/DX =    0.0                 !
 ! R2    R(1,4)                  1.3674         -DE/DX =    0.0                 !
 ! R3    R(2,5)                  1.3613         -DE/DX =    0.0                 !
 ! R4    R(2,11)                 0.9617         -DE/DX =    0.0                 !
 ! R5    R(3,6)                  1.093          -DE/DX =    0.0                 !
 ! R6    R(3,7)                  1.0868         -DE/DX =    0.0                 !
 ! R7    R(3,8)                  1.0946         -DE/DX =    0.0                 !
 ! R8    R(4,5)                  1.3248         -DE/DX =    0.0                 !
 ! R9    R(4,9)                  1.0893         -DE/DX =    0.0                 !
 ! R10   R(5,10)                 1.0805         -DE/DX =    0.0                 !
 ! A1    A(3,1,4)              113.0141         -DE/DX =    0.0                 !
 ! A2    A(5,2,11)             109.6227         -DE/DX =    0.0                 !
 ! A3    A(1,3,6)              110.9258         -DE/DX =    0.0                 !
 ! A4    A(1,3,7)              107.2199         -DE/DX =    0.0                 !
 ! A5    A(1,3,8)              110.8952         -DE/DX =    0.0                 !
 ! A6    A(6,3,7)              109.686          -DE/DX =    0.0                 !
 ! A7    A(6,3,8)              108.8952         -DE/DX =    0.0                 !
 ! A8    A(7,3,8)              109.189          -DE/DX =    0.0                 !
 ! A9    A(1,4,5)              121.0364         -DE/DX =    0.0                 !
 ! A10   A(1,4,9)              116.3376         -DE/DX =    0.0                 !
 ! A11   A(5,4,9)              122.579          -DE/DX =    0.0                 !
 ! A12   A(2,5,4)              125.9188         -DE/DX =    0.0                 !
 ! A13   A(2,5,10)             112.8087         -DE/DX =    0.0                 !
 ! A14   A(4,5,10)             121.2577         -DE/DX =    0.0                 !
 ! D1    D(4,1,3,6)             63.3299         -DE/DX =    0.0                 !
 ! D2    D(4,1,3,7)           -176.9285         -DE/DX =    0.0                 !
 ! D3    D(4,1,3,8)            -57.8075         -DE/DX =    0.0                 !
 ! D4    D(3,1,4,5)           -130.3374         -DE/DX =    0.0                 !
 ! D5    D(3,1,4,9)             52.092          -DE/DX =    0.0                 !
 ! D6    D(11,2,5,4)             0.001          -DE/DX =    0.0                 !
 ! D7    D(11,2,5,10)         -178.6065         -DE/DX =    0.0                 !
 ! D8    D(1,4,5,2)           -175.3965         -DE/DX =    0.0                 !
 ! D9    D(1,4,5,10)             3.1018         -DE/DX =    0.0                 !
 ! D10   D(9,4,5,2)              2.0197         -DE/DX =    0.0                 !
 ! D11   D(9,4,5,10)          -179.482          -DE/DX =    0.0                 !
 --------------------------------------------------------------------------------
 GradGradGradGradGradGradGradGradGradGradGradGradGradGradGradGradGradGrad

 Leave Link  103 at Sun Sep 29 00:10:02 2019, MaxMem=   671088640 cpu:             113.7 elap:              57.1
 (Enter /shared/centos7/gaussian/g16/l9999.exe)

 ----------------------------------------------------------------------

 Electric dipole moment (input orientation):
 (Debye = 10**-18 statcoulomb cm , SI units = C m)
                  (au)            (Debye)         (10**-30 SI)
   Tot        0.850857D+00      0.216266D+01      0.721387D+01
   x         -0.743357D+00     -0.188942D+01     -0.630244D+01
   y          0.283561D+00      0.720741D+00      0.240413D+01
   z         -0.301615D+00     -0.766629D+00     -0.255720D+01

 Dipole polarizability, Alpha (input orientation).
 (esu units = cm**3 , SI units = C**2 m**2 J**-1)
 Alpha(0;0):
               (au)            (10**-24 esu)      (10**-40 SI)
   iso        0.451720D+02      0.669379D+01      0.744785D+01
   aniso      0.264873D+02      0.392501D+01      0.436716D+01
   xx         0.567773D+02      0.841353D+01      0.936131D+01
   yx         0.873115D+01      0.129382D+01      0.143957D+01
   yy         0.464795D+02      0.688755D+01      0.766343D+01
   zx        -0.226237D+01     -0.335248D+00     -0.373014D+00
   zy        -0.969168D+00     -0.143616D+00     -0.159794D+00
   zz         0.322591D+02      0.478030D+01      0.531880D+01

 ----------------------------------------------------------------------

 Dipole orientation:
     8         -2.70813786         -0.03212574         -1.46227168
     8          1.80016895         -4.86330271         -3.29052646
     6         -2.56033522          1.51946139          0.70519144
     6         -1.20560178         -2.12883245         -1.30815373
     6          0.35030491         -2.74159105         -3.17126114
     1         -0.65326080          2.27664697          0.94174580
     1         -3.88937038          3.06249117          0.44007517
     1         -3.07692490          0.46189282          2.40616839
     1         -1.42304279         -3.28613031          0.38032091
     1          0.54599322         -1.55536683         -4.82164672
     1          1.52930010         -5.87196624         -1.80332426

 Electric dipole moment (dipole orientation):
 (Debye = 10**-18 statcoulomb cm , SI units = C m)
                  (au)            (Debye)         (10**-30 SI)
   Tot        0.850857D+00      0.216266D+01      0.721387D+01
   x          0.000000D+00      0.000000D+00      0.000000D+00
   y          0.000000D+00      0.000000D+00      0.000000D+00
   z          0.850857D+00      0.216266D+01      0.721387D+01

 Dipole polarizability, Alpha (dipole orientation).
 (esu units = cm**3 , SI units = C**2 m**2 J**-1)
 Alpha(0;0):
               (au)            (10**-24 esu)      (10**-40 SI)
   iso        0.451720D+02      0.669379D+01      0.744785D+01
   aniso      0.264873D+02      0.392501D+01      0.436716D+01
   xx         0.413152D+02      0.612228D+01      0.681196D+01
   yx        -0.981219D+01     -0.145402D+01     -0.161781D+01
   yy         0.479047D+02      0.709874D+01      0.789841D+01
   zx        -0.972132D+01     -0.144055D+01     -0.160283D+01
   zy         0.559218D+01      0.828676D+00      0.922026D+00
   zz         0.462960D+02      0.686036D+01      0.763318D+01

 ----------------------------------------------------------------------

 Test job not archived.
 1\1\GINC-C0325\Freq\RM062X\CC-pVTZ\C3H6O2\HARMS.N\29-Sep-2019\0\\#P Ge
 om=AllCheck Guess=TCheck SCRF=Check Test GenChk RM062X/CC-pVTZ Freq\\G
 aussian input prepared by ASE\\0,1\O,0.0541736192,-0.5503303404,1.5319
 891158\O,2.4902791174,1.9869881152,0.6426756518\C,-1.0902425135,-0.905
 009708,0.7834414408\C,0.5684768433,0.6663149779,1.1781958152\C,1.85890
 72752,0.8124002077,0.916425323\H,-0.8452475664,-1.0141884263,-0.276143
 8494\H,-1.4501727169,-1.8525261039,1.1754880926\H,-1.8756563049,-0.150
 0430172,0.8897022125\H,-0.1307161414,1.5015525271,1.1660876348\H,2.532
 1761774,-0.0326465011,0.926343909\H,1.8548901926,2.7084480675,0.666811
 2098\\Version=EM64L-G16RevA.03\State=1-A\HF=-268.3171465\RMSD=2.826e-0
 9\RMSF=2.005e-06\ZeroPoint=0.0903548\Thermal=0.0964586\Dipole=-0.74335
 67,0.2835613,-0.3016152\DipoleDeriv=-1.0390246,-0.3598835,-0.0774485,-
 0.6903679,-0.9441998,0.0550866,0.0130489,0.0650514,-0.4425287,-0.63501
 06,-0.3341547,0.0506035,-0.8365498,-1.0335788,0.1819967,0.1512342,0.13
 7187,-0.3923114,0.8105333,0.2223282,0.1346861,0.0781074,0.3542436,0.08
 3377,0.2634291,0.1802992,0.4402419,0.2022818,-0.0017076,-0.1229227,0.5
 887508,0.7298922,-0.1385642,-0.2819182,-0.2120513,-0.1413217,0.5628301
 ,0.2986654,-0.1095145,0.6845153,0.7996578,-0.2406808,-0.2093362,-0.168
 0701,-0.0268013,-0.0206867,-0.0137519,0.0832875,0.0075674,0.0462352,-0
 .0019361,-0.0539653,-0.0800503,-0.1433579,0.0041159,-0.0591682,-0.0049
 826,-0.0963233,-0.0775116,0.0398084,0.0133447,0.0646824,0.0406393,-0.0
 947361,0.0323628,-0.0112066,0.1459745,-0.0680687,-0.0185518,-0.0030941
 ,-0.0626262,0.0276176,-0.0034539,0.095149,0.0198755,0.0151519,-0.11196
 8,0.02208,0.0764106,0.0610859,0.1510454,0.0560907,0.0386073,0.0168923,
 0.0199377,-0.0145643,0.0219271,0.0118053,0.0263584,0.165605,0.15706,0.
 0815534,0.0207301,0.083236,0.3198624,-0.004543,0.0190409,-0.0118663,0.
 3211718\Polar=56.7773027,8.7311452,46.479485,-2.2623656,-0.9691679,32.
 259076\Quadrupole=-0.4738958,2.8002942,-2.3263984,-0.8347099,0.8093159
 ,0.7932943\PG=C01 [X(C3H6O2)]\NImag=0\\0.36959661,0.16468827,0.4026954
 9,0.10340209,-0.06377267,0.20413185,-0.01078369,-0.00684020,0.00382632
 ,0.43111115,-0.01218528,-0.01122335,0.00559505,-0.11389238,0.61866649,
 0.00384877,0.00087218,0.01361608,-0.06094848,-0.05613974,0.04798556,-0
 .18314068,-0.04053231,-0.07592794,0.00369980,0.00680651,0.00017336,0.5
 1336741,-0.01733886,-0.08666806,-0.00044172,-0.00014680,0.00033216,0.0
 0250465,-0.00131921,0.61034192,-0.09421692,-0.02118158,-0.12420885,0.0
 0304934,0.00277903,-0.00090827,-0.04601789,-0.03180625,0.55386766,-0.1
 1930069,-0.06157680,0.00620229,-0.01282448,-0.01400294,0.00689692,-0.0
 2805554,-0.04217308,0.00918069,0.89486796,-0.08527702,-0.26594991,0.05
 760712,-0.04371091,-0.00612782,0.01037720,-0.02334813,-0.02575363,-0.0
 0317631,0.00930109,0.60175757,0.02528594,0.08158520,-0.07013254,0.0079
 5664,0.00159558,0.00126004,-0.00477829,-0.01775985,0.00438912,-0.11937
 507,-0.08152446,0.16086381,-0.01069056,-0.01224345,0.00513892,-0.16070
 644,-0.11329034,0.03588882,-0.00006091,0.00194421,-0.00001357,-0.54963
 758,-0.01966941,0.09310702,0.90136715,-0.04234337,-0.00572489,0.006617
 93,-0.06619520,-0.27516277,0.04358162,-0.00310631,-0.00222312,0.003844
 01,-0.01995960,-0.12340710,0.01654750,-0.02308498,0.66429298,0.0137397
 2,0.00824945,-0.00448077,0.03201300,0.05255613,-0.05087103,-0.00270795
 ,-0.00199450,0.00001341,0.08881106,0.01220543,-0.06952025,-0.13509756,
 -0.07414643,0.15957646,-0.00293853,-0.01012686,-0.03892952,-0.00005007
 ,-0.00012516,0.00009782,-0.06934190,0.00686014,0.07279290,0.00403899,0
 .00427491,-0.00249758,-0.00064995,0.00048712,0.00095747,0.07504398,-0.
 00460284,-0.00054615,-0.01086372,0.00026006,0.00042101,0.00007016,0.00
 671358,-0.05621120,-0.01980395,0.00251876,0.00201809,-0.00202019,-0.00
 078536,-0.00015723,0.00055134,-0.00459776,0.05139668,-0.01121726,-0.00
 687423,-0.02167010,-0.00081898,-0.00129428,0.00000541,0.06671597,-0.02
 219544,-0.28478228,0.00118564,0.00379594,0.00096389,0.00005017,-0.0001
 1451,0.00040990,-0.06242517,0.02796805,0.31649203,-0.01721301,-0.03184
 807,0.00691136,-0.00078498,-0.00078672,0.00075997,-0.07300222,-0.06597
 033,0.03049291,-0.00437123,0.00096671,-0.00305636,0.00078386,-0.000996
 04,-0.00040844,-0.00158624,-0.00715710,0.00407129,0.08677456,-0.006089
 17,-0.00788577,0.00063399,-0.00041790,-0.00063375,0.00031427,-0.075036
 87,-0.25948644,0.08917896,-0.00181084,0.00167629,-0.00140594,0.0003605
 9,0.00013555,-0.00039123,0.00244846,0.00505294,-0.00130144,0.08688072,
 0.27833824,-0.01082349,-0.02167270,0.00642305,-0.00028590,-0.00006120,
 0.00032170,0.03707479,0.09791382,-0.09259569,-0.00294174,-0.00067630,-
 0.00056946,-0.00040398,-0.00093288,0.00029145,0.00833414,0.02711927,-0
 .00899695,-0.02976827,-0.09632264,0.09326723,-0.03593204,0.01061649,-0
 .00875091,-0.00041073,-0.00057566,-0.00003455,-0.16728081,0.12081482,0
 .02408891,0.00214671,0.00703010,-0.00110414,-0.00005124,-0.00090481,0.
 00039984,-0.00404614,0.00735723,0.00243772,0.00934784,-0.00646678,-0.0
 0124166,0.19592312,-0.00869542,0.00917805,0.00229880,0.00013807,0.0001
 9845,-0.00027743,0.12535920,-0.18210181,-0.02202430,-0.00222891,0.0040
 2718,-0.00024288,-0.00012638,-0.00016318,0.00015464,0.00118838,-0.0015
 8864,0.00045467,0.01930490,-0.01760986,-0.00523067,-0.13644885,0.18776
 575,-0.02403867,0.01176053,0.00043770,-0.00020809,-0.00022269,-0.00006
 250,0.02584802,-0.02494155,-0.05597786,0.00119656,0.00278409,-0.000497
 34,-0.00008220,-0.00030879,-0.00002026,0.02162633,-0.02269234,-0.00217
 088,-0.00885625,0.00915847,0.00217582,-0.01604690,0.02480497,0.0558743
 3,0.00927742,-0.01266023,-0.00035946,0.00248009,0.00095487,-0.00127625
 ,0.00420719,-0.00209737,0.00078174,-0.17687503,0.13024184,0.00419598,-
 0.01294698,0.02556554,-0.00005174,-0.00045761,0.00027115,0.00001167,0.
 00012647,0.00014606,0.00010996,0.00009579,0.00155156,0.00047332,0.1791
 6319,0.00977474,-0.03644141,0.00369313,0.00009966,0.00373735,-0.001142
 97,0.00553403,0.00173265,0.00291267,0.13162834,-0.19691324,0.00251441,
 -0.00371067,0.00260751,0.00116542,-0.00045255,-0.00032626,-0.00055897,
 -0.00055841,0.00030452,-0.00019662,-0.00149487,0.00050049,-0.00035752,
 -0.14134276,0.22462511,-0.00495002,0.01266646,0.00308466,-0.00097497,0
 .00002773,-0.00498337,-0.00031691,-0.00074533,-0.00014729,0.00431882,0
 .00133066,-0.03601363,0.00502608,-0.00527690,0.00670495,0.00027764,-0.
 00017573,-0.00019983,0.00007370,0.00014896,-0.00015752,0.00034777,-0.0
 0019750,0.00020030,-0.00623547,-0.00949071,0.02371963,0.00284926,0.000
 11327,-0.00187523,0.01352706,-0.01684860,0.00033908,-0.00056761,-0.000
 29741,-0.00001252,-0.01185896,0.02533297,-0.00016390,-0.18101086,0.148
 43714,0.00275408,-0.00003266,-0.00000238,0.00004638,-0.00002213,-0.000
 02638,-0.00005122,0.00028197,0.00000126,0.00006597,-0.00424147,-0.0010
 9561,0.00238364,0.18139610,0.00029002,0.00068221,-0.00105168,0.0150417
 5,-0.03009612,0.00185673,-0.00020583,0.00004146,-0.00012615,-0.0021138
 4,0.00552439,0.00123255,0.14275349,-0.22091442,0.00150644,0.00000524,-
 0.00000164,-0.00001080,-0.00000616,0.00000064,0.00001342,-0.00000363,-
 0.00012691,-0.00002761,-0.00130413,0.00033261,0.00148850,-0.15132412,0
 .24733107,-0.00074539,-0.00166450,-0.00597064,-0.00428244,0.00662153,0
 .00151717,-0.00015387,-0.00035516,-0.00000254,0.00512594,-0.00290434,0
 .00926190,0.00242030,0.00121476,-0.04155804,-0.00025563,-0.00009027,0.
 00002367,-0.00014892,0.00002452,-0.00010457,-0.00010199,0.00024074,0.0
 0002542,0.00199992,0.00180181,0.00767521,-0.00465271,-0.00647623,0.026
 53287,-0.00172409,0.00040988,0.00036207,-0.26525771,0.26394570,0.01425
 454,0.00017526,-0.00027611,-0.00012562,0.00186985,-0.00514213,0.000429
 75,0.01360351,-0.01789951,-0.00040947,0.00002015,0.00002466,-0.0000574
 3,-0.00005292,0.00001210,-0.00000262,-0.00007447,-0.00004382,0.0000219
 2,-0.00082905,0.00161810,0.00004972,-0.00032069,-0.00313280,0.00079478
 ,0.25259016,0.00177892,0.00188380,-0.00031622,0.21566383,-0.30011166,-
 0.00201667,-0.00086466,-0.00000392,-0.00059614,0.00041780,0.00314818,-
 0.00052193,0.02785229,-0.03928331,0.00014331,0.00003806,-0.00005760,0.
 00013101,0.00017050,0.00010765,0.00004649,0.00007596,-0.00007952,0.000
 04244,-0.00132651,-0.00015933,0.00022386,-0.00429013,-0.00277328,0.001
 58715,-0.23951607,0.33732899,-0.00028477,0.00003186,-0.00123045,0.0206
 7355,-0.01145714,-0.00788080,0.00009073,-0.00017868,0.00035261,-0.0006
 0111,0.00018097,-0.00000554,-0.00603400,0.00897370,-0.00054582,0.00002
 159,-0.00006264,-0.00007486,-0.00007099,-0.00003792,-0.00005506,0.0000
 0590,0.00001897,0.00001528,0.00035032,-0.00034067,0.00011691,0.0011664
 3,0.00159484,0.00259954,-0.01531765,0.00127670,0.00670820\\0.00000122,
 -0.00000172,-0.00000146,0.00000023,-0.00000045,-0.00000064,-0.00000088
 ,0.00000076,0.00000040,0.00000100,-0.00000079,0.00000053,0.00000039,-0
 .00000081,-0.00000230,-0.00000339,0.00000363,-0.00000059,-0.00000021,0
 .00000013,-0.00000136,-0.00000017,0.00000098,0.00000430,0.00000129,-0.
 00000053,0.00000445,-0.00000004,-0.00000113,-0.00000618,0.00000056,-0.
 00000008,0.00000284\\\@


 You can't act like a skunk without someone's getting wind of it.
 -- Lorene Workman
 Job cpu time:       0 days  1 hours  2 minutes 15.5 seconds.
 Elapsed time:       0 days  0 hours 31 minutes  8.9 seconds.
 File lengths (MBytes):  RWF=   1312 Int=      0 D2E=      0 Chk=     32 Scr=     32
 Normal termination of Gaussian 16 at Sun Sep 29 00:10:03 2019.
