 Entering Gaussian System, Link 0=g16
 Input=tight/species/COC=CO/conformers/COC=CO_2.com
 Output=tight/species/COC=CO/conformers/COC=CO_2.log
 Initial command:
 /shared/centos7/gaussian/g16/l1.exe "/scratch/harms.n/gauss_scrdir/Gau-25965.inp" -scrdir="/scratch/harms.n/gauss_scrdir/"
 Entering Link 1 = /shared/centos7/gaussian/g16/l1.exe PID=     25966.
  
 Copyright (c) 1988,1990,1992,1993,1995,1998,2003,2009,2016,
            Gaussian, Inc.  All Rights Reserved.
  
 This is part of the Gaussian(R) 16 program.  It is based on
 the Gaussian(R) 09 system (copyright 2009, Gaussian, Inc.),
 the Gaussian(R) 03 system (copyright 2003, Gaussian, Inc.),
 the Gaussian(R) 98 system (copyright 1998, Gaussian, Inc.),
 the Gaussian(R) 94 system (copyright 1995, Gaussian, Inc.),
 the Gaussian 92(TM) system (copyright 1992, Gaussian, Inc.),
 the Gaussian 90(TM) system (copyright 1990, Gaussian, Inc.),
 the Gaussian 88(TM) system (copyright 1988, Gaussian, Inc.),
 the Gaussian 86(TM) system (copyright 1986, Carnegie Mellon
 University), and the Gaussian 82(TM) system (copyright 1983,
 Carnegie Mellon University). Gaussian is a federally registered
 trademark of Gaussian, Inc.
  
 This software contains proprietary and confidential information,
 including trade secrets, belonging to Gaussian, Inc.
  
 This software is provided under written license and may be
 used, copied, transmitted, or stored only in accord with that
 written license.
  
 The following legend is applicable only to US Government
 contracts under FAR:
  
                    RESTRICTED RIGHTS LEGEND
  
 Use, reproduction and disclosure by the US Government is
 subject to restrictions as set forth in subparagraphs (a)
 and (c) of the Commercial Computer Software - Restricted
 Rights clause in FAR 52.227-19.
  
 Gaussian, Inc.
 340 Quinnipiac St., Bldg. 40, Wallingford CT 06492
  
  
 ---------------------------------------------------------------
 Warning -- This program may not be used in any manner that
 competes with the business of Gaussian, Inc. or will provide
 assistance to any competitor of Gaussian, Inc.  The licensee
 of this program is prohibited from giving any competitor of
 Gaussian, Inc. access to this program.  By using this program,
 the user acknowledges that Gaussian, Inc. is engaged in the
 business of creating and licensing software in the field of
 computational chemistry and represents and warrants to the
 licensee that it is not a competitor of Gaussian, Inc. and that
 it will not use this program in any manner prohibited above.
 ---------------------------------------------------------------
  

 Cite this work as:
 Gaussian 16, Revision A.03,
 M. J. Frisch, G. W. Trucks, H. B. Schlegel, G. E. Scuseria, 
 M. A. Robb, J. R. Cheeseman, G. Scalmani, V. Barone, 
 G. A. Petersson, H. Nakatsuji, X. Li, M. Caricato, A. V. Marenich, 
 J. Bloino, B. G. Janesko, R. Gomperts, B. Mennucci, H. P. Hratchian, 
 J. V. Ortiz, A. F. Izmaylov, J. L. Sonnenberg, D. Williams-Young, 
 F. Ding, F. Lipparini, F. Egidi, J. Goings, B. Peng, A. Petrone, 
 T. Henderson, D. Ranasinghe, V. G. Zakrzewski, J. Gao, N. Rega, 
 G. Zheng, W. Liang, M. Hada, M. Ehara, K. Toyota, R. Fukuda, 
 J. Hasegawa, M. Ishida, T. Nakajima, Y. Honda, O. Kitao, H. Nakai, 
 T. Vreven, K. Throssell, J. A. Montgomery, Jr., J. E. Peralta, 
 F. Ogliaro, M. J. Bearpark, J. J. Heyd, E. N. Brothers, K. N. Kudin, 
 V. N. Staroverov, T. A. Keith, R. Kobayashi, J. Normand, 
 K. Raghavachari, A. P. Rendell, J. C. Burant, S. S. Iyengar, 
 J. Tomasi, M. Cossi, J. M. Millam, M. Klene, C. Adamo, R. Cammi, 
 J. W. Ochterski, R. L. Martin, K. Morokuma, O. Farkas, 
 J. B. Foresman, and D. J. Fox, Gaussian, Inc., Wallingford CT, 2016.
 
 ******************************************
 Gaussian 16:  EM64L-G16RevA.03 25-Dec-2016
                29-Sep-2019 
 ******************************************
 %nprocshared=20
 Will use up to   20 processors via shared memory.
 %mem=5GB
 ----------------------------------------------------------------------
 #p m062x/cc-pVTZ opt=(calcfc,maxcycles=900,Tight) freq IOP(7/33=1,2/16
 =3) scf=(maxcycle=900)
 ----------------------------------------------------------------------
 1/6=900,7=10,10=4,18=20,19=15,26=3,38=1/1,3;
 2/9=110,12=2,16=3,17=6,18=5,40=1/2;
 3/5=16,6=1,11=2,25=1,30=1,71=2,74=-55,140=1/1,2,3;
 4//1;
 5/5=2,7=900,38=5/2;
 8/6=4,10=90,11=11/1;
 11/6=1,8=1,9=11,15=111,16=1/1,2,10;
 10/6=1,13=1/2;
 6/7=2,8=2,9=2,10=2,28=1/1;
 7/10=1,18=20,25=1,33=1/1,2,3,16;
 1/6=900,7=10,10=4,18=20,19=15,26=3/3(2);
 2/9=110,16=3/2;
 99//99;
 2/9=110,16=3/2;
 3/5=16,6=1,11=2,25=1,30=1,71=1,74=-55/1,2,3;
 4/5=5,16=3,69=1/1;
 5/5=2,7=900,38=5/2;
 7/33=1/1,2,3,16;
 1/6=900,7=10,18=20,19=15,26=3/3(-5);
 2/9=110,16=3/2;
 6/7=2,8=2,9=2,10=2,19=2,28=1/1;
 99/9=1/99;
 Leave Link    1 at Sun Sep 29 05:25:42 2019, MaxMem=   671088640 cpu:               4.5 elap:               2.3
 (Enter /shared/centos7/gaussian/g16/l101.exe)
 ------------------------------
 Gaussian input prepared by ASE
 ------------------------------
 Symbolic Z-matrix:
 Charge =  0 Multiplicity = 1
 O                    -0.31098  -0.33565   1.78316 
 O                     1.83024   0.88119   3.1467 
 C                    -1.25682  -0.84832   0.84193 
 C                     0.46679   0.66433   1.21333 
 C                     1.45407   1.22775   1.86814 
 H                    -1.90638  -1.59432   1.38414 
 H                    -1.90591  -0.02043   0.437 
 H                    -0.75192  -1.34474   0.01299 
 H                     0.1921    0.96453   0.20395 
 H                     2.05732   2.00667   1.45312 
 H                     1.19752   0.14087   3.43929 
 
 ITRead=  0  0  0  0  0  0  0  0  0  0  0
 MicOpt= -1 -1 -1 -1 -1 -1 -1 -1 -1 -1 -1
 NAtoms=     11 NQM=       11 NQMF=       0 NMMI=      0 NMMIF=      0
                NMic=       0 NMicF=      0.
                    Isotopes and Nuclear Properties:
 (Nuclear quadrupole moments (NQMom) in fm**2, nuclear magnetic moments (NMagM)
  in nuclear magnetons)

  Atom         1           2           3           4           5           6           7           8           9          10
 IAtWgt=          16          16          12          12          12           1           1           1           1           1
 AtmWgt=  15.9949146  15.9949146  12.0000000  12.0000000  12.0000000   1.0078250   1.0078250   1.0078250   1.0078250   1.0078250
 NucSpn=           0           0           0           0           0           1           1           1           1           1
 AtZEff=  -0.0000000  -0.0000000  -0.0000000  -0.0000000  -0.0000000  -0.0000000  -0.0000000  -0.0000000  -0.0000000  -0.0000000
 NQMom=    0.0000000   0.0000000   0.0000000   0.0000000   0.0000000   0.0000000   0.0000000   0.0000000   0.0000000   0.0000000
 NMagM=    0.0000000   0.0000000   0.0000000   0.0000000   0.0000000   2.7928460   2.7928460   2.7928460   2.7928460   2.7928460
 AtZNuc=   8.0000000   8.0000000   6.0000000   6.0000000   6.0000000   1.0000000   1.0000000   1.0000000   1.0000000   1.0000000

  Atom        11
 IAtWgt=           1
 AtmWgt=   1.0078250
 NucSpn=           1
 AtZEff=  -0.0000000
 NQMom=    0.0000000
 NMagM=    2.7928460
 AtZNuc=   1.0000000
 Leave Link  101 at Sun Sep 29 05:25:45 2019, MaxMem=   671088640 cpu:               5.7 elap:               2.9
 (Enter /shared/centos7/gaussian/g16/l103.exe)

 GradGradGradGradGradGradGradGradGradGradGradGradGradGradGradGradGradGrad
 Berny optimization.
 Initialization pass.
                           ----------------------------
                           !    Initial Parameters    !
                           ! (Angstroms and Degrees)  !
 --------------------------                            --------------------------
 ! Name  Definition              Value          Derivative Info.                !
 --------------------------------------------------------------------------------
 ! R1    R(1,3)                  1.4295         calculate D2E/DX2 analytically  !
 ! R2    R(1,4)                  1.3891         calculate D2E/DX2 analytically  !
 ! R3    R(2,5)                  1.3771         calculate D2E/DX2 analytically  !
 ! R4    R(2,11)                 1.0169         calculate D2E/DX2 analytically  !
 ! R5    R(3,6)                  1.128          calculate D2E/DX2 analytically  !
 ! R6    R(3,7)                  1.1272         calculate D2E/DX2 analytically  !
 ! R7    R(3,8)                  1.0902         calculate D2E/DX2 analytically  !
 ! R8    R(4,5)                  1.3119         calculate D2E/DX2 analytically  !
 ! R9    R(4,9)                  1.0883         calculate D2E/DX2 analytically  !
 ! R10   R(5,10)                 1.0691         calculate D2E/DX2 analytically  !
 ! A1    A(3,1,4)              111.0112         calculate D2E/DX2 analytically  !
 ! A2    A(5,2,11)             106.2852         calculate D2E/DX2 analytically  !
 ! A3    A(1,3,6)              107.5598         calculate D2E/DX2 analytically  !
 ! A4    A(1,3,7)              110.7398         calculate D2E/DX2 analytically  !
 ! A5    A(1,3,8)              110.9488         calculate D2E/DX2 analytically  !
 ! A6    A(6,3,7)              109.0744         calculate D2E/DX2 analytically  !
 ! A7    A(6,3,8)              109.3318         calculate D2E/DX2 analytically  !
 ! A8    A(7,3,8)              109.146          calculate D2E/DX2 analytically  !
 ! A9    A(1,4,5)              121.7221         calculate D2E/DX2 analytically  !
 ! A10   A(1,4,9)              115.9587         calculate D2E/DX2 analytically  !
 ! A11   A(5,4,9)              122.3049         calculate D2E/DX2 analytically  !
 ! A12   A(2,5,4)              124.1204         calculate D2E/DX2 analytically  !
 ! A13   A(2,5,10)             112.9343         calculate D2E/DX2 analytically  !
 ! A14   A(4,5,10)             122.9442         calculate D2E/DX2 analytically  !
 ! D1    D(4,1,3,6)           -175.697          calculate D2E/DX2 analytically  !
 ! D2    D(4,1,3,7)            -56.5963         calculate D2E/DX2 analytically  !
 ! D3    D(4,1,3,8)             64.769          calculate D2E/DX2 analytically  !
 ! D4    D(3,1,4,5)           -176.0272         calculate D2E/DX2 analytically  !
 ! D5    D(3,1,4,9)              5.3195         calculate D2E/DX2 analytically  !
 ! D6    D(11,2,5,4)            -0.3674         calculate D2E/DX2 analytically  !
 ! D7    D(11,2,5,10)         -179.9755         calculate D2E/DX2 analytically  !
 ! D8    D(1,4,5,2)              1.1864         calculate D2E/DX2 analytically  !
 ! D9    D(1,4,5,10)          -179.2436         calculate D2E/DX2 analytically  !
 ! D10   D(9,4,5,2)            179.7538         calculate D2E/DX2 analytically  !
 ! D11   D(9,4,5,10)            -0.6762         calculate D2E/DX2 analytically  !
 --------------------------------------------------------------------------------
 Trust Radius=3.00D-01 FncErr=1.00D-07 GrdErr=1.00D-06 EigMax=2.50D+02 EigMin=1.00D-04
 Number of steps in this run=    100 maximum allowed number of steps=    100.
 GradGradGradGradGradGradGradGradGradGradGradGradGradGradGradGradGradGrad

 Leave Link  103 at Sun Sep 29 05:25:45 2019, MaxMem=   671088640 cpu:               1.6 elap:               0.8
 (Enter /shared/centos7/gaussian/g16/l202.exe)
                          Input orientation:                          
 ---------------------------------------------------------------------
 Center     Atomic      Atomic             Coordinates (Angstroms)
 Number     Number       Type             X           Y           Z
 ---------------------------------------------------------------------
      1          8           0       -0.310985   -0.335647    1.783161
      2          8           0        1.830240    0.881187    3.146695
      3          6           0       -1.256821   -0.848321    0.841925
      4          6           0        0.466787    0.664326    1.213329
      5          6           0        1.454074    1.227755    1.868145
      6          1           0       -1.906381   -1.594316    1.384137
      7          1           0       -1.905908   -0.020427    0.436995
      8          1           0       -0.751920   -1.344744    0.012993
      9          1           0        0.192103    0.964534    0.203947
     10          1           0        2.057324    2.006673    1.453117
     11          1           0        1.197525    0.140867    3.439293
 ---------------------------------------------------------------------
                    Distance matrix (angstroms):
                    1          2          3          4          5
     1  O    0.000000
     2  O    2.815094   0.000000
     3  C    1.429464   4.222927   0.000000
     4  C    1.389094   2.375698   2.323116   0.000000
     5  C    2.359424   1.377063   3.565413   1.311858   0.000000
     6  H    2.070932   4.816333   1.128020   3.280635   4.414862
     7  H    2.110760   4.702572   1.127250   2.588680   3.859486
     8  H    2.084754   4.630595   1.090179   2.638639   3.863386
     9  H    2.106534   3.369007   2.406832   1.088314   2.105092
    10  H    3.347280   2.046093   4.416799   2.095043   1.069052
    11  H    2.290292   1.016866   3.707914   2.400605   1.927602
                    6          7          8          9         10
     6  H    0.000000
     7  H    1.836901   0.000000
     8  H    1.809725   1.807010   0.000000
     9  H    3.513431   2.329401   2.502081   0.000000
    10  H    5.355637   4.566054   4.604108   2.474981   0.000000
    11  H    4.107160   4.321007   4.212708   3.486655   2.857514
                   11
    11  H    0.000000
 Stoichiometry    C3H6O2
 Framework group  C1[X(C3H6O2)]
 Deg. of freedom    27
 Full point group                 C1      NOp   1
 Largest Abelian subgroup         C1      NOp   1
 Largest concise Abelian subgroup C1      NOp   1
                         Standard orientation:                         
 ---------------------------------------------------------------------
 Center     Atomic      Atomic             Coordinates (Angstroms)
 Number     Number       Type             X           Y           Z
 ---------------------------------------------------------------------
      1          8           0        0.790649   -0.459741   -0.047427
      2          8           0       -2.019970   -0.605760    0.014636
      3          6           0        2.173131   -0.105049    0.031966
      4          6           0       -0.016303    0.670380   -0.012252
      5          6           0       -1.325138    0.583115    0.005258
      6          1           0        2.774631   -1.052539   -0.081575
      7          1           0        2.450298    0.608623   -0.795405
      8          1           0        2.402857    0.355264    0.993126
      9          1           0        0.502741    1.626885   -0.023216
     10          1           0       -1.964755    1.439579    0.020483
     11          1           0       -1.321346   -1.344474   -0.000912
 ---------------------------------------------------------------------
 Rotational constants (GHZ):          17.6060778           2.8088176           2.4623168
 Leave Link  202 at Sun Sep 29 05:25:48 2019, MaxMem=   671088640 cpu:               4.7 elap:               2.4
 (Enter /shared/centos7/gaussian/g16/l301.exe)
 Standard basis: CC-pVTZ (5D, 7F)
 Ernie: Thresh=  0.10000D-02 Tol=  0.10000D-05 Strict=F.
 Ernie:  15 primitive shells out of 178 were deleted.
 There are   265 symmetry adapted cartesian basis functions of A   symmetry.
 There are   234 symmetry adapted basis functions of A   symmetry.
   234 basis functions,   362 primitive gaussians,   265 cartesian basis functions
    20 alpha electrons       20 beta electrons
       nuclear repulsion energy       175.2542680202 Hartrees.
 IExCor= 4336 DFT=T Ex+Corr=M062X ExCW=0 ScaHFX=  0.540000
 ScaDFX=  1.000000  1.000000  1.000000  1.000000 ScalE2=  1.000000  1.000000
 IRadAn=      5 IRanWt=     -1 IRanGd=            0 ICorTp=0 IEmpDi=  4
 NAtoms=   11 NActive=   11 NUniq=   11 SFac= 1.00D+00 NAtFMM=   60 NAOKFM=F Big=F
 Integral buffers will be    131072 words long.
 Raffenetti 2 integral format.
 Two-electron integral symmetry is turned on.
 Leave Link  301 at Sun Sep 29 05:25:49 2019, MaxMem=   671088640 cpu:               2.0 elap:               1.0
 (Enter /shared/centos7/gaussian/g16/l302.exe)
 NPDir=0 NMtPBC=     1 NCelOv=     1 NCel=       1 NClECP=     1 NCelD=      1
         NCelK=      1 NCelE2=     1 NClLst=     1 CellRange=     0.0.
 One-electron integrals computed using PRISM.
 One-electron integral symmetry used in STVInt
 NBasis=   234 RedAO= T EigKep=  2.69D-04  NBF=   234
 NBsUse=   234 1.00D-06 EigRej= -1.00D+00 NBFU=   234
 Precomputing XC quadrature grid using
 IXCGrd= 4 IRadAn=           5 IRanWt=          -1 IRanGd=           0 AccXCQ= 0.00D+00.
 Generated NRdTot=       0 NPtTot=           0 NUsed=           0 NTot=          32
 NSgBfM=   265   265   265   265   265 MxSgAt=    11 MxSgA2=    11.
 Leave Link  302 at Sun Sep 29 05:26:45 2019, MaxMem=   671088640 cpu:             112.7 elap:              56.4
 (Enter /shared/centos7/gaussian/g16/l303.exe)
 DipDrv:  MaxL=1.
 Leave Link  303 at Sun Sep 29 05:26:51 2019, MaxMem=   671088640 cpu:              11.9 elap:               6.0
 (Enter /shared/centos7/gaussian/g16/l401.exe)
 ExpMin= 1.03D-01 ExpMax= 1.53D+04 ExpMxC= 5.22D+02 IAcc=3 IRadAn=         5 AccDes= 0.00D+00
 Harris functional with IExCor= 1009 and IRadAn=       5 diagonalized for initial guess.
 HarFok:  IExCor= 1009 AccDes= 0.00D+00 IRadAn=         5 IDoV= 1 UseB2=F ITyADJ=14
 ICtDFT=  3500011 ScaDFX=  1.000000  1.000000  1.000000  1.000000
 FoFCou: FMM=F IPFlag=           0 FMFlag=      100000 FMFlg1=           0
         NFxFlg=           0 DoJE=T BraDBF=F KetDBF=T FulRan=T
         wScrn=  0.000000 ICntrl=       500 IOpCl=  0 I1Cent=   200000004 NGrid=           0
         NMat0=    1 NMatS0=      1 NMatT0=    0 NMatD0=    1 NMtDS0=    0 NMtDT0=    0
 Petite list used in FoFCou.
 Harris En= -268.202185454754    
 JPrj=0 DoOrth=F DoCkMO=F.
 Leave Link  401 at Sun Sep 29 05:27:17 2019, MaxMem=   671088640 cpu:              50.9 elap:              25.5
 (Enter /shared/centos7/gaussian/g16/l502.exe)
 Keep R1 ints in memory in canonical form, NReq=399924305.
 FoFCou: FMM=F IPFlag=           0 FMFlag=           0 FMFlg1=           0
         NFxFlg=           0 DoJE=F BraDBF=F KetDBF=F FulRan=T
         wScrn=  0.000000 ICntrl=       600 IOpCl=  0 I1Cent=           0 NGrid=           0
         NMat0=    1 NMatS0=  27495 NMatT0=    0 NMatD0=    1 NMtDS0=    0 NMtDT0=    0
 Symmetry not used in FoFCou.
 Two-electron integral symmetry not used.
 Closed shell SCF:
 Using DIIS extrapolation, IDIIS=  1040.
 NGot=   671088640 LenX=   292939207 LenY=   292868541
 Requested convergence on RMS density matrix=1.00D-08 within 900 cycles.
 Requested convergence on MAX density matrix=1.00D-06.
 Requested convergence on             energy=1.00D-06.
 No special actions if energy rises.
 Integral accuracy reduced to 1.0D-05 until final iterations.

 Cycle   1  Pass 0  IDiag  1:
 E= -268.194916955531    
 DIIS: error= 2.10D-02 at cycle   1 NSaved=   1.
 NSaved= 1 IEnMin= 1 EnMin= -268.194916955531     IErMin= 1 ErrMin= 2.10D-02
 ErrMax= 2.10D-02  0.00D+00 EMaxC= 1.00D-01 BMatC= 1.70D-01 BMatP= 1.70D-01
 IDIUse=3 WtCom= 7.90D-01 WtEn= 2.10D-01
 Coeff-Com:  0.100D+01
 Coeff-En:   0.100D+01
 Coeff:      0.100D+01
 Gap=     0.354 Goal=   None    Shift=    0.000
 GapD=    0.354 DampG=1.000 DampE=0.500 DampFc=0.5000 IDamp=-1.
 Damping current iteration by 5.00D-01
 RMSDP=2.02D-03 MaxDP=6.06D-02              OVMax= 1.23D-01

 Cycle   2  Pass 0  IDiag  1:
 E= -268.259436674620     Delta-E=       -0.064519719089 Rises=F Damp=T
 DIIS: error= 4.67D-03 at cycle   2 NSaved=   2.
 NSaved= 2 IEnMin= 2 EnMin= -268.259436674620     IErMin= 2 ErrMin= 4.67D-03
 ErrMax= 4.67D-03  0.00D+00 EMaxC= 1.00D-01 BMatC= 1.64D-02 BMatP= 1.70D-01
 IDIUse=3 WtCom= 9.53D-01 WtEn= 4.67D-02
 Coeff-Com: -0.181D+00 0.118D+01
 Coeff-En:   0.000D+00 0.100D+01
 Coeff:     -0.172D+00 0.117D+01
 Gap=     0.346 Goal=   None    Shift=    0.000
 RMSDP=4.26D-04 MaxDP=9.04D-03 DE=-6.45D-02 OVMax= 5.88D-02

 Cycle   3  Pass 0  IDiag  1:
 E= -268.315131736613     Delta-E=       -0.055695061993 Rises=F Damp=F
 DIIS: error= 3.62D-03 at cycle   3 NSaved=   3.
 NSaved= 3 IEnMin= 3 EnMin= -268.315131736613     IErMin= 3 ErrMin= 3.62D-03
 ErrMax= 3.62D-03  0.00D+00 EMaxC= 1.00D-01 BMatC= 4.03D-03 BMatP= 1.64D-02
 IDIUse=3 WtCom= 9.64D-01 WtEn= 3.62D-02
 Coeff-Com: -0.120D+00 0.408D+00 0.712D+00
 Coeff-En:   0.000D+00 0.000D+00 0.100D+01
 Coeff:     -0.116D+00 0.394D+00 0.722D+00
 Gap=     0.341 Goal=   None    Shift=    0.000
 RMSDP=1.97D-04 MaxDP=6.51D-03 DE=-5.57D-02 OVMax= 2.07D-02

 Cycle   4  Pass 0  IDiag  1:
 E= -268.317089785248     Delta-E=       -0.001958048635 Rises=F Damp=F
 DIIS: error= 1.81D-03 at cycle   4 NSaved=   4.
 NSaved= 4 IEnMin= 4 EnMin= -268.317089785248     IErMin= 4 ErrMin= 1.81D-03
 ErrMax= 1.81D-03  0.00D+00 EMaxC= 1.00D-01 BMatC= 9.62D-04 BMatP= 4.03D-03
 IDIUse=3 WtCom= 9.82D-01 WtEn= 1.81D-02
 Coeff-Com: -0.369D-01 0.916D-01 0.371D+00 0.575D+00
 Coeff-En:   0.000D+00 0.000D+00 0.198D+00 0.802D+00
 Coeff:     -0.363D-01 0.900D-01 0.367D+00 0.579D+00
 Gap=     0.336 Goal=   None    Shift=    0.000
 RMSDP=7.80D-05 MaxDP=2.81D-03 DE=-1.96D-03 OVMax= 8.52D-03

 Cycle   5  Pass 0  IDiag  1:
 E= -268.317825861566     Delta-E=       -0.000736076319 Rises=F Damp=F
 DIIS: error= 2.94D-04 at cycle   5 NSaved=   5.
 NSaved= 5 IEnMin= 5 EnMin= -268.317825861566     IErMin= 5 ErrMin= 2.94D-04
 ErrMax= 2.94D-04  0.00D+00 EMaxC= 1.00D-01 BMatC= 1.49D-05 BMatP= 9.62D-04
 IDIUse=3 WtCom= 9.97D-01 WtEn= 2.94D-03
 Coeff-Com: -0.576D-02 0.108D-01 0.840D-01 0.192D+00 0.719D+00
 Coeff-En:   0.000D+00 0.000D+00 0.000D+00 0.000D+00 0.100D+01
 Coeff:     -0.574D-02 0.108D-01 0.838D-01 0.191D+00 0.720D+00
 Gap=     0.336 Goal=   None    Shift=    0.000
 RMSDP=1.36D-05 MaxDP=4.76D-04 DE=-7.36D-04 OVMax= 1.79D-03

 Cycle   6  Pass 0  IDiag  1:
 E= -268.317837983221     Delta-E=       -0.000012121655 Rises=F Damp=F
 DIIS: error= 7.19D-05 at cycle   6 NSaved=   6.
 NSaved= 6 IEnMin= 6 EnMin= -268.317837983221     IErMin= 6 ErrMin= 7.19D-05
 ErrMax= 7.19D-05  0.00D+00 EMaxC= 1.00D-01 BMatC= 1.95D-06 BMatP= 1.49D-05
 IDIUse=1 WtCom= 1.00D+00 WtEn= 0.00D+00
 Coeff-Com: -0.115D-02 0.113D-02 0.249D-01 0.716D-01 0.352D+00 0.552D+00
 Coeff:     -0.115D-02 0.113D-02 0.249D-01 0.716D-01 0.352D+00 0.552D+00
 Gap=     0.336 Goal=   None    Shift=    0.000
 RMSDP=3.95D-06 MaxDP=1.39D-04 DE=-1.21D-05 OVMax= 4.90D-04

 Initial convergence to 1.0D-05 achieved.  Increase integral accuracy.
 Cycle   7  Pass 1  IDiag  1:
 E= -268.317849756600     Delta-E=       -0.000011773379 Rises=F Damp=F
 DIIS: error= 2.79D-05 at cycle   1 NSaved=   1.
 NSaved= 1 IEnMin= 1 EnMin= -268.317849756600     IErMin= 1 ErrMin= 2.79D-05
 ErrMax= 2.79D-05  0.00D+00 EMaxC= 1.00D-01 BMatC= 2.89D-07 BMatP= 2.89D-07
 IDIUse=1 WtCom= 1.00D+00 WtEn= 0.00D+00
 Coeff-Com:  0.100D+01
 Coeff:      0.100D+01
 Gap=     0.336 Goal=   None    Shift=    0.000
 RMSDP=3.95D-06 MaxDP=1.39D-04 DE=-1.18D-05 OVMax= 3.04D-04

 Cycle   8  Pass 1  IDiag  1:
 E= -268.317849847585     Delta-E=       -0.000000090985 Rises=F Damp=F
 DIIS: error= 2.47D-05 at cycle   2 NSaved=   2.
 NSaved= 2 IEnMin= 2 EnMin= -268.317849847585     IErMin= 2 ErrMin= 2.47D-05
 ErrMax= 2.47D-05  0.00D+00 EMaxC= 1.00D-01 BMatC= 2.07D-07 BMatP= 2.89D-07
 IDIUse=1 WtCom= 1.00D+00 WtEn= 0.00D+00
 Coeff-Com:  0.445D+00 0.555D+00
 Coeff:      0.445D+00 0.555D+00
 Gap=     0.336 Goal=   None    Shift=    0.000
 RMSDP=1.43D-06 MaxDP=4.72D-05 DE=-9.10D-08 OVMax= 1.88D-04

 Cycle   9  Pass 1  IDiag  1:
 E= -268.317849984248     Delta-E=       -0.000000136663 Rises=F Damp=F
 DIIS: error= 9.64D-06 at cycle   3 NSaved=   3.
 NSaved= 3 IEnMin= 3 EnMin= -268.317849984248     IErMin= 3 ErrMin= 9.64D-06
 ErrMax= 9.64D-06  0.00D+00 EMaxC= 1.00D-01 BMatC= 2.30D-08 BMatP= 2.07D-07
 IDIUse=1 WtCom= 1.00D+00 WtEn= 0.00D+00
 Coeff-Com: -0.312D-01 0.235D+00 0.796D+00
 Coeff:     -0.312D-01 0.235D+00 0.796D+00
 Gap=     0.336 Goal=   None    Shift=    0.000
 RMSDP=5.45D-07 MaxDP=1.54D-05 DE=-1.37D-07 OVMax= 6.42D-05

 Cycle  10  Pass 1  IDiag  1:
 E= -268.317850003791     Delta-E=       -0.000000019543 Rises=F Damp=F
 DIIS: error= 1.57D-06 at cycle   4 NSaved=   4.
 NSaved= 4 IEnMin= 4 EnMin= -268.317850003791     IErMin= 4 ErrMin= 1.57D-06
 ErrMax= 1.57D-06  0.00D+00 EMaxC= 1.00D-01 BMatC= 6.18D-10 BMatP= 2.30D-08
 IDIUse=1 WtCom= 1.00D+00 WtEn= 0.00D+00
 Coeff-Com: -0.189D-01 0.506D-01 0.251D+00 0.717D+00
 Coeff:     -0.189D-01 0.506D-01 0.251D+00 0.717D+00
 Gap=     0.336 Goal=   None    Shift=    0.000
 RMSDP=8.22D-08 MaxDP=2.62D-06 DE=-1.95D-08 OVMax= 9.26D-06

 Cycle  11  Pass 1  IDiag  1:
 E= -268.317850004294     Delta-E=       -0.000000000503 Rises=F Damp=F
 DIIS: error= 6.64D-07 at cycle   5 NSaved=   5.
 NSaved= 5 IEnMin= 5 EnMin= -268.317850004294     IErMin= 5 ErrMin= 6.64D-07
 ErrMax= 6.64D-07  0.00D+00 EMaxC= 1.00D-01 BMatC= 1.37D-10 BMatP= 6.18D-10
 IDIUse=1 WtCom= 1.00D+00 WtEn= 0.00D+00
 Coeff-Com: -0.445D-02-0.156D-01-0.389D-02 0.315D+00 0.709D+00
 Coeff:     -0.445D-02-0.156D-01-0.389D-02 0.315D+00 0.709D+00
 Gap=     0.336 Goal=   None    Shift=    0.000
 RMSDP=4.28D-08 MaxDP=1.18D-06 DE=-5.03D-10 OVMax= 2.73D-06

 Cycle  12  Pass 1  IDiag  1:
 E= -268.317850004403     Delta-E=       -0.000000000109 Rises=F Damp=F
 DIIS: error= 2.39D-07 at cycle   6 NSaved=   6.
 NSaved= 6 IEnMin= 6 EnMin= -268.317850004403     IErMin= 6 ErrMin= 2.39D-07
 ErrMax= 2.39D-07  0.00D+00 EMaxC= 1.00D-01 BMatC= 1.06D-11 BMatP= 1.37D-10
 IDIUse=1 WtCom= 1.00D+00 WtEn= 0.00D+00
 Coeff-Com:  0.159D-02-0.134D-01-0.395D-01 0.196D-02 0.250D+00 0.799D+00
 Coeff:      0.159D-02-0.134D-01-0.395D-01 0.196D-02 0.250D+00 0.799D+00
 Gap=     0.336 Goal=   None    Shift=    0.000
 RMSDP=1.38D-08 MaxDP=4.33D-07 DE=-1.09D-10 OVMax= 1.75D-06

 Cycle  13  Pass 1  IDiag  1:
 E= -268.317850004419     Delta-E=       -0.000000000015 Rises=F Damp=F
 DIIS: error= 4.15D-08 at cycle   7 NSaved=   7.
 NSaved= 7 IEnMin= 7 EnMin= -268.317850004419     IErMin= 7 ErrMin= 4.15D-08
 ErrMax= 4.15D-08  0.00D+00 EMaxC= 1.00D-01 BMatC= 8.49D-13 BMatP= 1.06D-11
 IDIUse=1 WtCom= 1.00D+00 WtEn= 0.00D+00
 Coeff-Com:  0.826D-03-0.481D-02-0.158D-01-0.115D-01 0.697D-01 0.323D+00
 Coeff-Com:  0.639D+00
 Coeff:      0.826D-03-0.481D-02-0.158D-01-0.115D-01 0.697D-01 0.323D+00
 Coeff:      0.639D+00
 Gap=     0.336 Goal=   None    Shift=    0.000
 RMSDP=3.36D-09 MaxDP=1.20D-07 DE=-1.55D-11 OVMax= 4.00D-07

 SCF Done:  E(RM062X) =  -268.317850004     A.U. after   13 cycles
            NFock= 13  Conv=0.34D-08     -V/T= 2.0062
 KE= 2.666635693325D+02 PE=-9.787965038434D+02 EE= 2.685608164863D+02
 Leave Link  502 at Sun Sep 29 05:32:51 2019, MaxMem=   671088640 cpu:             660.0 elap:             333.8
 (Enter /shared/centos7/gaussian/g16/l801.exe)
 DoSCS=F DFT=T ScalE2(SS,OS)=  1.000000  1.000000
 Range of M.O.s used for correlation:     1   234
 NBasis=   234 NAE=    20 NBE=    20 NFC=     0 NFV=     0
 NROrb=    234 NOA=    20 NOB=    20 NVA=   214 NVB=   214

 **** Warning!!: The largest alpha MO coefficient is  0.13913982D+02

 Leave Link  801 at Sun Sep 29 05:32:52 2019, MaxMem=   671088640 cpu:               2.1 elap:               1.1
 (Enter /shared/centos7/gaussian/g16/l1101.exe)
 Using compressed storage, NAtomX=    11.
 Will process     12 centers per pass.
 Leave Link 1101 at Sun Sep 29 05:33:15 2019, MaxMem=   671088640 cpu:              46.0 elap:              23.0
 (Enter /shared/centos7/gaussian/g16/l1102.exe)
 Symmetrizing basis deriv contribution to polar:
 IMax=3 JMax=2 DiffMx= 0.00D+00
 Leave Link 1102 at Sun Sep 29 05:33:17 2019, MaxMem=   671088640 cpu:               4.8 elap:               2.4
 (Enter /shared/centos7/gaussian/g16/l1110.exe)
 Forming Gx(P) for the SCF density, NAtomX=    11.
 Integral derivatives from FoFJK, PRISM(SPDF).
 Do as many integral derivatives as possible in FoFJK.
 G2DrvN: MDV=     671087712.
 G2DrvN: will do    12 centers at a time, making    1 passes.
 Calling FoFCou, ICntrl=  3107 FMM=F I1Cent=   0 AccDes= 0.00D+00.
 FoFJK:  IHMeth= 1 ICntrl=    3107 DoSepK=F KAlg= 0 I1Cent=           0 FoldK=F
 IRaf=         0 NMat=       1 IRICut=       1 DoRegI=T DoRafI=F ISym2E= 0 IDoP0=0 IntGTp=1.
 FoFCou: FMM=F IPFlag=           0 FMFlag=      100000 FMFlg1=           0
         NFxFlg=           0 DoJE=F BraDBF=F KetDBF=F FulRan=T
         wScrn=  0.000000 ICntrl=      3107 IOpCl=  0 I1Cent=           0 NGrid=           0
         NMat0=    1 NMatS0=      1 NMatT0=    0 NMatD0=    1 NMtDS0=    0 NMtDT0=    0
 Symmetry not used in FoFCou.
 End of G2Drv F.D. properties file   721 does not exist.
 End of G2Drv F.D. properties file   722 does not exist.
 End of G2Drv F.D. properties file   788 does not exist.
 Leave Link 1110 at Sun Sep 29 05:39:45 2019, MaxMem=   671088640 cpu:             775.7 elap:             387.9
 (Enter /shared/centos7/gaussian/g16/l1002.exe)
 Minotr:  Closed shell wavefunction.
          IDoAtm=11111111111
          Direct CPHF calculation.
          Differentiating once with respect to nuclear coordinates.
          Requested convergence is 1.0D-08 RMS, and 1.0D-07 maximum.
          Secondary convergence is 1.0D-12 RMS, and 1.0D-12 maximum.
          NewPWx=T KeepS1=F KeepF1=F KeepIn=T MapXYZ=F SortEE=F KeepMc=T.
         3279 words used for storage of precomputed grid.
 Keep R1 ints in memory in canonical form, NReq=399865278.
 FoFCou: FMM=F IPFlag=           0 FMFlag=           0 FMFlg1=           0
         NFxFlg=           0 DoJE=F BraDBF=F KetDBF=F FulRan=T
         wScrn=  0.000000 ICntrl=       600 IOpCl=  0 I1Cent=           0 NGrid=           0
         NMat0=    1 NMatS0=  27495 NMatT0=    0 NMatD0=    1 NMtDS0=    0 NMtDT0=    0
 Symmetry not used in FoFCou.
 Two-electron integral symmetry not used.
          MDV=     671088640 using IRadAn=       1.
          Solving linear equations simultaneously, MaxMat=       0.
          There are    36 degrees of freedom in the 1st order CPHF.  IDoFFX=6 NUNeed=     0.
     30 vectors produced by pass  0 Test12= 1.19D-14 2.78D-09 XBig12= 6.65D-02 9.80D-02.
 AX will form    30 AO Fock derivatives at one time.
     30 vectors produced by pass  1 Test12= 1.19D-14 2.78D-09 XBig12= 1.44D-02 3.64D-02.
     30 vectors produced by pass  2 Test12= 1.19D-14 2.78D-09 XBig12= 5.51D-04 5.01D-03.
     30 vectors produced by pass  3 Test12= 1.19D-14 2.78D-09 XBig12= 7.15D-06 3.28D-04.
     30 vectors produced by pass  4 Test12= 1.19D-14 2.78D-09 XBig12= 5.73D-08 3.81D-05.
     30 vectors produced by pass  5 Test12= 1.19D-14 2.78D-09 XBig12= 2.21D-10 1.91D-06.
     17 vectors produced by pass  6 Test12= 1.19D-14 2.78D-09 XBig12= 8.67D-13 1.55D-07.
      5 vectors produced by pass  7 Test12= 1.19D-14 2.78D-09 XBig12= 3.60D-15 1.01D-08.
 InvSVY:  IOpt=1 It=  1 EMax= 8.88D-16
 Solved reduced A of dimension   202 with    30 vectors.
 End of Minotr F.D. properties file   721 does not exist.
 End of Minotr F.D. properties file   722 does not exist.
 End of Minotr F.D. properties file   788 does not exist.
 Leave Link 1002 at Sun Sep 29 05:49:17 2019, MaxMem=   671088640 cpu:            1144.5 elap:             572.3
 (Enter /shared/centos7/gaussian/g16/l601.exe)
 Copying SCF densities to generalized density rwf, IOpCl= 0 IROHF=0.

 **********************************************************************

            Population analysis using the SCF density.

 **********************************************************************

 Orbital symmetries:
       Occupied  (A) (A) (A) (A) (A) (A) (A) (A) (A) (A) (A) (A)
                 (A) (A) (A) (A) (A) (A) (A) (A)
       Virtual   (A) (A) (A) (A) (A) (A) (A) (A) (A) (A) (A) (A)
                 (A) (A) (A) (A) (A) (A) (A) (A) (A) (A) (A) (A)
                 (A) (A) (A) (A) (A) (A) (A) (A) (A) (A) (A) (A)
                 (A) (A) (A) (A) (A) (A) (A) (A) (A) (A) (A) (A)
                 (A) (A) (A) (A) (A) (A) (A) (A) (A) (A) (A) (A)
                 (A) (A) (A) (A) (A) (A) (A) (A) (A) (A) (A) (A)
                 (A) (A) (A) (A) (A) (A) (A) (A) (A) (A) (A) (A)
                 (A) (A) (A) (A) (A) (A) (A) (A) (A) (A) (A) (A)
                 (A) (A) (A) (A) (A) (A) (A) (A) (A) (A) (A) (A)
                 (A) (A) (A) (A) (A) (A) (A) (A) (A) (A) (A) (A)
                 (A) (A) (A) (A) (A) (A) (A) (A) (A) (A) (A) (A)
                 (A) (A) (A) (A) (A) (A) (A) (A) (A) (A) (A) (A)
                 (A) (A) (A) (A) (A) (A) (A) (A) (A) (A) (A) (A)
                 (A) (A) (A) (A) (A) (A) (A) (A) (A) (A) (A) (A)
                 (A) (A) (A) (A) (A) (A) (A) (A) (A) (A) (A) (A)
                 (A) (A) (A) (A) (A) (A) (A) (A) (A) (A) (A) (A)
                 (A) (A) (A) (A) (A) (A) (A) (A) (A) (A) (A) (A)
                 (A) (A) (A) (A) (A) (A) (A) (A) (A) (A)
 The electronic state is 1-A.
 Alpha  occ. eigenvalues --  -19.65519 -19.64322 -10.60157 -10.58152 -10.57832
 Alpha  occ. eigenvalues --   -1.18504  -1.15216  -0.85851  -0.77854  -0.67734
 Alpha  occ. eigenvalues --   -0.60713  -0.58355  -0.54520  -0.50457  -0.48765
 Alpha  occ. eigenvalues --   -0.46581  -0.43552  -0.41998  -0.40142  -0.26842
 Alpha virt. eigenvalues --    0.06801   0.07775   0.08250   0.09804   0.13165
 Alpha virt. eigenvalues --    0.14362   0.15309   0.15561   0.20780   0.29022
 Alpha virt. eigenvalues --    0.30735   0.31646   0.33528   0.34670   0.35263
 Alpha virt. eigenvalues --    0.37840   0.40783   0.42882   0.43356   0.45283
 Alpha virt. eigenvalues --    0.46700   0.47487   0.48515   0.49324   0.52505
 Alpha virt. eigenvalues --    0.53797   0.55103   0.56032   0.60306   0.62814
 Alpha virt. eigenvalues --    0.64480   0.70484   0.71125   0.73935   0.74354
 Alpha virt. eigenvalues --    0.76723   0.82156   0.82430   0.83433   0.85528
 Alpha virt. eigenvalues --    0.88271   0.90481   0.93374   0.99411   1.00640
 Alpha virt. eigenvalues --    1.01525   1.04941   1.07429   1.09486   1.11110
 Alpha virt. eigenvalues --    1.12607   1.17297   1.19461   1.22213   1.25065
 Alpha virt. eigenvalues --    1.27794   1.29244   1.30960   1.32513   1.33796
 Alpha virt. eigenvalues --    1.35144   1.37886   1.39777   1.44711   1.48232
 Alpha virt. eigenvalues --    1.51720   1.53966   1.61022   1.71103   1.79159
 Alpha virt. eigenvalues --    1.86309   1.91253   1.93653   1.99976   2.01332
 Alpha virt. eigenvalues --    2.03414   2.10192   2.11753   2.13916   2.18130
 Alpha virt. eigenvalues --    2.20467   2.24503   2.25446   2.33663   2.34962
 Alpha virt. eigenvalues --    2.38890   2.44118   2.48435   2.53988   2.54346
 Alpha virt. eigenvalues --    2.63979   2.65484   2.71917   2.75286   2.76469
 Alpha virt. eigenvalues --    2.78664   2.79580   2.81017   2.84367   2.87217
 Alpha virt. eigenvalues --    2.89251   2.91637   2.94758   2.98403   2.99358
 Alpha virt. eigenvalues --    3.01000   3.01218   3.01900   3.08364   3.08590
 Alpha virt. eigenvalues --    3.11575   3.13591   3.14067   3.19885   3.20132
 Alpha virt. eigenvalues --    3.22168   3.25184   3.26664   3.28395   3.29789
 Alpha virt. eigenvalues --    3.31691   3.32693   3.34222   3.37525   3.37900
 Alpha virt. eigenvalues --    3.42404   3.43500   3.45107   3.49511   3.55033
 Alpha virt. eigenvalues --    3.58518   3.62563   3.66212   3.68762   3.69134
 Alpha virt. eigenvalues --    3.71095   3.73276   3.76953   3.78130   3.81873
 Alpha virt. eigenvalues --    3.82691   3.83220   3.86656   3.90108   3.93843
 Alpha virt. eigenvalues --    3.96973   4.00023   4.01124   4.02899   4.05228
 Alpha virt. eigenvalues --    4.09765   4.12824   4.17207   4.19917   4.26114
 Alpha virt. eigenvalues --    4.26844   4.29742   4.35287   4.43867   4.48629
 Alpha virt. eigenvalues --    4.51625   4.54951   4.59499   4.61131   4.69653
 Alpha virt. eigenvalues --    4.70278   4.75313   4.83589   4.85663   4.88713
 Alpha virt. eigenvalues --    4.92024   4.96767   4.98174   4.99652   5.02601
 Alpha virt. eigenvalues --    5.02971   5.09538   5.17732   5.19022   5.26887
 Alpha virt. eigenvalues --    5.39384   5.42941   5.48016   5.52326   5.65736
 Alpha virt. eigenvalues --    5.69454   5.71490   5.75733   5.77986   5.88542
 Alpha virt. eigenvalues --    5.92563   5.93793   6.16594   6.27606   6.32598
 Alpha virt. eigenvalues --    6.38822   6.50397   6.58992   6.67786   6.70034
 Alpha virt. eigenvalues --    6.76841   6.78657   6.81275   6.87137   7.02705
 Alpha virt. eigenvalues --    7.12781   7.24546   7.27665   7.38266  10.06425
 Alpha virt. eigenvalues --   10.78911  11.77749  12.87882  14.18819
          Condensed to atoms (all electrons):
               1          2          3          4          5          6
     1  O    7.896967  -0.001505   0.306339   0.321858  -0.077873  -0.028548
     2  O   -0.001505   7.794742  -0.000122  -0.085948   0.363449   0.000003
     3  C    0.306339  -0.000122   4.713650  -0.070149   0.000338   0.393091
     4  C    0.321858  -0.085948  -0.070149   5.000015   0.564732   0.008266
     5  C   -0.077873   0.363449   0.000338   0.564732   4.847175   0.000509
     6  H   -0.028548   0.000003   0.393091   0.008266   0.000509   0.577720
     7  H   -0.046432  -0.000062   0.396535  -0.011556  -0.000989  -0.028429
     8  H   -0.047511  -0.000079   0.396060  -0.002802   0.000980  -0.032619
     9  H   -0.055651   0.005302  -0.003088   0.380894  -0.052378  -0.000404
    10  H    0.002899  -0.035771  -0.000503  -0.074971   0.435217   0.000029
    11  H    0.017197   0.327074  -0.000751  -0.022061  -0.041074  -0.000124
               7          8          9         10         11
     1  O   -0.046432  -0.047511  -0.055651   0.002899   0.017197
     2  O   -0.000062  -0.000079   0.005302  -0.035771   0.327074
     3  C    0.396535   0.396060  -0.003088  -0.000503  -0.000751
     4  C   -0.011556  -0.002802   0.380894  -0.074971  -0.022061
     5  C   -0.000989   0.000980  -0.052378   0.435217  -0.041074
     6  H   -0.028429  -0.032619  -0.000404   0.000029  -0.000124
     7  H    0.679702  -0.078197   0.005980  -0.000088   0.000147
     8  H   -0.078197   0.661659   0.000397  -0.000044   0.000052
     9  H    0.005980   0.000397   0.614818  -0.006229   0.001493
    10  H   -0.000088  -0.000044  -0.006229   0.522936   0.006162
    11  H    0.000147   0.000052   0.001493   0.006162   0.432530
 Mulliken charges:
               1
     1  O   -0.287739
     2  O   -0.367081
     3  C   -0.131398
     4  C   -0.008278
     5  C   -0.040086
     6  H    0.110507
     7  H    0.083389
     8  H    0.102102
     9  H    0.108865
    10  H    0.150363
    11  H    0.279355
 Sum of Mulliken charges =  -0.00000
 Mulliken charges with hydrogens summed into heavy atoms:
               1
     1  O   -0.287739
     2  O   -0.087726
     3  C    0.164601
     4  C    0.100587
     5  C    0.110277
 APT charges:
               1
     1  O   -0.219365
     2  O   -0.298399
     3  C   -0.977707
     4  C   -0.323173
     5  C   -0.430239
     6  H    0.455796
     7  H    0.312685
     8  H    0.332864
     9  H    0.321743
    10  H    0.497835
    11  H    0.327960
 Sum of APT charges =  -0.00000
 APT charges with hydrogens summed into heavy atoms:
               1
     1  O   -0.219365
     2  O    0.029561
     3  C    0.123638
     4  C   -0.001430
     5  C    0.067597
 Electronic spatial extent (au):  <R**2>=            498.9008
 Charge=             -0.0000 electrons
 Dipole moment (field-independent basis, Debye):
    X=              2.3664    Y=              0.8086    Z=              0.0810  Tot=              2.5021
 Quadrupole moment (field-independent basis, Debye-Ang):
   XX=            -30.0558   YY=            -27.1134   ZZ=            -32.3697
   XY=             -1.1422   XZ=              0.1544   YZ=             -0.0286
 Traceless Quadrupole moment (field-independent basis, Debye-Ang):
   XX=             -0.2095   YY=              2.7329   ZZ=             -2.5234
   XY=             -1.1422   XZ=              0.1544   YZ=             -0.0286
 Octapole moment (field-independent basis, Debye-Ang**2):
  XXX=             16.8580  YYY=             -6.8750  ZZZ=              0.2354  XYY=             -4.2160
  XXY=              3.3171  XXZ=              0.0493  XZZ=              0.6112  YZZ=             -2.3037
  YYZ=             -0.2356  XYZ=             -0.1615
 Hexadecapole moment (field-independent basis, Debye-Ang**3):
 XXXX=           -499.2468 YYYY=            -93.5710 ZZZZ=            -39.7708 XXXY=            -20.2110
 XXXZ=              0.0034 YYYX=              4.7884 YYYZ=              0.1232 ZZZX=              0.6406
 ZZZY=              0.1400 XXYY=            -90.0404 XXZZ=            -90.1041 YYZZ=            -26.1451
 XXYZ=              0.3766 YYXZ=             -0.7039 ZZXY=              2.9787
 N-N= 1.752542680202D+02 E-N=-9.787964943724D+02  KE= 2.666635693325D+02
  Exact polarizability:   0.000   0.000   0.000   0.000   0.000   0.000
 Approx polarizability:  67.572   0.918  50.062  -0.268  -0.150  38.562
 No NMR shielding tensors so no spin-rotation constants.
 Leave Link  601 at Sun Sep 29 05:49:50 2019, MaxMem=   671088640 cpu:              64.4 elap:              32.2
 (Enter /shared/centos7/gaussian/g16/l701.exe)
 SCFChk:  SCF convergence  3.36D-09 required  1.00D-08
 ... and contract with generalized density number  0.
 Compute integral second derivatives.
 Entering OneElI...
 Calculate overlap and kinetic energy integrals
    NBasis = 265  MinDer = 2  MaxDer = 2
 Requested accuracy = 0.1000D-12
 PrmmSu-InSpLW:  IPartL=    0 NPrtUS=   20 NPrtUL=    1 DoSpLW=F IThBeg=    0 IThEnd=   19 NThAct=   20.
 PrsmSu:  NPrtUS=  20 ThrOK=T IAlg=1 NPAlg=1 LenDen=           0 ISkipM=0 DoSpLW=F IThBeg=    0 IThEnd=   19.
 Prism:   IPart=     0 DynPar=F LinDyn=F Incr=           1.
 PRISM was handed    33439718 working-precision words and  3733 shell-pairs
 PRISM was handed    33439718 working-precision words and  3733 shell-pairs
 PRISM was handed    33439718 working-precision words and  3733 shell-pairs
 PRISM was handed    33439718 working-precision words and  3733 shell-pairs
 PRISM was handed    33439718 working-precision words and  3733 shell-pairs
 PRISM was handed    33439718 working-precision words and  3733 shell-pairs
 PRISM was handed    33439718 working-precision words and  3733 shell-pairs
 PRISM was handed    33439718 working-precision words and  3733 shell-pairs
 PRISM was handed    33439718 working-precision words and  3733 shell-pairs
 PRISM was handed    33439718 working-precision words and  3733 shell-pairs
 PRISM was handed    33439718 working-precision words and  3733 shell-pairs
 PRISM was handed    33439718 working-precision words and  3733 shell-pairs
 PRISM was handed    33439718 working-precision words and  3733 shell-pairs
 PRISM was handed    33439718 working-precision words and  3733 shell-pairs
 PRISM was handed    33439718 working-precision words and  3733 shell-pairs
 PRISM was handed    33439718 working-precision words and  3733 shell-pairs
 IPart=  0 NShTot=         229 NBatch=          69 AvBLen=         3.3
 PRISM was handed    33439718 working-precision words and  3733 shell-pairs
 IPart=  2 NShTot=         214 NBatch=          54 AvBLen=         4.0
 IPart= 12 NShTot=         176 NBatch=          26 AvBLen=         6.8
 PRISM was handed    33439718 working-precision words and  3733 shell-pairs
 IPart= 16 NShTot=         169 NBatch=          25 AvBLen=         6.8
 IPart=  8 NShTot=         181 NBatch=          28 AvBLen=         6.5
 IPart=  4 NShTot=         204 NBatch=          48 AvBLen=         4.3
 PRISM was handed    33439718 working-precision words and  3733 shell-pairs
 IPart=  7 NShTot=         191 NBatch=          36 AvBLen=         5.3
 IPart=  3 NShTot=         212 NBatch=          53 AvBLen=         4.0
 PRISM was handed    33439718 working-precision words and  3733 shell-pairs
 IPart= 11 NShTot=         176 NBatch=          26 AvBLen=         6.8
 IPart=  6 NShTot=         194 NBatch=          39 AvBLen=         5.0
 IPart=  9 NShTot=         179 NBatch=          27 AvBLen=         6.6
 IPart= 18 NShTot=         163 NBatch=          25 AvBLen=         6.5
 IPart=  5 NShTot=         198 NBatch=          42 AvBLen=         4.7
 IPart= 19 NShTot=         162 NBatch=          25 AvBLen=         6.5
 IPart= 13 NShTot=         173 NBatch=          26 AvBLen=         6.7
 IPart= 10 NShTot=         177 NBatch=          27 AvBLen=         6.6
 IPart= 17 NShTot=         167 NBatch=          25 AvBLen=         6.7
 IPart= 14 NShTot=         173 NBatch=          26 AvBLen=         6.7
 IPart= 15 NShTot=         171 NBatch=          25 AvBLen=         6.8
 IPart=  1 NShTot=         224 NBatch=          64 AvBLen=         3.5
 PrSmSu:  NxtVal=             21.
 Entering OneElI...
 Calculate potential energy integrals
    NBasis = 265  MinDer = 2  MaxDer = 2
 Requested accuracy = 0.1000D-12
 PrmmSu-InSpLW:  IPartL=    0 NPrtUS=   20 NPrtUL=    1 DoSpLW=F IThBeg=    0 IThEnd=   19 NThAct=   20.
 PrsmSu:  NPrtUS=  20 ThrOK=T IAlg=1 NPAlg=1 LenDen=           0 ISkipM=0 DoSpLW=F IThBeg=    0 IThEnd=   19.
 Prism:   IPart=     0 DynPar=F LinDyn=F Incr=          19.
 PRISM was handed    33456782 working-precision words and  3495 shell-pairs
 PRISM was handed    33456782 working-precision words and  3495 shell-pairs
 PRISM was handed    33456782 working-precision words and  3495 shell-pairs
 PRISM was handed    33456782 working-precision words and  3495 shell-pairs
 PRISM was handed    33456782 working-precision words and  3495 shell-pairs
 PRISM was handed    33456782 working-precision words and  3495 shell-pairs
 PRISM was handed    33456782 working-precision words and  3495 shell-pairs
 PRISM was handed    33456782 working-precision words and  3495 shell-pairs
 PRISM was handed    33456782 working-precision words and  3495 shell-pairs
 PRISM was handed    33456782 working-precision words and  3495 shell-pairs
 PRISM was handed    33456782 working-precision words and  3495 shell-pairs
 PRISM was handed    33456782 working-precision words and  3495 shell-pairs
 PRISM was handed    33456782 working-precision words and  3495 shell-pairs
 PRISM was handed    33456782 working-precision words and  3495 shell-pairs
 PRISM was handed    33456782 working-precision words and  3495 shell-pairs
 PRISM was handed    33456782 working-precision words and  3495 shell-pairs
 PRISM was handed    33456782 working-precision words and  3495 shell-pairs
 PRISM was handed    33456782 working-precision words and  3495 shell-pairs
 PRISM was handed    33456782 working-precision words and  3495 shell-pairs
 PRISM was handed    33456782 working-precision words and  3495 shell-pairs
 IPart= 17 NShTot=        1760 NBatch=         160 AvBLen=        11.0
 IPart= 18 NShTot=        1738 NBatch=         158 AvBLen=        11.0
 IPart= 10 NShTot=        1848 NBatch=         168 AvBLen=        11.0
 IPart=  0 NShTot=        2343 NBatch=         213 AvBLen=        11.0
 IPart=  3 NShTot=        2101 NBatch=         191 AvBLen=        11.0
 IPart=  5 NShTot=        1925 NBatch=         175 AvBLen=        11.0
 IPart= 16 NShTot=        1760 NBatch=         160 AvBLen=        11.0
 IPart= 12 NShTot=        1837 NBatch=         167 AvBLen=        11.0
 IPart= 13 NShTot=        1837 NBatch=         167 AvBLen=        11.0
 IPart=  9 NShTot=        1859 NBatch=         169 AvBLen=        11.0
 IPart=  7 NShTot=        1892 NBatch=         172 AvBLen=        11.0
 IPart= 19 NShTot=        1716 NBatch=         156 AvBLen=        11.0
 IPart= 15 NShTot=        1804 NBatch=         164 AvBLen=        11.0
 IPart=  8 NShTot=        1881 NBatch=         171 AvBLen=        11.0
 IPart= 14 NShTot=        1837 NBatch=         167 AvBLen=        11.0
 IPart=  4 NShTot=        2068 NBatch=         188 AvBLen=        11.0
 IPart=  2 NShTot=        2211 NBatch=         201 AvBLen=        11.0
 IPart=  1 NShTot=        2277 NBatch=         207 AvBLen=        11.0
 IPart=  6 NShTot=        1903 NBatch=         173 AvBLen=        11.0
 IPart= 11 NShTot=        1848 NBatch=         168 AvBLen=        11.0
 PrSmSu:  NxtVal=            381.
 Polarizability after L701:
                1             2             3 
      1  0.000000D+00
      2  0.000000D+00  0.000000D+00
      3  0.000000D+00  0.000000D+00  0.000000D+00
 Dipole Derivatives after L701:
                 1             2             3             4             5 
      1  -0.242358D+00 -0.164115D-01  0.283119D-02  0.415253D+00 -0.118615D+00
      2   0.533654D-01 -0.145820D+00  0.700052D-02  0.542629D+00 -0.903706D+00
      3   0.227747D-02  0.150875D-01 -0.269918D+00 -0.245525D-02 -0.353538D-02
                 6             7             8             9            10 
      1  -0.173960D-01 -0.137753D+01 -0.103941D+00 -0.201644D-01 -0.334763D+00
      2  -0.116697D-01 -0.389935D-01 -0.754378D+00  0.772796D-02  0.149980D+00
      3  -0.406744D+00 -0.564573D-02  0.396756D-02 -0.801213D+00  0.691795D-02
                11            12            13            14            15 
      1  -0.977748D-01 -0.620309D-02 -0.739556D+00  0.279215D+00  0.337206D-01
      2  -0.700324D+00  0.574266D-03 -0.617037D-01 -0.597566D+00 -0.175183D-01
      3  -0.192717D-02  0.655681D-01  0.181197D-01 -0.771465D-02  0.464049D-01
                16            17            18            19            20 
      1   0.752840D+00 -0.923185D+00 -0.957166D-01  0.354143D+00  0.560260D+00
      2  -0.232385D+00  0.514433D+00  0.511676D-01  0.666732D-01  0.228614D+00
      3  -0.166240D-01  0.405632D-01  0.100116D+00 -0.532585D-01 -0.208952D+00
                21            22            23            24            25 
      1  -0.482226D+00  0.362809D+00  0.392381D+00  0.588346D+00  0.229308D+00
      2  -0.158639D+00  0.466747D-01  0.156582D+00  0.100343D+00  0.266598D+00
      3   0.355298D+00  0.651378D-01  0.162805D+00  0.479201D+00 -0.642750D-02
                26            27            28            29            30 
      1   0.187582D+00 -0.161790D-02  0.719357D+00 -0.697118D+00 -0.117656D-01
      2   0.689408D+00  0.409477D-02 -0.389365D+00  0.684723D+00  0.703373D-02
      3  -0.844972D-02  0.465123D-01 -0.830403D-02  0.777237D-02  0.894265D-01
                31            32            33 
      1  -0.139503D+00  0.537608D+00  0.101918D-01
      2  -0.403473D+00  0.828034D+00  0.988483D-02
      3   0.262085D-03  0.383390D-03  0.295349D+00
 Hessian after L701:
                1             2             3             4             5 
      1  0.280397D+01
      2  0.277246D+01  0.951427D+01
      3 -0.211856D+00 -0.258079D+00  0.148956D+02
      4  0.943597D+00  0.386973D-01 -0.338091D-01  0.733600D+01
      5 -0.609518D-01 -0.428086D+00  0.269852D-02 -0.165446D+01  0.429404D+01
      6 -0.355183D-01 -0.581218D-03 -0.484063D+00  0.121926D+00 -0.511567D-03
      7  0.791572D+00  0.184925D+01  0.431097D+00  0.199370D+00  0.220349D-01
      8  0.167992D+01 -0.649042D+01  0.139405D+00  0.468419D-01 -0.104527D+00
      9  0.420802D+00  0.142564D+00 -0.736402D+01  0.739738D-03 -0.684702D-04
     10 -0.463928D+01 -0.446611D+01 -0.708178D-01  0.572383D+00  0.178655D+00
     11 -0.449948D+01 -0.234972D+01  0.189010D+00  0.110394D+00 -0.229239D+00
     12 -0.747243D-01  0.178569D+00 -0.801184D+01 -0.509415D-02 -0.461607D-02
     13  0.254232D+00  0.285241D-01 -0.250072D-01 -0.600432D+01  0.368948D+01
     14  0.171623D+00 -0.347209D+00  0.262066D-02  0.396446D+01 -0.112062D+01
     15 -0.123520D-01  0.907767D-04  0.173381D+00 -0.318196D-01 -0.501531D-01
     16 -0.999286D-01 -0.112826D+00 -0.312901D-01  0.386303D-01 -0.839084D-02
     17 -0.176528D+00  0.147324D+00  0.189260D-01 -0.257165D-01 -0.392814D-02
     18 -0.330078D-01  0.182501D-01  0.193193D-01 -0.315937D-02  0.844399D-03
     19 -0.202909D+00 -0.126834D+00 -0.163623D+00  0.257986D-01  0.656810D-02
     20 -0.790522D-01  0.109128D+00 -0.171235D+00  0.241155D-01 -0.937187D-02
     21 -0.126763D+00 -0.142347D+00  0.336394D+00 -0.212835D-01 -0.227473D-02
     22 -0.250843D+00 -0.148349D+00  0.108571D+00  0.261096D-01  0.511129D-02
     23 -0.104107D+00  0.744786D-01  0.108455D+00  0.179287D-01 -0.113206D-01
     24  0.773377D-01  0.821017D-01  0.430317D+00  0.268317D-01  0.134474D-02
     25  0.190264D+00  0.180822D+00  0.356060D-02  0.738394D-01  0.105608D+00
     26  0.195159D+00 -0.170944D+00 -0.311311D-01  0.138367D+00  0.596406D-01
     27  0.267978D-02 -0.220446D-01  0.182671D+00 -0.149814D-02 -0.120316D-02
     28  0.871972D-01 -0.869444D-01 -0.335909D-02  0.105915D+00 -0.116865D+00
     29 -0.100367D+00  0.290083D-01  0.234373D-02 -0.740382D-01 -0.176375D+00
     30 -0.262889D-02  0.211963D-02 -0.317792D-01 -0.115868D-02  0.262670D-02
     31  0.122127D+00  0.713119D-01 -0.346772D-02 -0.331732D+01 -0.216679D+01
     32  0.201318D+00 -0.878249D-01 -0.301383D-02 -0.258659D+01 -0.227021D+01
     33 -0.396922D-02 -0.644728D-03 -0.145946D+00 -0.516745D-01  0.513127D-01
                6             7             8             9            10 
      6  0.139952D+02
      7  0.692051D-03  0.731680D+01
      8  0.306013D-03 -0.129300D+01  0.140403D+02
      9 -0.106737D+00 -0.374421D+00 -0.402364D-01  0.148422D+02
     10 -0.826825D-02  0.235150D+00 -0.163125D+00  0.791600D-02  0.726053D+01
     11 -0.727733D-02 -0.208753D+00 -0.849222D-01 -0.130281D-01  0.295786D+01
     12  0.284241D+00  0.141892D-02 -0.129893D-01 -0.633703D-01  0.191399D+00
     13 -0.251535D-01  0.297314D+00 -0.118284D+00  0.138278D-02 -0.448237D-01
     14 -0.504844D-01 -0.912347D-01 -0.127204D+00 -0.144311D-02  0.491390D+00
     15 -0.820423D+01  0.210348D-02 -0.223493D-02 -0.119564D+00 -0.150763D+00
     16 -0.830208D-03 -0.247660D+01 -0.110056D+01 -0.124352D+00  0.850173D-01
     17  0.733528D-03 -0.982289D+00 -0.184005D+01  0.158759D+00 -0.110254D+00
     18 -0.102928D-01 -0.108470D+00  0.153560D+00 -0.323545D+01 -0.724302D-02
     19 -0.607992D-02 -0.307755D+01  0.605508D+00 -0.678039D+00  0.403593D-01
     20 -0.413911D-02  0.474014D+00 -0.235193D+01 -0.109465D+01  0.249480D-01
     21 -0.606952D-02 -0.533444D+00 -0.108412D+01 -0.211760D+01  0.127293D-01
     22  0.740786D-02 -0.328167D+01  0.363933D+00  0.739702D+00  0.499325D-01
     23  0.327467D-02  0.278614D+00 -0.305405D+01  0.855303D+00  0.251664D-02
     24 -0.470583D-02  0.574177D+00  0.850865D+00 -0.176806D+01  0.152245D-01
     25 -0.319437D-02 -0.769004D-02 -0.164569D-01  0.628359D-02 -0.336197D+01
     26 -0.326924D-02 -0.553473D-01  0.105512D-01 -0.733800D-02  0.929491D+00
     27 -0.379541D-01  0.605604D-02 -0.452103D-02 -0.483860D-01 -0.288446D-02
     28 -0.127856D-02  0.129520D-01 -0.934116D-02 -0.178718D-04 -0.220574D+00
     29  0.294739D-02 -0.153635D-01  0.106415D-02  0.216272D-03  0.186740D+00
     30  0.595088D-01  0.701120D-04 -0.259254D-03 -0.768712D-02  0.126216D-01
     31 -0.497025D-01 -0.966042D-02  0.455577D-02  0.327642D-05  0.232771D-01
     32  0.590012D-01  0.220783D-01  0.116091D-02 -0.773927D-04 -0.321074D-01
     33 -0.548486D+01  0.720301D-03  0.229062D-03 -0.113492D-01  0.858269D-04
               11            12            13            14            15 
     11  0.129809D+02
     12 -0.163010D+00  0.237929D+02
     13  0.843021D+00 -0.146881D+00  0.840064D+01
     14 -0.866992D+01  0.116505D-01 -0.303781D+01  0.124569D+02
     15  0.121913D-01 -0.123352D+02  0.183404D+00  0.393472D-02  0.241874D+02
     16 -0.117397D+00 -0.533436D-02  0.381708D-01 -0.114414D-01 -0.513540D-03
     17  0.408449D-01  0.469699D-02 -0.327535D-01 -0.886731D-03  0.583112D-03
     18  0.586393D-02 -0.455275D-01 -0.233688D-02  0.834253D-03 -0.104174D-01
     19  0.176742D-01  0.533672D-01  0.263198D-01  0.227416D-02  0.114628D-01
     20 -0.100098D-01 -0.100780D-01  0.126164D-01 -0.898141D-02 -0.121575D-02
     21 -0.148607D-01 -0.243660D-01 -0.878728D-02 -0.357663D-02 -0.136537D-01
     22 -0.654837D-02 -0.260995D-01  0.515804D-01 -0.163168D-02 -0.188064D-02
     23 -0.314053D-01  0.721216D-02  0.494728D-02 -0.146540D-01  0.118420D-02
     24  0.456516D-02 -0.345701D-01  0.228497D-01  0.231674D-02 -0.153193D-01
     25  0.856457D+00 -0.124092D-02 -0.221831D+00 -0.257744D+00  0.212110D-01
     26 -0.166893D+01 -0.412770D-02 -0.287936D+00  0.298725D-01  0.147453D-01
     27 -0.901518D-02 -0.380018D+01  0.199874D-01  0.102663D-01  0.142665D+00
     28  0.162379D+00  0.138803D-01 -0.288338D+01 -0.122186D+01 -0.210731D-01
     29  0.173082D+00 -0.665065D-02 -0.126250D+01 -0.229858D+01  0.257591D-01
     30 -0.454329D-02  0.179651D+00 -0.201885D-01  0.241647D-01 -0.387041D+01
     31 -0.115604D+00 -0.691647D-03  0.860941D-01 -0.803273D-02  0.220227D-03
     32 -0.150663D+00 -0.657605D-03  0.160696D+00  0.101310D+00 -0.488472D-02
     33  0.103988D-03  0.582958D-01  0.729837D-03 -0.283767D-03  0.653719D-01
               16            17            18            19            20 
     16  0.225213D+01
     17  0.127074D+01  0.184732D+01
     18  0.139535D+00 -0.130580D+00  0.326059D+01
     19  0.753093D-01  0.274572D-01 -0.245031D-01  0.281708D+01
     20  0.381937D-01 -0.119624D+00  0.101596D+00 -0.491522D+00  0.215734D+01
     21 -0.272008D-01  0.849852D-01  0.402163D-01  0.761115D+00  0.105366D+01
     22  0.885936D-01  0.311661D-01  0.392906D-01  0.256966D+00  0.156831D-01
     23  0.471698D-01 -0.782335D-01 -0.150857D+00  0.242450D-02  0.245633D+00
     24  0.501652D-01 -0.138511D+00 -0.141946D-01  0.688444D-01  0.119847D+00
     25 -0.342369D-02  0.212850D-02  0.211297D-03  0.335980D-01 -0.220506D-01
     26 -0.634609D-02  0.835735D-02  0.587751D-03 -0.465394D-01 -0.134902D-01
     27 -0.171497D-03  0.311976D-03 -0.226929D-02 -0.209361D-01  0.673680D-02
     28  0.478481D-02 -0.564346D-02 -0.474085D-03  0.359537D-02  0.248307D-02
     29 -0.559029D-02  0.459642D-02  0.471827D-03 -0.370540D-02 -0.335648D-02
     30 -0.101549D-03  0.121538D-03 -0.956212D-03 -0.889501D-03  0.365478D-04
     31 -0.269104D-02  0.169622D-02  0.157230D-03  0.143128D-02  0.571251D-03
     32  0.644723D-02 -0.572553D-02 -0.570747D-03  0.669426D-02  0.465855D-02
     33  0.940965D-04 -0.256340D-04 -0.101255D-02 -0.718897D-03 -0.554224D-03
               21            22            23            24            25 
     21  0.225823D+01
     22 -0.296229D-01  0.305210D+01
     23  0.871420D-01 -0.245917D+00  0.287223D+01
     24 -0.454722D+00 -0.844411D+00 -0.910972D+00  0.186616D+01
     25 -0.234851D-01  0.297131D-02 -0.477051D-02  0.526048D-02  0.334753D+01
     26  0.227500D-01 -0.152990D-01 -0.340689D-02 -0.129816D-01 -0.857147D+00
     27 -0.166375D-01  0.519692D-02 -0.111957D-02 -0.369989D-02 -0.972584D-02
     28 -0.357976D-02  0.416877D-02  0.116392D-02  0.447764D-02 -0.518846D-01
     29  0.313772D-02 -0.392474D-02 -0.235249D-02 -0.397703D-02 -0.679037D-02
     30 -0.796148D-03  0.106366D-02 -0.164585D-03 -0.693672D-03  0.117642D-02
     31  0.322903D-03  0.863169D-04  0.302370D-04 -0.756974D-03 -0.140235D-02
     32 -0.448838D-02  0.577677D-02  0.307697D-02  0.540098D-02  0.199436D-01
     33 -0.986578D-03  0.781421D-03  0.542406D-03 -0.506868D-03 -0.572435D-04
               26            27            28            29            30 
     26  0.171157D+01
     27  0.207146D-01  0.358508D+01
     28 -0.389569D-02  0.139895D-02  0.294812D+01
     29  0.872410D-02 -0.274834D-05  0.132182D+01  0.216837D+01
     30  0.104969D-03  0.548399D-02  0.103540D-01 -0.253508D-01  0.368757D+01
     31  0.949315D-02 -0.103056D-03 -0.108951D-01 -0.362788D-01 -0.318610D-03
     32  0.280528D-01 -0.123352D-03 -0.432977D-01  0.958140D-01  0.114386D-02
     33 -0.550111D-04 -0.677737D-02 -0.328445D-03  0.110523D-02 -0.198904D-01
               31            32            33 
     31  0.310896D+01
     32  0.223904D+01  0.228035D+01
     33  0.543368D-01 -0.517300D-01  0.554766D+01
 Leave Link  701 at Sun Sep 29 05:50:11 2019, MaxMem=   671088640 cpu:              41.7 elap:              20.9
 (Enter /shared/centos7/gaussian/g16/l702.exe)
 L702 exits ... SP integral derivatives will be done elsewhere.
 Leave Link  702 at Sun Sep 29 05:50:11 2019, MaxMem=   671088640 cpu:               1.3 elap:               0.7
 (Enter /shared/centos7/gaussian/g16/l703.exe)
 Integral derivatives from FoFJK, PRISM(SPDF).
 Compute integral second derivatives, UseDBF=F ICtDFT=           0.
 ICntrl=    100147.
 Calling FoFJK, ICntrl=    100147 FMM=F ISym2X=0 I1Cent= 0 IOpClX= 0 NMat=1 NMatS=1 NMatT=0.
 FoFJK:  IHMeth= 1 ICntrl=  100147 DoSepK=F KAlg= 0 I1Cent=           0 FoldK=F
 IRaf=         0 NMat=       1 IRICut=       1 DoRegI=T DoRafI=F ISym2E= 0 IDoP0=0 IntGTp=1.
 FoFCou: FMM=F IPFlag=           0 FMFlag=      100000 FMFlg1=         800
         NFxFlg=           0 DoJE=F BraDBF=F KetDBF=F FulRan=T
         wScrn=  0.000000 ICntrl=    100147 IOpCl=  0 I1Cent=           0 NGrid=           0
         NMat0=    1 NMatS0=      1 NMatT0=    0 NMatD0=    1 NMtDS0=    0 NMtDT0=    0
 Symmetry not used in FoFCou.
 FoFCou:  KetSym=F NOpSet=  1 NOpAb=1 NOp=  1.
 FoFCou:  CnvScl= 1.00D+00 Thresh= 1.00D-08 IAcrcy=      12.
 PrismS was handed   670744311 working-precision words and  3616 shell-pairs
 FoFCou: LinMIO=F DoNuc=F BraDBF=F KetDBF=F HaveP=T PDBF=F HaveZ=T HaveW=F
         NIJTC =      10 NIJTAt=       0 NIJTCD=       0 NIJTT =      10
         IJTBeg=       1 IJTEnd=      10 KLTBeg=       1 KLTEnd=      10
         IPTBeg=       1 IPTEnd=      10 IPTBCv=       1 IPTECv=      10
         IZTBeg=       1 IZTEnd=      10 IZTBCv=       1 IZTECv=      10
         IWTBeg=      11 IWTEnd=      10 IWTBCv=      11 IWTECv=      10
         INTBeg=       1 INTEnd=       0 IFTBCv=       1 IFTECv=      10
 NCel replicated for PrismC:     1
 CoulSu-InSpLW:  IPartL=    0 NPrtUS=   20 NPrtUL=    1 DoSpLW=F IThBeg=    0 IThEnd=   19 NThAct=   20.
 CoulSu:  IncDef=  1024 NBBP=        6539536 NTPThr=   100 NPartT=   20 Incr=        1024 LDynOK=F GPUOK=T.
 CoulSu:  NPrtUS=  20 ThrOK=T IAlg=1 NPAlg=1 LenDen=           0 LWGrdD=           0 DoCopy=F ISkipM=0
          DoSpLW=F IThBeg=    0 IThEnd=   19.
 Enter PrismC:  IPart=  0 JobTyp=22 DoJE=F Cont=F.
 Enter PrismC:  IPart=  4 JobTyp=22 DoJE=F Cont=F.
 PrismC:  IPart=     4 DynPar=T LinDyn=F Incr=        1024 UseFst=F UseS4=T ISplat=2.
 PrismC was handed    33458184 working-precision words and  3616 shell-pairs
 PrismC:  IPart=     0 DynPar=T LinDyn=F Incr=        1024 UseFst=F UseS4=T ISplat=2.
 PrismC was handed    33458184 working-precision words and  3616 shell-pairs
 Enter PrismC:  IPart= 12 JobTyp=22 DoJE=F Cont=F.
 PrismC:  IPart=    12 DynPar=T LinDyn=F Incr=        1024 UseFst=F UseS4=T ISplat=2.
 PrismC was handed    33458184 working-precision words and  3616 shell-pairs
 Enter PrismC:  IPart=  2 JobTyp=22 DoJE=F Cont=F.
 PrismC:  IPart=     2 DynPar=T LinDyn=F Incr=        1024 UseFst=F UseS4=T ISplat=2.
 PrismC was handed    33458184 working-precision words and  3616 shell-pairs
 Enter PrismC:  IPart=  1 JobTyp=22 DoJE=F Cont=F.
 PrismC:  IPart=     1 DynPar=T LinDyn=F Incr=        1024 UseFst=F UseS4=T ISplat=2.
 PrismC was handed    33458184 working-precision words and  3616 shell-pairs
 Enter PrismC:  IPart= 10 JobTyp=22 DoJE=F Cont=F.
 PrismC:  IPart=    10 DynPar=T LinDyn=F Incr=        1024 UseFst=F UseS4=T ISplat=2.
 PrismC was handed    33458184 working-precision words and  3616 shell-pairs
 Enter PrismC:  IPart=  8 JobTyp=22 DoJE=F Cont=F.
 PrismC:  IPart=     8 DynPar=T LinDyn=F Incr=        1024 UseFst=F UseS4=T ISplat=2.
 PrismC was handed    33458184 working-precision words and  3616 shell-pairs
 Enter PrismC:  IPart= 16 JobTyp=22 DoJE=F Cont=F.
 PrismC:  IPart=    16 DynPar=T LinDyn=F Incr=        1024 UseFst=F UseS4=T ISplat=2.
 PrismC was handed    33458184 working-precision words and  3616 shell-pairs
 Enter PrismC:  IPart= 15 JobTyp=22 DoJE=F Cont=F.
 PrismC:  IPart=    15 DynPar=T LinDyn=F Incr=        1024 UseFst=F UseS4=T ISplat=2.
 PrismC was handed    33458184 working-precision words and  3616 shell-pairs
 Enter PrismC:  IPart= 11 JobTyp=22 DoJE=F Cont=F.
 PrismC:  IPart=    11 DynPar=T LinDyn=F Incr=        1024 UseFst=F UseS4=T ISplat=2.
 PrismC was handed    33458184 working-precision words and  3616 shell-pairs
 Enter PrismC:  IPart= 17 JobTyp=22 DoJE=F Cont=F.
 PrismC:  IPart=    17 DynPar=T LinDyn=F Incr=        1024 UseFst=F UseS4=T ISplat=2.
 PrismC was handed    33458184 working-precision words and  3616 shell-pairs
 Enter PrismC:  IPart=  3 JobTyp=22 DoJE=F Cont=F.
 PrismC:  IPart=     3 DynPar=T LinDyn=F Incr=        1024 UseFst=F UseS4=T ISplat=2.
 PrismC was handed    33458184 working-precision words and  3616 shell-pairs
 Enter PrismC:  IPart= 14 JobTyp=22 DoJE=F Cont=F.
 PrismC:  IPart=    14 DynPar=T LinDyn=F Incr=        1024 UseFst=F UseS4=T ISplat=2.
 PrismC was handed    33458184 working-precision words and  3616 shell-pairs
 Enter PrismC:  IPart= 19 JobTyp=22 DoJE=F Cont=F.
 PrismC:  IPart=    19 DynPar=T LinDyn=F Incr=        1024 UseFst=F UseS4=T ISplat=2.
 PrismC was handed    33458184 working-precision words and  3616 shell-pairs
 Enter PrismC:  IPart=  6 JobTyp=22 DoJE=F Cont=F.
 PrismC:  IPart=     6 DynPar=T LinDyn=F Incr=        1024 UseFst=F UseS4=T ISplat=2.
 PrismC was handed    33458184 working-precision words and  3616 shell-pairs
 Enter PrismC:  IPart=  5 JobTyp=22 DoJE=F Cont=F.
 PrismC:  IPart=     5 DynPar=T LinDyn=F Incr=        1024 UseFst=F UseS4=T ISplat=2.
 PrismC was handed    33458184 working-precision words and  3616 shell-pairs
 Enter PrismC:  IPart= 13 JobTyp=22 DoJE=F Cont=F.
 PrismC:  IPart=    13 DynPar=T LinDyn=F Incr=        1024 UseFst=F UseS4=T ISplat=2.
 PrismC was handed    33458184 working-precision words and  3616 shell-pairs
 Enter PrismC:  IPart=  7 JobTyp=22 DoJE=F Cont=F.
 PrismC:  IPart=     7 DynPar=T LinDyn=F Incr=        1024 UseFst=F UseS4=T ISplat=2.
 PrismC was handed    33458184 working-precision words and  3616 shell-pairs
 Enter PrismC:  IPart=  9 JobTyp=22 DoJE=F Cont=F.
 PrismC:  IPart=     9 DynPar=T LinDyn=F Incr=        1024 UseFst=F UseS4=T ISplat=2.
 PrismC was handed    33458184 working-precision words and  3616 shell-pairs
 Enter PrismC:  IPart= 18 JobTyp=22 DoJE=F Cont=F.
 PrismC:  IPart=    18 DynPar=T LinDyn=F Incr=        1024 UseFst=F UseS4=T ISplat=2.
 PrismC was handed    33458184 working-precision words and  3616 shell-pairs
 IPart=  1 NShTot=      252782 NShNF=      252782 NShFF=           0 MinMC=       7
           NShCPU=      252782 NBCPU=       11011 AvBCPU=        23.0
           NShGPU=           0 NBGPU=           0 AvBGPU=         0.0
 IPart= 15 NShTot=      174724 NShNF=      174724 NShFF=           0 MinMC=       7
           NShCPU=      174724 NBCPU=        7125 AvBCPU=        24.5
           NShGPU=           0 NBGPU=           0 AvBGPU=         0.0
 IPart= 14 NShTot=      259281 NShNF=      259281 NShFF=           0 MinMC=       7
           NShCPU=      259281 NBCPU=       10657 AvBCPU=        24.3
           NShGPU=           0 NBGPU=           0 AvBGPU=         0.0
 IPart=  9 NShTot=      187349 NShNF=      187349 NShFF=           0 MinMC=       7
           NShCPU=      187349 NBCPU=        7662 AvBCPU=        24.5
           NShGPU=           0 NBGPU=           0 AvBGPU=         0.0
 IPart=  0 NShTot=      266190 NShNF=      266190 NShFF=           0 MinMC=       7
           NShCPU=      266190 NBCPU=       11092 AvBCPU=        24.0
           NShGPU=           0 NBGPU=           0 AvBGPU=         0.0
 IPart= 13 NShTot=      171212 NShNF=      171212 NShFF=           0 MinMC=       7
           NShCPU=      171212 NBCPU=        6824 AvBCPU=        25.1
           NShGPU=           0 NBGPU=           0 AvBGPU=         0.0
 IPart= 12 NShTot=      184362 NShNF=      184362 NShFF=           0 MinMC=       7
           NShCPU=      184362 NBCPU=        7569 AvBCPU=        24.4
           NShGPU=           0 NBGPU=           0 AvBGPU=         0.0
 IPart=  5 NShTot=      263095 NShNF=      263095 NShFF=           0 MinMC=       7
           NShCPU=      263095 NBCPU=       10681 AvBCPU=        24.6
           NShGPU=           0 NBGPU=           0 AvBGPU=         0.0
 IPart=  2 NShTot=      269895 NShNF=      269895 NShFF=           0 MinMC=       7
           NShCPU=      269895 NBCPU=       11216 AvBCPU=        24.1
           NShGPU=           0 NBGPU=           0 AvBGPU=         0.0
 IPart=  3 NShTot=      259273 NShNF=      259273 NShFF=           0 MinMC=       7
           NShCPU=      259273 NBCPU=       10819 AvBCPU=        24.0
           NShGPU=           0 NBGPU=           0 AvBGPU=         0.0
 IPart= 17 NShTot=      263295 NShNF=      263295 NShFF=           0 MinMC=       7
           NShCPU=      263295 NBCPU=       11500 AvBCPU=        22.9
           NShGPU=           0 NBGPU=           0 AvBGPU=         0.0
 IPart= 16 NShTot=      171610 NShNF=      171610 NShFF=           0 MinMC=       7
           NShCPU=      171610 NBCPU=        7604 AvBCPU=        22.6
           NShGPU=           0 NBGPU=           0 AvBGPU=         0.0
 IPart=  7 NShTot=      161658 NShNF=      161658 NShFF=           0 MinMC=       7
           NShCPU=      161658 NBCPU=        7195 AvBCPU=        22.5
           NShGPU=           0 NBGPU=           0 AvBGPU=         0.0
 IPart= 18 NShTot=      185528 NShNF=      185528 NShFF=           0 MinMC=       7
           NShCPU=      185528 NBCPU=        7551 AvBCPU=        24.6
           NShGPU=           0 NBGPU=           0 AvBGPU=         0.0
 IPart=  4 NShTot=      178732 NShNF=      178732 NShFF=           0 MinMC=       7
           NShCPU=      178732 NBCPU=        7607 AvBCPU=        23.5
           NShGPU=           0 NBGPU=           0 AvBGPU=         0.0
 IPart=  8 NShTot=      173219 NShNF=      173219 NShFF=           0 MinMC=       7
           NShCPU=      173219 NBCPU=        7587 AvBCPU=        22.8
           NShGPU=           0 NBGPU=           0 AvBGPU=         0.0
 IPart=  6 NShTot=      177226 NShNF=      177226 NShFF=           0 MinMC=       7
           NShCPU=      177226 NBCPU=        7737 AvBCPU=        22.9
           NShGPU=           0 NBGPU=           0 AvBGPU=         0.0
 IPart= 10 NShTot=      167242 NShNF=      167242 NShFF=           0 MinMC=       7
           NShCPU=      167242 NBCPU=        7148 AvBCPU=        23.4
           NShGPU=           0 NBGPU=           0 AvBGPU=         0.0
 IPart= 11 NShTot=      265488 NShNF=      265488 NShFF=           0 MinMC=       7
           NShCPU=      265488 NBCPU=       10889 AvBCPU=        24.4
           NShGPU=           0 NBGPU=           0 AvBGPU=         0.0
 IPart= 19 NShTot=      272407 NShNF=      272407 NShFF=           0 MinMC=       7
           NShCPU=      272407 NBCPU=       11086 AvBCPU=        24.6
           NShGPU=           0 NBGPU=           0 AvBGPU=         0.0
 CoulSu:  NxtVal=        6982657 LenVP=       33458185 MinMC=       7.
 ReadGW:  IGet=0 IStart=           1 Next=           1 LGW=           0.
 Remaining memory in FofDFT      639.93 Mw
 CkSvGd:  ISavGI=        -1 IRadAn=       5 IRASav=       5 ISavGd=        -1.
 CalDSu-InSpLW:  IPartL=    0 NPrtUS=   20 NPrtUL=    1 DoSpLW=F IThBeg=    0 IThEnd=   19 NThAct=   20.
 CalDSu:  NPrtUS=  20 ThrOK=T IAlg=1 NPAlg=2 DoDPD=T LenP=       35245 LenD1P=             0 GPUOK=F
          ISkipM=0 DoSpLW=F IThBeg=    0 IThEnd=   19.
 IPart=  0 IRanGd=          0 ScrnBf=T ScrnGd=T RCrit=4.00D+00 DoMicB=T.
 IPart= 15        10700 of        11650 points in      12 batches and       57 microbatches, Max-NSigAt=      11 Max-NSgAt2=      11
 IPart=  8        11095 of        11922 points in      12 batches and       74 microbatches, Max-NSigAt=      11 Max-NSgAt2=      11
 IPart= 14        11409 of        12242 points in      12 batches and       71 microbatches, Max-NSigAt=      11 Max-NSgAt2=      11
 IPart= 19        12019 of        12954 points in      13 batches and       72 microbatches, Max-NSigAt=      11 Max-NSgAt2=      11
 IPart=  3        10499 of        12238 points in      14 batches and       84 microbatches, Max-NSigAt=      11 Max-NSgAt2=      11
 IPart= 13        11593 of        12566 points in      13 batches and       64 microbatches, Max-NSigAt=      11 Max-NSgAt2=      11
 IPart= 16        11096 of        11656 points in      11 batches and       54 microbatches, Max-NSigAt=      11 Max-NSgAt2=      11
 IPart=  2        10124 of        10840 points in      11 batches and       68 microbatches, Max-NSigAt=      11 Max-NSgAt2=      11
 IPart=  4        13933 of        16378 points in      19 batches and       68 microbatches, Max-NSigAt=      11 Max-NSgAt2=      11
 IPart=  6        10493 of        11272 points in      12 batches and       68 microbatches, Max-NSigAt=      11 Max-NSgAt2=      11
 IPart=  1        10139 of        10704 points in      11 batches and       66 microbatches, Max-NSigAt=      11 Max-NSgAt2=      11
 IPart= 12        10120 of        10716 points in      11 batches and       60 microbatches, Max-NSigAt=      11 Max-NSgAt2=      11
 IPart=  5        11138 of        12114 points in      13 batches and       76 microbatches, Max-NSigAt=      11 Max-NSgAt2=      11
 IPart= 11        10622 of        11636 points in      12 batches and       60 microbatches, Max-NSigAt=      11 Max-NSgAt2=      11
 IPart= 18        10306 of        11076 points in      11 batches and       71 microbatches, Max-NSigAt=      11 Max-NSgAt2=      11
 IPart= 17        12003 of        13332 points in      14 batches and       73 microbatches, Max-NSigAt=      11 Max-NSgAt2=      11
 IPart=  0        13443 of        14444 points in      13 batches and       56 microbatches, Max-NSigAt=      11 Max-NSgAt2=      11
 IPart=  9        11147 of        11666 points in      11 batches and       58 microbatches, Max-NSigAt=      11 Max-NSgAt2=      11
 IPart= 10         9721 of        10580 points in      11 batches and       92 microbatches, Max-NSigAt=      11 Max-NSgAt2=      11
 IPart=  7        13601 of        16414 points in      19 batches and       64 microbatches, Max-NSigAt=      11 Max-NSgAt2=      11
 Polarizability after L703:
                1             2             3 
      1  0.000000D+00
      2  0.000000D+00  0.000000D+00
      3  0.000000D+00  0.000000D+00  0.000000D+00
 Dipole Derivatives after L703:
                 1             2             3             4             5 
      1  -0.242358D+00 -0.164115D-01  0.283119D-02  0.415253D+00 -0.118615D+00
      2   0.533654D-01 -0.145820D+00  0.700052D-02  0.542629D+00 -0.903706D+00
      3   0.227747D-02  0.150875D-01 -0.269918D+00 -0.245525D-02 -0.353538D-02
                 6             7             8             9            10 
      1  -0.173960D-01 -0.137753D+01 -0.103941D+00 -0.201644D-01 -0.334763D+00
      2  -0.116697D-01 -0.389935D-01 -0.754378D+00  0.772796D-02  0.149980D+00
      3  -0.406744D+00 -0.564573D-02  0.396756D-02 -0.801213D+00  0.691795D-02
                11            12            13            14            15 
      1  -0.977748D-01 -0.620309D-02 -0.739556D+00  0.279215D+00  0.337206D-01
      2  -0.700324D+00  0.574266D-03 -0.617037D-01 -0.597566D+00 -0.175183D-01
      3  -0.192717D-02  0.655681D-01  0.181197D-01 -0.771465D-02  0.464049D-01
                16            17            18            19            20 
      1   0.752840D+00 -0.923185D+00 -0.957166D-01  0.354143D+00  0.560260D+00
      2  -0.232385D+00  0.514433D+00  0.511676D-01  0.666732D-01  0.228614D+00
      3  -0.166240D-01  0.405632D-01  0.100116D+00 -0.532585D-01 -0.208952D+00
                21            22            23            24            25 
      1  -0.482226D+00  0.362809D+00  0.392381D+00  0.588346D+00  0.229308D+00
      2  -0.158639D+00  0.466747D-01  0.156582D+00  0.100343D+00  0.266598D+00
      3   0.355298D+00  0.651378D-01  0.162805D+00  0.479201D+00 -0.642750D-02
                26            27            28            29            30 
      1   0.187582D+00 -0.161790D-02  0.719357D+00 -0.697118D+00 -0.117656D-01
      2   0.689408D+00  0.409477D-02 -0.389365D+00  0.684723D+00  0.703373D-02
      3  -0.844972D-02  0.465123D-01 -0.830403D-02  0.777237D-02  0.894265D-01
                31            32            33 
      1  -0.139503D+00  0.537608D+00  0.101918D-01
      2  -0.403473D+00  0.828034D+00  0.988483D-02
      3   0.262085D-03  0.383390D-03  0.295349D+00
 Hessian after L703:
                1             2             3             4             5 
      1  0.479888D+00
      2 -0.557657D-01  0.348628D+00
      3  0.123166D-01  0.125132D-01  0.714208D-01
      4  0.937609D-03  0.413605D-02 -0.330130D-03  0.386389D+00
      5 -0.745420D-02  0.196602D-01  0.985126D-03 -0.229237D-01  0.494857D+00
      6 -0.323289D-03 -0.142196D-03 -0.723698D-02 -0.597312D-02  0.245645D-02
      7 -0.207539D+00 -0.222878D-01 -0.853428D-02  0.343809D-02  0.586201D-02
      8 -0.652889D-01 -0.100768D+00 -0.542984D-02 -0.220357D-03  0.240144D-02
      9 -0.130232D-01 -0.460164D-02 -0.595083D-01  0.375707D-03 -0.527142D-04
     10 -0.157626D+00  0.546212D-01  0.148283D-02 -0.242320D-01 -0.182613D-01
     11  0.955387D-01 -0.223008D+00 -0.577993D-02 -0.591987D-01 -0.392219D-01
     12  0.275560D-02 -0.627785D-02 -0.381998D-01  0.124777D-03 -0.836257D-03
     13 -0.326074D-01  0.815457D-02  0.677494D-03 -0.163048D+00 -0.107387D+00
     14  0.613521D-01 -0.195599D-01 -0.177400D-02 -0.596481D-01 -0.246060D+00
     15  0.177207D-02 -0.480344D-03  0.107420D-01  0.181214D-02  0.109888D-02
     16 -0.275120D-01  0.286360D-01  0.226728D-02 -0.126672D-03 -0.637127D-03
     17 -0.594722D-02  0.102906D-01  0.122375D-02  0.384926D-03  0.368233D-03
     18 -0.116744D-02  0.236507D-02  0.726933D-03  0.416608D-05  0.111433D-05
     19 -0.279368D-01 -0.229402D-01  0.228189D-01 -0.146121D-03  0.414458D-03
     20 -0.105370D-01 -0.474139D-02  0.504958D-02 -0.236511D-03 -0.630741D-03
     21  0.301449D-02 -0.247882D-02  0.771969D-02 -0.160913D-03  0.212476D-03
     22 -0.273420D-01 -0.176665D-01 -0.312614D-01 -0.833534D-04  0.227440D-03
     23 -0.846936D-02 -0.203348D-02 -0.716145D-02 -0.365044D-03 -0.832394D-03
     24 -0.553704D-02 -0.450565D-03  0.604119D-02  0.378921D-04 -0.320965D-03
     25  0.344027D-02  0.230026D-01  0.374953D-03 -0.476121D-02  0.123125D-02
     26 -0.212142D-02 -0.293697D-01  0.326189D-03  0.156975D-02  0.242251D-02
     27 -0.899891D-04 -0.847587D-03  0.564312D-03  0.352252D-03  0.299298D-03
     28 -0.401621D-02 -0.359899D-02 -0.110446D-03  0.140238D-01 -0.183707D-01
     29 -0.256599D-02  0.140551D-02 -0.381678D-05  0.141299D-01 -0.298123D-01
     30  0.270355D-03  0.340813D-03  0.885113D-02 -0.189522D-03  0.165312D-03
     31  0.313708D-03  0.370890D-02  0.298202D-03 -0.212392D+00  0.167299D+00
     32  0.125887D-02 -0.504068D-03  0.511736D-04  0.122372D+00 -0.203152D+00
     33  0.119020D-04  0.598860D-04 -0.112099D-02  0.394675D-02 -0.400872D-02
                6             7             8             9            10 
      6  0.580144D-01
      7 -0.637469D-04  0.464941D+00
      8  0.190175D-03 -0.294088D-01  0.539522D+00
      9 -0.548555D-03  0.119822D-01  0.307860D-01  0.556185D+00
     10  0.586775D-03 -0.466794D-01  0.414152D-01  0.221419D-02  0.967572D+00
     11  0.633109D-03  0.132253D-01  0.318848D-02  0.200354D-03  0.872778D-01
     12  0.132449D-01 -0.221034D-03  0.206775D-02 -0.464884D-02 -0.131653D-01
     13  0.173264D-02 -0.189731D-03  0.106438D-02  0.995042D-04 -0.607786D+00
     14  0.438678D-03 -0.812432D-02 -0.929505D-02 -0.778690D-04 -0.466260D-01
     15 -0.461035D-01 -0.121309D-03 -0.774679D-04  0.422478D-03  0.744922D-02
     16  0.000000D+00 -0.100606D+00  0.759448D-01  0.962294D-02 -0.493280D-02
     17  0.260885D-05  0.890335D-01 -0.205517D+00 -0.185993D-01 -0.181380D-02
     18 -0.132340D-03  0.104988D-01 -0.184541D-01 -0.613031D-01 -0.896665D-03
[...]
     Eigenvalues ---    0.04680   0.08686   0.08778   0.10705   0.12082
     Eigenvalues ---    0.13475   0.16484   0.18191   0.18736   0.19826
     Eigenvalues ---    0.22138   0.23301   0.33222   0.33591   0.35088
     Eigenvalues ---    0.36355   0.37354   0.39844   0.45086   0.45698
     Eigenvalues ---    0.53342   0.66236
 Angle between quadratic step and forces=  74.40 degrees.
 Linear search not attempted -- first point.
 Iteration  1 RMS(Cart)=  0.00000517 RMS(Int)=  0.00000000
 Iteration  2 RMS(Cart)=  0.00000000 RMS(Int)=  0.00000000
 ITry= 1 IFail=0 DXMaxC= 1.31D-05 DCOld= 1.00D+10 DXMaxT= 3.00D-01 DXLimC= 3.00D+00 Rises=F
 Variable       Old X    -DE/DX   Delta X   Delta X   Delta X     New X
                                 (Linear)    (Quad)   (Total)
    R1        2.67120   0.00000   0.00000  -0.00000  -0.00000   2.67120
    R2        2.59481  -0.00000   0.00000  -0.00000  -0.00000   2.59481
    R3        2.56333  -0.00000   0.00000  -0.00000  -0.00000   2.56333
    R4        1.82347   0.00000   0.00000   0.00000   0.00000   1.82347
    R5        2.05345  -0.00000   0.00000  -0.00000  -0.00000   2.05345
    R6        2.06653  -0.00000   0.00000  -0.00000  -0.00000   2.06653
    R7        2.06457  -0.00000   0.00000  -0.00000  -0.00000   2.06457
    R8        2.50502   0.00000   0.00000   0.00000   0.00000   2.50502
    R9        2.04478  -0.00000   0.00000  -0.00000  -0.00000   2.04478
   R10        2.03835   0.00000   0.00000   0.00000   0.00000   2.03835
    A1        1.98208   0.00000   0.00000   0.00000   0.00000   1.98208
    A2        1.87243  -0.00000   0.00000  -0.00000  -0.00000   1.87243
    A3        1.87229   0.00000   0.00000  -0.00000  -0.00000   1.87229
    A4        1.93110   0.00000   0.00000   0.00000   0.00000   1.93110
    A5        1.93727  -0.00000   0.00000  -0.00000  -0.00000   1.93727
    A6        1.90554  -0.00000   0.00000  -0.00000  -0.00000   1.90554
    A7        1.91450  -0.00000   0.00000  -0.00000  -0.00000   1.91450
    A8        1.90277   0.00000   0.00000   0.00000   0.00000   1.90277
    A9        2.08155  -0.00000   0.00000  -0.00000  -0.00000   2.08155
   A10        2.05343   0.00000   0.00000   0.00000   0.00000   2.05343
   A11        2.14729   0.00000   0.00000  -0.00000  -0.00000   2.14729
   A12        2.16215  -0.00000   0.00000  -0.00000  -0.00000   2.16215
   A13        1.98815  -0.00000   0.00000   0.00000   0.00000   1.98815
   A14        2.13269   0.00000   0.00000  -0.00000  -0.00000   2.13269
    D1       -3.10483  -0.00000   0.00000  -0.00000  -0.00000  -3.10483
    D2       -1.02788  -0.00000   0.00000  -0.00000  -0.00000  -1.02788
    D3        1.08701   0.00000   0.00000  -0.00000  -0.00000   1.08701
    D4       -2.45355  -0.00000   0.00000  -0.00001  -0.00001  -2.45356
    D5        0.73255  -0.00000   0.00000  -0.00001  -0.00001   0.73254
    D6       -0.00098   0.00000   0.00000   0.00000   0.00000  -0.00098
    D7        3.11981  -0.00000   0.00000   0.00000   0.00000   3.11981
    D8        0.03797  -0.00000   0.00000  -0.00000  -0.00000   0.03797
    D9       -3.08114  -0.00000   0.00000  -0.00000  -0.00000  -3.08114
   D10        3.13254  -0.00000   0.00000   0.00000   0.00000   3.13254
   D11        0.01342   0.00000   0.00000   0.00000   0.00000   0.01342
         Item               Value     Threshold  Converged?
 Maximum Force            0.000000     0.000015     YES
 RMS     Force            0.000000     0.000010     YES
 Maximum Displacement     0.000013     0.000060     YES
 RMS     Displacement     0.000005     0.000040     YES
 Predicted change in Energy=-5.959560D-13
 Optimization completed.
    -- Stationary point found.
                           ----------------------------
                           !   Optimized Parameters   !
                           ! (Angstroms and Degrees)  !
 --------------------------                            --------------------------
 ! Name  Definition              Value          Derivative Info.                !
 --------------------------------------------------------------------------------
 ! R1    R(1,3)                  1.4135         -DE/DX =    0.0                 !
 ! R2    R(1,4)                  1.3731         -DE/DX =    0.0                 !
 ! R3    R(2,5)                  1.3565         -DE/DX =    0.0                 !
 ! R4    R(2,11)                 0.9649         -DE/DX =    0.0                 !
 ! R5    R(3,6)                  1.0866         -DE/DX =    0.0                 !
 ! R6    R(3,7)                  1.0936         -DE/DX =    0.0                 !
 ! R7    R(3,8)                  1.0925         -DE/DX =    0.0                 !
 ! R8    R(4,5)                  1.3256         -DE/DX =    0.0                 !
 ! R9    R(4,9)                  1.0821         -DE/DX =    0.0                 !
 ! R10   R(5,10)                 1.0786         -DE/DX =    0.0                 !
 ! A1    A(3,1,4)              113.5649         -DE/DX =    0.0                 !
 ! A2    A(5,2,11)             107.2822         -DE/DX =    0.0                 !
 ! A3    A(1,3,6)              107.2744         -DE/DX =    0.0                 !
 ! A4    A(1,3,7)              110.6436         -DE/DX =    0.0                 !
 ! A5    A(1,3,8)              110.9976         -DE/DX =    0.0                 !
 ! A6    A(6,3,7)              109.1795         -DE/DX =    0.0                 !
 ! A7    A(6,3,8)              109.6929         -DE/DX =    0.0                 !
 ! A8    A(7,3,8)              109.0209         -DE/DX =    0.0                 !
 ! A9    A(1,4,5)              119.2639         -DE/DX =    0.0                 !
 ! A10   A(1,4,9)              117.6531         -DE/DX =    0.0                 !
 ! A11   A(5,4,9)              123.0306         -DE/DX =    0.0                 !
 ! A12   A(2,5,4)              123.8823         -DE/DX =    0.0                 !
 ! A13   A(2,5,10)             113.9126         -DE/DX =    0.0                 !
 ! A14   A(4,5,10)             122.194          -DE/DX =    0.0                 !
 ! D1    D(4,1,3,6)           -177.8936         -DE/DX =    0.0                 !
 ! D2    D(4,1,3,7)            -58.8934         -DE/DX =    0.0                 !
 ! D3    D(4,1,3,8)             62.2813         -DE/DX =    0.0                 !
 ! D4    D(3,1,4,5)           -140.5783         -DE/DX =    0.0                 !
 ! D5    D(3,1,4,9)             41.9718         -DE/DX =    0.0                 !
 ! D6    D(11,2,5,4)            -0.056          -DE/DX =    0.0                 !
 ! D7    D(11,2,5,10)          178.7519         -DE/DX =    0.0                 !
 ! D8    D(1,4,5,2)              2.1757         -DE/DX =    0.0                 !
 ! D9    D(1,4,5,10)          -176.5366         -DE/DX =    0.0                 !
 ! D10   D(9,4,5,2)            179.4813         -DE/DX =    0.0                 !
 ! D11   D(9,4,5,10)             0.769          -DE/DX =    0.0                 !
 --------------------------------------------------------------------------------
 GradGradGradGradGradGradGradGradGradGradGradGradGradGradGradGradGradGrad

 Leave Link  103 at Sun Sep 29 07:38:49 2019, MaxMem=   671088640 cpu:             108.4 elap:              54.2
 (Enter /shared/centos7/gaussian/g16/l9999.exe)

 ----------------------------------------------------------------------

 Electric dipole moment (input orientation):
 (Debye = 10**-18 statcoulomb cm , SI units = C m)
                  (au)            (Debye)         (10**-30 SI)
   Tot        0.864541D+00      0.219744D+01      0.732988D+01
   x         -0.500937D+00     -0.127326D+01     -0.424712D+01
   y         -0.324764D+00     -0.825468D+00     -0.275347D+01
   z         -0.625317D+00     -0.158940D+01     -0.530165D+01

 Dipole polarizability, Alpha (input orientation).
 (esu units = cm**3 , SI units = C**2 m**2 J**-1)
 Alpha(0;0):
               (au)            (10**-24 esu)      (10**-40 SI)
   iso        0.445369D+02      0.659968D+01      0.734314D+01
   aniso      0.248251D+02      0.367871D+01      0.409311D+01
   xx         0.508264D+02      0.753170D+01      0.838014D+01
   yx         0.940039D+01      0.139299D+01      0.154991D+01
   yy         0.407028D+02      0.603153D+01      0.671098D+01
   zx         0.931377D+01      0.138016D+01      0.153563D+01
   zy        -0.414092D+00     -0.613621D-01     -0.682745D-01
   zz         0.420814D+02      0.623582D+01      0.693828D+01

 ----------------------------------------------------------------------

 Dipole orientation:
     8         -2.84447229          1.15148443         -1.86500342
     8         -0.61269474          1.54184078         -6.55093324
     6         -2.58616634          1.84769702          0.70090538
     6         -1.08920856         -0.59146643         -2.64872624
     6         -0.07935186         -0.37145551         -4.93059523
     1         -4.10048760          3.16643668          1.13032498
     1         -2.75960162          0.19247475          1.92593974
     1         -0.76062324          2.74939538          1.04262340
     1         -0.65650913         -2.13781294         -1.38274018
     1          1.22835594         -1.74561021         -5.67656654
     1         -1.81545038          2.63378452         -5.72264307

 Electric dipole moment (dipole orientation):
 (Debye = 10**-18 statcoulomb cm , SI units = C m)
                  (au)            (Debye)         (10**-30 SI)
   Tot        0.864541D+00      0.219744D+01      0.732988D+01
   x          0.000000D+00      0.000000D+00      0.000000D+00
   y          0.000000D+00      0.000000D+00      0.000000D+00
   z          0.864541D+00      0.219744D+01      0.732988D+01

 Dipole polarizability, Alpha (dipole orientation).
 (esu units = cm**3 , SI units = C**2 m**2 J**-1)
 Alpha(0;0):
               (au)            (10**-24 esu)      (10**-40 SI)
   iso        0.445369D+02      0.659968D+01      0.734314D+01
   aniso      0.248251D+02      0.367871D+01      0.409311D+01
   xx         0.370658D+02      0.549258D+01      0.611132D+01
   yx        -0.443485D+01     -0.657177D+00     -0.731208D+00
   yy         0.400481D+02      0.593451D+01      0.660304D+01
   zx        -0.872582D+01     -0.129303D+01     -0.143869D+01
   zy         0.344673D+00      0.510753D-01      0.568290D-01
   zz         0.564967D+02      0.837195D+01      0.931505D+01

 ----------------------------------------------------------------------

 Test job not archived.
 1\1\GINC-C0260\Freq\RM062X\CC-pVTZ\C3H6O2\HARMS.N\29-Sep-2019\0\\#P Ge
 om=AllCheck Guess=TCheck SCRF=Check Test GenChk RM062X/CC-pVTZ Freq\\G
 aussian input prepared by ASE\\0,1\O,-0.5631708109,0.0014099629,1.8148
 97768\O,1.850635385,0.5940829436,3.0017306603\C,-1.1933341888,-0.86417
 07399,0.8919905174\C,0.3085249836,0.8866888899,1.2301981285\C,1.453176
 3024,1.1659025047,1.8376779158\H,-1.88208597,-1.4890225064,1.454095438
 4\H,-1.7534821508,-0.2919152325,0.147253234\H,-0.460012429,-1.49220053
 37,0.3806958927\H,0.001360682,1.3573942864,0.3055770515\H,2.1472507047
 ,1.8944127728,1.4490691891\H,1.157176333,-0.0206949836,3.2705521553\\V
 ersion=EM64L-G16RevA.03\State=1-A\HF=-268.3241864\RMSD=5.540e-09\RMSF=
 8.950e-07\ZeroPoint=0.0911284\Thermal=0.0969967\Dipole=-0.5009373,-0.3
 247642,-0.6253165\DipoleDeriv=-1.0560621,-0.521318,-0.2915448,-0.66366
 37,-0.8326688,-0.1954717,0.0580885,0.0433051,-0.5189901,-0.4741234,0.0
 097856,-0.1769679,0.3066147,-0.3903045,0.4000585,-0.5705973,0.1125384,
 -1.065958,0.5433318,0.169907,0.1798361,0.2085878,0.5805874,0.2100216,0
 .3172583,0.2972889,0.5239702,0.4732889,0.4395252,-0.0281861,0.4937038,
 0.2728704,-0.1436163,-0.31359,-0.3739753,-0.1279621,0.2906964,0.006309
 5,0.3454642,-0.1809443,0.0580646,-0.4489944,0.5883442,-0.2053106,0.833
 3983,-0.023363,-0.0887061,0.0217969,-0.0922289,-0.0079946,0.0111598,0.
 0596086,0.0547182,0.0059599,-0.0155854,0.0145623,-0.0690351,0.0665674,
 -0.0508486,0.0936539,-0.1170681,0.0001567,-0.0584147,-0.0527809,0.1071
 254,0.0825719,0.0106956,-0.0427757,-0.0587221,-0.0326592,-0.1034611,-0
 .0218401,0.021681,-0.0313383,-0.0798913,-0.0274812,0.0804198,0.0775124
 ,0.0021515,0.1255193,0.0131127,0.0581835,-0.0686249,0.0060344,-0.06224
 16,0.0550658,0.0776496,-0.0147295,0.0548253,0.0550889,0.2347331,-0.037
 2276,0.0099217,-0.0596096,0.2775843,-0.0232513,0.0231929,-0.005605,0.3
 61635\Polar=50.8264147,9.4003872,40.702796,9.3137743,-0.4140917,42.081
 3826\Quadrupole=-1.2341263,1.0953698,0.1387565,1.7036914,-0.2091327,-1
 .3972866\PG=C01 [X(C3H6O2)]\NImag=0\\0.30443525,0.23446378,0.33426443,
 0.00987113,0.02173076,0.33250055,0.00112915,0.00252815,0.00039465,0.40
 422171,0.00811062,0.00337565,-0.01012692,0.21092735,0.31995687,-0.0045
 7304,-0.01273983,0.00779560,0.02368790,-0.22419185,0.37659136,-0.09660
 763,-0.04884653,-0.03514972,0.00020143,-0.00171230,0.00349583,0.575160
 77,-0.05335796,-0.13036767,-0.05363849,0.00284025,-0.00049873,0.000949
 26,-0.00523224,0.55710206,-0.06042127,-0.08066691,-0.16834628,0.000417
 60,-0.00240821,0.00410013,-0.04767731,-0.05443335,0.55049370,-0.161676
 12,-0.11116114,0.03912272,-0.00771233,0.00006409,-0.01596276,-0.028243
 63,-0.02471965,0.00522883,0.71134792,-0.10324816,-0.14990702,0.0553457
 7,0.01780828,0.00524304,0.03165343,-0.02811075,-0.03220722,0.00644491,
 0.19966365,0.35826604,0.06254449,0.08312225,-0.13905815,-0.04541775,0.
 01541629,-0.04784185,-0.01512293,-0.01440204,0.01443826,0.26393954,-0.
 16322380,0.60633971,-0.03876772,-0.02417375,-0.00788968,-0.11913360,0.
 01744211,-0.09460765,0.00156151,0.00188010,0.00298669,-0.43287141,-0.1
 0756644,-0.18090135,0.76481224,-0.04666289,-0.01661143,-0.00247229,-0.
 00712913,-0.11472362,0.09383278,-0.00000929,0.00080560,0.00671127,-0.0
 9468990,-0.09931870,-0.02388957,0.26706456,0.42193685,0.02972314,0.022
 54233,0.00548976,-0.05626695,0.11677005,-0.26179609,-0.00228615,0.0001
 9585,-0.00765482,-0.20753807,-0.03827279,-0.18157890,0.19443281,-0.182
 92479,0.55331918,-0.01287568,-0.01395450,0.00478682,-0.00010948,0.0004
 3952,-0.00074579,-0.15667287,-0.09438223,0.09154630,-0.00004101,-0.000
 52455,-0.00378138,0.00035917,-0.00113229,0.00138813,0.16949592,-0.0183
 7991,-0.01822696,0.00798217,-0.00011149,0.00030529,-0.00064351,-0.0921
 7704,-0.13461918,0.08033952,-0.00147638,-0.00052068,-0.00399636,-0.000
 38610,-0.00122159,0.00116143,0.11188432,0.15008040,-0.02054292,-0.0206
 9563,0.01226762,0.00024079,-0.00005514,-0.00007102,0.10057200,0.091084
 15,-0.13419819,-0.00204156,-0.00174472,-0.00264186,-0.00079541,-0.0009
 8151,0.00106061,-0.09739393,-0.08560219,0.13926052,-0.01119056,-0.0026
 8016,-0.01737233,-0.00010075,-0.00032745,0.00032048,-0.11551660,0.0716
 0379,-0.08054620,0.00190314,0.00377091,-0.00281404,-0.00052710,-0.0002
 9376,0.00025066,0.01243425,-0.01078925,0.01375361,0.12306947,-0.018906
 53,0.00972898,-0.02209387,-0.00057622,-0.00002482,0.00040098,0.0742675
 3,-0.13393599,0.09936944,0.00087017,0.00390818,-0.00348337,-0.00004122
 ,-0.00020563,-0.00037127,0.01008099,-0.00877216,0.01008730,-0.07485583
 ,0.13815722,-0.02074957,-0.00010884,-0.02489547,-0.00025462,-0.0002181
 2,0.00000820,-0.08135937,0.09356738,-0.15886423,0.00358104,0.00262682,
 -0.00048543,-0.00057281,-0.00052671,0.00024683,-0.00855460,0.01014319,
 -0.00972128,0.10029386,-0.09757314,0.18131917,0.01355731,-0.01655641,-
 0.01202429,0.00020634,-0.00053770,0.00023154,-0.18182163,0.10356085,0.
 08370291,0.00431295,0.00087436,-0.00080990,-0.00073029,0.00116275,-0.0
 0074487,-0.01212006,0.01158049,0.00664835,-0.01013937,0.00775678,0.007
 84133,0.18709543,0.00395037,-0.01992168,-0.01996979,0.00002640,-0.0000
 7945,-0.00003455,0.09882395,-0.13052915,-0.05888562,0.00406855,0.00322
 260,-0.00140016,-0.00123032,-0.00027618,0.00021543,-0.01231482,0.01283
 604,0.00832737,0.01427507,-0.00875160,-0.00716366,-0.10799830,0.144222
 57,0.00767674,-0.02425751,-0.01785831,-0.00022473,0.00074608,-0.001019
 39,0.07885572,-0.05976314,-0.10038316,0.00176048,0.00315654,-0.0008080
 1,-0.00053853,-0.00093027,0.00142527,0.01238537,-0.00948874,-0.0061750
 8,-0.01479464,0.01270432,0.01140354,-0.08495576,0.07853633,0.11341329,
 0.00322151,-0.01613792,0.02200331,-0.00156496,-0.00519632,-0.00484704,
 0.00309663,0.00061232,0.00377548,-0.07915180,0.02783110,-0.08414032,-0
 .00102364,0.01527572,-0.02007155,-0.00014599,0.00018495,-0.00002819,-0
 .00022661,0.00105016,-0.00076666,-0.00035785,0.00012351,-0.00042379,0.
 07790092,-0.00176778,-0.01411875,0.01907611,-0.00545825,0.00544094,0.0
 0323153,0.00261357,0.00220851,0.00360806,0.02833918,-0.09021415,0.1126
 5121,0.00018951,0.00541845,-0.00851210,-0.00003031,0.00009639,-0.00055
 475,-0.00064579,0.00025761,-0.00066810,-0.00004121,-0.00068052,-0.0002
 4772,-0.02465300,0.09445883,0.00139364,0.01091913,-0.01173914,-0.00345
 775,0.00168791,0.00489835,-0.00043110,-0.00274383,0.00058741,-0.082643
 11,0.11143204,-0.25611210,0.00037538,0.00642277,-0.00879337,0.00025104
 ,0.00003388,0.00029895,0.00068048,0.00087295,0.00060812,-0.00001807,0.
 00024500,0.00009300,0.08250493,-0.12682566,0.27088470,0.00071700,-0.00
 298629,-0.00706261,0.01097789,0.00910756,-0.00425165,-0.00100675,-0.00
 059442,0.00116645,-0.00920220,-0.01611523,0.01390563,-0.18433943,-0.13
 988881,0.06249850,-0.00025880,-0.00032187,-0.00037949,-0.00006955,0.00
 002770,-0.00009892,-0.00007761,-0.00006354,0.00005369,-0.00102856,0.00
 163001,0.00048052,0.18333660,-0.00404204,0.00449785,0.00408922,-0.0075
 8143,-0.00944676,0.00840223,0.00037253,0.00163528,-0.00002899,-0.00048
 815,-0.00118409,0.00209288,-0.13854860,-0.17804412,0.07495971,0.000155
 52,0.00012751,0.00012278,-0.00010572,-0.00019247,-0.00007023,0.0001884
 0,0.00001152,-0.00010958,0.00133420,-0.00216879,-0.00193578,0.14783673
 ,0.18371798,-0.00633318,0.00120278,0.00216582,0.01936839,0.02445504,-0
 .01564257,-0.00003499,0.00114039,0.00052712,-0.00601015,-0.00985912,0.
 00949114,0.05787469,0.07202194,-0.08288302,-0.00001787,-0.00006407,-0.
 00009817,-0.00011473,-0.00017673,-0.00008855,0.00016611,-0.00002231,-0
 .00013750,0.00136514,-0.00153830,-0.00113815,-0.06315906,-0.08962923,0
 .09156675,-0.00194253,-0.00049523,0.00332002,-0.28811539,-0.23831748,0
 .09725219,-0.00015123,-0.00221081,-0.00017948,0.00133448,0.00561682,-0
 .00740199,0.01066027,0.00630304,-0.00138564,-0.00006547,-0.00000772,-0
 .00003325,0.00036367,0.00032648,0.00064031,0.00007477,0.00033913,0.000
 20545,-0.00071964,-0.00017593,0.00086402,0.00095141,0.00087856,-0.0031
 0436,0.27760966,-0.00015950,-0.00271339,0.00007732,-0.21327392,-0.2095
 4838,0.09913953,0.00001056,0.00040649,-0.00005013,-0.00047041,0.002712
 00,-0.00288732,-0.01462986,-0.01775963,0.01423616,-0.00022166,-0.00008
 507,0.00001235,0.00004820,-0.00016931,-0.00000858,0.00001000,-0.000054
 15,-0.00034632,-0.00042471,-0.00069850,-0.00010841,0.00136816,0.001046
 10,0.00246960,0.22774313,0.22686385,0.00141084,-0.00104852,0.00167800,
 0.06151245,0.07792488,-0.06702272,-0.00086199,-0.00195616,-0.00069992,
 0.00056303,0.00244090,-0.00174280,0.02963586,0.03273639,-0.01883544,0.
 00013591,0.00013467,0.00001790,0.00034287,0.00026338,0.00046909,-0.000
 03735,0.00015196,0.00004635,0.00062868,-0.00022027,0.00041223,-0.00315
 306,0.00210698,-0.00376287,-0.09017726,-0.11253420,0.08944018\\0.00000
 020,-0.00000085,0.00000039,0.00000086,-0.00000089,-0.00000077,0.000000
 34,-0.00000009,-0.00000025,-0.00000032,0.00000033,0.00000074,-0.000000
 34,0.00000046,0.00000005,0.00000092,-0.00000127,-0.00000039,-0.0000007
 1,0.00000045,0.00000080,0.00000020,0.00000090,-0.00000155,-0.00000163,
 0.00000129,0.00000145,-0.00000108,0.00000116,0.00000054,0.00000155,-0.
 00000149,-0.00000101\\\@


 "PERFECTION IS NOT AN ACCIDENT"
         --  EAGLE ELECTRIC MANUFACTURING CO.,INC. NY
 Job cpu time:       0 days  0 hours 58 minutes 28.5 seconds.
 Elapsed time:       0 days  0 hours 29 minutes 14.9 seconds.
 File lengths (MBytes):  RWF=   1312 Int=      0 D2E=      0 Chk=     32 Scr=     32
 Normal termination of Gaussian 16 at Sun Sep 29 07:38:50 2019.
