 Entering Gaussian System, Link 0=g16
 Input=med/species/CC(C)OC=CO/conformers/CC(C)OC=CO_115.com
 Output=med/species/CC(C)OC=CO/conformers/CC(C)OC=CO_115.log
 Initial command:
 /shared/centos7/gaussian/g16/l1.exe "/scratch/harms.n/gauss_scrdir/Gau-15396.inp" -scrdir="/scratch/harms.n/gauss_scrdir/"
 Entering Link 1 = /shared/centos7/gaussian/g16/l1.exe PID=     15397.
  
 Copyright (c) 1988,1990,1992,1993,1995,1998,2003,2009,2016,
            Gaussian, Inc.  All Rights Reserved.
  
 This is part of the Gaussian(R) 16 program.  It is based on
 the Gaussian(R) 09 system (copyright 2009, Gaussian, Inc.),
 the Gaussian(R) 03 system (copyright 2003, Gaussian, Inc.),
 the Gaussian(R) 98 system (copyright 1998, Gaussian, Inc.),
 the Gaussian(R) 94 system (copyright 1995, Gaussian, Inc.),
 the Gaussian 92(TM) system (copyright 1992, Gaussian, Inc.),
 the Gaussian 90(TM) system (copyright 1990, Gaussian, Inc.),
 the Gaussian 88(TM) system (copyright 1988, Gaussian, Inc.),
 the Gaussian 86(TM) system (copyright 1986, Carnegie Mellon
 University), and the Gaussian 82(TM) system (copyright 1983,
 Carnegie Mellon University). Gaussian is a federally registered
 trademark of Gaussian, Inc.
  
 This software contains proprietary and confidential information,
 including trade secrets, belonging to Gaussian, Inc.
  
 This software is provided under written license and may be
 used, copied, transmitted, or stored only in accord with that
 written license.
  
 The following legend is applicable only to US Government
 contracts under FAR:
  
                    RESTRICTED RIGHTS LEGEND
  
 Use, reproduction and disclosure by the US Government is
 subject to restrictions as set forth in subparagraphs (a)
 and (c) of the Commercial Computer Software - Restricted
 Rights clause in FAR 52.227-19.
  
 Gaussian, Inc.
 340 Quinnipiac St., Bldg. 40, Wallingford CT 06492
  
  
 ---------------------------------------------------------------
 Warning -- This program may not be used in any manner that
 competes with the business of Gaussian, Inc. or will provide
 assistance to any competitor of Gaussian, Inc.  The licensee
 of this program is prohibited from giving any competitor of
 Gaussian, Inc. access to this program.  By using this program,
 the user acknowledges that Gaussian, Inc. is engaged in the
 business of creating and licensing software in the field of
 computational chemistry and represents and warrants to the
 licensee that it is not a competitor of Gaussian, Inc. and that
 it will not use this program in any manner prohibited above.
 ---------------------------------------------------------------
  

 Cite this work as:
 Gaussian 16, Revision A.03,
 M. J. Frisch, G. W. Trucks, H. B. Schlegel, G. E. Scuseria, 
 M. A. Robb, J. R. Cheeseman, G. Scalmani, V. Barone, 
 G. A. Petersson, H. Nakatsuji, X. Li, M. Caricato, A. V. Marenich, 
 J. Bloino, B. G. Janesko, R. Gomperts, B. Mennucci, H. P. Hratchian, 
 J. V. Ortiz, A. F. Izmaylov, J. L. Sonnenberg, D. Williams-Young, 
 F. Ding, F. Lipparini, F. Egidi, J. Goings, B. Peng, A. Petrone, 
 T. Henderson, D. Ranasinghe, V. G. Zakrzewski, J. Gao, N. Rega, 
 G. Zheng, W. Liang, M. Hada, M. Ehara, K. Toyota, R. Fukuda, 
 J. Hasegawa, M. Ishida, T. Nakajima, Y. Honda, O. Kitao, H. Nakai, 
 T. Vreven, K. Throssell, J. A. Montgomery, Jr., J. E. Peralta, 
 F. Ogliaro, M. J. Bearpark, J. J. Heyd, E. N. Brothers, K. N. Kudin, 
 V. N. Staroverov, T. A. Keith, R. Kobayashi, J. Normand, 
 K. Raghavachari, A. P. Rendell, J. C. Burant, S. S. Iyengar, 
 J. Tomasi, M. Cossi, J. M. Millam, M. Klene, C. Adamo, R. Cammi, 
 J. W. Ochterski, R. L. Martin, K. Morokuma, O. Farkas, 
 J. B. Foresman, and D. J. Fox, Gaussian, Inc., Wallingford CT, 2016.
 
 ******************************************
 Gaussian 16:  EM64L-G16RevA.03 25-Dec-2016
                26-Sep-2019 
 ******************************************
 %nprocshared=20
 Will use up to   20 processors via shared memory.
 %mem=5GB
 ----------------------------------------------------------------------
 #p m062x/cc-pVTZ opt=(calcfc,maxcycles=900,Tight) freq IOP(7/33=1,2/16
 =3) scf=(maxcycle=900)
 ----------------------------------------------------------------------
 1/6=900,7=10,10=4,18=20,19=15,26=3,38=1/1,3;
 2/9=110,12=2,16=3,17=6,18=5,40=1/2;
 3/5=16,6=1,11=2,25=1,30=1,71=2,74=-55,140=1/1,2,3;
 4//1;
 5/5=2,7=900,38=5/2;
 8/6=4,10=90,11=11/1;
 11/6=1,8=1,9=11,15=111,16=1/1,2,10;
 10/6=1,13=1/2;
 6/7=2,8=2,9=2,10=2,28=1/1;
 7/10=1,18=20,25=1,33=1/1,2,3,16;
 1/6=900,7=10,10=4,18=20,19=15,26=3/3(2);
 2/9=110,16=3/2;
 99//99;
 2/9=110,16=3/2;
 3/5=16,6=1,11=2,25=1,30=1,71=1,74=-55/1,2,3;
 4/5=5,16=3,69=1/1;
 5/5=2,7=900,38=5/2;
 7/33=1/1,2,3,16;
 1/6=900,7=10,18=20,19=15,26=3/3(-5);
 2/9=110,16=3/2;
 6/7=2,8=2,9=2,10=2,19=2,28=1/1;
 99/9=1/99;
 Leave Link    1 at Thu Sep 26 12:05:37 2019, MaxMem=   671088640 cpu:               4.2 elap:               2.1
 (Enter /shared/centos7/gaussian/g16/l101.exe)
 ------------------------------
 Gaussian input prepared by ASE
 ------------------------------
 Symbolic Z-matrix:
 Charge =  0 Multiplicity = 1
 O                     0.38593  -1.20899   2.41685 
 O                     1.95885   1.09861   2.83615 
 C                    -0.9341   -0.71188   2.35141 
 C                    -1.00363   0.71284   1.80154 
 C                    -1.57991  -0.82144   3.69342 
 C                     1.22329  -0.67856   1.46219 
 C                     1.98144   0.36029   1.66228 
 H                    -1.51567  -1.36043   1.63902 
 H                    -0.35807   1.40858   2.37722 
 H                    -0.67849   0.73509   0.74547 
 H                    -2.06171   1.0886    1.84521 
 H                    -1.03271  -0.20142   4.46338 
 H                    -1.59103  -1.87122   4.05385 
 H                    -2.64567  -0.45775   3.65552 
 H                     1.25133  -1.22461   0.50574 
 H                     2.65788   0.72832   0.90505 
 H                     2.69685   1.77167   2.77191 
 
 ITRead=  0  0  0  0  0  0  0  0  0  0  0  0  0  0  0  0  0
 MicOpt= -1 -1 -1 -1 -1 -1 -1 -1 -1 -1 -1 -1 -1 -1 -1 -1 -1
 NAtoms=     17 NQM=       17 NQMF=       0 NMMI=      0 NMMIF=      0
                NMic=       0 NMicF=      0.
                    Isotopes and Nuclear Properties:
 (Nuclear quadrupole moments (NQMom) in fm**2, nuclear magnetic moments (NMagM)
  in nuclear magnetons)

  Atom         1           2           3           4           5           6           7           8           9          10
 IAtWgt=          16          16          12          12          12          12          12           1           1           1
 AtmWgt=  15.9949146  15.9949146  12.0000000  12.0000000  12.0000000  12.0000000  12.0000000   1.0078250   1.0078250   1.0078250
 NucSpn=           0           0           0           0           0           0           0           1           1           1
 AtZEff=  -0.0000000  -0.0000000  -0.0000000  -0.0000000  -0.0000000  -0.0000000  -0.0000000  -0.0000000  -0.0000000  -0.0000000
 NQMom=    0.0000000   0.0000000   0.0000000   0.0000000   0.0000000   0.0000000   0.0000000   0.0000000   0.0000000   0.0000000
 NMagM=    0.0000000   0.0000000   0.0000000   0.0000000   0.0000000   0.0000000   0.0000000   2.7928460   2.7928460   2.7928460
 AtZNuc=   8.0000000   8.0000000   6.0000000   6.0000000   6.0000000   6.0000000   6.0000000   1.0000000   1.0000000   1.0000000

  Atom        11          12          13          14          15          16          17
 IAtWgt=           1           1           1           1           1           1           1
 AtmWgt=   1.0078250   1.0078250   1.0078250   1.0078250   1.0078250   1.0078250   1.0078250
 NucSpn=           1           1           1           1           1           1           1
 AtZEff=  -0.0000000  -0.0000000  -0.0000000  -0.0000000  -0.0000000  -0.0000000  -0.0000000
 NQMom=    0.0000000   0.0000000   0.0000000   0.0000000   0.0000000   0.0000000   0.0000000
 NMagM=    2.7928460   2.7928460   2.7928460   2.7928460   2.7928460   2.7928460   2.7928460
 AtZNuc=   1.0000000   1.0000000   1.0000000   1.0000000   1.0000000   1.0000000   1.0000000
 Leave Link  101 at Thu Sep 26 12:05:40 2019, MaxMem=   671088640 cpu:               6.1 elap:               3.0
 (Enter /shared/centos7/gaussian/g16/l103.exe)

 GradGradGradGradGradGradGradGradGradGradGradGradGradGradGradGradGradGrad
 Berny optimization.
 Initialization pass.
                           ----------------------------
                           !    Initial Parameters    !
                           ! (Angstroms and Degrees)  !
 --------------------------                            --------------------------
 ! Name  Definition              Value          Derivative Info.                !
 --------------------------------------------------------------------------------
 ! R1    R(1,3)                  1.412          calculate D2E/DX2 analytically  !
 ! R2    R(1,6)                  1.3762         calculate D2E/DX2 analytically  !
 ! R3    R(2,7)                  1.3869         calculate D2E/DX2 analytically  !
 ! R4    R(2,17)                 1.0009         calculate D2E/DX2 analytically  !
 ! R5    R(3,4)                  1.5287         calculate D2E/DX2 analytically  !
 ! R6    R(3,5)                  1.4933         calculate D2E/DX2 analytically  !
 ! R7    R(3,8)                  1.1253         calculate D2E/DX2 analytically  !
 ! R8    R(4,9)                  1.1101         calculate D2E/DX2 analytically  !
 ! R9    R(4,10)                 1.1052         calculate D2E/DX2 analytically  !
 ! R10   R(4,11)                 1.1237         calculate D2E/DX2 analytically  !
 ! R11   R(5,12)                 1.1299         calculate D2E/DX2 analytically  !
 ! R12   R(5,13)                 1.11           calculate D2E/DX2 analytically  !
 ! R13   R(5,14)                 1.1267         calculate D2E/DX2 analytically  !
 ! R14   R(6,7)                  1.3016         calculate D2E/DX2 analytically  !
 ! R15   R(6,15)                 1.1017         calculate D2E/DX2 analytically  !
 ! R16   R(7,16)                 1.08           calculate D2E/DX2 analytically  !
 ! A1    A(3,1,6)              113.6388         calculate D2E/DX2 analytically  !
 ! A2    A(7,2,17)             106.9568         calculate D2E/DX2 analytically  !
 ! A3    A(1,3,4)              112.7855         calculate D2E/DX2 analytically  !
 ! A4    A(1,3,5)              109.6817         calculate D2E/DX2 analytically  !
 ! A5    A(1,3,8)              108.0335         calculate D2E/DX2 analytically  !
 ! A6    A(4,3,5)              111.8357         calculate D2E/DX2 analytically  !
 ! A7    A(4,3,8)              106.6133         calculate D2E/DX2 analytically  !
 ! A8    A(5,3,8)              107.6454         calculate D2E/DX2 analytically  !
 ! A9    A(3,4,9)              111.7857         calculate D2E/DX2 analytically  !
 ! A10   A(3,4,10)             110.4309         calculate D2E/DX2 analytically  !
 ! A11   A(3,4,11)             109.9071         calculate D2E/DX2 analytically  !
 ! A12   A(9,4,10)             108.1701         calculate D2E/DX2 analytically  !
 ! A13   A(9,4,11)             108.5341         calculate D2E/DX2 analytically  !
 ! A14   A(10,4,11)            107.9039         calculate D2E/DX2 analytically  !
 ! A15   A(3,5,12)             111.266          calculate D2E/DX2 analytically  !
 ! A16   A(3,5,13)             111.4403         calculate D2E/DX2 analytically  !
 ! A17   A(3,5,14)             110.802          calculate D2E/DX2 analytically  !
 ! A18   A(12,5,13)            107.6104         calculate D2E/DX2 analytically  !
 ! A19   A(12,5,14)            107.6908         calculate D2E/DX2 analytically  !
 ! A20   A(13,5,14)            107.8614         calculate D2E/DX2 analytically  !
 ! A21   A(1,6,7)              123.7394         calculate D2E/DX2 analytically  !
 ! A22   A(1,6,15)             115.258          calculate D2E/DX2 analytically  !
 ! A23   A(7,6,15)             120.9465         calculate D2E/DX2 analytically  !
 ! A24   A(2,7,6)              123.0603         calculate D2E/DX2 analytically  !
 ! A25   A(2,7,16)             114.9752         calculate D2E/DX2 analytically  !
 ! A26   A(6,7,16)             121.9399         calculate D2E/DX2 analytically  !
 ! D1    D(6,1,3,4)            -29.3295         calculate D2E/DX2 analytically  !
 ! D2    D(6,1,3,5)           -154.6897         calculate D2E/DX2 analytically  !
 ! D3    D(6,1,3,8)             88.2443         calculate D2E/DX2 analytically  !
 ! D4    D(3,1,6,7)             93.6102         calculate D2E/DX2 analytically  !
 ! D5    D(3,1,6,15)           -89.0976         calculate D2E/DX2 analytically  !
 ! D6    D(17,2,7,6)           173.999          calculate D2E/DX2 analytically  !
 ! D7    D(17,2,7,16)           -7.7758         calculate D2E/DX2 analytically  !
 ! D8    D(1,3,4,9)            -55.0216         calculate D2E/DX2 analytically  !
 ! D9    D(1,3,4,10)            65.4595         calculate D2E/DX2 analytically  !
 ! D10   D(1,3,4,11)          -175.6063         calculate D2E/DX2 analytically  !
 ! D11   D(5,3,4,9)             69.1626         calculate D2E/DX2 analytically  !
 ! D12   D(5,3,4,10)          -170.3563         calculate D2E/DX2 analytically  !
 ! D13   D(5,3,4,11)           -51.4221         calculate D2E/DX2 analytically  !
 ! D14   D(8,3,4,9)           -173.4289         calculate D2E/DX2 analytically  !
 ! D15   D(8,3,4,10)           -52.9478         calculate D2E/DX2 analytically  !
 ! D16   D(8,3,4,11)            65.9864         calculate D2E/DX2 analytically  !
 ! D17   D(1,3,5,12)            61.9009         calculate D2E/DX2 analytically  !
 ! D18   D(1,3,5,13)           -58.2068         calculate D2E/DX2 analytically  !
 ! D19   D(1,3,5,14)          -178.3185         calculate D2E/DX2 analytically  !
 ! D20   D(4,3,5,12)           -64.003          calculate D2E/DX2 analytically  !
 ! D21   D(4,3,5,13)           175.8893         calculate D2E/DX2 analytically  !
 ! D22   D(4,3,5,14)            55.7776         calculate D2E/DX2 analytically  !
 ! D23   D(8,3,5,12)           179.2101         calculate D2E/DX2 analytically  !
 ! D24   D(8,3,5,13)            59.1024         calculate D2E/DX2 analytically  !
 ! D25   D(8,3,5,14)           -61.0093         calculate D2E/DX2 analytically  !
 ! D26   D(1,6,7,2)             -4.4329         calculate D2E/DX2 analytically  !
 ! D27   D(1,6,7,16)           177.463          calculate D2E/DX2 analytically  !
 ! D28   D(15,6,7,2)           178.4227         calculate D2E/DX2 analytically  !
 ! D29   D(15,6,7,16)            0.3186         calculate D2E/DX2 analytically  !
 --------------------------------------------------------------------------------
 Trust Radius=3.00D-01 FncErr=1.00D-07 GrdErr=1.00D-06 EigMax=2.50D+02 EigMin=1.00D-04
 Number of steps in this run=    102 maximum allowed number of steps=    102.
 GradGradGradGradGradGradGradGradGradGradGradGradGradGradGradGradGradGrad

 Leave Link  103 at Thu Sep 26 12:05:41 2019, MaxMem=   671088640 cpu:               1.5 elap:               0.8
 (Enter /shared/centos7/gaussian/g16/l202.exe)
                          Input orientation:                          
 ---------------------------------------------------------------------
 Center     Atomic      Atomic             Coordinates (Angstroms)
 Number     Number       Type             X           Y           Z
 ---------------------------------------------------------------------
      1          8           0        0.385927   -1.208987    2.416852
      2          8           0        1.958847    1.098610    2.836150
      3          6           0       -0.934103   -0.711879    2.351406
      4          6           0       -1.003629    0.712840    1.801538
      5          6           0       -1.579908   -0.821440    3.693420
      6          6           0        1.223285   -0.678564    1.462191
      7          6           0        1.981440    0.360289    1.662285
      8          1           0       -1.515675   -1.360434    1.639018
      9          1           0       -0.358067    1.408581    2.377217
     10          1           0       -0.678488    0.735088    0.745473
     11          1           0       -2.061708    1.088595    1.845207
     12          1           0       -1.032713   -0.201425    4.463384
     13          1           0       -1.591026   -1.871220    4.053854
     14          1           0       -2.645674   -0.457754    3.655518
     15          1           0        1.251326   -1.224605    0.505744
     16          1           0        2.657882    0.728315    0.905049
     17          1           0        2.696845    1.771674    2.771915
 ---------------------------------------------------------------------
                    Distance matrix (angstroms):
                    1          2          3          4          5
     1  O    0.000000
     2  O    2.823985   0.000000
     3  C    1.412047   3.447029   0.000000
     4  C    2.450080   3.161567   1.528729   0.000000
     5  C    2.375779   4.116344   1.493342   2.503064   0.000000
     6  C    1.376189   2.363718   2.333696   2.647698   3.585622
     7  C    2.361707   1.386935   3.181953   3.009040   4.266755
     8  H    2.060110   4.421801   1.125320   2.141744   2.124902
     9  H    2.721536   2.382182   2.197461   1.110050   2.863264
    10  H    2.775952   3.385057   2.176712   1.105209   3.453365
    11  H    3.405375   4.140885   2.183905   1.123668   2.701158
    12  H    2.686264   3.645191   2.175026   2.814631   1.129905
    13  H    2.650787   4.785843   2.161932   3.477834   1.109989
    14  H    3.359947   4.929021   2.166740   2.739314   1.126748
    15  H    2.097973   3.365814   2.906106   3.243085   4.282488
    16  H    3.346710   2.086844   4.131400   3.769694   5.304302
    17  H    3.788239   1.000891   4.419123   3.969417   5.085669
                    6          7          8          9         10
     6  C    0.000000
     7  C    1.301558   0.000000
     8  H    2.828094   3.897594   0.000000
     9  H    2.773828   2.661455   3.090702   0.000000
    10  H    2.475648   2.838351   2.427038   1.794116   0.000000
    11  H    3.749764   4.112291   2.517620   1.813234   1.802132
    12  H    3.784753   4.152927   3.090890   2.720177   3.850376
    13  H    4.007430   4.843733   2.469416   3.884379   4.309403
    14  H    4.452896   5.104151   2.481532   3.217205   3.709590
    15  H    1.101697   2.093452   2.993167   3.609187   2.760806
    16  H    2.085134   1.080011   4.724421   3.424323   3.340190
    17  H    3.144905   1.932639   5.370185   3.101631   4.071099
                   11         12         13         14         15
    11  H    0.000000
    12  H    3.094807   0.000000
    13  H    3.722925   1.807663   0.000000
    14  H    2.451415   1.822086   1.807993   0.000000
    15  H    4.256906   4.682590   4.591967   5.069097   0.000000
    16  H    4.825788   5.210246   5.892858   6.090940   2.439619
    17  H    4.895836   4.545745   5.770606   5.856075   4.025263
                   16         17
    16  H    0.000000
    17  H    2.138996   0.000000
 Stoichiometry    C5H10O2
 Framework group  C1[X(C5H10O2)]
 Deg. of freedom    45
 Full point group                 C1      NOp   1
 Largest Abelian subgroup         C1      NOp   1
 Largest concise Abelian subgroup C1      NOp   1
                         Standard orientation:                         
 ---------------------------------------------------------------------
 Center     Atomic      Atomic             Coordinates (Angstroms)
 Number     Number       Type             X           Y           Z
 ---------------------------------------------------------------------
      1          8           0       -0.240395    0.952204   -0.483454
      2          8           0        1.825518   -0.965270   -0.657208
      3          6           0       -1.263550    0.284579    0.224577
      4          6           0       -0.723113   -0.759051    1.202216
      5          6           0       -2.237362   -0.309116   -0.739417
      6          6           0        0.942185    1.046654    0.214026
      7          6           0        1.914793    0.188312    0.107558
      8          1           0       -1.815564    1.047341    0.840874
      9          1           0       -0.061906   -1.493596    0.696785
     10          1           0       -0.143957   -0.270530    2.006834
     11          1           0       -1.575701   -1.314625    1.678726
     12          1           0       -1.740890   -1.077518   -1.402561
     13          1           0       -2.680588    0.466694   -1.398009
     14          1           0       -3.079503   -0.821074   -0.193285
     15          1           0        1.041610    1.939239    0.852104
     16          1           0        2.846945    0.312285    0.638732
     17          1           0        2.730862   -1.391957   -0.648664
 ---------------------------------------------------------------------
 Rotational constants (GHZ):           4.4197312           1.7665770           1.6746347
 Leave Link  202 at Thu Sep 26 12:05:43 2019, MaxMem=   671088640 cpu:               4.0 elap:               2.0
 (Enter /shared/centos7/gaussian/g16/l301.exe)
 Standard basis: CC-pVTZ (5D, 7F)
 Ernie: Thresh=  0.10000D-02 Tol=  0.10000D-05 Strict=F.
 Ernie:  21 primitive shells out of 262 were deleted.
 There are   395 symmetry adapted cartesian basis functions of A   symmetry.
 There are   350 symmetry adapted basis functions of A   symmetry.
   350 basis functions,   534 primitive gaussians,   395 cartesian basis functions
    28 alpha electrons       28 beta electrons
       nuclear repulsion energy       323.3743003416 Hartrees.
 IExCor= 4336 DFT=T Ex+Corr=M062X ExCW=0 ScaHFX=  0.540000
 ScaDFX=  1.000000  1.000000  1.000000  1.000000 ScalE2=  1.000000  1.000000
 IRadAn=      5 IRanWt=     -1 IRanGd=            0 ICorTp=0 IEmpDi=  4
 NAtoms=   17 NActive=   17 NUniq=   17 SFac= 1.00D+00 NAtFMM=   60 NAOKFM=F Big=F
 Integral buffers will be    131072 words long.
 Raffenetti 2 integral format.
 Two-electron integral symmetry is turned on.
 Leave Link  301 at Thu Sep 26 12:05:44 2019, MaxMem=   671088640 cpu:               1.8 elap:               0.9
 (Enter /shared/centos7/gaussian/g16/l302.exe)
 NPDir=0 NMtPBC=     1 NCelOv=     1 NCel=       1 NClECP=     1 NCelD=      1
         NCelK=      1 NCelE2=     1 NClLst=     1 CellRange=     0.0.
 One-electron integrals computed using PRISM.
 One-electron integral symmetry used in STVInt
 NBasis=   350 RedAO= T EigKep=  2.80D-04  NBF=   350
 NBsUse=   350 1.00D-06 EigRej= -1.00D+00 NBFU=   350
 Precomputing XC quadrature grid using
 IXCGrd= 4 IRadAn=           5 IRanWt=          -1 IRanGd=           0 AccXCQ= 0.00D+00.
 Generated NRdTot=       0 NPtTot=           0 NUsed=           0 NTot=          32
 NSgBfM=   395   395   395   395   395 MxSgAt=    17 MxSgA2=    17.
 Leave Link  302 at Thu Sep 26 12:06:45 2019, MaxMem=   671088640 cpu:             121.8 elap:              60.9
 (Enter /shared/centos7/gaussian/g16/l303.exe)
 DipDrv:  MaxL=1.
 Leave Link  303 at Thu Sep 26 12:06:50 2019, MaxMem=   671088640 cpu:              10.8 elap:               5.4
 (Enter /shared/centos7/gaussian/g16/l401.exe)
 ExpMin= 1.03D-01 ExpMax= 1.53D+04 ExpMxC= 5.22D+02 IAcc=3 IRadAn=         5 AccDes= 0.00D+00
 Harris functional with IExCor= 1009 and IRadAn=       5 diagonalized for initial guess.
 HarFok:  IExCor= 1009 AccDes= 0.00D+00 IRadAn=         5 IDoV= 1 UseB2=F ITyADJ=14
 ICtDFT=  3500011 ScaDFX=  1.000000  1.000000  1.000000  1.000000
 FoFCou: FMM=F IPFlag=           0 FMFlag=      100000 FMFlg1=           0
         NFxFlg=           0 DoJE=T BraDBF=F KetDBF=T FulRan=T
         wScrn=  0.000000 ICntrl=       500 IOpCl=  0 I1Cent=   200000004 NGrid=           0
         NMat0=    1 NMatS0=      1 NMatT0=    0 NMatD0=    1 NMtDS0=    0 NMtDT0=    0
 Petite list used in FoFCou.
 Harris En= -346.810387553512    
 JPrj=0 DoOrth=F DoCkMO=F.
 Leave Link  401 at Thu Sep 26 12:07:23 2019, MaxMem=   671088640 cpu:              65.3 elap:              32.7
 (Enter /shared/centos7/gaussian/g16/l502.exe)
 Integral symmetry usage will be decided dynamically.
 Closed shell SCF:
 Using DIIS extrapolation, IDIIS=  1040.
 NGot=   671088640 LenX=   670765141 LenY=   670608675
 Requested convergence on RMS density matrix=1.00D-08 within 900 cycles.
 Requested convergence on MAX density matrix=1.00D-06.
 Requested convergence on             energy=1.00D-06.
 No special actions if energy rises.
 Fock matrices will be formed incrementally for  20 cycles.
 Integral accuracy reduced to 1.0D-05 until final iterations.

 Cycle   1  Pass 0  IDiag  1:
 FoFJK:  IHMeth= 1 ICntrl=       0 DoSepK=F KAlg= 0 I1Cent=           0 FoldK=F
 IRaf= 960000000 NMat=       1 IRICut=       1 DoRegI=T DoRafI=F ISym2E= 0 IDoP0=0 IntGTp=1.
 FoFCou: FMM=F IPFlag=           0 FMFlag=      100000 FMFlg1=           0
         NFxFlg=           0 DoJE=F BraDBF=F KetDBF=F FulRan=T
         wScrn=  0.000000 ICntrl=         0 IOpCl=  0 I1Cent=           0 NGrid=           0
         NMat0=    1 NMatS0=      1 NMatT0=    0 NMatD0=    1 NMtDS0=    0 NMtDT0=    0
 Symmetry not used in FoFCou.
 E= -346.692409071063    
 DIIS: error= 1.97D-02 at cycle   1 NSaved=   1.
 NSaved= 1 IEnMin= 1 EnMin= -346.692409071063     IErMin= 1 ErrMin= 1.97D-02
 ErrMax= 1.97D-02  0.00D+00 EMaxC= 1.00D-01 BMatC= 2.90D-01 BMatP= 2.90D-01
 IDIUse=3 WtCom= 8.03D-01 WtEn= 1.97D-01
 Coeff-Com:  0.100D+01
 Coeff-En:   0.100D+01
 Coeff:      0.100D+01
 Gap=     0.357 Goal=   None    Shift=    0.000
 GapD=    0.357 DampG=1.000 DampE=0.500 DampFc=0.5000 IDamp=-1.
 Damping current iteration by 5.00D-01
 RMSDP=2.48D-03 MaxDP=1.61D-01              OVMax= 1.46D-01

 Cycle   2  Pass 0  IDiag  1:
 RMSU=  1.24D-03    CP:  1.00D+00
 E= -346.811986626897     Delta-E=       -0.119577555834 Rises=F Damp=T
 DIIS: error= 4.48D-03 at cycle   2 NSaved=   2.
 NSaved= 2 IEnMin= 2 EnMin= -346.811986626897     IErMin= 2 ErrMin= 4.48D-03
 ErrMax= 4.48D-03  0.00D+00 EMaxC= 1.00D-01 BMatC= 2.15D-02 BMatP= 2.90D-01
 IDIUse=3 WtCom= 9.55D-01 WtEn= 4.48D-02
 Coeff-Com: -0.108D+00 0.111D+01
 Coeff-En:   0.000D+00 0.100D+01
 Coeff:     -0.103D+00 0.110D+01
 Gap=     0.336 Goal=   None    Shift=    0.000
 RMSDP=5.41D-04 MaxDP=3.11D-02 DE=-1.20D-01 OVMax= 7.52D-02

 Cycle   3  Pass 0  IDiag  1:
 RMSU=  4.85D-04    CP:  1.00D+00  8.07D-01
 E= -346.923119595361     Delta-E=       -0.111132968464 Rises=F Damp=F
 DIIS: error= 2.89D-03 at cycle   3 NSaved=   3.
 NSaved= 3 IEnMin= 3 EnMin= -346.923119595361     IErMin= 3 ErrMin= 2.89D-03
 ErrMax= 2.89D-03  0.00D+00 EMaxC= 1.00D-01 BMatC= 4.51D-03 BMatP= 2.15D-02
 IDIUse=3 WtCom= 9.71D-01 WtEn= 2.89D-02
 Coeff-Com: -0.834D-01 0.330D+00 0.754D+00
 Coeff-En:   0.000D+00 0.000D+00 0.100D+01
 Coeff:     -0.810D-01 0.320D+00 0.761D+00
 Gap=     0.335 Goal=   None    Shift=    0.000
 RMSDP=2.22D-04 MaxDP=1.24D-02 DE=-1.11D-01 OVMax= 1.26D-02

 Cycle   4  Pass 0  IDiag  1:
 RMSU=  1.35D-04    CP:  1.01D+00  9.37D-01  8.53D-01
 E= -346.925786557576     Delta-E=       -0.002666962215 Rises=F Damp=F
 DIIS: error= 1.06D-03 at cycle   4 NSaved=   4.
 NSaved= 4 IEnMin= 4 EnMin= -346.925786557576     IErMin= 4 ErrMin= 1.06D-03
 ErrMax= 1.06D-03  0.00D+00 EMaxC= 1.00D-01 BMatC= 1.08D-03 BMatP= 4.51D-03
 IDIUse=3 WtCom= 9.89D-01 WtEn= 1.06D-02
 Coeff-Com: -0.289D-01 0.783D-01 0.374D+00 0.577D+00
 Coeff-En:   0.000D+00 0.000D+00 0.126D+00 0.874D+00
 Coeff:     -0.286D-01 0.774D-01 0.371D+00 0.580D+00
 Gap=     0.332 Goal=   None    Shift=    0.000
 RMSDP=7.58D-05 MaxDP=4.58D-03 DE=-2.67D-03 OVMax= 6.07D-03

 Cycle   5  Pass 0  IDiag  1:
 RMSU=  3.33D-05    CP:  1.00D+00  9.05D-01  9.15D-01  6.58D-01
 E= -346.926565115827     Delta-E=       -0.000778558251 Rises=F Damp=F
 DIIS: error= 2.43D-04 at cycle   5 NSaved=   5.
 NSaved= 5 IEnMin= 5 EnMin= -346.926565115827     IErMin= 5 ErrMin= 2.43D-04
 ErrMax= 2.43D-04  0.00D+00 EMaxC= 1.00D-01 BMatC= 3.68D-05 BMatP= 1.08D-03
 IDIUse=3 WtCom= 9.98D-01 WtEn= 2.43D-03
 Coeff-Com: -0.581D-02 0.108D-01 0.100D+00 0.229D+00 0.665D+00
 Coeff-En:   0.000D+00 0.000D+00 0.000D+00 0.000D+00 0.100D+01
 Coeff:     -0.580D-02 0.108D-01 0.100D+00 0.229D+00 0.666D+00
 Gap=     0.332 Goal=   None    Shift=    0.000
 RMSDP=1.15D-05 MaxDP=3.07D-04 DE=-7.79D-04 OVMax= 9.50D-04

 Cycle   6  Pass 0  IDiag  1:
 RMSU=  8.53D-06    CP:  1.00D+00  9.03D-01  9.20D-01  6.82D-01  8.13D-01
 E= -346.926590897243     Delta-E=       -0.000025781416 Rises=F Damp=F
 DIIS: error= 4.09D-05 at cycle   6 NSaved=   6.
 NSaved= 6 IEnMin= 6 EnMin= -346.926590897243     IErMin= 6 ErrMin= 4.09D-05
 ErrMax= 4.09D-05  0.00D+00 EMaxC= 1.00D-01 BMatC= 1.38D-06 BMatP= 3.68D-05
 IDIUse=1 WtCom= 1.00D+00 WtEn= 0.00D+00
 Coeff-Com: -0.308D-04-0.112D-02 0.100D-01 0.433D-01 0.193D+00 0.755D+00
 Coeff:     -0.308D-04-0.112D-02 0.100D-01 0.433D-01 0.193D+00 0.755D+00
 Gap=     0.332 Goal=   None    Shift=    0.000
 RMSDP=3.51D-06 MaxDP=1.60D-04 DE=-2.58D-05 OVMax= 3.93D-04

 Initial convergence to 1.0D-05 achieved.  Increase integral accuracy.
 Cycle   7  Pass 1  IDiag  1:
 E= -346.926567963056     Delta-E=        0.000022934187 Rises=F Damp=F
 DIIS: error= 2.60D-05 at cycle   1 NSaved=   1.
 NSaved= 1 IEnMin= 1 EnMin= -346.926567963056     IErMin= 1 ErrMin= 2.60D-05
 ErrMax= 2.60D-05  0.00D+00 EMaxC= 1.00D-01 BMatC= 7.66D-07 BMatP= 7.66D-07
 IDIUse=1 WtCom= 1.00D+00 WtEn= 0.00D+00
 Coeff-Com:  0.100D+01
 Coeff:      0.100D+01
 Gap=     0.332 Goal=   None    Shift=    0.000
 RMSDP=3.51D-06 MaxDP=1.60D-04 DE= 2.29D-05 OVMax= 1.62D-04

 Cycle   8  Pass 1  IDiag  1:
 RMSU=  6.91D-06    CP:  1.00D+00
 E= -346.926568164085     Delta-E=       -0.000000201029 Rises=F Damp=F
 DIIS: error= 1.94D-05 at cycle   2 NSaved=   2.
 NSaved= 2 IEnMin= 2 EnMin= -346.926568164085     IErMin= 2 ErrMin= 1.94D-05
 ErrMax= 1.94D-05  0.00D+00 EMaxC= 1.00D-01 BMatC= 3.35D-07 BMatP= 7.66D-07
 IDIUse=1 WtCom= 1.00D+00 WtEn= 0.00D+00
 Coeff-Com:  0.369D+00 0.631D+00
 Coeff:      0.369D+00 0.631D+00
 Gap=     0.332 Goal=   None    Shift=    0.000
 RMSDP=1.26D-06 MaxDP=6.90D-05 DE=-2.01D-07 OVMax= 1.55D-04

 Cycle   9  Pass 1  IDiag  1:
 RMSU=  1.25D-06    CP:  1.00D+00  9.75D-01
 E= -346.926568381500     Delta-E=       -0.000000217415 Rises=F Damp=F
 DIIS: error= 8.04D-06 at cycle   3 NSaved=   3.
 NSaved= 3 IEnMin= 3 EnMin= -346.926568381500     IErMin= 3 ErrMin= 8.04D-06
 ErrMax= 8.04D-06  0.00D+00 EMaxC= 1.00D-01 BMatC= 5.25D-08 BMatP= 3.35D-07
 IDIUse=1 WtCom= 1.00D+00 WtEn= 0.00D+00
 Coeff-Com: -0.908D-02 0.276D+00 0.733D+00
 Coeff:     -0.908D-02 0.276D+00 0.733D+00
 Gap=     0.332 Goal=   None    Shift=    0.000
 RMSDP=4.77D-07 MaxDP=2.59D-05 DE=-2.17D-07 OVMax= 3.17D-05

 Cycle  10  Pass 1  IDiag  1:
 RMSU=  2.52D-07    CP:  1.00D+00  1.01D+00  7.54D-01
 E= -346.926568417805     Delta-E=       -0.000000036305 Rises=F Damp=F
 DIIS: error= 1.29D-06 at cycle   4 NSaved=   4.
 NSaved= 4 IEnMin= 4 EnMin= -346.926568417805     IErMin= 4 ErrMin= 1.29D-06
 ErrMax= 1.29D-06  0.00D+00 EMaxC= 1.00D-01 BMatC= 1.52D-09 BMatP= 5.25D-08
 IDIUse=1 WtCom= 1.00D+00 WtEn= 0.00D+00
 Coeff-Com: -0.116D-01 0.109D+00 0.316D+00 0.586D+00
 Coeff:     -0.116D-01 0.109D+00 0.316D+00 0.586D+00
 Gap=     0.332 Goal=   None    Shift=    0.000
 RMSDP=1.01D-07 MaxDP=4.59D-06 DE=-3.63D-08 OVMax= 7.52D-06

 Cycle  11  Pass 1  IDiag  1:
 RMSU=  9.38D-08    CP:  1.00D+00  1.01D+00  7.81D-01  9.56D-01
 E= -346.926568419007     Delta-E=       -0.000000001201 Rises=F Damp=F
 DIIS: error= 4.31D-07 at cycle   5 NSaved=   5.
 NSaved= 5 IEnMin= 5 EnMin= -346.926568419007     IErMin= 5 ErrMin= 4.31D-07
 ErrMax= 4.31D-07  0.00D+00 EMaxC= 1.00D-01 BMatC= 9.82D-11 BMatP= 1.52D-09
 IDIUse=1 WtCom= 1.00D+00 WtEn= 0.00D+00
 Coeff-Com: -0.125D-02-0.110D-01-0.303D-01 0.149D+00 0.894D+00
 Coeff:     -0.125D-02-0.110D-01-0.303D-01 0.149D+00 0.894D+00
 Gap=     0.332 Goal=   None    Shift=    0.000
 RMSDP=4.81D-08 MaxDP=2.58D-06 DE=-1.20D-09 OVMax= 4.09D-06

 Cycle  12  Pass 1  IDiag  1:
 RMSU=  2.60D-08    CP:  1.00D+00  1.01D+00  7.78D-01  1.10D+00  1.02D+00
 E= -346.926568419121     Delta-E=       -0.000000000114 Rises=F Damp=F
 DIIS: error= 1.72D-07 at cycle   6 NSaved=   6.
 NSaved= 6 IEnMin= 6 EnMin= -346.926568419121     IErMin= 6 ErrMin= 1.72D-07
 ErrMax= 1.72D-07  0.00D+00 EMaxC= 1.00D-01 BMatC= 1.43D-11 BMatP= 9.82D-11
 IDIUse=1 WtCom= 1.00D+00 WtEn= 0.00D+00
 Coeff-Com:  0.658D-03-0.153D-01-0.447D-01 0.143D-02 0.363D+00 0.695D+00
 Coeff:      0.658D-03-0.153D-01-0.447D-01 0.143D-02 0.363D+00 0.695D+00
 Gap=     0.332 Goal=   None    Shift=    0.000
 RMSDP=1.16D-08 MaxDP=3.58D-07 DE=-1.14D-10 OVMax= 1.34D-06

 Cycle  13  Pass 1  IDiag  1:
 RMSU=  7.32D-09    CP:  1.00D+00  1.01D+00  7.80D-01  1.12D+00  1.09D+00
                    CP:  9.16D-01
 E= -346.926568419131     Delta-E=       -0.000000000009 Rises=F Damp=F
 DIIS: error= 4.17D-08 at cycle   7 NSaved=   7.
 NSaved= 7 IEnMin= 7 EnMin= -346.926568419131     IErMin= 7 ErrMin= 4.17D-08
 ErrMax= 4.17D-08  0.00D+00 EMaxC= 1.00D-01 BMatC= 1.31D-12 BMatP= 1.43D-11
 IDIUse=1 WtCom= 1.00D+00 WtEn= 0.00D+00
 Coeff-Com:  0.389D-03-0.493D-02-0.150D-01-0.139D-01 0.568D-01 0.270D+00
 Coeff-Com:  0.707D+00
 Coeff:      0.389D-03-0.493D-02-0.150D-01-0.139D-01 0.568D-01 0.270D+00
 Coeff:      0.707D+00
 Gap=     0.332 Goal=   None    Shift=    0.000
 RMSDP=4.11D-09 MaxDP=2.30D-07 DE=-9.21D-12 OVMax= 4.65D-07

 SCF Done:  E(RM062X) =  -346.926568419     A.U. after   13 cycles
            NFock= 13  Conv=0.41D-08     -V/T= 2.0063
 KE= 3.447549172678D+02 PE=-1.457059591408D+03 EE= 4.420038053797D+02
 Leave Link  502 at Thu Sep 26 12:18:30 2019, MaxMem=   671088640 cpu:            1333.0 elap:             666.6
 (Enter /shared/centos7/gaussian/g16/l801.exe)
 DoSCS=F DFT=T ScalE2(SS,OS)=  1.000000  1.000000
 Range of M.O.s used for correlation:     1   350
 NBasis=   350 NAE=    28 NBE=    28 NFC=     0 NFV=     0
 NROrb=    350 NOA=    28 NOB=    28 NVA=   322 NVB=   322

 **** Warning!!: The largest alpha MO coefficient is  0.12248577D+02

 Leave Link  801 at Thu Sep 26 12:18:31 2019, MaxMem=   671088640 cpu:               1.6 elap:               0.8
 (Enter /shared/centos7/gaussian/g16/l1101.exe)
 Using compressed storage, NAtomX=    17.
 Will process     18 centers per pass.
 Leave Link 1101 at Thu Sep 26 12:19:00 2019, MaxMem=   671088640 cpu:              58.2 elap:              29.1
 (Enter /shared/centos7/gaussian/g16/l1102.exe)
 Symmetrizing basis deriv contribution to polar:
 IMax=3 JMax=2 DiffMx= 0.00D+00
 Leave Link 1102 at Thu Sep 26 12:19:02 2019, MaxMem=   671088640 cpu:               5.1 elap:               2.5
 (Enter /shared/centos7/gaussian/g16/l1110.exe)
 Forming Gx(P) for the SCF density, NAtomX=    17.
 Integral derivatives from FoFJK, PRISM(SPDF).
 Do as many integral derivatives as possible in FoFJK.
 G2DrvN: MDV=     671087280.
 G2DrvN: will do    18 centers at a time, making    1 passes.
 Calling FoFCou, ICntrl=  3107 FMM=F I1Cent=   0 AccDes= 0.00D+00.
 FoFJK:  IHMeth= 1 ICntrl=    3107 DoSepK=F KAlg= 0 I1Cent=           0 FoldK=F
 IRaf=         0 NMat=       1 IRICut=       1 DoRegI=T DoRafI=F ISym2E= 0 IDoP0=0 IntGTp=1.
 FoFCou: FMM=F IPFlag=           0 FMFlag=      100000 FMFlg1=           0
         NFxFlg=           0 DoJE=F BraDBF=F KetDBF=F FulRan=T
         wScrn=  0.000000 ICntrl=      3107 IOpCl=  0 I1Cent=           0 NGrid=           0
         NMat0=    1 NMatS0=      1 NMatT0=    0 NMatD0=    1 NMtDS0=    0 NMtDT0=    0
 Symmetry not used in FoFCou.
 End of G2Drv F.D. properties file   721 does not exist.
 End of G2Drv F.D. properties file   722 does not exist.
 End of G2Drv F.D. properties file   788 does not exist.
 Leave Link 1110 at Thu Sep 26 12:39:04 2019, MaxMem=   671088640 cpu:            2403.6 elap:            1201.9
 (Enter /shared/centos7/gaussian/g16/l1002.exe)
 Minotr:  Closed shell wavefunction.
          IDoAtm=11111111111111111
          Direct CPHF calculation.
          Differentiating once with respect to nuclear coordinates.
          Requested convergence is 1.0D-08 RMS, and 1.0D-07 maximum.
          Secondary convergence is 1.0D-12 RMS, and 1.0D-12 maximum.
          NewPWx=T KeepS1=F KeepF1=F KeepIn=T MapXYZ=F SortEE=F KeepMc=T.
         5102 words used for storage of precomputed grid.
 Two-electron integrals replicated using symmetry.
          MDV=     671088640 using IRadAn=       1.
          Solving linear equations simultaneously, MaxMat=     380.
 FoF2E skips out because all densities are zero.
 CalDSu exits because no D1Ps are significant.
 FoFJK:  IHMeth= 1 ICntrl=       0 DoSepK=F KAlg= 0 I1Cent=           0 FoldK=F
 IRaf= 950000000 NMat=      51 IRICut=     127 DoRegI=T DoRafI=T ISym2E= 2 IDoP0=3 IntGTp=3.
 FoFCou: FMM=F IPFlag=           0 FMFlag=      100000 FMFlg1=           0
         NFxFlg=           0 DoJE=F BraDBF=F KetDBF=F FulRan=T
         wScrn=  0.000000 ICntrl=         0 IOpCl=  0 I1Cent=           0 NGrid=           0
         NMat0=   51 NMatS0=     51 NMatT0=    0 NMatD0=   51 NMtDS0=    0 NMtDT0=    0
 Integrals replicated using symmetry in FoFCou.
 Raff kept on since  92.40% of shell-pairs survive, threshold=   0.20 IRatSp=92.
          There are    54 degrees of freedom in the 1st order CPHF.  IDoFFX=6 NUNeed=     0.
     48 vectors produced by pass  0 Test12= 1.67D-14 1.85D-09 XBig12= 7.52D-02 5.24D-02.
 AX will form    48 AO Fock derivatives at one time.
     48 vectors produced by pass  1 Test12= 1.67D-14 1.85D-09 XBig12= 9.60D-03 2.83D-02.
     48 vectors produced by pass  2 Test12= 1.67D-14 1.85D-09 XBig12= 2.50D-04 2.41D-03.
     48 vectors produced by pass  3 Test12= 1.67D-14 1.85D-09 XBig12= 1.75D-06 1.47D-04.
     48 vectors produced by pass  4 Test12= 1.67D-14 1.85D-09 XBig12= 1.25D-08 1.35D-05.
     48 vectors produced by pass  5 Test12= 1.67D-14 1.85D-09 XBig12= 7.44D-11 9.89D-07.
     24 vectors produced by pass  6 Test12= 1.67D-14 1.85D-09 XBig12= 3.09D-13 7.50D-08.
      3 vectors produced by pass  7 Test12= 1.67D-14 1.85D-09 XBig12= 1.13D-15 3.61D-09.
 InvSVY:  IOpt=1 It=  1 EMax= 2.50D-16
 Solved reduced A of dimension   315 with    54 vectors.
 End of Minotr F.D. properties file   721 does not exist.
 End of Minotr F.D. properties file   722 does not exist.
 End of Minotr F.D. properties file   788 does not exist.
 Leave Link 1002 at Thu Sep 26 13:11:41 2019, MaxMem=   671088640 cpu:            3913.2 elap:            1956.7
 (Enter /shared/centos7/gaussian/g16/l601.exe)
 Copying SCF densities to generalized density rwf, IOpCl= 0 IROHF=0.

 **********************************************************************

            Population analysis using the SCF density.

 **********************************************************************

 Orbital symmetries:
       Occupied  (A) (A) (A) (A) (A) (A) (A) (A) (A) (A) (A) (A)
                 (A) (A) (A) (A) (A) (A) (A) (A) (A) (A) (A) (A)
                 (A) (A) (A) (A)
       Virtual   (A) (A) (A) (A) (A) (A) (A) (A) (A) (A) (A) (A)
                 (A) (A) (A) (A) (A) (A) (A) (A) (A) (A) (A) (A)
                 (A) (A) (A) (A) (A) (A) (A) (A) (A) (A) (A) (A)
                 (A) (A) (A) (A) (A) (A) (A) (A) (A) (A) (A) (A)
                 (A) (A) (A) (A) (A) (A) (A) (A) (A) (A) (A) (A)
                 (A) (A) (A) (A) (A) (A) (A) (A) (A) (A) (A) (A)
                 (A) (A) (A) (A) (A) (A) (A) (A) (A) (A) (A) (A)
                 (A) (A) (A) (A) (A) (A) (A) (A) (A) (A) (A) (A)
                 (A) (A) (A) (A) (A) (A) (A) (A) (A) (A) (A) (A)
                 (A) (A) (A) (A) (A) (A) (A) (A) (A) (A) (A) (A)
                 (A) (A) (A) (A) (A) (A) (A) (A) (A) (A) (A) (A)
                 (A) (A) (A) (A) (A) (A) (A) (A) (A) (A) (A) (A)
                 (A) (A) (A) (A) (A) (A) (A) (A) (A) (A) (A) (A)
                 (A) (A) (A) (A) (A) (A) (A) (A) (A) (A) (A) (A)
                 (A) (A) (A) (A) (A) (A) (A) (A) (A) (A) (A) (A)
                 (A) (A) (A) (A) (A) (A) (A) (A) (A) (A) (A) (A)
                 (A) (A) (A) (A) (A) (A) (A) (A) (A) (A) (A) (A)
                 (A) (A) (A) (A) (A) (A) (A) (A) (A) (A) (A) (A)
                 (A) (A) (A) (A) (A) (A) (A) (A) (A) (A) (A) (A)
                 (A) (A) (A) (A) (A) (A) (A) (A) (A) (A) (A) (A)
                 (A) (A) (A) (A) (A) (A) (A) (A) (A) (A) (A) (A)
                 (A) (A) (A) (A) (A) (A) (A) (A) (A) (A) (A) (A)
                 (A) (A) (A) (A) (A) (A) (A) (A) (A) (A) (A) (A)
                 (A) (A) (A) (A) (A) (A) (A) (A) (A) (A) (A) (A)
                 (A) (A) (A) (A) (A) (A) (A) (A) (A) (A) (A) (A)
                 (A) (A) (A) (A) (A) (A) (A) (A) (A) (A) (A) (A)
                 (A) (A) (A) (A) (A) (A) (A) (A) (A) (A)
 The electronic state is 1-A.
 Alpha  occ. eigenvalues --  -19.65552 -19.62876 -10.58725 -10.58688 -10.57345
 Alpha  occ. eigenvalues --  -10.52526 -10.52225  -1.17896  -1.15910  -0.88506
 Alpha  occ. eigenvalues --   -0.84077  -0.77001  -0.68776  -0.64528  -0.60910
 Alpha  occ. eigenvalues --   -0.57350  -0.53669  -0.52649  -0.50363  -0.47094
 Alpha  occ. eigenvalues --   -0.45315  -0.43721  -0.43458  -0.42002  -0.41027
 Alpha  occ. eigenvalues --   -0.38390  -0.33018  -0.28768
 Alpha virt. eigenvalues --    0.04478   0.07148   0.08460   0.09657   0.12125
 Alpha virt. eigenvalues --    0.12174   0.12623   0.14407   0.16062   0.17458
 Alpha virt. eigenvalues --    0.17819   0.19158   0.21689   0.23960   0.26714
 Alpha virt. eigenvalues --    0.28406   0.29205   0.30992   0.32455   0.33944
 Alpha virt. eigenvalues --    0.34404   0.35069   0.36906   0.37391   0.39846
 Alpha virt. eigenvalues --    0.40815   0.43187   0.44857   0.45571   0.46420
 Alpha virt. eigenvalues --    0.46732   0.47836   0.48305   0.50219   0.51174
 Alpha virt. eigenvalues --    0.51787   0.52250   0.52945   0.54461   0.55789
 Alpha virt. eigenvalues --    0.56350   0.58327   0.60278   0.63017   0.64350
 Alpha virt. eigenvalues --    0.65600   0.68318   0.69581   0.70607   0.72580
 Alpha virt. eigenvalues --    0.74242   0.77513   0.79050   0.80078   0.83588
 Alpha virt. eigenvalues --    0.85112   0.86020   0.87306   0.90752   0.91958
 Alpha virt. eigenvalues --    0.92214   0.94029   0.97586   0.98744   1.01087
 Alpha virt. eigenvalues --    1.01246   1.02682   1.04789   1.06181   1.07137
 Alpha virt. eigenvalues --    1.09455   1.10692   1.12238   1.12447   1.14045
 Alpha virt. eigenvalues --    1.15632   1.16783   1.18472   1.20249   1.21845
 Alpha virt. eigenvalues --    1.23641   1.24909   1.26356   1.27744   1.28136
 Alpha virt. eigenvalues --    1.28699   1.30220   1.32714   1.33107   1.36163
 Alpha virt. eigenvalues --    1.37626   1.38709   1.40147   1.42185   1.43860
 Alpha virt. eigenvalues --    1.45081   1.45876   1.46889   1.48153   1.52384
 Alpha virt. eigenvalues --    1.52545   1.54721   1.56112   1.58631   1.61091
 Alpha virt. eigenvalues --    1.64041   1.65202   1.65885   1.78669   1.86872
 Alpha virt. eigenvalues --    1.90140   1.98975   2.01757   2.05316   2.07487
 Alpha virt. eigenvalues --    2.09722   2.11286   2.15993   2.17034   2.18380
 Alpha virt. eigenvalues --    2.24181   2.27905   2.32847   2.34343   2.35763
 Alpha virt. eigenvalues --    2.37418   2.40447   2.41849   2.44544   2.44992
 Alpha virt. eigenvalues --    2.48701   2.53293   2.55609   2.57303   2.59096
 Alpha virt. eigenvalues --    2.60329   2.62449   2.64016   2.66633   2.67963
 Alpha virt. eigenvalues --    2.71921   2.73924   2.76207   2.77323   2.81363
 Alpha virt. eigenvalues --    2.81940   2.82994   2.85995   2.86731   2.87708
 Alpha virt. eigenvalues --    2.88804   2.90851   2.92364   2.93932   2.95638
 Alpha virt. eigenvalues --    2.96458   2.99239   2.99656   3.00682   3.01693
 Alpha virt. eigenvalues --    3.03602   3.04919   3.06139   3.07551   3.09346
 Alpha virt. eigenvalues --    3.10307   3.11012   3.12696   3.13494   3.14132
 Alpha virt. eigenvalues --    3.16212   3.16632   3.19671   3.19837   3.23404
 Alpha virt. eigenvalues --    3.25192   3.26424   3.28182   3.28653   3.29834
 Alpha virt. eigenvalues --    3.30856   3.32897   3.34784   3.35108   3.38353
 Alpha virt. eigenvalues --    3.39604   3.40722   3.42025   3.42214   3.44544
 Alpha virt. eigenvalues --    3.46398   3.48034   3.49168   3.51052   3.54375
 Alpha virt. eigenvalues --    3.55179   3.55665   3.58673   3.59001   3.60619
 Alpha virt. eigenvalues --    3.63132   3.65446   3.67767   3.69968   3.71505
 Alpha virt. eigenvalues --    3.73639   3.74108   3.77206   3.77523   3.80290
 Alpha virt. eigenvalues --    3.81583   3.82121   3.82923   3.85396   3.85821
 Alpha virt. eigenvalues --    3.87505   3.89619   3.91010   3.93331   3.93910
 Alpha virt. eigenvalues --    3.95916   3.96511   3.98415   4.00500   4.01102
 Alpha virt. eigenvalues --    4.03182   4.05463   4.07647   4.08283   4.09635
 Alpha virt. eigenvalues --    4.10396   4.12164   4.13219   4.15181   4.17365
 Alpha virt. eigenvalues --    4.18841   4.20880   4.24057   4.27114   4.28710
 Alpha virt. eigenvalues --    4.31808   4.34767   4.36444   4.37592   4.42920
 Alpha virt. eigenvalues --    4.44810   4.47533   4.49626   4.51556   4.52846
 Alpha virt. eigenvalues --    4.56811   4.59814   4.62399   4.67064   4.68595
 Alpha virt. eigenvalues --    4.69635   4.72577   4.72869   4.75912   4.77170
 Alpha virt. eigenvalues --    4.82194   4.85110   4.87543   4.93277   4.95141
 Alpha virt. eigenvalues --    4.96003   4.98797   5.03682   5.03918   5.05828
 Alpha virt. eigenvalues --    5.08389   5.09379   5.10790   5.14057   5.20986
 Alpha virt. eigenvalues --    5.21907   5.23043   5.24549   5.27094   5.30695
 Alpha virt. eigenvalues --    5.32161   5.35125   5.38303   5.43143   5.47948
 Alpha virt. eigenvalues --    5.50212   5.56224   5.64362   5.64996   5.75945
 Alpha virt. eigenvalues --    5.77364   5.77747   5.81114   5.82170   5.88638
 Alpha virt. eigenvalues --    5.93919   5.98875   6.03288   6.26738   6.29329
 Alpha virt. eigenvalues --    6.33170   6.52098   6.55390   6.58029   6.65984
 Alpha virt. eigenvalues --    6.74633   6.77670   6.81139   6.81788   7.02500
 Alpha virt. eigenvalues --    7.14194   7.22828   7.27004   7.29139   7.40600
 Alpha virt. eigenvalues --   10.19821  11.11097  11.79548  11.87040  13.24083
 Alpha virt. eigenvalues --   13.28374  14.34288
          Condensed to atoms (all electrons):
               1          2          3          4          5          6
     1  O    7.859105   0.002760   0.313029  -0.063384  -0.042749   0.348902
     2  O    0.002760   7.779526   0.010976  -0.023276  -0.001136  -0.088035
     3  C    0.313029   0.010976   4.861371   0.291931   0.336186  -0.073317
     4  C   -0.063384  -0.023276   0.291931   5.220499  -0.062874  -0.023519
     5  C   -0.042749  -0.001136   0.336186  -0.062874   4.964509   0.001491
     6  C    0.348902  -0.088035  -0.073317  -0.023519   0.001491   5.072612
     7  C   -0.067445   0.353067  -0.024143   0.006595  -0.000029   0.449061
     8  H   -0.048492  -0.000009   0.422102  -0.081913  -0.042641  -0.000339
     9  H    0.005377   0.025249  -0.017532   0.370777  -0.004247  -0.026708
    10  H   -0.002056  -0.001410  -0.042076   0.396874   0.008278   0.007747
    11  H    0.003655   0.000048  -0.022922   0.386223  -0.006069   0.002107
    12  H    0.001895   0.001381  -0.036317  -0.009745   0.392911   0.000172
    13  H    0.000718  -0.000028  -0.033978   0.010715   0.397033   0.000332
    14  H    0.004007   0.000004  -0.037758  -0.007001   0.392292  -0.000017
    15  H   -0.047145   0.002802   0.008666  -0.008006  -0.000433   0.458941
    16  H    0.004784  -0.050378   0.001193  -0.003040  -0.000010  -0.077923
    17  H   -0.000161   0.322697  -0.000755   0.001512   0.000044   0.015073
               7          8          9         10         11         12
     1  O   -0.067445  -0.048492   0.005377  -0.002056   0.003655   0.001895
     2  O    0.353067  -0.000009   0.025249  -0.001410   0.000048   0.001381
     3  C   -0.024143   0.422102  -0.017532  -0.042076  -0.022922  -0.036317
     4  C    0.006595  -0.081913   0.370777   0.396874   0.386223  -0.009745
     5  C   -0.000029  -0.042641  -0.004247   0.008278  -0.006069   0.392911
     6  C    0.449061  -0.000339  -0.026708   0.007747   0.002107   0.000172
     7  C    5.022222  -0.004185  -0.009968   0.000111   0.000209  -0.000294
     8  H   -0.004185   0.633845   0.007746  -0.008019  -0.001339   0.010122
     9  H   -0.009968   0.007746   0.557037  -0.034843  -0.026788   0.003291
    10  H    0.000111  -0.008019  -0.034843   0.574722  -0.024668  -0.000010
    11  H    0.000209  -0.001339  -0.026788  -0.024668   0.570266   0.000685
    12  H   -0.000294   0.010122   0.003291  -0.000010   0.000685   0.581346
    13  H    0.000157  -0.010370  -0.000455  -0.000459  -0.000037  -0.030109
    14  H   -0.000125  -0.000148   0.000893  -0.000029  -0.000446  -0.031833
    15  H   -0.112220   0.006678   0.000665  -0.001278   0.000010   0.000146
    16  H    0.423703   0.000186   0.001743   0.000594  -0.000017   0.000068
    17  H   -0.038752   0.000002  -0.000851  -0.000067  -0.000008  -0.000051
              13         14         15         16         17
     1  O    0.000718   0.004007  -0.047145   0.004784  -0.000161
     2  O   -0.000028   0.000004   0.002802  -0.050378   0.322697
     3  C   -0.033978  -0.037758   0.008666   0.001193  -0.000755
     4  C    0.010715  -0.007001  -0.008006  -0.003040   0.001512
     5  C    0.397033   0.392292  -0.000433  -0.000010   0.000044
     6  C    0.000332  -0.000017   0.458941  -0.077923   0.015073
     7  C    0.000157  -0.000125  -0.112220   0.423703  -0.038752
     8  H   -0.010370  -0.000148   0.006678   0.000186   0.000002
     9  H   -0.000455   0.000893   0.000665   0.001743  -0.000851
    10  H   -0.000459  -0.000029  -0.001278   0.000594  -0.000067
    11  H   -0.000037  -0.000446   0.000010  -0.000017  -0.000008
    12  H   -0.030109  -0.031833   0.000146   0.000068  -0.000051
    13  H    0.576871  -0.031099  -0.000075  -0.000006   0.000001
    14  H   -0.031099   0.612460   0.000108  -0.000002  -0.000001
    15  H   -0.000075   0.000108   0.557322  -0.002962  -0.000384
    16  H   -0.000006  -0.000002  -0.002962   0.605144  -0.014068
    17  H    0.000001  -0.000001  -0.000384  -0.014068   0.447656
 Mulliken charges:
               1
     1  O   -0.272801
     2  O   -0.334238
     3  C    0.043345
     4  C   -0.402370
     5  C   -0.332557
     6  C   -0.066580
     7  C    0.002036
     8  H    0.116775
     9  H    0.148613
    10  H    0.126589
    11  H    0.119090
    12  H    0.116344
    13  H    0.120789
    14  H    0.098694
    15  H    0.137166
    16  H    0.110992
    17  H    0.268113
 Sum of Mulliken charges =  -0.00000
 Mulliken charges with hydrogens summed into heavy atoms:
               1
     1  O   -0.272801
     2  O   -0.066125
     3  C    0.160120
     4  C   -0.008078
     5  C    0.003270
     6  C    0.070586
     7  C    0.113028
 APT charges:
               1
     1  O   -0.199717
     2  O   -0.876755
     3  C   -0.311023
     4  C   -0.932888
     5  C   -1.181172
     6  C   -0.499736
     7  C   -0.290370
     8  H    0.404064
     9  H    0.229963
    10  H    0.296067
    11  H    0.455207
    12  H    0.249220
    13  H    0.437446
    14  H    0.444260
    15  H    0.445008
    16  H    0.494049
    17  H    0.836377
 Sum of APT charges =  -0.00000
 APT charges with hydrogens summed into heavy atoms:
               1
     1  O   -0.199717
     2  O   -0.040378
     3  C    0.093041
     4  C    0.048349
     5  C   -0.050247
     6  C   -0.054728
     7  C    0.203679
 Electronic spatial extent (au):  <R**2>=            840.6895
 Charge=             -0.0000 electrons
 Dipole moment (field-independent basis, Debye):
    X=              1.7155    Y=             -0.8539    Z=              1.6051  Tot=              2.4997
 Quadrupole moment (field-independent basis, Debye-Ang):
   XX=            -33.3879   YY=            -43.6942   ZZ=            -45.8982
   XY=             -2.5133   XZ=              0.4518   YZ=              2.1413
 Traceless Quadrupole moment (field-independent basis, Debye-Ang):
   XX=              7.6055   YY=             -2.7008   ZZ=             -4.9047
   XY=             -2.5133   XZ=              0.4518   YZ=              2.1413
 Octapole moment (field-independent basis, Debye-Ang**2):
  XXX=             38.6529  YYY=             -2.5778  ZZZ=             -4.7517  XYY=              8.3349
  XXY=            -12.6835  XXZ=             -1.9235  XZZ=              2.0303  YZZ=             -0.0131
  YYZ=              0.0677  XYZ=              3.8345
 Hexadecapole moment (field-independent basis, Debye-Ang**3):
 XXXX=           -594.0819 YYYY=           -216.6316 ZZZZ=           -201.9620 XXXY=            -53.3636
 XXXZ=            -13.6724 YYYX=            -21.5766 YYYZ=             10.1502 ZZZX=             -3.3473
 ZZZY=              3.5455 XXYY=           -135.1431 XXZZ=           -147.8766 YYZZ=            -68.7634
 XXYZ=              7.3912 YYXZ=             -4.2706 ZZXY=             -4.3569
 N-N= 3.233743003416D+02 E-N=-1.457059586318D+03  KE= 3.447549172678D+02
  Exact polarizability:   0.000   0.000   0.000   0.000   0.000   0.000
 Approx polarizability:  88.055  -8.104  81.418  -0.555   4.385  71.593
 No NMR shielding tensors so no spin-rotation constants.
 Leave Link  601 at Thu Sep 26 13:12:10 2019, MaxMem=   671088640 cpu:              59.2 elap:              29.6
 (Enter /shared/centos7/gaussian/g16/l701.exe)
 SCFChk:  SCF convergence  4.11D-09 required  1.00D-08
 ... and contract with generalized density number  0.
 Compute integral second derivatives.
 Entering OneElI...
 Calculate overlap and kinetic energy integrals
    NBasis = 395  MinDer = 2  MaxDer = 2
 Requested accuracy = 0.1000D-12
 PrmmSu-InSpLW:  IPartL=    0 NPrtUS=   20 NPrtUL=    1 DoSpLW=F IThBeg=    0 IThEnd=   19 NThAct=   20.
 PrsmSu:  NPrtUS=  20 ThrOK=T IAlg=1 NPAlg=1 LenDen=           0 ISkipM=0 DoSpLW=F IThBeg=    0 IThEnd=   19.
 Prism:   IPart=     0 DynPar=F LinDyn=F Incr=           4.
 PRISM was handed    33310359 working-precision words and  8472 shell-pairs
 PRISM was handed    33310359 working-precision words and  8472 shell-pairs
 PRISM was handed    33310359 working-precision words and  8472 shell-pairs
 PRISM was handed    33310359 working-precision words and  8472 shell-pairs
 PRISM was handed    33310359 working-precision words and  8472 shell-pairs
 PRISM was handed    33310359 working-precision words and  8472 shell-pairs
 PRISM was handed    33310359 working-precision words and  8472 shell-pairs
 PRISM was handed    33310359 working-precision words and  8472 shell-pairs
 PRISM was handed    33310359 working-precision words and  8472 shell-pairs
 PRISM was handed    33310359 working-precision words and  8472 shell-pairs
 PRISM was handed    33310359 working-precision words and  8472 shell-pairs
 PRISM was handed    33310359 working-precision words and  8472 shell-pairs
 IPart=  1 NShTot=         460 NBatch=          79 AvBLen=         5.8
 IPart=  0 NShTot=         466 NBatch=          84 AvBLen=         5.5
 IPart=  3 NShTot=         450 NBatch=          69 AvBLen=         6.5
 PRISM was handed    33310359 working-precision words and  8472 shell-pairs
 PRISM was handed    33310359 working-precision words and  8472 shell-pairs
 PRISM was handed    33310359 working-precision words and  8472 shell-pairs
 IPart= 12 NShTot=         411 NBatch=          44 AvBLen=         9.3
 PRISM was handed    33310359 working-precision words and  8472 shell-pairs
 PRISM was handed    33310359 working-precision words and  8472 shell-pairs
 PRISM was handed    33310359 working-precision words and  8472 shell-pairs
 IPart= 14 NShTot=         406 NBatch=          40 AvBLen=        10.2
 IPart= 16 NShTot=         404 NBatch=          40 AvBLen=        10.1
 IPart= 13 NShTot=         408 NBatch=          41 AvBLen=        10.0
 IPart= 10 NShTot=         416 NBatch=          48 AvBLen=         8.7
 PRISM was handed    33310359 working-precision words and  8472 shell-pairs
 PRISM was handed    33310359 working-precision words and  8472 shell-pairs
 IPart= 17 NShTot=         401 NBatch=          39 AvBLen=        10.3
 IPart= 11 NShTot=         415 NBatch=          47 AvBLen=         8.8
 IPart=  8 NShTot=         421 NBatch=          51 AvBLen=         8.3
 IPart= 15 NShTot=         405 NBatch=          40 AvBLen=        10.1
 IPart= 19 NShTot=         395 NBatch=          36 AvBLen=        11.0
 IPart=  2 NShTot=         455 NBatch=          74 AvBLen=         6.1
 IPart=  7 NShTot=         425 NBatch=          51 AvBLen=         8.3
 IPart=  6 NShTot=         437 NBatch=          61 AvBLen=         7.2
 IPart=  9 NShTot=         418 NBatch=          50 AvBLen=         8.4
 IPart= 18 NShTot=         397 NBatch=          38 AvBLen=        10.4
 IPart=  4 NShTot=         444 NBatch=          65 AvBLen=         6.8
 IPart=  5 NShTot=         438 NBatch=          62 AvBLen=         7.1
 PrSmSu:  NxtVal=             81.
 Entering OneElI...
 Calculate potential energy integrals
    NBasis = 395  MinDer = 2  MaxDer = 2
 Requested accuracy = 0.1000D-12
 PrmmSu-InSpLW:  IPartL=    0 NPrtUS=   20 NPrtUL=    1 DoSpLW=F IThBeg=    0 IThEnd=   19 NThAct=   20.
 PrsmSu:  NPrtUS=  20 ThrOK=T IAlg=1 NPAlg=1 LenDen=           0 ISkipM=0 DoSpLW=F IThBeg=    0 IThEnd=   19.
 Prism:   IPart=     0 DynPar=F LinDyn=F Incr=          66.
 PRISM was handed    33353014 working-precision words and  7812 shell-pairs
 PRISM was handed    33353014 working-precision words and  7812 shell-pairs
 PRISM was handed    33353014 working-precision words and  7812 shell-pairs
 PRISM was handed    33353014 working-precision words and  7812 shell-pairs
 PRISM was handed    33353014 working-precision words and  7812 shell-pairs
 PRISM was handed    33353014 working-precision words and  7812 shell-pairs
 PRISM was handed    33353014 working-precision words and  7812 shell-pairs
 PRISM was handed    33353014 working-precision words and  7812 shell-pairs
 PRISM was handed    33353014 working-precision words and  7812 shell-pairs
 PRISM was handed    33353014 working-precision words and  7812 shell-pairs
 PRISM was handed    33353014 working-precision words and  7812 shell-pairs
 PRISM was handed    33353014 working-precision words and  7812 shell-pairs
 PRISM was handed    33353014 working-precision words and  7812 shell-pairs
 PRISM was handed    33353014 working-precision words and  7812 shell-pairs
 PRISM was handed    33353014 working-precision words and  7812 shell-pairs
 PRISM was handed    33353014 working-precision words and  7812 shell-pairs
 PRISM was handed    33353014 working-precision words and  7812 shell-pairs
 PRISM was handed    33353014 working-precision words and  7812 shell-pairs
 PRISM was handed    33353014 working-precision words and  7812 shell-pairs
 PRISM was handed    33353014 working-precision words and  7812 shell-pairs
 IPart=  8 NShTot=        6647 NBatch=         391 AvBLen=        17.0
 IPart= 12 NShTot=        6443 NBatch=         379 AvBLen=        17.0
 IPart= 10 NShTot=        6545 NBatch=         385 AvBLen=        17.0
 IPart= 16 NShTot=        6358 NBatch=         374 AvBLen=        17.0
 IPart=  1 NShTot=        7174 NBatch=         422 AvBLen=        17.0
 IPart= 17 NShTot=        6324 NBatch=         372 AvBLen=        17.0
 IPart= 15 NShTot=        6375 NBatch=         375 AvBLen=        17.0
 IPart=  7 NShTot=        6681 NBatch=         393 AvBLen=        17.0
 IPart=  9 NShTot=        6562 NBatch=         386 AvBLen=        17.0
 IPart= 13 NShTot=        6426 NBatch=         378 AvBLen=        17.0
 IPart= 18 NShTot=        6307 NBatch=         371 AvBLen=        17.0
 IPart= 11 NShTot=        6477 NBatch=         381 AvBLen=        17.0
 IPart= 14 NShTot=        6392 NBatch=         376 AvBLen=        17.0
 IPart=  3 NShTot=        6953 NBatch=         409 AvBLen=        17.0
 IPart=  0 NShTot=        7259 NBatch=         427 AvBLen=        17.0
 IPart= 19 NShTot=        6222 NBatch=         366 AvBLen=        17.0
 IPart=  2 NShTot=        7106 NBatch=         418 AvBLen=        17.0
 IPart=  4 NShTot=        6902 NBatch=         406 AvBLen=        17.0
 IPart=  6 NShTot=        6817 NBatch=         401 AvBLen=        17.0
 IPart=  5 NShTot=        6834 NBatch=         402 AvBLen=        17.0
 PrSmSu:  NxtVal=           1321.
 Polarizability after L701:
                1             2             3 
      1  0.000000D+00
      2  0.000000D+00  0.000000D+00
      3  0.000000D+00  0.000000D+00  0.000000D+00
 Dipole Derivatives after L701:
                 1             2             3             4             5 
      1  -0.273045D+00 -0.465099D-01  0.239159D-01 -0.171703D+01  0.528111D+00
      2  -0.207175D+00 -0.204165D+00 -0.653743D-01  0.691922D+00 -0.639917D+00
      3   0.102956D+00 -0.442929D-01 -0.121939D+00  0.334478D+00 -0.279062D-01
                 6             7             8             9            10 
      1  -0.838832D-01 -0.409249D+00  0.503313D+00  0.584464D+00 -0.595497D+00
      2   0.801736D-01  0.186827D+00 -0.365628D+00 -0.172114D+00 -0.358940D-01
      3  -0.273318D+00  0.455763D+00 -0.229011D+00 -0.158193D+00 -0.143686D+00
                11            12            13            14            15 
      1  -0.438976D+00  0.285457D+00 -0.161163D+01 -0.314366D+00 -0.650666D+00
      2  -0.100036D+01  0.101704D+00 -0.282408D-01 -0.941402D+00 -0.581011D-01
      3   0.353841D+00 -0.120280D+01 -0.840147D-01 -0.670606D-01 -0.990488D+00
                16            17            18            19            20 
      1  -0.665426D+00  0.120273D+00 -0.323390D+00 -0.400442D+00 -0.369463D+00
      2   0.929304D-02 -0.544917D+00 -0.429432D+00  0.915711D-01 -0.298220D+00
      3  -0.333938D+00 -0.372762D+00 -0.288865D+00 -0.348481D+00 -0.227868D+00
                21            22            23            24            25 
      1  -0.536295D+00  0.506534D+00 -0.408727D+00 -0.326228D+00  0.128794D+00
      2  -0.228149D+00 -0.195468D+00  0.406825D+00  0.176306D+00 -0.322364D+00
      3  -0.172447D+00 -0.156229D+00  0.178125D+00  0.298834D+00  0.150954D+00
                26            27            28            29            30 
      1   0.167318D-01  0.669514D-02  0.957760D-01 -0.280677D-02 -0.427842D-02
      2   0.516688D+00  0.221166D+00 -0.403864D-01  0.125135D+00 -0.191158D-01
      3  -0.115790D+00  0.444057D-01  0.440668D+00  0.339953D+00  0.667290D+00
                31            32            33            34            35 
      1   0.604220D+00  0.355186D+00 -0.276479D+00 -0.103689D+00  0.425268D+00
      2   0.386773D+00  0.382113D+00 -0.221592D+00 -0.183000D+00  0.409052D+00
      3  -0.489629D+00 -0.365683D+00  0.379288D+00 -0.213765D+00  0.400494D+00
                36            37            38            39            40 
      1   0.363545D+00  0.570548D+00 -0.686922D+00  0.600986D+00  0.978659D+00
      2   0.269280D+00 -0.103370D+00  0.289500D+00 -0.134131D+00  0.252448D+00
      3   0.442296D+00  0.254133D+00 -0.378646D+00  0.452290D+00  0.232186D-02
                41            42            43            44            45 
      1   0.569588D+00 -0.513729D+00  0.207965D+00  0.324304D+00  0.292527D+00
      2   0.246570D+00 -0.154275D+00  0.558432D-01  0.816699D+00  0.516301D+00
      3   0.302830D-02  0.107551D+00  0.632325D-01  0.312714D+00  0.310360D+00
                46            47            48            49            50 
      1   0.112735D+01  0.128360D+00  0.589781D+00  0.155616D+01 -0.703364D+00
      2   0.654806D-01  0.150897D+00  0.844375D-01 -0.624260D+00  0.651133D+00
      3   0.248496D+00  0.615482D-01  0.203898D+00 -0.283260D+00  0.179316D+00
                51 
      1  -0.324213D-01
      2   0.329157D-01
      3   0.301842D+00
 Hessian after L701:
                1             2             3             4             5 
      1  0.522119D+01
      2 -0.318781D+01  0.157312D+02
      3 -0.126005D+01  0.200258D+01  0.149842D+02
      4  0.182218D+00 -0.657093D+00 -0.275233D-01  0.982882D+01
      5 -0.700597D+00  0.238762D+00  0.762931D-01  0.313922D+01  0.740801D+01
      6 -0.392494D-01  0.863147D-01 -0.474896D+00  0.676378D+00 -0.441856D+01
      7 -0.384175D+01  0.348537D+01 -0.290199D+01  0.334591D+00 -0.308260D+00
      8  0.331207D+01 -0.728212D+01 -0.192899D+01 -0.266612D+00 -0.990981D-01
      9 -0.278576D+01 -0.183116D+01 -0.701421D+01 -0.171555D+00  0.982156D-01
     10 -0.159299D+00 -0.921087D-01  0.143546D+00  0.406689D-01  0.308006D-01
     11 -0.144358D+00  0.539382D+00 -0.282090D+00 -0.613540D-01 -0.141553D+00
     12  0.166063D+00 -0.351439D+00  0.257150D-01 -0.122346D+00 -0.273984D-01
     13  0.176932D+00  0.221707D+00  0.237140D+00  0.156305D+00 -0.422883D-01
     14  0.253472D+00 -0.942732D-02  0.145646D+00 -0.603368D-01 -0.104921D+00
     15  0.186611D+00  0.981863D-01 -0.234165D+00 -0.174562D-01  0.566299D-03
     16 -0.178019D+01  0.104786D+01  0.426047D+01  0.296922D+00 -0.157541D+00
     17  0.130261D+01 -0.102143D+02  0.184298D+00  0.451442D-01 -0.377145D+00
     18  0.407688D+01  0.878860D-01 -0.740642D+01 -0.604702D-01 -0.561482D+00
     19  0.220708D+00 -0.605873D+00 -0.436751D+00 -0.905130D+01  0.438645D+00
     20 -0.672189D+00  0.383352D+00 -0.189294D+00  0.234697D+00 -0.200456D+01
     21 -0.400151D+00 -0.152306D+00 -0.799858D-01  0.129998D+00  0.461228D+01
     22 -0.118584D+00 -0.258213D+00  0.138497D+00  0.187605D-01 -0.188204D-01
     23 -0.227061D+00  0.240941D+00  0.211314D+00 -0.205910D-01  0.264903D-02
     24  0.146918D+00  0.214555D+00  0.140747D+00 -0.185312D-01  0.110167D-01
     25 -0.733603D-01 -0.334218D-01  0.191484D-01  0.286076D-01 -0.108589D-01
     26 -0.584493D-03  0.124340D+00 -0.115274D+00  0.594494D-01 -0.174877D+00
     27 -0.103594D-02 -0.793599D-01 -0.268280D-01 -0.157314D+00  0.998877D-02
     28 -0.345944D-01 -0.110824D-01  0.260342D-01 -0.156061D-01  0.160881D-02
     29  0.194415D-02 -0.224082D-01 -0.253980D-01 -0.623817D-02 -0.177763D-01
     30  0.913183D-02 -0.572234D-01  0.967988D-01 -0.331928D-01  0.145728D-01
     31 -0.954441D-03  0.684545D-01 -0.663615D-01  0.232035D-01  0.696913D-02
     32  0.572446D-01  0.442847D-01 -0.850718D-01  0.121862D-01 -0.124314D-01
     33 -0.548994D-01 -0.804305D-01  0.344739D-01 -0.259586D-01 -0.371216D-02
     34 -0.523709D-03  0.445037D-01  0.135225D-01  0.539046D-01 -0.124961D-02
     35  0.882440D-01  0.250773D-01  0.329573D-01  0.247888D-01 -0.280771D-01
     36  0.451889D-01  0.471822D-01 -0.389248D-01  0.328128D-01  0.145416D-02
     37  0.668711D-01  0.706372D-01  0.501888D-01  0.205272D-01 -0.118616D-01
     38  0.157423D-01 -0.390522D-01  0.399570D-02 -0.157708D-01 -0.307926D-02
     39  0.702661D-01  0.315611D-01 -0.241649D-01  0.116991D-01 -0.495532D-02
     40  0.106380D+00  0.955670D-01 -0.473973D-01  0.256899D-01  0.573410D-03
     41  0.900793D-01  0.114958D-01 -0.280989D-01  0.531735D-02 -0.886343D-02
     42 -0.387862D-01 -0.241022D-01 -0.385197D-01 -0.702559D-02 -0.367545D-03
     43 -0.178141D+00 -0.107888D+00 -0.235904D+00 -0.350205D-01 -0.209136D-01
     44 -0.124081D+00  0.257726D+00  0.114614D-01 -0.307109D-01  0.102941D+00
     45 -0.212199D+00  0.277937D-01  0.797699D-01 -0.216142D-01  0.827163D-01
     46  0.161318D+00 -0.346727D-01  0.859287D-01  0.216616D+00 -0.147566D+00
     47 -0.151491D-01 -0.471225D-01 -0.139606D-01 -0.105020D+00 -0.746376D-01
     48  0.935441D-01 -0.233226D-01 -0.778989D-02 -0.242551D-01 -0.194129D+00
     49  0.517664D-01 -0.459356D-01  0.150358D-02 -0.212491D+01 -0.219786D+01
     50 -0.495695D-01  0.178266D-01 -0.364964D-03 -0.229708D+01 -0.470534D+01
     51 -0.247772D-02  0.328523D-02 -0.158160D-01 -0.163647D+00  0.303497D+00
                6             7             8             9            10 
      6  0.129861D+02
      7 -0.170111D+00  0.165141D+02
      8  0.788230D-01 -0.276362D+01  0.201411D+02
      9 -0.176135D+00  0.140136D+01  0.178914D+01  0.197306D+02
     10 -0.184339D+00 -0.578787D+01 -0.918554D+00  0.944788D+00  0.147628D+02
     11  0.515221D-01 -0.982294D+00 -0.407427D+01 -0.224219D+01 -0.206141D-01
     12 -0.492831D-01  0.103355D+01 -0.224696D+01 -0.385186D+01 -0.466866D+00
     13  0.975967D-02 -0.431670D+01  0.139133D+01  0.193090D+01  0.540860D-01
     14 -0.287932D-02  0.132328D+01 -0.565574D+01  0.118674D+01 -0.326231D-01
     15 -0.111114D+00  0.188842D+01  0.119258D+01 -0.483287D+01  0.204323D+00
     16 -0.211249D+00  0.357686D+00  0.280442D+00 -0.204532D+00 -0.827121D-01
     17 -0.550582D+00  0.170429D+00  0.948306D-01 -0.648657D-01  0.284400D+00
     18 -0.271982D-01 -0.122364D+00 -0.351271D-01 -0.650731D-02 -0.120672D+00
     19  0.248153D+00  0.436135D-01  0.617794D-01  0.217231D-04  0.487153D+00
     20  0.464632D+01  0.918446D-02 -0.660082D-01 -0.639622D-02  0.276992D+00
     21 -0.608683D+01 -0.294510D-01  0.407277D-02 -0.482834D-01 -0.215655D+00
     22 -0.162509D-01 -0.356824D+01 -0.114673D+01 -0.970552D+00  0.819418D-01
     23  0.119497D-01 -0.111348D+01 -0.336911D+01  0.989801D+00  0.252557D+00
     24 -0.246192D-02 -0.975272D+00  0.101956D+01 -0.377104D+01 -0.517072D-01
     25 -0.144370D+00 -0.494895D-01  0.369367D-01 -0.204272D-01 -0.334221D+01
     26 -0.456051D-01  0.833078D-01  0.126581D-01  0.210603D-01 -0.125889D+01
     27 -0.621764D-01 -0.657301D-01  0.638946D-01  0.327451D-01 -0.687186D+00
     28 -0.130028D-01  0.422226D-01  0.272796D-01 -0.534930D-01 -0.353268D+01
     29  0.205890D-01  0.636832D-01  0.112469D+00  0.820261D-01  0.557074D+00
     30  0.469471D-01 -0.123571D+00  0.481224D-01 -0.305174D-01  0.119884D+01
     31 -0.317689D-01  0.477307D-01  0.315620D-02 -0.125373D-01 -0.262764D+01
     32 -0.102609D-01 -0.230441D-01 -0.672831D-02 -0.329976D-03  0.100259D+01
     33  0.503244D-02  0.274906D-01  0.252638D-01 -0.662979D-03 -0.856955D+00
     34  0.925033D-02  0.924179D-01 -0.504128D-01 -0.501826D-01 -0.699332D-02
     35  0.483143D-02  0.258472D-02  0.543060D-01 -0.391856D-01 -0.455535D-02
     36 -0.225131D-01  0.926860D-02 -0.520904D-01 -0.176296D-01  0.122177D-02
     37  0.490546D-02  0.422320D-01  0.766386D-02 -0.628406D-01  0.262037D-01
     38 -0.301564D-02 -0.286661D-01  0.936387D-01 -0.285465D-01 -0.558496D-01
     39 -0.767861D-02 -0.221812D-01  0.912699D-03 -0.480607D-01  0.103748D+00
     40 -0.613048D-02 -0.350118D-01 -0.980534D-01  0.311335D-01  0.361233D-01
     41 -0.138740D-02 -0.638438D-01 -0.944601D-02  0.143637D-01  0.158319D-01
     42 -0.698969D-02 -0.956290D-02 -0.970065D-02  0.113040D+00  0.329908D-02
     43 -0.147139D-01  0.580368D-01  0.115794D+00  0.152240D-01 -0.160720D-01
     44  0.756492D-01  0.144730D+00  0.726743D-01  0.285154D-01 -0.160707D-01
     45  0.102225D-01  0.466329D-01  0.473014D-01 -0.606780D-01  0.830535D-02
     46 -0.548420D-01  0.573654D-01  0.104028D-01  0.966761D-02  0.150544D-02
     47 -0.186249D+00  0.816621D-02 -0.157723D-01  0.209694D-02  0.499063D-02
     48  0.679083D-01  0.137142D-01  0.297582D-02 -0.131995D-01  0.504257D-02
     49 -0.624193D-01  0.910434D-02 -0.286051D-02 -0.121948D-02  0.649994D-01
     50  0.242544D+00 -0.752513D-02 -0.335067D-02  0.724477D-03 -0.259699D-01
     51 -0.608890D+01 -0.209520D-03  0.233742D-03 -0.477035D-02 -0.297343D-01
               11            12            13            14            15 
     11  0.141799D+02
     12  0.160009D+01  0.139506D+02
     13  0.369653D-01  0.151443D+00  0.128816D+02
     14 -0.708276D-01 -0.481675D-01 -0.103333D+01  0.148325D+02
     15  0.118047D-01  0.133746D+00 -0.155118D+01 -0.741815D+00  0.144262D+02
     16  0.232118D+00 -0.464839D-01  0.151663D+00  0.150545D+00  0.803631D-01
     17  0.139699D+00 -0.108869D+00  0.141510D+00 -0.681882D-01  0.369743D-01
     18 -0.155945D+00 -0.161701D+00  0.109450D+00  0.464108D-01 -0.991856D-01
     19  0.287227D+00 -0.182919D+00  0.123632D+00  0.219111D-01  0.216365D-01
     20 -0.188330D+00 -0.892245D-01  0.186970D-01 -0.791208D-01 -0.388886D-03
     21 -0.832794D-01 -0.197119D+00  0.378937D-01 -0.110942D-02 -0.674373D-01
     22  0.282314D+00 -0.929468D-01  0.107985D+00 -0.704928D-01 -0.695953D-01
     23 -0.124795D+00  0.121621D+00 -0.805818D-01 -0.372848D-01 -0.137793D+00
     24  0.755211D-01  0.265872D+00 -0.723823D-01 -0.144693D+00 -0.178846D-01
     25 -0.104770D+01 -0.763707D+00  0.205140D-01 -0.203498D-01  0.110291D-01
     26 -0.300873D+01  0.101317D+01 -0.133526D-01 -0.308479D-02  0.132227D-02
     27  0.764413D+00 -0.383356D+01 -0.919818D-03  0.610949D-02 -0.191277D-01
     28  0.583219D+00  0.984496D+00  0.345487D-01  0.655233D-02  0.109009D+00
     29 -0.395332D+01  0.713207D+00  0.343651D-02 -0.522375D-01  0.926439D-02
     30  0.892737D+00 -0.287459D+01  0.120123D+00  0.122123D-01  0.100186D+00
     31  0.949789D+00 -0.761837D+00 -0.187017D-01  0.110756D-01 -0.139599D-01
     32 -0.322826D+01 -0.527139D+00  0.208391D-02 -0.640214D-02 -0.222611D-01
     33 -0.568074D+00 -0.347821D+01 -0.333174D-03 -0.202156D-01  0.215661D-01
     34 -0.118195D-01 -0.220461D-01 -0.361591D+01 -0.653897D+00 -0.591580D+00
     35  0.421719D-02 -0.678341D-02 -0.854422D+00 -0.267446D+01  0.111508D+01
     36 -0.366883D-02 -0.334143D-02 -0.787641D+00  0.114963D+01 -0.298020D+01
     37 -0.599738D-01  0.118397D+00 -0.348872D+01 -0.825525D+00  0.695730D+00
     38 -0.220272D-01 -0.739586D-01 -0.676799D+00 -0.285755D+01 -0.100039D+01
     39 -0.724465D-01  0.929198D-01  0.609792D+00 -0.108091D+01 -0.298824D+01
     40  0.195595D-01  0.185687D-01 -0.230422D+01  0.934835D+00 -0.955365D+00
     41 -0.127802D-01  0.521665D-02  0.876865D+00 -0.320790D+01 -0.571372D+00
     42  0.140546D-02 -0.176294D-01 -0.814857D+00 -0.515488D+00 -0.331535D+01
     43 -0.317296D-01  0.105568D-01  0.730450D-03  0.563337D-02  0.589036D-02
     44 -0.225977D-01  0.177219D-01  0.146056D-01  0.149703D-02  0.525112D-02
     45  0.666629D-02  0.602572D-02  0.128660D-01  0.856173D-02 -0.502157D-02
     46 -0.951793D-02  0.778252D-02  0.152752D-01 -0.413771D-03  0.193423D-02
     47 -0.720526D-02  0.260410D-03  0.372114D-02 -0.571686D-02 -0.768734D-04
     48 -0.194487D-02 -0.522229D-02  0.808128D-02 -0.202712D-03 -0.575815D-02
     49 -0.218342D-01 -0.317084D-01  0.210200D-01 -0.103406D-01 -0.581059D-02
     50 -0.849815D-02  0.865223D-02 -0.101476D-01 -0.113697D-02  0.307024D-02
     51  0.548052D-02 -0.238599D-02 -0.131842D-03  0.164128D-03 -0.537195D-02
               16            17            18            19            20 
     16  0.108786D+02
     17  0.387363D+01  0.194719D+02
     18 -0.449053D+01 -0.337601D+01  0.234200D+02
     19 -0.510632D+01 -0.615809D+01  0.697008D+00  0.154838D+02
     20 -0.560099D+01 -0.681035D+01  0.221196D+01  0.494156D+01  0.135039D+02
     21  0.843107D+00  0.216008D+01 -0.124970D+02 -0.180680D+01 -0.655259D+01
     22  0.132370D+00 -0.522232D-01 -0.181765D-01 -0.452017D-01 -0.570195D-02
     23 -0.700892D-01 -0.252616D-01  0.158026D-01 -0.749422D-02  0.872879D-02
     24 -0.416316D-01  0.142654D-01 -0.288680D-01  0.487296D-02  0.382057D-02
     25  0.496385D-01 -0.658288D-01 -0.916142D-02 -0.400299D-01 -0.244623D-01
     26 -0.550373D-01 -0.867241D-01 -0.224735D-01 -0.348782D-03  0.287113D-02
     27 -0.445699D-02  0.134499D-01  0.725083D-01 -0.496264D-02 -0.861226D-02
     28 -0.722409D-01  0.263390D-01 -0.131804D-01 -0.913839D-02 -0.423246D-02
     29  0.291029D-01 -0.289353D-01 -0.417557D-01 -0.811723D-02 -0.373113D-01
     30 -0.502188D-01 -0.869981D-01  0.133116D-01 -0.541491D-01  0.270202D-02
     31  0.251538D-01  0.423754D-01 -0.251882D-01  0.276006D-01  0.104544D-01
     32  0.463037D-01  0.146042D-01 -0.199549D-01  0.208217D-01 -0.856120D-02
     33 -0.306803D-01 -0.225288D-01 -0.978395D-02 -0.201150D-01 -0.726820D-02
     34  0.626634D-02  0.133151D-01  0.146218D-01  0.287784D-02  0.229635D-02
     35  0.298320D-01  0.464505D-02  0.204606D-01  0.182947D-01 -0.796466D-02
     36  0.246518D-01  0.176790D-01  0.190758D-02  0.182434D-01  0.286340D-02
     37  0.260336D-01  0.512178D-02  0.189615D-01  0.240536D-01 -0.421066D-02
     38 -0.475866D-02 -0.119679D-01 -0.250849D-02 -0.100032D-01 -0.512912D-02
     39  0.237619D-01  0.208416D-02 -0.134852D-02  0.171504D-01 -0.351684D-02
     40  0.219005D-01  0.100893D-01  0.214979D-02  0.171856D-01  0.168822D-02
     41  0.146230D-01 -0.441621D-02  0.904622D-03  0.838050D-02 -0.601867D-02
     42 -0.297022D-02 -0.170645D-02 -0.714962D-02 -0.406806D-02 -0.919931D-03
     43 -0.460308D+01  0.308448D+00  0.230895D+00  0.293423D+00  0.269556D+00
     44  0.162780D+00 -0.248519D+01  0.165726D+01  0.375664D+00 -0.302165D+00
     45  0.123976D+00  0.159363D+01 -0.343248D+01  0.162857D+00 -0.273629D+00
     46 -0.399620D+00  0.269606D+00 -0.216492D+00 -0.241471D+01  0.431202D+00
     47  0.217808D+00  0.227917D+00  0.962533D-01  0.405954D+00 -0.429990D+01
     48 -0.205423D+00  0.111260D+00  0.223969D+00  0.125161D+01  0.313463D+00
     49  0.978828D-01 -0.216881D+00 -0.737250D-01 -0.573135D-01  0.115465D+00
     50 -0.196632D+00  0.158868D+00  0.783163D-01  0.209687D+00 -0.834330D-01
     51 -0.681472D-01  0.778360D-01 -0.539744D-01  0.882104D-01 -0.492840D-01
               21            22            23            24            25 
     21  0.222597D+02
     22  0.674193D-02  0.332234D+01
     23  0.204054D-03  0.130532D+01  0.316869D+01
     24  0.173240D-02  0.109612D+01 -0.130796D+01  0.347488D+01
     25 -0.169905D-01  0.245572D-01 -0.731282D-01 -0.123558D-01  0.330986D+01
     26 -0.289795D-01 -0.805471D-01  0.791970D-01  0.197764D-01  0.118659D+01
     27  0.104541D-01 -0.526132D-02  0.894297D-02 -0.305884D-01  0.723568D+00
     28 -0.131218D-01 -0.150065D-01  0.288892D-01 -0.292476D-01  0.169018D+00
     29  0.108016D-01  0.374056D-01 -0.450795D-02  0.216250D-01  0.126728D-02
     30  0.938135D-02 -0.304553D-01  0.242270D-01 -0.757495D-03  0.106145D-01
     31 -0.163628D-01 -0.314185D-02  0.609921D-02  0.234655D-02 -0.134909D+00
     32 -0.965706D-02 -0.543779D-02  0.306206D-02  0.540827D-02  0.366358D-01
     33 -0.358324D-02  0.261521D-02 -0.230012D-02 -0.308185D-02  0.163318D+00
     34  0.599585D-02 -0.371263D-01 -0.348261D-02 -0.382920D-02  0.248731D-02
     35  0.663434D-02 -0.185724D-01  0.563124D-01  0.926372D-01  0.238253D-02
     36 -0.267784D-02 -0.198094D-01  0.938010D-01  0.613307D-01  0.315545D-01
     37  0.101918D-01  0.140709D-01 -0.976118D-02 -0.353202D-01  0.174294D-02
     38 -0.320984D-02 -0.403849D-02  0.202630D-01 -0.244425D-01 -0.322698D-02
     39 -0.213576D-02 -0.307535D-01 -0.229296D-01 -0.568480D-01  0.221526D-02
     40 -0.197156D-03 -0.861089D-02  0.482619D-02  0.331646D-02  0.250242D-01
     41 -0.780821D-03 -0.684078D-02  0.194052D-03  0.291831D-02 -0.845302D-03
     42 -0.541126D-02 -0.219213D-02 -0.404071D-02 -0.382264D-02  0.353994D-02
     43  0.120988D+00  0.759374D-01  0.191977D-01 -0.562419D-02 -0.354970D-02
     44 -0.273133D+00  0.465875D-01 -0.200387D-01 -0.602022D-02  0.190171D-02
     45  0.280453D+00  0.109698D-01 -0.176263D-02 -0.263705D-01 -0.124029D-02
     46  0.132920D+01  0.119556D-01 -0.579258D-02 -0.357275D-02  0.165383D-01
     47  0.316198D+00 -0.802450D-04 -0.160135D-02 -0.462851D-03  0.142732D-01
     48 -0.363856D+01  0.201401D-02 -0.158914D-02 -0.272977D-02  0.671041D-03
     49  0.146055D-01  0.599230D-02 -0.543498D-02 -0.410251D-02 -0.444274D-02
     50 -0.523383D-02 -0.393068D-02  0.255839D-02  0.247759D-02 -0.168279D-03
     51  0.673425D-01 -0.967261D-03  0.715957D-03 -0.108549D-03  0.259338D-02
               26            27            28            29            30 
     26  0.299943D+01
     27 -0.548504D+00  0.394436D+01
     28  0.252774D-01  0.330846D-01  0.349843D+01
     29 -0.737771D-01 -0.211254D+00 -0.567051D+00  0.409153D+01
     30 -0.262386D+00 -0.887884D-01 -0.988865D+00 -0.560903D+00  0.263461D+01
[...]
   zy        -0.131358D+01     -0.194652D+00     -0.216580D+00
   zz         0.645044D+02      0.955857D+01      0.106353D+02

 ----------------------------------------------------------------------

 Test job not archived.
 1\1\GINC-C0290\Freq\RM062X\CC-pVTZ\C5H10O2\HARMS.N\26-Sep-2019\0\\#P G
 eom=AllCheck Guess=TCheck SCRF=Check Test GenChk RM062X/CC-pVTZ Freq\\
 Gaussian input prepared by ASE\\0,1\O,0.4163819092,-0.5034046168,2.672
 7199911\O,2.7638647173,1.0063422594,2.6489478223\C,-0.9811242274,-0.53
 91942591,2.3888522146\C,-1.4578313964,0.8174255865,1.9001957109\C,-1.6
 670505844,-0.968189941,3.6676745599\C,1.2162123413,-0.4121687711,1.578
 1383186\C,2.3456136754,0.2812617107,1.5710129218\H,-1.1522846131,-1.29
 12313677,1.6076901967\H,-1.2792145539,1.5667675502,2.6719423699\H,-0.9
 204926072,1.116633619,1.0006074399\H,-2.5238570233,0.7904814476,1.6747
 791119\H,-1.4694655669,-0.2370218342,4.4516472784\H,-1.2919911247,-1.9
 359409477,3.9955439596\H,-2.7438644413,-1.037378151,3.5175731944\H,0.9
 182808866,-0.972619493,0.6983067449\H,2.9791340783,0.2636271248,0.6947
 468123\H,3.6022521522,1.4222942461,2.4458407699\\Version=EM64L-G16RevA
 .03\State=1-A\HF=-346.9414281\RMSD=1.667e-09\RMSF=3.046e-07\ZeroPoint=
 0.1467831\Thermal=0.1556428\Dipole=0.1041945,0.1456841,-0.7195959\Dipo
 leDeriv=-1.5342199,-0.208661,0.3085618,-0.1943751,-0.4014607,0.031322,
 0.7350984,0.1941993,-0.6968117,-0.6361063,-0.2193523,-0.1831695,-0.496
 2788,-0.6847362,-0.2323822,-0.73541,-0.504442,-0.6332456,1.1144846,0.0
 540959,-0.1233972,0.05215,0.4714026,-0.0626253,0.0726736,-0.0293029,0.
 3559668,-0.0471837,0.0103302,0.0459122,0.0882074,-0.1045765,0.0828082,
 -0.0484117,0.0732421,0.0086175,0.0034884,-0.0026151,0.0482791,-0.01411
 79,0.0354529,0.053905,0.0736885,0.0478421,-0.0337874,0.5379525,0.18480
 94,-0.3860109,0.1728313,-0.0257568,0.0025279,-0.9178896,-0.0968312,0.4
 783243,0.2595285,0.3127488,0.1946088,0.5508592,0.3073153,0.3690798,0.6
 617593,0.5520272,0.4308274,-0.049299,0.0159252,0.0415843,-0.0244074,-0
 .1094285,-0.0850625,-0.0504813,-0.0983466,-0.1035913,0.061881,-0.02595
 31,-0.0366021,0.0023532,-0.0207789,-0.0406555,-0.0071171,-0.0957362,-0
 .0343935,0.0451964,-0.0318769,0.0832062,-0.0196328,0.014053,0.0391234,
 0.0757719,0.0563518,-0.0610592,-0.1397157,0.0096128,-0.0378283,-0.0091
 05,0.0572581,-0.0144265,-0.035101,-0.0015836,0.0740277,0.0627106,-0.03
 60107,-0.0339953,-0.0190781,-0.0265734,-0.0986902,0.0118912,-0.0438751
 ,-0.026382,0.0572664,0.0681996,-0.0204204,0.0382151,-0.0813504,0.07019
 08,0.007758,0.0495532,0.0212078,-0.1325935,-0.0222394,0.0005305,-0.002
 4094,0.0696546,0.0072406,-0.0371469,0.003814,0.0381441,0.0669993,-0.06
 71104,-0.0322739,-0.0891631,0.0534662,-0.0731962,0.075735,-0.056654,-0
 .0461785,0.009927,-0.0455772,0.0723766,-0.0546782,0.1020477,-0.054519,
 0.0403317,-0.0614748,-0.0379361,0.3196834,0.0036741,0.0586381,0.018629
 5,0.3440111,0.0053596,0.0768498,0.0112167,0.2662696\Polar=85.4985355,1
 0.3878506,61.5030116,-5.4248064,-0.2808505,61.8935524\Quadrupole=4.836
 5203,-2.4202879,-2.4162324,3.4060796,-2.6700412,0.2284494\PG=C01 [X(C5
 H10O2)]\NImag=0\\0.49297857,0.03743369,0.08785485,-0.09766801,-0.00965
 516,0.38444722,-0.00187125,0.00513542,0.00193448,0.53076602,-0.0012263
 2,-0.00436277,0.01021554,0.29149574,0.23960589,-0.01345534,-0.00006003
 ,0.01419166,-0.04268145,0.11146719,0.32726526,-0.19384929,-0.00717966,
 -0.02793279,0.00250230,0.00400768,0.00560255,0.46591361,-0.00434383,-0
 .06067961,-0.00294487,0.00062026,0.00066391,0.00256016,0.01414333,0.54
 595198,-0.05572293,-0.00502605,-0.10054247,0.00022206,-0.00007769,0.00
 142808,-0.01463624,0.04574538,0.58568058,-0.03831370,0.03544733,-0.014
 24949,-0.00033193,-0.00051725,-0.00102936,-0.07956821,0.02250180,-0.00
 402869,0.58008713,0.00403863,0.00419946,0.00204459,0.00007567,0.000092
 76,-0.00016097,0.03042297,-0.18691113,0.03330924,0.03132972,0.50008509
 ,-0.00902584,0.00815488,-0.00033932,0.00001657,-0.00064817,-0.00070115
 ,-0.00614294,0.02914623,-0.09317552,-0.01008270,0.02495735,0.57514090,
 -0.03977942,-0.01103399,0.03829848,-0.00013827,-0.00028362,-0.00058104
 ,-0.09286113,-0.01302020,0.03907675,0.00839516,0.00100035,-0.00763882,
 0.57672963,-0.00390250,0.00138855,0.00228647,0.00019400,0.00014311,0.0
 0010380,-0.01520032,-0.09171296,0.02834594,-0.01429384,-0.01277176,0.0
 3091191,-0.01365725,0.58270730,-0.00104104,-0.00086577,0.00690808,0.00
 000652,-0.00020185,-0.00041812,0.05391732,0.03146186,-0.18413770,0.003
 99041,0.00766751,-0.01284816,0.03647612,0.01603752,0.51605124,-0.16523
 358,-0.02130575,0.08666731,-0.00686910,-0.01568608,-0.00377174,-0.0468
 7871,-0.00561942,0.03789588,0.00114894,0.00131660,-0.00053595,-0.00538
 963,0.00064021,-0.00142213,0.73720883,-0.02407561,-0.05049487,0.001723
 37,-0.03144765,-0.01269971,-0.01335481,-0.00541779,-0.00720759,0.00310
 563,0.00357007,0.00097334,-0.00072289,-0.00258999,-0.00002199,-0.00046
 269,0.33129288,0.37952678,0.12026692,0.00303005,-0.25126813,-0.0461158
 6,-0.03940357,-0.01714279,0.01987018,0.00155085,0.00325016,-0.00625747
 ,-0.00153070,0.00025146,-0.00286071,-0.00066322,-0.00119038,-0.0560625
 8,0.15066579,0.58114751,-0.02801603,-0.01891949,0.01620826,-0.11393195
 ,-0.05758568,-0.02198184,0.00248882,-0.00012315,0.00193467,0.00008435,
 -0.00042268,0.00019654,-0.00053871,0.00016435,-0.00034000,-0.43404511,
 -0.22048156,0.02004733,0.74879393,-0.00411606,0.00783011,0.00003400,-0
 .07548850,-0.12284807,-0.10435305,0.00068017,-0.00010860,-0.00128572,0
 .00023908,-0.00016423,0.00114825,0.00079759,0.00020713,0.00036961,-0.2
 2695407,-0.19549627,-0.00463630,0.33156761,0.37406917,0.05992238,0.023
 07588,-0.02038888,-0.05987218,-0.12793732,-0.24218402,-0.00959179,-0.0
 0246537,-0.00689470,0.00177226,0.00037345,0.00107623,0.00256906,0.0001
 5335,0.00131974,-0.00427954,-0.01790153,-0.08568822,-0.11794621,0.1372
 6183,0.58587552,-0.02997173,-0.02483347,-0.02615811,0.00003783,-0.0001
 8397,0.00000113,-0.05091972,-0.01875985,-0.01637881,0.00361024,0.00726
 367,0.00760595,0.00343854,0.01104771,0.01165044,0.00389804,-0.00139187
 ,-0.00810212,-0.00047611,0.00017798,0.00088419,0.07016741,-0.00582893,
 0.00288741,-0.00066199,0.00008997,0.00025678,-0.00003427,-0.02112460,-
 0.16851228,-0.11893647,-0.00243615,-0.02308449,-0.02142665,0.00161657,
 0.00733108,0.00817787,0.00108360,0.00057346,-0.00111685,-0.00021811,-0
 .00009139,0.00061712,0.02590170,0.18231930,-0.01067849,-0.00542685,-0.
 00572256,-0.00003039,0.00011273,-0.00019448,-0.02077155,-0.11849944,-0
 .17266497,0.00156609,0.00873241,0.00808031,-0.00236668,-0.01872436,-0.
 02110923,0.00283734,0.00208840,0.00050495,-0.00031093,-0.00003693,0.00
 062910,0.02838332,0.12888805,0.19069759,0.00162301,-0.00078123,0.00032
 628,0.00001628,-0.00022581,-0.00022258,0.00052122,0.00865536,0.0075381
 3,-0.05440045,-0.03173104,-0.03169463,-0.00019253,-0.00059625,0.000221
 41,-0.00033333,-0.00018633,0.00052829,0.00010784,0.00022427,0.00016113
 ,-0.00000772,0.00215906,-0.00068708,0.05324584,-0.00068913,0.00357570,
 0.00063711,-0.00002201,0.00004891,0.00004207,-0.00641748,-0.02531533,-
 0.02372537,-0.03033181,-0.16980933,-0.12971110,-0.00000047,0.00139139,
 -0.00161921,0.00024067,-0.00017587,-0.00016242,-0.00003366,-0.00018222
 ,-0.00006563,0.00236009,-0.00470468,0.00278982,0.03266493,0.18813469,0
 .00152640,-0.00034438,0.00027970,0.00011869,0.00036238,0.00036501,0.00
 182501,0.00770489,0.00708214,-0.03180455,-0.13154888,-0.18521625,0.000
 13001,0.00058508,0.00155047,0.00001994,-0.00023650,0.00004230,-0.00008
 691,-0.00038111,-0.00036941,-0.00080057,0.00244509,0.00020784,0.035095
 23,0.14219550,0.19798910,0.00101589,-0.00107373,0.00062296,0.00023506,
 0.00009141,0.00020830,0.00470820,0.00259746,-0.01034865,-0.11344404,-0
 .03647076,0.11183985,-0.00068103,0.00174040,-0.00069241,-0.00062336,0.
 00086351,-0.00040294,-0.00058546,-0.00015002,-0.00010117,0.00012642,-0
 .00071230,0.00032859,0.00260459,0.00233652,-0.00563048,0.12002296,-0.0
 0112820,0.00175495,-0.00183552,-0.00031470,-0.00045165,-0.00043727,-0.
 01758064,-0.00783095,0.02684158,-0.03481695,-0.06631632,0.05791323,0.0
 0326031,-0.00534819,0.00071779,0.00042439,0.00010934,0.00047340,0.0005
 6616,0.00036378,0.00002682,-0.00041112,0.00117600,-0.00067537,0.012290
 13,0.00649941,-0.01792479,0.03807090,0.07202302,-0.00026552,-0.0004969
 9,0.00046865,0.00005170,0.00027980,0.00018281,0.00500646,0.00176699,-0
 .00917897,0.11032247,0.05890353,-0.23211541,-0.00132422,0.00254439,0.0
 0053900,0.00081457,0.00003334,-0.00001022,-0.00038380,-0.00074491,-0.0
 0005471,-0.00051561,0.00016865,0.00061944,0.01140037,0.00677321,-0.017
 74976,-0.12194155,-0.06650872,0.25000652,-0.00131400,0.00296403,0.0000
 2291,-0.00019563,-0.00022476,-0.00030285,-0.00955566,-0.00373405,-0.00
 071334,-0.30545945,-0.00723576,-0.05495382,-0.00015645,-0.00067712,0.0
 0035501,0.00097099,0.00009993,-0.00138917,0.00015060,0.00019367,0.0003
 8519,0.00030381,0.00051318,0.00025719,-0.00340238,-0.00001098,-0.00016
 383,-0.01401451,-0.00017235,-0.00379869,0.33174407,0.00663236,-0.00579
 278,0.00228362,0.00013306,0.00021792,0.00040875,0.02716601,0.00538617,
 0.00440613,-0.00934755,-0.04825057,-0.00197113,-0.00015897,0.00093069,
 -0.00036575,-0.00147210,-0.00039274,0.00195672,0.00017107,0.00010727,-
 0.00075587,-0.00075200,0.00069666,-0.00107717,-0.02199095,-0.00004970,
 -0.00263156,-0.00811417,-0.00132897,-0.00284462,0.00804959,0.04872827,
 -0.00217448,0.00287771,0.00047815,-0.00008012,0.00008683,-0.00007407,-
 0.00889027,-0.00297656,-0.00372878,-0.05407053,-0.00155458,-0.05751823
 ,-0.00002764,-0.00044218,0.00009659,0.00104025,0.00009143,-0.00069599,
 -0.00032536,-0.00041219,0.00020237,0.00021093,0.00003996,0.00024481,-0
 .02247744,0.00122696,-0.00430826,0.02642437,-0.00014795,0.00705978,0.0
 6008718,0.00056645,0.05829009,0.00190562,0.00027108,-0.00082990,-0.000
 00124,0.00000307,-0.00003057,0.00161845,0.01096366,0.01270704,-0.00007
 835,0.00063673,-0.00074578,-0.05593918,-0.03418192,-0.03730301,-0.0003
 1207,0.00013863,0.00049691,0.00007652,0.00000079,-0.00016141,-0.000945
 75,-0.00097119,0.00264410,0.00026029,-0.00017721,-0.00029509,-0.000101
 51,0.00012138,-0.00003021,0.00000756,-0.00008138,-0.00011244,0.0560546
 1,0.00110708,0.00011704,-0.00044272,0.00003386,0.00002246,0.00010911,0
 .00205211,0.00584804,0.00701769,0.00034129,0.00152415,0.00068169,-0.03
 378193,-0.17178312,-0.13061519,0.00008623,0.00012920,0.00041334,-0.000
 02234,-0.00008210,-0.00019830,-0.00098662,0.00041049,0.00196033,-0.000
 30606,0.00008087,-0.00017378,0.00003681,0.00004991,-0.00010754,0.00011
 184,-0.00003517,0.00002742,0.03773875,0.18292044,-0.00112600,0.0004789
 9,0.00224418,0.00007298,0.00014358,0.00014829,-0.00615837,-0.02146883,
 -0.02517154,-0.00041924,-0.00150132,0.00133402,-0.03550516,-0.12881344
 ,-0.18296546,0.00010726,0.00012099,0.00008088,-0.00004427,-0.00007058,
 -0.00000967,0.00318693,0.00247997,-0.00381082,-0.00005199,0.00116582,0
 .00003892,0.00016182,0.00020089,0.00054762,0.00006047,0.00007136,-0.00
 002715,0.03766285,0.14148520,0.20216664,0.00155783,0.00026160,-0.00083
 412,0.00004959,0.00012551,0.00012476,0.00405808,-0.01532130,0.00448072
 ,-0.00154418,-0.00060361,0.00227908,-0.08057382,0.08649266,-0.02886207
 ,-0.00007475,0.00002366,0.00032844,0.00007496,-0.00010396,-0.00024239,
 0.00033513,0.00036994,-0.00077644,-0.00011374,0.00017245,0.00001371,0.
 00053602,-0.00067988,0.00055634,0.00029580,-0.00008385,0.00020206,0.00
 164304,-0.00632228,0.00258878,0.08285656,0.00003245,0.00082130,-0.0010
 1414,-0.00003921,0.00003393,-0.00002790,0.00364474,-0.00858447,0.00162
 142,-0.00153253,0.00071326,0.00216420,0.08441149,-0.26460532,0.0710184
 1,-0.00032994,0.00020579,0.00005388,0.00008084,0.00005875,-0.00006572,
 -0.00039189,0.00078276,0.00019904,0.00004060,0.00054006,-0.00008318,0.
 00041520,-0.00038831,0.00032726,0.00015958,0.00004938,-0.00011563,0.00
 766196,-0.01798070,0.00698418,-0.09300317,0.28464120,-0.00142493,-0.00
 162471,0.00187757,-0.00001903,-0.00005260,-0.00006137,-0.01196271,0.02
 783191,-0.00925770,0.00389067,0.00041625,-0.00474275,-0.02674216,0.069
 11213,-0.07042733,0.00009506,-0.00025432,-0.00013262,-0.00008337,-0.00
 001484,0.00016317,-0.00077458,-0.00051658,0.00095839,0.00014109,0.0001
 9470,0.00009103,-0.00039143,0.00188653,-0.00039069,0.00008573,-0.00036
 128,0.00010014,0.00927121,-0.02060733,0.00778082,0.02906228,-0.0792038
 8,0.07649773,-0.00200735,-0.00074320,0.00466681,-0.00012158,-0.0002200
 3,-0.00027268,-0.01328352,0.00045129,-0.00653035,0.00005511,0.00038803
 ,-0.00087567,-0.31170012,-0.01765666,-0.03693582,0.00019468,-0.0004288
 8,-0.00119408,-0.00015246,0.00020610,0.00066637,0.00034331,0.00035987,
 0.00037713,-0.00002099,0.00002354,0.00012761,0.00034004,0.00009797,0.0
 0018248,0.00065687,-0.00022760,0.00021028,-0.00413575,0.00005174,-0.00
 034251,-0.00914113,-0.00123873,-0.00107048,0.33910535,-0.00143316,0.00
 035603,0.00198361,-0.00005546,-0.00001330,-0.00007454,-0.00761537,-0.0
 0265935,-0.00363958,-0.00000548,0.00008365,-0.00029173,-0.01637707,-0.
 04790854,-0.00150193,-0.00038278,0.00040032,-0.00014424,-0.00000634,0.
 00004177,0.00015574,0.00022644,0.00016574,0.00001027,-0.00011330,-0.00
 004361,-0.00004681,0.00016198,0.00006257,-0.00013348,0.00001184,-0.000
 25883,0.00061892,-0.02198839,-0.00117749,-0.00131722,0.02871322,0.0038
 2724,0.00308759,0.01890424,0.04718260,0.00509667,0.00163023,-0.0059350
 8,0.00006872,0.00013123,0.00028390,0.02563744,0.00063902,0.00794627,-0
 .00026828,-0.00029179,0.00075254,-0.04001675,-0.00175667,-0.05391481,0
 .00128723,0.00071912,0.00120029,0.00017856,-0.00027900,-0.00081585,-0.
 00071477,-0.00088815,0.00072479,-0.00010531,0.00007364,-0.00001573,-0.
 00007409,-0.00034332,0.00005325,-0.00007085,0.00048870,-0.00028284,-0.
 02302279,0.00047545,-0.00264732,-0.00885896,-0.00184414,-0.00241456,0.
 04081850,0.00118928,0.05518747,0.00179962,0.00906575,0.02039456,-0.002
 38956,-0.00399528,0.00419457,0.00428934,0.00270456,0.00400774,-0.00038
 654,-0.00012529,-0.00027974,-0.00019040,-0.00010233,0.00010906,-0.0763
 6475,-0.05466617,-0.06176788,-0.00065461,-0.01159018,-0.02370290,0.000
 36584,-0.00081809,-0.00078492,0.00008983,-0.00012689,-0.00005544,-0.00
 004532,0.00020867,-0.00002067,-0.00005425,0.00006579,-0.00003497,-0.00
 008981,-0.00013633,-0.00017232,0.00002770,0.00004569,-0.00002988,-0.00
 006528,-0.00004879,-0.00004567,0.07499319,0.00191071,0.00517597,0.0020
 6174,-0.00579185,0.00425441,-0.00144588,-0.00027322,0.00141950,0.00092
 422,-0.00009482,-0.00009335,-0.00046549,0.00017286,0.00005553,0.000300
 55,-0.05572127,-0.11672670,-0.12298448,-0.00093296,-0.00643155,-0.0118
 7886,0.00060679,-0.00017446,-0.00031603,-0.00007887,-0.00004013,0.0001
 1990,0.00014744,-0.00045231,0.00010347,-0.00007501,-0.00001657,0.00013
 650,-0.00011171,-0.00005875,0.00003975,-0.00002273,-0.00006021,0.00007
 551,0.00003421,0.00000750,-0.00006078,0.05935890,0.11523365,0.00453476
 ,-0.01327218,-0.03053024,0.00239065,-0.00069281,0.00278366,-0.00576667
 ,0.00010229,-0.00034071,0.00058897,0.00011672,0.00010522,0.00045610,0.
 00033600,0.00050380,-0.06352757,-0.12236622,-0.22567763,0.00121104,0.0
 0140912,0.00142512,0.00145390,0.00068992,0.00076044,-0.00012212,0.0001
 6369,-0.00001450,0.00002794,-0.00016668,0.00002783,0.00012175,-0.00018
 321,0.00013455,-0.00023319,-0.00001915,0.00027786,-0.00006214,-0.00003
 902,-0.00002035,0.00017848,0.00007617,-0.00009846,0.05950404,0.1328943
 9,0.25051870,-0.00230491,-0.00542708,0.00016995,0.00909696,-0.00259776
 ,-0.01479384,0.00149197,-0.00138956,0.00072497,0.00001960,0.00011917,-
 0.00004612,-0.00050338,-0.00000602,-0.00017384,-0.00837209,0.00464461,
 0.02262617,-0.15934063,-0.01314990,0.14363166,-0.00031917,-0.00001795,
 -0.00002384,0.00002366,0.00001423,-0.00001373,-0.00005260,0.00003221,0
 .00001885,-0.00003969,0.00002337,0.00001788,0.00004696,0.00000962,-0.0
 0001655,0.00003501,0.00003118,-0.00004631,-0.00011201,0.00000377,0.000
 11942,-0.00138635,0.00168245,-0.00120166,0.15884084,-0.00620763,0.0051
 4999,-0.00559765,0.00786065,-0.00170077,-0.02008583,-0.00049638,0.0003
 7622,0.00148355,-0.00015041,-0.00024533,0.00009431,-0.00042646,-0.0000
 0381,-0.00016321,-0.00751365,0.00228311,0.01518058,-0.01160308,-0.0409
 1263,-0.00640253,0.00008241,-0.00006771,-0.00011484,-0.00000993,0.0000
 2283,0.00000431,0.00009869,0.00002740,-0.00005792,-0.00001485,0.000054
 40,-0.00004184,-0.00000103,0.00001841,0.00000288,0.00000264,-0.0000343
 2,0.00001964,-0.00004344,-0.00007706,0.00013949,0.00157048,-0.00321362
 ,0.00133639,0.01493595,0.03679326,0.00020395,-0.00331467,0.00350621,0.
 00880978,-0.00698681,-0.02390864,0.00038560,-0.00020100,-0.00032222,0.
 00003674,0.00006544,-0.00009890,0.00001833,-0.00003473,0.00000273,-0.0
 0108192,-0.00026615,0.00167579,0.14155348,-0.00653609,-0.23453700,-0.0
 0008030,0.00003363,0.00004099,-0.00001917,0.00001194,0.00001130,-0.000
 02615,0.00000329,0.00002248,-0.00000765,0.00000547,0.00002375,-0.00000
 076,0.00000318,0.00000113,0.00000551,0.00001736,-0.00001674,-0.0000231
 6,0.00002505,-0.00000892,-0.00059100,0.00173146,-0.00011152,-0.1505335
 6,0.01467578,0.25336430,0.00178073,0.00071873,-0.00163957,-0.41685353,
 -0.21297684,0.08899198,-0.00067576,-0.00032636,-0.00022894,0.00012632,
 -0.00000240,0.00008403,0.00008074,-0.00000514,0.00004404,0.00107503,0.
 00005255,-0.00001143,-0.01403595,-0.00253456,0.00590537,0.00001362,0.0
 0003343,0.00003652,-0.00002142,-0.00000277,-0.00000599,-0.00004136,0.0
 0003173,-0.00007296,0.00006233,-0.00001267,0.00000031,-0.00000940,-0.0
 0001375,-0.00000467,-0.00002212,0.00001173,-0.00000117,0.00004484,0.00
 000465,-0.00002906,0.00006134,-0.00081093,0.00044573,0.00287583,0.0019
 1605,0.00135026,0.42553877,0.00179645,0.00021866,-0.00111803,-0.192479
 23,-0.10326379,0.02534347,-0.00081155,-0.00012355,-0.00010990,0.000097
 52,-0.00002519,0.00006511,0.00007078,0.00000091,0.00004447,-0.00009951
 ,-0.00098559,-0.00268282,-0.02220097,-0.01636092,0.00600692,0.00004401
 ,0.00003533,0.00008996,-0.00001458,0.00002703,-0.00004616,-0.00003934,
 0.00005034,-0.00000647,0.00004122,-0.00004543,0.00001875,-0.00002322,-
 0.00000370,-0.00000222,-0.00002090,-0.00002033,0.00001126,0.00004153,0
 .00001076,-0.00002232,-0.00141048,0.00112110,-0.00038543,0.00109171,0.
 00152962,0.00076686,0.21391656,0.11783474,0.00103149,0.00083904,0.0003
 2526,0.13510686,0.05320154,-0.06196402,-0.00039121,0.00004649,0.000028
 06,0.00004270,0.00000176,0.00001501,0.00003834,0.00001801,0.00003954,-
 0.00008340,-0.00298297,-0.00634736,-0.03982719,-0.02147210,0.00025122,
 0.00014809,0.00004069,0.00003341,-0.00003160,0.00000926,0.00001612,-0.
 00000495,-0.00002391,-0.00002761,0.00002478,0.00000341,0.00000508,-0.0
 0001695,-0.00000940,0.00001160,-0.00000557,0.00000787,-0.00000475,0.00
 001708,0.00000289,-0.00001495,-0.00072457,-0.00123598,0.00025622,-0.00
 045944,-0.00047312,0.00035528,-0.09486444,-0.02797347,0.06702187\\0.00
 000008,0.00000007,-0.00000009,-0.00000006,0.00000020,-0.00000059,-0.00
 000021,-0.00000013,0.00000021,-0.00000008,-0.00000013,0.00000033,0.000
 00034,-0.00000026,0.00000035,0.00000006,0.00000007,-0.00000042,-0.0000
 0010,0.00000033,-0.00000051,0.00000002,-0.00000004,0.00000016,-0.00000
 006,-0.00000011,0.00000031,-0.00000036,0.,0.00000020,-0.00000020,-0.00
 000019,0.00000055,0.00000046,-0.00000018,0.00000030,0.00000051,-0.0000
 0016,0.00000018,0.00000036,-0.00000030,0.00000052,-0.00000027,0.000000
 15,-0.00000020,-0.00000038,0.00000033,-0.00000060,-0.00000010,0.000000
 35,-0.00000071\\\@


 IT PROBABLY IS NOT POSSIBLE FOR A SCIENTIST TO INTERROGATE NATURE 
 FROM A WHOLLY DISINTERESTED VIEWPOINT.
 EVEN IF HE HAS NO PARTICULAR AXE TO GRIND, HE IS LIKELY TO HAVE 
 A DISTINCTIVE WAY OF VIEWING NATURE.

                                                   -- JOHN LOSEE
 Job cpu time:       0 days  3 hours  0 minutes 23.9 seconds.
 Elapsed time:       0 days  2 hours 13 minutes  2.5 seconds.
 File lengths (MBytes):  RWF=   1392 Int=      0 D2E=      0 Chk=     32 Scr=     32
 Normal termination of Gaussian 16 at Thu Sep 26 21:52:25 2019.
