 Entering Gaussian System, Link 0=g16
 Input=med/species/CC(C)OC=CO/conformers/CC(C)OC=CO_49.com
 Output=med/species/CC(C)OC=CO/conformers/CC(C)OC=CO_49.log
 Initial command:
 /shared/centos7/gaussian/g16/l1.exe "/scratch/harms.n/gauss_scrdir/Gau-16178.inp" -scrdir="/scratch/harms.n/gauss_scrdir/"
 Entering Link 1 = /shared/centos7/gaussian/g16/l1.exe PID=     16179.
  
 Copyright (c) 1988,1990,1992,1993,1995,1998,2003,2009,2016,
            Gaussian, Inc.  All Rights Reserved.
  
 This is part of the Gaussian(R) 16 program.  It is based on
 the Gaussian(R) 09 system (copyright 2009, Gaussian, Inc.),
 the Gaussian(R) 03 system (copyright 2003, Gaussian, Inc.),
 the Gaussian(R) 98 system (copyright 1998, Gaussian, Inc.),
 the Gaussian(R) 94 system (copyright 1995, Gaussian, Inc.),
 the Gaussian 92(TM) system (copyright 1992, Gaussian, Inc.),
 the Gaussian 90(TM) system (copyright 1990, Gaussian, Inc.),
 the Gaussian 88(TM) system (copyright 1988, Gaussian, Inc.),
 the Gaussian 86(TM) system (copyright 1986, Carnegie Mellon
 University), and the Gaussian 82(TM) system (copyright 1983,
 Carnegie Mellon University). Gaussian is a federally registered
 trademark of Gaussian, Inc.
  
 This software contains proprietary and confidential information,
 including trade secrets, belonging to Gaussian, Inc.
  
 This software is provided under written license and may be
 used, copied, transmitted, or stored only in accord with that
 written license.
  
 The following legend is applicable only to US Government
 contracts under FAR:
  
                    RESTRICTED RIGHTS LEGEND
  
 Use, reproduction and disclosure by the US Government is
 subject to restrictions as set forth in subparagraphs (a)
 and (c) of the Commercial Computer Software - Restricted
 Rights clause in FAR 52.227-19.
  
 Gaussian, Inc.
 340 Quinnipiac St., Bldg. 40, Wallingford CT 06492
  
  
 ---------------------------------------------------------------
 Warning -- This program may not be used in any manner that
 competes with the business of Gaussian, Inc. or will provide
 assistance to any competitor of Gaussian, Inc.  The licensee
 of this program is prohibited from giving any competitor of
 Gaussian, Inc. access to this program.  By using this program,
 the user acknowledges that Gaussian, Inc. is engaged in the
 business of creating and licensing software in the field of
 computational chemistry and represents and warrants to the
 licensee that it is not a competitor of Gaussian, Inc. and that
 it will not use this program in any manner prohibited above.
 ---------------------------------------------------------------
  

 Cite this work as:
 Gaussian 16, Revision A.03,
 M. J. Frisch, G. W. Trucks, H. B. Schlegel, G. E. Scuseria, 
 M. A. Robb, J. R. Cheeseman, G. Scalmani, V. Barone, 
 G. A. Petersson, H. Nakatsuji, X. Li, M. Caricato, A. V. Marenich, 
 J. Bloino, B. G. Janesko, R. Gomperts, B. Mennucci, H. P. Hratchian, 
 J. V. Ortiz, A. F. Izmaylov, J. L. Sonnenberg, D. Williams-Young, 
 F. Ding, F. Lipparini, F. Egidi, J. Goings, B. Peng, A. Petrone, 
 T. Henderson, D. Ranasinghe, V. G. Zakrzewski, J. Gao, N. Rega, 
 G. Zheng, W. Liang, M. Hada, M. Ehara, K. Toyota, R. Fukuda, 
 J. Hasegawa, M. Ishida, T. Nakajima, Y. Honda, O. Kitao, H. Nakai, 
 T. Vreven, K. Throssell, J. A. Montgomery, Jr., J. E. Peralta, 
 F. Ogliaro, M. J. Bearpark, J. J. Heyd, E. N. Brothers, K. N. Kudin, 
 V. N. Staroverov, T. A. Keith, R. Kobayashi, J. Normand, 
 K. Raghavachari, A. P. Rendell, J. C. Burant, S. S. Iyengar, 
 J. Tomasi, M. Cossi, J. M. Millam, M. Klene, C. Adamo, R. Cammi, 
 J. W. Ochterski, R. L. Martin, K. Morokuma, O. Farkas, 
 J. B. Foresman, and D. J. Fox, Gaussian, Inc., Wallingford CT, 2016.
 
 ******************************************
 Gaussian 16:  EM64L-G16RevA.03 25-Dec-2016
                26-Sep-2019 
 ******************************************
 %nprocshared=20
 Will use up to   20 processors via shared memory.
 %mem=5GB
 ----------------------------------------------------------------------
 #p m062x/cc-pVTZ opt=(calcfc,maxcycles=900,Tight) freq IOP(7/33=1,2/16
 =3) scf=(maxcycle=900)
 ----------------------------------------------------------------------
 1/6=900,7=10,10=4,18=20,19=15,26=3,38=1/1,3;
 2/9=110,12=2,16=3,17=6,18=5,40=1/2;
 3/5=16,6=1,11=2,25=1,30=1,71=2,74=-55,140=1/1,2,3;
 4//1;
 5/5=2,7=900,38=5/2;
 8/6=4,10=90,11=11/1;
 11/6=1,8=1,9=11,15=111,16=1/1,2,10;
 10/6=1,13=1/2;
 6/7=2,8=2,9=2,10=2,28=1/1;
 7/10=1,18=20,25=1,33=1/1,2,3,16;
 1/6=900,7=10,10=4,18=20,19=15,26=3/3(2);
 2/9=110,16=3/2;
 99//99;
 2/9=110,16=3/2;
 3/5=16,6=1,11=2,25=1,30=1,71=1,74=-55/1,2,3;
 4/5=5,16=3,69=1/1;
 5/5=2,7=900,38=5/2;
 7/33=1/1,2,3,16;
 1/6=900,7=10,18=20,19=15,26=3/3(-5);
 2/9=110,16=3/2;
 6/7=2,8=2,9=2,10=2,19=2,28=1/1;
 99/9=1/99;
 Leave Link    1 at Thu Sep 26 09:42:11 2019, MaxMem=   671088640 cpu:               4.0 elap:               2.0
 (Enter /shared/centos7/gaussian/g16/l101.exe)
 ------------------------------
 Gaussian input prepared by ASE
 ------------------------------
 Symbolic Z-matrix:
 Charge =  0 Multiplicity = 1
 O                     0.33605   1.20522   0.83998 
 O                     2.22656   0.82119   3.15989 
 C                     0.30075   2.27467   1.76135 
 C                    -0.49551   1.91958   3.01709 
 C                    -0.22838   3.48906   1.07189 
 C                     0.89898   0.04421   1.31858 
 C                     1.71224  -0.15166   2.31572 
 H                     1.35699   2.5028    2.07543 
 H                    -1.08339   0.99049   2.86412 
 H                     0.17195   1.76276   3.88391 
 H                    -1.22569   2.72857   3.29097 
 H                    -1.35268   3.46322   0.96248 
 H                     0.2145    3.59962   0.06011 
 H                     0.0284    4.41729   1.65671 
 H                     0.61439  -0.81599   0.69184 
 H                     2.04908  -1.15346   2.53791 
 H                     2.70087   0.33813   3.8971 
 
 ITRead=  0  0  0  0  0  0  0  0  0  0  0  0  0  0  0  0  0
 MicOpt= -1 -1 -1 -1 -1 -1 -1 -1 -1 -1 -1 -1 -1 -1 -1 -1 -1
 NAtoms=     17 NQM=       17 NQMF=       0 NMMI=      0 NMMIF=      0
                NMic=       0 NMicF=      0.
                    Isotopes and Nuclear Properties:
 (Nuclear quadrupole moments (NQMom) in fm**2, nuclear magnetic moments (NMagM)
  in nuclear magnetons)

  Atom         1           2           3           4           5           6           7           8           9          10
 IAtWgt=          16          16          12          12          12          12          12           1           1           1
 AtmWgt=  15.9949146  15.9949146  12.0000000  12.0000000  12.0000000  12.0000000  12.0000000   1.0078250   1.0078250   1.0078250
 NucSpn=           0           0           0           0           0           0           0           1           1           1
 AtZEff=  -0.0000000  -0.0000000  -0.0000000  -0.0000000  -0.0000000  -0.0000000  -0.0000000  -0.0000000  -0.0000000  -0.0000000
 NQMom=    0.0000000   0.0000000   0.0000000   0.0000000   0.0000000   0.0000000   0.0000000   0.0000000   0.0000000   0.0000000
 NMagM=    0.0000000   0.0000000   0.0000000   0.0000000   0.0000000   0.0000000   0.0000000   2.7928460   2.7928460   2.7928460
 AtZNuc=   8.0000000   8.0000000   6.0000000   6.0000000   6.0000000   6.0000000   6.0000000   1.0000000   1.0000000   1.0000000

  Atom        11          12          13          14          15          16          17
 IAtWgt=           1           1           1           1           1           1           1
 AtmWgt=   1.0078250   1.0078250   1.0078250   1.0078250   1.0078250   1.0078250   1.0078250
 NucSpn=           1           1           1           1           1           1           1
 AtZEff=  -0.0000000  -0.0000000  -0.0000000  -0.0000000  -0.0000000  -0.0000000  -0.0000000
 NQMom=    0.0000000   0.0000000   0.0000000   0.0000000   0.0000000   0.0000000   0.0000000
 NMagM=    2.7928460   2.7928460   2.7928460   2.7928460   2.7928460   2.7928460   2.7928460
 AtZNuc=   1.0000000   1.0000000   1.0000000   1.0000000   1.0000000   1.0000000   1.0000000
 Leave Link  101 at Thu Sep 26 09:42:13 2019, MaxMem=   671088640 cpu:               2.4 elap:               1.2
 (Enter /shared/centos7/gaussian/g16/l103.exe)

 GradGradGradGradGradGradGradGradGradGradGradGradGradGradGradGradGradGrad
 Berny optimization.
 Initialization pass.
                           ----------------------------
                           !    Initial Parameters    !
                           ! (Angstroms and Degrees)  !
 --------------------------                            --------------------------
 ! Name  Definition              Value          Derivative Info.                !
 --------------------------------------------------------------------------------
 ! R1    R(1,3)                  1.412          calculate D2E/DX2 analytically  !
 ! R2    R(1,6)                  1.3762         calculate D2E/DX2 analytically  !
 ! R3    R(2,7)                  1.3869         calculate D2E/DX2 analytically  !
 ! R4    R(2,17)                 1.0009         calculate D2E/DX2 analytically  !
 ! R5    R(3,4)                  1.5287         calculate D2E/DX2 analytically  !
 ! R6    R(3,5)                  1.4933         calculate D2E/DX2 analytically  !
 ! R7    R(3,8)                  1.1253         calculate D2E/DX2 analytically  !
 ! R8    R(4,9)                  1.1101         calculate D2E/DX2 analytically  !
 ! R9    R(4,10)                 1.1052         calculate D2E/DX2 analytically  !
 ! R10   R(4,11)                 1.1237         calculate D2E/DX2 analytically  !
 ! R11   R(5,12)                 1.1299         calculate D2E/DX2 analytically  !
 ! R12   R(5,13)                 1.11           calculate D2E/DX2 analytically  !
 ! R13   R(5,14)                 1.1267         calculate D2E/DX2 analytically  !
 ! R14   R(6,7)                  1.3016         calculate D2E/DX2 analytically  !
 ! R15   R(6,15)                 1.1017         calculate D2E/DX2 analytically  !
 ! R16   R(7,16)                 1.08           calculate D2E/DX2 analytically  !
 ! A1    A(3,1,6)              114.9772         calculate D2E/DX2 analytically  !
 ! A2    A(7,2,17)             106.5889         calculate D2E/DX2 analytically  !
 ! A3    A(1,3,4)              111.9058         calculate D2E/DX2 analytically  !
 ! A4    A(1,3,5)              108.875          calculate D2E/DX2 analytically  !
 ! A5    A(1,3,8)              108.1914         calculate D2E/DX2 analytically  !
 ! A6    A(4,3,5)              112.5556         calculate D2E/DX2 analytically  !
 ! A7    A(4,3,8)              107.8614         calculate D2E/DX2 analytically  !
 ! A8    A(5,3,8)              107.2521         calculate D2E/DX2 analytically  !
 ! A9    A(3,4,9)              110.9202         calculate D2E/DX2 analytically  !
 ! A10   A(3,4,10)             111.2629         calculate D2E/DX2 analytically  !
 ! A11   A(3,4,11)             111.8045         calculate D2E/DX2 analytically  !
 ! A12   A(9,4,10)             108.0086         calculate D2E/DX2 analytically  !
 ! A13   A(9,4,11)             106.9799         calculate D2E/DX2 analytically  !
 ! A14   A(10,4,11)            107.6639         calculate D2E/DX2 analytically  !
 ! A15   A(3,5,12)             112.2519         calculate D2E/DX2 analytically  !
 ! A16   A(3,5,13)             111.1287         calculate D2E/DX2 analytically  !
 ! A17   A(3,5,14)             110.4597         calculate D2E/DX2 analytically  !
 ! A18   A(12,5,13)            108.121          calculate D2E/DX2 analytically  !
 ! A19   A(12,5,14)            107.2096         calculate D2E/DX2 analytically  !
 ! A20   A(13,5,14)            107.4649         calculate D2E/DX2 analytically  !
 ! A21   A(1,6,7)              130.4649         calculate D2E/DX2 analytically  !
 ! A22   A(1,6,15)             110.806          calculate D2E/DX2 analytically  !
 ! A23   A(7,6,15)             118.6682         calculate D2E/DX2 analytically  !
 ! A24   A(2,7,6)              126.3313         calculate D2E/DX2 analytically  !
 ! A25   A(2,7,16)             114.1903         calculate D2E/DX2 analytically  !
 ! A26   A(6,7,16)             119.4772         calculate D2E/DX2 analytically  !
 ! D1    D(6,1,3,4)            -59.5589         calculate D2E/DX2 analytically  !
 ! D2    D(6,1,3,5)            175.3832         calculate D2E/DX2 analytically  !
 ! D3    D(6,1,3,8)             59.1343         calculate D2E/DX2 analytically  !
 ! D4    D(3,1,6,7)            -20.8867         calculate D2E/DX2 analytically  !
 ! D5    D(3,1,6,15)           162.0481         calculate D2E/DX2 analytically  !
 ! D6    D(17,2,7,6)           171.6368         calculate D2E/DX2 analytically  !
 ! D7    D(17,2,7,16)           -8.7746         calculate D2E/DX2 analytically  !
 ! D8    D(1,3,4,9)            -13.1822         calculate D2E/DX2 analytically  !
 ! D9    D(1,3,4,10)           107.0768         calculate D2E/DX2 analytically  !
 ! D10   D(1,3,4,11)          -132.5011         calculate D2E/DX2 analytically  !
 ! D11   D(5,3,4,9)            109.8137         calculate D2E/DX2 analytically  !
 ! D12   D(5,3,4,10)          -129.9272         calculate D2E/DX2 analytically  !
 ! D13   D(5,3,4,11)            -9.5051         calculate D2E/DX2 analytically  !
 ! D14   D(8,3,4,9)           -132.0709         calculate D2E/DX2 analytically  !
 ! D15   D(8,3,4,10)           -11.8118         calculate D2E/DX2 analytically  !
 ! D16   D(8,3,4,11)           108.6103         calculate D2E/DX2 analytically  !
 ! D17   D(1,3,5,12)            78.2637         calculate D2E/DX2 analytically  !
 ! D18   D(1,3,5,13)           -42.9603         calculate D2E/DX2 analytically  !
 ! D19   D(1,3,5,14)          -162.1426         calculate D2E/DX2 analytically  !
 ! D20   D(4,3,5,12)           -46.413          calculate D2E/DX2 analytically  !
 ! D21   D(4,3,5,13)          -167.6371         calculate D2E/DX2 analytically  !
 ! D22   D(4,3,5,14)            73.1806         calculate D2E/DX2 analytically  !
 ! D23   D(8,3,5,12)          -164.8865         calculate D2E/DX2 analytically  !
 ! D24   D(8,3,5,13)            73.8894         calculate D2E/DX2 analytically  !
 ! D25   D(8,3,5,14)           -45.2929         calculate D2E/DX2 analytically  !
 ! D26   D(1,6,7,2)             -0.4003         calculate D2E/DX2 analytically  !
 ! D27   D(1,6,7,16)          -179.9692         calculate D2E/DX2 analytically  !
 ! D28   D(15,6,7,2)           176.4728         calculate D2E/DX2 analytically  !
 ! D29   D(15,6,7,16)           -3.0961         calculate D2E/DX2 analytically  !
 --------------------------------------------------------------------------------
 Trust Radius=3.00D-01 FncErr=1.00D-07 GrdErr=1.00D-06 EigMax=2.50D+02 EigMin=1.00D-04
 Number of steps in this run=    102 maximum allowed number of steps=    102.
 GradGradGradGradGradGradGradGradGradGradGradGradGradGradGradGradGradGrad

 Leave Link  103 at Thu Sep 26 09:42:13 2019, MaxMem=   671088640 cpu:               1.3 elap:               0.7
 (Enter /shared/centos7/gaussian/g16/l202.exe)
                          Input orientation:                          
 ---------------------------------------------------------------------
 Center     Atomic      Atomic             Coordinates (Angstroms)
 Number     Number       Type             X           Y           Z
 ---------------------------------------------------------------------
      1          8           0        0.336045    1.205222    0.839983
      2          8           0        2.226559    0.821191    3.159894
      3          6           0        0.300746    2.274670    1.761347
      4          6           0       -0.495512    1.919577    3.017091
      5          6           0       -0.228382    3.489061    1.071891
      6          6           0        0.898976    0.044211    1.318582
      7          6           0        1.712240   -0.151660    2.315723
      8          1           0        1.356992    2.502803    2.075430
      9          1           0       -1.083394    0.990487    2.864124
     10          1           0        0.171954    1.762759    3.883915
     11          1           0       -1.225686    2.728570    3.290965
     12          1           0       -1.352681    3.463224    0.962475
     13          1           0        0.214500    3.599622    0.060108
     14          1           0        0.028404    4.417291    1.656707
     15          1           0        0.614394   -0.815988    0.691838
     16          1           0        2.049081   -1.153456    2.537906
     17          1           0        2.700865    0.338132    3.897098
 ---------------------------------------------------------------------
                    Distance matrix (angstroms):
                    1          2          3          4          5
     1  O    0.000000
     2  O    3.017202   0.000000
     3  C    1.412047   2.788779   0.000000
     4  C    2.437537   2.938795   1.528729   0.000000
     5  C    2.363954   4.183781   1.493342   2.513651   0.000000
     6  C    1.376189   2.399292   2.351355   2.889036   3.633013
     7  C    2.431635   1.386935   2.861245   3.107428   4.309057
     8  H    2.062129   2.181749   1.125320   2.158391   2.119718
     9  H    2.481544   3.327450   2.186570   1.110050   3.191553
    10  H    3.098918   2.373217   2.187221   1.105209   3.323832
    11  H    3.281296   3.946298   2.208111   1.123668   2.548971
    12  H    2.822299   4.961848   2.187390   2.709064   1.129905
    13  H    2.521137   4.623499   2.158043   3.474251   1.109989
    14  H    3.328524   4.474750   2.162393   2.892008   1.126748
    15  H    2.045657   3.372051   3.285482   3.757926   4.403198
    16  H    3.373543   2.077883   3.925782   4.018470   5.374848
    17  H    3.961082   1.000891   3.751291   3.673175   5.146906
                    6          7          8          9         10
     6  C    0.000000
     7  C    1.301558   0.000000
     8  H    2.612905   2.688887   0.000000
     9  H    2.685876   3.069334   2.977351   0.000000
    10  H    3.172208   2.914911   2.285300   1.792282   0.000000
    11  H    3.950983   4.228266   2.863341   1.795375   1.799382
    12  H    4.109309   4.928732   3.082758   3.131008   3.708220
    13  H    3.833173   4.626353   2.563166   4.044085   4.242331
    14  H    4.471695   4.913748   2.367644   3.799597   3.468083
    15  H    1.101697   2.069685   3.671532   3.296159   4.127353
    16  H    2.060072   1.080011   3.749814   3.809896   3.720169
    17  H    3.159421   1.928218   3.132136   3.976584   2.902608
                   11         12         13         14         15
    11  H    0.000000
    12  H    2.444935   0.000000
    13  H    3.642981   1.813540   0.000000
    14  H    2.663705   1.816480   1.803426   0.000000
    15  H    4.765002   4.717444   4.478461   5.353650   0.000000
    16  H    5.134328   5.947074   5.665415   5.991066   2.362239
    17  H    4.636744   5.899953   5.616211   5.366651   3.994878
                   16         17
    16  H    0.000000
    17  H    2.120628   0.000000
 Stoichiometry    C5H10O2
 Framework group  C1[X(C5H10O2)]
 Deg. of freedom    45
 Full point group                 C1      NOp   1
 Largest Abelian subgroup         C1      NOp   1
 Largest concise Abelian subgroup C1      NOp   1
                         Standard orientation:                         
 ---------------------------------------------------------------------
 Center     Atomic      Atomic             Coordinates (Angstroms)
 Number     Number       Type             X           Y           Z
 ---------------------------------------------------------------------
      1          8           0        0.345635    1.151776    0.063541
      2          8           0       -1.684299   -0.957553   -0.666945
      3          6           0        0.928705   -0.109682   -0.186720
      4          6           0        0.740843   -1.068242    0.989241
      5          6           0        2.365739    0.084545   -0.543480
      6          6           0       -1.008420    1.127844    0.308201
      7          6           0       -1.905170    0.233219    0.008974
      8          1           0        0.420048   -0.560077   -1.083803
      9          1           0        0.396400   -0.523846    1.893234
     10          1           0       -0.006033   -1.848484    0.754964
     11          1           0        1.699922   -1.585631    1.263299
     12          1           0        3.010519    0.272679    0.365118
     13          1           0        2.493055    0.939264   -1.240130
     14          1           0        2.771749   -0.832977   -1.056189
     15          1           0       -1.334015    2.059151    0.798498
     16          1           0       -2.934767    0.397934    0.290438
     17          1           0       -2.537754   -1.477890   -0.615502
 ---------------------------------------------------------------------
 Rotational constants (GHZ):           4.3824104           1.9052542           1.6254529
 Leave Link  202 at Thu Sep 26 09:42:16 2019, MaxMem=   671088640 cpu:               4.3 elap:               2.2
 (Enter /shared/centos7/gaussian/g16/l301.exe)
 Standard basis: CC-pVTZ (5D, 7F)
 Ernie: Thresh=  0.10000D-02 Tol=  0.10000D-05 Strict=F.
 Ernie:  21 primitive shells out of 262 were deleted.
 There are   395 symmetry adapted cartesian basis functions of A   symmetry.
 There are   350 symmetry adapted basis functions of A   symmetry.
   350 basis functions,   534 primitive gaussians,   395 cartesian basis functions
    28 alpha electrons       28 beta electrons
       nuclear repulsion energy       324.7788532138 Hartrees.
 IExCor= 4336 DFT=T Ex+Corr=M062X ExCW=0 ScaHFX=  0.540000
 ScaDFX=  1.000000  1.000000  1.000000  1.000000 ScalE2=  1.000000  1.000000
 IRadAn=      5 IRanWt=     -1 IRanGd=            0 ICorTp=0 IEmpDi=  4
 NAtoms=   17 NActive=   17 NUniq=   17 SFac= 1.00D+00 NAtFMM=   60 NAOKFM=F Big=F
 Integral buffers will be    131072 words long.
 Raffenetti 2 integral format.
 Two-electron integral symmetry is turned on.
 Leave Link  301 at Thu Sep 26 09:42:16 2019, MaxMem=   671088640 cpu:               1.5 elap:               0.8
 (Enter /shared/centos7/gaussian/g16/l302.exe)
 NPDir=0 NMtPBC=     1 NCelOv=     1 NCel=       1 NClECP=     1 NCelD=      1
         NCelK=      1 NCelE2=     1 NClLst=     1 CellRange=     0.0.
 One-electron integrals computed using PRISM.
 One-electron integral symmetry used in STVInt
 NBasis=   350 RedAO= T EigKep=  3.21D-04  NBF=   350
 NBsUse=   350 1.00D-06 EigRej= -1.00D+00 NBFU=   350
 Precomputing XC quadrature grid using
 IXCGrd= 4 IRadAn=           5 IRanWt=          -1 IRanGd=           0 AccXCQ= 0.00D+00.
 Generated NRdTot=       0 NPtTot=           0 NUsed=           0 NTot=          32
 NSgBfM=   395   395   395   395   395 MxSgAt=    17 MxSgA2=    17.
 Leave Link  302 at Thu Sep 26 09:43:16 2019, MaxMem=   671088640 cpu:             119.4 elap:              59.7
 (Enter /shared/centos7/gaussian/g16/l303.exe)
 DipDrv:  MaxL=1.
 Leave Link  303 at Thu Sep 26 09:43:20 2019, MaxMem=   671088640 cpu:               8.7 elap:               4.3
 (Enter /shared/centos7/gaussian/g16/l401.exe)
 ExpMin= 1.03D-01 ExpMax= 1.53D+04 ExpMxC= 5.22D+02 IAcc=3 IRadAn=         5 AccDes= 0.00D+00
 Harris functional with IExCor= 1009 and IRadAn=       5 diagonalized for initial guess.
 HarFok:  IExCor= 1009 AccDes= 0.00D+00 IRadAn=         5 IDoV= 1 UseB2=F ITyADJ=14
 ICtDFT=  3500011 ScaDFX=  1.000000  1.000000  1.000000  1.000000
 FoFCou: FMM=F IPFlag=           0 FMFlag=      100000 FMFlg1=           0
         NFxFlg=           0 DoJE=T BraDBF=F KetDBF=T FulRan=T
         wScrn=  0.000000 ICntrl=       500 IOpCl=  0 I1Cent=   200000004 NGrid=           0
         NMat0=    1 NMatS0=      1 NMatT0=    0 NMatD0=    1 NMtDS0=    0 NMtDT0=    0
 Petite list used in FoFCou.
 Harris En= -346.810413136896    
 JPrj=0 DoOrth=F DoCkMO=F.
 Leave Link  401 at Thu Sep 26 09:43:50 2019, MaxMem=   671088640 cpu:              59.1 elap:              29.6
 (Enter /shared/centos7/gaussian/g16/l502.exe)
 Integral symmetry usage will be decided dynamically.
 Closed shell SCF:
 Using DIIS extrapolation, IDIIS=  1040.
 NGot=   671088640 LenX=   670765141 LenY=   670608675
 Requested convergence on RMS density matrix=1.00D-08 within 900 cycles.
 Requested convergence on MAX density matrix=1.00D-06.
 Requested convergence on             energy=1.00D-06.
 No special actions if energy rises.
 Fock matrices will be formed incrementally for  20 cycles.
 Integral accuracy reduced to 1.0D-05 until final iterations.

 Cycle   1  Pass 0  IDiag  1:
 FoFJK:  IHMeth= 1 ICntrl=       0 DoSepK=F KAlg= 0 I1Cent=           0 FoldK=F
 IRaf= 960000000 NMat=       1 IRICut=       1 DoRegI=T DoRafI=F ISym2E= 0 IDoP0=0 IntGTp=1.
 FoFCou: FMM=F IPFlag=           0 FMFlag=      100000 FMFlg1=           0
         NFxFlg=           0 DoJE=F BraDBF=F KetDBF=F FulRan=T
         wScrn=  0.000000 ICntrl=         0 IOpCl=  0 I1Cent=           0 NGrid=           0
         NMat0=    1 NMatS0=      1 NMatT0=    0 NMatD0=    1 NMtDS0=    0 NMtDT0=    0
 Symmetry not used in FoFCou.
 E= -346.695781453779    
 DIIS: error= 1.80D-02 at cycle   1 NSaved=   1.
 NSaved= 1 IEnMin= 1 EnMin= -346.695781453779     IErMin= 1 ErrMin= 1.80D-02
 ErrMax= 1.80D-02  0.00D+00 EMaxC= 1.00D-01 BMatC= 2.86D-01 BMatP= 2.86D-01
 IDIUse=3 WtCom= 8.20D-01 WtEn= 1.80D-01
 Coeff-Com:  0.100D+01
 Coeff-En:   0.100D+01
 Coeff:      0.100D+01
 Gap=     0.356 Goal=   None    Shift=    0.000
 GapD=    0.356 DampG=1.000 DampE=0.500 DampFc=0.5000 IDamp=-1.
 Damping current iteration by 5.00D-01
 RMSDP=2.07D-03 MaxDP=1.04D-01              OVMax= 1.47D-01

 Cycle   2  Pass 0  IDiag  1:
 RMSU=  1.03D-03    CP:  1.00D+00
 E= -346.815558399230     Delta-E=       -0.119776945452 Rises=F Damp=T
 DIIS: error= 4.85D-03 at cycle   2 NSaved=   2.
 NSaved= 2 IEnMin= 2 EnMin= -346.815558399230     IErMin= 2 ErrMin= 4.85D-03
 ErrMax= 4.85D-03  0.00D+00 EMaxC= 1.00D-01 BMatC= 2.13D-02 BMatP= 2.86D-01
 IDIUse=3 WtCom= 9.51D-01 WtEn= 4.85D-02
 Coeff-Com: -0.125D+00 0.112D+01
 Coeff-En:   0.000D+00 0.100D+01
 Coeff:     -0.119D+00 0.112D+01
 Gap=     0.318 Goal=   None    Shift=    0.000
 RMSDP=4.81D-04 MaxDP=1.71D-02 DE=-1.20D-01 OVMax= 7.40D-02

 Cycle   3  Pass 0  IDiag  1:
 RMSU=  4.73D-04    CP:  1.00D+00  9.18D-01
 E= -346.924801781577     Delta-E=       -0.109243382347 Rises=F Damp=F
 DIIS: error= 2.87D-03 at cycle   3 NSaved=   3.
 NSaved= 3 IEnMin= 3 EnMin= -346.924801781577     IErMin= 3 ErrMin= 2.87D-03
 ErrMax= 2.87D-03  0.00D+00 EMaxC= 1.00D-01 BMatC= 3.84D-03 BMatP= 2.13D-02
 IDIUse=3 WtCom= 9.71D-01 WtEn= 2.87D-02
 Coeff-Com: -0.827D-01 0.316D+00 0.767D+00
 Coeff-En:   0.000D+00 0.000D+00 0.100D+01
 Coeff:     -0.803D-01 0.306D+00 0.774D+00
 Gap=     0.315 Goal=   None    Shift=    0.000
 RMSDP=1.69D-04 MaxDP=7.49D-03 DE=-1.09D-01 OVMax= 1.24D-02

 Cycle   4  Pass 0  IDiag  1:
 RMSU=  1.24D-04    CP:  1.00D+00  1.01D+00  8.81D-01
 E= -346.927011122991     Delta-E=       -0.002209341414 Rises=F Damp=F
 DIIS: error= 1.58D-03 at cycle   4 NSaved=   4.
 NSaved= 4 IEnMin= 4 EnMin= -346.927011122991     IErMin= 4 ErrMin= 1.58D-03
 ErrMax= 1.58D-03  0.00D+00 EMaxC= 1.00D-01 BMatC= 9.94D-04 BMatP= 3.84D-03
 IDIUse=3 WtCom= 9.84D-01 WtEn= 1.58D-02
 Coeff-Com: -0.280D-01 0.747D-01 0.381D+00 0.572D+00
 Coeff-En:   0.000D+00 0.000D+00 0.141D+00 0.859D+00
 Coeff:     -0.276D-01 0.735D-01 0.377D+00 0.577D+00
 Gap=     0.312 Goal=   None    Shift=    0.000
 RMSDP=6.52D-05 MaxDP=2.87D-03 DE=-2.21D-03 OVMax= 4.98D-03

 Cycle   5  Pass 0  IDiag  1:
 RMSU=  3.17D-05    CP:  1.00D+00  9.95D-01  9.29D-01  6.12D-01
 E= -346.927721609804     Delta-E=       -0.000710486813 Rises=F Damp=F
 DIIS: error= 2.23D-04 at cycle   5 NSaved=   5.
 NSaved= 5 IEnMin= 5 EnMin= -346.927721609804     IErMin= 5 ErrMin= 2.23D-04
 ErrMax= 2.23D-04  0.00D+00 EMaxC= 1.00D-01 BMatC= 3.36D-05 BMatP= 9.94D-04
 IDIUse=3 WtCom= 9.98D-01 WtEn= 2.23D-03
 Coeff-Com: -0.544D-02 0.102D-01 0.101D+00 0.229D+00 0.665D+00
 Coeff-En:   0.000D+00 0.000D+00 0.000D+00 0.000D+00 0.100D+01
 Coeff:     -0.543D-02 0.102D-01 0.101D+00 0.228D+00 0.666D+00
 Gap=     0.312 Goal=   None    Shift=    0.000
 RMSDP=1.19D-05 MaxDP=3.34D-04 DE=-7.10D-04 OVMax= 1.05D-03

 Cycle   6  Pass 0  IDiag  1:
 RMSU=  8.17D-06    CP:  1.00D+00  9.93D-01  9.35D-01  6.57D-01  8.26D-01
 E= -346.927744742546     Delta-E=       -0.000023132742 Rises=F Damp=F
 DIIS: error= 6.81D-05 at cycle   6 NSaved=   6.
 NSaved= 6 IEnMin= 6 EnMin= -346.927744742546     IErMin= 6 ErrMin= 6.81D-05
 ErrMax= 6.81D-05  0.00D+00 EMaxC= 1.00D-01 BMatC= 1.58D-06 BMatP= 3.36D-05
 IDIUse=1 WtCom= 1.00D+00 WtEn= 0.00D+00
 Coeff-Com: -0.382D-04-0.114D-02 0.122D-01 0.501D-01 0.218D+00 0.721D+00
 Coeff:     -0.382D-04-0.114D-02 0.122D-01 0.501D-01 0.218D+00 0.721D+00
 Gap=     0.312 Goal=   None    Shift=    0.000
 RMSDP=3.32D-06 MaxDP=1.33D-04 DE=-2.31D-05 OVMax= 4.52D-04

 Initial convergence to 1.0D-05 achieved.  Increase integral accuracy.
 Cycle   7  Pass 1  IDiag  1:
 E= -346.927732349252     Delta-E=        0.000012393293 Rises=F Damp=F
 DIIS: error= 2.63D-05 at cycle   1 NSaved=   1.
 NSaved= 1 IEnMin= 1 EnMin= -346.927732349252     IErMin= 1 ErrMin= 2.63D-05
 ErrMax= 2.63D-05  0.00D+00 EMaxC= 1.00D-01 BMatC= 6.79D-07 BMatP= 6.79D-07
 IDIUse=1 WtCom= 1.00D+00 WtEn= 0.00D+00
 Coeff-Com:  0.100D+01
 Coeff:      0.100D+01
 Gap=     0.312 Goal=   None    Shift=    0.000
 RMSDP=3.32D-06 MaxDP=1.33D-04 DE= 1.24D-05 OVMax= 2.88D-04

 Cycle   8  Pass 1  IDiag  1:
 RMSU=  6.67D-06    CP:  1.00D+00
 E= -346.927732561812     Delta-E=       -0.000000212559 Rises=F Damp=F
 DIIS: error= 3.00D-05 at cycle   2 NSaved=   2.
 NSaved= 2 IEnMin= 2 EnMin= -346.927732561812     IErMin= 1 ErrMin= 2.63D-05
 ErrMax= 3.00D-05  0.00D+00 EMaxC= 1.00D-01 BMatC= 2.61D-07 BMatP= 6.79D-07
 IDIUse=1 WtCom= 1.00D+00 WtEn= 0.00D+00
 Coeff-Com:  0.343D+00 0.657D+00
 Coeff:      0.343D+00 0.657D+00
 Gap=     0.312 Goal=   None    Shift=    0.000
 RMSDP=1.52D-06 MaxDP=5.61D-05 DE=-2.13D-07 OVMax= 2.73D-04

 Cycle   9  Pass 1  IDiag  1:
 RMSU=  1.48D-06    CP:  1.00D+00  9.46D-01
 E= -346.927732742327     Delta-E=       -0.000000180515 Rises=F Damp=F
 DIIS: error= 1.34D-05 at cycle   3 NSaved=   3.
 NSaved= 3 IEnMin= 3 EnMin= -346.927732742327     IErMin= 3 ErrMin= 1.34D-05
 ErrMax= 1.34D-05  0.00D+00 EMaxC= 1.00D-01 BMatC= 6.64D-08 BMatP= 2.61D-07
 IDIUse=1 WtCom= 1.00D+00 WtEn= 0.00D+00
 Coeff-Com: -0.622D-02 0.329D+00 0.678D+00
 Coeff:     -0.622D-02 0.329D+00 0.678D+00
 Gap=     0.312 Goal=   None    Shift=    0.000
 RMSDP=6.10D-07 MaxDP=2.06D-05 DE=-1.81D-07 OVMax= 9.62D-05

 Cycle  10  Pass 1  IDiag  1:
 RMSU=  2.55D-07    CP:  1.00D+00  9.91D-01  6.84D-01
 E= -346.927732796231     Delta-E=       -0.000000053904 Rises=F Damp=F
 DIIS: error= 2.14D-06 at cycle   4 NSaved=   4.
 NSaved= 4 IEnMin= 4 EnMin= -346.927732796231     IErMin= 4 ErrMin= 2.14D-06
 ErrMax= 2.14D-06  0.00D+00 EMaxC= 1.00D-01 BMatC= 3.39D-09 BMatP= 6.64D-08
 IDIUse=1 WtCom= 1.00D+00 WtEn= 0.00D+00
 Coeff-Com: -0.159D-01 0.142D+00 0.328D+00 0.547D+00
 Coeff:     -0.159D-01 0.142D+00 0.328D+00 0.547D+00
 Gap=     0.312 Goal=   None    Shift=    0.000
 RMSDP=1.10D-07 MaxDP=5.10D-06 DE=-5.39D-08 OVMax= 1.33D-05

 Cycle  11  Pass 1  IDiag  1:
 RMSU=  9.70D-08    CP:  1.00D+00  9.92D-01  7.14D-01  9.00D-01
 E= -346.927732798754     Delta-E=       -0.000000002523 Rises=F Damp=F
 DIIS: error= 3.43D-07 at cycle   5 NSaved=   5.
 NSaved= 5 IEnMin= 5 EnMin= -346.927732798754     IErMin= 5 ErrMin= 3.43D-07
 ErrMax= 3.43D-07  0.00D+00 EMaxC= 1.00D-01 BMatC= 1.25D-10 BMatP= 3.39D-09
 IDIUse=1 WtCom= 1.00D+00 WtEn= 0.00D+00
 Coeff-Com: -0.272D-02-0.105D-02-0.308D-02 0.131D+00 0.876D+00
 Coeff:     -0.272D-02-0.105D-02-0.308D-02 0.131D+00 0.876D+00
 Gap=     0.312 Goal=   None    Shift=    0.000
 RMSDP=3.89D-08 MaxDP=1.27D-06 DE=-2.52D-09 OVMax= 3.30D-06

 Cycle  12  Pass 1  IDiag  1:
 RMSU=  2.12D-08    CP:  1.00D+00  9.94D-01  7.10D-01  1.01D+00  1.06D+00
 E= -346.927732798877     Delta-E=       -0.000000000123 Rises=F Damp=F
 DIIS: error= 1.57D-07 at cycle   6 NSaved=   6.
 NSaved= 6 IEnMin= 6 EnMin= -346.927732798877     IErMin= 6 ErrMin= 1.57D-07
 ErrMax= 1.57D-07  0.00D+00 EMaxC= 1.00D-01 BMatC= 2.47D-11 BMatP= 1.25D-10
 IDIUse=1 WtCom= 1.00D+00 WtEn= 0.00D+00
 Coeff-Com:  0.578D-03-0.167D-01-0.406D-01-0.597D-02 0.374D+00 0.689D+00
 Coeff:      0.578D-03-0.167D-01-0.406D-01-0.597D-02 0.374D+00 0.689D+00
 Gap=     0.312 Goal=   None    Shift=    0.000
 RMSDP=1.38D-08 MaxDP=6.35D-07 DE=-1.23D-10 OVMax= 1.13D-06

 Cycle  13  Pass 1  IDiag  1:
 RMSU=  1.00D-08    CP:  1.00D+00  9.95D-01  7.11D-01  1.04D+00  1.13D+00
                    CP:  9.06D-01
 E= -346.927732798906     Delta-E=       -0.000000000030 Rises=F Damp=F
 DIIS: error= 6.23D-08 at cycle   7 NSaved=   7.
 NSaved= 7 IEnMin= 7 EnMin= -346.927732798906     IErMin= 7 ErrMin= 6.23D-08
 ErrMax= 6.23D-08  0.00D+00 EMaxC= 1.00D-01 BMatC= 2.18D-12 BMatP= 2.47D-11
 IDIUse=1 WtCom= 1.00D+00 WtEn= 0.00D+00
 Coeff-Com:  0.469D-03-0.651D-02-0.163D-01-0.131D-01 0.804D-01 0.296D+00
 Coeff-Com:  0.659D+00
 Coeff:      0.469D-03-0.651D-02-0.163D-01-0.131D-01 0.804D-01 0.296D+00
 Coeff:      0.659D+00
 Gap=     0.312 Goal=   None    Shift=    0.000
 RMSDP=3.88D-09 MaxDP=1.11D-07 DE=-2.97D-11 OVMax= 3.56D-07

 SCF Done:  E(RM062X) =  -346.927732799     A.U. after   13 cycles
            NFock= 13  Conv=0.39D-08     -V/T= 2.0063
 KE= 3.447636464694D+02 PE=-1.459833505411D+03 EE= 4.433632729291D+02
 Leave Link  502 at Thu Sep 26 09:53:54 2019, MaxMem=   671088640 cpu:            1208.0 elap:             604.1
 (Enter /shared/centos7/gaussian/g16/l801.exe)
 DoSCS=F DFT=T ScalE2(SS,OS)=  1.000000  1.000000
 Range of M.O.s used for correlation:     1   350
 NBasis=   350 NAE=    28 NBE=    28 NFC=     0 NFV=     0
 NROrb=    350 NOA=    28 NOB=    28 NVA=   322 NVB=   322
 Leave Link  801 at Thu Sep 26 09:53:55 2019, MaxMem=   671088640 cpu:               1.6 elap:               0.8
 (Enter /shared/centos7/gaussian/g16/l1101.exe)
 Using compressed storage, NAtomX=    17.
 Will process     18 centers per pass.
 Leave Link 1101 at Thu Sep 26 09:54:23 2019, MaxMem=   671088640 cpu:              55.5 elap:              27.8
 (Enter /shared/centos7/gaussian/g16/l1102.exe)
 Symmetrizing basis deriv contribution to polar:
 IMax=3 JMax=2 DiffMx= 0.00D+00
 Leave Link 1102 at Thu Sep 26 09:54:25 2019, MaxMem=   671088640 cpu:               4.3 elap:               2.2
 (Enter /shared/centos7/gaussian/g16/l1110.exe)
 Forming Gx(P) for the SCF density, NAtomX=    17.
 Integral derivatives from FoFJK, PRISM(SPDF).
 Do as many integral derivatives as possible in FoFJK.
 G2DrvN: MDV=     671087280.
 G2DrvN: will do    18 centers at a time, making    1 passes.
 Calling FoFCou, ICntrl=  3107 FMM=F I1Cent=   0 AccDes= 0.00D+00.
 FoFJK:  IHMeth= 1 ICntrl=    3107 DoSepK=F KAlg= 0 I1Cent=           0 FoldK=F
 IRaf=         0 NMat=       1 IRICut=       1 DoRegI=T DoRafI=F ISym2E= 0 IDoP0=0 IntGTp=1.
 FoFCou: FMM=F IPFlag=           0 FMFlag=      100000 FMFlg1=           0
         NFxFlg=           0 DoJE=F BraDBF=F KetDBF=F FulRan=T
         wScrn=  0.000000 ICntrl=      3107 IOpCl=  0 I1Cent=           0 NGrid=           0
         NMat0=    1 NMatS0=      1 NMatT0=    0 NMatD0=    1 NMtDS0=    0 NMtDT0=    0
 Symmetry not used in FoFCou.
 End of G2Drv F.D. properties file   721 does not exist.
 End of G2Drv F.D. properties file   722 does not exist.
 End of G2Drv F.D. properties file   788 does not exist.
 Leave Link 1110 at Thu Sep 26 10:13:35 2019, MaxMem=   671088640 cpu:            2299.5 elap:            1149.9
 (Enter /shared/centos7/gaussian/g16/l1002.exe)
 Minotr:  Closed shell wavefunction.
          IDoAtm=11111111111111111
          Direct CPHF calculation.
          Differentiating once with respect to nuclear coordinates.
          Requested convergence is 1.0D-08 RMS, and 1.0D-07 maximum.
          Secondary convergence is 1.0D-12 RMS, and 1.0D-12 maximum.
          NewPWx=T KeepS1=F KeepF1=F KeepIn=T MapXYZ=F SortEE=F KeepMc=T.
         5102 words used for storage of precomputed grid.
 Two-electron integrals replicated using symmetry.
          MDV=     671088640 using IRadAn=       1.
          Solving linear equations simultaneously, MaxMat=     380.
 FoF2E skips out because all densities are zero.
 CalDSu exits because no D1Ps are significant.
 FoFJK:  IHMeth= 1 ICntrl=       0 DoSepK=F KAlg= 0 I1Cent=           0 FoldK=F
 IRaf= 950000000 NMat=      51 IRICut=     127 DoRegI=T DoRafI=T ISym2E= 2 IDoP0=3 IntGTp=3.
 FoFCou: FMM=F IPFlag=           0 FMFlag=      100000 FMFlg1=           0
         NFxFlg=           0 DoJE=F BraDBF=F KetDBF=F FulRan=T
         wScrn=  0.000000 ICntrl=         0 IOpCl=  0 I1Cent=           0 NGrid=           0
         NMat0=   51 NMatS0=     51 NMatT0=    0 NMatD0=   51 NMtDS0=    0 NMtDT0=    0
 Integrals replicated using symmetry in FoFCou.
 Raff kept on since  92.47% of shell-pairs survive, threshold=   0.20 IRatSp=92.
          There are    54 degrees of freedom in the 1st order CPHF.  IDoFFX=6 NUNeed=     0.
     48 vectors produced by pass  0 Test12= 1.67D-14 1.85D-09 XBig12= 7.10D-02 6.26D-02.
 AX will form    48 AO Fock derivatives at one time.
     48 vectors produced by pass  1 Test12= 1.67D-14 1.85D-09 XBig12= 8.32D-03 3.05D-02.
     48 vectors produced by pass  2 Test12= 1.67D-14 1.85D-09 XBig12= 2.51D-04 2.82D-03.
     48 vectors produced by pass  3 Test12= 1.67D-14 1.85D-09 XBig12= 3.30D-06 2.20D-04.
     48 vectors produced by pass  4 Test12= 1.67D-14 1.85D-09 XBig12= 2.11D-08 1.40D-05.
     48 vectors produced by pass  5 Test12= 1.67D-14 1.85D-09 XBig12= 9.97D-11 9.60D-07.
     26 vectors produced by pass  6 Test12= 1.67D-14 1.85D-09 XBig12= 4.33D-13 6.05D-08.
      4 vectors produced by pass  7 Test12= 1.67D-14 1.85D-09 XBig12= 1.64D-15 3.62D-09.
 InvSVY:  IOpt=1 It=  1 EMax= 3.61D-16
 Solved reduced A of dimension   318 with    54 vectors.
 End of Minotr F.D. properties file   721 does not exist.
 End of Minotr F.D. properties file   722 does not exist.
 End of Minotr F.D. properties file   788 does not exist.
 Leave Link 1002 at Thu Sep 26 10:45:20 2019, MaxMem=   671088640 cpu:            3809.2 elap:            1904.8
 (Enter /shared/centos7/gaussian/g16/l601.exe)
 Copying SCF densities to generalized density rwf, IOpCl= 0 IROHF=0.

 **********************************************************************

            Population analysis using the SCF density.

 **********************************************************************

 Orbital symmetries:
       Occupied  (A) (A) (A) (A) (A) (A) (A) (A) (A) (A) (A) (A)
                 (A) (A) (A) (A) (A) (A) (A) (A) (A) (A) (A) (A)
                 (A) (A) (A) (A)
       Virtual   (A) (A) (A) (A) (A) (A) (A) (A) (A) (A) (A) (A)
                 (A) (A) (A) (A) (A) (A) (A) (A) (A) (A) (A) (A)
                 (A) (A) (A) (A) (A) (A) (A) (A) (A) (A) (A) (A)
                 (A) (A) (A) (A) (A) (A) (A) (A) (A) (A) (A) (A)
                 (A) (A) (A) (A) (A) (A) (A) (A) (A) (A) (A) (A)
                 (A) (A) (A) (A) (A) (A) (A) (A) (A) (A) (A) (A)
                 (A) (A) (A) (A) (A) (A) (A) (A) (A) (A) (A) (A)
                 (A) (A) (A) (A) (A) (A) (A) (A) (A) (A) (A) (A)
                 (A) (A) (A) (A) (A) (A) (A) (A) (A) (A) (A) (A)
                 (A) (A) (A) (A) (A) (A) (A) (A) (A) (A) (A) (A)
                 (A) (A) (A) (A) (A) (A) (A) (A) (A) (A) (A) (A)
                 (A) (A) (A) (A) (A) (A) (A) (A) (A) (A) (A) (A)
                 (A) (A) (A) (A) (A) (A) (A) (A) (A) (A) (A) (A)
                 (A) (A) (A) (A) (A) (A) (A) (A) (A) (A) (A) (A)
                 (A) (A) (A) (A) (A) (A) (A) (A) (A) (A) (A) (A)
                 (A) (A) (A) (A) (A) (A) (A) (A) (A) (A) (A) (A)
                 (A) (A) (A) (A) (A) (A) (A) (A) (A) (A) (A) (A)
                 (A) (A) (A) (A) (A) (A) (A) (A) (A) (A) (A) (A)
                 (A) (A) (A) (A) (A) (A) (A) (A) (A) (A) (A) (A)
                 (A) (A) (A) (A) (A) (A) (A) (A) (A) (A) (A) (A)
                 (A) (A) (A) (A) (A) (A) (A) (A) (A) (A) (A) (A)
                 (A) (A) (A) (A) (A) (A) (A) (A) (A) (A) (A) (A)
                 (A) (A) (A) (A) (A) (A) (A) (A) (A) (A) (A) (A)
                 (A) (A) (A) (A) (A) (A) (A) (A) (A) (A) (A) (A)
                 (A) (A) (A) (A) (A) (A) (A) (A) (A) (A) (A) (A)
                 (A) (A) (A) (A) (A) (A) (A) (A) (A) (A) (A) (A)
                 (A) (A) (A) (A) (A) (A) (A) (A) (A) (A)
 The electronic state is 1-A.
 Alpha  occ. eigenvalues --  -19.65501 -19.63862 -10.58329 -10.58163 -10.57982
 Alpha  occ. eigenvalues --  -10.52569 -10.51937  -1.18205  -1.16272  -0.88556
 Alpha  occ. eigenvalues --   -0.84059  -0.76939  -0.70034  -0.63252  -0.62632
 Alpha  occ. eigenvalues --   -0.56269  -0.53333  -0.52920  -0.49645  -0.46861
 Alpha  occ. eigenvalues --   -0.46180  -0.44139  -0.42476  -0.41990  -0.41251
 Alpha  occ. eigenvalues --   -0.38175  -0.35849  -0.27149
 Alpha virt. eigenvalues --    0.04084   0.08557   0.08585   0.10168   0.11980
 Alpha virt. eigenvalues --    0.12651   0.14176   0.14241   0.15646   0.16220
 Alpha virt. eigenvalues --    0.17029   0.18495   0.23183   0.23892   0.25059
 Alpha virt. eigenvalues --    0.28384   0.30484   0.31985   0.33035   0.33591
 Alpha virt. eigenvalues --    0.35791   0.35947   0.36583   0.37674   0.39957
 Alpha virt. eigenvalues --    0.41022   0.42028   0.43071   0.45761   0.47319
 Alpha virt. eigenvalues --    0.48510   0.49117   0.49533   0.50679   0.50951
 Alpha virt. eigenvalues --    0.51884   0.52363   0.53314   0.53888   0.54898
 Alpha virt. eigenvalues --    0.55028   0.57188   0.60167   0.62195   0.64738
 Alpha virt. eigenvalues --    0.66162   0.67611   0.70221   0.71523   0.73540
 Alpha virt. eigenvalues --    0.75593   0.77243   0.78429   0.82392   0.83371
 Alpha virt. eigenvalues --    0.85531   0.86598   0.89668   0.91602   0.92681
 Alpha virt. eigenvalues --    0.93430   0.94438   0.96276   0.98591   1.00764
 Alpha virt. eigenvalues --    1.00998   1.03130   1.05978   1.07009   1.08425
 Alpha virt. eigenvalues --    1.09827   1.11058   1.12112   1.13146   1.14453
 Alpha virt. eigenvalues --    1.15582   1.18748   1.19855   1.20534   1.21322
 Alpha virt. eigenvalues --    1.24007   1.25097   1.26445   1.27802   1.29264
 Alpha virt. eigenvalues --    1.29627   1.30418   1.33191   1.34287   1.35582
 Alpha virt. eigenvalues --    1.36073   1.37826   1.39139   1.39906   1.42701
 Alpha virt. eigenvalues --    1.43537   1.47232   1.49547   1.51285   1.52502
 Alpha virt. eigenvalues --    1.55161   1.55297   1.57705   1.60687   1.62382
 Alpha virt. eigenvalues --    1.63143   1.66209   1.70042   1.74095   1.84537
 Alpha virt. eigenvalues --    1.87998   1.96266   2.01186   2.05767   2.06623
 Alpha virt. eigenvalues --    2.07918   2.11381   2.14249   2.19215   2.20804
 Alpha virt. eigenvalues --    2.22301   2.28181   2.29190   2.32398   2.33396
 Alpha virt. eigenvalues --    2.34374   2.38931   2.40686   2.43686   2.47221
 Alpha virt. eigenvalues --    2.49034   2.51737   2.54295   2.58342   2.59907
 Alpha virt. eigenvalues --    2.60301   2.65276   2.65528   2.68926   2.69862
 Alpha virt. eigenvalues --    2.72735   2.73922   2.75517   2.78657   2.80351
 Alpha virt. eigenvalues --    2.82360   2.84523   2.86015   2.86806   2.89019
 Alpha virt. eigenvalues --    2.89231   2.91409   2.92109   2.94906   2.96617
 Alpha virt. eigenvalues --    2.96741   2.99136   3.00106   3.01954   3.02542
 Alpha virt. eigenvalues --    3.03384   3.03829   3.05196   3.07203   3.08668
 Alpha virt. eigenvalues --    3.09378   3.11661   3.11957   3.13570   3.14353
 Alpha virt. eigenvalues --    3.17077   3.17441   3.20402   3.20939   3.23157
 Alpha virt. eigenvalues --    3.24457   3.26819   3.28142   3.28856   3.31390
 Alpha virt. eigenvalues --    3.31668   3.32097   3.34056   3.36141   3.37310
 Alpha virt. eigenvalues --    3.38407   3.40043   3.41715   3.43640   3.44352
 Alpha virt. eigenvalues --    3.46099   3.48275   3.48511   3.49671   3.51591
 Alpha virt. eigenvalues --    3.52936   3.55688   3.56567   3.58400   3.59814
 Alpha virt. eigenvalues --    3.64057   3.66158   3.67763   3.69198   3.71172
 Alpha virt. eigenvalues --    3.73246   3.74839   3.76491   3.77868   3.79464
 Alpha virt. eigenvalues --    3.80645   3.82417   3.85696   3.86403   3.87232
 Alpha virt. eigenvalues --    3.88294   3.89690   3.91233   3.93292   3.94579
 Alpha virt. eigenvalues --    3.96830   3.98960   3.99169   4.01650   4.01893
 Alpha virt. eigenvalues --    4.02080   4.04119   4.05011   4.07132   4.09185
 Alpha virt. eigenvalues --    4.10618   4.11801   4.13939   4.14516   4.16238
 Alpha virt. eigenvalues --    4.16830   4.19327   4.22880   4.29134   4.31080
 Alpha virt. eigenvalues --    4.33911   4.34686   4.36034   4.39189   4.42651
 Alpha virt. eigenvalues --    4.44983   4.46666   4.48529   4.52022   4.56720
 Alpha virt. eigenvalues --    4.59356   4.61569   4.63103   4.65832   4.70257
 Alpha virt. eigenvalues --    4.71272   4.73600   4.75218   4.77581   4.80378
 Alpha virt. eigenvalues --    4.83804   4.85345   4.91556   4.93326   4.96316
 Alpha virt. eigenvalues --    4.97618   4.98920   5.01013   5.03426   5.07513
 Alpha virt. eigenvalues --    5.09190   5.09783   5.11686   5.13752   5.15020
 Alpha virt. eigenvalues --    5.20544   5.21534   5.26215   5.27277   5.28227
 Alpha virt. eigenvalues --    5.29975   5.34890   5.36839   5.39177   5.47571
 Alpha virt. eigenvalues --    5.54361   5.55022   5.63292   5.69398   5.74003
 Alpha virt. eigenvalues --    5.77934   5.79502   5.79842   5.80565   5.85947
 Alpha virt. eigenvalues --    5.93744   6.04515   6.07769   6.18740   6.22284
 Alpha virt. eigenvalues --    6.34119   6.48900   6.58984   6.59378   6.69616
 Alpha virt. eigenvalues --    6.73058   6.79705   6.81154   6.84046   6.98381
 Alpha virt. eigenvalues --    7.09040   7.19748   7.29593   7.37359   7.42164
 Alpha virt. eigenvalues --   10.09731  10.90769  11.79865  12.03882  13.10170
 Alpha virt. eigenvalues --   13.44529  14.34842
          Condensed to atoms (all electrons):
               1          2          3          4          5          6
     1  O    7.835217   0.003161   0.275369  -0.059731  -0.041107   0.367930
     2  O    0.003161   7.833706   0.002346  -0.032779   0.001062  -0.081071
     3  C    0.275369   0.002346   4.958823   0.285453   0.312454  -0.062584
     4  C   -0.059731  -0.032779   0.285453   5.167101  -0.043775   0.011008
     5  C   -0.041107   0.001062   0.312454  -0.043775   4.968636   0.001690
     6  C    0.367930  -0.081071  -0.062584   0.011008   0.001690   4.976374
     7  C   -0.071797   0.314546  -0.019427   0.004116   0.001927   0.494335
     8  H   -0.043352   0.009370   0.415715  -0.075841  -0.032021  -0.011207
     9  H   -0.002734  -0.000736  -0.041202   0.385948   0.002001   0.003738
    10  H    0.007077   0.025818  -0.034663   0.366925   0.006195  -0.015022
    11  H    0.003733   0.000512  -0.036142   0.389552  -0.009524   0.000022
    12  H    0.001716  -0.000052  -0.045471  -0.012718   0.402532   0.000091
    13  H    0.004265   0.000008  -0.040177   0.010688   0.396232   0.000142
    14  H    0.003623  -0.000040  -0.046528  -0.001713   0.401820  -0.000144
    15  H   -0.036373   0.003012   0.006811   0.001250  -0.000752   0.441250
    16  H    0.004805  -0.045146   0.000007  -0.000425   0.000087  -0.066039
    17  H   -0.000532   0.306502   0.000292   0.000302  -0.000075   0.010789
               7          8          9         10         11         12
     1  O   -0.071797  -0.043352  -0.002734   0.007077   0.003733   0.001716
     2  O    0.314546   0.009370  -0.000736   0.025818   0.000512  -0.000052
     3  C   -0.019427   0.415715  -0.041202  -0.034663  -0.036142  -0.045471
     4  C    0.004116  -0.075841   0.385948   0.366925   0.389552  -0.012718
     5  C    0.001927  -0.032021   0.002001   0.006195  -0.009524   0.402532
     6  C    0.494335  -0.011207   0.003738  -0.015022   0.000022   0.000091
     7  C    5.007016   0.003319  -0.000459  -0.007694  -0.000005  -0.000035
     8  H    0.003319   0.595510   0.007366  -0.009733   0.004907   0.008836
     9  H   -0.000459   0.007366   0.567237  -0.032275  -0.026476   0.001910
    10  H   -0.007694  -0.009733  -0.032275   0.585015  -0.025224   0.000255
    11  H   -0.000005   0.004907  -0.026476  -0.025224   0.585925   0.000952
    12  H   -0.000035   0.008836   0.001910   0.000255   0.000952   0.605550
    13  H   -0.000022  -0.005633  -0.000572  -0.000773   0.000377  -0.031802
    14  H   -0.000056  -0.004882   0.000310   0.000053  -0.001315  -0.035563
    15  H   -0.089568  -0.000674  -0.000408  -0.000265   0.000016  -0.000009
    16  H    0.414348  -0.000136  -0.000245   0.000847  -0.000008  -0.000010
    17  H   -0.033461   0.000804   0.000142   0.000042  -0.000001   0.000010
              13         14         15         16         17
     1  O    0.004265   0.003623  -0.036373   0.004805  -0.000532
     2  O    0.000008  -0.000040   0.003012  -0.045146   0.306502
     3  C   -0.040177  -0.046528   0.006811   0.000007   0.000292
     4  C    0.010688  -0.001713   0.001250  -0.000425   0.000302
     5  C    0.396232   0.401820  -0.000752   0.000087  -0.000075
     6  C    0.000142  -0.000144   0.441250  -0.066039   0.010789
     7  C   -0.000022  -0.000056  -0.089568   0.414348  -0.033461
     8  H   -0.005633  -0.004882  -0.000674  -0.000136   0.000804
     9  H   -0.000572   0.000310  -0.000408  -0.000245   0.000142
    10  H   -0.000773   0.000053  -0.000265   0.000847   0.000042
    11  H    0.000377  -0.001315   0.000016  -0.000008  -0.000001
    12  H   -0.031802  -0.035563  -0.000009  -0.000010   0.000010
    13  H    0.574601  -0.026769   0.000011  -0.000001  -0.000004
    14  H   -0.026769   0.603359   0.000026  -0.000008   0.000004
    15  H    0.000011   0.000026   0.538244  -0.007968  -0.000475
    16  H   -0.000001  -0.000008  -0.007968   0.602021  -0.016006
    17  H   -0.000004   0.000004  -0.000475  -0.016006   0.468995
 Mulliken charges:
               1
     1  O   -0.251271
     2  O   -0.340221
     3  C    0.068923
     4  C   -0.395363
     5  C   -0.367380
     6  C   -0.071302
     7  C   -0.017084
     8  H    0.137650
     9  H    0.136453
    10  H    0.133422
    11  H    0.112696
    12  H    0.103810
    13  H    0.119427
    14  H    0.107821
    15  H    0.145873
    16  H    0.113875
    17  H    0.262670
 Sum of Mulliken charges =   0.00000
 Mulliken charges with hydrogens summed into heavy atoms:
               1
     1  O   -0.251271
     2  O   -0.077550
     3  C    0.206573
     4  C   -0.012791
     5  C   -0.036323
     6  C    0.074571
     7  C    0.096791
 APT charges:
               1
     1  O   -0.191239
     2  O   -0.845207
     3  C    0.020513
     4  C   -1.048192
     5  C   -1.317180
     6  C   -0.544213
     7  C   -0.353278
     8  H    0.276945
     9  H    0.293978
    10  H    0.282551
    11  H    0.440632
    12  H    0.390886
    13  H    0.374313
    14  H    0.406184
    15  H    0.513430
    16  H    0.511250
    17  H    0.788627
 Sum of APT charges =   0.00000
 APT charges with hydrogens summed into heavy atoms:
               1
     1  O   -0.191239
     2  O   -0.056580
     3  C    0.297458
     4  C   -0.031031
     5  C   -0.145798
     6  C   -0.030783
     7  C    0.157973
 Electronic spatial extent (au):  <R**2>=            831.6644
 Charge=              0.0000 electrons
 Dipole moment (field-independent basis, Debye):
    X=             -2.0265    Y=             -1.3177    Z=              0.3324  Tot=              2.4400
 Quadrupole moment (field-independent basis, Debye-Ang):
   XX=            -35.1339   YY=            -43.5138   ZZ=            -45.4998
   XY=              1.3016   XZ=             -0.8993   YZ=              1.3806
 Traceless Quadrupole moment (field-independent basis, Debye-Ang):
   XX=              6.2486   YY=             -2.1313   ZZ=             -4.1173
   XY=              1.3016   XZ=             -0.8993   YZ=              1.3806
 Octapole moment (field-independent basis, Debye-Ang**2):
  XXX=            -35.2401  YYY=             -2.8454  ZZZ=             -3.0745  XYY=            -11.6422
  XXY=            -11.1564  XXZ=             -2.1569  XZZ=              0.1616  YZZ=              0.7996
  YYZ=             -0.6036  XYZ=             -3.7486
 Hexadecapole moment (field-independent basis, Debye-Ang**3):
 XXXX=           -611.0566 YYYY=           -249.9769 ZZZZ=           -158.2983 XXXY=             43.1731
 XXXZ=             12.5656 YYYX=             16.8337 YYYZ=             13.2478 ZZZX=              4.0897
 ZZZY=              5.5259 XXYY=           -136.5645 XXZZ=           -143.6057 YYZZ=            -68.4058
 XXYZ=             11.3299 YYXZ=             -0.2225 ZZXY=              4.4137
 N-N= 3.247788532138D+02 E-N=-1.459833518685D+03  KE= 3.447636464694D+02
  Exact polarizability:   0.000   0.000   0.000   0.000   0.000   0.000
 Approx polarizability:  86.974   7.317  83.166   1.751   5.990  70.116
 No NMR shielding tensors so no spin-rotation constants.
 Leave Link  601 at Thu Sep 26 10:45:48 2019, MaxMem=   671088640 cpu:              56.2 elap:              28.1
 (Enter /shared/centos7/gaussian/g16/l701.exe)
 SCFChk:  SCF convergence  3.88D-09 required  1.00D-08
 ... and contract with generalized density number  0.
 Compute integral second derivatives.
 Entering OneElI...
 Calculate overlap and kinetic energy integrals
    NBasis = 395  MinDer = 2  MaxDer = 2
 Requested accuracy = 0.1000D-12
 PrmmSu-InSpLW:  IPartL=    0 NPrtUS=   20 NPrtUL=    1 DoSpLW=F IThBeg=    0 IThEnd=   19 NThAct=   20.
 PrsmSu:  NPrtUS=  20 ThrOK=T IAlg=1 NPAlg=1 LenDen=           0 ISkipM=0 DoSpLW=F IThBeg=    0 IThEnd=   19.
 Prism:   IPart=     0 DynPar=F LinDyn=F Incr=           4.
 PRISM was handed    33310086 working-precision words and  8470 shell-pairs
 PRISM was handed    33310086 working-precision words and  8470 shell-pairs
 PRISM was handed    33310086 working-precision words and  8470 shell-pairs
 PRISM was handed    33310086 working-precision words and  8470 shell-pairs
 PRISM was handed    33310086 working-precision words and  8470 shell-pairs
 PRISM was handed    33310086 working-precision words and  8470 shell-pairs
 PRISM was handed    33310086 working-precision words and  8470 shell-pairs
 PRISM was handed    33310086 working-precision words and  8470 shell-pairs
 PRISM was handed    33310086 working-precision words and  8470 shell-pairs
 PRISM was handed    33310086 working-precision words and  8470 shell-pairs
 PRISM was handed    33310086 working-precision words and  8470 shell-pairs
 PRISM was handed    33310086 working-precision words and  8470 shell-pairs
 PRISM was handed    33310086 working-precision words and  8470 shell-pairs
 IPart=  0 NShTot=         471 NBatch=          84 AvBLen=         5.6
 PRISM was handed    33310086 working-precision words and  8470 shell-pairs
 IPart=  1 NShTot=         464 NBatch=          79 AvBLen=         5.9
 PRISM was handed    33310086 working-precision words and  8470 shell-pairs
 IPart= 17 NShTot=         401 NBatch=          39 AvBLen=        10.3
 PRISM was handed    33310086 working-precision words and  8470 shell-pairs
 IPart= 15 NShTot=         402 NBatch=          39 AvBLen=        10.3
 IPart=  2 NShTot=         457 NBatch=          74 AvBLen=         6.2
 IPart=  5 NShTot=         439 NBatch=          62 AvBLen=         7.1
 PRISM was handed    33310086 working-precision words and  8470 shell-pairs
 PRISM was handed    33310086 working-precision words and  8470 shell-pairs
 PRISM was handed    33310086 working-precision words and  8470 shell-pairs
 IPart= 13 NShTot=         405 NBatch=          40 AvBLen=        10.1
 PRISM was handed    33310086 working-precision words and  8470 shell-pairs
 IPart= 11 NShTot=         412 NBatch=          46 AvBLen=         9.0
 IPart=  6 NShTot=         437 NBatch=          60 AvBLen=         7.3
 IPart= 10 NShTot=         414 NBatch=          48 AvBLen=         8.6
 IPart=  9 NShTot=         414 NBatch=          48 AvBLen=         8.6
 IPart= 16 NShTot=         402 NBatch=          39 AvBLen=        10.3
 IPart=  4 NShTot=         445 NBatch=          64 AvBLen=         7.0
 IPart=  7 NShTot=         428 NBatch=          53 AvBLen=         8.1
 IPart= 19 NShTot=         398 NBatch=          38 AvBLen=        10.5
 IPart=  8 NShTot=         417 NBatch=          48 AvBLen=         8.7
 IPart= 14 NShTot=         405 NBatch=          40 AvBLen=        10.1
 IPart= 12 NShTot=         408 NBatch=          42 AvBLen=         9.7
 IPart= 18 NShTot=         399 NBatch=          39 AvBLen=        10.2
 IPart=  3 NShTot=         452 NBatch=          70 AvBLen=         6.5
 PrSmSu:  NxtVal=             81.
 Entering OneElI...
 Calculate potential energy integrals
    NBasis = 395  MinDer = 2  MaxDer = 2
 Requested accuracy = 0.1000D-12
 PrmmSu-InSpLW:  IPartL=    0 NPrtUS=   20 NPrtUL=    1 DoSpLW=F IThBeg=    0 IThEnd=   19 NThAct=   20.
 PrsmSu:  NPrtUS=  20 ThrOK=T IAlg=1 NPAlg=1 LenDen=           0 ISkipM=0 DoSpLW=F IThBeg=    0 IThEnd=   19.
 Prism:   IPart=     0 DynPar=F LinDyn=F Incr=          66.
 PRISM was handed    33352579 working-precision words and  7804 shell-pairs
 PRISM was handed    33352579 working-precision words and  7804 shell-pairs
 PRISM was handed    33352579 working-precision words and  7804 shell-pairs
 PRISM was handed    33352579 working-precision words and  7804 shell-pairs
 PRISM was handed    33352579 working-precision words and  7804 shell-pairs
 PRISM was handed    33352579 working-precision words and  7804 shell-pairs
 PRISM was handed    33352579 working-precision words and  7804 shell-pairs
 PRISM was handed    33352579 working-precision words and  7804 shell-pairs
 PRISM was handed    33352579 working-precision words and  7804 shell-pairs
 PRISM was handed    33352579 working-precision words and  7804 shell-pairs
 PRISM was handed    33352579 working-precision words and  7804 shell-pairs
 PRISM was handed    33352579 working-precision words and  7804 shell-pairs
 PRISM was handed    33352579 working-precision words and  7804 shell-pairs
 PRISM was handed    33352579 working-precision words and  7804 shell-pairs
 PRISM was handed    33352579 working-precision words and  7804 shell-pairs
 PRISM was handed    33352579 working-precision words and  7804 shell-pairs
 PRISM was handed    33352579 working-precision words and  7804 shell-pairs
 PRISM was handed    33352579 working-precision words and  7804 shell-pairs
 PRISM was handed    33352579 working-precision words and  7804 shell-pairs
 PRISM was handed    33352579 working-precision words and  7804 shell-pairs
 IPart= 17 NShTot=        6324 NBatch=         372 AvBLen=        17.0
 IPart=  0 NShTot=        7344 NBatch=         432 AvBLen=        17.0
 IPart= 13 NShTot=        6392 NBatch=         376 AvBLen=        17.0
 IPart= 11 NShTot=        6477 NBatch=         381 AvBLen=        17.0
 IPart= 15 NShTot=        6375 NBatch=         375 AvBLen=        17.0
 IPart=  4 NShTot=        6851 NBatch=         403 AvBLen=        17.0
 IPart=  2 NShTot=        7106 NBatch=         418 AvBLen=        17.0
 IPart=  9 NShTot=        6562 NBatch=         386 AvBLen=        17.0
 IPart= 19 NShTot=        6222 NBatch=         366 AvBLen=        17.0
 IPart= 18 NShTot=        6273 NBatch=         369 AvBLen=        17.0
 IPart= 12 NShTot=        6443 NBatch=         379 AvBLen=        17.0
 IPart= 16 NShTot=        6358 NBatch=         374 AvBLen=        17.0
 IPart= 10 NShTot=        6528 NBatch=         384 AvBLen=        17.0
 IPart=  3 NShTot=        6987 NBatch=         411 AvBLen=        17.0
 IPart=  1 NShTot=        7259 NBatch=         427 AvBLen=        17.0
 IPart=  8 NShTot=        6613 NBatch=         389 AvBLen=        17.0
 IPart= 14 NShTot=        6375 NBatch=         375 AvBLen=        17.0
 IPart=  6 NShTot=        6766 NBatch=         398 AvBLen=        17.0
 IPart=  5 NShTot=        6783 NBatch=         399 AvBLen=        17.0
 IPart=  7 NShTot=        6630 NBatch=         390 AvBLen=        17.0
 PrSmSu:  NxtVal=           1321.
 Polarizability after L701:
                1             2             3 
      1  0.000000D+00
      2  0.000000D+00  0.000000D+00
      3  0.000000D+00  0.000000D+00  0.000000D+00
 Dipole Derivatives after L701:
                 1             2             3             4             5 
      1  -0.247882D+00  0.289028D-01 -0.432878D-01 -0.144066D+01 -0.664970D+00
      2   0.319513D+00 -0.986401D-01 -0.409193D-01 -0.682177D+00 -0.753380D+00
      3  -0.172417D-02  0.183255D-01 -0.227196D+00 -0.262504D+00 -0.828750D-01
                 6             7             8             9            10 
      1  -0.130924D-01  0.434014D+00  0.103158D+00  0.180568D+00 -0.853602D+00
      2   0.172221D-01  0.395793D-01 -0.109150D+00 -0.334520D+00 -0.119302D-01
      3  -0.341580D+00 -0.242593D+00 -0.244823D+00 -0.263324D+00  0.479380D-01
                11            12            13            14            15 
      1   0.295414D+00 -0.357283D+00 -0.192858D+01 -0.880207D-01  0.245506D+00
      2  -0.120795D+01  0.386330D+00  0.304813D-02 -0.964168D+00 -0.296452D-01
      3   0.192472D+00 -0.108302D+01  0.223415D+00 -0.100068D-01 -0.105879D+01
                16            17            18            19            20 
      1  -0.781503D+00 -0.438421D-01  0.275655D+00 -0.719213D+00  0.613141D+00
      2   0.199841D-01 -0.663514D+00 -0.424640D+00  0.339214D-02 -0.313264D+00
      3   0.113434D+00 -0.318254D+00 -0.187623D+00  0.158341D+00 -0.216764D+00
                21            22            23            24            25 
      1   0.293890D+00  0.103357D+00 -0.901147D-01 -0.146721D+00  0.687750D-01
      2  -0.112469D+00  0.692954D-01  0.260348D+00  0.128604D+00  0.439166D-01
      3  -0.273556D-01  0.140543D+00  0.156034D+00  0.467129D+00 -0.259979D+00
                26            27            28            29            30 
      1   0.301497D-01  0.992483D-01  0.143484D+00  0.332117D-01  0.350114D-02
      2   0.864697D-01 -0.941505D-01  0.463791D+00  0.613295D+00  0.130272D+00
      3   0.327350D+00  0.726690D+00 -0.175745D+00 -0.144987D+00  0.908747D-01
                31            32            33            34            35 
      1   0.705105D+00 -0.327955D+00  0.168798D+00  0.786532D+00  0.108512D+00
      2  -0.508297D+00  0.396441D+00 -0.174890D+00  0.852806D-01  0.106125D+00
      3   0.381987D+00 -0.241154D+00  0.220350D+00  0.106610D+00  0.312384D-01
                36            37            38            39            40 
      1   0.861784D+00  0.266859D+00  0.714701D+00 -0.584640D+00  0.507390D+00
      2   0.961022D-01  0.720909D-01  0.421395D+00 -0.268920D+00 -0.139162D+00
      3   0.280002D+00 -0.690640D-01 -0.395408D+00  0.434684D+00 -0.158069D+00
                41            42            43            44            45 
      1  -0.784134D+00 -0.453217D+00  0.366211D+00 -0.468997D+00 -0.249240D+00
      2   0.416432D+00  0.181947D+00 -0.251567D+00  0.917909D+00  0.426827D+00
      3   0.339310D+00  0.294729D+00 -0.101277D+00  0.331282D+00  0.256170D+00
                46            47            48            49            50 
      1   0.125519D+01 -0.209496D+00 -0.305806D+00  0.133453D+01  0.750339D+00
      2  -0.108763D+00  0.171917D+00  0.760762D-01  0.582005D+00  0.719736D+00
      3  -0.118813D+00  0.624018D-01  0.106647D+00  0.217500D+00  0.195858D+00
                51 
      1   0.243374D-01
      2   0.367730D-01
      3   0.311618D+00
 Hessian after L701:
                1             2             3             4             5 
      1  0.571931D+01
      2  0.294269D+01  0.117080D+02
      3  0.213397D+01 -0.815469D+00  0.184004D+02
      4  0.133664D+00  0.537636D+00  0.187529D+00  0.103973D+02
      5  0.564527D+00  0.253244D+00  0.250167D+00 -0.247722D+01  0.676816D+01
      6  0.190846D+00  0.243899D+00 -0.318885D+00 -0.342956D+00 -0.387523D+01
      7 -0.631485D+01 -0.352521D+01 -0.661798D+00  0.281105D+00  0.260064D+00
      8 -0.327636D+01 -0.248911D+01  0.118428D+01  0.297651D+00 -0.270393D+00
      9 -0.656734D+00  0.110836D+01 -0.887105D+01  0.235791D+00  0.996318D-01
     10 -0.129150D+00 -0.265186D-01  0.983503D-01  0.621943D-01 -0.450143D-01
     11 -0.274780D-01  0.104878D+00 -0.569035D+00  0.727424D-01 -0.160661D+00
     12  0.749544D-01 -0.392901D+00  0.241774D+00  0.119388D+00 -0.332843D-01
     13  0.269683D+00 -0.206194D+00 -0.203571D+00  0.176213D+00  0.820071D-01
     14 -0.268622D+00 -0.146301D+00  0.398976D-01  0.826726D-01 -0.936577D-01
     15 -0.192637D+00  0.331013D-01 -0.125695D+00  0.187986D-01  0.401000D-02
     16 -0.148783D-01 -0.121849D+00 -0.199214D+01  0.201143D+00  0.243934D+00
     17 -0.455527D+00 -0.983111D+01  0.332069D-01  0.875640D-02 -0.456410D+00
     18 -0.192687D+01  0.627250D-02 -0.982238D+01  0.101209D+00 -0.359017D+00
     19  0.593098D-01  0.221495D+00  0.344532D+00 -0.866696D+01 -0.114013D+01
     20  0.370536D+00  0.258809D+00 -0.609543D-01 -0.966157D+00 -0.162625D+01
     21  0.317865D+00 -0.298056D-01  0.283596D+00 -0.630732D+00  0.379178D+01
     22  0.189186D+00  0.201607D+00  0.132879D+00  0.274353D-01  0.317049D-01
     23  0.150037D+00 -0.271762D+00 -0.503591D-01 -0.394092D-02 -0.121060D+00
     24  0.117816D+00 -0.707961D-01  0.335734D+00 -0.650504D-01 -0.149428D-01
     25 -0.498367D-01  0.274527D-01 -0.333471D-01 -0.753581D-02  0.269509D-02
     26  0.114606D-01  0.237584D-01 -0.213110D-01  0.866133D-02 -0.222055D-01
     27 -0.211089D-01 -0.893573D-01  0.378540D-02  0.440805D-01  0.121296D-01
     28 -0.590600D-01  0.560515D-01 -0.799159D-02 -0.110773D-01 -0.435727D-01
     29  0.417477D-01  0.209128D+00 -0.205507D-01 -0.124427D+00 -0.136242D+00
     30 -0.333482D-02 -0.248743D-01 -0.689583D-01  0.147879D+00 -0.407947D-01
     31  0.313204D-02 -0.948818D-01  0.373527D-01  0.422411D-01 -0.146199D-01
     32 -0.722187D-01  0.907916D-01 -0.552204D-01 -0.187330D-01 -0.139394D-01
     33  0.309668D-01 -0.611931D-01 -0.241033D-01  0.327729D-01 -0.710704D-02
     34  0.979357D-01 -0.600105D-01 -0.548091D-02  0.190470D-01  0.746067D-02
     35 -0.445367D-01 -0.323181D-01  0.325971D-02  0.568075D-02 -0.779646D-02
     36  0.320359D-01 -0.104101D-01 -0.454163D-01  0.138635D-01  0.347661D-02
     37  0.875194D-01 -0.539701D-01 -0.355600D-01  0.172252D-01  0.144058D-01
     38  0.427375D-02 -0.696046D-01 -0.851573D-02  0.219451D-01  0.455211D-04
     39 -0.839483D-01  0.262224D-01 -0.621809D-01 -0.120811D-01 -0.711608D-02
     40  0.357985D-01 -0.973741D-01 -0.483909D-01  0.284353D-01 -0.868920D-03
     41 -0.879351D-01  0.538227D-01  0.516773D-01 -0.125512D-01 -0.103060D-01
     42 -0.496999D-01  0.577827D-01 -0.146467D-01 -0.112479D-01  0.127983D-02
     43 -0.248051D+00  0.121590D+00  0.749092D-01 -0.385090D-01  0.213052D-03
     44  0.875024D-01  0.167276D+00  0.389453D-01  0.130763D-01  0.116341D+00
     45  0.612395D-01  0.226484D-01  0.136308D+00  0.843996D-02  0.762430D-01
     46  0.189715D+00  0.475430D-01 -0.282121D-01  0.178062D+00  0.152092D+00
     47  0.232303D-01 -0.446976D-01 -0.834418D-02  0.115549D+00 -0.556714D-01
     48 -0.337028D-01 -0.110935D-01 -0.387787D-01  0.669436D-01 -0.147762D+00
     49  0.305787D-01  0.299437D-01  0.697006D-02 -0.283993D+01  0.236232D+01
     50  0.366771D-01  0.151652D-01  0.833028D-02  0.243866D+01 -0.416319D+01
     51  0.833553D-02  0.761348D-02 -0.946552D-02  0.853723D-01  0.246535D+00
                6             7             8             9            10 
      6  0.134025D+02
      7  0.977808D-01  0.181156D+02
      8  0.648261D-01  0.235448D+01  0.170297D+02
      9 -0.291580D+00  0.999978D+00 -0.350664D+00  0.216375D+02
     10  0.229140D+00 -0.600243D+01  0.290862D+00 -0.274006D+00  0.146099D+02
     11  0.380999D-01  0.385599D+00 -0.387170D+01 -0.228801D+01  0.170065D+00
     12 -0.357861D-01 -0.339508D+00 -0.232646D+01 -0.374446D+01  0.111143D-01
     13  0.143260D-01 -0.229669D+01  0.376134D+00 -0.124246D+01  0.914739D-01
     14  0.307141D-02  0.382100D+00 -0.635071D+01 -0.760024D-01  0.172870D+00
     15 -0.113862D+00 -0.119363D+01 -0.744030D-01 -0.607874D+01 -0.237391D+00
     16  0.216828D+00  0.345027D+00 -0.240871D+00 -0.104886D+00 -0.442939D-01
     17 -0.308463D+00 -0.134941D+00  0.844170D-01 -0.158013D-02 -0.376785D+00
     18  0.208517D+00 -0.121326D+00  0.279495D-01 -0.601298D-03  0.113896D+00
     19 -0.722043D+00  0.140727D+00 -0.102137D+00  0.721344D-01  0.316304D+00
     20  0.377869D+01 -0.879485D-01 -0.703128D-01 -0.341118D-01 -0.174700D+00
     21 -0.659838D+01  0.754567D-02 -0.195484D-01 -0.109224D+00  0.865881D-01
     22  0.146787D-01 -0.467254D+01  0.414887D+00  0.868461D+00  0.303938D+00
     23  0.360687D-02  0.528347D+00 -0.432837D+01  0.122728D+01  0.232954D-01
     24 -0.111200D+00  0.106996D+01  0.121105D+01 -0.276906D+01 -0.506129D-01
     25  0.257802D-01  0.995780D-01 -0.886857D-02  0.358646D-01 -0.397263D+01
     26  0.198837D-01 -0.327723D-01  0.121312D+00  0.831116D-01 -0.355924D+00
     27  0.456785D-01  0.707837D-01  0.321516D-01 -0.828711D-01 -0.782769D+00
     28  0.115647D+00  0.932934D-01 -0.262183D-01  0.527322D-01 -0.302383D+01
     29 -0.946021D-01 -0.760765D-01 -0.472494D-01  0.123525D+00  0.142101D+01
     30 -0.762992D-01  0.792238D-01  0.123991D+00  0.328383D-01  0.258242D+00
     31  0.342973D-01  0.112205D+00  0.174994D-01 -0.157181D-01 -0.231936D+01
     32 -0.110708D-01  0.417061D-01 -0.541906D-01  0.874557D-01 -0.110306D+01
     33 -0.224158D-02 -0.343697D-01  0.896707D-01  0.262073D-01  0.645856D+00
     34  0.753896D-02 -0.322241D-01 -0.487519D-01 -0.377596D-01 -0.208191D-01
     35  0.154138D-02 -0.419550D-01  0.850130D-01 -0.702616D-02 -0.164875D-01
     36 -0.393049D-02  0.158767D-01  0.557939D-03  0.138762D+00  0.128681D-01
     37 -0.308571D-02  0.116481D-01 -0.983787D-01  0.465757D-01  0.267740D-02
     38 -0.398417D-02 -0.436686D-01  0.419403D-01 -0.120573D-01  0.778083D-01
     39 -0.895489D-02  0.287288D-01  0.205842D-01  0.852504D-01 -0.807937D-01
     40 -0.473594D-02 -0.314915D-01  0.131196D+00  0.461633D-01  0.291455D-01
     41  0.216024D-02  0.913765D-01  0.732122D-01 -0.151435D-01 -0.157785D-01
     42 -0.108823D-01  0.521034D-01 -0.435395D-01  0.823089D-01 -0.533956D-01
     43  0.235463D-02  0.588013D-01 -0.104692D+00 -0.462585D-01  0.983670D-02
     44  0.793460D-01 -0.123438D+00  0.625587D-01  0.497851D-01 -0.511970D-01
     45  0.593224D-02 -0.654461D-01  0.615863D-01 -0.245555D-01 -0.526952D-02
     46  0.888059D-01  0.417196D-01 -0.582707D-03  0.864558D-02  0.347190D-01
     47 -0.143427D+00 -0.828488D-02 -0.146921D-01 -0.236691D-02 -0.168011D-01
     48  0.570676D-01 -0.640391D-02 -0.120007D-02 -0.166892D-01  0.188545D-02
     49  0.347967D-01  0.505521D-01  0.241497D-01  0.114795D-01  0.523409D-01
     50  0.201655D+00  0.306164D-01 -0.137684D-02  0.781718D-02  0.263529D-01
     51 -0.614768D+01  0.502873D-03 -0.822497D-03 -0.140665D-01  0.262960D-01
               11            12            13            14            15 
     11  0.136356D+02
     12  0.189454D+01  0.145860D+02
     13  0.113993D+00 -0.146487D+00  0.118359D+02
     14 -0.934974D-01 -0.115580D+00 -0.806337D-01  0.153125D+02
     15 -0.117320D+00 -0.304284D-01  0.131539D+01  0.141249D+00  0.150013D+02
     16 -0.372102D+00  0.833107D-01  0.192896D+00 -0.125495D+00 -0.892905D-01
     17  0.200658D+00 -0.109813D+00 -0.969517D-01 -0.106334D+00  0.249355D-01
     18 -0.139210D+00 -0.211881D+00 -0.793245D-01  0.280465D-01 -0.110767D+00
     19 -0.192694D+00  0.529343D-01  0.156201D+00 -0.997098D-02 -0.261667D-01
     20 -0.187896D+00 -0.223528D-01  0.310133D-02 -0.894317D-01 -0.404565D-02
     21 -0.255956D-01 -0.211955D+00 -0.247733D-01 -0.152788D-02 -0.803384D-01
     22  0.171179D-01 -0.145462D-01 -0.177478D+00 -0.232794D-02 -0.634887D-01
     23  0.259319D+00  0.141070D+00 -0.656073D-02  0.102999D+00  0.519925D-02
     24  0.193870D+00 -0.361040D+00 -0.563604D-01  0.203740D-01  0.895846D-01
     25 -0.368459D+00 -0.629719D+00  0.555331D-02  0.725131D-02 -0.583114D-01
     26 -0.376719D+01  0.886930D+00  0.653305D-02 -0.314609D-01 -0.376587D-02
     27  0.112521D+01 -0.236595D+01 -0.571053D-01 -0.984957D-02  0.509258D-01
     28  0.120313D+01  0.339129D+00  0.504783D-01  0.878635D-01 -0.519838D-01
     29 -0.281300D+01  0.467088D+00  0.937286D-01  0.372866D-01 -0.493089D-01
     30  0.315058D+00 -0.414149D+01 -0.485487D-01 -0.396431D-01 -0.195080D-01
     31 -0.102324D+01  0.560049D+00 -0.163086D-02 -0.130408D-01  0.102168D-01
     32 -0.334426D+01 -0.315545D+00  0.628061D-02 -0.691533D-02 -0.108984D-01
     33 -0.344982D+00 -0.376934D+01 -0.955839D-02 -0.468965D-02 -0.103559D-01
     34 -0.309778D-01 -0.123592D-02 -0.291480D+01  0.258611D+00  0.139691D+01
     35 -0.143653D-01 -0.213376D-02  0.238102D+00 -0.381455D+01  0.320636D+00
     36  0.529849D-02  0.192579D-01  0.118995D+01  0.301169D+00 -0.234417D+01
     37  0.857423D-01 -0.848086D-01 -0.397805D+01  0.419186D+00 -0.322701D+00
     38  0.420205D-01 -0.992923D-01  0.244162D+00 -0.247198D+01 -0.119105D+01
     39 -0.104263D+00  0.529036D-01 -0.197073D+00 -0.126119D+01 -0.296033D+01
     40 -0.378540D-02 -0.382041D-01 -0.343590D+01 -0.910176D+00 -0.502295D+00
     41 -0.224687D-01  0.123786D-01 -0.769923D+00 -0.224596D+01  0.913867D+00
     42  0.661521D-02  0.479312D-02 -0.445972D+00  0.966870D+00 -0.325114D+01
     43 -0.397891D-01 -0.317346D-02 -0.124992D-02 -0.557448D-02 -0.184098D-02
     44  0.491195D-01  0.952536D-02 -0.960818D-02  0.397743D-02  0.518413D-02
     45  0.655488D-02 -0.178507D-01 -0.495367D-02  0.648995D-02 -0.603633D-02
     46 -0.747871D-02 -0.451390D-02  0.167322D-01 -0.200575D-02 -0.298933D-02
     47 -0.824802D-02  0.969020D-03 -0.299482D-02 -0.508236D-02  0.888113D-03
     48 -0.140051D-02 -0.113304D-01 -0.439064D-02  0.826954D-03 -0.572015D-02
     49  0.176176D-01  0.213161D-01  0.106743D-01  0.729249D-02  0.140841D-02
     50 -0.826815D-02  0.487139D-02  0.882505D-02 -0.866065D-03  0.172598D-02
     51  0.458384D-02 -0.318568D-02  0.908489D-03  0.483991D-03 -0.472429D-02
               16            17            18            19            20 
     16  0.955407D+01
     17 -0.342162D+01  0.183793D+02
     18  0.141658D+01 -0.391703D+01  0.265179D+02
     19 -0.551047D+01  0.525773D+01  0.819903D+00  0.150702D+02
     20  0.471256D+01 -0.629365D+01  0.313039D+01 -0.296791D+01  0.124938D+02
     21  0.721165D+00  0.307651D+01 -0.129533D+02  0.384735D+00 -0.666940D+01
     22 -0.787248D-01  0.648091D-01  0.348171D-01  0.613206D-01 -0.113168D+00
     23  0.378971D-01  0.446402D-02  0.176589D-01 -0.132071D+00  0.192455D-01
     24  0.125461D-01  0.248702D-01  0.429196D-01 -0.770824D-01  0.560148D-01
     25 -0.477878D-01 -0.247055D-01  0.242292D-01  0.894472D-02 -0.157961D-01
     26 -0.238828D-01 -0.138360D-01 -0.405087D-01 -0.106746D-01 -0.191710D-01
     27  0.540569D-01 -0.812394D-01  0.314178D-01  0.524503D-01 -0.162873D-01
     28  0.994102D-02  0.518779D-01  0.349400D-02 -0.454806D-01  0.169741D-01
     29  0.428206D-01 -0.592898D-01 -0.236793D-01 -0.169606D-03  0.241965D-01
     30 -0.501109D-05  0.296304D-02  0.336744D-01  0.160829D-01 -0.295461D-01
     31  0.128614D-01 -0.234647D-01  0.888412D-02  0.229841D-01 -0.117943D-01
     32 -0.255532D-01  0.662866D-02 -0.655306D-02 -0.184247D-01 -0.542999D-02
     33  0.982065D-02 -0.692668D-02 -0.100697D-01  0.127554D-01 -0.666281D-02
     34  0.298866D-01 -0.650470D-02  0.317448D-02  0.229407D-01  0.278963D-02
     35 -0.703732D-02 -0.108283D-01 -0.350059D-03 -0.209064D-03 -0.693917D-02
     36  0.141258D-01 -0.162709D-02 -0.882032D-02  0.121745D-01  0.234341D-02
     37  0.259461D-01  0.114216D-02 -0.196989D-01  0.170971D-01  0.731992D-02
     38  0.127697D-01 -0.136981D-01 -0.551262D-02  0.155240D-01 -0.286815D-02
     39 -0.313777D-01 -0.220743D-02 -0.200233D-03 -0.185448D-01 -0.630717D-02
     40  0.106014D-01 -0.808757D-02 -0.437042D-02  0.154341D-01 -0.334944D-02
     41 -0.161198D-01  0.600341D-03  0.443629D-02 -0.136679D-01 -0.525936D-02
     42 -0.901382D-02  0.450937D-02 -0.517102D-02 -0.925797D-02  0.899822D-03
     43 -0.427624D+01 -0.776668D+00 -0.420883D+00  0.299495D+00 -0.147861D+00
     44 -0.656258D+00 -0.227036D+01  0.118793D+01 -0.219127D+00 -0.274866D+00
     45 -0.354934D+00  0.117311D+01 -0.390341D+01 -0.112045D+00 -0.270134D+00
     46 -0.462673D+00 -0.233975D+00 -0.352146D-02 -0.195744D+01 -0.607479D+00
     47 -0.202173D+00  0.210739D+00  0.253069D-01 -0.569329D+00 -0.422555D+01
     48  0.871216D-02  0.264298D-01  0.240207D+00 -0.735244D+00  0.216396D+00
     49  0.526890D-01  0.174914D+00  0.497994D-01 -0.105720D-01 -0.171184D-01
     50  0.162985D+00  0.168651D+00  0.638686D-01 -0.118244D+00  0.116123D-01
     51  0.445007D-01  0.623494D-01 -0.480039D-01 -0.673176D-01 -0.649265D-01
               21            22            23            24            25 
     21  0.237348D+02
     22 -0.295803D-01  0.432012D+01
     23  0.458866D-01 -0.599707D+00  0.440460D+01
     24 -0.261666D-01 -0.107517D+01 -0.146724D+01  0.263788D+01
     25  0.205106D-01 -0.320253D-01 -0.776215D-03 -0.451283D-02  0.389471D+01
     26 -0.373430D-02  0.828412D-03 -0.305922D-01  0.328487D-02  0.317889D+00
     27  0.125414D-01  0.316150D-02  0.162966D-01  0.124192D+00  0.621089D+00
     28  0.210065D-01  0.282531D-01 -0.126900D-01  0.107379D-01  0.136729D+00
     29 -0.460465D-01 -0.182582D-01 -0.126349D-01  0.594172D-01 -0.871427D-01
     30  0.209409D-01  0.220540D-01  0.578980D-01 -0.486083D-01 -0.801201D-01
     31  0.976112D-02  0.364167D-02 -0.120488D-01  0.500392D-01 -0.604450D-01
     32 -0.701870D-02 -0.210827D-01 -0.114399D-01 -0.402505D-01  0.143970D+00
     33 -0.629078D-02  0.399935D-01 -0.236181D-01  0.531546D-01  0.933764D-01
     34  0.251461D-02  0.779019D-01  0.458746D-01  0.820414D-01  0.216685D-01
     35 -0.131137D-03  0.321259D-01 -0.183637D-01  0.232299D-01  0.827655D-02
     36 -0.467957D-02  0.655664D-01  0.262781D-01  0.141381D-01 -0.898139D-02
     37 -0.898778D-02 -0.215683D-01 -0.271505D-01  0.226156D-02 -0.136087D-02
     38 -0.481222D-02 -0.228076D-01 -0.109839D-02  0.517270D-02  0.706776D-03
     39 -0.211121D-02  0.148399D-02 -0.117810D-02  0.108537D-01 -0.657445D-04
     40 -0.432688D-02 -0.394501D-01  0.109996D-01  0.512815D-02  0.443353D-02
     41  0.294654D-02  0.250378D-02  0.891173D-02 -0.444587D-02 -0.393946D-02
     42 -0.455144D-02 -0.871820D-03 -0.565895D-03  0.928008D-02 -0.909073D-02
     43 -0.782119D-01 -0.300116D-02  0.542461D-03 -0.142810D-02 -0.200299D-02
     44 -0.284445D+00  0.487570D-02  0.154982D-02  0.479793D-02  0.484487D-03
     45  0.160572D+00  0.299630D-02  0.640062D-03  0.211457D-02  0.290071D-03
     46 -0.767093D+00 -0.183337D-02 -0.399359D-02 -0.675599D-02 -0.135071D-03
     47  0.214770D+00  0.257625D-04 -0.176701D-03  0.215798D-02 -0.522103D-03
     48 -0.421738D+01 -0.208579D-03  0.171293D-02  0.887069D-03  0.252954D-03
     49 -0.279857D-01  0.148270D-01  0.194568D-02 -0.135528D-01  0.214269D-02
     50 -0.398223D-01  0.686592D-02 -0.559832D-02 -0.656040D-02  0.148401D-02
     51  0.193839D-02 -0.222120D-02 -0.561892D-03 -0.467130D-02  0.275523D-02
               26            27            28            29            30 
     26  0.386949D+01
     27 -0.667897D+00  0.213502D+01
     28 -0.560472D-01 -0.666832D-01  0.297957D+01
     29 -0.106696D+00 -0.241256D+00 -0.122215D+01  0.279725D+01
     30 -0.197132D+00 -0.351161D-01 -0.328498D+00 -0.158264D+00  0.424701D+01
     31  0.125465D+00  0.930009D-01 -0.182179D+00 -0.540410D-01 -0.695816D-01
[...]
   yx        -0.484039D+01     -0.717272D+00     -0.798073D+00
   yy         0.674580D+02      0.999625D+01      0.111223D+02
   zx         0.739018D+01      0.109511D+01      0.121848D+01
   zy        -0.475548D+01     -0.704689D+00     -0.784072D+00
   zz         0.766485D+02      0.113581D+02      0.126376D+02

 ----------------------------------------------------------------------

 Test job not archived.
 1\1\GINC-C0162\Freq\RM062X\CC-pVTZ\C5H10O2\HARMS.N\26-Sep-2019\0\\#P G
 eom=AllCheck Guess=TCheck SCRF=Check Test GenChk RM062X/CC-pVTZ Freq\\
 Gaussian input prepared by ASE\\0,1\O,0.3027062543,1.1623472483,0.9660
 355823\O,2.3261767948,0.7687980425,3.195177524\C,0.2820186227,2.306265
 18,1.830541983\C,-0.5534289615,2.0192807634,3.0646939612\C,-0.29635727
 57,3.4302283041,0.9969192073\C,0.9548152924,0.0434767977,1.3538928514\
 C,1.8409419184,-0.1758706846,2.3203868984\H,1.3046217094,2.5457588217,
 2.1217216907\H,-1.5779044461,1.7864309002,2.7711182703\H,-0.144890964,
 1.1809765806,3.6250666378\H,-0.5672697497,2.8927672762,3.7166975669\H,
 -1.3061971292,3.1726314799,0.6763277075\H,0.3140340991,3.6035281738,0.
 1124204319\H,-0.3392486651,4.3489843673,1.5808840193\H,0.7061146806,-0
 .796058774,0.7202008286\H,2.235461543,-1.1777643208,2.4186237291\H,2.7
 435076061,0.323936931,3.9343681473\\Version=EM64L-G16RevA.03\State=1-A
 \HF=-346.9424039\RMSD=1.704e-09\RMSF=6.561e-07\ZeroPoint=0.1472915\The
 rmal=0.1559755\Dipole=0.3049371,-0.3079557,0.6799306\DipoleDeriv=-0.56
 86807,0.3875037,-0.1473261,0.79451,-1.4511397,0.2061522,-0.0917852,-0.
 063573,-0.5609686,-0.6686228,-0.0146223,-0.3364632,-0.336316,-0.437175
 2,-0.5058864,-0.4022964,-0.1692011,-0.7716312,0.2829118,-0.0746179,-0.
 1174183,-0.3007671,0.8514641,-0.0088488,-0.2318611,0.2626659,0.4370228
 ,0.0338524,0.0148801,0.085359,0.0314488,-0.0315781,0.115612,0.1174578,
 -0.0089331,-0.0867411,0.0674641,0.0545046,0.00187,0.0665614,-0.0341783
 ,0.056055,0.0026264,0.0787674,0.0177119,0.3494632,-0.5180288,0.2530169
 ,-0.6509526,0.8790042,-0.2485337,0.3274633,-0.2791252,0.1217097,0.0977
 739,0.1457483,0.3847279,0.3168423,0.1785468,0.5074523,0.3921975,0.3347
 35,0.3800213,-0.0892249,-0.0560647,-0.0056588,0.0234083,-0.0171651,0.0
 045106,0.0372642,-0.0582938,0.000077,-0.1007358,-0.0297165,-0.0065086,
 -0.0391241,0.0601129,-0.0066024,-0.0822217,-0.009448,0.0260228,0.05002
 81,0.0299044,-0.0364095,0.0190026,-0.0359896,0.0938333,-0.0222919,0.07
 91382,-0.0002485,0.0487513,-0.0054552,0.0005813,0.0138937,-0.0650088,-
 0.1081885,0.0310495,-0.0902792,0.0152762,-0.0922968,-0.009596,-0.05700
 19,-0.0776278,0.0388896,-0.0172577,-0.0314705,0.0229164,0.0444845,0.00
 38887,-0.0168207,0.086516,-0.0036246,0.054085,0.0237065,0.0636776,0.06
 61957,-0.0707071,0.0586496,0.014172,-0.0122141,0.0303807,-0.0776344,-0
 .0505582,-0.001494,-0.1031042,-0.003517,0.0813038,0.0235208,-0.0559275
 ,0.0378991,-0.0625683,-0.0553919,-0.0361646,-0.0657403,0.0682797,0.070
 0529,0.0626195,-0.0759952,0.039938,-0.0652256,-0.0457426,-0.0633357,-0
 .0135653,0.0776911,0.3754209,-0.0079314,0.038852,0.0345271,0.2155607,0
 .0396885,-0.0088153,0.0168448,0.3055164\Polar=65.115276,-10.0323812,70
 .9462895,8.2703777,-2.589622,66.2982632\Quadrupole=-1.127957,1.8725779
 ,-0.7446208,-2.7400702,2.3912996,-1.4539581\PG=C01 [X(C5H10O2)]\NImag=
 0\\0.18387276,-0.15579379,0.51060404,0.08637658,0.04602647,0.26565982,
 -0.00361598,0.00854150,0.00346384,0.19095952,-0.00915353,0.02200132,-0
 .00307140,-0.04740473,0.38046053,0.00113093,0.01751891,-0.00098421,0.2
 8778997,-0.05720388,0.51033858,-0.07326824,-0.00570778,-0.02402508,-0.
 00225140,-0.00225257,-0.00035956,0.61859744,0.00227566,-0.13788969,-0.
 05086326,-0.00004586,-0.01084753,-0.00151995,0.01836219,0.48302305,-0.
 01576453,-0.07159702,-0.13567125,-0.00146052,-0.00496130,-0.00500539,0
 .04732903,-0.03327330,0.50113023,0.00295192,0.00297462,0.00314836,-0.0
 0188698,0.00095841,0.00085951,-0.12535866,-0.01663159,0.05679431,0.548
 86450,0.02082041,-0.01074622,-0.03684258,-0.00032687,0.00168992,0.0021
 6536,-0.01926214,-0.08395286,0.03271829,-0.01237011,0.58777839,0.01471
 209,-0.01167323,-0.02902836,0.00024001,0.00094424,0.00004302,0.0511158
 5,0.02526601,-0.14944412,0.04836342,0.01090052,0.52118808,0.00128298,0
 .00411770,0.00076862,-0.00031597,0.00115720,-0.00083981,-0.10556400,0.
 03908870,-0.03184249,0.00790475,-0.01598764,0.01085006,0.56809465,0.01
 914840,-0.04624203,0.01074709,0.00004079,0.00139412,0.00020809,0.03205
 638,-0.13704152,0.05190948,0.00084822,-0.00570362,0.01108670,0.0264787
 3,0.54096729,0.01134918,-0.02609057,0.01080581,0.00017377,0.00110834,0
 .00090151,-0.03426802,0.06564348,-0.12436336,-0.01006209,0.02502907,-0
 .02063670,-0.02531462,0.04005623,0.56490386,-0.11993216,0.11384069,-0.
 05839744,-0.00081024,0.00197498,-0.01166708,-0.00487864,0.00663918,0.0
 0721360,0.00001546,-0.00155143,0.00077168,0.00027179,-0.00176782,-0.00
 132746,0.46082547,0.10119794,-0.25130761,0.03110460,-0.03510289,-0.005
 61202,-0.04660450,0.01471764,-0.04748622,0.00152781,0.00013376,0.00626
 988,0.00126490,-0.00020213,-0.00263364,-0.00251441,-0.11254474,0.63457
 225,-0.06731287,0.05617888,-0.11134967,-0.02138381,0.00065320,-0.01769
 426,0.01329671,-0.01284977,0.01016371,0.00052479,-0.00521906,-0.000311
 91,-0.00005194,-0.00264184,-0.00263572,0.36756865,0.07065702,0.6022147
 0,-0.00777008,0.00967127,-0.01666704,-0.08428977,-0.03034495,-0.082558
 31,0.00170140,0.00114357,0.00032956,-0.00050009,-0.00073098,-0.0000640
 4,-0.00024664,-0.00046544,-0.00005309,-0.27152171,0.06800343,-0.239110
 94,0.46178990,0.04135867,-0.03519486,0.03526040,-0.05608348,-0.2074023
 9,-0.11949864,0.00438025,0.01558863,0.01165265,-0.00060480,-0.00224781
 ,-0.00166893,-0.00078645,-0.00170704,-0.00165538,0.05128886,-0.1125951
 1,0.03478609,-0.13605486,0.62636295,-0.00824611,-0.00110526,0.00101756
 ,-0.08350204,-0.07672548,-0.16807893,0.00188371,0.00382891,0.00433997,
 -0.00068510,-0.00065924,-0.00129611,-0.00050637,-0.00097180,-0.0007749
 7,-0.24276213,0.05814761,-0.32490680,0.37926087,0.02069937,0.57328719,
 0.00681416,-0.00082616,-0.00056449,-0.00266852,0.00415616,-0.00342247,
 -0.28856768,-0.05372138,-0.06232958,-0.01752203,-0.00346903,-0.0029846
 6,-0.00972184,-0.00077633,-0.00291762,0.00154528,-0.00031820,0.0002015
 8,-0.00021941,-0.00181236,0.00019880,0.30883831,-0.02597957,-0.0238584
 5,-0.01973790,0.00224662,-0.00050443,0.00290541,-0.04472695,-0.0587310
 8,-0.00924002,-0.00738629,0.00027976,-0.00006808,0.02503159,0.00581587
 ,0.00783256,-0.00414649,0.00564308,-0.00182682,-0.00021505,-0.00259152
 ,-0.00119398,0.05396881,0.07465371,-0.01984393,-0.01613640,-0.01212735
 ,-0.00159292,0.00174931,-0.00099425,-0.06005367,-0.01399038,-0.0664319
 3,0.02755853,0.00660622,0.00680553,-0.01740756,-0.00140379,-0.00490483
 ,-0.00107721,0.00236728,-0.00010216,0.00084691,-0.00025342,0.00087242,
 0.07008161,0.01825866,0.08026307,0.00244951,0.00064457,-0.00068443,-0.
 00031354,0.00065444,0.00041630,-0.02134390,-0.00569114,-0.00549705,-0.
 28072308,-0.05239480,-0.07013935,0.00092010,0.00082950,-0.00103047,-0.
 00029183,0.00041508,-0.00004331,-0.00016153,-0.00078917,-0.00055070,-0
 .00060399,-0.00053443,0.00372060,0.30679356,0.00082231,0.00112994,0.00
 025616,0.00053787,-0.00056834,-0.00078202,-0.00707064,-0.00334814,-0.0
 0261009,-0.05241704,-0.05944709,-0.01465801,-0.00062432,0.00007255,-0.
 00072603,0.00023955,-0.00063117,0.00031653,0.00024634,0.00050937,0.000
 55420,-0.00030401,0.00052265,0.00158069,0.05942081,0.05941444,-0.00212
 382,0.00090973,0.00241063,-0.00028017,0.00016368,0.00055781,0.02851091
 ,0.00730030,0.00631222,-0.07193627,-0.01603289,-0.06793796,0.00088627,
 -0.00079292,0.00175257,0.00004927,-0.00032005,0.00013116,-0.00017755,0
 .00005246,-0.00028299,0.00303274,0.00105877,-0.00446587,0.07473643,0.0
 1531789,0.07208486,0.00025005,0.00055876,-0.00172154,-0.00121944,-0.00
 015451,-0.00070450,0.00815789,-0.01666950,0.00887640,-0.08758483,0.082
 85102,-0.05492802,-0.00211011,-0.00011812,0.00311436,0.00015498,-0.000
 49099,-0.00007733,-0.00105215,0.00186468,0.00211028,0.00078949,-0.0000
 3961,-0.00083100,-0.01002613,0.02368604,-0.01397884,0.09331759,-0.0002
 1060,0.00091566,-0.00003259,0.00101609,-0.00117198,-0.00143821,0.00219
 040,-0.00616913,0.00195854,0.07971557,-0.21012433,0.10918040,-0.001506
 06,0.00058342,0.00087924,0.00024688,-0.00038446,-0.00024524,0.00172513
 ,0.00031697,0.00033332,-0.00005882,-0.00000809,0.00011084,-0.00293527,
 0.00717957,-0.00507897,-0.09003545,0.22709655,-0.00053247,-0.00072552,
 0.00244102,-0.00097714,0.00025975,-0.00016341,-0.01211355,0.02230372,-
 0.01450197,-0.05307883,0.10707193,-0.11769316,0.00433673,-0.00021964,-
 0.00413556,-0.00039069,0.00000247,-0.00111080,0.00109433,-0.00072904,0
 .00020567,-0.00029718,-0.00060328,0.00084136,-0.00245796,0.00611612,-0
 .00488390,0.05667756,-0.11948502,0.12771135,-0.00186620,0.00169780,0.0
 0501976,-0.00033241,-0.00043438,-0.00044357,0.00008812,0.01576859,0.00
 790788,-0.04689464,0.00086781,0.00178781,0.00029121,0.00021870,-0.0005
 1940,0.00062055,-0.00128304,0.00062954,0.00034054,0.00025230,0.0000484
 3,0.00011112,0.00004117,-0.00088576,0.00224245,-0.02475597,-0.01802239
 ,-0.00092313,0.00938544,0.00827647,0.04628726,-0.00041839,0.00149695,0
 .00202897,0.00043291,0.00018251,0.00038858,0.00032253,0.00363615,0.004
 10126,0.00167142,-0.22132798,-0.13029604,0.00005731,-0.00024936,0.0000
 8269,0.00007904,0.00021802,0.00036192,-0.00041622,-0.00001516,-0.00047
 362,0.00033586,0.00032195,-0.00062775,0.00050455,-0.00482920,-0.002305
 79,-0.00090627,-0.01859174,-0.01538927,-0.00170843,0.23872871,0.005347
 04,-0.00229935,-0.00627789,0.00040659,0.00050523,0.00029740,-0.0039124
 5,-0.02218135,-0.01243124,0.00237976,-0.12798526,-0.14172416,-0.000656
 50,-0.00063963,0.00082520,-0.00164686,0.00253415,-0.00113765,-0.000067
 28,-0.00078287,0.00033040,0.00025147,0.00027353,0.00099152,0.00063636,
 -0.00573919,-0.00551596,0.00063979,0.01355200,0.01130448,-0.00360977,0
 .14178717,0.15336521,0.00117485,-0.00049334,0.00073011,0.00000535,0.00
 036105,-0.00005899,-0.01543163,-0.00327367,-0.00517626,0.00094757,-0.0
 0038710,0.00110907,-0.27685872,-0.06098875,-0.07095423,0.00030261,0.00
 012467,0.00026704,-0.00006003,-0.00050416,-0.00022836,0.00080292,0.002
 42989,-0.00118310,0.00070045,0.00008615,-0.00056867,0.00021213,0.00014
 881,0.00017613,0.00002575,0.00010712,0.00007203,0.30074576,-0.00125262
 ,0.00288892,-0.00007377,0.00005781,-0.00053087,0.00002936,0.02577483,0
 .00498533,0.00860245,0.00083634,0.00105562,-0.00129298,-0.06292567,-0.
 06269136,-0.01972963,0.00013095,-0.00032077,0.00010766,0.00007567,0.00
 059427,0.00025715,0.00159259,-0.00357520,0.00254661,-0.00056962,0.0000
 0942,0.00000441,-0.00002170,-0.00002876,-0.00024410,-0.00014349,0.0000
 1104,0.00002692,0.06578633,0.06553909,0.00151584,-0.00077117,0.0007294
 7,-0.00012345,0.00028100,-0.00022961,-0.01958594,-0.00544786,-0.007539
 00,-0.00104849,-0.00122302,0.00078076,-0.07017833,-0.01820897,-0.06972
 112,0.00029537,-0.00012920,0.00004759,-0.00007158,-0.00026777,-0.00016
 003,-0.00069390,0.00328977,-0.00114288,0.00055088,0.00053050,-0.000288
 25,0.00034233,0.00002924,0.00024047,-0.00002806,0.00003564,-0.00008424
 ,0.08037770,0.01785757,0.07364618,0.00020186,-0.00130945,-0.00006233,0
 .00000499,-0.00006007,0.00004224,0.00788805,0.00242332,-0.01250059,-0.
 00057407,0.00207107,-0.00096459,-0.13690215,-0.02444877,0.12665259,-0.
 00006426,-0.00003608,-0.00015941,0.00004264,0.00003900,-0.00000169,0.0
 0081909,-0.00088384,0.00010560,0.00038882,0.00032951,-0.00017349,0.000
 71351,0.00042821,-0.00053599,-0.00018803,0.00006131,0.00009790,-0.0156
 4719,-0.00354352,0.02460125,0.14429581,-0.00047922,0.00269975,-0.00064
 487,-0.00006786,-0.00028322,-0.00032153,-0.01585874,-0.00522736,0.0208
 0680,0.00275287,-0.00396294,0.00185473,-0.02313769,-0.05293238,0.03205
 119,0.00034478,-0.00045333,0.00004999,-0.00000685,0.00049691,0.0001862
 9,0.00002873,0.00089775,-0.00089628,0.00024842,0.00003534,-0.00024913,
 -0.00071335,-0.00006521,0.00149344,0.00005260,0.00026336,0.00019425,-0
 .00413564,-0.00215029,0.00667215,0.02470582,0.05490492,-0.00018848,-0.
 00136959,0.00154923,-0.00010543,0.00009518,0.00011864,0.01169366,0.001
 26371,-0.01647254,-0.00287359,0.00340093,-0.00109914,0.12465157,0.0345
 2359,-0.22541951,-0.00022257,0.00006786,0.00020448,-0.00000620,-0.0001
 9773,-0.00002502,-0.00026189,-0.00049597,0.00036725,0.00005204,-0.0000
 2945,0.00012903,0.00093893,0.00036610,-0.00087010,-0.00013728,-0.00008
 493,0.00040005,-0.00588412,-0.00161199,0.00910386,-0.13625300,-0.03931
 387,0.24474569,-0.00105260,0.00375912,-0.00164718,-0.00010909,-0.00023
 535,-0.00020181,-0.00141925,0.00867826,0.00875554,0.00012919,-0.000294
 90,0.00034031,-0.04698011,0.00820038,0.00440750,0.00100940,0.00028506,
 0.00047272,0.00003747,0.00024405,0.00016174,-0.00008693,-0.00058756,0.
 00032974,-0.00000866,-0.00010721,-0.00012723,-0.00020128,-0.00003209,0
 .00002477,0.00030575,-0.00015910,0.00006630,0.00312108,-0.02578870,-0.
 01589493,-0.00100005,0.01637304,0.00849704,0.04643969,0.00379290,-0.00
 621204,0.00320298,0.00023102,0.00050418,0.00048329,-0.00255032,-0.0163
 6283,-0.01639134,-0.00035940,0.00061757,-0.00103842,0.00881777,-0.2390
 1786,-0.12098136,-0.00094055,0.00042703,-0.00095429,-0.00009246,-0.000
 80386,-0.00031084,0.00040108,0.00075196,0.00006959,0.00004443,-0.00007
 515,0.00006819,0.00017868,0.00039580,0.00014866,-0.00011351,0.00019107
 ,0.00088202,0.00057227,-0.00568372,-0.00279341,0.00028897,0.00577239,0
 .00333929,-0.01053596,0.25983629,-0.00199152,0.00448824,-0.00102471,0.
 00000715,-0.00011918,-0.00003715,0.00139986,0.01338198,0.00985373,0.00
 014064,-0.00023409,0.00018327,0.00509988,-0.12412077,-0.12692631,0.000
 12673,0.00091514,0.00089087,0.00007037,0.00008049,0.00007028,0.0000388
 1,-0.00087463,0.00056510,0.00012471,-0.00002055,0.00000385,-0.00007565
 ,-0.00012023,0.00027443,-0.00000229,0.00051258,-0.00039049,0.00124926,
 -0.00638774,-0.00546128,-0.00085488,-0.02193138,-0.01267055,-0.0051544
 3,0.13417892,0.13475806,0.00288001,0.01962606,0.01078252,0.00330697,0.
 00455745,-0.00624349,0.00066389,0.00229987,-0.00206528,0.00011551,-0.0
 0004904,-0.00017749,0.00016023,0.00066710,0.00059817,-0.05946010,-0.05
 465074,-0.05340747,-0.00367880,-0.01696910,-0.01058703,-0.00003660,0.0
 0055500,0.00024378,-0.00007581,0.00002538,0.00002183,-0.00000959,-0.00
 010191,0.00002058,-0.00002255,-0.00001814,0.00003877,-0.00004764,-0.00
 004754,-0.00001261,0.00001745,-0.00003839,0.00000053,-0.00015603,0.000
 20460,-0.00017147,0.05955701,0.00242059,-0.03439910,-0.01636199,0.0028
 9914,0.00190377,0.00041475,0.00077750,0.00142649,0.00533101,-0.0001032
 5,-0.00029590,-0.00005413,-0.00005355,-0.00098064,-0.00110475,-0.05300
 097,-0.21590283,-0.13558765,0.00130660,0.00450350,0.00283668,-0.000097
 14,-0.00027593,-0.00013217,0.00005062,0.00004542,-0.00000906,0.0000627
 9,0.00006077,-0.00010804,0.00011507,0.00003763,-0.00015178,0.00006686,
 0.00003922,0.00001948,-0.00004392,0.00002196,0.00002364,0.00023244,-0.
 00035319,0.00027321,0.04583873,0.24363454,0.00212738,0.01010019,0.0097
 1071,-0.00578769,0.00147542,0.00137611,-0.00118069,0.00111676,0.000151
 83,-0.00007467,0.00023657,0.00025309,-0.00001261,0.00026750,0.00018853
 ,-0.05356681,-0.13784819,-0.15336555,-0.00280961,-0.01917357,-0.009997
 42,0.00001344,0.00001258,-0.00011941,0.00007261,-0.00008569,0.00002802
 ,-0.00015160,0.00000798,0.00010636,-0.00004697,-0.00000824,0.00002672,
 -0.00001606,-0.00001357,0.00001685,0.00001425,0.00002852,-0.00001388,-
 0.00005016,0.00007080,-0.00005314,0.06048627,0.14336444,0.15350139,0.0
 0441908,0.00127069,-0.00725896,0.00508612,-0.01714508,-0.00219185,0.00
 039356,-0.00144817,-0.00085022,0.00012502,-0.00004462,0.00014312,0.000
 02914,0.00021367,0.00020423,-0.00752708,0.01990019,-0.00021234,-0.0823
 9287,0.10718280,-0.02554238,0.00006091,0.00024726,0.00012935,0.0000031
 3,-0.00004476,0.00001844,-0.00000418,-0.00000145,-0.00004307,-0.000053
 64,0.00006210,0.00000143,0.00002220,-0.00003756,-0.00000292,-0.0000042
 5,-0.00006056,0.00004090,-0.00006555,0.00009734,0.00000490,-0.00347081
 ,-0.00088948,0.00223795,0.08157382,0.00146559,0.00325319,-0.00107461,0
 .00264534,-0.02174653,-0.00673475,-0.00040129,-0.00022384,-0.00044473,
 0.00005564,0.00004909,0.00010630,0.00006964,0.00009578,0.00004001,0.00
 010901,-0.00434095,-0.00104629,0.10602857,-0.29567582,0.02744740,0.000
 03282,0.00026987,-0.00009668,0.00007078,-0.00004126,0.00002900,-0.0001
 7359,-0.00008482,0.00002719,-0.00002399,0.00002559,-0.00000505,0.00002
 525,-0.00001451,0.00002317,-0.00000666,-0.00001863,0.00002104,-0.00002
 577,0.00001836,-0.00000266,-0.00101591,0.00053313,0.00112042,-0.108820
 18,0.31774094,-0.00741875,-0.00216913,0.00180950,0.00442516,-0.0270266
 5,-0.00251292,-0.00027312,-0.00085150,-0.00079903,-0.00003049,0.000256
 18,0.00001122,0.00006439,0.00021464,0.00018469,-0.00632437,0.02256571,
 0.00004871,-0.02606201,0.02752068,-0.04907755,0.00008904,0.00004632,-0
 .00018090,0.00004632,-0.00000087,-0.00000932,-0.00008230,-0.00012247,-
 0.00000584,-0.00004949,0.00000306,0.00007664,0.00005563,-0.00005017,0.
 00003020,0.00000115,-0.00001416,-0.00002400,0.00000704,0.00008846,-0.0
 0003643,0.00211932,0.00139088,-0.00240338,0.03210498,-0.02031326,0.050
 16512,0.00120808,-0.00257229,0.00073872,-0.10154960,0.09336548,-0.1815
 4749,0.00059304,0.00080197,0.00028019,-0.00000954,0.00025838,-0.000175
 28,-0.00025531,-0.00013665,-0.00005279,-0.00025951,-0.00014897,-0.0012
 0161,-0.01201887,0.00699377,-0.01105194,-0.00035428,-0.00002055,-0.000
 14096,0.00005044,-0.00007001,0.00013254,-0.00046479,0.00002513,-0.0001
 7968,-0.00003215,-0.00000759,-0.00004458,-0.00001547,0.00007590,-0.000
 04318,0.00000778,-0.00000795,0.00005788,0.00003697,-0.00003686,-0.0000
 1206,0.00025686,0.00041799,-0.00125503,0.00180540,-0.00003527,0.001327
 53,0.11100097,-0.00001475,0.00086023,0.00007628,0.12038260,-0.15946902
 ,0.20998973,-0.00075129,-0.00137947,-0.00009049,-0.00007437,0.00006852
 ,0.00014602,0.00040487,0.00027042,0.00007931,-0.00094193,-0.00546213,-
 0.00274033,-0.01987376,0.00986098,-0.03285070,0.00086737,0.00038811,0.
 00024768,0.00003123,0.00002164,-0.00011564,0.00012111,0.00007980,0.000
 08063,0.00006333,-0.00009955,0.00002920,0.00007425,-0.00012745,0.00010
 288,-0.00001489,0.00000097,0.00000219,-0.00000571,-0.00000599,-0.00001
 933,-0.00088340,0.00000116,-0.00067193,-0.00048218,0.00016042,-0.00153
 771,-0.09890249,0.15483135,0.00086344,-0.00128518,0.00032969,-0.181293
 32,0.16187256,-0.31793294,0.00054234,0.00087250,0.00070815,0.00002022,
 -0.00018893,-0.00009336,0.00015272,-0.00001395,-0.00004409,0.00135732,
 -0.00373821,-0.00108669,-0.01395437,0.01417521,-0.02552368,-0.00043570
 ,0.00036309,-0.00023668,0.00004703,-0.00002019,-0.00002590,-0.00014886
 ,0.00010505,0.00023959,0.00007507,-0.00011622,-0.00005603,0.00003282,-
 0.00002819,0.00003102,-0.00000901,0.00003384,-0.00002352,0.00001302,-0
 .00006256,0.00000045,-0.00164693,-0.00014453,0.00059319,0.00121645,0.0
 0090349,0.00272330,0.19316775,-0.17272779,0.34039752\\0.00000039,0.000
 00049,-0.00000021,-0.00000087,-0.00000083,0.00000036,0.00000036,0.0000
 0025,0.00000019,-0.00000031,-0.00000008,-0.00000023,0.00000098,0.00000
 062,0.00000035,-0.00000009,0.00000016,-0.00000041,-0.00000062,-0.00000
 043,-0.00000021,0.00000017,-0.00000029,0.00000077,-0.00000030,0.000000
 27,-0.00000086,-0.00000084,-0.00000046,-0.00000048,-0.00000041,-0.0000
 0044,-0.00000001,0.00000116,0.00000110,-0.00000015,0.00000145,0.000000
 87,0.00000073,0.00000099,0.00000043,0.00000076,-0.00000003,0.00000048,
 -0.00000092,-0.00000091,-0.00000064,-0.00000037,-0.00000112,-0.0000015
 0,0.00000069\\\@


 IMAGINATION WILL OFTEN CARRY US TO WORLDS THAT NEVER WERE.
 BUT WITHOUT IT, WE GO NOWHERE. -- CARL SAGAN (COSMOS)
 Job cpu time:       0 days  2 hours 47 minutes 58.2 seconds.
 Elapsed time:       0 days  1 hours 23 minutes 59.9 seconds.
 File lengths (MBytes):  RWF=   1392 Int=      0 D2E=      0 Chk=     32 Scr=     32
 Normal termination of Gaussian 16 at Thu Sep 26 15:28:04 2019.
