 Entering Gaussian System, Link 0=g16
 Input=med/species/CC(C)OC=CO/conformers/CC(C)OC=CO_119.com
 Output=med/species/CC(C)OC=CO/conformers/CC(C)OC=CO_119.log
 Initial command:
 /shared/centos7/gaussian/g16/l1.exe "/scratch/harms.n/gauss_scrdir/Gau-39609.inp" -scrdir="/scratch/harms.n/gauss_scrdir/"
 Entering Link 1 = /shared/centos7/gaussian/g16/l1.exe PID=     39610.
  
 Copyright (c) 1988,1990,1992,1993,1995,1998,2003,2009,2016,
            Gaussian, Inc.  All Rights Reserved.
  
 This is part of the Gaussian(R) 16 program.  It is based on
 the Gaussian(R) 09 system (copyright 2009, Gaussian, Inc.),
 the Gaussian(R) 03 system (copyright 2003, Gaussian, Inc.),
 the Gaussian(R) 98 system (copyright 1998, Gaussian, Inc.),
 the Gaussian(R) 94 system (copyright 1995, Gaussian, Inc.),
 the Gaussian 92(TM) system (copyright 1992, Gaussian, Inc.),
 the Gaussian 90(TM) system (copyright 1990, Gaussian, Inc.),
 the Gaussian 88(TM) system (copyright 1988, Gaussian, Inc.),
 the Gaussian 86(TM) system (copyright 1986, Carnegie Mellon
 University), and the Gaussian 82(TM) system (copyright 1983,
 Carnegie Mellon University). Gaussian is a federally registered
 trademark of Gaussian, Inc.
  
 This software contains proprietary and confidential information,
 including trade secrets, belonging to Gaussian, Inc.
  
 This software is provided under written license and may be
 used, copied, transmitted, or stored only in accord with that
 written license.
  
 The following legend is applicable only to US Government
 contracts under FAR:
  
                    RESTRICTED RIGHTS LEGEND
  
 Use, reproduction and disclosure by the US Government is
 subject to restrictions as set forth in subparagraphs (a)
 and (c) of the Commercial Computer Software - Restricted
 Rights clause in FAR 52.227-19.
  
 Gaussian, Inc.
 340 Quinnipiac St., Bldg. 40, Wallingford CT 06492
  
  
 ---------------------------------------------------------------
 Warning -- This program may not be used in any manner that
 competes with the business of Gaussian, Inc. or will provide
 assistance to any competitor of Gaussian, Inc.  The licensee
 of this program is prohibited from giving any competitor of
 Gaussian, Inc. access to this program.  By using this program,
 the user acknowledges that Gaussian, Inc. is engaged in the
 business of creating and licensing software in the field of
 computational chemistry and represents and warrants to the
 licensee that it is not a competitor of Gaussian, Inc. and that
 it will not use this program in any manner prohibited above.
 ---------------------------------------------------------------
  

 Cite this work as:
 Gaussian 16, Revision A.03,
 M. J. Frisch, G. W. Trucks, H. B. Schlegel, G. E. Scuseria, 
 M. A. Robb, J. R. Cheeseman, G. Scalmani, V. Barone, 
 G. A. Petersson, H. Nakatsuji, X. Li, M. Caricato, A. V. Marenich, 
 J. Bloino, B. G. Janesko, R. Gomperts, B. Mennucci, H. P. Hratchian, 
 J. V. Ortiz, A. F. Izmaylov, J. L. Sonnenberg, D. Williams-Young, 
 F. Ding, F. Lipparini, F. Egidi, J. Goings, B. Peng, A. Petrone, 
 T. Henderson, D. Ranasinghe, V. G. Zakrzewski, J. Gao, N. Rega, 
 G. Zheng, W. Liang, M. Hada, M. Ehara, K. Toyota, R. Fukuda, 
 J. Hasegawa, M. Ishida, T. Nakajima, Y. Honda, O. Kitao, H. Nakai, 
 T. Vreven, K. Throssell, J. A. Montgomery, Jr., J. E. Peralta, 
 F. Ogliaro, M. J. Bearpark, J. J. Heyd, E. N. Brothers, K. N. Kudin, 
 V. N. Staroverov, T. A. Keith, R. Kobayashi, J. Normand, 
 K. Raghavachari, A. P. Rendell, J. C. Burant, S. S. Iyengar, 
 J. Tomasi, M. Cossi, J. M. Millam, M. Klene, C. Adamo, R. Cammi, 
 J. W. Ochterski, R. L. Martin, K. Morokuma, O. Farkas, 
 J. B. Foresman, and D. J. Fox, Gaussian, Inc., Wallingford CT, 2016.
 
 ******************************************
 Gaussian 16:  EM64L-G16RevA.03 25-Dec-2016
                26-Sep-2019 
 ******************************************
 %nprocshared=20
 Will use up to   20 processors via shared memory.
 %mem=5GB
 ----------------------------------------------------------------------
 #p m062x/cc-pVTZ opt=(calcfc,maxcycles=900,Tight) freq IOP(7/33=1,2/16
 =3) scf=(maxcycle=900)
 ----------------------------------------------------------------------
 1/6=900,7=10,10=4,18=20,19=15,26=3,38=1/1,3;
 2/9=110,12=2,16=3,17=6,18=5,40=1/2;
 3/5=16,6=1,11=2,25=1,30=1,71=2,74=-55,140=1/1,2,3;
 4//1;
 5/5=2,7=900,38=5/2;
 8/6=4,10=90,11=11/1;
 11/6=1,8=1,9=11,15=111,16=1/1,2,10;
 10/6=1,13=1/2;
 6/7=2,8=2,9=2,10=2,28=1/1;
 7/10=1,18=20,25=1,33=1/1,2,3,16;
 1/6=900,7=10,10=4,18=20,19=15,26=3/3(2);
 2/9=110,16=3/2;
 99//99;
 2/9=110,16=3/2;
 3/5=16,6=1,11=2,25=1,30=1,71=1,74=-55/1,2,3;
 4/5=5,16=3,69=1/1;
 5/5=2,7=900,38=5/2;
 7/33=1/1,2,3,16;
 1/6=900,7=10,18=20,19=15,26=3/3(-5);
 2/9=110,16=3/2;
 6/7=2,8=2,9=2,10=2,19=2,28=1/1;
 99/9=1/99;
 Leave Link    1 at Thu Sep 26 12:19:40 2019, MaxMem=   671088640 cpu:               5.8 elap:               2.9
 (Enter /shared/centos7/gaussian/g16/l101.exe)
 ------------------------------
 Gaussian input prepared by ASE
 ------------------------------
 Symbolic Z-matrix:
 Charge =  0 Multiplicity = 1
 O                     3.61075  -2.77265   0.51972 
 O                     1.58942  -0.19834   2.11724 
 C                     3.16613  -3.58457  -0.54657 
 C                     2.73916  -4.9445    0.00599 
 C                     4.18557  -3.66775  -1.63463 
 C                     2.81406  -1.666     0.70551 
 C                     2.32381  -1.34831   1.8686 
 H                     2.24742  -3.10482  -0.98494 
 H                     3.05763  -5.04056   1.06502 
 H                     1.64139  -5.06976  -0.0205 
 H                     3.1962   -5.79686  -0.56603 
 H                     4.75291  -4.6448   -1.62126 
 H                     4.92885  -2.84801  -1.54723 
 H                     3.70893  -3.5751   -2.65139 
 H                     2.67315  -1.02888  -0.18217 
 H                     2.45257  -1.94555   2.75919 
 H                     1.59128   0.34211   1.27481 
 
 ITRead=  0  0  0  0  0  0  0  0  0  0  0  0  0  0  0  0  0
 MicOpt= -1 -1 -1 -1 -1 -1 -1 -1 -1 -1 -1 -1 -1 -1 -1 -1 -1
 NAtoms=     17 NQM=       17 NQMF=       0 NMMI=      0 NMMIF=      0
                NMic=       0 NMicF=      0.
                    Isotopes and Nuclear Properties:
 (Nuclear quadrupole moments (NQMom) in fm**2, nuclear magnetic moments (NMagM)
  in nuclear magnetons)

  Atom         1           2           3           4           5           6           7           8           9          10
 IAtWgt=          16          16          12          12          12          12          12           1           1           1
 AtmWgt=  15.9949146  15.9949146  12.0000000  12.0000000  12.0000000  12.0000000  12.0000000   1.0078250   1.0078250   1.0078250
 NucSpn=           0           0           0           0           0           0           0           1           1           1
 AtZEff=  -0.0000000  -0.0000000  -0.0000000  -0.0000000  -0.0000000  -0.0000000  -0.0000000  -0.0000000  -0.0000000  -0.0000000
 NQMom=    0.0000000   0.0000000   0.0000000   0.0000000   0.0000000   0.0000000   0.0000000   0.0000000   0.0000000   0.0000000
 NMagM=    0.0000000   0.0000000   0.0000000   0.0000000   0.0000000   0.0000000   0.0000000   2.7928460   2.7928460   2.7928460
 AtZNuc=   8.0000000   8.0000000   6.0000000   6.0000000   6.0000000   6.0000000   6.0000000   1.0000000   1.0000000   1.0000000

  Atom        11          12          13          14          15          16          17
 IAtWgt=           1           1           1           1           1           1           1
 AtmWgt=   1.0078250   1.0078250   1.0078250   1.0078250   1.0078250   1.0078250   1.0078250
 NucSpn=           1           1           1           1           1           1           1
 AtZEff=  -0.0000000  -0.0000000  -0.0000000  -0.0000000  -0.0000000  -0.0000000  -0.0000000
 NQMom=    0.0000000   0.0000000   0.0000000   0.0000000   0.0000000   0.0000000   0.0000000
 NMagM=    2.7928460   2.7928460   2.7928460   2.7928460   2.7928460   2.7928460   2.7928460
 AtZNuc=   1.0000000   1.0000000   1.0000000   1.0000000   1.0000000   1.0000000   1.0000000
 Leave Link  101 at Thu Sep 26 12:19:42 2019, MaxMem=   671088640 cpu:               2.7 elap:               1.4
 (Enter /shared/centos7/gaussian/g16/l103.exe)

 GradGradGradGradGradGradGradGradGradGradGradGradGradGradGradGradGradGrad
 Berny optimization.
 Initialization pass.
                           ----------------------------
                           !    Initial Parameters    !
                           ! (Angstroms and Degrees)  !
 --------------------------                            --------------------------
 ! Name  Definition              Value          Derivative Info.                !
 --------------------------------------------------------------------------------
 ! R1    R(1,3)                  1.412          calculate D2E/DX2 analytically  !
 ! R2    R(1,6)                  1.3762         calculate D2E/DX2 analytically  !
 ! R3    R(2,7)                  1.3869         calculate D2E/DX2 analytically  !
 ! R4    R(2,17)                 1.0009         calculate D2E/DX2 analytically  !
 ! R5    R(3,4)                  1.5287         calculate D2E/DX2 analytically  !
 ! R6    R(3,5)                  1.4933         calculate D2E/DX2 analytically  !
 ! R7    R(3,8)                  1.1253         calculate D2E/DX2 analytically  !
 ! R8    R(4,9)                  1.1101         calculate D2E/DX2 analytically  !
 ! R9    R(4,10)                 1.1052         calculate D2E/DX2 analytically  !
 ! R10   R(4,11)                 1.1237         calculate D2E/DX2 analytically  !
 ! R11   R(5,12)                 1.1299         calculate D2E/DX2 analytically  !
 ! R12   R(5,13)                 1.11           calculate D2E/DX2 analytically  !
 ! R13   R(5,14)                 1.1267         calculate D2E/DX2 analytically  !
 ! R14   R(6,7)                  1.3016         calculate D2E/DX2 analytically  !
 ! R15   R(6,15)                 1.1017         calculate D2E/DX2 analytically  !
 ! R16   R(7,16)                 1.08           calculate D2E/DX2 analytically  !
 ! A1    A(3,1,6)              112.4598         calculate D2E/DX2 analytically  !
 ! A2    A(7,2,17)             107.2076         calculate D2E/DX2 analytically  !
 ! A3    A(1,3,4)              109.0568         calculate D2E/DX2 analytically  !
 ! A4    A(1,3,5)              111.5475         calculate D2E/DX2 analytically  !
 ! A5    A(1,3,8)              107.8242         calculate D2E/DX2 analytically  !
 ! A6    A(4,3,5)              113.8579         calculate D2E/DX2 analytically  !
 ! A7    A(4,3,8)              106.9796         calculate D2E/DX2 analytically  !
 ! A8    A(5,3,8)              107.2917         calculate D2E/DX2 analytically  !
 ! A9    A(3,4,9)              109.98           calculate D2E/DX2 analytically  !
 ! A10   A(3,4,10)             111.6895         calculate D2E/DX2 analytically  !
 ! A11   A(3,4,11)             112.16           calculate D2E/DX2 analytically  !
 ! A12   A(9,4,10)             107.3386         calculate D2E/DX2 analytically  !
 ! A13   A(9,4,11)             107.6579         calculate D2E/DX2 analytically  !
 ! A14   A(10,4,11)            107.8083         calculate D2E/DX2 analytically  !
 ! A15   A(3,5,12)             112.4772         calculate D2E/DX2 analytically  !
 ! A16   A(3,5,13)             111.0153         calculate D2E/DX2 analytically  !
 ! A17   A(3,5,14)             111.3536         calculate D2E/DX2 analytically  !
 ! A18   A(12,5,13)            107.5445         calculate D2E/DX2 analytically  !
 ! A19   A(12,5,14)            107.1087         calculate D2E/DX2 analytically  !
 ! A20   A(13,5,14)            107.0736         calculate D2E/DX2 analytically  !
 ! A21   A(1,6,7)              122.342          calculate D2E/DX2 analytically  !
 ! A22   A(1,6,15)             115.4873         calculate D2E/DX2 analytically  !
 ! A23   A(7,6,15)             122.0513         calculate D2E/DX2 analytically  !
 ! A24   A(2,7,6)              124.1965         calculate D2E/DX2 analytically  !
 ! A25   A(2,7,16)             111.9504         calculate D2E/DX2 analytically  !
 ! A26   A(6,7,16)             123.8488         calculate D2E/DX2 analytically  !
 ! D1    D(6,1,3,4)           -115.7965         calculate D2E/DX2 analytically  !
 ! D2    D(6,1,3,5)            117.5856         calculate D2E/DX2 analytically  !
 ! D3    D(6,1,3,8)              0.0277         calculate D2E/DX2 analytically  !
 ! D4    D(3,1,6,7)            129.076          calculate D2E/DX2 analytically  !
 ! D5    D(3,1,6,15)           -54.8239         calculate D2E/DX2 analytically  !
 ! D6    D(17,2,7,6)            -4.8108         calculate D2E/DX2 analytically  !
 ! D7    D(17,2,7,16)          174.4613         calculate D2E/DX2 analytically  !
 ! D8    D(1,3,4,9)            -10.7984         calculate D2E/DX2 analytically  !
 ! D9    D(1,3,4,10)           108.2713         calculate D2E/DX2 analytically  !
 ! D10   D(1,3,4,11)          -130.5723         calculate D2E/DX2 analytically  !
 ! D11   D(5,3,4,9)            114.4867         calculate D2E/DX2 analytically  !
 ! D12   D(5,3,4,10)          -126.4436         calculate D2E/DX2 analytically  !
 ! D13   D(5,3,4,11)            -5.2872         calculate D2E/DX2 analytically  !
 ! D14   D(8,3,4,9)           -127.163          calculate D2E/DX2 analytically  !
 ! D15   D(8,3,4,10)            -8.0933         calculate D2E/DX2 analytically  !
 ! D16   D(8,3,4,11)           113.0631         calculate D2E/DX2 analytically  !
 ! D17   D(1,3,5,12)           102.7552         calculate D2E/DX2 analytically  !
 ! D18   D(1,3,5,13)           -17.8037         calculate D2E/DX2 analytically  !
 ! D19   D(1,3,5,14)          -137.0064         calculate D2E/DX2 analytically  !
 ! D20   D(4,3,5,12)           -21.1949         calculate D2E/DX2 analytically  !
 ! D21   D(4,3,5,13)          -141.7539         calculate D2E/DX2 analytically  !
 ! D22   D(4,3,5,14)            99.0434         calculate D2E/DX2 analytically  !
 ! D23   D(8,3,5,12)          -139.3662         calculate D2E/DX2 analytically  !
 ! D24   D(8,3,5,13)           100.0748         calculate D2E/DX2 analytically  !
 ! D25   D(8,3,5,14)           -19.1279         calculate D2E/DX2 analytically  !
 ! D26   D(1,6,7,2)            175.676          calculate D2E/DX2 analytically  !
 ! D27   D(1,6,7,16)            -3.5111         calculate D2E/DX2 analytically  !
 ! D28   D(15,6,7,2)            -0.17           calculate D2E/DX2 analytically  !
 ! D29   D(15,6,7,16)         -179.3572         calculate D2E/DX2 analytically  !
 --------------------------------------------------------------------------------
 Trust Radius=3.00D-01 FncErr=1.00D-07 GrdErr=1.00D-06 EigMax=2.50D+02 EigMin=1.00D-04
 Number of steps in this run=    102 maximum allowed number of steps=    102.
 GradGradGradGradGradGradGradGradGradGradGradGradGradGradGradGradGradGrad

 Leave Link  103 at Thu Sep 26 12:19:42 2019, MaxMem=   671088640 cpu:               1.4 elap:               0.7
 (Enter /shared/centos7/gaussian/g16/l202.exe)
                          Input orientation:                          
 ---------------------------------------------------------------------
 Center     Atomic      Atomic             Coordinates (Angstroms)
 Number     Number       Type             X           Y           Z
 ---------------------------------------------------------------------
      1          8           0        3.610750   -2.772649    0.519719
      2          8           0        1.589417   -0.198342    2.117241
      3          6           0        3.166125   -3.584571   -0.546569
      4          6           0        2.739159   -4.944495    0.005987
      5          6           0        4.185570   -3.667749   -1.634633
      6          6           0        2.814062   -1.666003    0.705506
      7          6           0        2.323814   -1.348310    1.868596
      8          1           0        2.247418   -3.104825   -0.984937
      9          1           0        3.057630   -5.040559    1.065025
     10          1           0        1.641391   -5.069758   -0.020496
     11          1           0        3.196204   -5.796864   -0.566034
     12          1           0        4.752912   -4.644801   -1.621263
     13          1           0        4.928846   -2.848008   -1.547228
     14          1           0        3.708928   -3.575103   -2.651389
     15          1           0        2.673146   -1.028884   -0.182165
     16          1           0        2.452569   -1.945549    2.759186
     17          1           0        1.591283    0.342112    1.274810
 ---------------------------------------------------------------------
                    Distance matrix (angstroms):
                    1          2          3          4          5
     1  O    0.000000
     2  O    3.642103   0.000000
     3  C    1.412047   4.587857   0.000000
     4  C    2.395935   5.320269   1.528729   0.000000
     5  C    2.402677   5.731784   1.493342   2.532552   0.000000
     6  C    1.376189   2.376295   2.317875   3.353126   3.371094
     7  C    2.346149   1.386935   3.397554   4.071164   4.595492
     8  H    2.057426   4.301641   1.125320   2.146655   2.120240
     9  H    2.397230   5.168159   2.174604   1.110050   3.231874
    10  H    3.073583   5.320085   2.192566   1.105209   3.323238
    11  H    3.239843   6.412891   2.212583   1.123668   2.579511
    12  H    3.064848   6.614764   2.190193   2.606331   1.129905
    13  H    2.452617   5.621463   2.156624   3.406239   1.109989
    14  H    3.272536   6.215678   2.173704   3.142823   1.126748
    15  H    2.100585   2.674236   2.628185   3.920685   3.370563
    16  H    2.653430   2.051794   3.758134   4.081166   5.027416
    17  H    3.788158   1.000891   4.606125   5.556595   5.592331
                    6          7          8          9         10
     6  C    0.000000
     7  C    1.301558   0.000000
     8  H    2.291046   3.351691   0.000000
     9  H    3.402383   3.849274   2.933573   0.000000
    10  H    3.672572   4.228894   2.271206   1.784640   0.000000
    11  H    4.338993   5.145689   2.884917   1.803206   1.801038
    12  H    4.248086   5.380194   3.008976   3.201054   3.524855
    13  H    3.308211   4.550071   2.751760   3.890064   4.251405
    14  H    3.964112   5.225649   2.265884   4.047651   3.664737
    15  H    1.101697   2.104683   2.266102   4.218631   4.173645
    16  H    2.103908   1.080011   3.924852   3.579855   4.259732
    17  H    2.419053   1.935642   4.173529   5.582770   5.564949
                   11         12         13         14         15
    11  H    0.000000
    12  H    2.205470   0.000000
    13  H    3.558165   1.806903   0.000000
    14  H    3.089953   1.815300   1.798898   0.000000
    15  H    4.811920   4.412627   3.203247   3.695015   0.000000
    16  H    5.142247   5.636122   5.048920   5.788627   3.088767
    17  H    6.606928   6.576658   5.411109   5.936668   2.274387
                   16         17
    16  H    0.000000
    17  H    2.859821   0.000000
 Stoichiometry    C5H10O2
 Framework group  C1[X(C5H10O2)]
 Deg. of freedom    45
 Full point group                 C1      NOp   1
 Largest Abelian subgroup         C1      NOp   1
 Largest concise Abelian subgroup C1      NOp   1
                         Standard orientation:                         
 ---------------------------------------------------------------------
 Center     Atomic      Atomic             Coordinates (Angstroms)
 Number     Number       Type             X           Y           Z
 ---------------------------------------------------------------------
      1          8           0        0.248877   -0.147099   -0.663170
      2          8           0       -3.266055    0.008850    0.278023
      3          6           0        1.321560   -0.026692    0.247176
      4          6           0        1.868422    1.399665    0.188359
      5          6           0        2.355420   -1.079844    0.018974
      6          6           0       -0.947443   -0.407165   -0.034618
      7          6           0       -2.021946    0.289643   -0.266896
      8          1           0        0.912031   -0.179133    1.284188
      9          1           0        1.432186    1.937665   -0.679089
     10          1           0        1.609525    1.974142    1.096343
     11          1           0        2.986206    1.420716    0.075458
     12          1           0        3.263247   -0.683417   -0.524517
     13          1           0        1.944520   -1.917306   -0.582601
     14          1           0        2.716752   -1.517778    0.992223
     15          1           0       -0.953073   -1.286793    0.628678
     16          1           0       -2.051700    1.150047   -0.919002
     17          1           0       -3.178346   -0.845792    0.791516
 ---------------------------------------------------------------------
 Rotational constants (GHZ):           6.4844255           1.1780603           1.0686878
 Leave Link  202 at Thu Sep 26 12:19:44 2019, MaxMem=   671088640 cpu:               3.5 elap:               1.8
 (Enter /shared/centos7/gaussian/g16/l301.exe)
 Standard basis: CC-pVTZ (5D, 7F)
 Ernie: Thresh=  0.10000D-02 Tol=  0.10000D-05 Strict=F.
 Ernie:  21 primitive shells out of 262 were deleted.
 There are   395 symmetry adapted cartesian basis functions of A   symmetry.
 There are   350 symmetry adapted basis functions of A   symmetry.
   350 basis functions,   534 primitive gaussians,   395 cartesian basis functions
    28 alpha electrons       28 beta electrons
       nuclear repulsion energy       307.3397137494 Hartrees.
 IExCor= 4336 DFT=T Ex+Corr=M062X ExCW=0 ScaHFX=  0.540000
 ScaDFX=  1.000000  1.000000  1.000000  1.000000 ScalE2=  1.000000  1.000000
 IRadAn=      5 IRanWt=     -1 IRanGd=            0 ICorTp=0 IEmpDi=  4
 NAtoms=   17 NActive=   17 NUniq=   17 SFac= 1.00D+00 NAtFMM=   60 NAOKFM=F Big=F
 Integral buffers will be    131072 words long.
 Raffenetti 2 integral format.
 Two-electron integral symmetry is turned on.
 Leave Link  301 at Thu Sep 26 12:19:45 2019, MaxMem=   671088640 cpu:               1.9 elap:               1.0
 (Enter /shared/centos7/gaussian/g16/l302.exe)
 NPDir=0 NMtPBC=     1 NCelOv=     1 NCel=       1 NClECP=     1 NCelD=      1
         NCelK=      1 NCelE2=     1 NClLst=     1 CellRange=     0.0.
 One-electron integrals computed using PRISM.
 One-electron integral symmetry used in STVInt
 NBasis=   350 RedAO= T EigKep=  2.47D-04  NBF=   350
 NBsUse=   350 1.00D-06 EigRej= -1.00D+00 NBFU=   350
 Precomputing XC quadrature grid using
 IXCGrd= 4 IRadAn=           5 IRanWt=          -1 IRanGd=           0 AccXCQ= 0.00D+00.
 Generated NRdTot=       0 NPtTot=           0 NUsed=           0 NTot=          32
 NSgBfM=   395   395   395   395   395 MxSgAt=    17 MxSgA2=    17.
 Leave Link  302 at Thu Sep 26 12:20:47 2019, MaxMem=   671088640 cpu:             122.6 elap:              61.4
 (Enter /shared/centos7/gaussian/g16/l303.exe)
 DipDrv:  MaxL=1.
 Leave Link  303 at Thu Sep 26 12:20:52 2019, MaxMem=   671088640 cpu:              10.1 elap:               5.1
 (Enter /shared/centos7/gaussian/g16/l401.exe)
 ExpMin= 1.03D-01 ExpMax= 1.53D+04 ExpMxC= 5.22D+02 IAcc=3 IRadAn=         5 AccDes= 0.00D+00
 Harris functional with IExCor= 1009 and IRadAn=       5 diagonalized for initial guess.
 HarFok:  IExCor= 1009 AccDes= 0.00D+00 IRadAn=         5 IDoV= 1 UseB2=F ITyADJ=14
 ICtDFT=  3500011 ScaDFX=  1.000000  1.000000  1.000000  1.000000
 FoFCou: FMM=F IPFlag=           0 FMFlag=      100000 FMFlg1=           0
         NFxFlg=           0 DoJE=T BraDBF=F KetDBF=T FulRan=T
         wScrn=  0.000000 ICntrl=       500 IOpCl=  0 I1Cent=   200000004 NGrid=           0
         NMat0=    1 NMatS0=      1 NMatT0=    0 NMatD0=    1 NMtDS0=    0 NMtDT0=    0
 Petite list used in FoFCou.
 Harris En= -346.805692708935    
 JPrj=0 DoOrth=F DoCkMO=F.
 Leave Link  401 at Thu Sep 26 12:21:23 2019, MaxMem=   671088640 cpu:              62.6 elap:              31.3
 (Enter /shared/centos7/gaussian/g16/l502.exe)
 Integral symmetry usage will be decided dynamically.
 Closed shell SCF:
 Using DIIS extrapolation, IDIIS=  1040.
 NGot=   671088640 LenX=   670765141 LenY=   670608675
 Requested convergence on RMS density matrix=1.00D-08 within 900 cycles.
 Requested convergence on MAX density matrix=1.00D-06.
 Requested convergence on             energy=1.00D-06.
 No special actions if energy rises.
 Fock matrices will be formed incrementally for  20 cycles.
 Integral accuracy reduced to 1.0D-05 until final iterations.

 Cycle   1  Pass 0  IDiag  1:
 FoFJK:  IHMeth= 1 ICntrl=       0 DoSepK=F KAlg= 0 I1Cent=           0 FoldK=F
 IRaf= 930000000 NMat=       1 IRICut=       1 DoRegI=T DoRafI=F ISym2E= 0 IDoP0=0 IntGTp=1.
 FoFCou: FMM=F IPFlag=           0 FMFlag=      100000 FMFlg1=           0
         NFxFlg=           0 DoJE=F BraDBF=F KetDBF=F FulRan=T
         wScrn=  0.000000 ICntrl=         0 IOpCl=  0 I1Cent=           0 NGrid=           0
         NMat0=    1 NMatS0=      1 NMatT0=    0 NMatD0=    1 NMtDS0=    0 NMtDT0=    0
 Symmetry not used in FoFCou.
 E= -346.689595999411    
 DIIS: error= 2.62D-02 at cycle   1 NSaved=   1.
 NSaved= 1 IEnMin= 1 EnMin= -346.689595999411     IErMin= 1 ErrMin= 2.62D-02
 ErrMax= 2.62D-02  0.00D+00 EMaxC= 1.00D-01 BMatC= 2.86D-01 BMatP= 2.86D-01
 IDIUse=3 WtCom= 7.38D-01 WtEn= 2.62D-01
 Coeff-Com:  0.100D+01
 Coeff-En:   0.100D+01
 Coeff:      0.100D+01
 Gap=     0.348 Goal=   None    Shift=    0.000
 GapD=    0.348 DampG=1.000 DampE=0.500 DampFc=0.5000 IDamp=-1.
 Damping current iteration by 5.00D-01
 RMSDP=1.88D-03 MaxDP=6.95D-02              OVMax= 1.39D-01

 Cycle   2  Pass 0  IDiag  1:
 RMSU=  9.39D-04    CP:  9.97D-01
 E= -346.809722807161     Delta-E=       -0.120126807750 Rises=F Damp=T
 DIIS: error= 3.90D-03 at cycle   2 NSaved=   2.
 NSaved= 2 IEnMin= 2 EnMin= -346.809722807161     IErMin= 2 ErrMin= 3.90D-03
 ErrMax= 3.90D-03  0.00D+00 EMaxC= 1.00D-01 BMatC= 2.08D-02 BMatP= 2.86D-01
 IDIUse=3 WtCom= 9.61D-01 WtEn= 3.90D-02
 Coeff-Com: -0.134D+00 0.113D+01
 Coeff-En:   0.000D+00 0.100D+01
 Coeff:     -0.129D+00 0.113D+01
 Gap=     0.342 Goal=   None    Shift=    0.000
 RMSDP=4.29D-04 MaxDP=1.44D-02 DE=-1.20D-01 OVMax= 7.58D-02

 Cycle   3  Pass 0  IDiag  1:
 RMSU=  4.27D-04    CP:  1.00D+00  1.02D+00
 E= -346.917491792492     Delta-E=       -0.107768985331 Rises=F Damp=F
 DIIS: error= 2.55D-03 at cycle   3 NSaved=   3.
 NSaved= 3 IEnMin= 3 EnMin= -346.917491792492     IErMin= 3 ErrMin= 2.55D-03
 ErrMax= 2.55D-03  0.00D+00 EMaxC= 1.00D-01 BMatC= 3.17D-03 BMatP= 2.08D-02
 IDIUse=3 WtCom= 9.74D-01 WtEn= 2.55D-02
 Coeff-Com: -0.793D-01 0.292D+00 0.787D+00
 Coeff-En:   0.000D+00 0.000D+00 0.100D+01
 Coeff:     -0.773D-01 0.284D+00 0.793D+00
 Gap=     0.342 Goal=   None    Shift=    0.000
 RMSDP=1.18D-04 MaxDP=4.42D-03 DE=-1.08D-01 OVMax= 1.25D-02

 Cycle   4  Pass 0  IDiag  1:
 RMSU=  1.05D-04    CP:  1.00D+00  1.07D+00  9.46D-01
 E= -346.919073577599     Delta-E=       -0.001581785107 Rises=F Damp=F
 DIIS: error= 1.29D-03 at cycle   4 NSaved=   4.
 NSaved= 4 IEnMin= 4 EnMin= -346.919073577599     IErMin= 4 ErrMin= 1.29D-03
 ErrMax= 1.29D-03  0.00D+00 EMaxC= 1.00D-01 BMatC= 1.04D-03 BMatP= 3.17D-03
 IDIUse=3 WtCom= 9.87D-01 WtEn= 1.29D-02
 Coeff-Com: -0.275D-01 0.703D-01 0.408D+00 0.549D+00
 Coeff-En:   0.000D+00 0.000D+00 0.220D+00 0.780D+00
 Coeff:     -0.272D-01 0.694D-01 0.406D+00 0.552D+00
 Gap=     0.338 Goal=   None    Shift=    0.000
 RMSDP=4.88D-05 MaxDP=2.08D-03 DE=-1.58D-03 OVMax= 6.90D-03

 Cycle   5  Pass 0  IDiag  1:
 RMSU=  2.52D-05    CP:  1.00D+00  1.07D+00  9.75D-01  6.19D-01
 E= -346.919852249683     Delta-E=       -0.000778672084 Rises=F Damp=F
 DIIS: error= 2.65D-04 at cycle   5 NSaved=   5.
 NSaved= 5 IEnMin= 5 EnMin= -346.919852249683     IErMin= 5 ErrMin= 2.65D-04
 ErrMax= 2.65D-04  0.00D+00 EMaxC= 1.00D-01 BMatC= 1.91D-05 BMatP= 1.04D-03
 IDIUse=3 WtCom= 9.97D-01 WtEn= 2.65D-03
 Coeff-Com: -0.417D-02 0.810D-02 0.908D-01 0.184D+00 0.722D+00
 Coeff-En:   0.000D+00 0.000D+00 0.000D+00 0.000D+00 0.100D+01
 Coeff:     -0.416D-02 0.808D-02 0.905D-01 0.183D+00 0.722D+00
 Gap=     0.338 Goal=   None    Shift=    0.000
 RMSDP=1.16D-05 MaxDP=2.74D-04 DE=-7.79D-04 OVMax= 1.50D-03

 Cycle   6  Pass 0  IDiag  1:
 RMSU=  9.30D-06    CP:  1.00D+00  1.07D+00  9.84D-01  6.54D-01  8.82D-01
 E= -346.919866076646     Delta-E=       -0.000013826963 Rises=F Damp=F
 DIIS: error= 7.05D-05 at cycle   6 NSaved=   6.
 NSaved= 6 IEnMin= 6 EnMin= -346.919866076646     IErMin= 6 ErrMin= 7.05D-05
 ErrMax= 7.05D-05  0.00D+00 EMaxC= 1.00D-01 BMatC= 2.80D-06 BMatP= 1.91D-05
 IDIUse=1 WtCom= 1.00D+00 WtEn= 0.00D+00
 Coeff-Com:  0.311D-03-0.193D-02 0.111D-01 0.472D-01 0.326D+00 0.618D+00
 Coeff:      0.311D-03-0.193D-02 0.111D-01 0.472D-01 0.326D+00 0.618D+00
 Gap=     0.338 Goal=   None    Shift=    0.000
 RMSDP=3.61D-06 MaxDP=1.41D-04 DE=-1.38D-05 OVMax= 6.22D-04

 Initial convergence to 1.0D-05 achieved.  Increase integral accuracy.
 Cycle   7  Pass 1  IDiag  1:
 E= -346.919859672221     Delta-E=        0.000006404425 Rises=F Damp=F
 DIIS: error= 1.98D-05 at cycle   1 NSaved=   1.
 NSaved= 1 IEnMin= 1 EnMin= -346.919859672221     IErMin= 1 ErrMin= 1.98D-05
 ErrMax= 1.98D-05  0.00D+00 EMaxC= 1.00D-01 BMatC= 7.09D-07 BMatP= 7.09D-07
 IDIUse=1 WtCom= 1.00D+00 WtEn= 0.00D+00
 Coeff-Com:  0.100D+01
 Coeff:      0.100D+01
 Gap=     0.338 Goal=   None    Shift=    0.000
 RMSDP=3.61D-06 MaxDP=1.41D-04 DE= 6.40D-06 OVMax= 3.07D-04

 Cycle   8  Pass 1  IDiag  1:
 RMSU=  9.60D-06    CP:  1.00D+00
 E= -346.919859915006     Delta-E=       -0.000000242785 Rises=F Damp=F
 DIIS: error= 2.18D-05 at cycle   2 NSaved=   2.
 NSaved= 2 IEnMin= 2 EnMin= -346.919859915006     IErMin= 1 ErrMin= 1.98D-05
 ErrMax= 2.18D-05  0.00D+00 EMaxC= 1.00D-01 BMatC= 2.86D-07 BMatP= 7.09D-07
 IDIUse=1 WtCom= 1.00D+00 WtEn= 0.00D+00
 Coeff-Com:  0.344D+00 0.656D+00
 Coeff:      0.344D+00 0.656D+00
 Gap=     0.338 Goal=   None    Shift=    0.000
 RMSDP=1.48D-06 MaxDP=4.87D-05 DE=-2.43D-07 OVMax= 2.99D-04

 Cycle   9  Pass 1  IDiag  1:
 RMSU=  1.48D-06    CP:  1.00D+00  9.97D-01
 E= -346.919860070902     Delta-E=       -0.000000155896 Rises=F Damp=F
 DIIS: error= 1.38D-05 at cycle   3 NSaved=   3.
 NSaved= 3 IEnMin= 3 EnMin= -346.919860070902     IErMin= 3 ErrMin= 1.38D-05
 ErrMax= 1.38D-05  0.00D+00 EMaxC= 1.00D-01 BMatC= 9.83D-08 BMatP= 2.86D-07
 IDIUse=1 WtCom= 1.00D+00 WtEn= 0.00D+00
 Coeff-Com: -0.220D-01 0.367D+00 0.655D+00
 Coeff:     -0.220D-01 0.367D+00 0.655D+00
 Gap=     0.338 Goal=   None    Shift=    0.000
 RMSDP=6.40D-07 MaxDP=1.92D-05 DE=-1.56D-07 OVMax= 1.07D-04

 Cycle  10  Pass 1  IDiag  1:
 RMSU=  2.89D-07    CP:  1.00D+00  1.03D+00  6.74D-01
 E= -346.919860150052     Delta-E=       -0.000000079150 Rises=F Damp=F
 DIIS: error= 1.05D-06 at cycle   4 NSaved=   4.
 NSaved= 4 IEnMin= 4 EnMin= -346.919860150052     IErMin= 4 ErrMin= 1.05D-06
 ErrMax= 1.05D-06  0.00D+00 EMaxC= 1.00D-01 BMatC= 6.79D-10 BMatP= 9.83D-08
 IDIUse=1 WtCom= 1.00D+00 WtEn= 0.00D+00
 Coeff-Com: -0.113D-01 0.114D+00 0.218D+00 0.679D+00
 Coeff:     -0.113D-01 0.114D+00 0.218D+00 0.679D+00
 Gap=     0.338 Goal=   None    Shift=    0.000
 RMSDP=6.20D-08 MaxDP=3.26D-06 DE=-7.92D-08 OVMax= 6.01D-06

 Cycle  11  Pass 1  IDiag  1:
 RMSU=  5.78D-08    CP:  1.00D+00  1.03D+00  6.77D-01  1.06D+00
 E= -346.919860150630     Delta-E=       -0.000000000577 Rises=F Damp=F
 DIIS: error= 3.77D-07 at cycle   5 NSaved=   5.
 NSaved= 5 IEnMin= 5 EnMin= -346.919860150630     IErMin= 5 ErrMin= 3.77D-07
 ErrMax= 3.77D-07  0.00D+00 EMaxC= 1.00D-01 BMatC= 1.13D-10 BMatP= 6.79D-10
 IDIUse=1 WtCom= 1.00D+00 WtEn= 0.00D+00
 Coeff-Com: -0.629D-05-0.293D-01-0.463D-01 0.242D+00 0.833D+00
 Coeff:     -0.629D-05-0.293D-01-0.463D-01 0.242D+00 0.833D+00
 Gap=     0.338 Goal=   None    Shift=    0.000
 RMSDP=3.60D-08 MaxDP=1.08D-06 DE=-5.77D-10 OVMax= 3.36D-06

 Cycle  12  Pass 1  IDiag  1:
 RMSU=  1.95D-08    CP:  1.00D+00  1.03D+00  6.82D-01  1.16D+00  9.85D-01
 E= -346.919860150744     Delta-E=       -0.000000000114 Rises=F Damp=F
 DIIS: error= 1.19D-07 at cycle   6 NSaved=   6.
 NSaved= 6 IEnMin= 6 EnMin= -346.919860150744     IErMin= 6 ErrMin= 1.19D-07
 ErrMax= 1.19D-07  0.00D+00 EMaxC= 1.00D-01 BMatC= 8.66D-12 BMatP= 1.13D-10
 IDIUse=1 WtCom= 1.00D+00 WtEn= 0.00D+00
 Coeff-Com:  0.868D-03-0.186D-01-0.330D-01 0.404D-01 0.301D+00 0.710D+00
 Coeff:      0.868D-03-0.186D-01-0.330D-01 0.404D-01 0.301D+00 0.710D+00
 Gap=     0.338 Goal=   None    Shift=    0.000
 RMSDP=8.47D-09 MaxDP=2.95D-07 DE=-1.14D-10 OVMax= 8.53D-07

 SCF Done:  E(RM062X) =  -346.919860151     A.U. after   12 cycles
            NFock= 12  Conv=0.85D-08     -V/T= 2.0062
 KE= 3.447801856403D+02 PE=-1.424694776823D+03 EE= 4.256550172829D+02
 Leave Link  502 at Thu Sep 26 12:31:02 2019, MaxMem=   671088640 cpu:            1157.4 elap:             578.8
 (Enter /shared/centos7/gaussian/g16/l801.exe)
 DoSCS=F DFT=T ScalE2(SS,OS)=  1.000000  1.000000
 Range of M.O.s used for correlation:     1   350
 NBasis=   350 NAE=    28 NBE=    28 NFC=     0 NFV=     0
 NROrb=    350 NOA=    28 NOB=    28 NVA=   322 NVB=   322

 **** Warning!!: The largest alpha MO coefficient is  0.12683377D+02

 Leave Link  801 at Thu Sep 26 12:31:02 2019, MaxMem=   671088640 cpu:               1.5 elap:               0.8
 (Enter /shared/centos7/gaussian/g16/l1101.exe)
 Using compressed storage, NAtomX=    17.
 Will process     18 centers per pass.
 Leave Link 1101 at Thu Sep 26 12:31:39 2019, MaxMem=   671088640 cpu:              73.0 elap:              36.5
 (Enter /shared/centos7/gaussian/g16/l1102.exe)
 Symmetrizing basis deriv contribution to polar:
 IMax=3 JMax=2 DiffMx= 0.00D+00
 Leave Link 1102 at Thu Sep 26 12:31:41 2019, MaxMem=   671088640 cpu:               4.8 elap:               2.4
 (Enter /shared/centos7/gaussian/g16/l1110.exe)
 Forming Gx(P) for the SCF density, NAtomX=    17.
 Integral derivatives from FoFJK, PRISM(SPDF).
 Do as many integral derivatives as possible in FoFJK.
 G2DrvN: MDV=     671087280.
 G2DrvN: will do    18 centers at a time, making    1 passes.
 Calling FoFCou, ICntrl=  3107 FMM=F I1Cent=   0 AccDes= 0.00D+00.
 FoFJK:  IHMeth= 1 ICntrl=    3107 DoSepK=F KAlg= 0 I1Cent=           0 FoldK=F
 IRaf=         0 NMat=       1 IRICut=       1 DoRegI=T DoRafI=F ISym2E= 0 IDoP0=0 IntGTp=1.
 FoFCou: FMM=F IPFlag=           0 FMFlag=      100000 FMFlg1=           0
         NFxFlg=           0 DoJE=F BraDBF=F KetDBF=F FulRan=T
         wScrn=  0.000000 ICntrl=      3107 IOpCl=  0 I1Cent=           0 NGrid=           0
         NMat0=    1 NMatS0=      1 NMatT0=    0 NMatD0=    1 NMtDS0=    0 NMtDT0=    0
 Symmetry not used in FoFCou.
 End of G2Drv F.D. properties file   721 does not exist.
 End of G2Drv F.D. properties file   722 does not exist.
 End of G2Drv F.D. properties file   788 does not exist.
 Leave Link 1110 at Thu Sep 26 12:49:53 2019, MaxMem=   671088640 cpu:            2182.5 elap:            1091.4
 (Enter /shared/centos7/gaussian/g16/l1002.exe)
 Minotr:  Closed shell wavefunction.
          IDoAtm=11111111111111111
          Direct CPHF calculation.
          Differentiating once with respect to nuclear coordinates.
          Requested convergence is 1.0D-08 RMS, and 1.0D-07 maximum.
          Secondary convergence is 1.0D-12 RMS, and 1.0D-12 maximum.
          NewPWx=T KeepS1=F KeepF1=F KeepIn=T MapXYZ=F SortEE=F KeepMc=T.
         5130 words used for storage of precomputed grid.
 Two-electron integrals replicated using symmetry.
          MDV=     671088640 using IRadAn=       1.
          Solving linear equations simultaneously, MaxMat=     380.
 FoF2E skips out because all densities are zero.
 CalDSu exits because no D1Ps are significant.
 FoFJK:  IHMeth= 1 ICntrl=       0 DoSepK=F KAlg= 0 I1Cent=           0 FoldK=F
 IRaf= 920000000 NMat=      51 IRICut=     127 DoRegI=T DoRafI=T ISym2E= 2 IDoP0=3 IntGTp=3.
 FoFCou: FMM=F IPFlag=           0 FMFlag=      100000 FMFlg1=           0
         NFxFlg=           0 DoJE=F BraDBF=F KetDBF=F FulRan=T
         wScrn=  0.000000 ICntrl=         0 IOpCl=  0 I1Cent=           0 NGrid=           0
         NMat0=   51 NMatS0=     51 NMatT0=    0 NMatD0=   51 NMtDS0=    0 NMtDT0=    0
 Integrals replicated using symmetry in FoFCou.
 Raff kept on since  88.40% of shell-pairs survive, threshold=   0.20 IRatSp=88.
          There are    54 degrees of freedom in the 1st order CPHF.  IDoFFX=6 NUNeed=     0.
     48 vectors produced by pass  0 Test12= 1.67D-14 1.85D-09 XBig12= 7.24D-02 5.48D-02.
 AX will form    48 AO Fock derivatives at one time.
     48 vectors produced by pass  1 Test12= 1.67D-14 1.85D-09 XBig12= 8.33D-03 2.26D-02.
     48 vectors produced by pass  2 Test12= 1.67D-14 1.85D-09 XBig12= 3.38D-04 3.07D-03.
     48 vectors produced by pass  3 Test12= 1.67D-14 1.85D-09 XBig12= 3.89D-06 2.43D-04.
     48 vectors produced by pass  4 Test12= 1.67D-14 1.85D-09 XBig12= 3.29D-08 2.49D-05.
     48 vectors produced by pass  5 Test12= 1.67D-14 1.85D-09 XBig12= 1.55D-10 1.56D-06.
     26 vectors produced by pass  6 Test12= 1.67D-14 1.85D-09 XBig12= 7.87D-13 1.23D-07.
      4 vectors produced by pass  7 Test12= 1.67D-14 1.85D-09 XBig12= 2.87D-15 5.77D-09.
 InvSVY:  IOpt=1 It=  1 EMax= 3.05D-16
 Solved reduced A of dimension   318 with    54 vectors.
 End of Minotr F.D. properties file   721 does not exist.
 End of Minotr F.D. properties file   722 does not exist.
 End of Minotr F.D. properties file   788 does not exist.
 Leave Link 1002 at Thu Sep 26 13:20:38 2019, MaxMem=   671088640 cpu:            3689.9 elap:            1845.1
 (Enter /shared/centos7/gaussian/g16/l601.exe)
 Copying SCF densities to generalized density rwf, IOpCl= 0 IROHF=0.

 **********************************************************************

            Population analysis using the SCF density.

 **********************************************************************

 Orbital symmetries:
       Occupied  (A) (A) (A) (A) (A) (A) (A) (A) (A) (A) (A) (A)
                 (A) (A) (A) (A) (A) (A) (A) (A) (A) (A) (A) (A)
                 (A) (A) (A) (A)
       Virtual   (A) (A) (A) (A) (A) (A) (A) (A) (A) (A) (A) (A)
                 (A) (A) (A) (A) (A) (A) (A) (A) (A) (A) (A) (A)
                 (A) (A) (A) (A) (A) (A) (A) (A) (A) (A) (A) (A)
                 (A) (A) (A) (A) (A) (A) (A) (A) (A) (A) (A) (A)
                 (A) (A) (A) (A) (A) (A) (A) (A) (A) (A) (A) (A)
                 (A) (A) (A) (A) (A) (A) (A) (A) (A) (A) (A) (A)
                 (A) (A) (A) (A) (A) (A) (A) (A) (A) (A) (A) (A)
                 (A) (A) (A) (A) (A) (A) (A) (A) (A) (A) (A) (A)
                 (A) (A) (A) (A) (A) (A) (A) (A) (A) (A) (A) (A)
                 (A) (A) (A) (A) (A) (A) (A) (A) (A) (A) (A) (A)
                 (A) (A) (A) (A) (A) (A) (A) (A) (A) (A) (A) (A)
                 (A) (A) (A) (A) (A) (A) (A) (A) (A) (A) (A) (A)
                 (A) (A) (A) (A) (A) (A) (A) (A) (A) (A) (A) (A)
                 (A) (A) (A) (A) (A) (A) (A) (A) (A) (A) (A) (A)
                 (A) (A) (A) (A) (A) (A) (A) (A) (A) (A) (A) (A)
                 (A) (A) (A) (A) (A) (A) (A) (A) (A) (A) (A) (A)
                 (A) (A) (A) (A) (A) (A) (A) (A) (A) (A) (A) (A)
                 (A) (A) (A) (A) (A) (A) (A) (A) (A) (A) (A) (A)
                 (A) (A) (A) (A) (A) (A) (A) (A) (A) (A) (A) (A)
                 (A) (A) (A) (A) (A) (A) (A) (A) (A) (A) (A) (A)
                 (A) (A) (A) (A) (A) (A) (A) (A) (A) (A) (A) (A)
                 (A) (A) (A) (A) (A) (A) (A) (A) (A) (A) (A) (A)
                 (A) (A) (A) (A) (A) (A) (A) (A) (A) (A) (A) (A)
                 (A) (A) (A) (A) (A) (A) (A) (A) (A) (A) (A) (A)
                 (A) (A) (A) (A) (A) (A) (A) (A) (A) (A) (A) (A)
                 (A) (A) (A) (A) (A) (A) (A) (A) (A) (A) (A) (A)
                 (A) (A) (A) (A) (A) (A) (A) (A) (A) (A)
 The electronic state is 1-A.
 Alpha  occ. eigenvalues --  -19.65010 -19.63808 -10.59563 -10.58594 -10.57956
 Alpha  occ. eigenvalues --  -10.53445 -10.53136  -1.18179  -1.16297  -0.89598
 Alpha  occ. eigenvalues --   -0.83196  -0.78095  -0.69686  -0.66989  -0.60841
 Alpha  occ. eigenvalues --   -0.58492  -0.52914  -0.51137  -0.50399  -0.47063
 Alpha  occ. eigenvalues --   -0.46170  -0.45404  -0.44886  -0.43890  -0.41029
 Alpha  occ. eigenvalues --   -0.38007  -0.36335  -0.27837
 Alpha virt. eigenvalues --    0.06000   0.06339   0.07503   0.09239   0.10575
 Alpha virt. eigenvalues --    0.11692   0.12708   0.13079   0.15442   0.16221
 Alpha virt. eigenvalues --    0.17302   0.18721   0.21789   0.23514   0.26192
 Alpha virt. eigenvalues --    0.26527   0.28666   0.28787   0.32514   0.32781
 Alpha virt. eigenvalues --    0.34696   0.36259   0.37280   0.39548   0.40031
 Alpha virt. eigenvalues --    0.41014   0.42678   0.43408   0.45754   0.46242
 Alpha virt. eigenvalues --    0.47085   0.47788   0.49165   0.49548   0.49842
 Alpha virt. eigenvalues --    0.51238   0.51813   0.52976   0.54108   0.54295
 Alpha virt. eigenvalues --    0.55705   0.57235   0.57533   0.59302   0.60705
 Alpha virt. eigenvalues --    0.60934   0.65277   0.66489   0.69418   0.72212
 Alpha virt. eigenvalues --    0.73772   0.75220   0.77482   0.79187   0.81005
 Alpha virt. eigenvalues --    0.83794   0.85636   0.87530   0.88804   0.89599
 Alpha virt. eigenvalues --    0.91744   0.92371   0.95595   0.98914   1.00728
 Alpha virt. eigenvalues --    1.01810   1.02530   1.04431   1.05301   1.05711
 Alpha virt. eigenvalues --    1.06910   1.08097   1.08532   1.10326   1.11362
 Alpha virt. eigenvalues --    1.13112   1.14444   1.16446   1.17798   1.19409
 Alpha virt. eigenvalues --    1.20579   1.22002   1.24271   1.26419   1.27721
 Alpha virt. eigenvalues --    1.27876   1.29746   1.30007   1.31948   1.34136
 Alpha virt. eigenvalues --    1.34478   1.35605   1.36862   1.38910   1.40703
 Alpha virt. eigenvalues --    1.41303   1.43028   1.44987   1.47964   1.50245
 Alpha virt. eigenvalues --    1.50922   1.53502   1.54824   1.56541   1.56991
 Alpha virt. eigenvalues --    1.57771   1.62518   1.67242   1.78680   1.85314
 Alpha virt. eigenvalues --    1.85782   1.89428   1.99133   1.99344   2.01070
 Alpha virt. eigenvalues --    2.04894   2.09167   2.14771   2.15653   2.19743
 Alpha virt. eigenvalues --    2.22617   2.25472   2.29508   2.31619   2.32059
 Alpha virt. eigenvalues --    2.34315   2.35305   2.38637   2.42497   2.45728
 Alpha virt. eigenvalues --    2.47894   2.48356   2.51995   2.53256   2.55808
 Alpha virt. eigenvalues --    2.58963   2.61237   2.63834   2.65143   2.65805
 Alpha virt. eigenvalues --    2.68215   2.73404   2.73610   2.76181   2.79016
 Alpha virt. eigenvalues --    2.79965   2.81721   2.82219   2.84062   2.84755
 Alpha virt. eigenvalues --    2.85655   2.87425   2.90386   2.91272   2.91649
 Alpha virt. eigenvalues --    2.93898   2.96677   2.97593   2.98065   2.99180
 Alpha virt. eigenvalues --    3.00624   3.01056   3.02830   3.03744   3.05671
 Alpha virt. eigenvalues --    3.07107   3.08565   3.09737   3.12116   3.14202
 Alpha virt. eigenvalues --    3.14931   3.19314   3.19726   3.20852   3.22753
 Alpha virt. eigenvalues --    3.23547   3.25720   3.27999   3.28570   3.29908
 Alpha virt. eigenvalues --    3.30455   3.31499   3.32034   3.33834   3.35415
 Alpha virt. eigenvalues --    3.36741   3.38917   3.41145   3.41274   3.42293
 Alpha virt. eigenvalues --    3.43365   3.45441   3.46791   3.47573   3.51209
 Alpha virt. eigenvalues --    3.54378   3.54889   3.56562   3.56782   3.58805
 Alpha virt. eigenvalues --    3.60634   3.63601   3.65212   3.68500   3.70372
 Alpha virt. eigenvalues --    3.71837   3.72699   3.74119   3.75624   3.77428
 Alpha virt. eigenvalues --    3.79559   3.81420   3.81864   3.83100   3.85180
 Alpha virt. eigenvalues --    3.85950   3.86598   3.89714   3.90123   3.91295
 Alpha virt. eigenvalues --    3.92121   3.93723   3.96208   3.99428   4.00695
 Alpha virt. eigenvalues --    4.01852   4.02736   4.04347   4.06100   4.06694
 Alpha virt. eigenvalues --    4.07592   4.09323   4.11082   4.12651   4.16623
 Alpha virt. eigenvalues --    4.18359   4.20412   4.21719   4.22124   4.24727
 Alpha virt. eigenvalues --    4.26828   4.29872   4.32016   4.36547   4.39646
 Alpha virt. eigenvalues --    4.42160   4.43256   4.45046   4.48363   4.53392
 Alpha virt. eigenvalues --    4.56435   4.59415   4.64736   4.66683   4.70222
 Alpha virt. eigenvalues --    4.72842   4.75897   4.76104   4.77312   4.79444
 Alpha virt. eigenvalues --    4.82051   4.85448   4.87464   4.89552   4.92011
 Alpha virt. eigenvalues --    4.92591   4.96531   4.99249   5.00217   5.05798
 Alpha virt. eigenvalues --    5.06971   5.08237   5.09946   5.12813   5.18132
 Alpha virt. eigenvalues --    5.19922   5.22221   5.24370   5.24665   5.25910
 Alpha virt. eigenvalues --    5.27767   5.28450   5.36595   5.39740   5.43837
 Alpha virt. eigenvalues --    5.48316   5.56317   5.57294   5.66059   5.67769
 Alpha virt. eigenvalues --    5.74444   5.76078   5.78980   5.81350   5.85058
 Alpha virt. eigenvalues --    5.88362   5.99736   6.13844   6.17552   6.31921
 Alpha virt. eigenvalues --    6.34620   6.48528   6.49658   6.58716   6.69104
 Alpha virt. eigenvalues --    6.74678   6.75619   6.78565   6.78791   7.03268
 Alpha virt. eigenvalues --    7.08938   7.11350   7.29094   7.31121   7.33725
 Alpha virt. eigenvalues --   10.39806  10.68387  11.63348  11.71296  12.94857
 Alpha virt. eigenvalues --   13.34510  14.20323
          Condensed to atoms (all electrons):
               1          2          3          4          5          6
     1  O    7.923823   0.002975   0.257667  -0.046053  -0.043965   0.313869
     2  O    0.002975   7.783974   0.000287  -0.000013   0.000009  -0.079521
     3  C    0.257667   0.000287   4.960722   0.311840   0.323174  -0.089002
     4  C   -0.046053  -0.000013   0.311840   4.984106  -0.050359   0.007921
     5  C   -0.043965   0.000009   0.323174  -0.050359   4.992935  -0.000992
     6  C    0.313869  -0.079521  -0.089002   0.007921  -0.000992   4.994654
     7  C   -0.055092   0.359803  -0.003460   0.000782  -0.000055   0.596546
     8  H   -0.052196  -0.000220   0.403312  -0.049568  -0.067467  -0.001669
     9  H    0.003926   0.000008  -0.044295   0.386882   0.002494   0.000884
    10  H    0.002524  -0.000004  -0.036832   0.400370   0.007081  -0.000245
    11  H    0.003851   0.000000  -0.045872   0.407131  -0.009568  -0.000446
    12  H    0.001979  -0.000000  -0.043677  -0.012751   0.402159  -0.000311
    13  H    0.004289   0.000002  -0.044923   0.007649   0.388225   0.002260
    14  H    0.004285  -0.000001  -0.043095   0.003967   0.397900   0.000801
    15  H   -0.048221  -0.001663   0.007379  -0.000659   0.000070   0.402233
    16  H    0.003921  -0.029305   0.000452  -0.000380  -0.000034  -0.062054
    17  H    0.000070   0.326749   0.000212  -0.000011  -0.000004  -0.006234
               7          8          9         10         11         12
     1  O   -0.055092  -0.052196   0.003926   0.002524   0.003851   0.001979
     2  O    0.359803  -0.000220   0.000008  -0.000004   0.000000  -0.000000
     3  C   -0.003460   0.403312  -0.044295  -0.036832  -0.045872  -0.043677
     4  C    0.000782  -0.049568   0.386882   0.400370   0.407131  -0.012751
     5  C   -0.000055  -0.067467   0.002494   0.007081  -0.009568   0.402159
     6  C    0.596546  -0.001669   0.000884  -0.000245  -0.000446  -0.000311
     7  C    4.811888   0.000155  -0.000655   0.000080  -0.000143   0.000027
     8  H    0.000155   0.667333   0.008853  -0.013071   0.004506   0.007794
     9  H   -0.000655   0.008853   0.571151  -0.029713  -0.027556   0.001449
    10  H    0.000080  -0.013071  -0.029713   0.589083  -0.034508   0.000331
    11  H   -0.000143   0.004506  -0.027556  -0.034508   0.597891  -0.000415
    12  H    0.000027   0.007794   0.001449   0.000331  -0.000415   0.600083
    13  H    0.000169   0.004237  -0.000329  -0.000473   0.000496  -0.027183
    14  H    0.000027  -0.010177  -0.000246  -0.000308  -0.000610  -0.035056
    15  H   -0.081667   0.003068   0.000395   0.000080   0.000107  -0.000149
    16  H    0.404046   0.000514   0.000640   0.000002   0.000006   0.000001
    17  H   -0.051963   0.000038   0.000007   0.000001   0.000000  -0.000000
              13         14         15         16         17
     1  O    0.004289   0.004285  -0.048221   0.003921   0.000070
     2  O    0.000002  -0.000001  -0.001663  -0.029305   0.326749
     3  C   -0.044923  -0.043095   0.007379   0.000452   0.000212
     4  C    0.007649   0.003967  -0.000659  -0.000380  -0.000011
     5  C    0.388225   0.397900   0.000070  -0.000034  -0.000004
     6  C    0.002260   0.000801   0.402233  -0.062054  -0.006234
     7  C    0.000169   0.000027  -0.081667   0.404046  -0.051963
     8  H    0.004237  -0.010177   0.003068   0.000514   0.000038
     9  H   -0.000329  -0.000246   0.000395   0.000640   0.000007
    10  H   -0.000473  -0.000308   0.000080   0.000002   0.000001
    11  H    0.000496  -0.000610   0.000107   0.000006   0.000000
    12  H   -0.027183  -0.035056  -0.000149   0.000001  -0.000000
    13  H    0.568690  -0.027220  -0.000557   0.000012   0.000002
    14  H   -0.027220   0.603095  -0.000238  -0.000001   0.000000
    15  H   -0.000557  -0.000238   0.606298   0.005460   0.006560
    16  H    0.000012  -0.000001   0.005460   0.503999   0.006908
    17  H    0.000002   0.000000   0.006560   0.006908   0.457377
 Mulliken charges:
               1
     1  O   -0.277651
     2  O   -0.363077
     3  C    0.086110
     4  C   -0.350853
     5  C   -0.341605
     6  C   -0.078690
     7  C    0.019514
     8  H    0.094560
     9  H    0.126105
    10  H    0.115603
    11  H    0.105129
    12  H    0.105718
    13  H    0.124654
    14  H    0.106878
    15  H    0.101504
    16  H    0.165814
    17  H    0.260287
 Sum of Mulliken charges =  -0.00000
 Mulliken charges with hydrogens summed into heavy atoms:
               1
     1  O   -0.277651
     2  O   -0.102790
     3  C    0.180670
     4  C   -0.004016
     5  C   -0.004355
     6  C    0.022814
     7  C    0.185328
 APT charges:
               1
     1  O   -0.181449
     2  O   -0.330357
     3  C    0.067931
     4  C   -1.200755
     5  C   -1.286521
     6  C   -0.456981
     7  C   -0.262377
     8  H    0.242615
     9  H    0.260809
    10  H    0.342165
    11  H    0.508752
    12  H    0.468521
    13  H    0.283521
    14  H    0.419947
    15  H    0.276559
    16  H    0.379541
    17  H    0.468078
 Sum of APT charges =  -0.00000
 APT charges with hydrogens summed into heavy atoms:
               1
     1  O   -0.181449
     2  O    0.137721
     3  C    0.310546
     4  C   -0.089028
     5  C   -0.114533
     6  C   -0.180422
     7  C    0.117165
 Electronic spatial extent (au):  <R**2>=           1113.0991
 Charge=              0.0000 electrons
 Dipole moment (field-independent basis, Debye):
    X=              1.1188    Y=             -0.9511    Z=              1.5338  Tot=              2.1234
 Quadrupole moment (field-independent basis, Debye-Ang):
   XX=            -46.6690   YY=            -41.6482   ZZ=            -44.3045
   XY=              3.2115   XZ=             -0.7861   YZ=             -3.1111
 Traceless Quadrupole moment (field-independent basis, Debye-Ang):
   XX=             -2.4618   YY=              2.5590   ZZ=             -0.0973
   XY=              3.2115   XZ=             -0.7861   YZ=             -3.1111
 Octapole moment (field-independent basis, Debye-Ang**2):
  XXX=             11.9765  YYY=             -2.1310  ZZZ=              1.6210  XYY=            -10.4824
  XXY=            -11.4204  XXZ=              3.3783  XZZ=             -6.8170  YZZ=             -0.5554
  YYZ=              0.1948  XYZ=              6.6228
 Hexadecapole moment (field-independent basis, Debye-Ang**3):
 XXXX=          -1203.9950 YYYY=           -242.4298 ZZZZ=            -97.5547 XXXY=             44.6178
 XXXZ=            -26.0430 YYYX=              2.0519 YYYZ=             -3.7104 ZZZX=             -5.3515
 ZZZY=             -3.7278 XXYY=           -213.0288 XXZZ=           -193.8773 YYZZ=            -52.3018
 XXYZ=            -22.0490 YYXZ=             -4.0721 ZZXY=              1.7403
 N-N= 3.073397137494D+02 E-N=-1.424694804484D+03  KE= 3.447801856403D+02
  Exact polarizability:   0.000   0.000   0.000   0.000   0.000   0.000
 Approx polarizability:  91.761  -5.267  75.372  -0.339  -5.816  71.634
 No NMR shielding tensors so no spin-rotation constants.
 Leave Link  601 at Thu Sep 26 13:21:07 2019, MaxMem=   671088640 cpu:              57.0 elap:              28.5
 (Enter /shared/centos7/gaussian/g16/l701.exe)
 SCFChk:  SCF convergence  8.47D-09 required  1.00D-08
 ... and contract with generalized density number  0.
 Compute integral second derivatives.
 Entering OneElI...
 Calculate overlap and kinetic energy integrals
    NBasis = 395  MinDer = 2  MaxDer = 2
 Requested accuracy = 0.1000D-12
 PrmmSu-InSpLW:  IPartL=    0 NPrtUS=   20 NPrtUL=    1 DoSpLW=F IThBeg=    0 IThEnd=   19 NThAct=   20.
 PrsmSu:  NPrtUS=  20 ThrOK=T IAlg=1 NPAlg=1 LenDen=           0 ISkipM=0 DoSpLW=F IThBeg=    0 IThEnd=   19.
 Prism:   IPart=     0 DynPar=F LinDyn=F Incr=           4.
 PRISM was handed    33316737 working-precision words and  8355 shell-pairs
 PRISM was handed    33316737 working-precision words and  8355 shell-pairs
 PRISM was handed    33316737 working-precision words and  8355 shell-pairs
 PRISM was handed    33316737 working-precision words and  8355 shell-pairs
 PRISM was handed    33316737 working-precision words and  8355 shell-pairs
 PRISM was handed    33316737 working-precision words and  8355 shell-pairs
 PRISM was handed    33316737 working-precision words and  8355 shell-pairs
 PRISM was handed    33316737 working-precision words and  8355 shell-pairs
 PRISM was handed    33316737 working-precision words and  8355 shell-pairs
 IPart= 18 NShTot=         392 NBatch=          36 AvBLen=        10.9
 IPart=  0 NShTot=         459 NBatch=          79 AvBLen=         5.8
 PRISM was handed    33316737 working-precision words and  8355 shell-pairs
 PRISM was handed    33316737 working-precision words and  8355 shell-pairs
 PRISM was handed    33316737 working-precision words and  8355 shell-pairs
 PRISM was handed    33316737 working-precision words and  8355 shell-pairs
 IPart= 16 NShTot=         398 NBatch=          39 AvBLen=        10.2
 PRISM was handed    33316737 working-precision words and  8355 shell-pairs
 PRISM was handed    33316737 working-precision words and  8355 shell-pairs
 PRISM was handed    33316737 working-precision words and  8355 shell-pairs
 PRISM was handed    33316737 working-precision words and  8355 shell-pairs
 IPart=  2 NShTot=         450 NBatch=          74 AvBLen=         6.1
 IPart= 13 NShTot=         402 NBatch=          40 AvBLen=        10.1
 PRISM was handed    33316737 working-precision words and  8355 shell-pairs
 IPart= 14 NShTot=         401 NBatch=          39 AvBLen=        10.3
 PRISM was handed    33316737 working-precision words and  8355 shell-pairs
 IPart= 11 NShTot=         409 NBatch=          46 AvBLen=         8.9
 PRISM was handed    33316737 working-precision words and  8355 shell-pairs
 IPart=  3 NShTot=         447 NBatch=          71 AvBLen=         6.3
 IPart= 17 NShTot=         395 NBatch=          38 AvBLen=        10.4
 IPart= 10 NShTot=         411 NBatch=          48 AvBLen=         8.6
 IPart=  7 NShTot=         417 NBatch=          50 AvBLen=         8.3
 IPart= 12 NShTot=         406 NBatch=          43 AvBLen=         9.4
 IPart=  9 NShTot=         412 NBatch=          49 AvBLen=         8.4
 IPart=  8 NShTot=         414 NBatch=          49 AvBLen=         8.4
 IPart= 19 NShTot=         392 NBatch=          36 AvBLen=        10.9
 IPart=  5 NShTot=         431 NBatch=          61 AvBLen=         7.1
 IPart=  1 NShTot=         455 NBatch=          78 AvBLen=         5.8
 IPart=  6 NShTot=         426 NBatch=          58 AvBLen=         7.3
 IPart= 15 NShTot=         401 NBatch=          39 AvBLen=        10.3
 IPart=  4 NShTot=         437 NBatch=          63 AvBLen=         6.9
 PrSmSu:  NxtVal=             81.
 Entering OneElI...
 Calculate potential energy integrals
    NBasis = 395  MinDer = 2  MaxDer = 2
 Requested accuracy = 0.1000D-12
 PrmmSu-InSpLW:  IPartL=    0 NPrtUS=   20 NPrtUL=    1 DoSpLW=F IThBeg=    0 IThEnd=   19 NThAct=   20.
 PrsmSu:  NPrtUS=  20 ThrOK=T IAlg=1 NPAlg=1 LenDen=           0 ISkipM=0 DoSpLW=F IThBeg=    0 IThEnd=   19.
 Prism:   IPart=     0 DynPar=F LinDyn=F Incr=          63.
 PRISM was handed    33361971 working-precision words and  7450 shell-pairs
 PRISM was handed    33361971 working-precision words and  7450 shell-pairs
 PRISM was handed    33361971 working-precision words and  7450 shell-pairs
 PRISM was handed    33361971 working-precision words and  7450 shell-pairs
 PRISM was handed    33361971 working-precision words and  7450 shell-pairs
 PRISM was handed    33361971 working-precision words and  7450 shell-pairs
 PRISM was handed    33361971 working-precision words and  7450 shell-pairs
 PRISM was handed    33361971 working-precision words and  7450 shell-pairs
 PRISM was handed    33361971 working-precision words and  7450 shell-pairs
 PRISM was handed    33361971 working-precision words and  7450 shell-pairs
 PRISM was handed    33361971 working-precision words and  7450 shell-pairs
 PRISM was handed    33361971 working-precision words and  7450 shell-pairs
 PRISM was handed    33361971 working-precision words and  7450 shell-pairs
 PRISM was handed    33361971 working-precision words and  7450 shell-pairs
 PRISM was handed    33361971 working-precision words and  7450 shell-pairs
 PRISM was handed    33361971 working-precision words and  7450 shell-pairs
 PRISM was handed    33361971 working-precision words and  7450 shell-pairs
 PRISM was handed    33361971 working-precision words and  7450 shell-pairs
 PRISM was handed    33361971 working-precision words and  7450 shell-pairs
 PRISM was handed    33361971 working-precision words and  7450 shell-pairs
 IPart= 18 NShTot=        5950 NBatch=         350 AvBLen=        17.0
 IPart= 10 NShTot=        6188 NBatch=         364 AvBLen=        17.0
 IPart=  9 NShTot=        6239 NBatch=         367 AvBLen=        17.0
 IPart=  6 NShTot=        6545 NBatch=         385 AvBLen=        17.0
 IPart=  7 NShTot=        6375 NBatch=         375 AvBLen=        17.0
 IPart=  3 NShTot=        6715 NBatch=         395 AvBLen=        17.0
 IPart=  2 NShTot=        6800 NBatch=         400 AvBLen=        17.0
 IPart= 12 NShTot=        6120 NBatch=         360 AvBLen=        17.0
 IPart= 11 NShTot=        6137 NBatch=         361 AvBLen=        17.0
 IPart= 16 NShTot=        6035 NBatch=         355 AvBLen=        17.0
 IPart=  4 NShTot=        6664 NBatch=         392 AvBLen=        17.0
 IPart=  5 NShTot=        6545 NBatch=         385 AvBLen=        17.0
 IPart= 19 NShTot=        5933 NBatch=         349 AvBLen=        17.0
 IPart= 17 NShTot=        5967 NBatch=         351 AvBLen=        17.0
 IPart=  1 NShTot=        6902 NBatch=         406 AvBLen=        17.0
 IPart= 14 NShTot=        6086 NBatch=         358 AvBLen=        17.0
 IPart=  0 NShTot=        6987 NBatch=         411 AvBLen=        17.0
 IPart=  8 NShTot=        6324 NBatch=         372 AvBLen=        17.0
 IPart= 13 NShTot=        6103 NBatch=         359 AvBLen=        17.0
 IPart= 15 NShTot=        6035 NBatch=         355 AvBLen=        17.0
 PrSmSu:  NxtVal=           1261.
 Polarizability after L701:
                1             2             3 
      1  0.000000D+00
      2  0.000000D+00  0.000000D+00
      3  0.000000D+00  0.000000D+00  0.000000D+00
 Dipole Derivatives after L701:
                 1             2             3             4             5 
      1  -0.227764D+00 -0.394303D-01 -0.616044D-02  0.436968D+00 -0.141152D+01
      2  -0.924601D-01 -0.215074D+00  0.249121D-02 -0.784123D-01 -0.800688D+00
      3  -0.112048D+00 -0.408234D-01 -0.101510D+00 -0.236699D-01  0.371309D+00
                 6             7             8             9            10 
      1   0.662368D+00  0.410899D+00  0.426475D-01 -0.566307D+00 -0.128857D+01
      2   0.275896D+00 -0.716602D-01  0.308633D+00  0.895635D-01 -0.195735D+00
      3  -0.627352D+00  0.517369D-01  0.102607D+00 -0.515741D+00 -0.210467D-01
                11            12            13            14            15 
      1  -0.960045D+00  0.851606D-01 -0.175098D+01  0.835621D+00  0.206240D+00
      2  -0.139331D+01  0.123692D-01  0.293947D+00 -0.120991D+01 -0.243846D-01
      3  -0.170062D+00 -0.920387D+00 -0.930085D-01  0.118987D+00 -0.898674D+00
                16            17            18            19            20 
      1  -0.636550D+00  0.169536D+00  0.230134D+00 -0.295642D+00  0.420623D+00
      2   0.102708D+00 -0.443660D+00  0.327561D+00  0.154681D+00 -0.356343D+00
      3   0.224971D+00  0.318852D+00 -0.290732D+00  0.561555D-01  0.244115D+00
                21            22            23            24            25 
      1  -0.231344D+00  0.601709D-01 -0.497946D-01  0.292565D+00 -0.699066D-01
      2   0.303212D+00  0.175158D-01  0.146846D+00 -0.461092D-01 -0.274909D+00
      3  -0.135144D+00 -0.115680D+00 -0.558022D-01  0.520829D+00  0.127739D+00
                26            27            28            29            30 
      1   0.268255D+00 -0.337359D+00 -0.606770D-02  0.329578D+00  0.418410D+00
      2   0.499749D+00 -0.553545D+00 -0.147023D+00  0.519753D+00  0.591699D+00
      3  -0.176943D+00  0.352584D+00 -0.125003D+00  0.245066D+00  0.512811D+00
                31            32            33            34            35 
      1   0.129328D+01  0.532965D-01 -0.140850D+00  0.114960D+01  0.437290D+00
      2   0.499997D+00  0.153562D+00 -0.530582D-01 -0.191063D+00  0.570048D-01
      3   0.197256D-01  0.128912D-01  0.794134D-01 -0.201232D+00 -0.946065D-01
                36            37            38            39            40 
      1  -0.536681D+00 -0.919024D-01 -0.527927D+00 -0.344396D+00  0.426139D+00
      2   0.759436D-01  0.253045D+00  0.700476D+00  0.413314D+00 -0.189003D+00
      3   0.198952D+00  0.896123D-01  0.215257D+00  0.241988D+00  0.126290D+00
                41            42            43            44            45 
      1  -0.449800D+00  0.825163D+00  0.112632D+00  0.246834D+00 -0.272793D+00
      2   0.333653D+00 -0.478734D+00 -0.400671D-01  0.496577D+00 -0.357175D+00
      3  -0.182634D+00  0.500049D+00 -0.209761D-01 -0.212863D+00  0.220468D+00
                46            47            48            49            50 
      1   0.197372D+00 -0.725537D+00  0.566785D+00  0.280308D+00  0.136037D+01
      2  -0.365459D-01  0.563460D+00 -0.354311D+00 -0.501597D-02  0.639274D+00
      3   0.176748D-01 -0.355792D+00  0.377792D+00 -0.124140D-02 -0.339557D+00
                51 
      1  -0.850936D+00
      2  -0.224731D+00
      3   0.484653D+00
 Hessian after L701:
                1             2             3             4             5 
      1  0.325315D+01
      2 -0.175433D+01  0.171059D+02
      3 -0.688351D+00  0.495506D-01  0.139586D+02
      4  0.485105D+00 -0.131627D-01 -0.200259D+00  0.576931D+01
      5 -0.626641D-01 -0.228414D+00  0.270042D-01 -0.125124D+01  0.104056D+02
      6 -0.188863D+00  0.123883D-01 -0.164501D+00  0.317725D+01  0.297789D+01
      7 -0.284803D+01  0.525371D+00  0.390832D+01  0.185742D+00 -0.228518D-01
      8  0.523248D+00 -0.841305D+01  0.306994D+00  0.377446D-02 -0.812453D-01
      9  0.371471D+01  0.293655D+00 -0.584810D+01 -0.247289D-01  0.103525D-01
     10 -0.130556D+00  0.360566D+00  0.528701D-01  0.918059D-01  0.302200D-01
     11  0.304261D+00  0.266901D+00  0.865705D-01  0.145278D-01 -0.479817D-01
     12  0.983350D-01  0.167046D+00 -0.163924D+00 -0.131780D-02  0.700687D-03
     13  0.279806D+00 -0.369910D+00  0.401853D-01  0.666368D-01 -0.299683D-01
     14 -0.307295D+00 -0.787300D-02 -0.119297D-02 -0.614055D-02 -0.466209D-01
     15  0.120255D+00 -0.712746D-01 -0.236052D+00 -0.425367D-03  0.883647D-03
     16 -0.134580D+01  0.166716D+01 -0.365490D+01  0.126593D+00 -0.178599D+00
     17  0.175020D+01 -0.932794D+01 -0.634687D+00 -0.121350D+00  0.767761D-01
     18 -0.347612D+01 -0.568207D+00 -0.733855D+01  0.121175D+00  0.210080D+00
     19  0.525393D-01 -0.288482D+00  0.268809D+00 -0.100090D+01  0.164986D+01
     20 -0.282149D+00  0.482807D-01  0.101336D+00  0.177433D+01 -0.795883D+01
     21  0.244083D+00  0.130720D+00 -0.740053D-01 -0.329068D+01 -0.795377D+00
     22  0.833438D-01  0.409783D-02 -0.288013D+00  0.147152D-01 -0.178556D-02
     23  0.357874D-02  0.227261D+00 -0.320932D-01 -0.607261D-02 -0.127145D-01
     24 -0.277263D+00 -0.245441D-01  0.119531D+00  0.312146D-01 -0.575496D-02
     25 -0.481334D-01  0.391711D-01  0.529696D-01  0.737787D-02  0.592453D-02
     26  0.877779D-01  0.391951D-01  0.860333D-01  0.190037D-01 -0.428015D-02
     27  0.150919D-01  0.153553D-01 -0.780163D-01 -0.173034D-01 -0.326405D-02
     28 -0.229575D-01  0.427083D-01  0.362478D-01  0.871256D-02  0.562960D-02
     29  0.531013D-01  0.438059D-01  0.826336D-01  0.169480D-01 -0.420058D-02
     30  0.464723D-01  0.856033D-01  0.355810D-01  0.168672D-01  0.286017D-02
     31  0.131251D+00  0.714564D-01  0.453549D-01  0.198315D-01 -0.397640D-03
     32  0.667344D-01 -0.227008D-01  0.176195D-01  0.370670D-02 -0.402589D-02
     33  0.300422D-01  0.107279D-01 -0.418283D-01 -0.196506D-02  0.300279D-03
     34  0.136695D+00 -0.194962D-01  0.625647D-02  0.178580D-01 -0.618403D-02
     35 -0.263449D-02 -0.438153D-01 -0.864219D-03  0.269430D-02 -0.496340D-02
     36 -0.116122D-01  0.128487D-02 -0.458095D-01 -0.604177D-02  0.204484D-02
     37 -0.192673D-03 -0.443020D-01  0.464148D-01  0.652721D-02 -0.466984D-02
     38 -0.109822D+00 -0.134058D-02 -0.445399D-01 -0.191553D-01  0.395053D-02
     39  0.119606D-01 -0.290865D-02 -0.781476D-01 -0.107543D-01  0.667123D-02
     40  0.553587D-01 -0.545003D-01  0.903741D-01  0.124284D-01 -0.717710D-02
     41 -0.636904D-01 -0.163623D-01 -0.546798D-01 -0.890728D-02 -0.755806D-03
     42  0.941142D-01 -0.513709D-01  0.354670D-01  0.120539D-01 -0.615162D-02
     43 -0.173033D+00 -0.118250D+00  0.320974D+00  0.254586D-01 -0.754196D-01
     44 -0.141247D+00  0.353042D+00  0.305106D-01 -0.919892D-01  0.327070D-01
     45  0.281117D+00 -0.177240D-01 -0.126962D-01  0.375139D-01 -0.374556D-01
     46  0.653883D-01 -0.600329D-01 -0.162152D-01 -0.972750D-01 -0.140283D+00
     47 -0.112205D+00 -0.152008D-01 -0.135032D-02 -0.105301D+00  0.498159D-01
     48  0.302250D-01 -0.208399D-01 -0.679152D-01  0.114675D+00  0.395487D-01
     49  0.260588D-01  0.119358D-01 -0.210392D-01 -0.573993D+01  0.896065D-01
     50  0.471405D-01 -0.764141D-02 -0.188450D-01 -0.211666D+00 -0.217485D+01
     51 -0.441961D-01 -0.946185D-02  0.385886D-03  0.427236D-01 -0.243033D+01
                6             7             8             9            10 
      6  0.118528D+02
      7  0.645332D-02  0.155168D+02
      8  0.529843D-02 -0.349349D+00  0.193869D+02
      9 -0.906321D-01 -0.295120D+01 -0.228119D+00  0.194729D+02
     10  0.295018D-02 -0.533746D+01  0.154750D+01 -0.319417D-01  0.138790D+02
     11 -0.764557D-03  0.146327D+01 -0.212059D+01  0.644336D-01 -0.137614D+01
     12 -0.562918D-01 -0.398737D-01  0.512994D-01 -0.583078D+01 -0.178872D+00
     13 -0.188092D-02 -0.405246D+01 -0.224553D+01 -0.282335D+00 -0.116639D+00
     14  0.392196D-02 -0.220834D+01 -0.401808D+01  0.195297D+00 -0.136668D+00
     15 -0.438853D-01 -0.316625D+00  0.214484D+00 -0.614827D+01 -0.232090D-03
     16  0.184136D+00  0.339963D+00  0.272567D+00  0.143775D+00  0.179607D+00
     17  0.196194D+00  0.268509D+00  0.248047D-01  0.735178D-01  0.281089D+00
     18  0.113760D+00  0.174558D+00  0.648361D-01  0.627015D-01  0.155857D-02
     19 -0.318918D+01  0.255407D+00  0.553346D-01  0.988804D-01  0.172666D+00
     20 -0.842059D+00  0.246188D-01 -0.132673D+00  0.938820D-02  0.678583D-01
     21 -0.705873D+01  0.136443D+00  0.107500D-03 -0.926901D-01  0.142624D-01
     22  0.897343D-02 -0.444836D+01  0.890354D-01 -0.646098D+00  0.106644D+00
     23 -0.984645D-03  0.111103D+00 -0.465159D+01 -0.333251D+00 -0.109599D+00
     24 -0.363713D-02 -0.814219D+00 -0.325040D+00 -0.198944D+01  0.444609D-01
     25 -0.283681D-02  0.115338D+00 -0.272504D-01  0.260325D-01 -0.365655D+01
     26 -0.224276D-02  0.155511D-01 -0.286473D-01  0.814675D-01 -0.613464D+00
     27 -0.629883D-02  0.918405D-02  0.318519D-01  0.958883D-01  0.769218D+00
     28  0.251318D-02  0.711458D-01 -0.456011D-01 -0.315915D-01 -0.385068D+01
     29  0.439709D-02 -0.144812D-01 -0.633329D-01 -0.301328D-01 -0.372913D+00
     30 -0.252389D-02 -0.180748D-01 -0.211378D-01  0.982369D-01 -0.447408D+00
     31  0.165888D-02  0.474055D-02 -0.843939D-01  0.616427D-02 -0.128600D+01
     32  0.630572D-03 -0.126551D+00  0.373003D-01  0.218174D-02  0.310213D+00
     33 -0.448291D-02 -0.119828D-01 -0.920926D-02  0.897417D-01 -0.260448D+00
     34 -0.370443D-03  0.153264D-02  0.633630D-01  0.431988D-01  0.277910D-02
     35  0.111568D-03  0.102468D+00  0.743607D-01 -0.495956D-01  0.254983D-01
     36 -0.399690D-02  0.207889D-01 -0.304472D-01  0.781266D-01  0.344159D-02
     37 -0.167262D-02  0.112341D+00  0.785429D-01  0.439928D-01 -0.517663D-01
     38  0.121074D-02  0.261794D-01 -0.174584D-01 -0.756686D-01  0.778624D-02
     39 -0.611824D-02  0.158861D-01 -0.399368D-01  0.674767D-01  0.178374D-02
     40  0.352363D-02 -0.595790D-01  0.913903D-01 -0.645000D-01 -0.248873D-01
     41 -0.203959D-02  0.948060D-01  0.469744D-01  0.435027D-01 -0.449515D-01
     42 -0.106025D-02 -0.553185D-01  0.240214D-01  0.975066D-01  0.215162D-01
     43  0.178608D-02  0.956316D-01  0.384019D-01 -0.497343D-01  0.167698D-02
     44 -0.188482D-01  0.101851D+00 -0.376663D-01 -0.413410D-01  0.228297D-01
     45 -0.447914D-01 -0.795585D-01 -0.318256D-01 -0.488166D-01 -0.753120D-02
     46  0.143335D+00  0.289622D-01 -0.156444D-01  0.115972D-01  0.151293D-01
     47  0.303503D-01 -0.373838D-01 -0.384895D-02 -0.579887D-02 -0.143651D-01
     48  0.392097D-02  0.316113D-01 -0.987630D-02 -0.125824D-01  0.218034D-01
     49 -0.147775D+00  0.183154D-01  0.461031D-02 -0.621833D-02  0.522217D-02
     50 -0.236546D+01  0.252246D-01 -0.213635D-02 -0.988867D-02  0.145391D-01
     51 -0.448353D+01 -0.163875D-01 -0.329978D-02 -0.127134D-02 -0.743224D-02
               11            12            13            14            15 
     11  0.119978D+02
     12 -0.380494D+00  0.151027D+02
     13 -0.146575D-01 -0.242233D-02  0.126980D+02
     14  0.251227D+00  0.539129D-01  0.167786D+01  0.130747D+02
     15  0.558104D-02 -0.129437D+00 -0.116708D+00  0.127012D+00  0.151640D+02
     16  0.258049D+00  0.269737D-01  0.244577D+00 -0.822955D-01  0.235475D-01
     17 -0.106050D-01  0.161707D-01 -0.123000D+00 -0.129034D+00  0.619722D-02
     18  0.362476D-02 -0.198239D+00 -0.141470D-01  0.861225D-02 -0.154196D+00
     19  0.466190D-01  0.258540D-01  0.915628D-01 -0.329068D-01  0.182155D-01
     20 -0.867844D-01  0.108295D-01 -0.513679D-01 -0.498685D-01 -0.485212D-02
     21  0.661172D-02 -0.923693D-01  0.472085D-02 -0.179359D-03 -0.586157D-01
     22 -0.100680D+00  0.323049D-01 -0.321598D-01  0.189294D+00  0.159767D+00
     23 -0.114453D+00  0.119760D+00  0.190953D+00  0.890106D-01 -0.140992D+00
     24  0.146185D+00  0.107738D+00  0.215881D+00 -0.180736D+00  0.992583D-01
     25 -0.449822D+00  0.647373D+00 -0.240373D-01 -0.357859D-01  0.136888D-01
     26 -0.330996D+01 -0.112752D+01 -0.331527D-01  0.624629D-01 -0.305759D-01
     27 -0.966668D+00 -0.248810D+01  0.870627D-02 -0.330202D-01 -0.196355D-01
     28 -0.278752D+00 -0.349666D+00 -0.384476D-01 -0.382061D-01 -0.168865D-01
     29 -0.315786D+01  0.116046D+01 -0.425336D-01  0.115942D+00  0.641992D-01
     30  0.108041D+01 -0.237986D+01 -0.186878D-01  0.776940D-01 -0.137228D-01
     31  0.157589D+00 -0.296276D+00  0.856330D-02  0.306330D-01 -0.114143D-02
     32 -0.386906D+01 -0.442824D-01  0.470075D-02 -0.174199D-02  0.436342D-03
     33 -0.230602D-01 -0.379190D+01 -0.109246D-02 -0.172825D-02 -0.159182D-01
     34  0.137822D-01  0.131614D-01 -0.201444D+01  0.738974D+00 -0.102996D+01
     35 -0.244202D-01 -0.331171D-01  0.586774D+00 -0.361655D+01 -0.309521D+00
     36 -0.184322D-01 -0.815841D-02 -0.971786D+00 -0.371404D+00 -0.323877D+01
     37  0.695123D-03  0.143740D-02 -0.370580D+01  0.564996D+00  0.382670D+00
     38  0.149677D+00  0.543718D-01  0.767422D+00 -0.242877D+01  0.108772D+01
     39  0.567439D-01 -0.313556D-01  0.489550D+00  0.100335D+01 -0.319241D+01
     40 -0.447293D-01  0.138038D-01 -0.344819D+01 -0.356756D+00  0.776021D+00
     41  0.829188D-01 -0.405489D-01 -0.332093D+00 -0.327732D+01 -0.938837D+00
     42 -0.515715D-01 -0.193791D-01  0.677644D+00 -0.868473D+00 -0.198824D+01
     43  0.658714D-02  0.523848D-03  0.308659D-01  0.708802D-02 -0.150203D-01
     44  0.250819D-02 -0.112421D-02  0.197965D-01 -0.153594D-01 -0.435345D-02
     45 -0.362565D-02 -0.122324D-01 -0.285809D-01 -0.786439D-02 -0.174773D-01
     46 -0.310972D-02  0.963459D-02  0.591681D-02 -0.547929D-02  0.396783D-02
     47 -0.521804D-02 -0.599468D-02 -0.129496D-01 -0.251375D-02 -0.599583D-02
     48 -0.593044D-02 -0.479874D-02  0.759069D-02 -0.230454D-02 -0.280861D-02
     49  0.250833D-02 -0.974036D-03  0.622881D-02  0.102502D-02 -0.113670D-02
     50 -0.406558D-02 -0.146728D-02  0.765593D-02  0.370729D-03 -0.106055D-03
     51  0.383082D-03 -0.363811D-02 -0.663655D-02 -0.289413D-02 -0.384755D-02
               16            17            18            19            20 
     16  0.853803D+01
     17  0.240510D+01  0.214705D+02
     18  0.323493D+01  0.429579D+01  0.233258D+02
     19 -0.360408D+01 -0.476990D+01  0.189348D+00  0.806547D+01
     20 -0.460670D+01 -0.911965D+01 -0.260377D+01  0.294597D+01  0.202065D+02
     21  0.164360D+00 -0.263359D+01 -0.125260D+02  0.272362D+01  0.441343D+01
     22 -0.413262D-01 -0.629029D-01 -0.295083D-01  0.233797D-01 -0.865811D-02
     23 -0.576715D-01 -0.548663D-01 -0.349847D-01 -0.155131D-01 -0.186005D-01
     24  0.255463D-01 -0.427287D-01 -0.340626D-01  0.371187D-01 -0.611692D-02
     25  0.304261D-02  0.249722D-01 -0.841535D-02  0.439897D-02  0.693555D-02
     26  0.407433D-01  0.204967D-01 -0.148723D-01  0.233252D-01 -0.324671D-02
     27 -0.208260D-01 -0.257974D-01 -0.147472D-01 -0.209163D-01 -0.920437D-02
     28  0.496449D-02  0.181476D-01  0.421909D-02  0.128554D-01  0.996167D-02
     29  0.270681D-01  0.925368D-02  0.872141D-02  0.232354D-01 -0.216495D-02
     30  0.186636D-01  0.197747D-01 -0.681905D-02  0.252949D-01  0.114643D-01
     31  0.233088D-01  0.117895D-01  0.288373D-03  0.213457D-01  0.509550D-02
     32  0.876238D-02 -0.577416D-02 -0.361403D-03  0.499637D-02 -0.459049D-02
     33  0.820610D-04  0.518928D-04 -0.949457D-02 -0.357437D-03  0.450961D-03
     34  0.247447D-01  0.525884D-03 -0.400286D-02  0.241594D-01 -0.431880D-02
     35  0.574637D-02 -0.928997D-02 -0.454267D-03  0.141451D-02 -0.485868D-02
     36 -0.607744D-02 -0.153979D-03 -0.881932D-02 -0.616325D-02  0.659989D-03
     37  0.210165D-01 -0.333882D-01 -0.135415D-01  0.107988D-01 -0.110966D-01
     38 -0.586547D-01  0.814668D-02  0.156821D-01 -0.280711D-01  0.538988D-02
     39 -0.269929D-01  0.189689D-01 -0.235949D-01 -0.117006D-01  0.633848D-02
     40  0.355564D-01 -0.149925D-01  0.131329D-01  0.140685D-01 -0.749652D-02
     41 -0.203122D-01 -0.994200D-02 -0.502521D-02 -0.117174D-01 -0.183594D-02
     42  0.263638D-01 -0.827865D-02 -0.542371D-02  0.144926D-01 -0.473207D-02
     43 -0.455266D+01  0.148416D+00 -0.933582D-01  0.148538D+00  0.336205D+00
     44  0.611785D-01 -0.279959D+01 -0.157635D+01  0.375017D+00 -0.286913D+00
     45 -0.173411D-01 -0.149343D+01 -0.327830D+01 -0.150482D+00  0.238677D+00
     46  0.549557D-01  0.288741D+00 -0.168271D+00 -0.446214D+01 -0.109149D+00
     47  0.255014D+00 -0.118406D+00  0.182543D+00 -0.897523D-02 -0.265271D+01
     48 -0.143128D+00  0.178186D+00  0.128059D+00  0.848100D-02 -0.138341D+01
     49 -0.524887D-01 -0.719558D-01  0.681565D-01  0.169926D+00 -0.900286D-01
     50  0.284916D-02 -0.249107D-01  0.141404D-01  0.297953D-01  0.625097D-01
     51  0.208840D-01  0.338271D-01 -0.320973D-01 -0.313107D-01  0.615703D-01
               21            22            23            24            25 
     21  0.229809D+02
     22  0.579432D-02  0.423250D+01
     23 -0.358163D-02 -0.152799D+00  0.459576D+01
     24 -0.140009D-01  0.856186D+00  0.478279D+00  0.157835D+01
     25 -0.382137D-02 -0.303732D-01  0.160185D-01 -0.181498D-01  0.362779D+01
     26 -0.510297D-02  0.196507D-01  0.450939D-01 -0.896879D-01  0.361411D+00
     27 -0.809977D-02 -0.187627D-01 -0.701974D-01  0.468852D-01 -0.555131D+00
     28  0.750487D-02  0.228010D-01 -0.414887D-01  0.488705D-02  0.115730D+00
     29  0.678716D-02 -0.355846D-01 -0.777355D-01  0.849826D-02 -0.102181D-01
     30 -0.330137D-02  0.212564D-02  0.703008D-02  0.327799D-01 -0.174230D-01
     31 -0.487972D-03  0.318738D-01  0.370864D-01 -0.417095D-01 -0.132691D+00
     32  0.482796D-03  0.343105D-01  0.593620D-02 -0.250746D-01  0.804888D-01
     33 -0.558861D-02 -0.247750D-01 -0.175102D-01 -0.460440D-03 -0.134230D+00
     34 -0.317202D-02  0.581031D-01 -0.130893D-01 -0.824584D-01  0.846124D-02
     35 -0.467717D-03 -0.134746D-01 -0.270832D-01  0.118000D-01 -0.132930D-01
     36 -0.439524D-02 -0.607450D-01  0.916397D-02  0.293859D-01 -0.164528D-02
     37 -0.313783D-02 -0.953980D-02 -0.149749D-01 -0.186633D-01 -0.109123D-02
     38  0.506803D-02 -0.184132D-01  0.969209D-02  0.440951D-01 -0.269805D-02
     39 -0.743927D-02 -0.175105D-01  0.270555D-01  0.227611D-01 -0.849989D-03
     40  0.409332D-02 -0.304504D-01  0.413753D-01  0.587523D-02 -0.137688D-03
     41 -0.206828D-02  0.387521D-01 -0.617304D-02 -0.333838D-02 -0.231840D-02
     42 -0.263784D-02  0.937570D-02 -0.516709D-02  0.203558D-01  0.258611D-02
     43 -0.137567D+00  0.116733D-01  0.153232D-01  0.192188D-01  0.120285D-02
     44  0.235918D+00  0.217136D-01 -0.831426D-02  0.185955D-01  0.528115D-02
     45  0.224445D+00  0.441483D-02  0.182460D-02 -0.187824D-01 -0.235638D-02
     46  0.886450D-01  0.506629D-02 -0.450857D-02  0.960524D-02  0.927001D-02
     47 -0.138975D+01 -0.492656D-02  0.517189D-03 -0.101891D-01  0.523297D-03
     48 -0.334373D+01  0.709883D-02 -0.467982D-02  0.774329D-02  0.255489D-02
     49  0.453390D-01  0.210670D-02  0.278176D-03  0.246979D-02  0.403302D-03
     50  0.309958D-01  0.237064D-02 -0.173113D-02  0.575872D-02  0.659527D-03
     51  0.862418D-01 -0.627364D-03  0.328852D-03 -0.441011D-02 -0.345193D-03
               26            27            28            29            30 
     26  0.294650D+01
     27  0.106442D+01  0.268190D+01
     28 -0.990179D-02 -0.517569D-01  0.375815D+01
     29  0.129492D+00 -0.101457D-01  0.256474D+00  0.290488D+01
     30  0.368799D-02 -0.252543D+00  0.225700D+00 -0.123459D+01  0.248740D+01
     31  0.991104D-01 -0.119313D+00 -0.874431D-01  0.104071D+00  0.170713D+00
     32  0.745825D-01  0.271782D-01  0.847340D-01  0.875981D-01 -0.502231D-01
     33  0.416091D-01  0.535682D-01  0.171300D+00 -0.647777D-01  0.615129D-02
     34 -0.249514D-01  0.706936D-02  0.295023D-02 -0.122380D-01 -0.975410D-02
     35  0.140109D-01 -0.250181D-02 -0.408457D-02  0.378461D-02  0.435022D-02
     36  0.170675D-02 -0.894024D-02 -0.526253D-02  0.940089D-02  0.357891D-02
     37  0.233673D-02 -0.456544D-03 -0.311969D-04  0.234539D-02  0.123251D-02
     38  0.367514D-02 -0.478675D-02 -0.702649D-03 -0.203459D-02  0.270379D-02
     39  0.249603D-02 -0.268757D-02 -0.801626D-03  0.668262D-03  0.195547D-02
     40 -0.212364D-02  0.217476D-02 -0.183573D-03 -0.295348D-02 -0.228273D-02
[...]
   yx         0.951655D+01      0.141021D+01      0.156907D+01
   yy         0.639773D+02      0.948045D+01      0.105484D+02
   zx         0.126754D+02      0.187830D+01      0.208989D+01
   zy         0.403066D+01      0.597282D+00      0.664565D+00
   zz         0.682790D+02      0.101179D+02      0.112577D+02

 ----------------------------------------------------------------------

 Test job not archived.
 1\1\GINC-C0177\Freq\RM062X\CC-pVTZ\C5H10O2\HARMS.N\26-Sep-2019\0\\#P G
 eom=AllCheck Guess=TCheck SCRF=Check Test GenChk RM062X/CC-pVTZ Freq\\
 Gaussian input prepared by ASE\\0,1\O,3.6408345945,-2.4200790948,0.097
 8829269\O,1.5983882676,-0.606959038,2.4893259284\C,3.2303259474,-3.431
 4128962,-0.8249340218\C,2.496756183,-4.549467664,-0.1060750836\C,4.487
 9869452,-3.9133227463,-1.515036245\C,2.6202615118,-1.6644482293,0.6010
 077767\C,2.513104094,-1.4273193902,1.9002215211\H,2.5603313462,-2.9682
 154721,-1.5606693704\H,3.1602959044,-5.0134201265,0.6248309063\H,1.620
 674389,-4.1684168639,0.417335026\H,2.1727570554,-5.3102600092,-0.81601
 10583\H,5.1669438212,-4.3455627001,-0.7796763972\H,4.9941537365,-3.085
 2687952,-2.0077643998\H,4.2479992077,-4.674158402,-2.2568249821\H,1.93
 58864052,-1.2307706411,-0.1276812913\H,3.1937641136,-1.873574726,2.610
 856866\H,1.0387602142,-0.2117030411,1.8145670587\\Version=EM64L-G16Rev
 A.03\State=1-A\HF=-346.9419937\RMSD=1.503e-09\RMSF=8.661e-07\ZeroPoint
 =0.1467694\Thermal=0.1554355\Dipole=-0.4761314,-0.2109434,-0.6870748\D
 ipoleDeriv=-0.678145,0.3592563,0.4427779,0.2478339,-0.9755025,-0.58916
 1,0.1835513,-0.495385,-0.932827,-0.7291607,0.4779141,0.6299715,0.35246
 92,-0.7928631,-0.5637607,0.2188111,-0.284648,-0.5861391,0.3614387,0.13
 0861,0.0439289,-0.0089901,0.7658755,0.2841796,-0.1220387,0.3223563,0.7
 25501,-0.0195866,-0.1028176,0.0384046,-0.0316006,-0.0980558,-0.0137781
 ,0.1111078,0.0452318,-0.0256355,-0.0276624,0.0362808,0.0770135,0.01804
 18,0.0158086,-0.0284115,0.0697501,-0.0366133,0.0235128,0.3742328,-0.68
 91639,-0.5207678,-0.3673707,0.2642512,0.3152901,-0.0049143,0.0341235,0
 .2366656,0.4458109,-0.5336703,-0.5120273,-0.4575183,0.3742979,0.482540
 3,-0.1762277,0.2969526,0.5175294,-0.0743594,0.0254698,-0.093276,0.0850
 177,-0.0855574,0.0729844,-0.0388625,0.0204386,-0.0892371,-0.0206445,0.
 0629008,-0.0778085,0.0071881,0.0288352,0.0366922,-0.0506603,0.0667913,
 -0.0123702,-0.0546929,0.0441877,0.0830015,0.0519943,0.0502134,-0.00249
 73,0.080612,0.0080163,0.010804,0.0698068,-0.039984,-0.0330577,-0.03292
 86,-0.0483417,-0.0809328,-0.0471313,-0.0982206,-0.0213846,-0.0075243,0
 .044396,-0.0213692,0.0451295,0.0404627,0.0364867,-0.091554,0.0656903,-
 0.029389,-0.0028253,-0.0359047,0.0574457,-0.0757794,-0.0327198,0.08152
 14,0.0497754,0.0534432,0.0319372,0.0305413,-0.0374911,-0.0355026,-0.00
 84874,-0.0320706,-0.1046952,-0.0049112,-0.0925213,-0.0215251,-0.025150
 4,0.1790721,0.0150137,0.0978565,0.083005,0.029602,-0.0772089,0.0403178
 ,-0.0255744,0.0464117,0.0960336,-0.0260855,0.0851565,0.0997557,0.00648
 6,-0.03379,0.0166001,0.0532365,0.3115092,-0.0173404,-0.0676628,-0.0080
 124,0.3426056,0.0374539,-0.0663088,0.0374265,0.1448957\Polar=62.193045
 9,-7.7764881,68.0544663,-6.9806391,11.5430379,77.1188877\Quadrupole=0.
 5657563,1.0639652,-1.6297214,-2.6971601,1.6009593,-1.2319997\PG=C01 [X
 (C5H10O2)]\NImag=0\\0.35757007,-0.09256354,0.31959113,-0.03113610,0.19
 586032,0.27714195,-0.00037043,0.01187855,0.00792676,0.38296296,0.01503
 596,0.00067484,-0.01140707,-0.28378361,0.25994721,0.00268839,-0.007107
 04,-0.00992817,0.10945236,-0.04725089,0.45191783,-0.10750502,-0.039799
 42,-0.04757434,-0.00214798,0.00048114,0.00270764,0.56641364,-0.0210165
 9,-0.12279776,-0.05823510,-0.00154824,0.00384079,0.00252966,-0.0525482
 4,0.49628116,-0.02915058,-0.05969882,-0.12146920,-0.00470873,0.0053933
 2,0.00300703,0.02227559,-0.04654852,0.52898960,-0.00484566,-0.01666572
 ,-0.00019164,0.00020543,-0.00064082,-0.00034278,-0.10644247,-0.0334102
 5,0.02892712,0.56339460,-0.01820272,-0.03527950,-0.00154428,0.00083115
 ,-0.00074688,-0.00044695,-0.03492411,-0.13793307,0.04843882,-0.0343481
 1,0.52707690,-0.01389349,-0.03101444,0.00664162,0.00102269,-0.00045378
 ,-0.00059572,0.03467719,0.05474657,-0.11583349,0.01967299,0.04065648,0
 .56368271,0.00961324,-0.00371182,-0.00362208,0.00057866,-0.00036367,-0
 .00062078,-0.18084099,0.03969960,0.05243605,-0.01851663,0.00258803,0.0
 1070794,0.52019024,0.02519262,-0.02049904,-0.02314579,0.00073775,-0.00
 035544,-0.00083375,0.03027161,-0.08750269,-0.01082050,-0.02215446,0.01
 057984,0.01369191,0.03099242,0.58401441,0.02426183,-0.02234100,-0.0205
 5047,0.00041317,-0.00021434,-0.00066610,0.04055077,-0.01024175,-0.1001
 2744,0.01877120,-0.00199383,-0.00919075,0.03060780,-0.01027427,0.57030
 580,-0.21611734,0.11788814,0.06038098,-0.00070777,0.00692015,0.0334039
 1,0.00766802,0.01122623,0.01175972,-0.00028124,-0.00420288,-0.00478034
 ,-0.00114955,-0.00164357,-0.00210194,0.43957773,0.09389459,-0.12469534
 ,-0.05796652,0.00708718,-0.00481409,-0.03007189,0.02205001,-0.03128048
 ,-0.02112136,-0.00015930,-0.00057464,0.00048677,-0.00079887,-0.0018330
 6,-0.00076999,-0.22936800,0.31868558,0.03992820,-0.05552187,-0.1094020
 2,0.01102983,-0.00762352,-0.01071120,0.02339898,-0.02414052,-0.0238690
 1,-0.00094863,0.00124266,0.00268373,-0.00193724,-0.00431273,-0.0034389
 9,0.02634226,0.09949184,0.89650851,-0.00436116,0.01087346,0.03722901,-
 0.18003979,0.12318337,0.04357958,-0.00367794,-0.00246549,0.00087091,0.
 00011950,-0.00030603,-0.00020731,0.00058596,0.00057815,0.00099941,-0.0
 9645751,0.03481247,0.00610760,0.45952606,-0.00077152,-0.00391513,-0.02
 293812,0.12664516,-0.14835818,-0.04867796,0.00309754,-0.00145675,-0.00
 444014,-0.00013039,0.00084103,0.00035026,-0.00034821,-0.00056877,-0.00
 084299,0.03944325,-0.08990239,-0.07351425,-0.26435852,0.34435907,0.011
 81677,-0.00970780,-0.01150298,0.07922896,-0.08184016,-0.15537241,-0.00
 054076,0.00273145,0.00037740,0.00088353,0.00036870,0.00043003,0.000255
 13,0.00027620,0.00061243,0.00731378,-0.06952583,-0.55566379,0.04519562
 ,0.06496732,0.91665459,-0.00770761,-0.00301093,-0.01430406,0.00025046,
 -0.00015597,-0.00025410,-0.13864322,0.06622455,-0.09496917,0.00994674,
 -0.00824484,0.01207704,-0.01800535,0.01316967,-0.01695292,-0.00003914,
 0.00105137,0.00299024,0.00037264,-0.00028384,0.00006822,0.15511485,-0.
 01746847,0.00188504,-0.02763274,0.00005265,-0.00033750,-0.00009930,0.0
 6962810,-0.09998328,0.07541259,0.01495280,-0.01123090,0.01769070,0.006
 52077,-0.00413290,0.00731117,-0.00494232,0.00364590,-0.00056626,0.0002
 1815,-0.00004892,-0.00019733,-0.06777716,0.11108035,-0.01768335,-0.006
 91169,-0.02661719,0.00029178,-0.00041795,-0.00025560,-0.09298811,0.072
 66000,-0.15343851,-0.00911432,0.01016867,-0.01029449,0.01082464,-0.006
 67924,0.01165265,-0.00475405,0.00384554,0.00156427,0.00081341,-0.00038
 670,-0.00009590,0.10807035,-0.07256828,0.17676430,0.00050226,0.0019418
 3,0.00030219,-0.00019481,0.00014362,0.00017819,0.00954843,-0.00740236,
 0.01185807,-0.14951850,0.07025303,-0.11101293,0.00174283,-0.00040618,0
 .00042220,0.00027819,0.00003869,-0.00000465,0.00015862,-0.00007119,-0.
 00030662,-0.00089054,-0.00287319,0.00183548,0.15938215,0.00037070,0.00
 284197,-0.00123376,0.00000188,0.00003513,-0.00007202,0.01611257,-0.013
 17862,0.01966875,0.06948912,-0.09299248,0.07369544,0.00109887,0.000585
 43,-0.00114407,0.00031939,-0.00033926,-0.00028158,-0.00000698,-0.00003
 483,0.00022748,-0.00299161,-0.00314960,0.00222375,-0.07504025,0.099813
 18,0.00048806,-0.00103636,0.00220191,-0.00003020,0.00003107,0.00004662
 ,-0.01133110,0.00720526,-0.01414330,-0.10922068,0.07448752,-0.16547686
 ,-0.00113668,-0.00033814,0.00043027,0.00020141,0.00015619,-0.00021789,
 -0.00001826,0.00011156,-0.00008380,0.00218835,0.00241724,-0.00041882,0
 .11958282,-0.08539545,0.17886493,0.00074413,0.00041004,-0.00058712,-0.
 00034013,0.00034453,0.00016888,-0.01345409,0.00646869,0.00669443,-0.22
 240551,0.07786528,0.10282322,-0.00036526,-0.00363131,0.00154232,0.0002
 2559,0.00063193,0.00081948,0.00062725,-0.00009207,-0.00096217,0.000674
 60,-0.00041947,-0.00028643,-0.01497784,0.00631328,0.00980851,0.2399945
 3,0.00200954,0.00181638,-0.00067576,-0.00036627,0.00018878,0.00018857,
 -0.02202175,0.01098276,0.01255578,0.07967953,-0.08193530,-0.04610320,-
 0.00188815,-0.00428416,0.00169491,-0.00068397,-0.00113786,-0.00003258,
 0.00037950,-0.00087416,-0.00061275,0.00078528,0.00100987,-0.00067183,0
 .00942737,-0.00537836,-0.00691947,-0.08461985,0.08729833,-0.00077419,-
 0.00053240,0.00010309,0.00009012,-0.00011433,-0.00006977,0.01295439,-0
 .00739920,-0.00901602,0.10340757,-0.04484901,-0.10854505,0.00077035,0.
 00325830,-0.00096489,-0.00042230,-0.00051825,0.00032656,-0.00030885,0.
 00001157,0.00009696,-0.00035356,-0.00041695,0.00017573,-0.01801774,0.0
 0790908,0.01175816,-0.11528313,0.04874537,0.11581009,-0.00101482,-0.00
 492022,0.00123974,0.00023415,-0.00011181,-0.00010188,-0.00522446,-0.00
 753295,-0.01217120,-0.06947086,-0.05556694,-0.05190831,0.00027012,0.00
 038318,-0.00050817,-0.00075757,0.00119250,0.00093765,0.00001246,0.0002
 0429,-0.00046534,0.00049321,0.00022983,0.00023868,-0.00598892,-0.01465
 488,-0.01160350,0.00948861,0.01853306,0.01683385,0.07218034,-0.0027773
 2,-0.00663373,0.00116856,0.00043725,-0.00041700,-0.00033277,-0.0040694
 0,-0.01349097,-0.01879009,-0.05607782,-0.17748327,-0.12191056,0.000616
 84,0.00054649,-0.00075810,-0.00196410,0.00133256,0.00083577,-0.0000774
 1,0.00034312,0.00025471,0.00090408,0.00038794,0.00039968,0.00385792,0.
 01111226,0.00956456,-0.00345810,-0.00789977,-0.00615312,0.06246406,0.1
 9172335,0.00265934,0.00444336,0.00068780,-0.00003860,-0.00005122,0.000
 05060,0.00398578,0.00972434,0.01052762,-0.05308128,-0.12378838,-0.1637
 8601,-0.00010322,-0.00034968,0.00005689,0.00048794,-0.00046641,-0.0004
 6950,-0.00022390,0.00000654,0.00024258,-0.00080829,-0.00068758,0.00042
 566,-0.00448311,-0.01506416,-0.01313502,-0.00539373,-0.00913533,-0.009
 86981,0.05670836,0.13496402,0.17500152,0.00201540,-0.00151023,-0.00016
 343,-0.00007010,0.00003206,0.00004894,-0.02161610,0.01231440,-0.021522
 11,0.00127648,0.00051143,-0.00150135,-0.14821458,0.06467768,-0.1118135
 7,0.00013712,-0.00003664,0.00011114,0.00014447,-0.00008831,-0.00000530
 ,-0.00371813,0.00169034,0.00351102,-0.00011089,-0.00068068,0.00086835,
 0.00051822,-0.00012290,0.00029085,-0.00004531,-0.00000144,0.00007061,0
 .16370712,-0.00067424,0.00086494,0.00057295,-0.00004293,0.00006495,0.0
 0002665,0.00839480,-0.00611894,0.00779710,-0.00118078,0.00015654,-0.00
 036172,0.06452440,-0.08892578,0.07302123,0.00001712,-0.00026599,-0.000
 14818,-0.00005492,-0.00000203,0.00001346,0.00158335,0.00011587,-0.0014
 1357,-0.00003677,0.00055460,-0.00005359,-0.00006345,-0.00010026,-0.000
 06428,-0.00010596,-0.00000799,-0.00009560,-0.07339492,0.09236373,-0.00
 055559,0.00148455,0.00143400,-0.00009126,0.00009011,0.00009234,0.01044
 686,-0.00656079,0.00989102,-0.00004144,-0.00081631,0.00127644,-0.11412
 834,0.07373267,-0.17267791,0.00047181,-0.00032923,0.00013593,-0.000086
 32,0.00004036,-0.00006264,0.00278074,-0.00130240,-0.00063615,-0.000336
 52,-0.00001764,-0.00004736,-0.00008582,-0.00009015,0.00008348,-0.00002
 578,0.00012762,-0.00000399,0.12237604,-0.08007324,0.18440039,0.0020100
 0,-0.00026399,-0.00203920,0.00000260,-0.00003652,-0.00004755,-0.014037
 71,-0.02439213,0.01299202,-0.00435426,0.00366226,0.00240341,-0.1038873
 5,-0.09393332,0.05577163,-0.00002787,0.00025321,-0.00008637,0.00010145
 ,-0.00000948,-0.00010283,0.00079968,-0.00027300,-0.00080323,0.00010279
 ,-0.00001201,0.00018827,-0.00067983,-0.00140731,0.00114221,0.00020781,
 0.00027851,-0.00022577,0.01021839,0.01627459,-0.00851602,0.11349378,-0
 .00010510,0.00112532,0.00078231,-0.00014641,0.00011530,0.00010357,0.00
 592188,0.00841798,-0.00657233,0.00119139,-0.00029347,-0.00122495,-0.09
 688844,-0.20887207,0.09630872,0.00023854,0.00011987,0.00010088,0.00008
 253,-0.00001659,-0.00009597,-0.00075726,0.00069702,0.00024635,0.000067
 42,0.00003502,-0.00026836,0.00039944,0.00047032,-0.00031684,0.00022441
 ,0.00007298,0.00005746,-0.00548902,-0.00919845,0.00408141,0.10398180,0
 .22298679,-0.00117044,0.00049083,0.00103567,-0.00011277,0.00013793,0.0
 0010599,0.00614828,0.01202090,-0.00820619,0.00255177,-0.00206852,-0.00
 092318,0.05558221,0.09439568,-0.10294245,0.00014461,-0.00036851,-0.000
 00780,-0.00004861,-0.00003589,-0.00000703,-0.00039078,-0.00055866,0.00
 051139,-0.00012745,-0.00034976,0.00038616,0.00072336,0.00076979,-0.000
 02858,0.00008225,0.00025588,0.00017598,0.01100845,0.01621202,-0.009629
 93,-0.06347035,-0.10391538,0.10782325,-0.00526009,0.00381101,0.0038876
 0,-0.00031051,0.00011140,0.00032374,0.00981750,0.01740075,0.01719471,0
 .00069646,-0.00015973,-0.00033787,-0.06221854,-0.04409364,-0.04223892,
 0.00100985,0.00045196,0.00139833,-0.00023487,0.00027826,-0.00017594,0.
 00078729,-0.00013184,-0.00105007,-0.00002188,-0.00011922,0.00000521,0.
 00013539,0.00014820,-0.00029617,-0.00043431,-0.00025186,0.00037609,-0.
 00443204,-0.01509828,-0.01212242,-0.00386599,-0.00870167,-0.01093647,0
 .06432937,0.00325990,-0.00111941,-0.00155762,0.00021972,-0.00025875,-0
 .00024411,-0.00528819,-0.00805199,-0.00500588,-0.00063697,-0.00000625,
 0.00024746,-0.04181307,-0.17861988,-0.12932549,-0.00085273,0.00075278,
 -0.00056282,0.00015140,-0.00006026,0.00008539,0.00012446,-0.00004118,0
 .00041952,0.00013436,0.00001000,0.00007179,0.00021462,0.00003428,0.000
 19069,-0.00010965,0.00048302,0.00024179,0.00229884,0.01036975,0.009650
 14,-0.00404468,-0.01563374,-0.01709475,0.04630588,0.19216041,0.0038165
 1,-0.00213655,-0.00104281,0.00028369,-0.00018543,-0.00024710,-0.007282
 92,-0.00769850,-0.00982498,-0.00076477,-0.00002160,0.00020742,-0.03997
 880,-0.12855595,-0.17260121,-0.00072155,0.00000183,-0.00009929,0.00004
 036,-0.00002245,0.00012132,0.00027173,0.00003397,0.00047381,0.00003670
 ,-0.00008528,-0.00007603,0.00003416,0.00019286,0.00027857,0.00068600,0
 .00040598,0.00004146,-0.00327987,-0.01535857,-0.01403938,0.00276115,0.
 01072489,0.01173486,0.04402942,0.14282618,0.18508492,-0.02412888,0.021
 41529,-0.01040506,-0.00059200,-0.00374281,0.00063784,-0.00085395,-0.00
 370054,-0.00331682,0.00014967,0.00040841,0.00052265,0.00037121,0.00011
 884,0.00044244,-0.14124813,0.06775390,-0.11191220,0.00471405,0.0023363
 0,0.00307343,0.00081113,0.00041035,0.00118965,-0.00010550,-0.00015533,
 0.00006018,-0.00007431,0.00003159,0.00001219,0.00014306,0.00021800,-0.
 00002025,0.00019373,-0.00017500,-0.00011229,-0.00004972,-0.00003179,-0
 .00003145,-0.00008507,0.00008962,0.00015887,0.15767006,0.01832779,-0.0
 1067658,0.00570027,-0.00535560,-0.00062909,0.00092597,0.00263318,0.002
 73207,0.00434921,-0.00011929,-0.00022449,-0.00039996,-0.00021559,-0.00
 012984,-0.00043130,0.06959193,-0.08043168,0.06813203,0.00071522,0.0059
 1567,-0.00396057,-0.00064660,0.00010691,-0.00091325,-0.00006547,0.0001
 8281,-0.00001747,-0.00016755,-0.00017856,0.00024693,-0.00015449,-0.000
 09412,0.00007289,-0.00021421,0.00012845,-0.00001362,-0.00004820,0.0000
 0120,0.00008598,0.00003701,-0.00005987,-0.00012831,-0.08878451,0.07836
 022,0.00867679,-0.00756734,0.01026284,0.00006227,0.00117394,0.00244696
 ,0.00252168,-0.00019867,0.00336172,-0.00046411,0.00005234,-0.00026423,
 0.00035369,-0.00002459,0.00011515,-0.11128190,0.06694672,-0.18627002,-
 0.02105401,0.01439653,-0.01453875,-0.00057708,0.00112650,-0.00001143,0
 .00004274,0.00003684,-0.00007951,0.00001919,0.00011983,-0.00010192,0.0
 0002560,-0.00004300,-0.00000075,-0.00002687,-0.00003416,-0.00019300,0.
 00003294,-0.00000976,-0.00002618,-0.00007582,0.00004584,-0.00002647,0.
 12042732,-0.07261696,0.19051035,-0.00135383,-0.00404325,0.00050215,-0.
 01740214,0.01388107,-0.01276372,0.00042779,0.00013903,0.00015290,0.000
 08161,-0.00003614,-0.00010137,-0.00004869,-0.00008648,-0.00004954,0.00
 579307,0.00287870,0.00213482,-0.15706946,0.07701279,-0.12231108,-0.000
 20132,0.00017571,-0.00005463,0.00008465,-0.00004603,-0.00007950,-0.000
 16688,0.00006547,-0.00006693,-0.00008016,-0.00001766,0.00009432,-0.000
 01278,0.00002236,0.00001268,-0.00001682,-0.00001157,0.00001268,0.00003
 086,0.00000250,-0.00003170,0.00301253,0.00416604,0.00029748,0.16765086
 ,-0.00297793,-0.00386411,0.00143359,0.01800349,-0.01142721,0.01179275,
 0.00018322,0.00005430,-0.00012750,0.00005496,0.00003395,-0.00010046,-0
 .00005763,-0.00005991,-0.00005875,-0.00102738,0.00996670,-0.00339798,0
 .07577537,-0.09111618,0.07609875,-0.00003968,-0.00001851,-0.00001782,0
 .00007796,-0.00010857,-0.00002878,-0.00013586,0.00009147,-0.00000228,-
 0.00006497,-0.00003901,0.00009781,0.00002008,0.00000204,0.00000899,-0.
 00001214,-0.00001000,0.00001984,0.00003765,0.00000480,-0.00002371,0.00
 379215,0.00503960,-0.00241583,-0.09697817,0.09129244,-0.00012432,0.000
 98919,0.00283589,0.01230807,-0.00836723,0.01367297,0.00002092,-0.00027
 912,-0.00051065,0.00000357,0.00013539,0.00002757,0.00002654,-0.0000423
 7,0.00002553,-0.02068109,0.01322423,-0.01327305,-0.12556450,0.08032968
 ,-0.19445747,0.00016684,0.00005997,0.00029361,0.00003106,-0.00012580,0
 .00000766,-0.00004591,-0.00001041,-0.00005354,0.00003770,0.00001751,0.
 00004272,0.00004063,-0.00004805,-0.00002797,-0.00001163,-0.00000222,-0
 .00000560,0.00001010,0.00001442,0.00001106,0.00051795,-0.00205328,-0.0
 0428341,0.13010443,-0.08084235,0.19569287,0.00020976,-0.00172920,-0.00
 144536,-0.18205861,0.12870192,-0.17905865,0.00056854,0.00054353,0.0006
 7709,-0.00003535,-0.00012808,-0.00016417,-0.00010534,-0.00017296,-0.00
 011771,0.00209653,-0.00173369,-0.00030944,-0.02452175,0.01713595,-0.02
 296539,-0.00004531,0.00000676,-0.00004082,0.00000898,0.00000119,0.0000
 2876,0.00005553,0.00005066,0.00002134,-0.00001336,-0.00008154,-0.00000
 430,0.00000899,0.00001060,0.00001368,-0.00001693,0.00002384,0.00003471
 ,0.00005656,-0.00005600,-0.00005898,0.00007212,0.00030033,0.00102008,-
 0.00072928,0.00334888,0.00315965,0.20444891,-0.00153367,0.00068097,0.0
 0081876,0.12534828,-0.09752286,0.11956951,-0.00012294,-0.00051451,-0.0
 0049044,0.00015613,0.00001199,0.00000348,0.00004450,0.00005736,0.00005
 985,-0.00095979,0.00077140,0.00029912,0.02049974,-0.01510472,0.0209169
 3,0.00006513,0.00001388,0.00001681,-0.00004681,0.00001131,0.00001242,-
 0.00006016,-0.00010376,0.00000472,-0.00000945,0.00006413,0.00003016,-0
 .00000649,-0.00000144,-0.00001247,-0.00001760,-0.00001748,0.00000263,-
 0.00002587,0.00003628,0.00003064,0.00001554,-0.00004270,-0.00098825,0.
 00287564,0.00015820,-0.00299957,-0.14622219,0.11150193,0.00015217,0.00
 030707,-0.00183194,-0.21712813,0.15109954,-0.29349427,0.00002917,-0.00
 031600,0.00028441,-0.00004812,-0.00002170,-0.00003974,-0.00003721,0.00
 002223,-0.00003851,0.00423675,-0.00301512,0.00220353,0.01267586,-0.009
 35533,0.01324946,-0.00000356,-0.00002265,-0.00009334,-0.00000042,0.000
 00818,-0.00001711,0.00001075,-0.00001565,0.00001693,-0.00000565,-0.000
 00666,0.00001227,-0.00001352,0.00000754,0.00000472,0.00001133,0.000000
 21,0.00000366,0.00000846,-0.00000255,0.00000384,-0.00124443,0.00102146
 ,-0.00090135,0.00214700,-0.00243628,0.00000182,0.19920956,-0.13727429,
 0.28063562\\-0.00000055,0.00000002,-0.00000071,-0.00000017,0.00000061,
 -0.00000095,-0.00000004,-0.00000046,-0.00000005,0.00000097,-0.00000044
 ,0.00000118,0.,-0.00000002,-0.00000001,-0.00000042,0.00000028,-0.00000
 072,-0.00000030,0.00000105,-0.00000088,-0.00000091,-0.00000149,0.00000
 028,0.00000155,0.00000057,0.00000137,0.00000098,-0.00000045,0.00000146
 ,0.00000119,-0.00000096,0.00000201,0.00000047,0.00000087,-0.00000002,-
 0.00000088,-0.00000015,-0.00000080,0.,-0.00000068,0.00000065,-0.000001
 20,-0.00000077,-0.00000076,0.00000045,0.00000191,-0.00000088,-0.000001
 15,0.00000012,-0.00000118\\\@


 IT IS BY LOGIC THAT WE PROVE, BUT BY INTUITION THAT WE DISCOVER.
     -- J.H.POINCARE (1854-1912)
 Job cpu time:       0 days  3 hours 24 minutes 29.4 seconds.
 Elapsed time:       0 days  1 hours 51 minutes 14.9 seconds.
 File lengths (MBytes):  RWF=   1392 Int=      0 D2E=      0 Chk=     32 Scr=     32
 Normal termination of Gaussian 16 at Thu Sep 26 21:08:13 2019.
