 Entering Gaussian System, Link 0=g16
 Input=med/species/CC(C)OC=CO/conformers/CC(C)OC=CO_46.com
 Output=med/species/CC(C)OC=CO/conformers/CC(C)OC=CO_46.log
 Initial command:
 /shared/centos7/gaussian/g16/l1.exe "/scratch/harms.n/gauss_scrdir/Gau-28534.inp" -scrdir="/scratch/harms.n/gauss_scrdir/"
 Entering Link 1 = /shared/centos7/gaussian/g16/l1.exe PID=     28535.
  
 Copyright (c) 1988,1990,1992,1993,1995,1998,2003,2009,2016,
            Gaussian, Inc.  All Rights Reserved.
  
 This is part of the Gaussian(R) 16 program.  It is based on
 the Gaussian(R) 09 system (copyright 2009, Gaussian, Inc.),
 the Gaussian(R) 03 system (copyright 2003, Gaussian, Inc.),
 the Gaussian(R) 98 system (copyright 1998, Gaussian, Inc.),
 the Gaussian(R) 94 system (copyright 1995, Gaussian, Inc.),
 the Gaussian 92(TM) system (copyright 1992, Gaussian, Inc.),
 the Gaussian 90(TM) system (copyright 1990, Gaussian, Inc.),
 the Gaussian 88(TM) system (copyright 1988, Gaussian, Inc.),
 the Gaussian 86(TM) system (copyright 1986, Carnegie Mellon
 University), and the Gaussian 82(TM) system (copyright 1983,
 Carnegie Mellon University). Gaussian is a federally registered
 trademark of Gaussian, Inc.
  
 This software contains proprietary and confidential information,
 including trade secrets, belonging to Gaussian, Inc.
  
 This software is provided under written license and may be
 used, copied, transmitted, or stored only in accord with that
 written license.
  
 The following legend is applicable only to US Government
 contracts under FAR:
  
                    RESTRICTED RIGHTS LEGEND
  
 Use, reproduction and disclosure by the US Government is
 subject to restrictions as set forth in subparagraphs (a)
 and (c) of the Commercial Computer Software - Restricted
 Rights clause in FAR 52.227-19.
  
 Gaussian, Inc.
 340 Quinnipiac St., Bldg. 40, Wallingford CT 06492
  
  
 ---------------------------------------------------------------
 Warning -- This program may not be used in any manner that
 competes with the business of Gaussian, Inc. or will provide
 assistance to any competitor of Gaussian, Inc.  The licensee
 of this program is prohibited from giving any competitor of
 Gaussian, Inc. access to this program.  By using this program,
 the user acknowledges that Gaussian, Inc. is engaged in the
 business of creating and licensing software in the field of
 computational chemistry and represents and warrants to the
 licensee that it is not a competitor of Gaussian, Inc. and that
 it will not use this program in any manner prohibited above.
 ---------------------------------------------------------------
  

 Cite this work as:
 Gaussian 16, Revision A.03,
 M. J. Frisch, G. W. Trucks, H. B. Schlegel, G. E. Scuseria, 
 M. A. Robb, J. R. Cheeseman, G. Scalmani, V. Barone, 
 G. A. Petersson, H. Nakatsuji, X. Li, M. Caricato, A. V. Marenich, 
 J. Bloino, B. G. Janesko, R. Gomperts, B. Mennucci, H. P. Hratchian, 
 J. V. Ortiz, A. F. Izmaylov, J. L. Sonnenberg, D. Williams-Young, 
 F. Ding, F. Lipparini, F. Egidi, J. Goings, B. Peng, A. Petrone, 
 T. Henderson, D. Ranasinghe, V. G. Zakrzewski, J. Gao, N. Rega, 
 G. Zheng, W. Liang, M. Hada, M. Ehara, K. Toyota, R. Fukuda, 
 J. Hasegawa, M. Ishida, T. Nakajima, Y. Honda, O. Kitao, H. Nakai, 
 T. Vreven, K. Throssell, J. A. Montgomery, Jr., J. E. Peralta, 
 F. Ogliaro, M. J. Bearpark, J. J. Heyd, E. N. Brothers, K. N. Kudin, 
 V. N. Staroverov, T. A. Keith, R. Kobayashi, J. Normand, 
 K. Raghavachari, A. P. Rendell, J. C. Burant, S. S. Iyengar, 
 J. Tomasi, M. Cossi, J. M. Millam, M. Klene, C. Adamo, R. Cammi, 
 J. W. Ochterski, R. L. Martin, K. Morokuma, O. Farkas, 
 J. B. Foresman, and D. J. Fox, Gaussian, Inc., Wallingford CT, 2016.
 
 ******************************************
 Gaussian 16:  EM64L-G16RevA.03 25-Dec-2016
                26-Sep-2019 
 ******************************************
 %nprocshared=20
 Will use up to   20 processors via shared memory.
 %mem=5GB
 ----------------------------------------------------------------------
 #p m062x/cc-pVTZ opt=(calcfc,maxcycles=900,Tight) freq IOP(7/33=1,2/16
 =3) scf=(maxcycle=900)
 ----------------------------------------------------------------------
 1/6=900,7=10,10=4,18=20,19=15,26=3,38=1/1,3;
 2/9=110,12=2,16=3,17=6,18=5,40=1/2;
 3/5=16,6=1,11=2,25=1,30=1,71=2,74=-55,140=1/1,2,3;
 4//1;
 5/5=2,7=900,38=5/2;
 8/6=4,10=90,11=11/1;
 11/6=1,8=1,9=11,15=111,16=1/1,2,10;
 10/6=1,13=1/2;
 6/7=2,8=2,9=2,10=2,28=1/1;
 7/10=1,18=20,25=1,33=1/1,2,3,16;
 1/6=900,7=10,10=4,18=20,19=15,26=3/3(2);
 2/9=110,16=3/2;
 99//99;
 2/9=110,16=3/2;
 3/5=16,6=1,11=2,25=1,30=1,71=1,74=-55/1,2,3;
 4/5=5,16=3,69=1/1;
 5/5=2,7=900,38=5/2;
 7/33=1/1,2,3,16;
 1/6=900,7=10,18=20,19=15,26=3/3(-5);
 2/9=110,16=3/2;
 6/7=2,8=2,9=2,10=2,19=2,28=1/1;
 99/9=1/99;
 Leave Link    1 at Thu Sep 26 12:40:54 2019, MaxMem=   671088640 cpu:               4.1 elap:               2.1
 (Enter /shared/centos7/gaussian/g16/l101.exe)
 ------------------------------
 Gaussian input prepared by ASE
 ------------------------------
 Symbolic Z-matrix:
 Charge =  0 Multiplicity = 1
 O                     2.8286    1.60177   2.39576 
 O                     0.97163   1.07846   0.33116 
 C                     2.16964   2.03216   3.56811 
 C                     2.65357   1.30117   4.8205 
 C                     0.68397   1.95391   3.43872 
 C                     2.45956   0.33017   2.02059 
 C                     1.61845   0.0893    1.05696 
 H                     2.44156   3.11945   3.6691 
 H                     2.56922   0.20213   4.68932 
 H                     3.7063    1.5406    5.05697 
 H                     2.02486   1.57949   5.70926 
 H                     0.18292   2.56779   4.2442 
 H                     0.31848   0.91031   3.53561 
 H                     0.34482   2.34994   2.43987 
 H                     2.96298  -0.48616   2.56271 
 H                     1.35138  -0.90767   0.73893 
 H                     1.33108   1.94806   0.67229 
 
 ITRead=  0  0  0  0  0  0  0  0  0  0  0  0  0  0  0  0  0
 MicOpt= -1 -1 -1 -1 -1 -1 -1 -1 -1 -1 -1 -1 -1 -1 -1 -1 -1
 NAtoms=     17 NQM=       17 NQMF=       0 NMMI=      0 NMMIF=      0
                NMic=       0 NMicF=      0.
                    Isotopes and Nuclear Properties:
 (Nuclear quadrupole moments (NQMom) in fm**2, nuclear magnetic moments (NMagM)
  in nuclear magnetons)

  Atom         1           2           3           4           5           6           7           8           9          10
 IAtWgt=          16          16          12          12          12          12          12           1           1           1
 AtmWgt=  15.9949146  15.9949146  12.0000000  12.0000000  12.0000000  12.0000000  12.0000000   1.0078250   1.0078250   1.0078250
 NucSpn=           0           0           0           0           0           0           0           1           1           1
 AtZEff=  -0.0000000  -0.0000000  -0.0000000  -0.0000000  -0.0000000  -0.0000000  -0.0000000  -0.0000000  -0.0000000  -0.0000000
 NQMom=    0.0000000   0.0000000   0.0000000   0.0000000   0.0000000   0.0000000   0.0000000   0.0000000   0.0000000   0.0000000
 NMagM=    0.0000000   0.0000000   0.0000000   0.0000000   0.0000000   0.0000000   0.0000000   2.7928460   2.7928460   2.7928460
 AtZNuc=   8.0000000   8.0000000   6.0000000   6.0000000   6.0000000   6.0000000   6.0000000   1.0000000   1.0000000   1.0000000

  Atom        11          12          13          14          15          16          17
 IAtWgt=           1           1           1           1           1           1           1
 AtmWgt=   1.0078250   1.0078250   1.0078250   1.0078250   1.0078250   1.0078250   1.0078250
 NucSpn=           1           1           1           1           1           1           1
 AtZEff=  -0.0000000  -0.0000000  -0.0000000  -0.0000000  -0.0000000  -0.0000000  -0.0000000
 NQMom=    0.0000000   0.0000000   0.0000000   0.0000000   0.0000000   0.0000000   0.0000000
 NMagM=    2.7928460   2.7928460   2.7928460   2.7928460   2.7928460   2.7928460   2.7928460
 AtZNuc=   1.0000000   1.0000000   1.0000000   1.0000000   1.0000000   1.0000000   1.0000000
 Leave Link  101 at Thu Sep 26 12:40:56 2019, MaxMem=   671088640 cpu:               2.7 elap:               1.3
 (Enter /shared/centos7/gaussian/g16/l103.exe)

 GradGradGradGradGradGradGradGradGradGradGradGradGradGradGradGradGradGrad
 Berny optimization.
 Initialization pass.
                           ----------------------------
                           !    Initial Parameters    !
                           ! (Angstroms and Degrees)  !
 --------------------------                            --------------------------
 ! Name  Definition              Value          Derivative Info.                !
 --------------------------------------------------------------------------------
 ! R1    R(1,3)                  1.412          calculate D2E/DX2 analytically  !
 ! R2    R(1,6)                  1.3762         calculate D2E/DX2 analytically  !
 ! R3    R(2,7)                  1.3869         calculate D2E/DX2 analytically  !
 ! R4    R(2,17)                 1.0009         calculate D2E/DX2 analytically  !
 ! R5    R(3,4)                  1.5287         calculate D2E/DX2 analytically  !
 ! R6    R(3,5)                  1.4933         calculate D2E/DX2 analytically  !
 ! R7    R(3,8)                  1.1253         calculate D2E/DX2 analytically  !
 ! R8    R(4,9)                  1.1101         calculate D2E/DX2 analytically  !
 ! R9    R(4,10)                 1.1052         calculate D2E/DX2 analytically  !
 ! R10   R(4,11)                 1.1237         calculate D2E/DX2 analytically  !
 ! R11   R(5,12)                 1.1299         calculate D2E/DX2 analytically  !
 ! R12   R(5,13)                 1.11           calculate D2E/DX2 analytically  !
 ! R13   R(5,14)                 1.1267         calculate D2E/DX2 analytically  !
 ! R14   R(6,7)                  1.3016         calculate D2E/DX2 analytically  !
 ! R15   R(6,15)                 1.1017         calculate D2E/DX2 analytically  !
 ! R16   R(7,16)                 1.08           calculate D2E/DX2 analytically  !
 ! A1    A(3,1,6)              112.509          calculate D2E/DX2 analytically  !
 ! A2    A(7,2,17)             105.8904         calculate D2E/DX2 analytically  !
 ! A3    A(1,3,4)              112.7493         calculate D2E/DX2 analytically  !
 ! A4    A(1,3,5)              112.1087         calculate D2E/DX2 analytically  !
 ! A5    A(1,3,8)              104.8472         calculate D2E/DX2 analytically  !
 ! A6    A(4,3,5)              111.153          calculate D2E/DX2 analytically  !
 ! A7    A(4,3,8)              108.1798         calculate D2E/DX2 analytically  !
 ! A8    A(5,3,8)              107.3851         calculate D2E/DX2 analytically  !
 ! A9    A(3,4,9)              110.6437         calculate D2E/DX2 analytically  !
 ! A10   A(3,4,10)             111.9144         calculate D2E/DX2 analytically  !
 ! A11   A(3,4,11)             110.635          calculate D2E/DX2 analytically  !
 ! A12   A(9,4,10)             108.1889         calculate D2E/DX2 analytically  !
 ! A13   A(9,4,11)             107.2285         calculate D2E/DX2 analytically  !
 ! A14   A(10,4,11)            108.0632         calculate D2E/DX2 analytically  !
 ! A15   A(3,5,12)             110.5445         calculate D2E/DX2 analytically  !
 ! A16   A(3,5,13)             111.6715         calculate D2E/DX2 analytically  !
 ! A17   A(3,5,14)             110.9681         calculate D2E/DX2 analytically  !
 ! A18   A(12,5,13)            107.6117         calculate D2E/DX2 analytically  !
 ! A19   A(12,5,14)            107.9095         calculate D2E/DX2 analytically  !
 ! A20   A(13,5,14)            107.9821         calculate D2E/DX2 analytically  !
 ! A21   A(1,6,7)              123.1017         calculate D2E/DX2 analytically  !
 ! A22   A(1,6,15)             115.3391         calculate D2E/DX2 analytically  !
 ! A23   A(7,6,15)             121.4993         calculate D2E/DX2 analytically  !
 ! A24   A(2,7,6)              123.8373         calculate D2E/DX2 analytically  !
 ! A25   A(2,7,16)             112.8882         calculate D2E/DX2 analytically  !
 ! A26   A(6,7,16)             123.2746         calculate D2E/DX2 analytically  !
 ! D1    D(6,1,3,4)             70.696          calculate D2E/DX2 analytically  !
 ! D2    D(6,1,3,5)            -55.6527         calculate D2E/DX2 analytically  !
 ! D3    D(6,1,3,8)           -171.8417         calculate D2E/DX2 analytically  !
 ! D4    D(3,1,6,7)            101.966          calculate D2E/DX2 analytically  !
 ! D5    D(3,1,6,15)           -80.8137         calculate D2E/DX2 analytically  !
 ! D6    D(17,2,7,6)             3.1634         calculate D2E/DX2 analytically  !
 ! D7    D(17,2,7,16)         -176.833          calculate D2E/DX2 analytically  !
 ! D8    D(1,3,4,9)            -54.5309         calculate D2E/DX2 analytically  !
 ! D9    D(1,3,4,10)            66.2069         calculate D2E/DX2 analytically  !
 ! D10   D(1,3,4,11)          -173.2212         calculate D2E/DX2 analytically  !
 ! D11   D(5,3,4,9)             72.328          calculate D2E/DX2 analytically  !
 ! D12   D(5,3,4,10)          -166.9342         calculate D2E/DX2 analytically  !
 ! D13   D(5,3,4,11)           -46.3623         calculate D2E/DX2 analytically  !
 ! D14   D(8,3,4,9)           -170.0086         calculate D2E/DX2 analytically  !
 ! D15   D(8,3,4,10)           -49.2707         calculate D2E/DX2 analytically  !
 ! D16   D(8,3,4,11)            71.3012         calculate D2E/DX2 analytically  !
 ! D17   D(1,3,5,12)          -163.6163         calculate D2E/DX2 analytically  !
 ! D18   D(1,3,5,13)            76.6075         calculate D2E/DX2 analytically  !
 ! D19   D(1,3,5,14)           -43.926          calculate D2E/DX2 analytically  !
 ! D20   D(4,3,5,12)            69.1743         calculate D2E/DX2 analytically  !
 ! D21   D(4,3,5,13)           -50.6019         calculate D2E/DX2 analytically  !
 ! D22   D(4,3,5,14)          -171.1354         calculate D2E/DX2 analytically  !
 ! D23   D(8,3,5,12)           -48.9705         calculate D2E/DX2 analytically  !
 ! D24   D(8,3,5,13)          -168.7467         calculate D2E/DX2 analytically  !
 ! D25   D(8,3,5,14)            70.7198         calculate D2E/DX2 analytically  !
 ! D26   D(1,6,7,2)             -2.0559         calculate D2E/DX2 analytically  !
 ! D27   D(1,6,7,16)           177.9402         calculate D2E/DX2 analytically  !
 ! D28   D(15,6,7,2)          -179.1094         calculate D2E/DX2 analytically  !
 ! D29   D(15,6,7,16)            0.8867         calculate D2E/DX2 analytically  !
 --------------------------------------------------------------------------------
 Trust Radius=3.00D-01 FncErr=1.00D-07 GrdErr=1.00D-06 EigMax=2.50D+02 EigMin=1.00D-04
 Number of steps in this run=    102 maximum allowed number of steps=    102.
 GradGradGradGradGradGradGradGradGradGradGradGradGradGradGradGradGradGrad

 Leave Link  103 at Thu Sep 26 12:40:56 2019, MaxMem=   671088640 cpu:               1.5 elap:               0.7
 (Enter /shared/centos7/gaussian/g16/l202.exe)
                          Input orientation:                          
 ---------------------------------------------------------------------
 Center     Atomic      Atomic             Coordinates (Angstroms)
 Number     Number       Type             X           Y           Z
 ---------------------------------------------------------------------
      1          8           0        2.828599    1.601768    2.395756
      2          8           0        0.971629    1.078457    0.331160
      3          6           0        2.169641    2.032158    3.568110
      4          6           0        2.653572    1.301171    4.820500
      5          6           0        0.683974    1.953914    3.438721
      6          6           0        2.459555    0.330175    2.020587
      7          6           0        1.618454    0.089304    1.056957
      8          1           0        2.441556    3.119453    3.669095
      9          1           0        2.569221    0.202132    4.689320
     10          1           0        3.706303    1.540599    5.056968
     11          1           0        2.024858    1.579488    5.709257
     12          1           0        0.182922    2.567791    4.244196
     13          1           0        0.318479    0.910314    3.535606
     14          1           0        0.344821    2.349941    2.439872
     15          1           0        2.962981   -0.486160    2.562709
     16          1           0        1.351382   -0.907668    0.738929
     17          1           0        1.331077    1.948061    0.672291
 ---------------------------------------------------------------------
                    Distance matrix (angstroms):
                    1          2          3          4          5
     1  O    0.000000
     2  O    2.825729   0.000000
     3  C    1.412047   3.580869   0.000000
     4  C    2.449567   4.799241   1.528729   0.000000
     5  C    2.410643   3.241313   1.493342   2.492931   0.000000
     6  C    1.376189   2.372343   2.318540   2.969848   2.792906
     7  C    2.354651   1.386935   3.222480   4.087096   3.165885
     8  H    2.018555   4.179493   1.125320   2.162599   2.121473
     9  H    2.699388   4.723749   2.183065   1.110050   2.861276
    10  H    2.802884   5.479533   2.195372   1.105209   3.453119
    11  H    3.409661   5.503113   2.193258   1.123668   2.663362
    12  H    3.368907   4.260519   2.165882   2.835588   1.129905
    13  H    2.842195   3.274653   2.164807   2.693767   1.109989
    14  H    2.594391   2.540910   2.168842   3.478166   1.126748
    15  H    2.098899   3.375400   2.825269   2.896189   3.451845
    16  H    3.350301   2.062809   4.161297   4.820155   3.990359
    17  H    2.309290   1.000891   3.015963   4.401716   2.841112
                    6          7          8          9         10
     6  C    0.000000
     7  C    1.301558   0.000000
     8  H    3.240058   4.084430   0.000000
     9  H    2.674053   3.756428   3.093206   0.000000
    10  H    3.498445   4.739774   2.453275   1.794329   0.000000
    11  H    3.918678   4.902011   2.589863   1.798254   1.803955
    12  H    3.890298   4.285107   2.395099   3.389528   3.758981
    13  H    2.686271   2.916796   3.066850   2.626484   3.766849
    14  H    2.954210   2.940251   2.549399   3.823749   4.336334
    15  H    1.101697   2.099096   3.807416   2.269640   3.298728
    16  H    2.098321   1.080011   5.098241   4.280231   5.494099
    17  H    2.389334   1.919773   3.403845   4.551680   5.003311
                   11         12         13         14         15
    11  H    0.000000
    12  H    2.552621   0.000000
    13  H    2.843287   1.807679   0.000000
    14  H    3.755663   1.824624   1.809379   0.000000
    15  H    3.879142   4.459007   3.144847   3.861777   0.000000
    16  H    5.598543   5.072574   3.491898   3.810300   2.470040
    17  H    5.097863   3.802740   3.209494   2.063626   3.487438
                   16         17
    16  H    0.000000
    17  H    2.856578   0.000000
 Stoichiometry    C5H10O2
 Framework group  C1[X(C5H10O2)]
 Deg. of freedom    45
 Full point group                 C1      NOp   1
 Largest Abelian subgroup         C1      NOp   1
 Largest concise Abelian subgroup C1      NOp   1
                         Standard orientation:                         
 ---------------------------------------------------------------------
 Center     Atomic      Atomic             Coordinates (Angstroms)
 Number     Number       Type             X           Y           Z
 ---------------------------------------------------------------------
      1          8           0       -0.143988   -0.546177    0.873520
      2          8           0        2.355298    0.572302    0.175439
      3          6           0       -1.204005    0.275928    0.432629
      4          6           0       -2.297216   -0.507828   -0.293750
      5          6           0       -0.720480    1.420430   -0.395857
      6          6           0        0.626112   -1.015584   -0.165951
      7          6           0        1.785849   -0.512147   -0.475165
      8          1           0       -1.646458    0.705520    1.373922
      9          1           0       -1.866529   -1.096201   -1.130732
     10          1           0       -2.823794   -1.205113    0.383004
     11          1           0       -3.058517    0.190838   -0.735243
     12          1           0       -1.521137    2.212907   -0.483113
     13          1           0       -0.453400    1.098229   -1.423928
     14          1           0        0.189704    1.896927    0.066828
     15          1           0        0.216437   -1.887902   -0.699771
     16          1           0        2.406892   -0.898839   -1.269644
     17          1           0        1.724772    0.809842    0.915570
 ---------------------------------------------------------------------
 Rotational constants (GHZ):           4.9687716           1.7824128           1.5521054
 Leave Link  202 at Thu Sep 26 12:40:58 2019, MaxMem=   671088640 cpu:               3.8 elap:               1.9
 (Enter /shared/centos7/gaussian/g16/l301.exe)
 Standard basis: CC-pVTZ (5D, 7F)
 Ernie: Thresh=  0.10000D-02 Tol=  0.10000D-05 Strict=F.
 Ernie:  21 primitive shells out of 262 were deleted.
 There are   395 symmetry adapted cartesian basis functions of A   symmetry.
 There are   350 symmetry adapted basis functions of A   symmetry.
   350 basis functions,   534 primitive gaussians,   395 cartesian basis functions
    28 alpha electrons       28 beta electrons
       nuclear repulsion energy       324.5358757981 Hartrees.
 IExCor= 4336 DFT=T Ex+Corr=M062X ExCW=0 ScaHFX=  0.540000
 ScaDFX=  1.000000  1.000000  1.000000  1.000000 ScalE2=  1.000000  1.000000
 IRadAn=      5 IRanWt=     -1 IRanGd=            0 ICorTp=0 IEmpDi=  4
 NAtoms=   17 NActive=   17 NUniq=   17 SFac= 1.00D+00 NAtFMM=   60 NAOKFM=F Big=F
 Integral buffers will be    131072 words long.
 Raffenetti 2 integral format.
 Two-electron integral symmetry is turned on.
 Leave Link  301 at Thu Sep 26 12:40:59 2019, MaxMem=   671088640 cpu:               1.7 elap:               0.9
 (Enter /shared/centos7/gaussian/g16/l302.exe)
 NPDir=0 NMtPBC=     1 NCelOv=     1 NCel=       1 NClECP=     1 NCelD=      1
         NCelK=      1 NCelE2=     1 NClLst=     1 CellRange=     0.0.
 One-electron integrals computed using PRISM.
 One-electron integral symmetry used in STVInt
 NBasis=   350 RedAO= T EigKep=  2.45D-04  NBF=   350
 NBsUse=   350 1.00D-06 EigRej= -1.00D+00 NBFU=   350
 Precomputing XC quadrature grid using
 IXCGrd= 4 IRadAn=           5 IRanWt=          -1 IRanGd=           0 AccXCQ= 0.00D+00.
 Generated NRdTot=       0 NPtTot=           0 NUsed=           0 NTot=          32
 NSgBfM=   395   395   395   395   395 MxSgAt=    17 MxSgA2=    17.
 Leave Link  302 at Thu Sep 26 12:42:17 2019, MaxMem=   671088640 cpu:             155.9 elap:              77.9
 (Enter /shared/centos7/gaussian/g16/l303.exe)
 DipDrv:  MaxL=1.
 Leave Link  303 at Thu Sep 26 12:42:22 2019, MaxMem=   671088640 cpu:               9.7 elap:               4.9
 (Enter /shared/centos7/gaussian/g16/l401.exe)
 ExpMin= 1.03D-01 ExpMax= 1.53D+04 ExpMxC= 5.22D+02 IAcc=3 IRadAn=         5 AccDes= 0.00D+00
 Harris functional with IExCor= 1009 and IRadAn=       5 diagonalized for initial guess.
 HarFok:  IExCor= 1009 AccDes= 0.00D+00 IRadAn=         5 IDoV= 1 UseB2=F ITyADJ=14
 ICtDFT=  3500011 ScaDFX=  1.000000  1.000000  1.000000  1.000000
 FoFCou: FMM=F IPFlag=           0 FMFlag=      100000 FMFlg1=           0
         NFxFlg=           0 DoJE=T BraDBF=F KetDBF=T FulRan=T
         wScrn=  0.000000 ICntrl=       500 IOpCl=  0 I1Cent=   200000004 NGrid=           0
         NMat0=    1 NMatS0=      1 NMatT0=    0 NMatD0=    1 NMtDS0=    0 NMtDT0=    0
 Petite list used in FoFCou.
 Harris En= -346.810776966196    
 JPrj=0 DoOrth=F DoCkMO=F.
 Leave Link  401 at Thu Sep 26 12:42:56 2019, MaxMem=   671088640 cpu:              68.3 elap:              34.2
 (Enter /shared/centos7/gaussian/g16/l502.exe)
 Integral symmetry usage will be decided dynamically.
 Closed shell SCF:
 Using DIIS extrapolation, IDIIS=  1040.
 NGot=   671088640 LenX=   670765141 LenY=   670608675
 Requested convergence on RMS density matrix=1.00D-08 within 900 cycles.
 Requested convergence on MAX density matrix=1.00D-06.
 Requested convergence on             energy=1.00D-06.
 No special actions if energy rises.
 Fock matrices will be formed incrementally for  20 cycles.
 Integral accuracy reduced to 1.0D-05 until final iterations.

 Cycle   1  Pass 0  IDiag  1:
 FoFJK:  IHMeth= 1 ICntrl=       0 DoSepK=F KAlg= 0 I1Cent=           0 FoldK=F
 IRaf= 970000000 NMat=       1 IRICut=       1 DoRegI=T DoRafI=F ISym2E= 0 IDoP0=0 IntGTp=1.
 FoFCou: FMM=F IPFlag=           0 FMFlag=      100000 FMFlg1=           0
         NFxFlg=           0 DoJE=F BraDBF=F KetDBF=F FulRan=T
         wScrn=  0.000000 ICntrl=         0 IOpCl=  0 I1Cent=           0 NGrid=           0
         NMat0=    1 NMatS0=      1 NMatT0=    0 NMatD0=    1 NMtDS0=    0 NMtDT0=    0
 Symmetry not used in FoFCou.
 E= -346.712700293537    
 DIIS: error= 2.59D-02 at cycle   1 NSaved=   1.
 NSaved= 1 IEnMin= 1 EnMin= -346.712700293537     IErMin= 1 ErrMin= 2.59D-02
 ErrMax= 2.59D-02  0.00D+00 EMaxC= 1.00D-01 BMatC= 2.80D-01 BMatP= 2.80D-01
 IDIUse=3 WtCom= 7.41D-01 WtEn= 2.59D-01
 Coeff-Com:  0.100D+01
 Coeff-En:   0.100D+01
 Coeff:      0.100D+01
 Gap=     0.359 Goal=   None    Shift=    0.000
 GapD=    0.359 DampG=1.000 DampE=0.500 DampFc=0.5000 IDamp=-1.
 Damping current iteration by 5.00D-01
 RMSDP=1.89D-03 MaxDP=8.45D-02              OVMax= 1.39D-01

 Cycle   2  Pass 0  IDiag  1:
 RMSU=  9.45D-04    CP:  9.99D-01
 E= -346.829079879337     Delta-E=       -0.116379585800 Rises=F Damp=T
 DIIS: error= 5.08D-03 at cycle   2 NSaved=   2.
 NSaved= 2 IEnMin= 2 EnMin= -346.829079879337     IErMin= 2 ErrMin= 5.08D-03
 ErrMax= 5.08D-03  0.00D+00 EMaxC= 1.00D-01 BMatC= 2.13D-02 BMatP= 2.80D-01
 IDIUse=3 WtCom= 9.49D-01 WtEn= 5.08D-02
 Coeff-Com: -0.139D+00 0.114D+01
 Coeff-En:   0.000D+00 0.100D+01
 Coeff:     -0.132D+00 0.113D+01
 Gap=     0.350 Goal=   None    Shift=    0.000
 RMSDP=4.33D-04 MaxDP=1.31D-02 DE=-1.16D-01 OVMax= 7.39D-02

 Cycle   3  Pass 0  IDiag  1:
 RMSU=  4.31D-04    CP:  1.00D+00  9.61D-01
 E= -346.933579610209     Delta-E=       -0.104499730872 Rises=F Damp=F
 DIIS: error= 2.53D-03 at cycle   3 NSaved=   3.
 NSaved= 3 IEnMin= 3 EnMin= -346.933579610209     IErMin= 3 ErrMin= 2.53D-03
 ErrMax= 2.53D-03  0.00D+00 EMaxC= 1.00D-01 BMatC= 2.99D-03 BMatP= 2.13D-02
 IDIUse=3 WtCom= 9.75D-01 WtEn= 2.53D-02
 Coeff-Com: -0.803D-01 0.291D+00 0.789D+00
 Coeff-En:   0.000D+00 0.000D+00 0.100D+01
 Coeff:     -0.783D-01 0.284D+00 0.794D+00
 Gap=     0.347 Goal=   None    Shift=    0.000
 RMSDP=1.22D-04 MaxDP=4.23D-03 DE=-1.04D-01 OVMax= 1.01D-02

 Cycle   4  Pass 0  IDiag  1:
 RMSU=  9.31D-05    CP:  1.00D+00  1.03D+00  8.98D-01
 E= -346.935419111074     Delta-E=       -0.001839500864 Rises=F Damp=F
 DIIS: error= 7.89D-04 at cycle   4 NSaved=   4.
 NSaved= 4 IEnMin= 4 EnMin= -346.935419111074     IErMin= 4 ErrMin= 7.89D-04
 ErrMax= 7.89D-04  0.00D+00 EMaxC= 1.00D-01 BMatC= 6.50D-04 BMatP= 2.99D-03
 IDIUse=3 WtCom= 9.92D-01 WtEn= 7.89D-03
 Coeff-Com: -0.252D-01 0.673D-01 0.366D+00 0.592D+00
 Coeff-En:   0.000D+00 0.000D+00 0.816D-01 0.918D+00
 Coeff:     -0.250D-01 0.668D-01 0.364D+00 0.595D+00
 Gap=     0.345 Goal=   None    Shift=    0.000
 RMSDP=4.20D-05 MaxDP=1.86D-03 DE=-1.84D-03 OVMax= 4.53D-03

 Cycle   5  Pass 0  IDiag  1:
 RMSU=  2.43D-05    CP:  1.00D+00  1.02D+00  9.37D-01  6.85D-01
 E= -346.935883500722     Delta-E=       -0.000464389648 Rises=F Damp=F
 DIIS: error= 1.91D-04 at cycle   5 NSaved=   5.
 NSaved= 5 IEnMin= 5 EnMin= -346.935883500722     IErMin= 5 ErrMin= 1.91D-04
 ErrMax= 1.91D-04  0.00D+00 EMaxC= 1.00D-01 BMatC= 3.41D-05 BMatP= 6.50D-04
 IDIUse=3 WtCom= 9.98D-01 WtEn= 1.91D-03
 Coeff-Com: -0.512D-02 0.967D-02 0.104D+00 0.257D+00 0.635D+00
 Coeff-En:   0.000D+00 0.000D+00 0.000D+00 0.000D+00 0.100D+01
 Coeff:     -0.511D-02 0.965D-02 0.103D+00 0.256D+00 0.636D+00
 Gap=     0.345 Goal=   None    Shift=    0.000
 RMSDP=1.11D-05 MaxDP=3.27D-04 DE=-4.64D-04 OVMax= 7.89D-04

 Cycle   6  Pass 0  IDiag  1:
 RMSU=  8.04D-06    CP:  1.00D+00  1.02D+00  9.45D-01  7.11D-01  7.73D-01
 E= -346.935907127143     Delta-E=       -0.000023626421 Rises=F Damp=F
 DIIS: error= 4.39D-05 at cycle   6 NSaved=   6.
 NSaved= 6 IEnMin= 6 EnMin= -346.935907127143     IErMin= 6 ErrMin= 4.39D-05
 ErrMax= 4.39D-05  0.00D+00 EMaxC= 1.00D-01 BMatC= 1.30D-06 BMatP= 3.41D-05
 IDIUse=1 WtCom= 1.00D+00 WtEn= 0.00D+00
 Coeff-Com: -0.342D-04-0.978D-03 0.135D-01 0.564D-01 0.202D+00 0.729D+00
 Coeff:     -0.342D-04-0.978D-03 0.135D-01 0.564D-01 0.202D+00 0.729D+00
 Gap=     0.345 Goal=   None    Shift=    0.000
 RMSDP=3.17D-06 MaxDP=9.76D-05 DE=-2.36D-05 OVMax= 5.78D-04

 Initial convergence to 1.0D-05 achieved.  Increase integral accuracy.
 Cycle   7  Pass 1  IDiag  1:
 E= -346.935914405701     Delta-E=       -0.000007278558 Rises=F Damp=F
 DIIS: error= 2.38D-05 at cycle   1 NSaved=   1.
 NSaved= 1 IEnMin= 1 EnMin= -346.935914405701     IErMin= 1 ErrMin= 2.38D-05
 ErrMax= 2.38D-05  0.00D+00 EMaxC= 1.00D-01 BMatC= 7.62D-07 BMatP= 7.62D-07
 IDIUse=1 WtCom= 1.00D+00 WtEn= 0.00D+00
 Coeff-Com:  0.100D+01
 Coeff:      0.100D+01
 Gap=     0.345 Goal=   None    Shift=    0.000
 RMSDP=3.17D-06 MaxDP=9.76D-05 DE=-7.28D-06 OVMax= 3.95D-04

 Cycle   8  Pass 1  IDiag  1:
 RMSU=  7.04D-06    CP:  1.00D+00
 E= -346.935914478723     Delta-E=       -0.000000073021 Rises=F Damp=F
 DIIS: error= 2.06D-05 at cycle   2 NSaved=   2.
 NSaved= 2 IEnMin= 2 EnMin= -346.935914478723     IErMin= 2 ErrMin= 2.06D-05
 ErrMax= 2.06D-05  0.00D+00 EMaxC= 1.00D-01 BMatC= 4.74D-07 BMatP= 7.62D-07
 IDIUse=1 WtCom= 1.00D+00 WtEn= 0.00D+00
 Coeff-Com:  0.425D+00 0.575D+00
 Coeff:      0.425D+00 0.575D+00
 Gap=     0.345 Goal=   None    Shift=    0.000
 RMSDP=1.69D-06 MaxDP=4.89D-05 DE=-7.30D-08 OVMax= 3.64D-04

 Cycle   9  Pass 1  IDiag  1:
 RMSU=  1.68D-06    CP:  1.00D+00  9.77D-01
 E= -346.935914843040     Delta-E=       -0.000000364317 Rises=F Damp=F
 DIIS: error= 7.47D-06 at cycle   3 NSaved=   3.
 NSaved= 3 IEnMin= 3 EnMin= -346.935914843040     IErMin= 3 ErrMin= 7.47D-06
 ErrMax= 7.47D-06  0.00D+00 EMaxC= 1.00D-01 BMatC= 6.64D-08 BMatP= 4.74D-07
 IDIUse=1 WtCom= 1.00D+00 WtEn= 0.00D+00
 Coeff-Com: -0.487D-02 0.266D+00 0.739D+00
 Coeff:     -0.487D-02 0.266D+00 0.739D+00
 Gap=     0.345 Goal=   None    Shift=    0.000
 RMSDP=5.38D-07 MaxDP=1.73D-05 DE=-3.64D-07 OVMax= 8.88D-05

 Cycle  10  Pass 1  IDiag  1:
 RMSU=  2.71D-07    CP:  1.00D+00  1.01D+00  7.68D-01
 E= -346.935914896285     Delta-E=       -0.000000053245 Rises=F Damp=F
 DIIS: error= 1.86D-06 at cycle   4 NSaved=   4.
 NSaved= 4 IEnMin= 4 EnMin= -346.935914896285     IErMin= 4 ErrMin= 1.86D-06
 ErrMax= 1.86D-06  0.00D+00 EMaxC= 1.00D-01 BMatC= 3.08D-09 BMatP= 6.64D-08
 IDIUse=1 WtCom= 1.00D+00 WtEn= 0.00D+00
 Coeff-Com: -0.137D-01 0.118D+00 0.357D+00 0.539D+00
 Coeff:     -0.137D-01 0.118D+00 0.357D+00 0.539D+00
 Gap=     0.345 Goal=   None    Shift=    0.000
 RMSDP=9.42D-08 MaxDP=4.66D-06 DE=-5.32D-08 OVMax= 1.04D-05

 Cycle  11  Pass 1  IDiag  1:
 RMSU=  8.44D-08    CP:  1.00D+00  1.01D+00  7.79D-01  8.69D-01
 E= -346.935914898641     Delta-E=       -0.000000002356 Rises=F Damp=F
 DIIS: error= 2.99D-07 at cycle   5 NSaved=   5.
 NSaved= 5 IEnMin= 5 EnMin= -346.935914898641     IErMin= 5 ErrMin= 2.99D-07
 ErrMax= 2.99D-07  0.00D+00 EMaxC= 1.00D-01 BMatC= 1.02D-10 BMatP= 3.08D-09
 IDIUse=1 WtCom= 1.00D+00 WtEn= 0.00D+00
 Coeff-Com: -0.233D-02 0.592D-03-0.361D-02 0.116D+00 0.890D+00
 Coeff:     -0.233D-02 0.592D-03-0.361D-02 0.116D+00 0.890D+00
 Gap=     0.345 Goal=   None    Shift=    0.000
 RMSDP=3.90D-08 MaxDP=1.29D-06 DE=-2.36D-09 OVMax= 3.87D-06

 Cycle  12  Pass 1  IDiag  1:
 RMSU=  2.40D-08    CP:  1.00D+00  1.01D+00  7.75D-01  9.70D-01  1.12D+00
 E= -346.935914898721     Delta-E=       -0.000000000081 Rises=F Damp=F
 DIIS: error= 1.46D-07 at cycle   6 NSaved=   6.
 NSaved= 6 IEnMin= 6 EnMin= -346.935914898721     IErMin= 6 ErrMin= 1.46D-07
 ErrMax= 1.46D-07  0.00D+00 EMaxC= 1.00D-01 BMatC= 1.95D-11 BMatP= 1.02D-10
 IDIUse=1 WtCom= 1.00D+00 WtEn= 0.00D+00
 Coeff-Com:  0.714D-03-0.139D-01-0.474D-01-0.194D-01 0.350D+00 0.730D+00
 Coeff:      0.714D-03-0.139D-01-0.474D-01-0.194D-01 0.350D+00 0.730D+00
 Gap=     0.345 Goal=   None    Shift=    0.000
 RMSDP=1.28D-08 MaxDP=4.70D-07 DE=-8.07D-11 OVMax= 1.53D-06

 Cycle  13  Pass 1  IDiag  1:
 RMSU=  9.16D-09    CP:  1.00D+00  1.02D+00  7.75D-01  9.93D-01  1.19D+00
                    CP:  1.01D+00
 E= -346.935914898753     Delta-E=       -0.000000000032 Rises=F Damp=F
 DIIS: error= 4.21D-08 at cycle   7 NSaved=   7.
 NSaved= 7 IEnMin= 7 EnMin= -346.935914898753     IErMin= 7 ErrMin= 4.21D-08
 ErrMax= 4.21D-08  0.00D+00 EMaxC= 1.00D-01 BMatC= 1.79D-12 BMatP= 1.95D-11
 IDIUse=1 WtCom= 1.00D+00 WtEn= 0.00D+00
 Coeff-Com:  0.465D-03-0.487D-02-0.173D-01-0.165D-01 0.557D-01 0.288D+00
 Coeff-Com:  0.695D+00
 Coeff:      0.465D-03-0.487D-02-0.173D-01-0.165D-01 0.557D-01 0.288D+00
 Coeff:      0.695D+00
 Gap=     0.345 Goal=   None    Shift=    0.000
 RMSDP=4.47D-09 MaxDP=1.51D-07 DE=-3.19D-11 OVMax= 4.85D-07

 SCF Done:  E(RM062X) =  -346.935914899     A.U. after   13 cycles
            NFock= 13  Conv=0.45D-08     -V/T= 2.0063
 KE= 3.447692395571D+02 PE=-1.458927467230D+03 EE= 4.426864369759D+02
 Leave Link  502 at Thu Sep 26 12:54:31 2019, MaxMem=   671088640 cpu:            1388.6 elap:             694.5
 (Enter /shared/centos7/gaussian/g16/l801.exe)
 DoSCS=F DFT=T ScalE2(SS,OS)=  1.000000  1.000000
 Range of M.O.s used for correlation:     1   350
 NBasis=   350 NAE=    28 NBE=    28 NFC=     0 NFV=     0
 NROrb=    350 NOA=    28 NOB=    28 NVA=   322 NVB=   322

 **** Warning!!: The largest alpha MO coefficient is  0.10344980D+02

 Leave Link  801 at Thu Sep 26 12:54:31 2019, MaxMem=   671088640 cpu:               1.6 elap:               0.8
 (Enter /shared/centos7/gaussian/g16/l1101.exe)
 Using compressed storage, NAtomX=    17.
 Will process     18 centers per pass.
 Leave Link 1101 at Thu Sep 26 12:55:04 2019, MaxMem=   671088640 cpu:              64.2 elap:              32.1
 (Enter /shared/centos7/gaussian/g16/l1102.exe)
 Symmetrizing basis deriv contribution to polar:
 IMax=3 JMax=2 DiffMx= 0.00D+00
 Leave Link 1102 at Thu Sep 26 12:55:06 2019, MaxMem=   671088640 cpu:               4.5 elap:               2.3
 (Enter /shared/centos7/gaussian/g16/l1110.exe)
 Forming Gx(P) for the SCF density, NAtomX=    17.
 Integral derivatives from FoFJK, PRISM(SPDF).
 Do as many integral derivatives as possible in FoFJK.
 G2DrvN: MDV=     671087280.
 G2DrvN: will do    18 centers at a time, making    1 passes.
 Calling FoFCou, ICntrl=  3107 FMM=F I1Cent=   0 AccDes= 0.00D+00.
 FoFJK:  IHMeth= 1 ICntrl=    3107 DoSepK=F KAlg= 0 I1Cent=           0 FoldK=F
 IRaf=         0 NMat=       1 IRICut=       1 DoRegI=T DoRafI=F ISym2E= 0 IDoP0=0 IntGTp=1.
 FoFCou: FMM=F IPFlag=           0 FMFlag=      100000 FMFlg1=           0
         NFxFlg=           0 DoJE=F BraDBF=F KetDBF=F FulRan=T
         wScrn=  0.000000 ICntrl=      3107 IOpCl=  0 I1Cent=           0 NGrid=           0
         NMat0=    1 NMatS0=      1 NMatT0=    0 NMatD0=    1 NMtDS0=    0 NMtDT0=    0
 Symmetry not used in FoFCou.
 End of G2Drv F.D. properties file   721 does not exist.
 End of G2Drv F.D. properties file   722 does not exist.
 End of G2Drv F.D. properties file   788 does not exist.
 Leave Link 1110 at Thu Sep 26 13:15:46 2019, MaxMem=   671088640 cpu:            2480.8 elap:            1240.6
 (Enter /shared/centos7/gaussian/g16/l1002.exe)
 Minotr:  Closed shell wavefunction.
          IDoAtm=11111111111111111
          Direct CPHF calculation.
          Differentiating once with respect to nuclear coordinates.
          Requested convergence is 1.0D-08 RMS, and 1.0D-07 maximum.
          Secondary convergence is 1.0D-12 RMS, and 1.0D-12 maximum.
          NewPWx=T KeepS1=F KeepF1=F KeepIn=T MapXYZ=F SortEE=F KeepMc=T.
         5074 words used for storage of precomputed grid.
 Two-electron integrals replicated using symmetry.
          MDV=     671088640 using IRadAn=       1.
          Solving linear equations simultaneously, MaxMat=     380.
 FoF2E skips out because all densities are zero.
 CalDSu exits because no D1Ps are significant.
 FoFJK:  IHMeth= 1 ICntrl=       0 DoSepK=F KAlg= 0 I1Cent=           0 FoldK=F
 IRaf= 960000000 NMat=      51 IRICut=     127 DoRegI=T DoRafI=T ISym2E= 2 IDoP0=3 IntGTp=3.
 FoFCou: FMM=F IPFlag=           0 FMFlag=      100000 FMFlg1=           0
         NFxFlg=           0 DoJE=F BraDBF=F KetDBF=F FulRan=T
         wScrn=  0.000000 ICntrl=         0 IOpCl=  0 I1Cent=           0 NGrid=           0
         NMat0=   51 NMatS0=     51 NMatT0=    0 NMatD0=   51 NMtDS0=    0 NMtDT0=    0
 Integrals replicated using symmetry in FoFCou.
 Raff kept on since  93.72% of shell-pairs survive, threshold=   0.20 IRatSp=94.
          There are    54 degrees of freedom in the 1st order CPHF.  IDoFFX=6 NUNeed=     0.
     48 vectors produced by pass  0 Test12= 1.67D-14 1.85D-09 XBig12= 6.28D-02 5.35D-02.
 AX will form    48 AO Fock derivatives at one time.
     48 vectors produced by pass  1 Test12= 1.67D-14 1.85D-09 XBig12= 1.14D-02 2.37D-02.
     48 vectors produced by pass  2 Test12= 1.67D-14 1.85D-09 XBig12= 4.27D-04 3.42D-03.
     48 vectors produced by pass  3 Test12= 1.67D-14 1.85D-09 XBig12= 4.97D-06 2.45D-04.
     48 vectors produced by pass  4 Test12= 1.67D-14 1.85D-09 XBig12= 3.49D-08 1.79D-05.
     48 vectors produced by pass  5 Test12= 1.67D-14 1.85D-09 XBig12= 1.50D-10 1.36D-06.
     25 vectors produced by pass  6 Test12= 1.67D-14 1.85D-09 XBig12= 6.00D-13 6.74D-08.
      4 vectors produced by pass  7 Test12= 1.67D-14 1.85D-09 XBig12= 2.32D-15 4.24D-09.
 InvSVY:  IOpt=1 It=  1 EMax= 2.50D-16
 Solved reduced A of dimension   317 with    54 vectors.
 End of Minotr F.D. properties file   721 does not exist.
 End of Minotr F.D. properties file   722 does not exist.
 End of Minotr F.D. properties file   788 does not exist.
 Leave Link 1002 at Thu Sep 26 13:50:43 2019, MaxMem=   671088640 cpu:            4193.0 elap:            2096.8
 (Enter /shared/centos7/gaussian/g16/l601.exe)
 Copying SCF densities to generalized density rwf, IOpCl= 0 IROHF=0.

 **********************************************************************

            Population analysis using the SCF density.

 **********************************************************************

 Orbital symmetries:
       Occupied  (A) (A) (A) (A) (A) (A) (A) (A) (A) (A) (A) (A)
                 (A) (A) (A) (A) (A) (A) (A) (A) (A) (A) (A) (A)
                 (A) (A) (A) (A)
       Virtual   (A) (A) (A) (A) (A) (A) (A) (A) (A) (A) (A) (A)
                 (A) (A) (A) (A) (A) (A) (A) (A) (A) (A) (A) (A)
                 (A) (A) (A) (A) (A) (A) (A) (A) (A) (A) (A) (A)
                 (A) (A) (A) (A) (A) (A) (A) (A) (A) (A) (A) (A)
                 (A) (A) (A) (A) (A) (A) (A) (A) (A) (A) (A) (A)
                 (A) (A) (A) (A) (A) (A) (A) (A) (A) (A) (A) (A)
                 (A) (A) (A) (A) (A) (A) (A) (A) (A) (A) (A) (A)
                 (A) (A) (A) (A) (A) (A) (A) (A) (A) (A) (A) (A)
                 (A) (A) (A) (A) (A) (A) (A) (A) (A) (A) (A) (A)
                 (A) (A) (A) (A) (A) (A) (A) (A) (A) (A) (A) (A)
                 (A) (A) (A) (A) (A) (A) (A) (A) (A) (A) (A) (A)
                 (A) (A) (A) (A) (A) (A) (A) (A) (A) (A) (A) (A)
                 (A) (A) (A) (A) (A) (A) (A) (A) (A) (A) (A) (A)
                 (A) (A) (A) (A) (A) (A) (A) (A) (A) (A) (A) (A)
                 (A) (A) (A) (A) (A) (A) (A) (A) (A) (A) (A) (A)
                 (A) (A) (A) (A) (A) (A) (A) (A) (A) (A) (A) (A)
                 (A) (A) (A) (A) (A) (A) (A) (A) (A) (A) (A) (A)
                 (A) (A) (A) (A) (A) (A) (A) (A) (A) (A) (A) (A)
                 (A) (A) (A) (A) (A) (A) (A) (A) (A) (A) (A) (A)
                 (A) (A) (A) (A) (A) (A) (A) (A) (A) (A) (A) (A)
                 (A) (A) (A) (A) (A) (A) (A) (A) (A) (A) (A) (A)
                 (A) (A) (A) (A) (A) (A) (A) (A) (A) (A) (A) (A)
                 (A) (A) (A) (A) (A) (A) (A) (A) (A) (A) (A) (A)
                 (A) (A) (A) (A) (A) (A) (A) (A) (A) (A) (A) (A)
                 (A) (A) (A) (A) (A) (A) (A) (A) (A) (A) (A) (A)
                 (A) (A) (A) (A) (A) (A) (A) (A) (A) (A) (A) (A)
                 (A) (A) (A) (A) (A) (A) (A) (A) (A) (A)
 The electronic state is 1-A.
 Alpha  occ. eigenvalues --  -19.64857 -19.64538 -10.60030 -10.58940 -10.57519
 Alpha  occ. eigenvalues --  -10.53855 -10.53757  -1.19218  -1.15765  -0.89436
 Alpha  occ. eigenvalues --   -0.84324  -0.78438  -0.71481  -0.64710  -0.60187
 Alpha  occ. eigenvalues --   -0.57486  -0.56788  -0.51219  -0.50406  -0.47695
 Alpha  occ. eigenvalues --   -0.46633  -0.45546  -0.44394  -0.44212  -0.41772
 Alpha  occ. eigenvalues --   -0.38989  -0.35277  -0.29032
 Alpha virt. eigenvalues --    0.05447   0.07509   0.07936   0.09734   0.11096
 Alpha virt. eigenvalues --    0.11348   0.12453   0.13662   0.15455   0.16515
 Alpha virt. eigenvalues --    0.17782   0.20070   0.20273   0.21205   0.25256
 Alpha virt. eigenvalues --    0.27464   0.28975   0.30273   0.32279   0.33013
 Alpha virt. eigenvalues --    0.33787   0.34325   0.35145   0.38370   0.39991
 Alpha virt. eigenvalues --    0.41931   0.42293   0.43859   0.45242   0.46152
 Alpha virt. eigenvalues --    0.47260   0.47963   0.48547   0.49210   0.49619
 Alpha virt. eigenvalues --    0.50788   0.51336   0.52518   0.53188   0.54709
 Alpha virt. eigenvalues --    0.56366   0.57136   0.59490   0.61673   0.62359
 Alpha virt. eigenvalues --    0.63741   0.66646   0.68241   0.71581   0.71734
 Alpha virt. eigenvalues --    0.75985   0.76470   0.77883   0.79880   0.82502
 Alpha virt. eigenvalues --    0.84883   0.86494   0.87429   0.88957   0.90135
 Alpha virt. eigenvalues --    0.92354   0.94326   0.95831   0.97408   0.98480
 Alpha virt. eigenvalues --    1.01821   1.03462   1.04389   1.05026   1.06608
 Alpha virt. eigenvalues --    1.08119   1.08538   1.09148   1.12918   1.14895
 Alpha virt. eigenvalues --    1.15824   1.16290   1.19076   1.20544   1.22208
 Alpha virt. eigenvalues --    1.23472   1.24151   1.25230   1.28145   1.28353
 Alpha virt. eigenvalues --    1.30230   1.30433   1.31524   1.33790   1.34792
 Alpha virt. eigenvalues --    1.35737   1.37256   1.40257   1.41075   1.42121
 Alpha virt. eigenvalues --    1.43685   1.44952   1.47498   1.49202   1.50516
 Alpha virt. eigenvalues --    1.51872   1.53431   1.55040   1.57103   1.59945
 Alpha virt. eigenvalues --    1.60747   1.62006   1.66009   1.75542   1.86834
 Alpha virt. eigenvalues --    1.90425   1.96309   1.98218   2.02910   2.07674
 Alpha virt. eigenvalues --    2.10006   2.12092   2.13727   2.16032   2.23239
 Alpha virt. eigenvalues --    2.25489   2.27551   2.30678   2.32743   2.33498
 Alpha virt. eigenvalues --    2.34888   2.36875   2.41144   2.45772   2.48286
 Alpha virt. eigenvalues --    2.48936   2.52848   2.54992   2.56618   2.59718
 Alpha virt. eigenvalues --    2.60434   2.62585   2.63894   2.66085   2.66332
 Alpha virt. eigenvalues --    2.69915   2.71695   2.75769   2.76790   2.79386
 Alpha virt. eigenvalues --    2.81022   2.82394   2.82925   2.84193   2.86539
 Alpha virt. eigenvalues --    2.88418   2.88984   2.90778   2.92386   2.93391
 Alpha virt. eigenvalues --    2.95344   2.96432   2.98880   3.00706   3.01470
 Alpha virt. eigenvalues --    3.03366   3.05192   3.05896   3.07231   3.08117
 Alpha virt. eigenvalues --    3.09454   3.09910   3.11597   3.12548   3.13361
 Alpha virt. eigenvalues --    3.15321   3.16550   3.17767   3.22150   3.22980
 Alpha virt. eigenvalues --    3.24555   3.24846   3.26520   3.28136   3.29398
 Alpha virt. eigenvalues --    3.31165   3.31465   3.32641   3.34853   3.35424
 Alpha virt. eigenvalues --    3.37909   3.38992   3.40160   3.43644   3.44966
 Alpha virt. eigenvalues --    3.46178   3.47440   3.48184   3.49537   3.51458
 Alpha virt. eigenvalues --    3.55183   3.55805   3.58220   3.60508   3.63016
 Alpha virt. eigenvalues --    3.64579   3.65105   3.67235   3.71091   3.71913
 Alpha virt. eigenvalues --    3.73910   3.75471   3.76978   3.77698   3.79217
 Alpha virt. eigenvalues --    3.80764   3.81105   3.82558   3.85316   3.86377
 Alpha virt. eigenvalues --    3.87908   3.90404   3.91125   3.92771   3.94360
 Alpha virt. eigenvalues --    3.95412   3.97254   3.97982   4.00331   4.02188
 Alpha virt. eigenvalues --    4.03752   4.04250   4.06638   4.07322   4.09364
 Alpha virt. eigenvalues --    4.10504   4.13592   4.14042   4.16181   4.17570
 Alpha virt. eigenvalues --    4.20684   4.23592   4.24477   4.25873   4.27863
 Alpha virt. eigenvalues --    4.31062   4.33281   4.34213   4.35633   4.40902
 Alpha virt. eigenvalues --    4.43314   4.44775   4.50763   4.51859   4.53356
 Alpha virt. eigenvalues --    4.56658   4.60643   4.65905   4.67770   4.70325
 Alpha virt. eigenvalues --    4.71576   4.72634   4.74411   4.75785   4.78198
 Alpha virt. eigenvalues --    4.80842   4.83734   4.86485   4.88729   4.94046
 Alpha virt. eigenvalues --    4.94959   4.98987   5.00218   5.00567   5.02105
 Alpha virt. eigenvalues --    5.04875   5.04946   5.07714   5.11636   5.18356
 Alpha virt. eigenvalues --    5.21462   5.23671   5.24742   5.27178   5.28960
 Alpha virt. eigenvalues --    5.30124   5.31555   5.34760   5.40583   5.46527
 Alpha virt. eigenvalues --    5.50655   5.54705   5.60949   5.62084   5.71902
 Alpha virt. eigenvalues --    5.76203   5.79975   5.80719   5.82454   5.83843
 Alpha virt. eigenvalues --    5.86235   6.00017   6.24112   6.29323   6.32100
 Alpha virt. eigenvalues --    6.32908   6.40674   6.54088   6.61198   6.72305
 Alpha virt. eigenvalues --    6.75439   6.75989   6.80809   6.83938   7.04465
 Alpha virt. eigenvalues --    7.10622   7.15607   7.25150   7.29644   7.36475
 Alpha virt. eigenvalues --   10.11344  11.08240  11.64388  11.99977  13.04469
 Alpha virt. eigenvalues --   13.38545  14.21031
          Condensed to atoms (all electrons):
               1          2          3          4          5          6
     1  O    7.910007  -0.003942   0.315987  -0.050710  -0.062478   0.322106
     2  O   -0.003942   7.791622   0.000975   0.000068  -0.004427  -0.081020
     3  C    0.315987   0.000975   4.848173   0.339020   0.301621  -0.065011
     4  C   -0.050710   0.000068   0.339020   5.046948  -0.089425  -0.011467
     5  C   -0.062478  -0.004427   0.301621  -0.089425   5.148060  -0.019020
     6  C    0.322106  -0.081020  -0.065011  -0.011467  -0.019020   5.041655
     7  C   -0.080157   0.357155  -0.016001  -0.005354   0.012304   0.547292
     8  H   -0.032321  -0.000175   0.408702  -0.048119  -0.048609   0.009079
     9  H   -0.005046  -0.000029  -0.035311   0.398496  -0.008802   0.007823
    10  H    0.002060  -0.000000  -0.034394   0.396730   0.009070   0.000555
    11  H    0.004577   0.000003  -0.033380   0.386799   0.003790  -0.000076
    12  H    0.004554   0.000393  -0.023318  -0.001540   0.387682   0.000046
    13  H   -0.001978  -0.002625  -0.040479  -0.004353   0.388330   0.009902
    14  H    0.001134   0.012798  -0.033871   0.007788   0.396698  -0.012848
    15  H   -0.050112   0.005184   0.007227   0.002839  -0.004276   0.409319
    16  H    0.003723  -0.032724  -0.000418   0.000007  -0.000211  -0.060910
    17  H    0.019828   0.326793  -0.000057   0.000830  -0.001572  -0.012208
               7          8          9         10         11         12
     1  O   -0.080157  -0.032321  -0.005046   0.002060   0.004577   0.004554
     2  O    0.357155  -0.000175  -0.000029  -0.000000   0.000003   0.000393
     3  C   -0.016001   0.408702  -0.035311  -0.034394  -0.033380  -0.023318
     4  C   -0.005354  -0.048119   0.398496   0.396730   0.386799  -0.001540
     5  C    0.012304  -0.048609  -0.008802   0.009070   0.003790   0.387682
     6  C    0.547292   0.009079   0.007823   0.000555  -0.000076   0.000046
     7  C    4.891779   0.000143  -0.001037   0.000310   0.000271  -0.000271
     8  H    0.000143   0.584976   0.006976  -0.007276  -0.003082  -0.009722
     9  H   -0.001037   0.006976   0.586785  -0.032249  -0.035280   0.000529
    10  H    0.000310  -0.007276  -0.032249   0.561579  -0.026011  -0.000286
    11  H    0.000271  -0.003082  -0.035280  -0.026011   0.590622  -0.000847
    12  H   -0.000271  -0.009722   0.000529  -0.000286  -0.000847   0.567036
    13  H   -0.001382   0.008858   0.003407   0.000107  -0.001436  -0.031508
    14  H   -0.006335  -0.006110  -0.000406  -0.000507   0.000474  -0.018853
    15  H   -0.076138  -0.000882  -0.003175   0.000041  -0.000412   0.000088
    16  H    0.411208   0.000050   0.000098  -0.000006  -0.000006  -0.000000
    17  H   -0.050922  -0.000294   0.000053  -0.000007  -0.000053   0.000055
              13         14         15         16         17
     1  O   -0.001978   0.001134  -0.050112   0.003723   0.019828
     2  O   -0.002625   0.012798   0.005184  -0.032724   0.326793
     3  C   -0.040479  -0.033871   0.007227  -0.000418  -0.000057
     4  C   -0.004353   0.007788   0.002839   0.000007   0.000830
     5  C    0.388330   0.396698  -0.004276  -0.000211  -0.001572
     6  C    0.009902  -0.012848   0.409319  -0.060910  -0.012208
     7  C   -0.001382  -0.006335  -0.076138   0.411208  -0.050922
     8  H    0.008858  -0.006110  -0.000882   0.000050  -0.000294
     9  H    0.003407  -0.000406  -0.003175   0.000098   0.000053
    10  H    0.000107  -0.000507   0.000041  -0.000006  -0.000007
    11  H   -0.001436   0.000474  -0.000412  -0.000006  -0.000053
    12  H   -0.031508  -0.018853   0.000088  -0.000000   0.000055
    13  H    0.569475  -0.035989  -0.000479   0.000575   0.000304
    14  H   -0.035989   0.568525  -0.000075  -0.000032  -0.001087
    15  H   -0.000479  -0.000075   0.588082  -0.004385   0.001416
    16  H    0.000575  -0.000032  -0.004385   0.516953   0.006277
    17  H    0.000304  -0.001087   0.001416   0.006277   0.437295
 Mulliken charges:
               1
     1  O   -0.297233
     2  O   -0.370050
     3  C    0.060534
     4  C   -0.368557
     5  C   -0.408735
     6  C   -0.085218
     7  C    0.017136
     8  H    0.137805
     9  H    0.117167
    10  H    0.130285
    11  H    0.114045
    12  H    0.125964
    13  H    0.139270
    14  H    0.128697
    15  H    0.125737
    16  H    0.159801
    17  H    0.273351
 Sum of Mulliken charges =  -0.00000
 Mulliken charges with hydrogens summed into heavy atoms:
               1
     1  O   -0.297233
     2  O   -0.096699
     3  C    0.198339
     4  C   -0.007059
     5  C   -0.014804
     6  C    0.040519
     7  C    0.176937
 APT charges:
               1
     1  O   -0.213795
     2  O   -0.225926
     3  C   -0.284162
     4  C   -1.166370
     5  C   -1.027399
     6  C   -0.478144
     7  C   -0.347063
     8  H    0.436993
     9  H    0.241462
    10  H    0.453596
    11  H    0.443970
    12  H    0.485587
    13  H    0.269592
    14  H    0.255887
    15  H    0.363584
    16  H    0.538470
    17  H    0.253717
 Sum of APT charges =  -0.00000
 APT charges with hydrogens summed into heavy atoms:
               1
     1  O   -0.213795
     2  O    0.027791
     3  C    0.152832
     4  C   -0.027342
     5  C   -0.016334
     6  C   -0.114560
     7  C    0.191407
 Electronic spatial extent (au):  <R**2>=            844.3217
 Charge=              0.0000 electrons
 Dipole moment (field-independent basis, Debye):
    X=             -1.7318    Y=              0.2152    Z=             -0.7839  Tot=              1.9131
 Quadrupole moment (field-independent basis, Debye-Ang):
   XX=            -46.0922   YY=            -43.4877   ZZ=            -43.5928
   XY=             -2.1586   XZ=             -1.0176   YZ=              3.4872
 Traceless Quadrupole moment (field-independent basis, Debye-Ang):
   XX=             -1.7013   YY=              0.9032   ZZ=              0.7981
   XY=             -2.1586   XZ=             -1.0176   YZ=              3.4872
 Octapole moment (field-independent basis, Debye-Ang**2):
  XXX=             -7.4390  YYY=              0.3913  ZZZ=              4.4933  XYY=              0.5686
  XXY=             -4.3536  XXZ=             -0.9315  XZZ=              6.6518  YZZ=              1.5823
  YYZ=              0.6607  XYZ=              4.1491
 Hexadecapole moment (field-independent basis, Debye-Ang**3):
 XXXX=           -756.4040 YYYY=           -262.3040 ZZZZ=           -130.8135 XXXY=            -16.7726
 XXXZ=            -15.8442 YYYX=              7.1101 YYYZ=              5.4895 ZZZX=             -2.0673
 ZZZY=              5.1636 XXYY=           -163.6090 XXZZ=           -131.2812 YYZZ=            -63.9334
 XXYZ=              5.0112 YYXZ=              0.7187 ZZXY=              1.7869
 N-N= 3.245358757981D+02 E-N=-1.458927475421D+03  KE= 3.447692395571D+02
  Exact polarizability:   0.000   0.000   0.000   0.000   0.000   0.000
 Approx polarizability:  89.710   4.764  76.583  -5.000   3.624  73.998
 No NMR shielding tensors so no spin-rotation constants.
 Leave Link  601 at Thu Sep 26 13:51:10 2019, MaxMem=   671088640 cpu:              52.6 elap:              26.3
 (Enter /shared/centos7/gaussian/g16/l701.exe)
 SCFChk:  SCF convergence  4.47D-09 required  1.00D-08
 ... and contract with generalized density number  0.
 Compute integral second derivatives.
 Entering OneElI...
 Calculate overlap and kinetic energy integrals
    NBasis = 395  MinDer = 2  MaxDer = 2
 Requested accuracy = 0.1000D-12
 PrmmSu-InSpLW:  IPartL=    0 NPrtUS=   20 NPrtUL=    1 DoSpLW=F IThBeg=    0 IThEnd=   19 NThAct=   20.
 PrsmSu:  NPrtUS=  20 ThrOK=T IAlg=1 NPAlg=1 LenDen=           0 ISkipM=0 DoSpLW=F IThBeg=    0 IThEnd=   19.
 Prism:   IPart=     0 DynPar=F LinDyn=F Incr=           4.
 PRISM was handed    33309801 working-precision words and  8474 shell-pairs
 PRISM was handed    33309801 working-precision words and  8474 shell-pairs
 PRISM was handed    33309801 working-precision words and  8474 shell-pairs
 PRISM was handed    33309801 working-precision words and  8474 shell-pairs
 PRISM was handed    33309801 working-precision words and  8474 shell-pairs
 PRISM was handed    33309801 working-precision words and  8474 shell-pairs
 PRISM was handed    33309801 working-precision words and  8474 shell-pairs
 PRISM was handed    33309801 working-precision words and  8474 shell-pairs
 PRISM was handed    33309801 working-precision words and  8474 shell-pairs
 PRISM was handed    33309801 working-precision words and  8474 shell-pairs
 PRISM was handed    33309801 working-precision words and  8474 shell-pairs
 PRISM was handed    33309801 working-precision words and  8474 shell-pairs
 PRISM was handed    33309801 working-precision words and  8474 shell-pairs
 PRISM was handed    33309801 working-precision words and  8474 shell-pairs
 IPart=  4 NShTot=         442 NBatch=          63 AvBLen=         7.0
 IPart=  0 NShTot=         468 NBatch=          82 AvBLen=         5.7
 PRISM was handed    33309801 working-precision words and  8474 shell-pairs
 IPart=  9 NShTot=         417 NBatch=          49 AvBLen=         8.5
 PRISM was handed    33309801 working-precision words and  8474 shell-pairs
 IPart=  8 NShTot=         420 NBatch=          49 AvBLen=         8.6
 PRISM was handed    33309801 working-precision words and  8474 shell-pairs
 PRISM was handed    33309801 working-precision words and  8474 shell-pairs
 IPart= 11 NShTot=         413 NBatch=          46 AvBLen=         9.0
 PRISM was handed    33309801 working-precision words and  8474 shell-pairs
 IPart=  5 NShTot=         438 NBatch=          60 AvBLen=         7.3
 IPart=  2 NShTot=         454 NBatch=          72 AvBLen=         6.3
 PRISM was handed    33309801 working-precision words and  8474 shell-pairs
 IPart=  6 NShTot=         437 NBatch=          59 AvBLen=         7.4
 IPart= 14 NShTot=         406 NBatch=          39 AvBLen=        10.4
 IPart= 15 NShTot=         406 NBatch=          39 AvBLen=        10.4
 IPart= 12 NShTot=         406 NBatch=          39 AvBLen=        10.4
 IPart= 17 NShTot=         403 NBatch=          38 AvBLen=        10.6
 IPart= 16 NShTot=         405 NBatch=          39 AvBLen=        10.4
 IPart=  3 NShTot=         449 NBatch=          68 AvBLen=         6.6
 IPart= 10 NShTot=         415 NBatch=          48 AvBLen=         8.6
 IPart=  7 NShTot=         429 NBatch=          52 AvBLen=         8.3
 IPart= 19 NShTot=         397 NBatch=          37 AvBLen=        10.7
 IPart= 13 NShTot=         406 NBatch=          39 AvBLen=        10.4
 IPart= 18 NShTot=         398 NBatch=          37 AvBLen=        10.8
 IPart=  1 NShTot=         465 NBatch=          80 AvBLen=         5.8
 PrSmSu:  NxtVal=             81.
 Entering OneElI...
 Calculate potential energy integrals
    NBasis = 395  MinDer = 2  MaxDer = 2
 Requested accuracy = 0.1000D-12
 PrmmSu-InSpLW:  IPartL=    0 NPrtUS=   20 NPrtUL=    1 DoSpLW=F IThBeg=    0 IThEnd=   19 NThAct=   20.
 PrsmSu:  NPrtUS=  20 ThrOK=T IAlg=1 NPAlg=1 LenDen=           0 ISkipM=0 DoSpLW=F IThBeg=    0 IThEnd=   19.
 Prism:   IPart=     0 DynPar=F LinDyn=F Incr=          67.
 PRISM was handed    33351076 working-precision words and  7901 shell-pairs
 PRISM was handed    33351076 working-precision words and  7901 shell-pairs
 PRISM was handed    33351076 working-precision words and  7901 shell-pairs
 PRISM was handed    33351076 working-precision words and  7901 shell-pairs
 PRISM was handed    33351076 working-precision words and  7901 shell-pairs
 PRISM was handed    33351076 working-precision words and  7901 shell-pairs
 PRISM was handed    33351076 working-precision words and  7901 shell-pairs
 PRISM was handed    33351076 working-precision words and  7901 shell-pairs
 PRISM was handed    33351076 working-precision words and  7901 shell-pairs
 PRISM was handed    33351076 working-precision words and  7901 shell-pairs
 PRISM was handed    33351076 working-precision words and  7901 shell-pairs
 PRISM was handed    33351076 working-precision words and  7901 shell-pairs
 PRISM was handed    33351076 working-precision words and  7901 shell-pairs
 PRISM was handed    33351076 working-precision words and  7901 shell-pairs
 PRISM was handed    33351076 working-precision words and  7901 shell-pairs
 PRISM was handed    33351076 working-precision words and  7901 shell-pairs
 PRISM was handed    33351076 working-precision words and  7901 shell-pairs
 PRISM was handed    33351076 working-precision words and  7901 shell-pairs
 PRISM was handed    33351076 working-precision words and  7901 shell-pairs
 PRISM was handed    33351076 working-precision words and  7901 shell-pairs
 IPart=  9 NShTot=        6647 NBatch=         391 AvBLen=        17.0
 IPart= 10 NShTot=        6579 NBatch=         387 AvBLen=        17.0
 IPart=  4 NShTot=        6987 NBatch=         411 AvBLen=        17.0
 IPart=  2 NShTot=        7157 NBatch=         421 AvBLen=        17.0
 IPart= 14 NShTot=        6494 NBatch=         382 AvBLen=        17.0
 IPart= 15 NShTot=        6426 NBatch=         378 AvBLen=        17.0
 IPart= 11 NShTot=        6528 NBatch=         384 AvBLen=        17.0
 IPart=  6 NShTot=        6919 NBatch=         407 AvBLen=        17.0
 IPart=  5 NShTot=        6936 NBatch=         408 AvBLen=        17.0
 IPart= 18 NShTot=        6358 NBatch=         374 AvBLen=        17.0
 IPart= 19 NShTot=        6307 NBatch=         371 AvBLen=        17.0
 IPart= 12 NShTot=        6511 NBatch=         383 AvBLen=        17.0
 IPart= 17 NShTot=        6392 NBatch=         376 AvBLen=        17.0
 IPart=  0 NShTot=        7361 NBatch=         433 AvBLen=        17.0
 IPart=  1 NShTot=        7259 NBatch=         427 AvBLen=        17.0
 IPart= 16 NShTot=        6409 NBatch=         377 AvBLen=        17.0
 IPart=  8 NShTot=        6732 NBatch=         396 AvBLen=        17.0
 IPart= 13 NShTot=        6494 NBatch=         382 AvBLen=        17.0
 IPart=  3 NShTot=        7055 NBatch=         415 AvBLen=        17.0
 IPart=  7 NShTot=        6766 NBatch=         398 AvBLen=        17.0
 PrSmSu:  NxtVal=           1341.
 Polarizability after L701:
                1             2             3 
      1  0.000000D+00
      2  0.000000D+00  0.000000D+00
      3  0.000000D+00  0.000000D+00  0.000000D+00
 Dipole Derivatives after L701:
                 1             2             3             4             5 
      1  -0.299187D+00  0.552171D-01 -0.826351D-02  0.570511D+00  0.181242D+00
      2   0.122088D+00 -0.280852D+00 -0.966431D-01  0.360027D+00 -0.437140D+00
      3  -0.456225D-01 -0.258994D-01 -0.613471D-01  0.296212D+00 -0.184066D+00
                 6             7             8             9            10 
      1  -0.399465D+00 -0.307615D+00  0.420306D+00  0.570192D+00 -0.163915D+01
      2  -0.265418D+00  0.287531D+00 -0.657611D-01 -0.225062D+00 -0.459169D-01
      3  -0.811150D+00  0.856292D-01 -0.166423D+00 -0.479109D+00  0.166596D-01
                11            12            13            14            15 
      1  -0.558906D+00 -0.421714D+00 -0.730224D+00  0.454427D+00 -0.285575D+00
      2  -0.916467D+00 -0.111690D-01 -0.171808D+00 -0.140862D+01  0.200899D+00
      3   0.145234D-01 -0.943495D+00 -0.234726D-01  0.158911D-01 -0.943358D+00
                16            17            18            19            20 
      1  -0.512823D+00 -0.228434D+00  0.269772D+00 -0.449354D+00  0.397724D-01
      2  -0.169859D+00 -0.489904D+00 -0.529713D+00 -0.249663D+00 -0.329128D+00
      3   0.182643D+00 -0.326575D+00 -0.431704D+00  0.266490D+00 -0.190531D+00
                21            22            23            24            25 
      1   0.520301D+00  0.444708D+00 -0.286423D+00 -0.485018D+00 -0.807796D-01
      2  -0.209185D+00 -0.103358D+00  0.278380D+00  0.189043D+00 -0.166691D+00
      3  -0.262705D+00 -0.203237D+00  0.217753D+00  0.587893D+00 -0.176669D+00
                26            27            28            29            30 
      1   0.344560D+00  0.460940D+00  0.668824D+00  0.705267D+00 -0.635327D+00
      2   0.350147D+00  0.328146D+00  0.260447D+00  0.432441D+00 -0.291165D+00
      3   0.263042D+00  0.455017D+00 -0.102624D+00 -0.121979D+00  0.259523D+00
                31            32            33            34            35 
      1   0.903984D+00 -0.693514D+00  0.513631D+00  0.566745D+00 -0.460113D+00
      2  -0.970958D-01  0.202928D+00 -0.526797D-01 -0.632050D+00  0.751474D+00
      3   0.197874D+00 -0.176455D+00  0.224999D+00  0.118200D+00 -0.137652D+00
                36            37            38            39            40 
      1   0.422170D-01  0.968076D-01  0.358753D-01  0.131270D+00  0.177613D+00
      2  -0.801172D-01  0.980059D-01  0.466039D-01 -0.310044D+00  0.599931D+00
      3   0.138543D+00 -0.142515D+00  0.161451D+00  0.665364D+00  0.558615D-01
                41            42            43            44            45 
      1   0.460021D-01  0.635790D-01  0.127300D+00 -0.297042D-01 -0.841618D-01
      2   0.427560D+00  0.308673D+00  0.348043D+00  0.706405D+00  0.433792D+00
      3   0.329933D-01  0.162489D+00  0.835801D-01  0.233245D+00  0.257047D+00
                46            47            48            49            50 
      1   0.764284D+00 -0.353100D+00 -0.840526D+00 -0.301643D+00  0.327526D+00
      2  -0.196579D+00  0.290077D+00  0.330940D+00 -0.243053D+00  0.441852D+00
      3  -0.337113D+00  0.227745D+00  0.561049D+00 -0.271894D+00  0.162937D+00
                51 
      1   0.588149D+00
      2   0.279703D+00
      3   0.620944D+00
 Hessian after L701:
                1             2             3             4             5 
      1  0.829993D+01
      2  0.497634D+01  0.143766D+02
      3  0.206841D+01 -0.723983D-01  0.129409D+02
      4  0.540045D+00  0.455313D+00 -0.317486D+00  0.972940D+01
      5  0.407298D+00 -0.248835D+00 -0.106017D+00 -0.240890D+01  0.982727D+01
      6 -0.396983D+00 -0.157032D+00 -0.303999D+00  0.106413D+01 -0.461197D+01
      7 -0.377676D+01 -0.417673D+01  0.188807D+01  0.347841D+00  0.399677D-01
      8 -0.408220D+01 -0.627813D+01 -0.139079D+01  0.447863D-01 -0.166895D+00
      9  0.173953D+01 -0.133344D+01 -0.807332D+01  0.368118D-02 -0.271025D-02
     10  0.339853D+00  0.376773D+00  0.352153D+00  0.128866D+00  0.437640D-01
     11  0.279237D+00 -0.218048D+00  0.110392D+00  0.319928D-01 -0.646300D-01
     12  0.369617D+00  0.144071D+00  0.807109D-01  0.891814D-02 -0.146512D-02
     13 -0.230636D+00  0.120847D+00 -0.705398D-01  0.411988D+00 -0.143065D+00
     14  0.210242D+00  0.469929D+00 -0.354006D+00 -0.389035D-01 -0.205933D+00
     15 -0.864599D-01 -0.419060D+00  0.138710D+00  0.138692D+00 -0.477409D-01
     16 -0.599216D+01 -0.246471D+01 -0.422508D+01  0.451113D+00 -0.332023D-01
     17 -0.263069D+01 -0.843270D+01  0.249516D+01 -0.121530D+00  0.222517D-01
     18 -0.403326D+01  0.229631D+01 -0.453906D+01  0.374198D-01 -0.316545D+00
     19  0.582761D+00  0.267456D+00  0.126044D+00 -0.751456D+01  0.290357D+01
     20  0.344457D+00  0.765492D-01 -0.386071D+00  0.321120D+01 -0.307512D+01
     21  0.118671D+00 -0.312283D+00 -0.144171D+00  0.180568D+01  0.379320D+01
     22 -0.192652D+00  0.130626D+00 -0.899622D-01  0.399933D-01 -0.397901D-02
     23  0.122752D+00  0.673054D-01  0.999458D-01 -0.177392D-01 -0.123249D-01
     24 -0.114886D+00  0.135914D+00  0.217009D+00 -0.370401D-01  0.107015D-02
     25  0.588245D-02  0.186950D-01  0.113771D-01  0.876880D-02  0.697464D-02
     26  0.364489D-01 -0.103862D-01  0.408251D-01  0.241053D-01 -0.204417D-02
     27  0.562214D-01  0.329999D-01  0.177401D-01  0.264928D-01  0.915197D-02
     28  0.111938D+00  0.254163D-01  0.506347D-01  0.235979D-01  0.904329D-02
     29  0.540121D-01 -0.436689D-01  0.128855D-01  0.190835D-01 -0.112609D-02
     30  0.795971D-02 -0.300111D-02 -0.466110D-01 -0.109109D-01 -0.288352D-02
     31  0.100161D+00 -0.634273D-01  0.882522D-01  0.273424D-01  0.665202D-03
     32 -0.618867D-01 -0.236610D-01 -0.367292D-01 -0.855961D-02 -0.615750D-02
     33  0.845355D-01 -0.361807D-01  0.470846D-02  0.124377D-01  0.204305D-03
     34  0.723672D-02 -0.962174D-01  0.485899D-01  0.502067D-01 -0.241334D-01
     35 -0.894834D-01  0.987871D-01 -0.772528D-01 -0.399210D-01  0.183080D-03
     36  0.385786D-01 -0.613877D-01 -0.152291D-01  0.106074D-01 -0.395814D-02
     37 -0.321592D-01 -0.430607D-02  0.618654D-02 -0.136491D-02 -0.125468D-01
     38 -0.750374D-02 -0.400492D-02 -0.417581D-01 -0.263867D-02 -0.175026D-01
     39  0.144358D-01 -0.696111D-01  0.776724D-01  0.611666D-01 -0.136710D-01
     40 -0.491657D-01  0.771679D-01 -0.219149D-01  0.371307D-01 -0.373765D-01
     41  0.218501D-01  0.852988D-01 -0.248244D-01 -0.121325D+00 -0.711151D-01
     42  0.300275D-02  0.350083D-02 -0.669586D-01 -0.592902D-01  0.329593D-01
     43  0.154381D+00  0.199649D+00  0.239153D+00  0.507315D-01  0.108604D+00
     44  0.202887D+00  0.119205D+00 -0.252309D+00  0.131326D+00  0.943561D-01
     45  0.207607D+00 -0.195643D+00 -0.161764D+00  0.667570D-01  0.602645D-01
     46  0.825208D-01 -0.258017D-01 -0.103018D+00  0.131541D+00 -0.424932D-01
     47 -0.366652D-01 -0.360556D-01  0.233384D-01 -0.287125D-01 -0.133829D+00
     48 -0.120178D+00  0.177953D-01  0.609344D-01 -0.551766D-01 -0.156035D+00
     49  0.488210D-01  0.182906D+00 -0.508630D-01 -0.446264D+01 -0.814186D+00
     50  0.252905D+00  0.186577D-02 -0.403970D-01 -0.112958D+01 -0.593855D+01
     51  0.431980D-01  0.294480D-01 -0.187272D+00 -0.275608D+01  0.136614D+01
                6             7             8             9            10 
      6  0.111297D+02
      7 -0.813363D-01  0.166933D+02
      8 -0.102998D-01  0.247843D+01  0.189370D+02
      9 -0.173581D+00 -0.177939D+01  0.130977D+01  0.212103D+02
     10  0.106973D-01 -0.336078D+01  0.172623D+01  0.173376D+01  0.120536D+02
     11  0.125653D-02  0.169632D+01 -0.519746D+01  0.102702D+01 -0.117857D+01
     12 -0.777179D-01  0.165798D+01  0.103374D+01 -0.509589D+01 -0.115227D+01
     13  0.113152D+00 -0.633350D+01  0.891701D+00 -0.605771D+00  0.111979D+00
     14 -0.312776D-01  0.959147D+00 -0.353918D+01 -0.208776D+01  0.166737D-02
     15 -0.229082D+00 -0.664694D+00 -0.206239D+01 -0.508932D+01  0.571534D-01
     16  0.129222D+00  0.287596D+00 -0.199531D+00  0.360861D-01  0.311433D+00
     17 -0.287546D+00 -0.162343D+00  0.122591D+00 -0.355966D-01 -0.618126D-01
     18  0.567805D-01 -0.600314D-01  0.218849D-01 -0.723958D-01  0.506028D-01
     19  0.158087D+01  0.141205D+00 -0.787718D-01  0.738856D-02  0.350863D-01
     20  0.372583D+01 -0.482642D-01 -0.668332D-01 -0.132881D-01  0.225779D-01
     21 -0.676045D+01 -0.500134D-02  0.372642D-02 -0.122476D+00  0.974695D-02
     22 -0.176753D-01 -0.406219D+01 -0.533418D+00 -0.101632D+01  0.102812D+00
     23  0.618456D-02 -0.503759D+00 -0.406597D+01  0.964273D+00 -0.886131D-01
     24 -0.349146D-03 -0.930553D+00  0.937547D+00 -0.268858D+01 -0.131347D+00
     25  0.554617D-02  0.748702D-01 -0.722237D-01 -0.901573D-01 -0.390589D+01
     26  0.406364D-02 -0.128491D-01  0.841477D-02 -0.678055D-01 -0.647439D+00
     27 -0.669915D-02 -0.246556D-01 -0.612475D-01  0.270057D-02 -0.871285D+00
     28 -0.445014D-02  0.293374D-01 -0.709541D-01 -0.160089D-01 -0.332532D+01
     29 -0.352645D-02 -0.236855D-01 -0.116008D-01 -0.277719D-01  0.754057D+00
     30 -0.405674D-02 -0.407642D-01 -0.462089D-01  0.916088D-01 -0.681898D+00
     31  0.158856D-02 -0.863874D-01  0.253496D-01 -0.627534D-01 -0.260770D+01
     32  0.269172D-03 -0.161211D-01  0.901934D-01 -0.118694D-02 -0.985941D+00
     33 -0.692087D-02 -0.423416D-01  0.202973D-01  0.306680D-01  0.670300D+00
     34  0.350977D-02  0.439472D-01 -0.118601D-01 -0.163707D-01 -0.333130D-01
     35 -0.783808D-03  0.316983D-01  0.497949D-03  0.305506D-01  0.835983D-02
     36 -0.157461D-01 -0.309523D-01  0.324449D-01 -0.787521D-02 -0.228184D-02
     37  0.179514D-01  0.776090D-01 -0.269425D-01  0.677350D-01  0.270020D-02
     38 -0.340893D-02 -0.657723D-01  0.695082D-01  0.161193D+00  0.117808D-01
     39  0.100296D-01  0.931468D-01  0.981495D-01 -0.672448D-01 -0.136039D-01
     40 -0.382895D-01 -0.223508D-01 -0.451648D-01  0.120713D-01  0.785141D-01
     41  0.346998D-01 -0.132410D+00  0.684167D-03 -0.730224D-02  0.121840D+00
     42 -0.114807D+00  0.368084D-01  0.150030D-01  0.992703D-01  0.212683D-01
     43  0.410204D-01 -0.569777D-01 -0.382047D-01 -0.141627D-01  0.315677D-01
     44  0.416103D-01 -0.722797D-01  0.114534D+00  0.701392D-01 -0.116307D+00
     45 -0.291273D-01 -0.363336D-01  0.845769D-01 -0.312387D-01 -0.617124D-01
     46 -0.725084D-01  0.144944D-01 -0.939269D-02 -0.617829D-02  0.185214D-01
     47 -0.184044D+00 -0.124436D-01 -0.455263D-02  0.539473D-02 -0.645775D-02
     48 -0.251568D-01 -0.169767D-01  0.628515D-02 -0.686640D-02 -0.133312D-01
     49 -0.235644D+01 -0.112949D-01  0.216158D-02  0.686304D-02  0.180993D-01
     50  0.147597D+01  0.210903D-01 -0.127568D-01  0.852226D-02  0.180848D-01
     51 -0.344884D+01  0.370313D-01  0.751268D-02 -0.576687D-02  0.220512D-01
               11            12            13            14            15 
     11  0.146162D+02
     12 -0.628982D+00  0.145701D+02
     13  0.102657D+00 -0.748807D-02  0.148979D+02
     14  0.745085D-01 -0.415626D-01 -0.197840D+00  0.132797D+02
     15  0.325984D-01  0.459376D-01  0.361738D-01  0.122186D+01  0.153128D+02
     16 -0.149135D+00 -0.334841D-02 -0.161521D+00 -0.143397D+00 -0.132340D-01
     17 -0.163680D+00 -0.592734D-02 -0.201258D+00  0.268881D+00  0.392818D-01
     18 -0.139286D-01 -0.177068D+00  0.293805D-01 -0.220059D-01 -0.182058D+00
     19 -0.186677D-01 -0.137674D-01  0.288222D+00 -0.379937D+00 -0.928514D-01
     20 -0.687766D-01 -0.315597D-02 -0.383295D+00 -0.156699D-01  0.651532D-01
     21 -0.129238D-02 -0.661293D-01 -0.706108D-01  0.595320D-01 -0.213537D+00
     22 -0.787376D-01 -0.112438D+00  0.108625D+00 -0.730388D-01  0.909952D-01
     23  0.293055D-01 -0.128506D+00 -0.622034D-01  0.830763D-01  0.147846D+00
     24 -0.140423D+00 -0.263756D-01  0.738024D-01  0.158579D+00 -0.769220D-01
     25 -0.456504D+00 -0.618505D+00 -0.107932D-01 -0.276762D-01 -0.826160D-02
     26 -0.333314D+01  0.111913D+01 -0.834701D-02 -0.140087D-01  0.977864D-02
     27  0.111189D+01 -0.259753D+01 -0.330518D-02 -0.867856D-03  0.103997D-01
     28  0.854261D+00 -0.805691D+00  0.346085D-01  0.116057D+00 -0.377694D-01
     29 -0.288122D+01 -0.948940D+00  0.103166D+00  0.839668D-01 -0.425670D-01
     30 -0.897409D+00 -0.316161D+01 -0.381459D-01 -0.442093D-01 -0.382500D-01
     31 -0.114026D+01  0.713425D+00  0.110282D+00  0.673479D-01  0.331663D-01
     32 -0.295542D+01 -0.595503D+00  0.355278D-01 -0.393153D-01  0.287210D-02
     33 -0.649906D+00 -0.337810D+01  0.410959D-01  0.149324D-01 -0.478497D-01
     34 -0.954153D-02  0.446770D-03 -0.271209D+01 -0.122656D+01  0.175285D+00
     35  0.820716D-01 -0.242102D-01 -0.131018D+01 -0.253748D+01 -0.139495D+00
     36 -0.138807D-01 -0.285288D-01  0.206380D+00 -0.163746D+00 -0.385719D+01
     37  0.268174D-01 -0.978274D-02 -0.413801D+01 -0.204473D+00 -0.556305D+00
     38 -0.744587D-02  0.459446D-02 -0.167554D+00 -0.417832D+01  0.554074D+00
     39 -0.130609D-01 -0.599977D-02 -0.673046D+00  0.816198D+00 -0.192099D+01
     40  0.112217D+00  0.205317D-01 -0.236585D+01  0.949119D+00  0.940316D+00
     41  0.567048D-01  0.240596D-01  0.124598D+01 -0.370150D+01  0.624237D+00
     42  0.220679D-01 -0.460269D-01  0.934904D+00  0.475715D+00 -0.384092D+01
     43 -0.742208D-01 -0.457152D-01 -0.989355D-02  0.180318D-01  0.245637D-02
     44  0.439856D-01  0.446229D-01  0.218830D-02 -0.144583D-01  0.797294D-02
     45  0.440104D-01 -0.276011D-01 -0.226638D-02 -0.841516D-03 -0.187711D-02
     46 -0.623947D-02 -0.104516D-01  0.210048D-01 -0.155338D-01 -0.138841D-01
     47 -0.481639D-02  0.359488D-02 -0.261834D-01  0.871354D-03  0.999416D-02
     48  0.540493D-02 -0.112175D-02 -0.215266D-01  0.685214D-02 -0.398967D-02
     49  0.837549D-02  0.854121D-02 -0.222969D-01 -0.142480D-01 -0.777557D-03
     50 -0.814221D-02  0.444062D-02 -0.213706D-02 -0.150914D-01 -0.441818D-02
     51  0.423802D-02 -0.703386D-02  0.578112D-01 -0.739727D-02 -0.588067D-02
               16            17            18            19            20 
     16  0.130369D+02
     17 -0.217030D+01  0.212704D+02
     18  0.660675D+01 -0.412473D+01  0.199927D+02
     19 -0.377043D+01  0.484747D+01 -0.339978D+01  0.135915D+02
     20  0.437425D+01 -0.104334D+02  0.862270D+00 -0.657065D+01  0.177216D+02
     21 -0.349768D+01  0.691896D+00 -0.114170D+02  0.293943D+01 -0.484062D+01
     22  0.673054D-01 -0.970359D-01 -0.104560D+00  0.251020D-01 -0.596064D-02
     23 -0.102654D+00  0.163383D-01  0.822981D-01 -0.188268D-01 -0.105435D-01
     24 -0.116244D+00  0.883929D-01  0.289943D-01 -0.321489D-01  0.593826D-02
     25  0.940523D-01  0.248134D-01  0.600695D-01  0.118612D-02  0.422085D-02
     26  0.506368D-01 -0.678783D-01  0.204962D-01  0.177866D-01 -0.608657D-02
     27  0.109798D+00  0.138840D-01 -0.282714D-01  0.184312D-01  0.609141D-02
     28  0.466784D-01  0.119653D-01 -0.108449D-01  0.301389D-01  0.856892D-02
     29  0.207025D-01 -0.163496D-01 -0.318843D-02  0.141703D-01 -0.461665D-02
     30 -0.238405D-01 -0.642286D-02 -0.171078D-01 -0.139817D-01 -0.423192D-02
     31  0.277695D-01 -0.174921D-01  0.101585D-01  0.307706D-01 -0.356595D-02
     32 -0.221449D-01 -0.577128D-02 -0.793310D-02 -0.121071D-01 -0.652152D-02
     33  0.138072D-01 -0.621927D-02 -0.109787D-01  0.822496D-02 -0.285394D-03
     34  0.616093D-02 -0.286401D-01  0.399449D-02  0.123391D-01 -0.154659D-01
     35 -0.284171D-01  0.226042D-01 -0.181582D-02 -0.208030D-01  0.233815D-02
     36  0.457039D-02 -0.398615D-02 -0.147301D-01  0.816890D-03 -0.195109D-02
     37 -0.600906D-01 -0.451167D-01  0.219532D-01 -0.419080D-02 -0.355439D-02
     38 -0.448220D-01  0.290077D-01 -0.533422D-01 -0.620212D-02 -0.312499D-01
     39  0.459167D-01 -0.997106D-01 -0.141915D-01  0.351377D-01 -0.161887D-01
     40  0.254078D-01 -0.496685D-02  0.541540D-02 -0.133820D-01  0.899356D-02
     41 -0.308457D-01  0.538086D-02 -0.519894D-01 -0.124227D-01 -0.118823D-02
     42  0.688471D-02 -0.210910D-01  0.766303D-02  0.198542D-02 -0.475457D-02
     43 -0.417494D+01  0.777920D+00  0.549663D+00 -0.105334D+00 -0.414266D+00
     44  0.961433D+00 -0.273192D+01  0.136168D+01 -0.501458D+00 -0.149440D+00
     45  0.638169D+00  0.128401D+01 -0.367883D+01 -0.102673D+00 -0.581671D-01
     46 -0.240452D+00 -0.465257D-01  0.258475D+00 -0.349809D+01 -0.541385D+00
     47 -0.168693D-01  0.233366D+00  0.421560D-01 -0.563293D+00 -0.404711D+01
     48  0.261918D+00  0.573780D-01  0.738675D-01 -0.117886D+01  0.702117D+00
     49  0.452233D-01 -0.744608D-01 -0.254096D-01  0.167702D+00  0.121337D-01
     50 -0.100259D-02 -0.139105D+00 -0.916233D-01  0.132690D+00  0.116112D+00
     51  0.263055D-01 -0.787772D-01 -0.837393D-02  0.115730D+00 -0.386946D-01
               21            22            23            24            25 
     21  0.212292D+02
     22 -0.172027D-01  0.393643D+01
     23  0.761298D-02  0.705471D+00  0.394700D+01
     24  0.541097D-02  0.133825D+01 -0.128243D+01  0.239272D+01
     25 -0.135794D-02 -0.290824D-01  0.434064D-02  0.719574D-02  0.381331D+01
     26  0.315942D-02 -0.450334D-02  0.232956D-01  0.712923D-01  0.312104D+00
     27 -0.813487D-02 -0.570080D-02  0.680423D-01  0.728314D-01  0.434404D+00
     28 -0.821444D-02 -0.272410D-03 -0.250779D-01 -0.129154D-01  0.138733D-01
     29 -0.276112D-02 -0.271622D-01 -0.205175D-01 -0.189557D-01 -0.509858D-02
     30 -0.540558D-02 -0.116638D-01 -0.257336D-01  0.317347D-02  0.151891D+00
     31  0.332903D-02 -0.517538D-02 -0.155394D-03 -0.673248D-02 -0.408322D-01
     32 -0.105305D-02 -0.165427D-02  0.275540D-02 -0.916650D-02  0.167666D+00
     33 -0.640795D-02 -0.134563D-01 -0.146340D-02 -0.736318D-02  0.604439D-01
     34 -0.612110D-03  0.283073D-01 -0.752901D-03  0.814383D-02 -0.328979D-02
     35 -0.719345D-03 -0.503627D-02 -0.235317D-01  0.613201D-01  0.582825D-04
     36 -0.830310D-02  0.639146D-02  0.584987D-01 -0.433767D-01  0.000000D+00
     37  0.327113D-02 -0.607462D-02  0.122564D-02 -0.598721D-01 -0.340197D-02
     38  0.223531D-02  0.937615D-02 -0.349472D-01 -0.204379D-01  0.205878D-01
     39 -0.919490D-02 -0.709894D-01 -0.461526D-02  0.122956D+00 -0.535314D-02
     40  0.183484D-01 -0.670336D-02 -0.181975D-01  0.116912D-01 -0.170324D-02
     41 -0.237215D-01 -0.170808D-01  0.178788D-02  0.106743D-01 -0.147304D-02
     42 -0.104896D-01  0.211264D-01  0.952534D-02 -0.477836D-03 -0.285314D-03
     43 -0.760747D-01 -0.444371D-02  0.676092D-02  0.572636D-02 -0.223369D-01
     44 -0.414578D-01  0.215093D-02 -0.160037D-02  0.598824D-03  0.261561D-02
     45  0.302759D+00  0.190469D-02 -0.235024D-02  0.134848D-02 -0.732970D-02
     46 -0.121554D+01  0.440456D-02 -0.336013D-02 -0.583446D-02  0.461604D-02
     47  0.748934D+00 -0.307485D-02  0.113222D-02  0.296690D-02 -0.389676D-03
     48 -0.281710D+01 -0.481639D-02  0.333568D-02  0.489877D-02 -0.129637D-02
     49 -0.618056D-02 -0.638840D-02  0.789016D-03  0.276073D-02  0.770604D-03
     50 -0.863954D-01  0.305828D-02 -0.255812D-02 -0.288376D-02  0.128846D-02
     51  0.514389D-01  0.611812D-02 -0.246664D-02 -0.588858D-02  0.161693D-02
               26            27            28            29            30 
     26  0.329512D+01
     27 -0.115045D+01  0.258426D+01
     28 -0.108200D-01  0.189551D+00  0.292283D+01
     29  0.139729D+00  0.172730D-01 -0.943477D+00  0.284297D+01
     30  0.220848D-01 -0.151377D+00  0.699323D+00  0.880595D+00  0.334836D+01
     31  0.205565D+00  0.664665D-01  0.105317D+00  0.304401D-01 -0.271137D-01
[...]
   yy         0.627099D+02      0.929265D+01      0.103395D+02
   zx         0.890308D+01      0.131930D+01      0.146792D+01
   zy         0.650809D+01      0.964400D+00      0.107304D+01
   zz         0.776410D+02      0.115052D+02      0.128013D+02

 ----------------------------------------------------------------------

 Test job not archived.
 1\1\GINC-C0233\Freq\RM062X\CC-pVTZ\C5H10O2\HARMS.N\26-Sep-2019\0\\#P G
 eom=AllCheck Guess=TCheck SCRF=Check Test GenChk RM062X/CC-pVTZ Freq\\
 Gaussian input prepared by ASE\\0,1\O,2.6298856061,1.6576704607,2.3642
 335579\O,1.1562743481,0.9518035158,0.1580561517\C,2.0809237221,2.07835
 7322,3.6240386622\C,2.6577913987,1.2835644234,4.7832932349\C,0.5636370
 905,2.0306182854,3.5885284695\C,2.4491415005,0.3335201201,2.0375396741
 \C,1.7574916718,0.0287939314,0.9474028542\H,2.4126925509,3.1136638997,
 3.7042506354\H,2.2710942696,0.2641302631,4.7953469071\H,3.7448534187,1
 .2488889531,4.719815306\H,2.380528385,1.7550522955,5.7255561133\H,0.15
 06248673,2.4050960703,4.5250198936\H,0.2207915018,1.0049602638,3.44680
 05436\H,0.176649855,2.6400925686,2.7724276812\H,2.9372671718,-0.417352
 1707,2.6425781889\H,1.639603898,-0.9860619847,0.5995676433\H,1.3897719
 682,1.81810054,0.5155791854\\Version=EM64L-G16RevA.03\State=1-A\HF=-34
 6.9474323\RMSD=2.119e-09\RMSF=4.416e-07\ZeroPoint=0.1478397\Thermal=0.
 1561232\Dipole=-0.0481684,0.0627792,0.8427587\DipoleDeriv=-0.4864955,0
 .0046028,-0.0611425,-0.0381819,-0.912948,-0.6397843,-0.0241438,-0.2974
 618,-0.9906357,-0.5072872,0.1037681,-0.3663015,0.3672337,-0.5517862,0.
 6177658,-0.24419,0.1375241,-0.8327492,0.5024908,-0.1316578,-0.1341355,
 -0.0933903,0.3749634,0.1577489,-0.0416144,0.2533052,0.9335127,-0.00105
 68,0.0632026,-0.0526871,0.0383898,0.013748,0.0684044,-0.0290108,0.0193
 614,-0.1299447,-0.1551936,0.024765,0.0622619,0.004467,0.0273203,-0.006
 6539,-0.0408982,-0.0360695,-0.0285766,-0.0883873,0.1071134,0.1897628,0
 .0218023,0.6446216,0.4993628,0.1244625,0.1694478,-0.0579536,0.2113706,
 -0.1458325,0.518809,-0.2815256,0.3672747,-0.5278,0.4054743,-0.1772212,
 0.6264412,-0.0084337,-0.0458925,0.0005566,-0.044765,-0.1327817,-0.0326
 47,-0.0052113,-0.0043475,-0.0212407,0.022871,-0.0717577,-0.0158982,-0.
 0385235,-0.087405,0.0204266,-0.018294,-0.0194499,0.0733768,-0.1164955,
 0.0228577,-0.0211353,0.0162904,0.0530382,0.0254889,0.0210578,0.0180384
 ,0.0623951,0.0575506,0.0316361,0.0520433,0.0242179,0.0330562,-0.082555
 8,0.0221666,-0.0594385,-0.0834479,0.0438746,0.0291735,0.0520513,0.0306
 529,0.0542936,-0.0591153,0.0763611,-0.0696757,-0.0810645,0.0364571,-0.
 0091767,-0.0274806,-0.0581816,-0.0766737,-0.0095924,-0.0288968,-0.0031
 71,0.0773556,0.0041095,0.0144977,-0.0425118,0.0309197,0.0179938,0.0737
 289,-0.0763138,0.0937955,-0.0468459,0.0841608,0.018436,-0.1113882,0.03
 58474,-0.046249,-0.0186932,-0.0722125,0.068359,0.0863302,0.129424,0.00
 75722,-0.0358314,0.0153843,-0.0312352,-0.0085329,-0.0382755,-0.0340578
 ,0.0689945,0.2710405,-0.0233079,-0.0069726,-0.0306376,0.2527691,-0.077
 5515,-0.0304612,-0.0589387,0.3440528\Polar=60.072784,-2.4300123,63.746
 276,8.1184509,7.4337738,77.5752888\Quadrupole=-1.7034065,3.2154408,-1.
 5120343,-1.0862597,-0.3028993,0.3529369\PG=C01 [X(C5H10O2)]\NImag=0\\0
 .14251401,0.02747719,0.43792702,-0.06875706,0.11926265,0.33562962,-0.0
 0397195,-0.00344644,0.00374557,0.16606145,-0.00155112,0.01606642,-0.00
 150058,0.01002545,0.63785258,0.00412530,-0.00309103,-0.00247985,0.1830
 1337,0.03657850,0.29503808,-0.08283927,0.01063757,0.05162836,-0.001414
 31,-0.00091769,-0.00091904,0.49870501,-0.00015860,-0.08949397,-0.00849
 993,0.00219295,0.00023980,0.00106301,0.05104802,0.63076755,0.04630265,
 -0.02517742,-0.16339661,0.00250100,-0.00388579,0.00360058,0.02492204,-
 0.00661181,0.45352509,0.00562524,-0.00491501,0.01588249,0.00089154,-0.
 00040306,0.00041016,-0.10040150,0.02575431,-0.03838469,0.57688153,-0.0
 0260768,0.00781281,-0.01547197,-0.00004694,-0.00041236,-0.00008632,0.0
 2667680,-0.12615250,0.05493178,0.01655082,0.55512414,-0.00528371,0.009
 49124,-0.04491014,-0.00088912,-0.00000953,-0.00061616,-0.03531874,0.04
 731644,-0.13557444,-0.03316754,0.03949709,0.52375463,-0.01850789,0.004
 53050,0.01284234,0.00006958,0.00008459,0.00053796,-0.19985438,-0.00883
 942,-0.01175155,-0.01806408,0.00110839,-0.00654758,0.48344848,0.016615
 28,0.00069234,-0.00653323,0.00079358,-0.00091064,-0.00070827,-0.014308
 36,-0.08614782,0.00069463,0.02148773,0.00021194,0.00313234,-0.00719900
 ,0.58043529,0.04239709,-0.00854022,-0.01697825,-0.00093645,0.00150190,
 -0.00040362,-0.01883255,0.00013134,-0.07558305,-0.02912186,0.00070407,
 0.00106581,-0.00016183,-0.00157402,0.59110774,-0.06088718,-0.04122101,
 -0.01209094,-0.00759138,0.01040912,-0.03125002,0.00018197,0.01031752,-
 0.00415654,-0.00009377,-0.00146237,0.00061285,-0.00045975,0.00323237,0
 .00326826,0.35931608,-0.02491001,-0.27981726,-0.04364584,0.02893507,-0
 .01367960,0.04464902,0.00694986,-0.02695451,-0.03050666,-0.00122483,0.
 00546799,0.00243541,0.00020122,0.00230138,0.00502118,-0.03034283,0.614
 90690,-0.00394175,-0.02920579,-0.09487519,-0.03190217,0.01538642,-0.02
 861986,-0.00596476,-0.04045704,-0.01565040,0.00001397,-0.00138659,-0.0
 0159352,0.00132948,0.00117548,0.00032980,0.34764957,0.02973908,0.68926
 314,0.00327726,-0.00803208,-0.01273336,-0.11095694,0.08362088,-0.09072
 297,-0.00125029,0.00221713,0.00246428,-0.00049014,-0.00018099,0.000356
 09,-0.00036196,-0.00106374,0.00121225,-0.19058087,-0.05764320,-0.21259
 231,0.34785031,-0.02440901,-0.04842394,-0.04887126,0.05455254,-0.21382
 403,0.06724002,-0.00464274,-0.00165317,0.00870780,0.00056974,-0.000623
 56,-0.00001367,0.00022609,0.00108369,-0.00195464,-0.04394568,-0.121169
 49,-0.07960219,0.01703786,0.73071411,-0.01159561,-0.00961388,-0.008176
 06,-0.08976834,0.10691523,-0.17168623,-0.00133789,0.00152152,-0.000636
 36,-0.00023769,-0.00024191,0.00013045,-0.00053543,-0.00051809,0.001140
 00,-0.21430402,-0.10530171,-0.39868660,0.33694024,0.11018826,0.6631100
 1,0.00351303,0.01700989,0.00673955,0.00014031,-0.00022819,0.00012810,-
 0.07685153,-0.08264492,-0.00827715,0.00463709,0.01392897,-0.00053880,-
 0.01299234,-0.03263614,-0.00252417,-0.00008595,0.00057604,0.00221719,-
 0.00008649,0.00095452,-0.00009144,0.08527217,0.00002786,-0.01383493,-0
 .00881557,-0.00022388,0.00054454,-0.00043430,-0.07730906,-0.28649537,-
 0.01455843,-0.00514185,-0.01668469,0.00156957,-0.00045201,0.00111509,0
 .00091735,0.00077797,0.00289486,-0.00178501,0.00035231,-0.00105801,0.0
 0037890,0.08092955,0.31115359,-0.00297074,-0.03953613,-0.01561152,-0.0
 0014562,0.00061906,-0.00048645,-0.00512166,-0.00532015,-0.04570915,0.0
 0739320,0.02602041,0.00020401,-0.00143814,-0.00079331,0.00131208,0.001
 37612,0.00062212,-0.00459390,0.00035479,-0.00199807,0.00060493,0.00311
 028,0.02001680,0.06563134,0.00012050,-0.00035826,0.00078283,-0.0002789
 0,0.00021853,-0.00018148,0.00390818,0.01369162,0.00131621,-0.08360005,
 -0.09062029,0.00010829,0.00124575,0.00105743,0.00059442,0.00042077,-0.
 00148657,0.00001364,0.00006710,0.00017511,0.00007654,-0.00043572,0.001
 65200,-0.00248267,0.08572306,0.00001891,0.00121683,0.00058458,-0.00037
 888,0.00027292,-0.00016657,-0.00588479,-0.01920247,-0.00102212,-0.0899
 1739,-0.27979551,0.00114866,-0.00090117,0.00095993,-0.00068013,0.00042
 476,-0.00141048,-0.00085378,0.00034255,0.00041503,0.00018570,0.0017341
 8,-0.00020477,0.00311057,0.09757820,0.30638875,-0.00006068,-0.00156795
 ,0.00115090,0.00032293,-0.00049270,0.00044582,0.00993744,0.02675858,0.
 00122911,-0.00027728,0.00004037,-0.04628810,0.00146992,-0.00036890,0.0
 0084583,0.00045579,-0.00026210,-0.00032918,-0.00041286,0.00006787,-0.0
 0061496,-0.00229532,0.00259840,-0.00350833,0.00116556,-0.00165125,0.04
 947032,0.00194526,-0.00074625,0.00070350,0.00013540,-0.00009508,0.0001
 1372,-0.01329629,0.00004153,0.00211575,-0.31727714,0.00661107,0.017195
 24,0.00048392,0.00231526,-0.00257160,-0.00011093,-0.00008720,-0.000469
 72,0.00006155,-0.00005683,-0.00001578,0.00043506,0.00031711,-0.0001441
 9,-0.00958045,0.00097692,0.00084972,0.34395773,-0.00139826,0.00035991,
 -0.00142637,-0.00001986,0.00001656,0.00007141,0.01918177,-0.00091391,-
 0.00317305,0.00556703,-0.04893718,0.00009712,0.00048633,-0.00154102,0.
 00292272,-0.00023187,0.00070360,0.00003691,0.00010274,-0.00021964,0.00
 002673,-0.00008221,0.00028434,-0.00075840,-0.03046685,0.00258475,0.002
 38399,-0.00870806,0.04848366,0.00112450,-0.00034245,0.00305258,0.00026
 596,-0.00020793,0.00020966,-0.02784622,-0.00025299,0.00076970,0.019389
 69,-0.00071308,-0.04723727,-0.00095954,0.00307471,-0.00439399,-0.00029
 650,-0.00059838,-0.00034657,-0.00009253,0.00017782,-0.00015121,0.00076
 307,-0.00038648,0.00071757,-0.00070058,-0.00015449,-0.00132471,-0.0179
 0214,-0.00124513,0.04898845,0.00063697,0.00074660,-0.00285391,-0.00007
 962,0.00000706,0.00001573,0.00163831,-0.00724426,-0.00923017,-0.064250
 57,0.03131774,0.06029603,-0.00006098,-0.00024749,0.00027905,0.00003159
 ,0.00052725,-0.00014569,0.00006854,-0.00010561,0.00002181,0.00046091,-
 0.00015786,0.00051431,0.00243546,-0.00481288,-0.01131643,-0.00609451,0
 .01440138,0.02807016,0.06571693,0.00107196,-0.00067652,0.00619044,-0.0
 0025186,0.00032925,-0.00020868,-0.00568437,0.00784665,0.01401768,0.031
 40725,-0.09814217,-0.10409603,0.00005597,-0.00000760,-0.00054182,0.000
 41155,-0.00201966,-0.00042991,0.00024510,0.00046601,0.00028054,-0.0007
 1916,0.00060065,-0.00051018,0.00873733,-0.01231514,-0.02624592,-0.0001
 8572,-0.00119183,0.00046207,-0.03462636,0.10449306,-0.00223059,0.00193
 279,-0.00647922,-0.00028843,0.00013589,-0.00028151,0.00860290,-0.01423
 866,-0.01883604,0.05891083,-0.10238824,-0.24846503,0.00048205,-0.00041
 003,0.00056201,0.00011923,0.00261450,0.00082876,0.00007230,-0.00050318
 ,0.00009596,0.00055495,0.00031783,0.00085151,-0.00073906,0.00053186,0.
 00095419,0.00015416,0.00027418,-0.00052390,-0.06530400,0.11129290,0.27
 010428,-0.00909259,0.00212461,0.00369221,0.00044784,-0.00065459,0.0003
 9276,-0.00623654,0.01260046,0.02808371,0.00124604,0.00002590,-0.000000
 16,-0.08507210,0.03507736,0.08545983,-0.00042267,-0.00286326,-0.001078
 34,0.00012352,0.00083734,-0.00043149,0.00101635,-0.00083151,-0.0001986
 6,-0.00003947,0.00008692,-0.00005087,0.00030126,-0.00038996,-0.0000170
 2,-0.00053107,0.00019846,-0.00073418,0.09090882,-0.00093352,0.00086149
 ,0.00002865,-0.00018502,0.00021116,0.00012129,-0.00132623,-0.00143383,
 0.00203304,-0.00006016,0.00012688,-0.00002985,0.03571314,-0.07804802,-
 0.08055371,0.00014983,0.00014337,-0.00064219,0.00049182,-0.00006765,0.
 00040371,0.00043563,-0.00000923,0.00010670,0.00005548,-0.00014645,-0.0
 0014707,-0.00011588,-0.00006778,0.00014801,0.00030707,0.00020828,0.000
 21966,-0.03872123,0.08063835,0.00019548,-0.00007890,0.00170372,0.00030
 675,-0.00031544,-0.00021549,-0.00123665,0.00088760,-0.00068678,-0.0004
 8554,-0.00001271,-0.00021810,0.08754813,-0.08100070,-0.24769977,-0.000
 21402,0.00054493,0.00036247,-0.00021756,0.00033141,-0.00014396,0.00049
 369,0.00011549,0.00016772,0.00016816,0.00007005,-0.00003998,0.00010612
 ,0.00011217,0.00025598,-0.00040136,0.00016753,0.00034356,-0.09562553,0
 .08867727,0.26758553,0.00284582,0.00119873,-0.00040831,-0.00036057,0.0
 0053020,-0.00054404,-0.01243602,-0.03590159,-0.00606901,0.00171958,-0.
 00109084,0.00120348,-0.07134786,-0.07604043,-0.01112268,-0.00033833,-0
 .00002470,-0.00003906,0.00055636,0.00021443,0.00112835,-0.00656123,0.0
 0065592,-0.00004281,0.00005088,0.00087583,-0.00051486,0.00027270,0.000
 34542,0.00021882,0.00000543,0.00006074,0.00007076,0.00354233,0.0125887
 2,0.00054766,0.07941588,-0.00062010,0.00033656,0.00032491,-0.00004253,
 -0.00020263,0.00050866,-0.00158831,-0.00190936,0.00039566,0.00029152,0
 .00112989,0.00008800,-0.07745927,-0.28603475,-0.03140585,0.00074877,-0
 .00057364,-0.00118253,0.00074539,0.00002073,-0.00036105,0.00022716,0.0
 0140068,-0.00020482,-0.00028878,0.00023416,-0.00042741,0.00000224,0.00
 017826,0.00001844,0.00001515,-0.00000325,0.00010430,-0.00262131,-0.008
 99233,-0.00039591,0.08569658,0.31000613,-0.00050929,-0.00019534,-0.000
 11498,-0.00044159,0.00008427,0.00039579,0.00021052,-0.00062650,-0.0010
 4384,-0.00003712,-0.00104178,-0.00018033,-0.01196273,-0.03181347,-0.05
 162348,0.00083889,0.00023709,0.00005110,0.00036655,-0.00045476,-0.0005
 4222,0.00004330,0.00009487,0.00065425,-0.00030987,0.00023190,0.0001181
 0,0.00014798,0.00023403,-0.00001120,-0.00011251,-0.00006556,-0.0000188
 1,-0.00977952,-0.02614651,-0.00273109,0.01283176,0.03566316,0.05129132
 ,0.00349191,-0.00132662,-0.00004455,0.00021769,-0.00027993,-0.00013394
 ,-0.01181945,0.02038741,-0.02751070,-0.00688546,-0.00091753,0.00163182
 ,-0.07854874,0.05156350,-0.06836491,-0.00011686,0.00045998,0.00024541,
 -0.00028235,0.00024661,-0.00011083,0.00146562,-0.00036898,0.00017174,0
 .00004893,0.00001580,0.00020183,-0.00082373,0.00111753,-0.00170884,0.0
 0013729,-0.00025413,0.00000362,0.00418598,-0.00842336,0.00910128,0.002
 91002,-0.00502588,0.00858060,0.08625886,-0.00017567,-0.00030968,-0.000
 59368,-0.00105191,0.00120464,-0.00013704,-0.00108159,0.00034063,-0.002
 11058,-0.00017843,0.00071610,-0.00012198,0.05245001,-0.13408639,0.1152
 5191,-0.00001798,0.00000810,-0.00045340,0.00095599,-0.00105910,0.00088
 486,0.00045709,0.00052472,-0.00057691,-0.00017255,0.00045427,-0.000234
 22,-0.00007395,0.00049531,0.00015842,-0.00001013,-0.00002527,0.0002976
 3,-0.00525491,0.00667931,-0.00899715,0.01086119,-0.01540538,0.02347041
 ,-0.05730667,0.14039403,0.00026004,-0.00003657,0.00193477,-0.00003238,
 -0.00006384,-0.00034270,0.00143011,-0.00074968,-0.00241036,-0.00067696
 ,-0.00058494,0.00094661,-0.07065852,0.11470181,-0.19928862,-0.00031953
 ,-0.00002892,-0.00000930,-0.00017657,0.00013289,0.00013424,-0.00041475
 ,-0.00026433,0.00007943,0.00015694,-0.00002442,-0.00001423,-0.00007530
 ,0.00032959,0.00007595,0.00020214,-0.00000256,0.00034826,-0.00986534,0
 .01588877,-0.01908244,0.00255953,-0.00314944,0.00385376,0.07732510,-0.
 12615335,0.21390813,0.00607422,-0.00527178,0.00532823,0.00658303,0.000
 45814,-0.00746831,0.00038881,0.00020347,-0.00040048,0.00069664,0.00043
 084,-0.00043609,-0.00002712,0.00005119,-0.00012596,-0.10049906,0.09150
 062,-0.09233216,-0.00509001,0.01138321,-0.00372175,-0.00000539,-0.0000
 6126,0.00006139,-0.00016847,-0.00018401,0.00053254,-0.00028979,0.00002
 934,-0.00013734,-0.00019610,-0.00040954,0.00006845,0.00002925,-0.00007
 252,-0.00001902,-0.00022336,-0.00002479,-0.00008496,0.00001301,-0.0001
 6423,0.00002250,0.09627905,0.01155751,-0.03335387,0.01075221,-0.001187
 84,0.00153969,-0.00343238,-0.00130442,0.00072072,0.00538775,0.00007222
 ,0.00023224,-0.00025140,0.00007149,-0.00026750,-0.00079208,0.09153571,
 -0.18244122,0.11178068,-0.00362499,0.00884954,-0.00392645,0.00010828,-
 0.00002097,-0.00051917,0.00026695,0.00064498,-0.00057603,-0.00023735,-
 0.00024362,-0.00020856,-0.00012097,0.00048872,-0.00008950,0.00032856,0
 .00005804,-0.00008113,0.00013923,0.00000815,0.00000528,-0.00019437,0.0
 0002120,-0.00002234,-0.09672018,0.20435789,0.00553539,-0.00741628,0.00
 906659,-0.00596311,-0.00380255,0.00097425,0.00025930,-0.00020285,0.001
 55236,0.00038702,0.00054771,-0.00120235,0.00007727,-0.00001732,-0.0001
 6372,-0.09052916,0.10930487,-0.14410624,-0.00862399,0.02126308,-0.0091
 4772,-0.00003719,0.00018871,-0.00015784,0.00008473,-0.00120990,-0.0021
 1780,-0.00026939,0.00014304,-0.00009601,-0.00001800,-0.00020474,0.0003
 9216,0.00001352,0.00002791,-0.00001208,0.00008985,0.00004133,0.0000192
 6,-0.00005102,0.00006288,-0.00000568,0.09663370,-0.11787832,0.14610648
 ,0.00768888,0.00247077,-0.00749330,0.00317375,0.01773489,0.00470731,-0
 .00094728,-0.00204880,-0.00027235,-0.00001596,-0.00007416,0.00004707,-
 0.00029685,-0.00008449,-0.00001598,0.00186783,-0.01485081,-0.00144015,
 -0.04853055,-0.03500398,-0.02208931,0.00018374,-0.00023037,-0.00048656
 ,0.00004329,0.00008618,-0.00001360,-0.00001020,0.00000228,-0.00002038,
 0.00000335,0.00007774,-0.00001284,-0.00000092,-0.00001656,0.00001921,0
 .00000502,0.00010214,0.00008504,0.00005196,-0.00000966,0.00003356,-0.0
 0296127,-0.00015277,0.00188122,0.03949528,0.00112395,0.00216230,-0.000
 46914,-0.00008879,-0.02496947,-0.00305446,-0.00030160,-0.00016446,0.00
 003644,0.00000128,-0.00004003,-0.00002493,0.00001724,-0.00009539,0.000
 07398,0.00072396,-0.00199855,0.00032832,-0.03335421,-0.30973644,-0.094
 55229,0.00002743,0.00000205,-0.00004261,0.00000174,0.00001580,-0.00001
 084,-0.00000493,0.00000523,-0.00000403,-0.00000242,0.00001747,-0.00000
 644,-0.00000998,0.00002380,-0.00003088,0.00000861,-0.00001332,-0.00001
 978,-0.00004711,0.00006970,0.00000296,-0.00061810,0.00016927,-0.000305
 29,0.02973507,0.33500893,-0.00671379,-0.00282546,-0.00121092,0.0019767
 9,0.02497616,0.00758086,-0.00117829,0.00070701,0.00119181,0.00012952,-
 0.00011197,-0.00024256,0.00019123,0.00019843,-0.00004519,0.00161342,-0
 .02240512,0.00046102,-0.02279861,-0.10012735,-0.08739838,0.00011943,-0
 .00000105,-0.00019094,-0.00002335,-0.00000143,-0.00002991,0.00001669,-
 0.00000807,0.00004445,-0.00002052,0.00003640,-0.00007315,0.00006147,-0
 .00001813,-0.00000305,0.00007022,-0.00006940,-0.00004452,-0.00000099,-
 0.00001692,-0.00002108,0.00190628,0.00073311,-0.00141983,0.02775711,0.
 09554841,0.08288875,-0.00243421,-0.00087843,0.00303636,-0.05306690,-0.
 11895920,-0.06222462,0.00252458,-0.00161684,-0.00165300,-0.00061901,0.
 00035025,0.00073087,0.00034629,-0.00061407,0.00056707,-0.00063149,0.00
 428338,-0.00156316,0.00562497,0.02196641,0.00607265,-0.00010563,0.0000
 6406,0.00004922,0.00003912,-0.00006112,0.00000616,-0.00010985,0.000063
 24,-0.00015113,0.00007807,-0.00013495,0.00026985,-0.00040603,0.0001128
 0,-0.00028681,-0.00005664,-0.00015798,0.00013294,-0.00030468,0.0007733
 6,0.00022945,-0.00060345,-0.00053705,0.00052986,0.00024991,0.00278785,
 -0.00310660,0.04947495,-0.00112870,-0.00152551,-0.00131590,-0.08957564
 ,-0.40427884,-0.13891288,-0.00014485,0.00060603,0.00084107,0.00013883,
 -0.00003399,-0.00022848,-0.00009411,0.00033947,-0.00048198,-0.00150981
 ,0.00363823,-0.00244846,-0.00221257,-0.04371408,-0.00627007,-0.0000781
 2,-0.00021255,-0.00023590,-0.00004110,-0.00011258,0.00013518,0.0000471
 1,0.00000337,0.00007405,0.00000573,-0.00006865,-0.00008551,0.00006713,
 -0.00018537,0.00000637,-0.00011804,-0.00017989,0.00034269,0.00035374,-
 0.00002218,0.00002438,-0.00053041,-0.00076326,-0.00054227,0.00226253,-
 0.00045690,0.00338537,0.09255829,0.44696670,0.00212275,-0.00305926,0.0
 0169457,-0.06176517,-0.17591908,-0.10311317,0.00076515,-0.00142590,-0.
 00234162,-0.00012821,0.00029806,0.00042648,-0.00046306,0.00075992,-0.0
 0018355,-0.00277340,0.00758054,-0.00248553,0.00660427,0.02541598,0.011
 96810,0.00000926,0.00004725,0.00003528,-0.00003031,-0.00009921,0.00005
 293,0.00004524,-0.00002089,-0.00002949,0.00000337,-0.00014218,0.000196
 96,0.00007759,-0.00011756,0.00041377,0.00002033,0.00005194,-0.00007312
 ,0.00066437,-0.00073086,-0.00010674,0.00017299,-0.00088167,0.00031817,
 -0.00268606,0.00253057,-0.00148735,0.05736088,0.14571236,0.09471431\\-
 0.00000013,0.00000061,0.00000007,0.00000016,0.00000062,-0.00000007,-0.
 00000044,-0.00000011,0.00000022,-0.00000007,-0.00000022,0.00000005,-0.
 00000026,-0.00000077,0.00000035,0.00000033,0.00000043,-0.00000027,0.00
 000045,0.00000056,-0.00000033,-0.00000069,0.00000011,0.00000051,0.0000
 0039,-0.00000034,-0.00000028,0.00000003,0.00000025,0.,-0.00000019,-0.0
 0000057,0.00000017,-0.00000042,-0.00000109,0.00000032,0.00000011,-0.00
 000071,-0.00000009,-0.00000057,-0.00000048,0.00000030,0.00000066,0.000
 00053,-0.00000047,0.00000087,0.00000066,-0.00000063,-0.00000024,0.0000
 0052,0.00000014\\\@


 THE REAL VOYAGE OF DISCOVERY CONSISTS NOT IN SEEKING NEW LANDSCAPES 
 BUT IN HAVING NEW EYES.
                                                    -- MARCEL PROUST
 Job cpu time:       0 days  3 hours 50 minutes 14.0 seconds.
 Elapsed time:       0 days  2 hours  3 minutes 53.7 seconds.
 File lengths (MBytes):  RWF=   1392 Int=      0 D2E=      0 Chk=     32 Scr=     32
 Normal termination of Gaussian 16 at Thu Sep 26 21:21:41 2019.
