 Entering Gaussian System, Link 0=g16
 Input=med/species/CC(C)OC=CO/conformers/CC(C)OC=CO_137.com
 Output=med/species/CC(C)OC=CO/conformers/CC(C)OC=CO_137.log
 Initial command:
 /shared/centos7/gaussian/g16/l1.exe "/scratch/harms.n/gauss_scrdir/Gau-10065.inp" -scrdir="/scratch/harms.n/gauss_scrdir/"
 Entering Link 1 = /shared/centos7/gaussian/g16/l1.exe PID=     10066.
  
 Copyright (c) 1988,1990,1992,1993,1995,1998,2003,2009,2016,
            Gaussian, Inc.  All Rights Reserved.
  
 This is part of the Gaussian(R) 16 program.  It is based on
 the Gaussian(R) 09 system (copyright 2009, Gaussian, Inc.),
 the Gaussian(R) 03 system (copyright 2003, Gaussian, Inc.),
 the Gaussian(R) 98 system (copyright 1998, Gaussian, Inc.),
 the Gaussian(R) 94 system (copyright 1995, Gaussian, Inc.),
 the Gaussian 92(TM) system (copyright 1992, Gaussian, Inc.),
 the Gaussian 90(TM) system (copyright 1990, Gaussian, Inc.),
 the Gaussian 88(TM) system (copyright 1988, Gaussian, Inc.),
 the Gaussian 86(TM) system (copyright 1986, Carnegie Mellon
 University), and the Gaussian 82(TM) system (copyright 1983,
 Carnegie Mellon University). Gaussian is a federally registered
 trademark of Gaussian, Inc.
  
 This software contains proprietary and confidential information,
 including trade secrets, belonging to Gaussian, Inc.
  
 This software is provided under written license and may be
 used, copied, transmitted, or stored only in accord with that
 written license.
  
 The following legend is applicable only to US Government
 contracts under FAR:
  
                    RESTRICTED RIGHTS LEGEND
  
 Use, reproduction and disclosure by the US Government is
 subject to restrictions as set forth in subparagraphs (a)
 and (c) of the Commercial Computer Software - Restricted
 Rights clause in FAR 52.227-19.
  
 Gaussian, Inc.
 340 Quinnipiac St., Bldg. 40, Wallingford CT 06492
  
  
 ---------------------------------------------------------------
 Warning -- This program may not be used in any manner that
 competes with the business of Gaussian, Inc. or will provide
 assistance to any competitor of Gaussian, Inc.  The licensee
 of this program is prohibited from giving any competitor of
 Gaussian, Inc. access to this program.  By using this program,
 the user acknowledges that Gaussian, Inc. is engaged in the
 business of creating and licensing software in the field of
 computational chemistry and represents and warrants to the
 licensee that it is not a competitor of Gaussian, Inc. and that
 it will not use this program in any manner prohibited above.
 ---------------------------------------------------------------
  

 Cite this work as:
 Gaussian 16, Revision A.03,
 M. J. Frisch, G. W. Trucks, H. B. Schlegel, G. E. Scuseria, 
 M. A. Robb, J. R. Cheeseman, G. Scalmani, V. Barone, 
 G. A. Petersson, H. Nakatsuji, X. Li, M. Caricato, A. V. Marenich, 
 J. Bloino, B. G. Janesko, R. Gomperts, B. Mennucci, H. P. Hratchian, 
 J. V. Ortiz, A. F. Izmaylov, J. L. Sonnenberg, D. Williams-Young, 
 F. Ding, F. Lipparini, F. Egidi, J. Goings, B. Peng, A. Petrone, 
 T. Henderson, D. Ranasinghe, V. G. Zakrzewski, J. Gao, N. Rega, 
 G. Zheng, W. Liang, M. Hada, M. Ehara, K. Toyota, R. Fukuda, 
 J. Hasegawa, M. Ishida, T. Nakajima, Y. Honda, O. Kitao, H. Nakai, 
 T. Vreven, K. Throssell, J. A. Montgomery, Jr., J. E. Peralta, 
 F. Ogliaro, M. J. Bearpark, J. J. Heyd, E. N. Brothers, K. N. Kudin, 
 V. N. Staroverov, T. A. Keith, R. Kobayashi, J. Normand, 
 K. Raghavachari, A. P. Rendell, J. C. Burant, S. S. Iyengar, 
 J. Tomasi, M. Cossi, J. M. Millam, M. Klene, C. Adamo, R. Cammi, 
 J. W. Ochterski, R. L. Martin, K. Morokuma, O. Farkas, 
 J. B. Foresman, and D. J. Fox, Gaussian, Inc., Wallingford CT, 2016.
 
 ******************************************
 Gaussian 16:  EM64L-G16RevA.03 25-Dec-2016
                29-Sep-2019 
 ******************************************
 %nprocshared=20
 Will use up to   20 processors via shared memory.
 %mem=5GB
 ----------------------------------------------------------------------
 #p m062x/cc-pVTZ opt=(calcfc,maxcycles=900,Tight) freq IOP(7/33=1,2/16
 =3) scf=(maxcycle=900)
 ----------------------------------------------------------------------
 1/6=900,7=10,10=4,18=20,19=15,26=3,38=1/1,3;
 2/9=110,12=2,16=3,17=6,18=5,40=1/2;
 3/5=16,6=1,11=2,25=1,30=1,71=2,74=-55,140=1/1,2,3;
 4//1;
 5/5=2,7=900,38=5/2;
 8/6=4,10=90,11=11/1;
 11/6=1,8=1,9=11,15=111,16=1/1,2,10;
 10/6=1,13=1/2;
 6/7=2,8=2,9=2,10=2,28=1/1;
 7/10=1,18=20,25=1,33=1/1,2,3,16;
 1/6=900,7=10,10=4,18=20,19=15,26=3/3(2);
 2/9=110,16=3/2;
 99//99;
 2/9=110,16=3/2;
 3/5=16,6=1,11=2,25=1,30=1,71=1,74=-55/1,2,3;
 4/5=5,16=3,69=1/1;
 5/5=2,7=900,38=5/2;
 7/33=1/1,2,3,16;
 1/6=900,7=10,18=20,19=15,26=3/3(-5);
 2/9=110,16=3/2;
 6/7=2,8=2,9=2,10=2,19=2,28=1/1;
 99/9=1/99;
 Leave Link    1 at Sun Sep 29 08:44:53 2019, MaxMem=   671088640 cpu:               4.2 elap:               2.1
 (Enter /shared/centos7/gaussian/g16/l101.exe)
 ------------------------------
 Gaussian input prepared by ASE
 ------------------------------
 Symbolic Z-matrix:
 Charge =  0 Multiplicity = 1
 O                    -0.19438  -1.54044   1.88445 
 O                     2.31819  -2.57241   2.7979 
 C                    -1.10213  -0.54059   2.29695 
 C                    -1.36281  -0.64311   3.7998 
 C                    -2.34533  -0.55112   1.46967 
 C                     1.03181  -1.01799   1.54182 
 C                     2.17684  -1.50406   1.92484 
 H                    -0.60093   0.45213   2.12475 
 H                    -0.93253  -1.57403   4.22459 
 H                    -0.88949   0.20524   4.32682 
 H                    -2.45929  -0.63732   4.04545 
 H                    -3.2068   -1.09832   1.95458 
 H                    -2.1571   -1.02814   0.48524 
 H                    -2.69582   0.50134   1.27209 
 H                     1.00929  -0.16829   0.84094 
 H                     3.10317  -1.08469   1.5609 
 H                     3.3011   -2.69009   2.94565 
 
 ITRead=  0  0  0  0  0  0  0  0  0  0  0  0  0  0  0  0  0
 MicOpt= -1 -1 -1 -1 -1 -1 -1 -1 -1 -1 -1 -1 -1 -1 -1 -1 -1
 NAtoms=     17 NQM=       17 NQMF=       0 NMMI=      0 NMMIF=      0
                NMic=       0 NMicF=      0.
                    Isotopes and Nuclear Properties:
 (Nuclear quadrupole moments (NQMom) in fm**2, nuclear magnetic moments (NMagM)
  in nuclear magnetons)

  Atom         1           2           3           4           5           6           7           8           9          10
 IAtWgt=          16          16          12          12          12          12          12           1           1           1
 AtmWgt=  15.9949146  15.9949146  12.0000000  12.0000000  12.0000000  12.0000000  12.0000000   1.0078250   1.0078250   1.0078250
 NucSpn=           0           0           0           0           0           0           0           1           1           1
 AtZEff=  -0.0000000  -0.0000000  -0.0000000  -0.0000000  -0.0000000  -0.0000000  -0.0000000  -0.0000000  -0.0000000  -0.0000000
 NQMom=    0.0000000   0.0000000   0.0000000   0.0000000   0.0000000   0.0000000   0.0000000   0.0000000   0.0000000   0.0000000
 NMagM=    0.0000000   0.0000000   0.0000000   0.0000000   0.0000000   0.0000000   0.0000000   2.7928460   2.7928460   2.7928460
 AtZNuc=   8.0000000   8.0000000   6.0000000   6.0000000   6.0000000   6.0000000   6.0000000   1.0000000   1.0000000   1.0000000

  Atom        11          12          13          14          15          16          17
 IAtWgt=           1           1           1           1           1           1           1
 AtmWgt=   1.0078250   1.0078250   1.0078250   1.0078250   1.0078250   1.0078250   1.0078250
 NucSpn=           1           1           1           1           1           1           1
 AtZEff=  -0.0000000  -0.0000000  -0.0000000  -0.0000000  -0.0000000  -0.0000000  -0.0000000
 NQMom=    0.0000000   0.0000000   0.0000000   0.0000000   0.0000000   0.0000000   0.0000000
 NMagM=    2.7928460   2.7928460   2.7928460   2.7928460   2.7928460   2.7928460   2.7928460
 AtZNuc=   1.0000000   1.0000000   1.0000000   1.0000000   1.0000000   1.0000000   1.0000000
 Leave Link  101 at Sun Sep 29 08:44:54 2019, MaxMem=   671088640 cpu:               2.5 elap:               1.3
 (Enter /shared/centos7/gaussian/g16/l103.exe)

 GradGradGradGradGradGradGradGradGradGradGradGradGradGradGradGradGradGrad
 Berny optimization.
 Initialization pass.
                           ----------------------------
                           !    Initial Parameters    !
                           ! (Angstroms and Degrees)  !
 --------------------------                            --------------------------
 ! Name  Definition              Value          Derivative Info.                !
 --------------------------------------------------------------------------------
 ! R1    R(1,3)                  1.412          calculate D2E/DX2 analytically  !
 ! R2    R(1,6)                  1.3762         calculate D2E/DX2 analytically  !
 ! R3    R(2,7)                  1.3869         calculate D2E/DX2 analytically  !
 ! R4    R(2,17)                 1.0009         calculate D2E/DX2 analytically  !
 ! R5    R(3,4)                  1.5287         calculate D2E/DX2 analytically  !
 ! R6    R(3,5)                  1.4933         calculate D2E/DX2 analytically  !
 ! R7    R(3,8)                  1.1253         calculate D2E/DX2 analytically  !
 ! R8    R(4,9)                  1.1101         calculate D2E/DX2 analytically  !
 ! R9    R(4,10)                 1.1052         calculate D2E/DX2 analytically  !
 ! R10   R(4,11)                 1.1237         calculate D2E/DX2 analytically  !
 ! R11   R(5,12)                 1.1299         calculate D2E/DX2 analytically  !
 ! R12   R(5,13)                 1.11           calculate D2E/DX2 analytically  !
 ! R13   R(5,14)                 1.1267         calculate D2E/DX2 analytically  !
 ! R14   R(6,7)                  1.3016         calculate D2E/DX2 analytically  !
 ! R15   R(6,15)                 1.1017         calculate D2E/DX2 analytically  !
 ! R16   R(7,16)                 1.08           calculate D2E/DX2 analytically  !
 ! A1    A(3,1,6)              112.13           calculate D2E/DX2 analytically  !
 ! A2    A(7,2,17)             106.4736         calculate D2E/DX2 analytically  !
 ! A3    A(1,3,4)              110.4461         calculate D2E/DX2 analytically  !
 ! A4    A(1,3,5)              111.6138         calculate D2E/DX2 analytically  !
 ! A5    A(1,3,8)              107.0752         calculate D2E/DX2 analytically  !
 ! A6    A(4,3,5)              113.714          calculate D2E/DX2 analytically  !
 ! A7    A(4,3,8)              106.5915         calculate D2E/DX2 analytically  !
 ! A8    A(5,3,8)              106.9911         calculate D2E/DX2 analytically  !
 ! A9    A(3,4,9)              111.4902         calculate D2E/DX2 analytically  !
 ! A10   A(3,4,10)             110.1374         calculate D2E/DX2 analytically  !
 ! A11   A(3,4,11)             112.3934         calculate D2E/DX2 analytically  !
 ! A12   A(9,4,10)             107.1722         calculate D2E/DX2 analytically  !
 ! A13   A(9,4,11)             107.3916         calculate D2E/DX2 analytically  !
 ! A14   A(10,4,11)            108.0411         calculate D2E/DX2 analytically  !
 ! A15   A(3,5,12)             113.6019         calculate D2E/DX2 analytically  !
 ! A16   A(3,5,13)             110.6815         calculate D2E/DX2 analytically  !
 ! A17   A(3,5,14)             110.4577         calculate D2E/DX2 analytically  !
 ! A18   A(12,5,13)            107.5649         calculate D2E/DX2 analytically  !
 ! A19   A(12,5,14)            106.885          calculate D2E/DX2 analytically  !
 ! A20   A(13,5,14)            107.3765         calculate D2E/DX2 analytically  !
 ! A21   A(1,6,7)              124.6671         calculate D2E/DX2 analytically  !
 ! A22   A(1,6,15)             115.6564         calculate D2E/DX2 analytically  !
 ! A23   A(7,6,15)             119.5532         calculate D2E/DX2 analytically  !
 ! A24   A(2,7,6)              124.2342         calculate D2E/DX2 analytically  !
 ! A25   A(2,7,16)             115.0759         calculate D2E/DX2 analytically  !
 ! A26   A(6,7,16)             120.6888         calculate D2E/DX2 analytically  !
 ! D1    D(6,1,3,4)           -109.557          calculate D2E/DX2 analytically  !
 ! D2    D(6,1,3,5)            122.898          calculate D2E/DX2 analytically  !
 ! D3    D(6,1,3,8)              6.121          calculate D2E/DX2 analytically  !
 ! D4    D(3,1,6,7)            134.0519         calculate D2E/DX2 analytically  !
 ! D5    D(3,1,6,15)           -50.0191         calculate D2E/DX2 analytically  !
 ! D6    D(17,2,7,6)          -177.0288         calculate D2E/DX2 analytically  !
 ! D7    D(17,2,7,16)            3.3482         calculate D2E/DX2 analytically  !
 ! D8    D(1,3,4,9)             -9.78           calculate D2E/DX2 analytically  !
 ! D9    D(1,3,4,10)           109.0579         calculate D2E/DX2 analytically  !
 ! D10   D(1,3,4,11)          -130.421          calculate D2E/DX2 analytically  !
 ! D11   D(5,3,4,9)            116.5994         calculate D2E/DX2 analytically  !
 ! D12   D(5,3,4,10)          -124.5627         calculate D2E/DX2 analytically  !
 ! D13   D(5,3,4,11)            -4.0416         calculate D2E/DX2 analytically  !
 ! D14   D(8,3,4,9)           -125.7603         calculate D2E/DX2 analytically  !
 ! D15   D(8,3,4,10)            -6.9224         calculate D2E/DX2 analytically  !
 ! D16   D(8,3,4,11)           113.5987         calculate D2E/DX2 analytically  !
 ! D17   D(1,3,5,12)            98.4448         calculate D2E/DX2 analytically  !
 ! D18   D(1,3,5,13)           -22.6837         calculate D2E/DX2 analytically  !
 ! D19   D(1,3,5,14)          -141.4693         calculate D2E/DX2 analytically  !
 ! D20   D(4,3,5,12)           -27.3183         calculate D2E/DX2 analytically  !
 ! D21   D(4,3,5,13)          -148.4468         calculate D2E/DX2 analytically  !
 ! D22   D(4,3,5,14)            92.7675         calculate D2E/DX2 analytically  !
 ! D23   D(8,3,5,12)          -144.7271         calculate D2E/DX2 analytically  !
 ! D24   D(8,3,5,13)            94.1443         calculate D2E/DX2 analytically  !
 ! D25   D(8,3,5,14)           -24.6413         calculate D2E/DX2 analytically  !
 ! D26   D(1,6,7,2)             -3.9724         calculate D2E/DX2 analytically  !
 ! D27   D(1,6,7,16)           175.6305         calculate D2E/DX2 analytically  !
 ! D28   D(15,6,7,2)          -179.7537         calculate D2E/DX2 analytically  !
 ! D29   D(15,6,7,16)           -0.1507         calculate D2E/DX2 analytically  !
 --------------------------------------------------------------------------------
 Trust Radius=3.00D-01 FncErr=1.00D-07 GrdErr=1.00D-06 EigMax=2.50D+02 EigMin=1.00D-04
 Number of steps in this run=    102 maximum allowed number of steps=    102.
 GradGradGradGradGradGradGradGradGradGradGradGradGradGradGradGradGradGrad

 Leave Link  103 at Sun Sep 29 08:44:55 2019, MaxMem=   671088640 cpu:               1.5 elap:               0.7
 (Enter /shared/centos7/gaussian/g16/l202.exe)
                          Input orientation:                          
 ---------------------------------------------------------------------
 Center     Atomic      Atomic             Coordinates (Angstroms)
 Number     Number       Type             X           Y           Z
 ---------------------------------------------------------------------
      1          8           0       -0.194379   -1.540439    1.884445
      2          8           0        2.318193   -2.572415    2.797900
      3          6           0       -1.102130   -0.540588    2.296955
      4          6           0       -1.362813   -0.643109    3.799801
      5          6           0       -2.345333   -0.551121    1.469667
      6          6           0        1.031815   -1.017987    1.541825
      7          6           0        2.176839   -1.504063    1.924841
      8          1           0       -0.600935    0.452133    2.124748
      9          1           0       -0.932533   -1.574035    4.224593
     10          1           0       -0.889491    0.205243    4.326822
     11          1           0       -2.459286   -0.637320    4.045451
     12          1           0       -3.206797   -1.098318    1.954582
     13          1           0       -2.157100   -1.028140    0.485241
     14          1           0       -2.695824    0.501343    1.272086
     15          1           0        1.009294   -0.168287    0.840940
     16          1           0        3.103173   -1.084689    1.560901
     17          1           0        3.301100   -2.690086    2.945653
 ---------------------------------------------------------------------
                    Distance matrix (angstroms):
                    1          2          3          4          5
     1  O    0.000000
     2  O    2.865727   0.000000
     3  C    1.412047   4.009723   0.000000
     4  C    2.416407   4.275024   1.528729   0.000000
     5  C    2.403621   5.253409   1.493342   2.530480   0.000000
     6  C    1.376189   2.376707   2.313407   3.312587   3.410029
     7  C    2.371841   1.386935   3.437789   4.097054   4.643848
     8  H    2.047773   4.257033   1.125320   2.141452   2.116264
     9  H    2.454036   3.687741   2.193756   1.110050   3.260671
    10  H    3.081524   4.510235   2.172980   1.105209   3.294677
    11  H    3.258124   5.303327   2.215506   1.123668   2.579744
    12  H    3.045497   5.780109   2.204065   2.648080   1.129905
    13  H    2.464244   5.268911   2.152435   3.430080   1.109989
    14  H    3.286500   6.075892   2.162368   3.078316   1.126748
    15  H    2.102506   3.364928   2.591659   3.821937   3.434440
    16  H    3.344584   2.087987   4.303766   5.015247   5.475330
    17  H    3.829650   1.000891   4.942629   5.164471   6.215779
                    6          7          8          9         10
     6  C    0.000000
     7  C    1.301558   0.000000
     8  H    2.273086   3.403335   0.000000
     9  H    3.371216   3.868068   2.936777   0.000000
    10  H    3.597766   4.253660   2.234581   1.782732   0.000000
    11  H    4.312868   5.171256   2.886084   1.800139   1.803701
    12  H    4.259419   5.398986   3.037000   3.248313   3.563243
    13  H    3.359412   4.591512   2.702007   3.972445   4.229162
    14  H    4.034404   5.309481   2.262303   4.016676   3.561170
    15  H    1.101697   2.079014   2.150795   4.146797   3.987014
    16  H    2.072520   1.080011   4.049711   4.860210   5.025496
    17  H    3.149016   1.926829   5.076740   4.561239   5.277462
                   11         12         13         14         15
    11  H    0.000000
    12  H    2.267824   0.000000
    13  H    3.594322   1.807138   0.000000
    14  H    3.007334   1.812679   1.802406   0.000000
    15  H    4.745516   4.458763   3.300291   3.789748   0.000000
    16  H    6.108525   6.322254   5.369425   6.018910   2.396344
    17  H    6.213328   6.772641   6.213504   6.996366   4.005204
                   16         17
    16  H    0.000000
    17  H    2.129322   0.000000
 Stoichiometry    C5H10O2
 Framework group  C1[X(C5H10O2)]
 Deg. of freedom    45
 Full point group                 C1      NOp   1
 Largest Abelian subgroup         C1      NOp   1
 Largest concise Abelian subgroup C1      NOp   1
                         Standard orientation:                         
 ---------------------------------------------------------------------
 Center     Atomic      Atomic             Coordinates (Angstroms)
 Number     Number       Type             X           Y           Z
 ---------------------------------------------------------------------
      1          8           0        0.092594   -0.317558   -0.481666
      2          8           0       -2.618023    0.612467   -0.479328
      3          6           0        1.279355   -0.017131    0.222052
      4          6           0        1.494412    1.495072    0.285343
      5          6           0        2.448533   -0.767630   -0.325526
      6          6           0       -0.894197   -0.799240    0.347864
      7          6           0       -2.134722   -0.405809    0.328832
      8          1           0        1.132175   -0.365404    1.281953
      9          1           0        0.782673    2.034971   -0.373556
     10          1           0        1.327285    1.860398    1.314951
     11          1           0        2.532232    1.793245   -0.025546
     12          1           0        3.082985   -0.160581   -1.036615
     13          1           0        2.112216   -1.675525   -0.868383
     14          1           0        3.125277   -1.106107    0.509347
     15          1           0       -0.594724   -1.620181    1.018766
     16          1           0       -2.872261   -0.877207    0.961480
     17          1           0       -3.584706    0.725548   -0.245837
 ---------------------------------------------------------------------
 Rotational constants (GHZ):           5.5665791           1.3724018           1.2093401
 Leave Link  202 at Sun Sep 29 08:44:57 2019, MaxMem=   671088640 cpu:               3.6 elap:               1.8
 (Enter /shared/centos7/gaussian/g16/l301.exe)
 Standard basis: CC-pVTZ (5D, 7F)
 Ernie: Thresh=  0.10000D-02 Tol=  0.10000D-05 Strict=F.
 Ernie:  21 primitive shells out of 262 were deleted.
 There are   395 symmetry adapted cartesian basis functions of A   symmetry.
 There are   350 symmetry adapted basis functions of A   symmetry.
   350 basis functions,   534 primitive gaussians,   395 cartesian basis functions
    28 alpha electrons       28 beta electrons
       nuclear repulsion energy       311.2096396067 Hartrees.
 IExCor= 4336 DFT=T Ex+Corr=M062X ExCW=0 ScaHFX=  0.540000
 ScaDFX=  1.000000  1.000000  1.000000  1.000000 ScalE2=  1.000000  1.000000
 IRadAn=      5 IRanWt=     -1 IRanGd=            0 ICorTp=0 IEmpDi=  4
 NAtoms=   17 NActive=   17 NUniq=   17 SFac= 1.00D+00 NAtFMM=   60 NAOKFM=F Big=F
 Integral buffers will be    131072 words long.
 Raffenetti 2 integral format.
 Two-electron integral symmetry is turned on.
 Leave Link  301 at Sun Sep 29 08:44:58 2019, MaxMem=   671088640 cpu:               1.5 elap:               0.8
 (Enter /shared/centos7/gaussian/g16/l302.exe)
 NPDir=0 NMtPBC=     1 NCelOv=     1 NCel=       1 NClECP=     1 NCelD=      1
         NCelK=      1 NCelE2=     1 NClLst=     1 CellRange=     0.0.
 One-electron integrals computed using PRISM.
 One-electron integral symmetry used in STVInt
 NBasis=   350 RedAO= T EigKep=  2.51D-04  NBF=   350
 NBsUse=   350 1.00D-06 EigRej= -1.00D+00 NBFU=   350
 Precomputing XC quadrature grid using
 IXCGrd= 4 IRadAn=           5 IRanWt=          -1 IRanGd=           0 AccXCQ= 0.00D+00.
 Generated NRdTot=       0 NPtTot=           0 NUsed=           0 NTot=          32
 NSgBfM=   395   395   395   395   395 MxSgAt=    17 MxSgA2=    17.
 Leave Link  302 at Sun Sep 29 08:45:55 2019, MaxMem=   671088640 cpu:             114.7 elap:              57.4
 (Enter /shared/centos7/gaussian/g16/l303.exe)
 DipDrv:  MaxL=1.
 Leave Link  303 at Sun Sep 29 08:46:01 2019, MaxMem=   671088640 cpu:              11.0 elap:               5.5
 (Enter /shared/centos7/gaussian/g16/l401.exe)
 ExpMin= 1.03D-01 ExpMax= 1.53D+04 ExpMxC= 5.22D+02 IAcc=3 IRadAn=         5 AccDes= 0.00D+00
 Harris functional with IExCor= 1009 and IRadAn=       5 diagonalized for initial guess.
 HarFok:  IExCor= 1009 AccDes= 0.00D+00 IRadAn=         5 IDoV= 1 UseB2=F ITyADJ=14
 ICtDFT=  3500011 ScaDFX=  1.000000  1.000000  1.000000  1.000000
 FoFCou: FMM=F IPFlag=           0 FMFlag=      100000 FMFlg1=           0
         NFxFlg=           0 DoJE=T BraDBF=F KetDBF=T FulRan=T
         wScrn=  0.000000 ICntrl=       500 IOpCl=  0 I1Cent=   200000004 NGrid=           0
         NMat0=    1 NMatS0=      1 NMatT0=    0 NMatD0=    1 NMtDS0=    0 NMtDT0=    0
 Petite list used in FoFCou.
 Harris En= -346.808359314060    
 JPrj=0 DoOrth=F DoCkMO=F.
 Leave Link  401 at Sun Sep 29 08:46:29 2019, MaxMem=   671088640 cpu:              57.0 elap:              28.5
 (Enter /shared/centos7/gaussian/g16/l502.exe)
 Integral symmetry usage will be decided dynamically.
 Closed shell SCF:
 Using DIIS extrapolation, IDIIS=  1040.
 NGot=   671088640 LenX=   670765141 LenY=   670608675
 Requested convergence on RMS density matrix=1.00D-08 within 900 cycles.
 Requested convergence on MAX density matrix=1.00D-06.
 Requested convergence on             energy=1.00D-06.
 No special actions if energy rises.
 Fock matrices will be formed incrementally for  20 cycles.
 Integral accuracy reduced to 1.0D-05 until final iterations.

 Cycle   1  Pass 0  IDiag  1:
 FoFJK:  IHMeth= 1 ICntrl=       0 DoSepK=F KAlg= 0 I1Cent=           0 FoldK=F
 IRaf= 940000000 NMat=       1 IRICut=       1 DoRegI=T DoRafI=F ISym2E= 0 IDoP0=0 IntGTp=1.
 FoFCou: FMM=F IPFlag=           0 FMFlag=      100000 FMFlg1=           0
         NFxFlg=           0 DoJE=F BraDBF=F KetDBF=F FulRan=T
         wScrn=  0.000000 ICntrl=         0 IOpCl=  0 I1Cent=           0 NGrid=           0
         NMat0=    1 NMatS0=      1 NMatT0=    0 NMatD0=    1 NMtDS0=    0 NMtDT0=    0
 Symmetry not used in FoFCou.
 E= -346.683657855368    
 DIIS: error= 3.13D-02 at cycle   1 NSaved=   1.
 NSaved= 1 IEnMin= 1 EnMin= -346.683657855368     IErMin= 1 ErrMin= 3.13D-02
 ErrMax= 3.13D-02  0.00D+00 EMaxC= 1.00D-01 BMatC= 2.91D-01 BMatP= 2.91D-01
 IDIUse=3 WtCom= 6.87D-01 WtEn= 3.13D-01
 Coeff-Com:  0.100D+01
 Coeff-En:   0.100D+01
 Coeff:      0.100D+01
 Gap=     0.352 Goal=   None    Shift=    0.000
 GapD=    0.352 DampG=1.000 DampE=0.500 DampFc=0.5000 IDamp=-1.
 Damping current iteration by 5.00D-01
 RMSDP=2.30D-03 MaxDP=1.38D-01              OVMax= 1.41D-01

 Cycle   2  Pass 0  IDiag  1:
 RMSU=  1.15D-03    CP:  1.00D+00
 E= -346.805112382459     Delta-E=       -0.121454527091 Rises=F Damp=T
 DIIS: error= 3.90D-03 at cycle   2 NSaved=   2.
 NSaved= 2 IEnMin= 2 EnMin= -346.805112382459     IErMin= 2 ErrMin= 3.90D-03
 ErrMax= 3.90D-03  0.00D+00 EMaxC= 1.00D-01 BMatC= 2.10D-02 BMatP= 2.91D-01
 IDIUse=3 WtCom= 9.61D-01 WtEn= 3.90D-02
 Coeff-Com: -0.117D+00 0.112D+01
 Coeff-En:   0.000D+00 0.100D+01
 Coeff:     -0.113D+00 0.111D+01
 Gap=     0.327 Goal=   None    Shift=    0.000
 RMSDP=4.72D-04 MaxDP=1.73D-02 DE=-1.21D-01 OVMax= 7.47D-02

 Cycle   3  Pass 0  IDiag  1:
 RMSU=  4.54D-04    CP:  1.00D+00  8.95D-01
 E= -346.915867017118     Delta-E=       -0.110754634660 Rises=F Damp=F
 DIIS: error= 2.77D-03 at cycle   3 NSaved=   3.
 NSaved= 3 IEnMin= 3 EnMin= -346.915867017118     IErMin= 3 ErrMin= 2.77D-03
 ErrMax= 2.77D-03  0.00D+00 EMaxC= 1.00D-01 BMatC= 4.28D-03 BMatP= 2.10D-02
 IDIUse=3 WtCom= 9.72D-01 WtEn= 2.77D-02
 Coeff-Com: -0.824D-01 0.327D+00 0.756D+00
 Coeff-En:   0.000D+00 0.000D+00 0.100D+01
 Coeff:     -0.801D-01 0.318D+00 0.763D+00
 Gap=     0.324 Goal=   None    Shift=    0.000
 RMSDP=2.04D-04 MaxDP=1.33D-02 DE=-1.11D-01 OVMax= 1.31D-02

 Cycle   4  Pass 0  IDiag  1:
 RMSU=  1.37D-04    CP:  1.00D+00  1.02D+00  8.73D-01
 E= -346.918078733257     Delta-E=       -0.002211716139 Rises=F Damp=F
 DIIS: error= 1.35D-03 at cycle   4 NSaved=   4.
 NSaved= 4 IEnMin= 4 EnMin= -346.918078733257     IErMin= 4 ErrMin= 1.35D-03
 ErrMax= 1.35D-03  0.00D+00 EMaxC= 1.00D-01 BMatC= 1.28D-03 BMatP= 4.28D-03
 IDIUse=3 WtCom= 9.86D-01 WtEn= 1.35D-02
 Coeff-Com: -0.286D-01 0.751D-01 0.394D+00 0.560D+00
 Coeff-En:   0.000D+00 0.000D+00 0.197D+00 0.803D+00
 Coeff:     -0.282D-01 0.740D-01 0.391D+00 0.563D+00
 Gap=     0.321 Goal=   None    Shift=    0.000
 RMSDP=7.48D-05 MaxDP=4.82D-03 DE=-2.21D-03 OVMax= 5.02D-03

 Cycle   5  Pass 0  IDiag  1:
 RMSU=  2.70D-05    CP:  1.00D+00  9.86D-01  9.31D-01  6.04D-01
 E= -346.919003151098     Delta-E=       -0.000924417840 Rises=F Damp=F
 DIIS: error= 2.54D-04 at cycle   5 NSaved=   5.
 NSaved= 5 IEnMin= 5 EnMin= -346.919003151098     IErMin= 5 ErrMin= 2.54D-04
 ErrMax= 2.54D-04  0.00D+00 EMaxC= 1.00D-01 BMatC= 2.23D-05 BMatP= 1.28D-03
 IDIUse=3 WtCom= 9.97D-01 WtEn= 2.54D-03
 Coeff-Com: -0.442D-02 0.793D-02 0.898D-01 0.187D+00 0.720D+00
 Coeff-En:   0.000D+00 0.000D+00 0.000D+00 0.000D+00 0.100D+01
 Coeff:     -0.440D-02 0.791D-02 0.896D-01 0.186D+00 0.721D+00
 Gap=     0.321 Goal=   None    Shift=    0.000
 RMSDP=9.38D-06 MaxDP=2.90D-04 DE=-9.24D-04 OVMax= 7.30D-04

 Initial convergence to 1.0D-05 achieved.  Increase integral accuracy.
 Cycle   6  Pass 1  IDiag  1:
 E= -346.919027815090     Delta-E=       -0.000024663992 Rises=F Damp=F
 DIIS: error= 4.80D-05 at cycle   1 NSaved=   1.
 NSaved= 1 IEnMin= 1 EnMin= -346.919027815090     IErMin= 1 ErrMin= 4.80D-05
 ErrMax= 4.80D-05  0.00D+00 EMaxC= 1.00D-01 BMatC= 1.93D-06 BMatP= 1.93D-06
 IDIUse=1 WtCom= 1.00D+00 WtEn= 0.00D+00
 Coeff-Com:  0.100D+01
 Coeff:      0.100D+01
 Gap=     0.321 Goal=   None    Shift=    0.000
 RMSDP=9.38D-06 MaxDP=2.90D-04 DE=-2.47D-05 OVMax= 4.24D-04

 Cycle   7  Pass 1  IDiag  1:
 RMSU=  8.37D-06    CP:  1.00D+00
 E= -346.919028172864     Delta-E=       -0.000000357775 Rises=F Damp=F
 DIIS: error= 6.47D-05 at cycle   2 NSaved=   2.
 NSaved= 2 IEnMin= 2 EnMin= -346.919028172864     IErMin= 1 ErrMin= 4.80D-05
 ErrMax= 6.47D-05  0.00D+00 EMaxC= 1.00D-01 BMatC= 1.70D-06 BMatP= 1.93D-06
 IDIUse=1 WtCom= 1.00D+00 WtEn= 0.00D+00
 Coeff-Com:  0.482D+00 0.518D+00
 Coeff:      0.482D+00 0.518D+00
 Gap=     0.321 Goal=   None    Shift=    0.000
 RMSDP=2.11D-06 MaxDP=1.12D-04 DE=-3.58D-07 OVMax= 1.87D-04

 Cycle   8  Pass 1  IDiag  1:
 RMSU=  2.05D-06    CP:  1.00D+00  9.43D-01
 E= -346.919029520204     Delta-E=       -0.000001347340 Rises=F Damp=F
 DIIS: error= 4.19D-06 at cycle   3 NSaved=   3.
 NSaved= 3 IEnMin= 3 EnMin= -346.919029520204     IErMin= 3 ErrMin= 4.19D-06
 ErrMax= 4.19D-06  0.00D+00 EMaxC= 1.00D-01 BMatC= 2.32D-08 BMatP= 1.70D-06
 IDIUse=1 WtCom= 1.00D+00 WtEn= 0.00D+00
 Coeff-Com: -0.105D-01 0.777D-01 0.933D+00
 Coeff:     -0.105D-01 0.777D-01 0.933D+00
 Gap=     0.321 Goal=   None    Shift=    0.000
 RMSDP=5.24D-07 MaxDP=1.39D-05 DE=-1.35D-06 OVMax= 4.98D-05

 Cycle   9  Pass 1  IDiag  1:
 RMSU=  4.52D-07    CP:  1.00D+00  9.74D-01  1.02D+00
 E= -346.919029539910     Delta-E=       -0.000000019706 Rises=F Damp=F
 DIIS: error= 3.13D-06 at cycle   4 NSaved=   4.
 NSaved= 4 IEnMin= 4 EnMin= -346.919029539910     IErMin= 4 ErrMin= 3.13D-06
 ErrMax= 3.13D-06  0.00D+00 EMaxC= 1.00D-01 BMatC= 6.41D-09 BMatP= 2.32D-08
 IDIUse=1 WtCom= 1.00D+00 WtEn= 0.00D+00
 Coeff-Com: -0.311D-01 0.800D-02 0.443D+00 0.580D+00
 Coeff:     -0.311D-01 0.800D-02 0.443D+00 0.580D+00
 Gap=     0.321 Goal=   None    Shift=    0.000
 RMSDP=1.61D-07 MaxDP=5.38D-06 DE=-1.97D-08 OVMax= 1.51D-05

 Cycle  10  Pass 1  IDiag  1:
 RMSU=  1.47D-07    CP:  1.00D+00  9.79D-01  1.03D+00  9.13D-01
 E= -346.919029544855     Delta-E=       -0.000000004945 Rises=F Damp=F
 DIIS: error= 6.75D-07 at cycle   5 NSaved=   5.
 NSaved= 5 IEnMin= 5 EnMin= -346.919029544855     IErMin= 5 ErrMin= 6.75D-07
 ErrMax= 6.75D-07  0.00D+00 EMaxC= 1.00D-01 BMatC= 2.85D-10 BMatP= 6.41D-09
 IDIUse=1 WtCom= 1.00D+00 WtEn= 0.00D+00
 Coeff-Com: -0.706D-02-0.683D-02 0.121D-01 0.150D+00 0.852D+00
 Coeff:     -0.706D-02-0.683D-02 0.121D-01 0.150D+00 0.852D+00
 Gap=     0.321 Goal=   None    Shift=    0.000
 RMSDP=7.31D-08 MaxDP=1.88D-06 DE=-4.94D-09 OVMax= 6.38D-06

 Cycle  11  Pass 1  IDiag  1:
 RMSU=  4.46D-08    CP:  1.00D+00  9.80D-01  1.04D+00  1.04D+00  1.05D+00
 E= -346.919029545152     Delta-E=       -0.000000000297 Rises=F Damp=F
 DIIS: error= 3.27D-07 at cycle   6 NSaved=   6.
 NSaved= 6 IEnMin= 6 EnMin= -346.919029545152     IErMin= 6 ErrMin= 3.27D-07
 ErrMax= 3.27D-07  0.00D+00 EMaxC= 1.00D-01 BMatC= 6.44D-11 BMatP= 2.85D-10
 IDIUse=1 WtCom= 1.00D+00 WtEn= 0.00D+00
 Coeff-Com:  0.718D-03-0.411D-02-0.488D-01-0.856D-02 0.366D+00 0.694D+00
 Coeff:      0.718D-03-0.411D-02-0.488D-01-0.856D-02 0.366D+00 0.694D+00
 Gap=     0.321 Goal=   None    Shift=    0.000
 RMSDP=2.36D-08 MaxDP=1.14D-06 DE=-2.97D-10 OVMax= 3.71D-06

 Cycle  12  Pass 1  IDiag  1:
 RMSU=  1.76D-08    CP:  1.00D+00  9.80D-01  1.04D+00  1.05D+00  1.12D+00
                    CP:  8.21D-01
 E= -346.919029545229     Delta-E=       -0.000000000077 Rises=F Damp=F
 DIIS: error= 1.16D-07 at cycle   7 NSaved=   7.
 NSaved= 7 IEnMin= 7 EnMin= -346.919029545229     IErMin= 7 ErrMin= 1.16D-07
 ErrMax= 1.16D-07  0.00D+00 EMaxC= 1.00D-01 BMatC= 5.19D-12 BMatP= 6.44D-11
 IDIUse=1 WtCom= 1.00D+00 WtEn= 0.00D+00
 Coeff-Com:  0.820D-03-0.140D-02-0.226D-01-0.145D-01 0.103D+00 0.310D+00
 Coeff-Com:  0.626D+00
 Coeff:      0.820D-03-0.140D-02-0.226D-01-0.145D-01 0.103D+00 0.310D+00
 Coeff:      0.626D+00
 Gap=     0.321 Goal=   None    Shift=    0.000
 RMSDP=5.33D-09 MaxDP=2.41D-07 DE=-7.71D-11 OVMax= 7.94D-07

 SCF Done:  E(RM062X) =  -346.919029545     A.U. after   12 cycles
            NFock= 12  Conv=0.53D-08     -V/T= 2.0063
 KE= 3.447526038131D+02 PE=-1.432698700759D+03 EE= 4.298174277944D+02
 Leave Link  502 at Sun Sep 29 08:56:29 2019, MaxMem=   671088640 cpu:            1198.6 elap:             599.4
 (Enter /shared/centos7/gaussian/g16/l801.exe)
 DoSCS=F DFT=T ScalE2(SS,OS)=  1.000000  1.000000
 Range of M.O.s used for correlation:     1   350
 NBasis=   350 NAE=    28 NBE=    28 NFC=     0 NFV=     0
 NROrb=    350 NOA=    28 NOB=    28 NVA=   322 NVB=   322

 **** Warning!!: The largest alpha MO coefficient is  0.11308879D+02

 Leave Link  801 at Sun Sep 29 08:56:29 2019, MaxMem=   671088640 cpu:               1.9 elap:               1.0
 (Enter /shared/centos7/gaussian/g16/l1101.exe)
 Using compressed storage, NAtomX=    17.
 Will process     18 centers per pass.
 Leave Link 1101 at Sun Sep 29 08:57:04 2019, MaxMem=   671088640 cpu:              67.4 elap:              34.1
 (Enter /shared/centos7/gaussian/g16/l1102.exe)
 Symmetrizing basis deriv contribution to polar:
 IMax=3 JMax=2 DiffMx= 0.00D+00
 Leave Link 1102 at Sun Sep 29 08:57:08 2019, MaxMem=   671088640 cpu:               8.0 elap:               4.0
 (Enter /shared/centos7/gaussian/g16/l1110.exe)
 Forming Gx(P) for the SCF density, NAtomX=    17.
 Integral derivatives from FoFJK, PRISM(SPDF).
 Do as many integral derivatives as possible in FoFJK.
 G2DrvN: MDV=     671087280.
 G2DrvN: will do    18 centers at a time, making    1 passes.
 Calling FoFCou, ICntrl=  3107 FMM=F I1Cent=   0 AccDes= 0.00D+00.
 FoFJK:  IHMeth= 1 ICntrl=    3107 DoSepK=F KAlg= 0 I1Cent=           0 FoldK=F
 IRaf=         0 NMat=       1 IRICut=       1 DoRegI=T DoRafI=F ISym2E= 0 IDoP0=0 IntGTp=1.
 FoFCou: FMM=F IPFlag=           0 FMFlag=      100000 FMFlg1=           0
         NFxFlg=           0 DoJE=F BraDBF=F KetDBF=F FulRan=T
         wScrn=  0.000000 ICntrl=      3107 IOpCl=  0 I1Cent=           0 NGrid=           0
         NMat0=    1 NMatS0=      1 NMatT0=    0 NMatD0=    1 NMtDS0=    0 NMtDT0=    0
 Symmetry not used in FoFCou.
 End of G2Drv F.D. properties file   721 does not exist.
 End of G2Drv F.D. properties file   722 does not exist.
 End of G2Drv F.D. properties file   788 does not exist.
 Leave Link 1110 at Sun Sep 29 09:16:45 2019, MaxMem=   671088640 cpu:            2355.2 elap:            1177.7
 (Enter /shared/centos7/gaussian/g16/l1002.exe)
 Minotr:  Closed shell wavefunction.
          IDoAtm=11111111111111111
          Direct CPHF calculation.
          Differentiating once with respect to nuclear coordinates.
          Requested convergence is 1.0D-08 RMS, and 1.0D-07 maximum.
          Secondary convergence is 1.0D-12 RMS, and 1.0D-12 maximum.
          NewPWx=T KeepS1=F KeepF1=F KeepIn=T MapXYZ=F SortEE=F KeepMc=T.
         5123 words used for storage of precomputed grid.
 Two-electron integrals replicated using symmetry.
          MDV=     671088640 using IRadAn=       1.
          Solving linear equations simultaneously, MaxMat=     380.
 FoF2E skips out because all densities are zero.
 CalDSu exits because no D1Ps are significant.
 FoFJK:  IHMeth= 1 ICntrl=       0 DoSepK=F KAlg= 0 I1Cent=           0 FoldK=F
 IRaf= 920000000 NMat=      51 IRICut=     127 DoRegI=T DoRafI=T ISym2E= 2 IDoP0=3 IntGTp=3.
 FoFCou: FMM=F IPFlag=           0 FMFlag=      100000 FMFlg1=           0
         NFxFlg=           0 DoJE=F BraDBF=F KetDBF=F FulRan=T
         wScrn=  0.000000 ICntrl=         0 IOpCl=  0 I1Cent=           0 NGrid=           0
         NMat0=   51 NMatS0=     51 NMatT0=    0 NMatD0=   51 NMtDS0=    0 NMtDT0=    0
 Integrals replicated using symmetry in FoFCou.
 Raff kept on since  88.61% of shell-pairs survive, threshold=   0.20 IRatSp=89.
          There are    54 degrees of freedom in the 1st order CPHF.  IDoFFX=6 NUNeed=     0.
     48 vectors produced by pass  0 Test12= 1.67D-14 1.85D-09 XBig12= 6.93D-02 5.66D-02.
 AX will form    48 AO Fock derivatives at one time.
     48 vectors produced by pass  1 Test12= 1.67D-14 1.85D-09 XBig12= 7.47D-03 2.08D-02.
     48 vectors produced by pass  2 Test12= 1.67D-14 1.85D-09 XBig12= 1.94D-04 2.20D-03.
     48 vectors produced by pass  3 Test12= 1.67D-14 1.85D-09 XBig12= 2.11D-06 1.81D-04.
     48 vectors produced by pass  4 Test12= 1.67D-14 1.85D-09 XBig12= 1.67D-08 1.81D-05.
     48 vectors produced by pass  5 Test12= 1.67D-14 1.85D-09 XBig12= 8.01D-11 9.75D-07.
     25 vectors produced by pass  6 Test12= 1.67D-14 1.85D-09 XBig12= 2.91D-13 7.83D-08.
      4 vectors produced by pass  7 Test12= 1.67D-14 1.85D-09 XBig12= 1.18D-15 4.36D-09.
 InvSVY:  IOpt=1 It=  1 EMax= 5.55D-16
 Solved reduced A of dimension   317 with    54 vectors.
 End of Minotr F.D. properties file   721 does not exist.
 End of Minotr F.D. properties file   722 does not exist.
 End of Minotr F.D. properties file   788 does not exist.
 Leave Link 1002 at Sun Sep 29 09:47:56 2019, MaxMem=   671088640 cpu:            3740.2 elap:            1870.3
 (Enter /shared/centos7/gaussian/g16/l601.exe)
 Copying SCF densities to generalized density rwf, IOpCl= 0 IROHF=0.

 **********************************************************************

            Population analysis using the SCF density.

 **********************************************************************

 Orbital symmetries:
       Occupied  (A) (A) (A) (A) (A) (A) (A) (A) (A) (A) (A) (A)
                 (A) (A) (A) (A) (A) (A) (A) (A) (A) (A) (A) (A)
                 (A) (A) (A) (A)
       Virtual   (A) (A) (A) (A) (A) (A) (A) (A) (A) (A) (A) (A)
                 (A) (A) (A) (A) (A) (A) (A) (A) (A) (A) (A) (A)
                 (A) (A) (A) (A) (A) (A) (A) (A) (A) (A) (A) (A)
                 (A) (A) (A) (A) (A) (A) (A) (A) (A) (A) (A) (A)
                 (A) (A) (A) (A) (A) (A) (A) (A) (A) (A) (A) (A)
                 (A) (A) (A) (A) (A) (A) (A) (A) (A) (A) (A) (A)
                 (A) (A) (A) (A) (A) (A) (A) (A) (A) (A) (A) (A)
                 (A) (A) (A) (A) (A) (A) (A) (A) (A) (A) (A) (A)
                 (A) (A) (A) (A) (A) (A) (A) (A) (A) (A) (A) (A)
                 (A) (A) (A) (A) (A) (A) (A) (A) (A) (A) (A) (A)
                 (A) (A) (A) (A) (A) (A) (A) (A) (A) (A) (A) (A)
                 (A) (A) (A) (A) (A) (A) (A) (A) (A) (A) (A) (A)
                 (A) (A) (A) (A) (A) (A) (A) (A) (A) (A) (A) (A)
                 (A) (A) (A) (A) (A) (A) (A) (A) (A) (A) (A) (A)
                 (A) (A) (A) (A) (A) (A) (A) (A) (A) (A) (A) (A)
                 (A) (A) (A) (A) (A) (A) (A) (A) (A) (A) (A) (A)
                 (A) (A) (A) (A) (A) (A) (A) (A) (A) (A) (A) (A)
                 (A) (A) (A) (A) (A) (A) (A) (A) (A) (A) (A) (A)
                 (A) (A) (A) (A) (A) (A) (A) (A) (A) (A) (A) (A)
                 (A) (A) (A) (A) (A) (A) (A) (A) (A) (A) (A) (A)
                 (A) (A) (A) (A) (A) (A) (A) (A) (A) (A) (A) (A)
                 (A) (A) (A) (A) (A) (A) (A) (A) (A) (A) (A) (A)
                 (A) (A) (A) (A) (A) (A) (A) (A) (A) (A) (A) (A)
                 (A) (A) (A) (A) (A) (A) (A) (A) (A) (A) (A) (A)
                 (A) (A) (A) (A) (A) (A) (A) (A) (A) (A) (A) (A)
                 (A) (A) (A) (A) (A) (A) (A) (A) (A) (A) (A) (A)
                 (A) (A) (A) (A) (A) (A) (A) (A) (A) (A)
 The electronic state is 1-A.
 Alpha  occ. eigenvalues --  -19.64695 -19.63269 -10.59059 -10.58196 -10.57456
 Alpha  occ. eigenvalues --  -10.52973 -10.52536  -1.17744  -1.15567  -0.89032
 Alpha  occ. eigenvalues --   -0.83514  -0.77514  -0.67988  -0.65692  -0.61473
 Alpha  occ. eigenvalues --   -0.56666  -0.53837  -0.52142  -0.49584  -0.46596
 Alpha  occ. eigenvalues --   -0.45217  -0.44853  -0.43820  -0.42705  -0.40524
 Alpha  occ. eigenvalues --   -0.37490  -0.35968  -0.27318
 Alpha virt. eigenvalues --    0.04777   0.07242   0.08452   0.09812   0.11308
 Alpha virt. eigenvalues --    0.11953   0.12837   0.13767   0.15894   0.16462
 Alpha virt. eigenvalues --    0.17839   0.18530   0.22027   0.23949   0.25799
 Alpha virt. eigenvalues --    0.27174   0.29849   0.31509   0.32323   0.33566
 Alpha virt. eigenvalues --    0.35050   0.36377   0.37145   0.38969   0.40830
 Alpha virt. eigenvalues --    0.41029   0.42919   0.43521   0.44776   0.47396
 Alpha virt. eigenvalues --    0.48037   0.48829   0.49408   0.49853   0.50065
 Alpha virt. eigenvalues --    0.50901   0.52179   0.53095   0.54627   0.55042
 Alpha virt. eigenvalues --    0.55702   0.57303   0.58771   0.59515   0.60436
 Alpha virt. eigenvalues --    0.63044   0.66381   0.66933   0.69466   0.70636
 Alpha virt. eigenvalues --    0.72393   0.75569   0.79090   0.80223   0.82510
 Alpha virt. eigenvalues --    0.85364   0.85873   0.87588   0.88863   0.90102
 Alpha virt. eigenvalues --    0.93006   0.93145   0.96304   0.99616   1.00727
 Alpha virt. eigenvalues --    1.01676   1.01994   1.03554   1.05070   1.05975
 Alpha virt. eigenvalues --    1.07069   1.08380   1.09442   1.10350   1.13246
 Alpha virt. eigenvalues --    1.14111   1.15051   1.16518   1.18308   1.19122
 Alpha virt. eigenvalues --    1.21633   1.23991   1.25709   1.26444   1.27510
 Alpha virt. eigenvalues --    1.28399   1.30104   1.32511   1.33144   1.35185
 Alpha virt. eigenvalues --    1.35748   1.36638   1.37231   1.38252   1.41100
 Alpha virt. eigenvalues --    1.42129   1.42381   1.46582   1.49819   1.51785
 Alpha virt. eigenvalues --    1.52567   1.53538   1.55555   1.56338   1.58552
 Alpha virt. eigenvalues --    1.60479   1.61310   1.68197   1.72827   1.86400
 Alpha virt. eigenvalues --    1.87506   1.94704   2.00296   2.02941   2.06292
 Alpha virt. eigenvalues --    2.07690   2.09482   2.13185   2.15430   2.17686
 Alpha virt. eigenvalues --    2.20240   2.23483   2.25574   2.28768   2.33380
 Alpha virt. eigenvalues --    2.35426   2.35693   2.39136   2.40141   2.42760
 Alpha virt. eigenvalues --    2.44281   2.49175   2.50835   2.54722   2.55476
 Alpha virt. eigenvalues --    2.59266   2.61296   2.63800   2.66112   2.68042
 Alpha virt. eigenvalues --    2.72166   2.73778   2.76275   2.77242   2.79089
 Alpha virt. eigenvalues --    2.81303   2.82778   2.84429   2.84927   2.86468
 Alpha virt. eigenvalues --    2.88170   2.88829   2.93326   2.94738   2.95820
 Alpha virt. eigenvalues --    2.96413   2.96985   2.98627   3.00478   3.00869
 Alpha virt. eigenvalues --    3.01881   3.02836   3.03377   3.05575   3.07148
 Alpha virt. eigenvalues --    3.08062   3.09300   3.10182   3.13253   3.13696
 Alpha virt. eigenvalues --    3.14296   3.16853   3.18341   3.20342   3.22228
 Alpha virt. eigenvalues --    3.23574   3.25357   3.26385   3.27441   3.29715
 Alpha virt. eigenvalues --    3.31488   3.31925   3.32556   3.33604   3.35383
 Alpha virt. eigenvalues --    3.36762   3.38967   3.39953   3.41927   3.43338
 Alpha virt. eigenvalues --    3.44715   3.46452   3.46680   3.48410   3.51552
 Alpha virt. eigenvalues --    3.53048   3.55021   3.56766   3.58726   3.60370
 Alpha virt. eigenvalues --    3.61719   3.64379   3.66980   3.68866   3.70460
 Alpha virt. eigenvalues --    3.72449   3.72609   3.75409   3.76008   3.78498
 Alpha virt. eigenvalues --    3.78858   3.80179   3.82042   3.82902   3.85021
 Alpha virt. eigenvalues --    3.86527   3.88075   3.89806   3.90607   3.91732
 Alpha virt. eigenvalues --    3.94426   3.94613   3.98640   4.00367   4.00903
 Alpha virt. eigenvalues --    4.02165   4.03462   4.04878   4.06225   4.07424
 Alpha virt. eigenvalues --    4.09143   4.10337   4.10434   4.14571   4.15479
 Alpha virt. eigenvalues --    4.18663   4.20003   4.23824   4.24603   4.26728
 Alpha virt. eigenvalues --    4.28582   4.31305   4.34091   4.37507   4.39943
 Alpha virt. eigenvalues --    4.42057   4.44292   4.46119   4.49705   4.52297
 Alpha virt. eigenvalues --    4.54742   4.58518   4.63501   4.65073   4.67254
 Alpha virt. eigenvalues --    4.68427   4.71852   4.74845   4.77580   4.77778
 Alpha virt. eigenvalues --    4.85767   4.85970   4.90142   4.92334   4.93050
 Alpha virt. eigenvalues --    4.94464   4.95883   5.00320   5.02380   5.07087
 Alpha virt. eigenvalues --    5.08110   5.08956   5.10443   5.11710   5.14103
 Alpha virt. eigenvalues --    5.20593   5.21656   5.21931   5.25767   5.27538
 Alpha virt. eigenvalues --    5.29798   5.29932   5.37622   5.40848   5.43614
 Alpha virt. eigenvalues --    5.52115   5.58105   5.61702   5.66038   5.73950
 Alpha virt. eigenvalues --    5.76267   5.78585   5.78973   5.81399   5.83043
 Alpha virt. eigenvalues --    5.94410   6.00055   6.05556   6.15429   6.22111
 Alpha virt. eigenvalues --    6.32762   6.50048   6.55932   6.57705   6.68516
 Alpha virt. eigenvalues --    6.72446   6.75237   6.78452   6.82722   7.01986
 Alpha virt. eigenvalues --    7.09157   7.18706   7.26989   7.33714   7.39965
 Alpha virt. eigenvalues --    9.98556  10.71979  11.55476  11.84965  12.94585
 Alpha virt. eigenvalues --   13.35278  14.39871
          Condensed to atoms (all electrons):
               1          2          3          4          5          6
     1  O    7.888139   0.004193   0.273680  -0.044670  -0.045554   0.320505
     2  O    0.004193   7.764905   0.002022  -0.000520   0.000013  -0.086861
     3  C    0.273680   0.002022   4.920342   0.312767   0.330749  -0.090757
     4  C   -0.044670  -0.000520   0.312767   4.993956  -0.053658   0.006231
     5  C   -0.045554   0.000013   0.330749  -0.053658   4.991309  -0.003189
     6  C    0.320505  -0.086861  -0.090757   0.006231  -0.003189   5.062586
     7  C   -0.056608   0.366936   0.001987   0.001072  -0.000401   0.489950
     8  H   -0.054434  -0.000097   0.414047  -0.053976  -0.065520  -0.007685
     9  H    0.003991   0.001923  -0.037013   0.382855   0.003081  -0.003004
    10  H    0.002528  -0.000079  -0.039097   0.399516   0.007062   0.000977
    11  H    0.003872   0.000018  -0.046727   0.403322  -0.008064  -0.000870
    12  H    0.001430  -0.000000  -0.043600  -0.011914   0.403418  -0.000490
    13  H    0.004914   0.000002  -0.042396   0.008294   0.386898   0.001859
    14  H    0.004298   0.000000  -0.041607   0.003280   0.395765   0.000645
    15  H   -0.047949   0.003002   0.002534  -0.000828   0.000698   0.430553
    16  H    0.004896  -0.052493   0.000285  -0.000003   0.000066  -0.099654
    17  H   -0.000225   0.327333  -0.000065   0.000023  -0.000001   0.016457
               7          8          9         10         11         12
     1  O   -0.056608  -0.054434   0.003991   0.002528   0.003872   0.001430
     2  O    0.366936  -0.000097   0.001923  -0.000079   0.000018  -0.000000
     3  C    0.001987   0.414047  -0.037013  -0.039097  -0.046727  -0.043600
     4  C    0.001072  -0.053976   0.382855   0.399516   0.403322  -0.011914
     5  C   -0.000401  -0.065520   0.003081   0.007062  -0.008064   0.403418
     6  C    0.489950  -0.007685  -0.003004   0.000977  -0.000870  -0.000490
     7  C    4.905322  -0.003096  -0.000286  -0.000189  -0.000152   0.000031
     8  H   -0.003096   0.675363   0.008125  -0.013936   0.004595   0.008027
     9  H   -0.000286   0.008125   0.560900  -0.029897  -0.026703   0.001437
    10  H   -0.000189  -0.013936  -0.029897   0.599368  -0.036025   0.000251
    11  H   -0.000152   0.004595  -0.026703  -0.036025   0.603168   0.000221
    12  H    0.000031   0.008027   0.001437   0.000251   0.000221   0.599971
    13  H    0.000125   0.002875  -0.000425  -0.000503   0.000382  -0.027421
    14  H    0.000080  -0.010442  -0.000199  -0.000296  -0.000977  -0.036525
    15  H   -0.099845   0.007889   0.000450   0.000098   0.000089  -0.000101
    16  H    0.444958  -0.000344   0.000134  -0.000022   0.000001  -0.000001
    17  H   -0.043156   0.000010  -0.000079   0.000004  -0.000000   0.000000
              13         14         15         16         17
     1  O    0.004914   0.004298  -0.047949   0.004896  -0.000225
     2  O    0.000002   0.000000   0.003002  -0.052493   0.327333
     3  C   -0.042396  -0.041607   0.002534   0.000285  -0.000065
     4  C    0.008294   0.003280  -0.000828  -0.000003   0.000023
     5  C    0.386898   0.395765   0.000698   0.000066  -0.000001
     6  C    0.001859   0.000645   0.430553  -0.099654   0.016457
     7  C    0.000125   0.000080  -0.099845   0.444958  -0.043156
     8  H    0.002875  -0.010442   0.007889  -0.000344   0.000010
     9  H   -0.000425  -0.000199   0.000450   0.000134  -0.000079
    10  H   -0.000503  -0.000296   0.000098  -0.000022   0.000004
    11  H    0.000382  -0.000977   0.000089   0.000001  -0.000000
    12  H   -0.027421  -0.036525  -0.000101  -0.000001   0.000000
    13  H    0.568624  -0.026086  -0.000343  -0.000006   0.000000
    14  H   -0.026086   0.606281  -0.000107  -0.000006   0.000000
    15  H   -0.000343  -0.000107   0.598570  -0.003911  -0.000426
    16  H   -0.000006  -0.000006  -0.003911   0.621457  -0.014792
    17  H    0.000000   0.000000  -0.000426  -0.014792   0.452885
 Mulliken charges:
               1
     1  O   -0.263007
     2  O   -0.330298
     3  C    0.082849
     4  C   -0.345747
     5  C   -0.342673
     6  C   -0.037254
     7  C   -0.006729
     8  H    0.088598
     9  H    0.134709
    10  H    0.110240
    11  H    0.103850
    12  H    0.105267
    13  H    0.123208
    14  H    0.105894
    15  H    0.109626
    16  H    0.099434
    17  H    0.262032
 Sum of Mulliken charges =  -0.00000
 Mulliken charges with hydrogens summed into heavy atoms:
               1
     1  O   -0.263007
     2  O   -0.068266
     3  C    0.171447
     4  C    0.003053
     5  C   -0.008304
     6  C    0.072372
     7  C    0.092705
 APT charges:
               1
     1  O   -0.198259
     2  O   -0.922161
     3  C   -0.006693
     4  C   -1.133739
     5  C   -1.284124
     6  C   -0.433112
     7  C   -0.281685
     8  H    0.269447
     9  H    0.247440
    10  H    0.339833
    11  H    0.482030
    12  H    0.436027
    13  H    0.294196
    14  H    0.449265
    15  H    0.336499
    16  H    0.492034
    17  H    0.913002
 Sum of APT charges =  -0.00000
 APT charges with hydrogens summed into heavy atoms:
               1
     1  O   -0.198259
     2  O   -0.009160
     3  C    0.262754
     4  C   -0.064436
     5  C   -0.104636
     6  C   -0.096613
     7  C    0.210350
 Electronic spatial extent (au):  <R**2>=           1018.9015
 Charge=             -0.0000 electrons
 Dipole moment (field-independent basis, Debye):
    X=             -0.8894    Y=             -0.4497    Z=              2.0575  Tot=              2.2862
 Quadrupole moment (field-independent basis, Debye-Ang):
   XX=            -31.6660   YY=            -43.9818   ZZ=            -45.4622
   XY=             -0.1161   XZ=             -2.4836   YZ=             -1.2459
 Traceless Quadrupole moment (field-independent basis, Debye-Ang):
   XX=              8.7040   YY=             -3.6118   ZZ=             -5.0922
   XY=             -0.1161   XZ=             -2.4836   YZ=             -1.2459
 Octapole moment (field-independent basis, Debye-Ang**2):
  XXX=            -63.5599  YYY=              0.8880  ZZZ=             -2.2452  XYY=             -4.0852
  XXY=              5.7001  XXZ=              4.3087  XZZ=             -1.5081  YZZ=             -0.5487
  YYZ=              0.0772  XYZ=              0.4185
 Hexadecapole moment (field-independent basis, Debye-Ang**3):
 XXXX=           -752.1033 YYYY=           -266.5853 ZZZZ=           -112.0657 XXXY=            -35.4339
 XXXZ=             -9.9166 YYYX=            -12.4713 YYYZ=             -4.0992 ZZZX=              5.1485
 ZZZY=             -1.3911 XXYY=           -204.9111 XXZZ=           -183.5765 YYZZ=            -59.4152
 XXYZ=             -7.8021 YYXZ=             -1.3753 ZZXY=             -1.0209
 N-N= 3.112096396067D+02 E-N=-1.432698709694D+03  KE= 3.447526038131D+02
  Exact polarizability:   0.000   0.000   0.000   0.000   0.000   0.000
 Approx polarizability:  93.997  -4.607  72.913  -0.646  -4.989  71.720
 No NMR shielding tensors so no spin-rotation constants.
 Leave Link  601 at Sun Sep 29 09:48:30 2019, MaxMem=   671088640 cpu:              68.0 elap:              34.1
 (Enter /shared/centos7/gaussian/g16/l701.exe)
 SCFChk:  SCF convergence  5.33D-09 required  1.00D-08
 ... and contract with generalized density number  0.
 Compute integral second derivatives.
 Entering OneElI...
 Calculate overlap and kinetic energy integrals
    NBasis = 395  MinDer = 2  MaxDer = 2
 Requested accuracy = 0.1000D-12
 PrmmSu-InSpLW:  IPartL=    0 NPrtUS=   20 NPrtUL=    1 DoSpLW=F IThBeg=    0 IThEnd=   19 NThAct=   20.
 PrsmSu:  NPrtUS=  20 ThrOK=T IAlg=1 NPAlg=1 LenDen=           0 ISkipM=0 DoSpLW=F IThBeg=    0 IThEnd=   19.
 Prism:   IPart=     0 DynPar=F LinDyn=F Incr=           4.
 PRISM was handed    33315819 working-precision words and  8364 shell-pairs
 PRISM was handed    33315819 working-precision words and  8364 shell-pairs
 PRISM was handed    33315819 working-precision words and  8364 shell-pairs
 PRISM was handed    33315819 working-precision words and  8364 shell-pairs
 PRISM was handed    33315819 working-precision words and  8364 shell-pairs
 PRISM was handed    33315819 working-precision words and  8364 shell-pairs
 PRISM was handed    33315819 working-precision words and  8364 shell-pairs
 PRISM was handed    33315819 working-precision words and  8364 shell-pairs
 PRISM was handed    33315819 working-precision words and  8364 shell-pairs
 PRISM was handed    33315819 working-precision words and  8364 shell-pairs
 PRISM was handed    33315819 working-precision words and  8364 shell-pairs
 PRISM was handed    33315819 working-precision words and  8364 shell-pairs
 PRISM was handed    33315819 working-precision words and  8364 shell-pairs
 PRISM was handed    33315819 working-precision words and  8364 shell-pairs
 PRISM was handed    33315819 working-precision words and  8364 shell-pairs
 PRISM was handed    33315819 working-precision words and  8364 shell-pairs
 PRISM was handed    33315819 working-precision words and  8364 shell-pairs
 PRISM was handed    33315819 working-precision words and  8364 shell-pairs
 PRISM was handed    33315819 working-precision words and  8364 shell-pairs
 PRISM was handed    33315819 working-precision words and  8364 shell-pairs
 IPart=  0 NShTot=         460 NBatch=          81 AvBLen=         5.7
 IPart=  3 NShTot=         445 NBatch=          70 AvBLen=         6.4
 IPart= 10 NShTot=         413 NBatch=          50 AvBLen=         8.3
 IPart= 14 NShTot=         398 NBatch=          39 AvBLen=        10.2
 IPart=  4 NShTot=         440 NBatch=          66 AvBLen=         6.7
 IPart=  6 NShTot=         432 NBatch=          60 AvBLen=         7.2
 IPart= 13 NShTot=         401 NBatch=          41 AvBLen=         9.8
 IPart= 17 NShTot=         391 NBatch=          35 AvBLen=        11.2
 IPart=  8 NShTot=         417 NBatch=          50 AvBLen=         8.3
 IPart= 12 NShTot=         402 NBatch=          42 AvBLen=         9.6
 IPart= 11 NShTot=         412 NBatch=          49 AvBLen=         8.4
 IPart=  9 NShTot=         416 NBatch=          50 AvBLen=         8.3
 IPart=  5 NShTot=         437 NBatch=          63 AvBLen=         6.9
 IPart= 15 NShTot=         397 NBatch=          38 AvBLen=        10.4
 IPart=  2 NShTot=         450 NBatch=          73 AvBLen=         6.2
 IPart=  7 NShTot=         419 NBatch=          51 AvBLen=         8.2
 IPart= 16 NShTot=         396 NBatch=          37 AvBLen=        10.7
 IPart=  1 NShTot=         458 NBatch=          79 AvBLen=         5.8
 IPart= 18 NShTot=         390 NBatch=          35 AvBLen=        11.1
 IPart= 19 NShTot=         390 NBatch=          35 AvBLen=        11.1
 PrSmSu:  NxtVal=             81.
 Entering OneElI...
 Calculate potential energy integrals
    NBasis = 395  MinDer = 2  MaxDer = 2
 Requested accuracy = 0.1000D-12
 PrmmSu-InSpLW:  IPartL=    0 NPrtUS=   20 NPrtUL=    1 DoSpLW=F IThBeg=    0 IThEnd=   19 NThAct=   20.
 PrsmSu:  NPrtUS=  20 ThrOK=T IAlg=1 NPAlg=1 LenDen=           0 ISkipM=0 DoSpLW=F IThBeg=    0 IThEnd=   19.
 Prism:   IPart=     0 DynPar=F LinDyn=F Incr=          63.
 PRISM was handed    33361752 working-precision words and  7497 shell-pairs
 PRISM was handed    33361752 working-precision words and  7497 shell-pairs
 PRISM was handed    33361752 working-precision words and  7497 shell-pairs
 PRISM was handed    33361752 working-precision words and  7497 shell-pairs
 PRISM was handed    33361752 working-precision words and  7497 shell-pairs
 PRISM was handed    33361752 working-precision words and  7497 shell-pairs
 PRISM was handed    33361752 working-precision words and  7497 shell-pairs
 PRISM was handed    33361752 working-precision words and  7497 shell-pairs
 PRISM was handed    33361752 working-precision words and  7497 shell-pairs
 PRISM was handed    33361752 working-precision words and  7497 shell-pairs
 PRISM was handed    33361752 working-precision words and  7497 shell-pairs
 PRISM was handed    33361752 working-precision words and  7497 shell-pairs
 PRISM was handed    33361752 working-precision words and  7497 shell-pairs
 PRISM was handed    33361752 working-precision words and  7497 shell-pairs
 PRISM was handed    33361752 working-precision words and  7497 shell-pairs
 PRISM was handed    33361752 working-precision words and  7497 shell-pairs
 PRISM was handed    33361752 working-precision words and  7497 shell-pairs
 PRISM was handed    33361752 working-precision words and  7497 shell-pairs
 PRISM was handed    33361752 working-precision words and  7497 shell-pairs
 PRISM was handed    33361752 working-precision words and  7497 shell-pairs
 IPart= 18 NShTot=        5984 NBatch=         352 AvBLen=        17.0
 IPart= 17 NShTot=        6001 NBatch=         353 AvBLen=        17.0
 IPart= 19 NShTot=        5950 NBatch=         350 AvBLen=        17.0
 IPart=  1 NShTot=        6970 NBatch=         410 AvBLen=        17.0
 IPart= 10 NShTot=        6256 NBatch=         368 AvBLen=        17.0
 IPart= 11 NShTot=        6222 NBatch=         366 AvBLen=        17.0
 IPart=  4 NShTot=        6647 NBatch=         391 AvBLen=        17.0
 IPart=  2 NShTot=        6817 NBatch=         401 AvBLen=        17.0
 IPart= 14 NShTot=        6137 NBatch=         361 AvBLen=        17.0
 IPart= 16 NShTot=        6103 NBatch=         359 AvBLen=        17.0
 IPart=  9 NShTot=        6273 NBatch=         369 AvBLen=        17.0
 IPart=  8 NShTot=        6358 NBatch=         374 AvBLen=        17.0
 IPart=  3 NShTot=        6732 NBatch=         396 AvBLen=        17.0
 IPart=  6 NShTot=        6545 NBatch=         385 AvBLen=        17.0
 IPart=  7 NShTot=        6392 NBatch=         376 AvBLen=        17.0
 IPart= 15 NShTot=        6137 NBatch=         361 AvBLen=        17.0
 IPart= 12 NShTot=        6171 NBatch=         363 AvBLen=        17.0
 IPart= 13 NShTot=        6154 NBatch=         362 AvBLen=        17.0
 IPart=  5 NShTot=        6545 NBatch=         385 AvBLen=        17.0
 IPart=  0 NShTot=        7055 NBatch=         415 AvBLen=        17.0
 PrSmSu:  NxtVal=           1261.
 Polarizability after L701:
                1             2             3 
      1  0.000000D+00
      2  0.000000D+00  0.000000D+00
      3  0.000000D+00  0.000000D+00  0.000000D+00
 Dipole Derivatives after L701:
                 1             2             3             4             5 
      1  -0.251710D+00 -0.502307D-01  0.248247D-01 -0.220328D+01 -0.551884D-01
      2  -0.116066D+00 -0.267867D+00  0.231752D-01  0.359747D+00 -0.305860D+00
      3  -0.378868D-01 -0.304903D-01 -0.752003D-01 -0.101275D+00 -0.108732D+00
                 6             7             8             9            10 
      1   0.610101D+00  0.254222D+00  0.174266D+00 -0.668000D+00 -0.101292D+01
      2  -0.176469D+00 -0.570852D-01  0.224712D+00  0.190304D+00 -0.914648D-01
      3  -0.257341D+00 -0.123772D+00  0.217244D+00 -0.499012D+00  0.122149D-01
                11            12            13            14            15 
      1  -0.883443D+00 -0.142899D-01 -0.186456D+01  0.613091D+00  0.430401D+00
      2  -0.144550D+01 -0.392051D-01  0.238976D+00 -0.106821D+01 -0.653631D-01
      3  -0.189803D+00 -0.942795D+00  0.329468D-03  0.164279D-01 -0.919603D+00
                16            17            18            19            20 
      1  -0.673129D+00  0.740299D-01  0.286475D+00 -0.107661D+00 -0.282745D+00
      2   0.179807D-01 -0.289081D+00  0.376942D+00  0.624780D-01 -0.395325D+00
      3   0.240673D+00  0.313337D+00 -0.337126D+00  0.154437D+00  0.390768D+00
                21            22            23            24            25 
      1   0.404500D+00  0.121505D+00 -0.109815D+00  0.354810D+00 -0.257751D-01
      2   0.408152D+00  0.846381D-02  0.166834D+00 -0.103869D+00 -0.477166D+00
      3  -0.342069D+00 -0.198507D-01 -0.112080D+00  0.520002D+00  0.126687D+00
                26            27            28            29            30 
      1   0.138427D+00 -0.106917D+00  0.249694D-01  0.173522D+00  0.408476D+00
      2   0.544731D+00 -0.431003D+00 -0.900759D-01  0.351625D+00  0.612383D+00
      3  -0.109633D+00  0.223364D+00 -0.920568D-01  0.167492D+00  0.642906D+00
                31            32            33            34            35 
      1   0.103061D+01  0.300212D+00 -0.299692D+00  0.831501D+00  0.599239D+00
      2   0.593708D+00  0.318497D+00 -0.178167D+00 -0.307118D-01  0.123735D+00
      3  -0.424646D-01  0.843377D-02  0.969826D-01 -0.269206D+00 -0.239478D+00
                36            37            38            39            40 
      1  -0.667560D+00 -0.730389D-01 -0.613342D+00 -0.368535D+00  0.806755D+00
      2  -0.785004D-02  0.186143D+00  0.675163D+00  0.347045D+00 -0.251120D+00
      3   0.352846D+00  0.905439D-01  0.308807D+00  0.280463D+00  0.145075D+00
                41            42            43            44            45 
      1  -0.393943D+00  0.827512D+00  0.946897D-01  0.125935D+00 -0.193567D+00
      2   0.223053D+00 -0.303787D+00 -0.199195D+00  0.561454D+00 -0.456461D+00
      3  -0.851579D-01  0.317987D+00  0.668022D-01 -0.314655D+00  0.353352D+00
                46            47            48            49            50 
      1   0.930091D+00  0.469645D+00 -0.701214D+00  0.211773D+01 -0.279658D+00
      2   0.212241D+00  0.237716D+00 -0.246401D+00 -0.366853D+00  0.344325D+00
      3  -0.265376D+00 -0.199604D+00  0.308296D+00  0.115127D+00 -0.328768D-01
                51 
      1  -0.327325D+00
      2   0.505736D-01
      3   0.276947D+00
 Hessian after L701:
                1             2             3             4             5 
      1  0.414362D+01
      2 -0.378167D+01  0.164412D+02
      3  0.844041D+00  0.641696D+00  0.143950D+02
      4  0.724633D+00 -0.468956D+00 -0.228268D-01  0.670166D+01
      5 -0.512172D+00 -0.265595D+00 -0.252666D-01  0.387797D+01  0.998136D+01
      6 -0.426237D-02 -0.348521D-01 -0.456884D+00 -0.133642D+01  0.363453D+01
      7 -0.205821D+01  0.175264D+01  0.314648D+01  0.242296D+00 -0.956205D-01
      8  0.174379D+01 -0.830050D+01  0.803414D+00 -0.672235D-01 -0.104624D+00
      9  0.296070D+01  0.753959D+00 -0.711831D+01  0.543250D-01 -0.139737D-01
     10 -0.227691D+00  0.257021D+00  0.685304D-01  0.148541D+00  0.569308D-01
     11  0.188875D+00  0.380336D+00  0.102732D+00  0.240280D-01 -0.970973D-01
     12  0.875005D-01  0.173807D+00 -0.167079D+00  0.530809D-01  0.107833D-01
     13  0.436287D+00 -0.305252D+00 -0.120880D+00  0.739346D-01 -0.410749D-01
     14 -0.233886D+00 -0.123825D+00  0.484199D-01 -0.317983D-01 -0.473217D-01
     15 -0.304312D-01  0.162212D-01 -0.239673D+00  0.140249D-01 -0.537014D-02
     16 -0.391673D+01  0.291752D+01 -0.420697D+01  0.339199D+00  0.177307D+00
     17  0.299118D+01 -0.854083D+01 -0.202096D+01  0.322195D+00 -0.335534D+00
     18 -0.406328D+01 -0.191051D+01 -0.609746D+01 -0.169686D+00  0.548721D+00
     19  0.359079D+00 -0.288308D+00  0.195405D+00 -0.757329D+01 -0.263503D+01
     20 -0.320172D+00 -0.663328D-01  0.307291D+00 -0.277061D+01 -0.344823D+01
     21  0.220972D+00  0.306367D+00 -0.182479D+00  0.217057D+01 -0.420806D+01
     22  0.535010D-02 -0.271997D-01 -0.249921D+00  0.143413D-01 -0.658540D-02
     23 -0.241805D-01  0.255509D+00 -0.848313D-01 -0.123354D-01 -0.931640D-02
     24 -0.242938D+00 -0.823474D-01  0.186974D+00  0.303451D-01 -0.101477D-01
     25 -0.587373D-01  0.184122D-01  0.272592D-01  0.457382D-01  0.222720D-01
     26  0.815763D-01  0.564591D-01  0.842418D-01  0.511702D-01 -0.115261D-01
     27  0.143115D-01  0.246996D-01 -0.714870D-01 -0.932590D-02 -0.561679D-02
     28 -0.280703D-01  0.389465D-01  0.355726D-01  0.104332D-01  0.727690D-02
     29  0.448581D-01  0.380522D-01  0.777820D-01  0.129992D-01 -0.747070D-02
     30  0.456520D-01  0.879076D-01  0.422528D-01  0.237151D-01  0.795025D-02
     31  0.102401D+00  0.997539D-01  0.192823D-01  0.213413D-01  0.571868D-02
     32  0.976728D-01  0.153178D-01  0.132728D-01  0.834090D-02 -0.527686D-02
     33  0.578842D-02  0.237564D-02 -0.487934D-01 -0.783481D-03 -0.110149D-03
     34  0.120311D+00  0.173861D-01 -0.295797D-01  0.162705D-01 -0.446543D-02
     35  0.348401D-01 -0.380792D-01 -0.748457D-02  0.295270D-02 -0.639071D-02
     36 -0.476823D-01 -0.561936D-02 -0.345586D-01 -0.671126D-02  0.126838D-02
     37  0.504666D-01 -0.391110D-01  0.232114D-01  0.768503D-02 -0.776339D-02
     38 -0.111826D+00 -0.378298D-01 -0.740395D-02 -0.175835D-01  0.472847D-02
     39 -0.200778D-01  0.978246D-02 -0.890297D-01 -0.625565D-02  0.503239D-02
     40  0.121630D+00 -0.388309D-01  0.807497D-01  0.111742D-01 -0.654629D-02
     41 -0.484732D-01 -0.382099D-01 -0.232396D-01 -0.616531D-02 -0.237587D-02
     42  0.829876D-01 -0.209174D-01 -0.778103D-02  0.697940D-02 -0.366459D-02
     43  0.258241D-01 -0.182186D+00  0.290410D+00  0.109446D-01 -0.703717D-01
     44 -0.188703D+00  0.270777D+00  0.110455D+00 -0.724566D-01  0.548775D-01
     45  0.260181D+00  0.587078D-01 -0.103897D+00  0.538939D-01 -0.672464D-01
     46  0.129639D+00  0.478410D-01 -0.903949D-01  0.254894D+00  0.433970D-01
     47  0.586344D-01 -0.350129D-01 -0.217758D-01  0.799473D-01 -0.319523D-01
     48 -0.105121D+00 -0.221149D-01  0.655692D-02 -0.908322D-01  0.189886D+00
     49  0.701899D-01 -0.180016D-01 -0.103655D-01 -0.104979D+01 -0.811244D+00
     50 -0.203450D-01 -0.114501D-01  0.165107D-02 -0.932479D+00 -0.566825D+01
     51 -0.833686D-02  0.832940D-03 -0.133804D-01 -0.764086D+00 -0.587161D-01
                6             7             8             9            10 
      6  0.120138D+02
      7  0.800561D-01  0.149027D+02
      8 -0.119430D-01 -0.110435D+01  0.196695D+02
      9 -0.118742D+00 -0.196438D+01 -0.779305D+00  0.205237D+02
     10  0.596299D-01 -0.588490D+01  0.754219D+00  0.392078D-01  0.144066D+02
     11  0.132932D-02  0.661193D+00 -0.168869D+01  0.359059D+00 -0.884723D+00
     12 -0.945499D-01  0.274403D-01  0.326330D+00 -0.583447D+01 -0.342171D-01
     13  0.638922D-02 -0.335372D+01 -0.187662D+01 -0.112250D+01 -0.596719D-01
     14 -0.776881D-03 -0.183977D+01 -0.516871D+01  0.610213D+00 -0.177798D+00
     15 -0.529989D-01 -0.114962D+01  0.629549D+00 -0.582241D+01 -0.343578D-01
     16  0.275931D-02  0.269243D+00  0.270176D+00  0.231962D-02  0.493276D-01
     17  0.520518D+00  0.242627D+00  0.135476D+00  0.308962D-01  0.293493D+00
     18 -0.114153D+00  0.432148D-01  0.257406D-01  0.560770D-01 -0.266357D-01
     19  0.204397D+01  0.298468D+00  0.157072D+00  0.184423D-01  0.146319D+00
     20 -0.422810D+01  0.118974D+00 -0.115700D+00  0.199173D-01  0.108773D+00
     21 -0.543433D+01  0.438942D-01  0.564961D-02 -0.151205D+00 -0.124240D-01
     22  0.163452D-01 -0.469638D+01  0.265761D-01 -0.105595D-01  0.163836D+00
     23 -0.786758D-02  0.706264D-01 -0.451266D+01 -0.788998D+00 -0.291539D-01
     24  0.530248D-02 -0.170842D+00 -0.803319D+00 -0.199849D+01  0.258654D-02
     25  0.545142D-02  0.896576D-01  0.111847D-01  0.711387D-02 -0.306185D+01
     26  0.530952D-02  0.662664D-01 -0.280813D-01  0.421222D-01 -0.100593D+01
     27 -0.303152D-01  0.626555D-02  0.440229D-02  0.894042D-01  0.940599D+00
     28  0.115217D-01  0.802262D-01 -0.252574D-01 -0.240976D-01 -0.394262D+01
     29  0.803049D-02  0.198756D-02 -0.714047D-01 -0.664382D-01 -0.199062D+00
     30  0.589671D-02 -0.927039D-02 -0.460626D-01  0.100972D+00 -0.381100D+00
     31  0.460409D-02  0.634138D-01 -0.866315D-01 -0.889242D-04 -0.174113D+01
     32  0.143365D-02 -0.117155D+00 -0.223324D-01  0.148169D-01  0.867496D+00
     33 -0.804271D-02 -0.181500D-01 -0.669612D-02  0.993896D-01 -0.617957D+00
     34 -0.815464D-03  0.269154D-02  0.304276D-01  0.799537D-01  0.100276D-02
     35  0.895312D-04  0.633371D-01  0.112498D+00 -0.569152D-01  0.170170D-01
     36 -0.576396D-02  0.556302D-01 -0.348252D-01  0.433525D-01  0.316198D-02
     37 -0.588369D-03  0.917788D-01  0.850488D-01  0.525604D-01 -0.496261D-01
     38 -0.306517D-03  0.286397D-01  0.220154D-01 -0.684031D-01 -0.246628D-01
     39 -0.799551D-02  0.143941D-01 -0.509628D-01  0.372351D-01 -0.889879D-02
     40  0.531277D-02 -0.118243D+00  0.438855D-01 -0.257252D-01  0.136785D-01
     41 -0.235062D-02  0.590121D-01  0.839824D-01  0.169593D-01 -0.695291D-01
     42 -0.110673D-02 -0.867838D-02 -0.281302D-02  0.108348D+00  0.205474D-01
     43  0.433885D-01  0.107144D-01  0.257853D-01 -0.490246D-01 -0.509629D-02
     44 -0.547582D-01  0.796393D-01 -0.470426D-03 -0.680900D-01  0.216282D-01
     45  0.737194D-02 -0.783236D-01 -0.541798D-01 -0.545773D-02 -0.878389D-02
     46 -0.535736D-01  0.329893D-01  0.132931D-01 -0.129339D-01  0.156370D-01
     47  0.189683D+00  0.167032D-01 -0.574085D-02 -0.686954D-02  0.143770D-01
     48  0.780491D-02 -0.163869D-01 -0.479377D-02 -0.485849D-02 -0.885150D-02
     49 -0.883765D+00  0.272630D-01 -0.137706D-02 -0.530579D-02  0.276644D-01
     50 -0.199761D-01 -0.474840D-02 -0.459299D-02  0.105006D-02 -0.923189D-04
     51 -0.571526D+01 -0.172044D-02 -0.186164D-03 -0.453238D-02 -0.103667D-02
               11            12            13            14            15 
     11  0.117777D+02
     12 -0.482402D+00  0.151678D+02
     13 -0.667841D-01 -0.337606D-01  0.120381D+02
     14  0.167820D+00  0.122848D+00  0.139111D+01  0.139722D+02
     15  0.560223D-01 -0.937612D-01  0.667137D+00 -0.354479D+00  0.150327D+02
     16  0.269995D+00 -0.161123D-01  0.238118D+00  0.209806D-01 -0.435013D-01
     17  0.119164D+00 -0.186695D-01 -0.833620D-02 -0.139003D+00  0.167888D-01
     18 -0.273430D-01 -0.195002D+00 -0.715910D-01  0.316095D-02 -0.131415D+00
     19  0.946913D-01 -0.128994D-01  0.930225D-01  0.393105D-02 -0.748204D-02
     20 -0.516264D-01 -0.886413D-03 -0.177073D-01 -0.605363D-01  0.186307D-02
     21 -0.291743D-02 -0.909017D-01 -0.180475D-01  0.224148D-02 -0.545877D-01
     22 -0.105602D-01 -0.467723D-02 -0.202962D-01  0.866338D-01  0.208651D+00
     23 -0.183881D+00  0.108197D+00  0.860551D-01  0.184745D+00 -0.101656D+00
     24  0.141441D+00  0.148945D+00  0.270210D+00 -0.125482D+00 -0.833112D-02
     25 -0.788861D+00  0.871220D+00  0.859422D-03 -0.598679D-01  0.898056D-02
     26 -0.332349D+01 -0.890465D+00 -0.586495D-01  0.550558D-01 -0.870845D-02
     27 -0.751246D+00 -0.318558D+01  0.566149D-02 -0.117945D-01 -0.310234D-01
     28 -0.135623D+00 -0.280887D+00 -0.290915D-01 -0.463994D-01 -0.330953D-01
     29 -0.367301D+01  0.921509D+00 -0.523988D-01  0.720759D-01  0.819957D-01
     30  0.802376D+00 -0.191219D+01 -0.388210D-01  0.942606D-01  0.198155D-01
     31  0.737826D+00 -0.670009D+00 -0.531400D-02  0.298132D-01 -0.125880D-02
     32 -0.361084D+01 -0.291490D+00  0.313857D-02  0.164462D-01  0.278819D-02
     33 -0.229784D+00 -0.365191D+01 -0.377733D-02 -0.569681D-02 -0.201416D-01
     34  0.944773D-02  0.159129D-01 -0.286568D+01  0.875854D+00 -0.102479D+01
     35 -0.971796D-02 -0.319322D-01  0.737512D+00 -0.323720D+01 -0.737728D+00
     36 -0.181541D-01 -0.171574D-01 -0.952830D+00 -0.818040D+00 -0.280791D+01
     37 -0.320068D-01 -0.100972D-01 -0.381314D+01  0.455576D+00  0.277854D+00
     38  0.142887D+00  0.728920D-01  0.666754D+00 -0.221818D+01  0.103862D+01
     39  0.762066D-01 -0.199897D-01  0.402244D+00  0.101966D+01 -0.329689D+01
     40 -0.698125D-01  0.952709D-02 -0.277663D+01 -0.491347D+00  0.117063D+01
     41  0.521183D-01 -0.119875D-01 -0.486133D+00 -0.345705D+01 -0.621136D+00
     42 -0.216511D-01 -0.328398D-01  0.105717D+01 -0.564569D+00 -0.247855D+01
     43  0.376162D-02 -0.918101D-03  0.196101D-01  0.134936D-01 -0.225655D-01
     44  0.674160D-02 -0.610599D-02  0.278951D-01 -0.968072D-02 -0.137321D-01
     45 -0.607286D-02 -0.102676D-01 -0.372381D-01 -0.171388D-01 -0.656077D-02
     46  0.458501D-02 -0.379043D-02  0.130592D-01  0.388117D-02 -0.352214D-02
     47 -0.409774D-02 -0.240937D-02  0.343813D-02 -0.398368D-02 -0.377880D-03
     48 -0.636010D-03 -0.561866D-02 -0.823611D-02 -0.266064D-02 -0.493179D-02
     49 -0.602990D-02  0.268675D-02  0.105851D-01 -0.402597D-03  0.334210D-02
     50 -0.435240D-02 -0.205420D-04 -0.293986D-02 -0.284538D-02 -0.666036D-03
     51  0.103989D-02 -0.539062D-02 -0.112895D-02 -0.165990D-03 -0.330621D-02
               16            17            18            19            20 
     16  0.871353D+01
     17  0.669680D+00  0.221233D+02
     18  0.413724D+01  0.490033D+01  0.215746D+02
     19 -0.124672D+01 -0.370544D+01 -0.620166D+00  0.112896D+02
     20 -0.333023D+01 -0.107220D+02 -0.200133D+01  0.488995D+01  0.182022D+02
     21 -0.842755D+00 -0.194427D+01 -0.118869D+02 -0.204193D+00  0.660931D+01
     22  0.276983D-01 -0.686612D-01 -0.378971D-01 -0.170703D-03 -0.791546D-02
     23 -0.648236D-01 -0.557396D-01 -0.332284D-01 -0.151969D-01 -0.994665D-02
     24  0.127755D-01 -0.385902D-01 -0.362587D-01  0.118975D-01 -0.421571D-02
     25 -0.143773D-01 -0.389568D-02  0.313145D-02 -0.476290D-02  0.645923D-02
     26  0.126467D-01  0.222633D-01 -0.450477D-02  0.272622D-01  0.478358D-02
     27 -0.524341D-02 -0.160229D-01 -0.931356D-02 -0.146861D-01 -0.902356D-02
     28  0.840759D-02  0.319964D-01  0.665390D-02  0.902264D-02  0.107717D-01
     29  0.380476D-01  0.202677D-01  0.992688D-02  0.196034D-01 -0.755583D-03
     30  0.219403D-01  0.256389D-01 -0.102297D-01  0.219503D-01  0.109505D-01
     31  0.107967D-01  0.102663D-01 -0.885251D-03  0.170460D-01  0.692670D-02
     32  0.897281D-02 -0.254114D-02 -0.548206D-03  0.102095D-01 -0.259098D-02
     33 -0.264796D-02 -0.110876D-02 -0.824896D-02 -0.412422D-02 -0.489006D-03
     34  0.153577D-01  0.482838D-02 -0.752906D-02  0.208031D-01 -0.381946D-03
     35  0.110477D-01 -0.613642D-02 -0.334613D-02  0.778671D-02 -0.518092D-02
     36 -0.105826D-01 -0.203008D-02 -0.556735D-02 -0.117370D-01  0.410486D-03
     37  0.267340D-01 -0.218217D-01 -0.254693D-01  0.135640D-01 -0.691469D-02
     38 -0.451608D-01 -0.843603D-02  0.205370D-01 -0.238729D-01 -0.773245D-03
     39 -0.391144D-01  0.175774D-01 -0.106243D-01 -0.172850D-01  0.636665D-02
     40  0.422675D-01 -0.414705D-02  0.320868D-02  0.218905D-01 -0.552771D-02
     41 -0.792923D-02 -0.137190D-01 -0.386120D-03 -0.715561D-02 -0.433972D-02
     42  0.146548D-01 -0.208526D-02 -0.102457D-01  0.100641D-01 -0.203815D-02
     43 -0.436789D+01 -0.475847D+00  0.472396D+00 -0.532321D-01  0.394706D+00
     44 -0.656704D+00 -0.296445D+01 -0.150845D+01  0.475421D+00 -0.337262D-01
     45  0.609295D+00 -0.144617D+01 -0.327900D+01 -0.198820D+00  0.152559D+00
     46 -0.459839D+00 -0.923768D-01  0.300860D+00 -0.316727D+01  0.852761D+00
     47 -0.123645D+00  0.357047D+00  0.745966D-02  0.817978D+00 -0.374989D+01
     48  0.320960D+00  0.554758D-03  0.237745D+00 -0.111896D+01 -0.868708D+00
     49  0.264886D+00 -0.185744D+00  0.564341D-01 -0.223321D+00  0.701366D-01
     50 -0.167880D+00  0.108584D-01 -0.262331D-01  0.171097D+00  0.645678D-01
     51  0.449831D-01 -0.224037D-01 -0.739428D-01 -0.913718D-01  0.612525D-02
               21            22            23            24            25 
     21  0.207654D+02
     22 -0.106002D-01  0.448525D+01
     23 -0.282351D-02 -0.792771D-01  0.436064D+01
     24 -0.104716D-01  0.147486D+00  0.101226D+01  0.159115D+01
     25 -0.153929D-02 -0.295607D-01 -0.172178D-01  0.149632D-01  0.313375D+01
     26 -0.551999D-02 -0.170327D-01  0.651379D-01 -0.828532D-01  0.786363D+00
     27 -0.957863D-02  0.103973D-01 -0.637716D-01  0.235955D-01 -0.757616D+00
     28  0.447400D-02  0.383370D-01 -0.183532D-01  0.840017D-03  0.913658D-01
     29  0.516117D-02 -0.111527D-01 -0.998676D-01 -0.162460D-02 -0.296650D-02
     30 -0.368600D-02 -0.845344D-03 -0.440889D-02  0.369886D-01 -0.936853D-01
     31 -0.135031D-02  0.408545D-02  0.381212D-01 -0.329311D-01 -0.207512D+00
     32  0.452897D-03  0.317307D-01  0.300335D-01 -0.391302D-01  0.441418D-01
     33 -0.514679D-02 -0.186385D-01 -0.287194D-01  0.443109D-02 -0.773348D-01
     34 -0.584949D-02  0.272877D-01  0.124201D-01 -0.835587D-01  0.153481D-01
     35 -0.162865D-02  0.933461D-02 -0.277352D-01 -0.142213D-01 -0.120952D-01
     36 -0.275318D-02 -0.619379D-01 -0.133943D-01  0.634081D-01 -0.957077D-02
     37 -0.818210D-02 -0.804622D-02 -0.794295D-02 -0.154027D-01 -0.892305D-03
     38  0.711803D-02 -0.860783D-02 -0.291274D-02  0.316863D-01 -0.364761D-02
     39 -0.411328D-02 -0.124513D-01  0.161268D-01  0.261175D-01 -0.169531D-02
     40  0.171777D-02 -0.424510D-01  0.258803D-01  0.223902D-01  0.286922D-02
     41 -0.404309D-03  0.242140D-01  0.146700D-01 -0.782971D-02 -0.398277D-02
     42 -0.436916D-02  0.259434D-01 -0.812984D-02  0.130895D-01  0.378033D-02
     43 -0.151280D+00  0.283244D-01  0.401655D-01  0.204176D-01 -0.136729D-02
     44  0.131280D+00  0.581882D-01 -0.684786D-02  0.234940D-01  0.165023D-02
     45  0.299554D+00 -0.454408D-03  0.641034D-03 -0.418369D-01  0.000000D+00
     46 -0.118021D+01 -0.136002D-02 -0.176020D-02  0.426892D-02  0.865792D-03
     47 -0.878869D+00  0.117008D-02 -0.163313D-02  0.235931D-02  0.178788D-02
     48 -0.331238D+01 -0.127554D-02  0.555229D-03 -0.359531D-02 -0.533226D-03
     49 -0.519418D-02  0.375774D-02 -0.302708D-02  0.749188D-02 -0.139256D-02
     50 -0.230835D-01 -0.855270D-03 -0.195260D-03 -0.147863D-02  0.264273D-03
     51  0.879529D-01  0.435061D-03  0.504871D-04 -0.101508D-02  0.739678D-04
               26            27            28            29            30 
     26  0.290763D+01
     27  0.814419D+00  0.334718D+01
     28  0.598897D-02 -0.125627D+00  0.379383D+01
     29  0.122208D+00  0.315442D-01  0.121145D+00  0.345885D+01
     30  0.507173D-01 -0.215660D+00  0.208374D+00 -0.105571D+01  0.202247D+01
     31  0.599678D-01 -0.569883D-01 -0.378535D-01  0.278342D-01  0.205158D+00
     32  0.100788D+00 -0.365094D-02  0.956681D-02  0.131765D+00  0.722225D-02
     33  0.263197D-02  0.981711D-01  0.202871D+00 -0.131439D-01 -0.841539D-01
     34 -0.235557D-01 -0.133574D-02  0.210244D-02 -0.738536D-02 -0.105224D-01
     35  0.576719D-02  0.355955D-02 -0.196908D-02 -0.832195D-03  0.187566D-02
     36  0.927588D-02 -0.744439D-02 -0.673515D-02  0.864049D-02  0.903784D-02
     37  0.268084D-02  0.494344D-03 -0.409095D-03  0.274133D-02  0.151905D-02
     38  0.218093D-02 -0.351211D-02  0.301788D-03 -0.239589D-02  0.268617D-02
     39  0.179113D-02 -0.206892D-02 -0.363255D-03 -0.102119D-02  0.186301D-02
[...]
   yx        -0.139863D+02     -0.207256D+01     -0.230603D+01
   yy         0.709596D+02      0.105151D+02      0.116997D+02
   zx         0.900361D+01      0.133420D+01      0.148449D+01
   zy        -0.532433D+01     -0.788984D+00     -0.877863D+00
   zz         0.645047D+02      0.955861D+01      0.106354D+02

 ----------------------------------------------------------------------

 Test job not archived.
 1\1\GINC-C0320\Freq\RM062X\CC-pVTZ\C5H10O2\HARMS.N\29-Sep-2019\0\\#P G
 eom=AllCheck Guess=TCheck SCRF=Check Test GenChk RM062X/CC-pVTZ Freq\\
 Gaussian input prepared by ASE\\0,1\O,-0.1125880539,-1.2361813146,1.64
 98033035\O,2.0381134392,-2.8641243382,2.3673412357\C,-1.1571413278,-0.
 3743163772,2.0981133073\C,-1.1813199495,-0.3153004562,3.6154744704\C,-
 2.4431204078,-0.9228432492,1.5190684461\C,1.1429330728,-0.750377119,1.
 833713453\C,2.1723194904,-1.5238487477,2.1476379024\H,-0.9690947611,0.
 629300014,1.6950470815\H,-1.3584058128,-1.3135978621,4.0167891041\H,-0
 .2303293737,0.0472705455,4.0049312547\H,-1.9734794335,0.349110408,3.96
 04265413\H,-2.6121256728,-1.9320656345,1.8947888832\H,-2.3853913824,-0
 .9638643058,0.4329309284\H,-3.2874432508,-0.2970643136,1.8060613647\H,
 1.292380723,0.3117211602,1.6706648134\H,3.1630989745,-1.0955609391,2.2
 141752394\H,2.8953858559,-3.2401355222,2.5694840979\\Version=EM64L-G16
 RevA.03\State=1-A\HF=-346.9414281\RMSD=1.171e-09\RMSF=3.339e-07\ZeroPo
 int=0.1467832\Thermal=0.1556428\Dipole=0.4750186,0.4720531,0.3184475\D
 ipoleDeriv=-1.8024395,0.3806002,0.0075844,-0.0584733,-0.4422647,-0.081
 1196,-0.079782,0.0097018,-0.3877858,-0.2527095,-0.0327497,0.0228571,0.
 6303634,-1.3328897,0.1998829,-0.0982967,0.1641264,-0.3684899,0.9406643
 ,-0.211685,-0.0746613,-0.3991998,0.4951548,0.0512452,-0.1400776,0.0620
 768,0.5060342,-0.0313479,-0.0153413,-0.0463288,0.0500195,0.046231,-0.0
 082524,0.049672,-0.0478136,-0.1580258,-0.0662479,-0.0253055,-0.030236,
 -0.043299,0.0577826,-0.0264922,-0.0523356,-0.0280887,0.0136189,1.12438
 56,-0.0418422,0.0899178,0.4745266,-0.0213198,-0.052017,0.2495683,-0.08
 00875,-0.1125488,-0.0469017,0.0457581,0.034909,-0.5029613,1.1314891,-0
 .2229315,0.1195404,-0.2347997,-0.086915,-0.0521936,-0.0785939,0.030234
 ,0.0211223,-0.1574721,0.0554136,0.0289419,0.0736976,-0.0526532,0.05934
 66,-0.0215836,0.0123966,-0.0413085,-0.0768399,0.0764467,-0.0011799,0.0
 121731,0.0242018,-0.062384,-0.0617731,-0.0810467,-0.0635439,0.0499882,
 -0.011644,-0.0606089,-0.0026356,0.0105854,-0.0476958,0.0968365,0.06336
 77,0.0963111,-0.0017271,-0.0392289,0.0529703,-0.0188733,0.0409933,0.05
 03005,0.0037294,-0.0149863,-0.0586788,-0.072365,0.0420479,0.004499,0.0
 755519,0.0318199,0.0546219,-0.0138954,0.0152692,-0.0247534,0.064731,-0
 .0099262,-0.0292193,-0.0146038,-0.1222296,-0.0713919,0.0622421,0.01909
 05,0.0916119,-0.0042447,-0.0345463,0.0485743,-0.0441729,0.0508425,0.01
 11926,0.0133182,-0.0201791,-0.0831863,-0.0619665,0.0403127,-0.073834,0
 .055602,0.1250618,-0.0540921,-0.0542178,-0.0152785,-0.0203268,-0.02104
 69,0.0241833,-0.0128105,0.026011,0.1491785,0.2468925,-0.0454968,-0.012
 9096,-0.0682239,0.3467597,-0.0033742,-0.0056218,-0.0078658,0.336312\Po
 lar=85.4257113,-10.453501,66.1354454,2.7728644,-1.6886945,57.3339027\Q
 uadrupole=5.7023547,-1.5290227,-4.1733321,-2.8037267,0.9726582,-1.1764
 877\PG=C01 [X(C5H10O2)]\NImag=0\\0.55322241,-0.00120735,0.29575911,-0.
 00832245,0.08190704,0.11629925,0.00730497,-0.00013347,0.00355861,0.547
 07432,0.01870392,0.00790887,0.00101656,-0.15105957,0.49826846,0.000073
 68,-0.00297268,-0.00725635,0.11027672,-0.11045914,0.05229472,-0.131336
 27,0.04172595,0.02184386,-0.00011683,-0.00574524,0.00133572,0.50943835
 ,0.06678891,-0.14685295,-0.03693428,0.00091801,0.00520906,0.00002253,0
 .05391670,0.57975017,0.03433935,-0.03754932,-0.07688286,-0.00039143,0.
 00004202,-0.00049788,0.01471235,-0.03783116,0.50835931,-0.01483046,0.0
 1107037,0.03528547,0.00002290,0.00058664,0.00015122,-0.07850127,-0.005
 66319,-0.00929322,0.58951494,0.01397438,-0.00505478,-0.02995353,-0.000
 40566,-0.00119954,0.00029516,-0.00492650,-0.07969938,0.01110994,-0.003
 16973,0.58406408,0.01072898,-0.00898513,-0.01456794,-0.00000923,-0.000
 52488,0.00023633,-0.00394390,0.00366770,-0.20145430,0.00438946,0.00008
 776,0.48173303,-0.04456375,-0.00494303,-0.00721911,0.00003975,0.000309
 42,-0.00000301,-0.16346967,-0.04270061,-0.04139414,0.00116233,-0.00238
 240,-0.00591693,0.52462571,0.02966194,0.00787703,0.00591727,-0.0002822
 0,-0.00052450,0.00005101,-0.05645369,-0.10403601,-0.02090952,-0.001816
 98,0.00008370,-0.00138433,-0.03453806,0.57010726,0.01287609,0.00325721
 ,0.00520411,0.00000851,-0.00051168,0.00007146,-0.04771115,-0.01853209,
 -0.10120699,-0.03315100,-0.01432417,-0.01847098,-0.03104479,-0.0094252
 7,0.58075731,-0.28227924,-0.06270286,-0.02519247,0.01108658,-0.0125775
 3,-0.00024106,-0.05962945,0.00027812,-0.00057197,0.00440030,-0.0023001
 2,0.00073110,-0.00243111,0.00163888,0.00194533,0.77998143,-0.09285954,
 -0.13500633,-0.01987253,0.03810107,-0.05748978,0.01863302,0.01708283,0
 .01177337,0.00795746,0.00246796,-0.00172612,-0.00073861,0.00397272,-0.
 00406064,-0.00191766,-0.13286370,0.75432593,-0.04030892,-0.02049842,-0
 .04971105,-0.00744613,0.00864563,0.00969171,0.00612959,0.00823257,-0.0
 0298019,0.00447348,-0.00205242,-0.00030047,-0.00015542,-0.00027952,-0.
 00011028,0.12352878,-0.11508300,0.16357696,-0.06215149,0.01594702,-0.0
 1650068,-0.11169279,-0.04755470,-0.00310365,0.00354856,-0.00771988,-0.
 00249066,-0.00060785,0.00081920,-0.00020011,-0.00096347,0.00147955,0.0
 0083874,-0.38023645,0.20223761,-0.08739911,0.84542744,-0.03484126,0.01
 304810,-0.00517861,-0.00099150,-0.32519531,0.05160013,0.00287659,-0.00
 778539,-0.00144871,-0.00059492,0.00183796,0.00082028,-0.00129925,0.001
 90682,0.00066786,0.23009847,-0.25317394,0.07387270,-0.10899087,0.70623
 920,-0.01194690,0.00261903,0.00852878,-0.01271750,0.04439899,-0.042076
 10,0.00225279,-0.00177972,-0.00027775,-0.00064547,-0.00032993,-0.00023
 374,0.00008352,-0.00011855,0.00004484,-0.08871480,0.06824303,-0.081820
 14,0.13456651,-0.12466488,0.15707269,-0.00911815,0.03182683,-0.0048346
 2,-0.00002103,-0.00002748,-0.00021906,-0.05985661,-0.04802634,0.017451
 64,0.00154067,-0.00089697,-0.00113148,-0.00566680,-0.02716173,0.010341
 95,0.00520429,0.00583781,-0.00039580,-0.00046025,-0.00033567,0.0000775
 1,0.07005474,0.01338780,-0.02962141,0.00116824,-0.00012236,-0.00007807
 ,-0.00014429,-0.04344034,-0.24466156,0.08434471,-0.00103827,0.00222704
 ,0.00003162,-0.00394546,-0.00953824,0.00407356,-0.00577864,-0.00043072
 ,-0.00100259,0.00105709,0.00067886,0.00017536,0.04006659,0.27788747,0.
 00207398,-0.01418648,0.00593263,0.00007835,-0.00015822,0.00019923,0.01
 751218,0.08635564,-0.08757864,0.00689728,0.03126706,-0.01516169,-0.003
 52990,-0.01259181,0.00486534,-0.00137745,-0.00059201,0.00020281,-0.000
 05077,-0.00006280,-0.00015699,-0.01982212,-0.08806239,0.09524218,0.000
 33203,-0.00032756,-0.00034139,0.00011618,0.00047245,-0.00021567,-0.001
 10930,-0.00030336,0.00105590,-0.05476410,-0.04105936,0.01517008,0.0001
 3701,0.00098985,-0.00032325,-0.00044871,-0.00018884,-0.00009430,-0.000
 01829,-0.00046612,0.00020371,0.00077006,0.00001327,0.00006357,0.053703
 71,-0.00117052,0.00156550,-0.00008026,0.00000977,0.00029449,-0.0001017
 0,0.00050469,-0.00084296,-0.00027149,-0.04085699,-0.27458989,0.0892678
 0,0.00027030,0.00086817,-0.00048262,0.00016763,0.00000963,0.00036304,-
 0.00007358,-0.00032865,0.00016918,0.00015423,0.00133306,-0.00056020,0.
 04539241,0.29591032,-0.00118434,-0.00107577,0.00358088,-0.00004712,0.0
 0003287,0.00001952,0.00521139,0.03479660,-0.01575970,0.01552023,0.0869
 9104,-0.08007187,0.00116883,0.00109159,0.00174416,0.00041894,0.0001268
 9,-0.00002782,-0.00004348,0.00005795,-0.00009684,0.00011725,-0.0009467
 0,-0.00660768,-0.01643443,-0.09823855,0.08975544,0.00065563,-0.0002916
 0,-0.00073393,0.00009022,-0.00005252,-0.00015300,0.00062308,0.00109956
 ,0.00102761,-0.25410856,-0.08015128,-0.08333765,0.00073444,0.00059482,
 -0.00019052,-0.00055508,0.00034736,0.00100854,-0.00015260,0.00003579,0
 .00035267,0.00028496,0.00016876,-0.00059393,-0.00364166,-0.00068829,-0
 .00092196,0.27445955,0.00015497,-0.00023119,0.00006963,0.00000844,0.00
 009313,-0.00005170,0.00024950,-0.00159840,-0.00010133,-0.07954400,-0.0
 7822953,-0.03105599,0.00019828,0.00057322,-0.00049947,-0.00050596,0.00
 042674,-0.00025764,0.00029778,-0.00042109,0.00035193,0.00060871,0.0001
 8265,-0.00030183,-0.02618219,-0.00877308,-0.01110546,0.08748187,0.0798
 6722,0.00017267,0.00131974,0.00281505,-0.00009754,0.00078308,-0.000217
 13,-0.03242695,-0.01241955,-0.01132622,-0.08096431,-0.03092729,-0.0795
 3769,0.00209137,0.00032604,-0.00679789,-0.00002696,-0.00051932,-0.0003
 9595,0.00069762,-0.00064843,0.00029728,0.00036051,0.00033948,0.0014542
 4,0.01118198,0.00313082,0.00376893,0.09086310,0.03435279,0.08772571,0.
 00059200,-0.00046533,0.00026383,-0.00002229,0.00028094,-0.00011053,-0.
 00182033,-0.00051969,-0.00127466,-0.18981844,0.12088021,0.06200641,-0.
 00025065,-0.00001101,-0.00026298,0.00045510,0.00044386,0.00014884,0.00
 022413,-0.00041575,0.00021989,0.00011690,-0.00021987,0.00041942,0.0046
 5692,-0.00417720,-0.00303392,-0.01873045,0.01750975,0.00943337,0.20419
 878,0.00027123,0.00171825,-0.00069627,0.00006217,-0.00004421,-0.000088
 76,-0.00022013,-0.00219514,0.00112193,0.12058903,-0.14767790,-0.051367
 67,0.00020433,-0.00011112,0.00023888,-0.00077096,-0.00002897,0.0001109
 1,0.00014106,-0.00011240,0.00015695,-0.00011582,0.00011965,-0.00052700
 ,0.02163564,-0.01586178,-0.01027532,-0.00841708,0.00717075,0.00482740,
 -0.13293016,0.15653330,0.00434867,-0.00188353,-0.00893887,-0.00005591,
 -0.00056880,0.00001473,0.02349416,-0.02038607,-0.00388281,0.06014446,-
 0.05000320,-0.07373104,0.00027188,-0.00005834,0.00123259,-0.00291299,-
 0.00089017,-0.00054389,0.00063923,0.00052791,0.00034852,-0.00008037,0.
 00108241,0.00100872,-0.00998832,0.00649479,0.00344452,-0.00785688,0.00
 838035,0.00327598,-0.06742968,0.05680668,0.07802953,0.00295057,0.00050
 921,-0.00008870,0.00001101,0.00011787,-0.00002568,-0.00666184,-0.03016
 825,0.01044948,0.00094629,0.00034257,0.00165812,-0.05175431,-0.0348820
 1,0.01353123,-0.00047685,-0.00022458,0.00002451,0.00015397,0.00007106,
 0.00004767,-0.00464388,-0.00157067,-0.00248356,0.00026487,0.00043259,-
 0.00065664,0.00002412,0.00032840,0.00014630,0.00001838,0.00011354,-0.0
 0007207,0.05543068,0.00026775,0.00139681,-0.00001771,0.00000454,0.0002
 0149,-0.00004945,-0.00224079,-0.01490934,0.00464038,0.00075200,0.00058
 294,0.00051829,-0.03715036,-0.27753754,0.08724326,0.00022897,0.0004379
 0,-0.00006176,-0.00006495,-0.00016775,0.00003072,-0.00220790,0.0005843
 7,-0.00140318,-0.00012997,0.00019872,-0.00087380,0.00009132,0.00044474
 ,-0.00007146,-0.00011426,-0.00000291,0.00000290,0.04306829,0.30148433,
 0.00110897,0.00036094,-0.00008052,-0.00002724,-0.00004586,-0.00004299,
 -0.00176426,-0.01318339,0.00386607,0.00032188,-0.00121557,0.00125059,0
 .01393007,0.08839830,-0.08139686,0.00000910,-0.00024640,-0.00006304,0.
 00003882,0.00014024,-0.00000146,-0.00248310,-0.00100461,-0.00028658,-0
 .00026309,0.00030893,-0.00008350,0.00013834,0.00021645,0.00002716,0.00
 003293,-0.00007614,-0.00007022,-0.01303839,-0.09509551,0.08422769,0.00
 278434,0.00005025,0.00098632,-0.00001600,-0.00018482,0.00007083,0.0012
 9145,-0.00011956,-0.03119151,-0.00539626,-0.00187935,-0.00099415,-0.04
 814260,0.00065463,0.01928760,-0.00028902,-0.00028775,0.00009123,0.0002
 4400,0.00021719,-0.00001216,0.00120301,0.00036074,0.00075407,-0.000109
 51,0.00006955,0.00014816,0.00007715,-0.00023712,-0.00185928,0.00014380
 ,-0.00023426,0.00001421,-0.00133430,0.00068293,0.00438961,0.05017108,0
 .00083012,0.00004559,0.00087423,0.00000246,0.00000287,-0.00002877,0.00
 176270,-0.00179903,-0.01421606,-0.00257461,-0.00059243,-0.00038024,-0.
 00011424,-0.04797713,-0.00753594,0.00011800,-0.00003514,0.00009390,0.0
 0000260,-0.00001683,0.00003014,0.00078972,0.00015001,-0.00008610,-0.00
 008582,0.00025176,-0.00037324,-0.00014295,0.00051523,-0.00091578,-0.00
 013147,0.00009300,0.00039141,-0.00177034,0.00250497,0.03040490,0.00174
 497,0.04788237,0.00076872,0.00052955,0.00142676,-0.00001447,0.00004912
 ,0.00003528,0.00223214,-0.00020160,-0.01327648,-0.00316049,-0.00153742
 ,0.00041500,0.01592369,-0.00827898,-0.31948670,-0.00023528,0.00003702,
 0.00032259,0.00009474,-0.00003732,0.00006971,-0.00017472,-0.00030016,0
 .00072328,0.00011468,-0.00008071,0.00037510,0.00009028,-0.00006773,-0.
 00083536,0.00014698,0.00006748,0.00020853,0.00067593,-0.00092714,-0.00
 972752,-0.01670482,0.01055236,0.34594200,-0.00769018,-0.00322666,-0.00
 220685,0.00005306,0.00047604,-0.00007723,-0.01633634,0.01932298,0.0099
 8040,0.00080536,0.00065282,0.00074052,-0.20889573,0.11943923,0.0537757
 3,0.00033196,0.00184158,0.00000881,-0.00067864,-0.00083549,0.00005776,
 0.00068269,-0.00057361,0.00053457,-0.00003812,-0.00009255,-0.00006120,
 0.00025710,-0.00035130,0.00011177,0.00026381,-0.00038313,-0.00071294,0
 .00485874,-0.00344906,-0.00236552,-0.00070499,-0.00040181,0.00018498,0
 .22732444,-0.00331179,0.00009591,-0.00084345,0.00005744,0.00005296,0.0
 0001493,-0.00878677,0.00661607,0.00421135,0.00021709,-0.00001857,0.000
 00022,0.12193591,-0.13815284,-0.04221392,-0.00067775,0.00094715,-0.000
 11278,-0.00020428,-0.00025097,0.00003735,0.00071579,0.00026186,0.00057
 413,0.00012648,-0.00002067,-0.00007923,-0.00007721,0.00004274,0.000253
 54,-0.00016170,0.00027321,-0.00006809,0.02330128,-0.01518562,-0.009023
 50,-0.00086709,-0.00097649,0.00020053,-0.13230775,0.14630203,-0.003088
 97,-0.00082715,0.00000788,0.00000902,0.00007242,0.00004299,-0.00748815
 ,0.00899027,0.00172362,0.00018148,0.00014663,0.00010449,0.05592398,-0.
 04280241,-0.06647507,-0.00056644,0.00036317,0.00051617,-0.00010972,-0.
 00017621,0.00000307,0.00046697,-0.00001755,0.00028928,-0.00002401,0.00
 011602,-0.00002155,0.00017288,0.00006621,0.00015604,-0.00046607,-0.000
 27627,-0.00042181,-0.01013751,0.00605610,0.00236635,0.02512552,-0.0187
 6930,-0.00604698,-0.05993796,0.04708673,0.06784917,-0.01638955,-0.0324
 8594,0.00393712,-0.00452336,0.00115726,-0.00191546,0.00394133,-0.00682
 848,-0.00080150,-0.00038881,0.00062510,0.00012252,-0.00027633,0.000384
 03,-0.00008305,-0.05846660,-0.02809190,0.00013983,0.00926220,0.0226941
 4,-0.00325193,0.00013706,0.00147390,-0.00053901,0.00010850,0.00004283,
 -0.00020798,-0.00000086,-0.00005351,0.00021913,-0.00003995,0.00006106,
 0.00019482,0.00016673,0.00025946,-0.00002548,0.00005461,-0.00003898,0.
 00003576,-0.00013393,0.00009123,-0.00003401,0.06656241,-0.01154958,-0.
 01120945,0.00124356,0.00312489,0.00191442,0.00120084,0.00320133,0.0009
 9095,-0.00192713,-0.00034053,-0.00006484,0.00000617,-0.00002456,0.0007
 1317,0.00004631,-0.02634822,-0.32182156,0.04669621,-0.00695983,-0.0138
 3912,0.00186410,-0.00127729,0.00085284,0.00037601,0.00007683,-0.000006
 68,-0.00007542,-0.00000292,-0.00001816,0.00023642,0.00005098,0.0000872
 8,0.00016954,0.00032425,-0.00003035,0.00006213,0.00004334,-0.00003421,
 0.00001903,-0.00017665,-0.00002531,-0.00003939,0.03927899,0.34308350,-
 0.00223882,-0.00659104,0.00404437,-0.00229791,0.00294166,0.00725746,0.
 00036767,-0.00016116,0.00043581,0.00005681,0.00040340,0.00007898,0.000
 01403,-0.00009882,-0.00006791,0.00027439,0.04793422,-0.03848095,0.0011
 9170,0.00529103,-0.00108410,0.00015130,0.00028204,-0.00003807,-0.00012
 332,-0.00005678,-0.00006662,0.00003072,0.00003385,-0.00045079,-0.00012
 272,-0.00004416,0.00001639,-0.00000746,0.00000505,-0.00000707,-0.00005
 694,-0.00003987,-0.00007326,0.00000336,0.00001291,0.00000300,0.0021860
 4,-0.04956440,0.03109968,-0.00134254,0.00390640,-0.00078794,0.00452898
 ,-0.00056093,0.00065477,0.00029237,-0.00077550,-0.00151505,-0.00002073
 ,-0.00002717,0.00003878,-0.00031974,0.00033887,0.00019601,-0.01602800,
 -0.01437199,0.00005570,-0.30538137,-0.09694498,-0.02383255,-0.00016533
 ,0.00015610,0.00004296,0.00003437,-0.00000243,0.00000422,-0.00001536,-
 0.00000077,0.00003228,-0.00002388,0.00000579,0.00002935,0.00004243,-0.
 00000964,0.00000044,0.00003939,0.00000534,0.00001395,-0.00013767,-0.00
 005004,-0.00002647,-0.00016026,0.00090039,0.00066582,0.31663476,0.0034
 6194,-0.00217532,0.00197478,-0.02890792,-0.02373338,0.00070631,-0.0002
 5609,0.00061877,0.00098668,-0.00001385,-0.00005668,-0.00003110,0.00025
 312,-0.00029381,-0.00012040,0.01524411,0.01173973,0.00055618,-0.095476
 34,-0.09575218,-0.00209745,0.00013546,-0.00009905,-0.00004867,0.000007
 59,0.00000987,-0.00002392,0.00000300,0.00001163,-0.00002584,0.00002708
 ,0.00000966,-0.00003869,-0.00002093,0.00001025,-0.00000890,-0.00003268
 ,-0.00000598,-0.00001459,0.00012642,0.00003988,0.00001451,0.00026552,0
 .00006612,-0.00092592,0.10805989,0.10762379,-0.00041442,0.00431684,0.0
 0986913,0.00538123,0.00419937,0.00269194,-0.00141042,-0.00087614,0.000
 63484,-0.00022332,0.00007614,-0.00024723,-0.00016102,0.00018845,0.0001
 0909,-0.00703220,-0.00404242,-0.00012493,-0.02181892,-0.00281601,-0.03
 365651,0.00021191,0.00003092,-0.00008151,-0.00000958,-0.00000441,0.000
 01353,0.00013076,-0.00000397,0.00000101,0.00002995,0.00002374,0.000052
 69,-0.00001429,-0.00000463,0.00001382,-0.00003073,-0.00000664,-0.00004
 946,-0.00005789,-0.00004488,-0.00010021,0.00050644,-0.00058970,-0.0046
 1736,0.02417293,-0.00019623,0.02473968,0.00185968,0.00074777,0.0003529
 3,-0.45393566,0.19565825,-0.10649859,-0.00029723,0.00050058,-0.0000926
 0,0.00004367,-0.00009573,-0.00005251,0.00003492,-0.00003611,-0.0000344
 5,-0.00061915,-0.00344448,0.00019038,0.00348290,-0.01027742,0.00325926
 ,-0.00006233,0.00000493,0.00002036,0.00000605,0.00001754,0.00000204,-0
 .00000168,0.00003716,0.00006494,0.00003618,-0.00001231,-0.00002764,0.0
 0000340,0.00001167,-0.00000309,-0.00001615,0.00000432,0.00000794,0.000
 03843,-0.00000083,-0.00000054,0.00014682,-0.00032142,-0.00009468,0.002
 02258,-0.00287630,0.00073957,0.44725758,-0.00256290,0.00073626,-0.0005
 9469,0.13961389,-0.10568098,0.04137257,0.00074926,-0.00057821,-0.00015
 975,-0.00007002,0.00011393,0.00006812,-0.00004613,0.00010249,0.0000361
 5,-0.00324845,-0.00588725,0.00077700,0.04506253,-0.02666731,0.01091374
 ,-0.00008593,0.00015124,0.00000786,0.00002870,-0.00001783,-0.00002952,
 0.00000139,-0.00005660,-0.00004163,-0.00004638,0.00002934,0.00004089,0
 .00002773,-0.00001299,0.00000800,0.00001905,-0.00000855,-0.00000942,-0
 .00006106,-0.00000134,-0.00000381,0.00116526,-0.00065859,0.00057799,-0
 .00062933,0.00198669,-0.00025044,-0.17991762,0.13644970,0.00101369,0.0
 0025916,-0.00027124,-0.09620797,0.05008686,-0.02246490,-0.00034702,0.0
 0023985,0.00010416,0.00001604,-0.00003360,-0.00004147,0.00001694,-0.00
 002513,-0.00001622,-0.00003601,0.00060729,0.00024847,-0.00635026,0.002
 05487,-0.00696125,-0.00003778,-0.00005005,-0.00000654,0.00002744,0.000
 02614,0.00003351,-0.00002703,-0.00002608,0.00003965,-0.00000107,-0.000
 00237,-0.00004354,-0.00000894,0.00000796,0.00000809,-0.00001795,0.0000
 0501,-0.00002250,0.00002170,-0.00000583,0.00000355,-0.00048324,0.00027
 573,0.00195044,0.00025478,-0.00070674,0.00075147,0.10216668,-0.0527130
 8,0.02668831\\0.00000021,-0.00000012,-0.00000015,0.00000017,0.00000039
 ,0.00000033,-0.00000005,-0.00000060,-0.00000011,-0.00000030,-0.0000000
 7,-0.00000050,0.00000015,-0.00000030,0.,0.00000025,0.00000012,0.000000
 16,-0.00000017,0.00000048,0.00000054,-0.00000014,-0.00000019,-0.000000
 13,-0.00000017,-0.00000022,-0.00000015,-0.00000046,-0.00000006,0.00000
 011,-0.00000070,-0.00000005,-0.00000008,0.00000036,0.00000003,-0.00000
 054,0.00000032,-0.00000033,-0.00000035,0.00000004,-0.00000049,-0.00000
 054,-0.00000005,0.00000037,0.00000022,0.00000012,0.00000058,0.00000070
 ,0.00000041,0.00000045,0.00000050\\\@


 The mind is not a vessel to be filled but a fire to be kindled.
                                  -- Plutarch
 Job cpu time:       0 days  2 hours 33 minutes 16.3 seconds.
 Elapsed time:       0 days  1 hours 16 minutes 39.0 seconds.
 File lengths (MBytes):  RWF=   1392 Int=      0 D2E=      0 Chk=     32 Scr=     32
 Normal termination of Gaussian 16 at Sun Sep 29 16:45:25 2019.
