 Entering Gaussian System, Link 0=g16
 Input=med/species/CC(C)OC=CO/conformers/CC(C)OC=CO_154.com
 Output=med/species/CC(C)OC=CO/conformers/CC(C)OC=CO_154.log
 Initial command:
 /shared/centos7/gaussian/g16/l1.exe "/scratch/harms.n/gauss_scrdir/Gau-15666.inp" -scrdir="/scratch/harms.n/gauss_scrdir/"
 Entering Link 1 = /shared/centos7/gaussian/g16/l1.exe PID=     15667.
  
 Copyright (c) 1988,1990,1992,1993,1995,1998,2003,2009,2016,
            Gaussian, Inc.  All Rights Reserved.
  
 This is part of the Gaussian(R) 16 program.  It is based on
 the Gaussian(R) 09 system (copyright 2009, Gaussian, Inc.),
 the Gaussian(R) 03 system (copyright 2003, Gaussian, Inc.),
 the Gaussian(R) 98 system (copyright 1998, Gaussian, Inc.),
 the Gaussian(R) 94 system (copyright 1995, Gaussian, Inc.),
 the Gaussian 92(TM) system (copyright 1992, Gaussian, Inc.),
 the Gaussian 90(TM) system (copyright 1990, Gaussian, Inc.),
 the Gaussian 88(TM) system (copyright 1988, Gaussian, Inc.),
 the Gaussian 86(TM) system (copyright 1986, Carnegie Mellon
 University), and the Gaussian 82(TM) system (copyright 1983,
 Carnegie Mellon University). Gaussian is a federally registered
 trademark of Gaussian, Inc.
  
 This software contains proprietary and confidential information,
 including trade secrets, belonging to Gaussian, Inc.
  
 This software is provided under written license and may be
 used, copied, transmitted, or stored only in accord with that
 written license.
  
 The following legend is applicable only to US Government
 contracts under FAR:
  
                    RESTRICTED RIGHTS LEGEND
  
 Use, reproduction and disclosure by the US Government is
 subject to restrictions as set forth in subparagraphs (a)
 and (c) of the Commercial Computer Software - Restricted
 Rights clause in FAR 52.227-19.
  
 Gaussian, Inc.
 340 Quinnipiac St., Bldg. 40, Wallingford CT 06492
  
  
 ---------------------------------------------------------------
 Warning -- This program may not be used in any manner that
 competes with the business of Gaussian, Inc. or will provide
 assistance to any competitor of Gaussian, Inc.  The licensee
 of this program is prohibited from giving any competitor of
 Gaussian, Inc. access to this program.  By using this program,
 the user acknowledges that Gaussian, Inc. is engaged in the
 business of creating and licensing software in the field of
 computational chemistry and represents and warrants to the
 licensee that it is not a competitor of Gaussian, Inc. and that
 it will not use this program in any manner prohibited above.
 ---------------------------------------------------------------
  

 Cite this work as:
 Gaussian 16, Revision A.03,
 M. J. Frisch, G. W. Trucks, H. B. Schlegel, G. E. Scuseria, 
 M. A. Robb, J. R. Cheeseman, G. Scalmani, V. Barone, 
 G. A. Petersson, H. Nakatsuji, X. Li, M. Caricato, A. V. Marenich, 
 J. Bloino, B. G. Janesko, R. Gomperts, B. Mennucci, H. P. Hratchian, 
 J. V. Ortiz, A. F. Izmaylov, J. L. Sonnenberg, D. Williams-Young, 
 F. Ding, F. Lipparini, F. Egidi, J. Goings, B. Peng, A. Petrone, 
 T. Henderson, D. Ranasinghe, V. G. Zakrzewski, J. Gao, N. Rega, 
 G. Zheng, W. Liang, M. Hada, M. Ehara, K. Toyota, R. Fukuda, 
 J. Hasegawa, M. Ishida, T. Nakajima, Y. Honda, O. Kitao, H. Nakai, 
 T. Vreven, K. Throssell, J. A. Montgomery, Jr., J. E. Peralta, 
 F. Ogliaro, M. J. Bearpark, J. J. Heyd, E. N. Brothers, K. N. Kudin, 
 V. N. Staroverov, T. A. Keith, R. Kobayashi, J. Normand, 
 K. Raghavachari, A. P. Rendell, J. C. Burant, S. S. Iyengar, 
 J. Tomasi, M. Cossi, J. M. Millam, M. Klene, C. Adamo, R. Cammi, 
 J. W. Ochterski, R. L. Martin, K. Morokuma, O. Farkas, 
 J. B. Foresman, and D. J. Fox, Gaussian, Inc., Wallingford CT, 2016.
 
 ******************************************
 Gaussian 16:  EM64L-G16RevA.03 25-Dec-2016
                26-Sep-2019 
 ******************************************
 %nprocshared=20
 Will use up to   20 processors via shared memory.
 %mem=5GB
 ----------------------------------------------------------------------
 #p m062x/cc-pVTZ opt=(calcfc,maxcycles=900,Tight) freq IOP(7/33=1,2/16
 =3) scf=(maxcycle=900)
 ----------------------------------------------------------------------
 1/6=900,7=10,10=4,18=20,19=15,26=3,38=1/1,3;
 2/9=110,12=2,16=3,17=6,18=5,40=1/2;
 3/5=16,6=1,11=2,25=1,30=1,71=2,74=-55,140=1/1,2,3;
 4//1;
 5/5=2,7=900,38=5/2;
 8/6=4,10=90,11=11/1;
 11/6=1,8=1,9=11,15=111,16=1/1,2,10;
 10/6=1,13=1/2;
 6/7=2,8=2,9=2,10=2,28=1/1;
 7/10=1,18=20,25=1,33=1/1,2,3,16;
 1/6=900,7=10,10=4,18=20,19=15,26=3/3(2);
 2/9=110,16=3/2;
 99//99;
 2/9=110,16=3/2;
 3/5=16,6=1,11=2,25=1,30=1,71=1,74=-55/1,2,3;
 4/5=5,16=3,69=1/1;
 5/5=2,7=900,38=5/2;
 7/33=1/1,2,3,16;
 1/6=900,7=10,18=20,19=15,26=3/3(-5);
 2/9=110,16=3/2;
 6/7=2,8=2,9=2,10=2,19=2,28=1/1;
 99/9=1/99;
 Leave Link    1 at Thu Sep 26 11:50:48 2019, MaxMem=   671088640 cpu:               4.3 elap:               2.2
 (Enter /shared/centos7/gaussian/g16/l101.exe)
 ------------------------------
 Gaussian input prepared by ASE
 ------------------------------
 Symbolic Z-matrix:
 Charge =  0 Multiplicity = 1
 O                     1.47463  -0.75557   3.53036 
 O                     0.75355   1.47251   1.42129 
 C                     0.60876   0.1858    4.12866 
 C                     1.37087   0.9402    5.2182 
 C                    -0.62815  -0.48662   4.62661 
 C                     1.80093  -0.58962   2.20375 
 C                     1.51443   0.31774   1.31568 
 H                     0.28995   0.9364    3.35322 
 H                     2.32361   0.4171    5.44373 
 H                     1.62428   1.96559   4.89288 
 H                     0.78849   1.00967   6.17665 
 H                    -0.64885  -0.57418   5.75293 
 H                    -0.71438  -1.51022   4.20604 
 H                    -1.55291   0.08009   4.32129 
 H                     2.43823  -1.43309   1.89366 
 H                     1.88228   0.17195   0.31076 
 H                     1.00116   1.91897   2.28219 
 
 ITRead=  0  0  0  0  0  0  0  0  0  0  0  0  0  0  0  0  0
 MicOpt= -1 -1 -1 -1 -1 -1 -1 -1 -1 -1 -1 -1 -1 -1 -1 -1 -1
 NAtoms=     17 NQM=       17 NQMF=       0 NMMI=      0 NMMIF=      0
                NMic=       0 NMicF=      0.
                    Isotopes and Nuclear Properties:
 (Nuclear quadrupole moments (NQMom) in fm**2, nuclear magnetic moments (NMagM)
  in nuclear magnetons)

  Atom         1           2           3           4           5           6           7           8           9          10
 IAtWgt=          16          16          12          12          12          12          12           1           1           1
 AtmWgt=  15.9949146  15.9949146  12.0000000  12.0000000  12.0000000  12.0000000  12.0000000   1.0078250   1.0078250   1.0078250
 NucSpn=           0           0           0           0           0           0           0           1           1           1
 AtZEff=  -0.0000000  -0.0000000  -0.0000000  -0.0000000  -0.0000000  -0.0000000  -0.0000000  -0.0000000  -0.0000000  -0.0000000
 NQMom=    0.0000000   0.0000000   0.0000000   0.0000000   0.0000000   0.0000000   0.0000000   0.0000000   0.0000000   0.0000000
 NMagM=    0.0000000   0.0000000   0.0000000   0.0000000   0.0000000   0.0000000   0.0000000   2.7928460   2.7928460   2.7928460
 AtZNuc=   8.0000000   8.0000000   6.0000000   6.0000000   6.0000000   6.0000000   6.0000000   1.0000000   1.0000000   1.0000000

  Atom        11          12          13          14          15          16          17
 IAtWgt=           1           1           1           1           1           1           1
 AtmWgt=   1.0078250   1.0078250   1.0078250   1.0078250   1.0078250   1.0078250   1.0078250
 NucSpn=           1           1           1           1           1           1           1
 AtZEff=  -0.0000000  -0.0000000  -0.0000000  -0.0000000  -0.0000000  -0.0000000  -0.0000000
 NQMom=    0.0000000   0.0000000   0.0000000   0.0000000   0.0000000   0.0000000   0.0000000
 NMagM=    2.7928460   2.7928460   2.7928460   2.7928460   2.7928460   2.7928460   2.7928460
 AtZNuc=   1.0000000   1.0000000   1.0000000   1.0000000   1.0000000   1.0000000   1.0000000
 Leave Link  101 at Thu Sep 26 11:50:50 2019, MaxMem=   671088640 cpu:               3.2 elap:               1.6
 (Enter /shared/centos7/gaussian/g16/l103.exe)

 GradGradGradGradGradGradGradGradGradGradGradGradGradGradGradGradGradGrad
 Berny optimization.
 Initialization pass.
                           ----------------------------
                           !    Initial Parameters    !
                           ! (Angstroms and Degrees)  !
 --------------------------                            --------------------------
 ! Name  Definition              Value          Derivative Info.                !
 --------------------------------------------------------------------------------
 ! R1    R(1,3)                  1.412          calculate D2E/DX2 analytically  !
 ! R2    R(1,6)                  1.3762         calculate D2E/DX2 analytically  !
 ! R3    R(2,7)                  1.3869         calculate D2E/DX2 analytically  !
 ! R4    R(2,17)                 1.0009         calculate D2E/DX2 analytically  !
 ! R5    R(3,4)                  1.5287         calculate D2E/DX2 analytically  !
 ! R6    R(3,5)                  1.4933         calculate D2E/DX2 analytically  !
 ! R7    R(3,8)                  1.1253         calculate D2E/DX2 analytically  !
 ! R8    R(4,9)                  1.1101         calculate D2E/DX2 analytically  !
 ! R9    R(4,10)                 1.1052         calculate D2E/DX2 analytically  !
 ! R10   R(4,11)                 1.1237         calculate D2E/DX2 analytically  !
 ! R11   R(5,12)                 1.1299         calculate D2E/DX2 analytically  !
 ! R12   R(5,13)                 1.11           calculate D2E/DX2 analytically  !
 ! R13   R(5,14)                 1.1267         calculate D2E/DX2 analytically  !
 ! R14   R(6,7)                  1.3016         calculate D2E/DX2 analytically  !
 ! R15   R(6,15)                 1.1017         calculate D2E/DX2 analytically  !
 ! R16   R(7,16)                 1.08           calculate D2E/DX2 analytically  !
 ! A1    A(3,1,6)              118.2585         calculate D2E/DX2 analytically  !
 ! A2    A(7,2,17)             107.528          calculate D2E/DX2 analytically  !
 ! A3    A(1,3,4)              108.9827         calculate D2E/DX2 analytically  !
 ! A4    A(1,3,5)              110.4262         calculate D2E/DX2 analytically  !
 ! A5    A(1,3,8)              109.0518         calculate D2E/DX2 analytically  !
 ! A6    A(4,3,5)              113.4203         calculate D2E/DX2 analytically  !
 ! A7    A(4,3,8)              107.6499         calculate D2E/DX2 analytically  !
 ! A8    A(5,3,8)              107.1846         calculate D2E/DX2 analytically  !
 ! A9    A(3,4,9)              109.8846         calculate D2E/DX2 analytically  !
 ! A10   A(3,4,10)             111.2451         calculate D2E/DX2 analytically  !
 ! A11   A(3,4,11)             112.3369         calculate D2E/DX2 analytically  !
 ! A12   A(9,4,10)             107.4709         calculate D2E/DX2 analytically  !
 ! A13   A(9,4,11)             107.4979         calculate D2E/DX2 analytically  !
 ! A14   A(10,4,11)            108.2131         calculate D2E/DX2 analytically  !
 ! A15   A(3,5,12)             112.4858         calculate D2E/DX2 analytically  !
 ! A16   A(3,5,13)             110.6858         calculate D2E/DX2 analytically  !
 ! A17   A(3,5,14)             111.2828         calculate D2E/DX2 analytically  !
 ! A18   A(12,5,13)            107.7466         calculate D2E/DX2 analytically  !
 ! A19   A(12,5,14)            107.1006         calculate D2E/DX2 analytically  !
 ! A20   A(13,5,14)            107.3009         calculate D2E/DX2 analytically  !
 ! A21   A(1,6,7)              133.5988         calculate D2E/DX2 analytically  !
 ! A22   A(1,6,15)             108.4308         calculate D2E/DX2 analytically  !
 ! A23   A(7,6,15)             117.9704         calculate D2E/DX2 analytically  !
 ! A24   A(2,7,6)              130.4842         calculate D2E/DX2 analytically  !
 ! A25   A(2,7,16)             111.7216         calculate D2E/DX2 analytically  !
 ! A26   A(6,7,16)             117.7619         calculate D2E/DX2 analytically  !
 ! D1    D(6,1,3,4)           -115.2515         calculate D2E/DX2 analytically  !
 ! D2    D(6,1,3,5)            119.5337         calculate D2E/DX2 analytically  !
 ! D3    D(6,1,3,8)              2.0074         calculate D2E/DX2 analytically  !
 ! D4    D(3,1,6,7)              2.7882         calculate D2E/DX2 analytically  !
 ! D5    D(3,1,6,15)          -177.2816         calculate D2E/DX2 analytically  !
 ! D6    D(17,2,7,6)            43.5221         calculate D2E/DX2 analytically  !
 ! D7    D(17,2,7,16)         -138.6317         calculate D2E/DX2 analytically  !
 ! D8    D(1,3,4,9)            -13.4047         calculate D2E/DX2 analytically  !
 ! D9    D(1,3,4,10)           105.4869         calculate D2E/DX2 analytically  !
 ! D10   D(1,3,4,11)          -133.0272         calculate D2E/DX2 analytically  !
 ! D11   D(5,3,4,9)            110.0454         calculate D2E/DX2 analytically  !
 ! D12   D(5,3,4,10)          -131.063          calculate D2E/DX2 analytically  !
 ! D13   D(5,3,4,11)            -9.5771         calculate D2E/DX2 analytically  !
 ! D14   D(8,3,4,9)           -131.5493         calculate D2E/DX2 analytically  !
 ! D15   D(8,3,4,10)           -12.6577         calculate D2E/DX2 analytically  !
 ! D16   D(8,3,4,11)           108.8282         calculate D2E/DX2 analytically  !
 ! D17   D(1,3,5,12)           106.6757         calculate D2E/DX2 analytically  !
 ! D18   D(1,3,5,13)           -13.9158         calculate D2E/DX2 analytically  !
 ! D19   D(1,3,5,14)          -133.1404         calculate D2E/DX2 analytically  !
 ! D20   D(4,3,5,12)           -15.98           calculate D2E/DX2 analytically  !
 ! D21   D(4,3,5,13)          -136.5714         calculate D2E/DX2 analytically  !
 ! D22   D(4,3,5,14)           104.204          calculate D2E/DX2 analytically  !
 ! D23   D(8,3,5,12)          -134.6537         calculate D2E/DX2 analytically  !
 ! D24   D(8,3,5,13)           104.7549         calculate D2E/DX2 analytically  !
 ! D25   D(8,3,5,14)           -14.4697         calculate D2E/DX2 analytically  !
 ! D26   D(1,6,7,2)              0.2535         calculate D2E/DX2 analytically  !
 ! D27   D(1,6,7,16)          -177.4852         calculate D2E/DX2 analytically  !
 ! D28   D(15,6,7,2)          -179.6714         calculate D2E/DX2 analytically  !
 ! D29   D(15,6,7,16)            2.5898         calculate D2E/DX2 analytically  !
 --------------------------------------------------------------------------------
 Trust Radius=3.00D-01 FncErr=1.00D-07 GrdErr=1.00D-06 EigMax=2.50D+02 EigMin=1.00D-04
 Number of steps in this run=    102 maximum allowed number of steps=    102.
 GradGradGradGradGradGradGradGradGradGradGradGradGradGradGradGradGradGrad

 Leave Link  103 at Thu Sep 26 11:50:50 2019, MaxMem=   671088640 cpu:               1.6 elap:               0.8
 (Enter /shared/centos7/gaussian/g16/l202.exe)
                          Input orientation:                          
 ---------------------------------------------------------------------
 Center     Atomic      Atomic             Coordinates (Angstroms)
 Number     Number       Type             X           Y           Z
 ---------------------------------------------------------------------
      1          8           0        1.474630   -0.755571    3.530356
      2          8           0        0.753548    1.472506    1.421293
      3          6           0        0.608765    0.185803    4.128662
      4          6           0        1.370868    0.940201    5.218200
      5          6           0       -0.628151   -0.486621    4.626612
      6          6           0        1.800931   -0.589622    2.203750
      7          6           0        1.514435    0.317739    1.315680
      8          1           0        0.289950    0.936397    3.353218
      9          1           0        2.323606    0.417098    5.443734
     10          1           0        1.624281    1.965595    4.892875
     11          1           0        0.788487    1.009675    6.176655
     12          1           0       -0.648851   -0.574176    5.752929
     13          1           0       -0.714382   -1.510223    4.206045
     14          1           0       -1.552910    0.080092    4.321294
     15          1           0        2.438226   -1.433089    1.893662
     16          1           0        1.882279    0.171953    0.310762
     17          1           0        1.001157    1.918967    2.282191
 ---------------------------------------------------------------------
                    Distance matrix (angstroms):
                    1          2          3          4          5
     1  O    0.000000
     2  O    3.151576   0.000000
     3  C    1.412047   3.001068   0.000000
     4  C    2.394833   3.883418   1.528729   0.000000
     5  C    2.386587   4.002666   1.493342   2.526238   0.000000
     6  C    1.376189   2.441643   2.393288   3.407671   3.432391
     7  C    2.461375   1.386935   2.958126   3.954457   4.024914
     8  H    2.073065   2.057831   1.125320   2.155587   2.118826
     9  H    2.399359   4.445109   2.173383   1.110050   3.193316
    10  H    3.046899   3.612920   2.186996   1.105209   3.340315
    11  H    3.254194   4.777960   2.214800   1.123668   2.578448
    12  H    3.079271   4.991864   2.190300   2.580415   1.129905
    13  H    2.412017   4.336627   2.152490   3.373027   1.109989
    14  H    3.238813   3.958355   2.172814   3.176903   1.126748
    15  H    2.016511   3.391718   3.311037   4.221885   4.215150
    16  H    3.375243   2.049085   4.024722   4.993465   5.036123
    17  H    2.989188   1.000891   2.562671   3.116860   3.733337
                    6          7          8          9         10
     6  C    0.000000
     7  C    1.301558   0.000000
     8  H    2.435790   2.456351   0.000000
     9  H    3.432807   4.207785   2.962378   0.000000
    10  H    3.713722   3.940028   2.282592   1.786154   0.000000
    11  H    4.400768   4.963351   2.868048   1.801364   1.805665
    12  H    4.312580   5.016423   2.986937   3.148608   3.515289
    13  H    3.344172   4.082068   2.778840   3.804709   4.245279
    14  H    4.022531   4.301022   2.250903   4.049793   3.738498
    15  H    1.101697   2.062244   3.515659   4.004915   4.605306
    16  H    2.042062   1.080011   3.518014   5.157738   4.927421
    17  H    2.634161   1.939465   1.618134   3.741635   2.684424
                   11         12         13         14         15
    11  H    0.000000
    12  H    2.180382   0.000000
    13  H    3.534374   1.809235   0.000000
    14  H    3.128678   1.815205   1.801531   0.000000
    15  H    5.199304   5.016146   3.910499   4.910426   0.000000
    16  H    6.025517   6.048182   4.974494   5.281413   2.321811
    17  H    4.004858   4.580864   4.289946   3.750022   3.667751
                   16         17
    16  H    0.000000
    17  H    2.777582   0.000000
 Stoichiometry    C5H10O2
 Framework group  C1[X(C5H10O2)]
 Deg. of freedom    45
 Full point group                 C1      NOp   1
 Largest Abelian subgroup         C1      NOp   1
 Largest concise Abelian subgroup C1      NOp   1
                         Standard orientation:                         
 ---------------------------------------------------------------------
 Center     Atomic      Atomic             Coordinates (Angstroms)
 Number     Number       Type             X           Y           Z
 ---------------------------------------------------------------------
      1          8           0        0.218338   -1.027400   -0.376309
      2          8           0       -1.865722    1.182485    0.463654
      3          6           0        0.912543    0.116020    0.075961
      4          6           0        1.660950    0.741370   -1.101255
      5          6           0        1.799823   -0.233598    1.225122
      6          6           0       -1.157115   -1.013931   -0.333372
      7          6           0       -2.035643   -0.117230    0.010381
      8          1           0        0.168768    0.873777    0.448718
      9          1           0        1.681974    0.032145   -1.954934
     10          1           0        1.161537    1.664071   -1.448668
     11          1           0        2.725609    0.993394   -0.845097
     12          1           0        2.892485   -0.250434    0.937909
     13          1           0        1.540991   -1.234134    1.630100
     14          1           0        1.689887    0.507293    2.066880
     15          1           0       -1.525845   -1.994678   -0.673830
     16          1           0       -3.078131   -0.398180   -0.016253
     17          1           0       -1.161554    1.610274   -0.104612
 ---------------------------------------------------------------------
 Rotational constants (GHZ):           3.9791437           1.7006871           1.6026113
 Leave Link  202 at Thu Sep 26 11:50:52 2019, MaxMem=   671088640 cpu:               3.7 elap:               1.9
 (Enter /shared/centos7/gaussian/g16/l301.exe)
 Standard basis: CC-pVTZ (5D, 7F)
 Ernie: Thresh=  0.10000D-02 Tol=  0.10000D-05 Strict=F.
 Ernie:  21 primitive shells out of 262 were deleted.
 There are   395 symmetry adapted cartesian basis functions of A   symmetry.
 There are   350 symmetry adapted basis functions of A   symmetry.
   350 basis functions,   534 primitive gaussians,   395 cartesian basis functions
    28 alpha electrons       28 beta electrons
       nuclear repulsion energy       319.4568476698 Hartrees.
 IExCor= 4336 DFT=T Ex+Corr=M062X ExCW=0 ScaHFX=  0.540000
 ScaDFX=  1.000000  1.000000  1.000000  1.000000 ScalE2=  1.000000  1.000000
 IRadAn=      5 IRanWt=     -1 IRanGd=            0 ICorTp=0 IEmpDi=  4
 NAtoms=   17 NActive=   17 NUniq=   17 SFac= 1.00D+00 NAtFMM=   60 NAOKFM=F Big=F
 Integral buffers will be    131072 words long.
 Raffenetti 2 integral format.
 Two-electron integral symmetry is turned on.
 Leave Link  301 at Thu Sep 26 11:50:53 2019, MaxMem=   671088640 cpu:               1.8 elap:               0.9
 (Enter /shared/centos7/gaussian/g16/l302.exe)
 NPDir=0 NMtPBC=     1 NCelOv=     1 NCel=       1 NClECP=     1 NCelD=      1
         NCelK=      1 NCelE2=     1 NClLst=     1 CellRange=     0.0.
 One-electron integrals computed using PRISM.
 One-electron integral symmetry used in STVInt
 NBasis=   350 RedAO= T EigKep=  3.63D-04  NBF=   350
 NBsUse=   350 1.00D-06 EigRej= -1.00D+00 NBFU=   350
 Precomputing XC quadrature grid using
 IXCGrd= 4 IRadAn=           5 IRanWt=          -1 IRanGd=           0 AccXCQ= 0.00D+00.
 Generated NRdTot=       0 NPtTot=           0 NUsed=           0 NTot=          32
 NSgBfM=   395   395   395   395   395 MxSgAt=    17 MxSgA2=    17.
 Leave Link  302 at Thu Sep 26 11:51:52 2019, MaxMem=   671088640 cpu:             118.4 elap:              59.2
 (Enter /shared/centos7/gaussian/g16/l303.exe)
 DipDrv:  MaxL=1.
 Leave Link  303 at Thu Sep 26 11:51:56 2019, MaxMem=   671088640 cpu:               7.9 elap:               4.0
 (Enter /shared/centos7/gaussian/g16/l401.exe)
 ExpMin= 1.03D-01 ExpMax= 1.53D+04 ExpMxC= 5.22D+02 IAcc=3 IRadAn=         5 AccDes= 0.00D+00
 Harris functional with IExCor= 1009 and IRadAn=       5 diagonalized for initial guess.
 HarFok:  IExCor= 1009 AccDes= 0.00D+00 IRadAn=         5 IDoV= 1 UseB2=F ITyADJ=14
 ICtDFT=  3500011 ScaDFX=  1.000000  1.000000  1.000000  1.000000
 FoFCou: FMM=F IPFlag=           0 FMFlag=      100000 FMFlg1=           0
         NFxFlg=           0 DoJE=T BraDBF=F KetDBF=T FulRan=T
         wScrn=  0.000000 ICntrl=       500 IOpCl=  0 I1Cent=   200000004 NGrid=           0
         NMat0=    1 NMatS0=      1 NMatT0=    0 NMatD0=    1 NMtDS0=    0 NMtDT0=    0
 Petite list used in FoFCou.
 Harris En= -346.795941314901    
 JPrj=0 DoOrth=F DoCkMO=F.
 Leave Link  401 at Thu Sep 26 11:52:26 2019, MaxMem=   671088640 cpu:              58.7 elap:              29.4
 (Enter /shared/centos7/gaussian/g16/l502.exe)
 Integral symmetry usage will be decided dynamically.
 Closed shell SCF:
 Using DIIS extrapolation, IDIIS=  1040.
 NGot=   671088640 LenX=   670765141 LenY=   670608675
 Requested convergence on RMS density matrix=1.00D-08 within 900 cycles.
 Requested convergence on MAX density matrix=1.00D-06.
 Requested convergence on             energy=1.00D-06.
 No special actions if energy rises.
 Fock matrices will be formed incrementally for  20 cycles.
 Integral accuracy reduced to 1.0D-05 until final iterations.

 Cycle   1  Pass 0  IDiag  1:
 FoFJK:  IHMeth= 1 ICntrl=       0 DoSepK=F KAlg= 0 I1Cent=           0 FoldK=F
 IRaf= 960000000 NMat=       1 IRICut=       1 DoRegI=T DoRafI=F ISym2E= 0 IDoP0=0 IntGTp=1.
 FoFCou: FMM=F IPFlag=           0 FMFlag=      100000 FMFlg1=           0
         NFxFlg=           0 DoJE=F BraDBF=F KetDBF=F FulRan=T
         wScrn=  0.000000 ICntrl=         0 IOpCl=  0 I1Cent=           0 NGrid=           0
         NMat0=    1 NMatS0=      1 NMatT0=    0 NMatD0=    1 NMtDS0=    0 NMtDT0=    0
 Symmetry not used in FoFCou.
 E= -346.685297542401    
 DIIS: error= 2.58D-02 at cycle   1 NSaved=   1.
 NSaved= 1 IEnMin= 1 EnMin= -346.685297542401     IErMin= 1 ErrMin= 2.58D-02
 ErrMax= 2.58D-02  0.00D+00 EMaxC= 1.00D-01 BMatC= 2.84D-01 BMatP= 2.84D-01
 IDIUse=3 WtCom= 7.42D-01 WtEn= 2.58D-01
 Coeff-Com:  0.100D+01
 Coeff-En:   0.100D+01
 Coeff:      0.100D+01
 Gap=     0.350 Goal=   None    Shift=    0.000
 GapD=    0.350 DampG=1.000 DampE=0.500 DampFc=0.5000 IDamp=-1.
 Damping current iteration by 5.00D-01
 RMSDP=1.94D-03 MaxDP=8.78D-02              OVMax= 1.47D-01

 Cycle   2  Pass 0  IDiag  1:
 RMSU=  9.71D-04    CP:  1.00D+00
 E= -346.803755816434     Delta-E=       -0.118458274033 Rises=F Damp=T
 DIIS: error= 4.16D-03 at cycle   2 NSaved=   2.
 NSaved= 2 IEnMin= 2 EnMin= -346.803755816434     IErMin= 2 ErrMin= 4.16D-03
 ErrMax= 4.16D-03  0.00D+00 EMaxC= 1.00D-01 BMatC= 2.12D-02 BMatP= 2.84D-01
 IDIUse=3 WtCom= 9.58D-01 WtEn= 4.16D-02
 Coeff-Com: -0.143D+00 0.114D+01
 Coeff-En:   0.000D+00 0.100D+01
 Coeff:     -0.137D+00 0.114D+01
 Gap=     0.319 Goal=   None    Shift=    0.000
 RMSDP=4.31D-04 MaxDP=1.43D-02 DE=-1.18D-01 OVMax= 7.19D-02

 Cycle   3  Pass 0  IDiag  1:
 RMSU=  4.30D-04    CP:  1.00D+00  9.92D-01
 E= -346.909024573053     Delta-E=       -0.105268756619 Rises=F Damp=F
 DIIS: error= 2.15D-03 at cycle   3 NSaved=   3.
 NSaved= 3 IEnMin= 3 EnMin= -346.909024573053     IErMin= 3 ErrMin= 2.15D-03
 ErrMax= 2.15D-03  0.00D+00 EMaxC= 1.00D-01 BMatC= 3.47D-03 BMatP= 2.12D-02
 IDIUse=3 WtCom= 9.78D-01 WtEn= 2.15D-02
 Coeff-Com: -0.835D-01 0.312D+00 0.772D+00
 Coeff-En:   0.000D+00 0.000D+00 0.100D+01
 Coeff:     -0.817D-01 0.305D+00 0.777D+00
 Gap=     0.321 Goal=   None    Shift=    0.000
 RMSDP=1.58D-04 MaxDP=7.79D-03 DE=-1.05D-01 OVMax= 1.54D-02

 Cycle   4  Pass 0  IDiag  1:
 RMSU=  1.23D-04    CP:  1.00D+00  1.08D+00  8.80D-01
 E= -346.910829977922     Delta-E=       -0.001805404869 Rises=F Damp=F
 DIIS: error= 1.22D-03 at cycle   4 NSaved=   4.
 NSaved= 4 IEnMin= 4 EnMin= -346.910829977922     IErMin= 4 ErrMin= 1.22D-03
 ErrMax= 1.22D-03  0.00D+00 EMaxC= 1.00D-01 BMatC= 1.06D-03 BMatP= 3.47D-03
 IDIUse=3 WtCom= 9.88D-01 WtEn= 1.22D-02
 Coeff-Com: -0.280D-01 0.732D-01 0.397D+00 0.558D+00
 Coeff-En:   0.000D+00 0.000D+00 0.201D+00 0.799D+00
 Coeff:     -0.277D-01 0.724D-01 0.394D+00 0.561D+00
 Gap=     0.316 Goal=   None    Shift=    0.000
 RMSDP=6.71D-05 MaxDP=2.73D-03 DE=-1.81D-03 OVMax= 7.94D-03

 Cycle   5  Pass 0  IDiag  1:
 RMSU=  2.81D-05    CP:  1.00D+00  1.06D+00  9.36D-01  5.59D-01
 E= -346.911612084335     Delta-E=       -0.000782106413 Rises=F Damp=F
 DIIS: error= 2.55D-04 at cycle   5 NSaved=   5.
 NSaved= 5 IEnMin= 5 EnMin= -346.911612084335     IErMin= 5 ErrMin= 2.55D-04
 ErrMax= 2.55D-04  0.00D+00 EMaxC= 1.00D-01 BMatC= 2.79D-05 BMatP= 1.06D-03
 IDIUse=3 WtCom= 9.97D-01 WtEn= 2.55D-03
 Coeff-Com: -0.501D-02 0.978D-02 0.102D+00 0.213D+00 0.680D+00
 Coeff-En:   0.000D+00 0.000D+00 0.000D+00 0.000D+00 0.100D+01
 Coeff:     -0.499D-02 0.976D-02 0.102D+00 0.213D+00 0.681D+00
 Gap=     0.316 Goal=   None    Shift=    0.000
 RMSDP=1.32D-05 MaxDP=4.04D-04 DE=-7.82D-04 OVMax= 1.93D-03

 Cycle   6  Pass 0  IDiag  1:
 RMSU=  8.65D-06    CP:  1.00D+00  1.06D+00  9.41D-01  6.17D-01  7.80D-01
 E= -346.911633943770     Delta-E=       -0.000021859435 Rises=F Damp=F
 DIIS: error= 6.45D-05 at cycle   6 NSaved=   6.
 NSaved= 6 IEnMin= 6 EnMin= -346.911633943770     IErMin= 6 ErrMin= 6.45D-05
 ErrMax= 6.45D-05  0.00D+00 EMaxC= 1.00D-01 BMatC= 2.59D-06 BMatP= 2.79D-05
 IDIUse=1 WtCom= 1.00D+00 WtEn= 0.00D+00
 Coeff-Com: -0.221D-03-0.803D-03 0.185D-01 0.595D-01 0.289D+00 0.634D+00
 Coeff:     -0.221D-03-0.803D-03 0.185D-01 0.595D-01 0.289D+00 0.634D+00
 Gap=     0.316 Goal=   None    Shift=    0.000
 RMSDP=4.11D-06 MaxDP=1.49D-04 DE=-2.19D-05 OVMax= 5.53D-04

 Initial convergence to 1.0D-05 achieved.  Increase integral accuracy.
 Cycle   7  Pass 1  IDiag  1:
 E= -346.911642170507     Delta-E=       -0.000008226737 Rises=F Damp=F
 DIIS: error= 3.38D-05 at cycle   1 NSaved=   1.
 NSaved= 1 IEnMin= 1 EnMin= -346.911642170507     IErMin= 1 ErrMin= 3.38D-05
 ErrMax= 3.38D-05  0.00D+00 EMaxC= 1.00D-01 BMatC= 6.31D-07 BMatP= 6.31D-07
 IDIUse=1 WtCom= 1.00D+00 WtEn= 0.00D+00
 Coeff-Com:  0.100D+01
 Coeff:      0.100D+01
 Gap=     0.316 Goal=   None    Shift=    0.000
 RMSDP=4.11D-06 MaxDP=1.49D-04 DE=-8.23D-06 OVMax= 4.22D-04

 Cycle   8  Pass 1  IDiag  1:
 RMSU=  7.21D-06    CP:  1.00D+00
 E= -346.911642253085     Delta-E=       -0.000000082578 Rises=F Damp=F
 DIIS: error= 2.55D-05 at cycle   2 NSaved=   2.
 NSaved= 2 IEnMin= 2 EnMin= -346.911642253085     IErMin= 2 ErrMin= 2.55D-05
 ErrMax= 2.55D-05  0.00D+00 EMaxC= 1.00D-01 BMatC= 4.89D-07 BMatP= 6.31D-07
 IDIUse=1 WtCom= 1.00D+00 WtEn= 0.00D+00
 Coeff-Com:  0.459D+00 0.541D+00
 Coeff:      0.459D+00 0.541D+00
 Gap=     0.316 Goal=   None    Shift=    0.000
 RMSDP=1.76D-06 MaxDP=6.61D-05 DE=-8.26D-08 OVMax= 2.90D-04

 Cycle   9  Pass 1  IDiag  1:
 RMSU=  1.74D-06    CP:  1.00D+00  9.67D-01
 E= -346.911642591250     Delta-E=       -0.000000338165 Rises=F Damp=F
 DIIS: error= 8.61D-06 at cycle   3 NSaved=   3.
 NSaved= 3 IEnMin= 3 EnMin= -346.911642591250     IErMin= 3 ErrMin= 8.61D-06
 ErrMax= 8.61D-06  0.00D+00 EMaxC= 1.00D-01 BMatC= 5.23D-08 BMatP= 4.89D-07
 IDIUse=1 WtCom= 1.00D+00 WtEn= 0.00D+00
 Coeff-Com: -0.142D-01 0.237D+00 0.777D+00
 Coeff:     -0.142D-01 0.237D+00 0.777D+00
 Gap=     0.316 Goal=   None    Shift=    0.000
 RMSDP=5.42D-07 MaxDP=2.05D-05 DE=-3.38D-07 OVMax= 8.53D-05

 Cycle  10  Pass 1  IDiag  1:
 RMSU=  3.29D-07    CP:  1.00D+00  1.01D+00  8.24D-01
 E= -346.911642632870     Delta-E=       -0.000000041619 Rises=F Damp=F
 DIIS: error= 1.27D-06 at cycle   4 NSaved=   4.
 NSaved= 4 IEnMin= 4 EnMin= -346.911642632870     IErMin= 4 ErrMin= 1.27D-06
 ErrMax= 1.27D-06  0.00D+00 EMaxC= 1.00D-01 BMatC= 1.58D-09 BMatP= 5.23D-08
 IDIUse=1 WtCom= 1.00D+00 WtEn= 0.00D+00
 Coeff-Com: -0.160D-01 0.755D-01 0.304D+00 0.636D+00
 Coeff:     -0.160D-01 0.755D-01 0.304D+00 0.636D+00
 Gap=     0.316 Goal=   None    Shift=    0.000
 RMSDP=9.04D-08 MaxDP=4.09D-06 DE=-4.16D-08 OVMax= 8.03D-06

 Cycle  11  Pass 1  IDiag  1:
 RMSU=  7.82D-08    CP:  1.00D+00  1.01D+00  8.44D-01  1.06D+00
 E= -346.911642634154     Delta-E=       -0.000000001284 Rises=F Damp=F
 DIIS: error= 4.11D-07 at cycle   5 NSaved=   5.
 NSaved= 5 IEnMin= 5 EnMin= -346.911642634154     IErMin= 5 ErrMin= 4.11D-07
 ErrMax= 4.11D-07  0.00D+00 EMaxC= 1.00D-01 BMatC= 1.22D-10 BMatP= 1.58D-09
 IDIUse=1 WtCom= 1.00D+00 WtEn= 0.00D+00
 Coeff-Com: -0.250D-02-0.143D-01-0.192D-01 0.156D+00 0.880D+00
 Coeff:     -0.250D-02-0.143D-01-0.192D-01 0.156D+00 0.880D+00
 Gap=     0.316 Goal=   None    Shift=    0.000
 RMSDP=4.56D-08 MaxDP=1.49D-06 DE=-1.28D-09 OVMax= 4.49D-06

 Cycle  12  Pass 1  IDiag  1:
 RMSU=  2.80D-08    CP:  1.00D+00  1.01D+00  8.52D-01  1.16D+00  1.04D+00
 E= -346.911642634299     Delta-E=       -0.000000000145 Rises=F Damp=F
 DIIS: error= 1.61D-07 at cycle   6 NSaved=   6.
 NSaved= 6 IEnMin= 6 EnMin= -346.911642634299     IErMin= 6 ErrMin= 1.61D-07
 ErrMax= 1.61D-07  0.00D+00 EMaxC= 1.00D-01 BMatC= 2.22D-11 BMatP= 1.22D-10
 IDIUse=1 WtCom= 1.00D+00 WtEn= 0.00D+00
 Coeff-Com:  0.746D-03-0.139D-01-0.391D-01-0.735D-02 0.369D+00 0.691D+00
 Coeff:      0.746D-03-0.139D-01-0.391D-01-0.735D-02 0.369D+00 0.691D+00
 Gap=     0.316 Goal=   None    Shift=    0.000
 RMSDP=1.94D-08 MaxDP=7.57D-07 DE=-1.45D-10 OVMax= 1.66D-06

 Cycle  13  Pass 1  IDiag  1:
 RMSU=  1.09D-08    CP:  1.00D+00  1.01D+00  8.55D-01  1.20D+00  1.13D+00
                    CP:  8.35D-01
 E= -346.911642634333     Delta-E=       -0.000000000034 Rises=F Damp=F
 DIIS: error= 5.11D-08 at cycle   7 NSaved=   7.
 NSaved= 7 IEnMin= 7 EnMin= -346.911642634333     IErMin= 7 ErrMin= 5.11D-08
 ErrMax= 5.11D-08  0.00D+00 EMaxC= 1.00D-01 BMatC= 2.50D-12 BMatP= 2.22D-11
 IDIUse=1 WtCom= 1.00D+00 WtEn= 0.00D+00
 Coeff-Com:  0.595D-03-0.517D-02-0.166D-01-0.201D-01 0.831D-01 0.302D+00
 Coeff-Com:  0.656D+00
 Coeff:      0.595D-03-0.517D-02-0.166D-01-0.201D-01 0.831D-01 0.302D+00
 Coeff:      0.656D+00
 Gap=     0.316 Goal=   None    Shift=    0.000
 RMSDP=4.43D-09 MaxDP=1.54D-07 DE=-3.37D-11 OVMax= 6.70D-07

 SCF Done:  E(RM062X) =  -346.911642634     A.U. after   13 cycles
            NFock= 13  Conv=0.44D-08     -V/T= 2.0061
 KE= 3.448005705198D+02 PE=-1.448728396436D+03 EE= 4.375593356125D+02
 Leave Link  502 at Thu Sep 26 12:02:48 2019, MaxMem=   671088640 cpu:            1245.1 elap:             622.7
 (Enter /shared/centos7/gaussian/g16/l801.exe)
 DoSCS=F DFT=T ScalE2(SS,OS)=  1.000000  1.000000
 Range of M.O.s used for correlation:     1   350
 NBasis=   350 NAE=    28 NBE=    28 NFC=     0 NFV=     0
 NROrb=    350 NOA=    28 NOB=    28 NVA=   322 NVB=   322

 **** Warning!!: The largest alpha MO coefficient is  0.11215210D+02

 Leave Link  801 at Thu Sep 26 12:02:49 2019, MaxMem=   671088640 cpu:               1.4 elap:               0.7
 (Enter /shared/centos7/gaussian/g16/l1101.exe)
 Using compressed storage, NAtomX=    17.
 Will process     18 centers per pass.
 Leave Link 1101 at Thu Sep 26 12:03:17 2019, MaxMem=   671088640 cpu:              55.0 elap:              27.6
 (Enter /shared/centos7/gaussian/g16/l1102.exe)
 Symmetrizing basis deriv contribution to polar:
 IMax=3 JMax=2 DiffMx= 0.00D+00
 Leave Link 1102 at Thu Sep 26 12:03:20 2019, MaxMem=   671088640 cpu:               6.8 elap:               3.4
 (Enter /shared/centos7/gaussian/g16/l1110.exe)
 Forming Gx(P) for the SCF density, NAtomX=    17.
 Integral derivatives from FoFJK, PRISM(SPDF).
 Do as many integral derivatives as possible in FoFJK.
 G2DrvN: MDV=     671087280.
 G2DrvN: will do    18 centers at a time, making    1 passes.
 Calling FoFCou, ICntrl=  3107 FMM=F I1Cent=   0 AccDes= 0.00D+00.
 FoFJK:  IHMeth= 1 ICntrl=    3107 DoSepK=F KAlg= 0 I1Cent=           0 FoldK=F
 IRaf=         0 NMat=       1 IRICut=       1 DoRegI=T DoRafI=F ISym2E= 0 IDoP0=0 IntGTp=1.
 FoFCou: FMM=F IPFlag=           0 FMFlag=      100000 FMFlg1=           0
         NFxFlg=           0 DoJE=F BraDBF=F KetDBF=F FulRan=T
         wScrn=  0.000000 ICntrl=      3107 IOpCl=  0 I1Cent=           0 NGrid=           0
         NMat0=    1 NMatS0=      1 NMatT0=    0 NMatD0=    1 NMtDS0=    0 NMtDT0=    0
 Symmetry not used in FoFCou.
 End of G2Drv F.D. properties file   721 does not exist.
 End of G2Drv F.D. properties file   722 does not exist.
 End of G2Drv F.D. properties file   788 does not exist.
 Leave Link 1110 at Thu Sep 26 12:21:34 2019, MaxMem=   671088640 cpu:            2187.5 elap:            1094.0
 (Enter /shared/centos7/gaussian/g16/l1002.exe)
 Minotr:  Closed shell wavefunction.
          IDoAtm=11111111111111111
          Direct CPHF calculation.
          Differentiating once with respect to nuclear coordinates.
          Requested convergence is 1.0D-08 RMS, and 1.0D-07 maximum.
          Secondary convergence is 1.0D-12 RMS, and 1.0D-12 maximum.
          NewPWx=T KeepS1=F KeepF1=F KeepIn=T MapXYZ=F SortEE=F KeepMc=T.
         5088 words used for storage of precomputed grid.
 Two-electron integrals replicated using symmetry.
          MDV=     671088640 using IRadAn=       1.
          Solving linear equations simultaneously, MaxMat=     380.
 FoF2E skips out because all densities are zero.
 CalDSu exits because no D1Ps are significant.
 FoFJK:  IHMeth= 1 ICntrl=       0 DoSepK=F KAlg= 0 I1Cent=           0 FoldK=F
 IRaf= 950000000 NMat=      51 IRICut=     127 DoRegI=T DoRafI=T ISym2E= 2 IDoP0=3 IntGTp=3.
 FoFCou: FMM=F IPFlag=           0 FMFlag=      100000 FMFlg1=           0
         NFxFlg=           0 DoJE=F BraDBF=F KetDBF=F FulRan=T
         wScrn=  0.000000 ICntrl=         0 IOpCl=  0 I1Cent=           0 NGrid=           0
         NMat0=   51 NMatS0=     51 NMatT0=    0 NMatD0=   51 NMtDS0=    0 NMtDT0=    0
 Integrals replicated using symmetry in FoFCou.
 Raff kept on since  92.28% of shell-pairs survive, threshold=   0.20 IRatSp=92.
          There are    54 degrees of freedom in the 1st order CPHF.  IDoFFX=6 NUNeed=     0.
     48 vectors produced by pass  0 Test12= 1.67D-14 1.85D-09 XBig12= 7.08D-02 5.21D-02.
 AX will form    48 AO Fock derivatives at one time.
     48 vectors produced by pass  1 Test12= 1.67D-14 1.85D-09 XBig12= 8.44D-03 3.52D-02.
     48 vectors produced by pass  2 Test12= 1.67D-14 1.85D-09 XBig12= 2.34D-04 2.29D-03.
     48 vectors produced by pass  3 Test12= 1.67D-14 1.85D-09 XBig12= 2.83D-06 1.88D-04.
     48 vectors produced by pass  4 Test12= 1.67D-14 1.85D-09 XBig12= 1.89D-08 1.56D-05.
     48 vectors produced by pass  5 Test12= 1.67D-14 1.85D-09 XBig12= 9.57D-11 1.01D-06.
     26 vectors produced by pass  6 Test12= 1.67D-14 1.85D-09 XBig12= 4.70D-13 8.13D-08.
      5 vectors produced by pass  7 Test12= 1.67D-14 1.85D-09 XBig12= 2.04D-15 4.29D-09.
 InvSVY:  IOpt=1 It=  1 EMax= 1.94D-16
 Solved reduced A of dimension   319 with    54 vectors.
 End of Minotr F.D. properties file   721 does not exist.
 End of Minotr F.D. properties file   722 does not exist.
 End of Minotr F.D. properties file   788 does not exist.
 Leave Link 1002 at Thu Sep 26 12:52:23 2019, MaxMem=   671088640 cpu:            3696.3 elap:            1848.6
 (Enter /shared/centos7/gaussian/g16/l601.exe)
 Copying SCF densities to generalized density rwf, IOpCl= 0 IROHF=0.

 **********************************************************************

            Population analysis using the SCF density.

 **********************************************************************

 Orbital symmetries:
       Occupied  (A) (A) (A) (A) (A) (A) (A) (A) (A) (A) (A) (A)
                 (A) (A) (A) (A) (A) (A) (A) (A) (A) (A) (A) (A)
                 (A) (A) (A) (A)
       Virtual   (A) (A) (A) (A) (A) (A) (A) (A) (A) (A) (A) (A)
                 (A) (A) (A) (A) (A) (A) (A) (A) (A) (A) (A) (A)
                 (A) (A) (A) (A) (A) (A) (A) (A) (A) (A) (A) (A)
                 (A) (A) (A) (A) (A) (A) (A) (A) (A) (A) (A) (A)
                 (A) (A) (A) (A) (A) (A) (A) (A) (A) (A) (A) (A)
                 (A) (A) (A) (A) (A) (A) (A) (A) (A) (A) (A) (A)
                 (A) (A) (A) (A) (A) (A) (A) (A) (A) (A) (A) (A)
                 (A) (A) (A) (A) (A) (A) (A) (A) (A) (A) (A) (A)
                 (A) (A) (A) (A) (A) (A) (A) (A) (A) (A) (A) (A)
                 (A) (A) (A) (A) (A) (A) (A) (A) (A) (A) (A) (A)
                 (A) (A) (A) (A) (A) (A) (A) (A) (A) (A) (A) (A)
                 (A) (A) (A) (A) (A) (A) (A) (A) (A) (A) (A) (A)
                 (A) (A) (A) (A) (A) (A) (A) (A) (A) (A) (A) (A)
                 (A) (A) (A) (A) (A) (A) (A) (A) (A) (A) (A) (A)
                 (A) (A) (A) (A) (A) (A) (A) (A) (A) (A) (A) (A)
                 (A) (A) (A) (A) (A) (A) (A) (A) (A) (A) (A) (A)
                 (A) (A) (A) (A) (A) (A) (A) (A) (A) (A) (A) (A)
                 (A) (A) (A) (A) (A) (A) (A) (A) (A) (A) (A) (A)
                 (A) (A) (A) (A) (A) (A) (A) (A) (A) (A) (A) (A)
                 (A) (A) (A) (A) (A) (A) (A) (A) (A) (A) (A) (A)
                 (A) (A) (A) (A) (A) (A) (A) (A) (A) (A) (A) (A)
                 (A) (A) (A) (A) (A) (A) (A) (A) (A) (A) (A) (A)
                 (A) (A) (A) (A) (A) (A) (A) (A) (A) (A) (A) (A)
                 (A) (A) (A) (A) (A) (A) (A) (A) (A) (A) (A) (A)
                 (A) (A) (A) (A) (A) (A) (A) (A) (A) (A) (A) (A)
                 (A) (A) (A) (A) (A) (A) (A) (A) (A) (A) (A) (A)
                 (A) (A) (A) (A) (A) (A) (A) (A) (A) (A)
 The electronic state is 1-A.
 Alpha  occ. eigenvalues --  -19.64972 -19.64876 -10.59984 -10.58780 -10.57946
 Alpha  occ. eigenvalues --  -10.53893 -10.53544  -1.18956  -1.16138  -0.90140
 Alpha  occ. eigenvalues --   -0.84148  -0.78545  -0.71105  -0.67309  -0.60313
 Alpha  occ. eigenvalues --   -0.57742  -0.53145  -0.52601  -0.50455  -0.48421
 Alpha  occ. eigenvalues --   -0.46420  -0.46029  -0.43707  -0.42785  -0.42244
 Alpha  occ. eigenvalues --   -0.39466  -0.36411  -0.27750
 Alpha virt. eigenvalues --    0.03888   0.08254   0.09051   0.09387   0.10398
 Alpha virt. eigenvalues --    0.11190   0.13501   0.14655   0.15483   0.16095
 Alpha virt. eigenvalues --    0.16796   0.18384   0.20604   0.23191   0.26363
 Alpha virt. eigenvalues --    0.27122   0.29434   0.29994   0.31840   0.33999
 Alpha virt. eigenvalues --    0.34993   0.35708   0.35842   0.36743   0.37724
 Alpha virt. eigenvalues --    0.40444   0.41555   0.42090   0.44781   0.45979
 Alpha virt. eigenvalues --    0.46844   0.47428   0.48422   0.48851   0.50061
 Alpha virt. eigenvalues --    0.50768   0.51664   0.52235   0.53352   0.54225
 Alpha virt. eigenvalues --    0.54625   0.55384   0.57564   0.59806   0.62048
 Alpha virt. eigenvalues --    0.65134   0.67411   0.69651   0.71127   0.71647
 Alpha virt. eigenvalues --    0.74267   0.78697   0.80438   0.81288   0.83513
 Alpha virt. eigenvalues --    0.85341   0.85752   0.87135   0.88503   0.90918
 Alpha virt. eigenvalues --    0.92230   0.94480   0.96638   0.98643   1.00370
 Alpha virt. eigenvalues --    1.01722   1.03069   1.04160   1.04546   1.06360
 Alpha virt. eigenvalues --    1.07467   1.08407   1.09748   1.10656   1.12715
 Alpha virt. eigenvalues --    1.14418   1.15209   1.17393   1.19537   1.20122
 Alpha virt. eigenvalues --    1.20731   1.23234   1.24326   1.26057   1.27177
 Alpha virt. eigenvalues --    1.27731   1.30459   1.31124   1.32224   1.33636
 Alpha virt. eigenvalues --    1.33884   1.35972   1.38062   1.39001   1.39533
 Alpha virt. eigenvalues --    1.42444   1.45668   1.47830   1.48523   1.50641
 Alpha virt. eigenvalues --    1.54089   1.54487   1.55166   1.57173   1.58345
 Alpha virt. eigenvalues --    1.60786   1.61465   1.71400   1.76847   1.82593
 Alpha virt. eigenvalues --    1.89297   1.95880   2.00652   2.01514   2.04641
 Alpha virt. eigenvalues --    2.09224   2.09346   2.12809   2.14625   2.17887
 Alpha virt. eigenvalues --    2.21473   2.24956   2.26537   2.28875   2.31257
 Alpha virt. eigenvalues --    2.35936   2.36707   2.39015   2.41804   2.42729
 Alpha virt. eigenvalues --    2.47586   2.48837   2.53537   2.53638   2.56443
 Alpha virt. eigenvalues --    2.59912   2.60994   2.63600   2.64790   2.66317
 Alpha virt. eigenvalues --    2.69651   2.70574   2.75687   2.78223   2.78756
 Alpha virt. eigenvalues --    2.79888   2.81469   2.81538   2.84074   2.84586
 Alpha virt. eigenvalues --    2.86283   2.87476   2.92663   2.93371   2.94957
 Alpha virt. eigenvalues --    2.96293   2.97514   2.98180   2.98905   3.00817
 Alpha virt. eigenvalues --    3.01401   3.01874   3.04348   3.05911   3.07002
 Alpha virt. eigenvalues --    3.08059   3.09277   3.11431   3.12138   3.12989
 Alpha virt. eigenvalues --    3.14668   3.16173   3.18289   3.20614   3.22953
 Alpha virt. eigenvalues --    3.24123   3.26236   3.27185   3.28802   3.29968
 Alpha virt. eigenvalues --    3.30848   3.31887   3.33089   3.35443   3.36655
 Alpha virt. eigenvalues --    3.37542   3.39768   3.40526   3.42556   3.44140
 Alpha virt. eigenvalues --    3.45929   3.47107   3.48344   3.48957   3.50381
 Alpha virt. eigenvalues --    3.54773   3.57422   3.60233   3.61442   3.62980
 Alpha virt. eigenvalues --    3.64450   3.66313   3.68184   3.71109   3.72310
 Alpha virt. eigenvalues --    3.72732   3.75225   3.75579   3.76279   3.77952
 Alpha virt. eigenvalues --    3.80229   3.81378   3.82238   3.84405   3.85144
 Alpha virt. eigenvalues --    3.86656   3.88871   3.91321   3.91885   3.93913
 Alpha virt. eigenvalues --    3.95361   3.96523   3.96996   3.99658   4.00994
 Alpha virt. eigenvalues --    4.01267   4.04128   4.05206   4.07447   4.08669
 Alpha virt. eigenvalues --    4.09463   4.11020   4.15044   4.16114   4.17132
 Alpha virt. eigenvalues --    4.18969   4.20205   4.22104   4.24414   4.28736
 Alpha virt. eigenvalues --    4.31702   4.32580   4.35967   4.37422   4.39228
 Alpha virt. eigenvalues --    4.42681   4.47320   4.47510   4.50591   4.51400
 Alpha virt. eigenvalues --    4.54622   4.60827   4.65424   4.67560   4.69053
 Alpha virt. eigenvalues --    4.70988   4.74020   4.75187   4.77430   4.81756
 Alpha virt. eigenvalues --    4.82413   4.85180   4.87194   4.92375   4.92972
 Alpha virt. eigenvalues --    4.94898   4.95901   5.00509   5.01369   5.03205
 Alpha virt. eigenvalues --    5.04934   5.06959   5.07693   5.10018   5.16732
 Alpha virt. eigenvalues --    5.19191   5.22305   5.24758   5.26018   5.27483
 Alpha virt. eigenvalues --    5.31112   5.32103   5.34646   5.37598   5.44311
 Alpha virt. eigenvalues --    5.51536   5.54170   5.59820   5.67228   5.71386
 Alpha virt. eigenvalues --    5.73529   5.77808   5.79011   5.80249   5.82688
 Alpha virt. eigenvalues --    5.92295   6.01691   6.10726   6.23679   6.34000
 Alpha virt. eigenvalues --    6.40441   6.41907   6.55096   6.65048   6.65520
 Alpha virt. eigenvalues --    6.71747   6.76611   6.84427   6.91075   6.99491
 Alpha virt. eigenvalues --    7.02575   7.13208   7.24790   7.33612   7.43664
 Alpha virt. eigenvalues --    9.96155  10.78566  11.55187  12.33002  12.97500
 Alpha virt. eigenvalues --   13.43120  14.23953
          Condensed to atoms (all electrons):
               1          2          3          4          5          6
     1  O    7.853743   0.003877   0.254351  -0.051349  -0.050743   0.353359
     2  O    0.003877   7.803919  -0.020306   0.000139   0.001060  -0.069685
     3  C    0.254351  -0.020306   5.016335   0.308251   0.296954  -0.042216
     4  C   -0.051349   0.000139   0.308251   5.011817  -0.056364  -0.000437
     5  C   -0.050743   0.001060   0.296954  -0.056364   5.005485   0.006334
     6  C    0.353359  -0.069685  -0.042216  -0.000437   0.006334   5.009523
     7  C   -0.065977   0.321834  -0.013556   0.000891   0.000710   0.493472
     8  H   -0.039919   0.014547   0.396506  -0.054157  -0.058626  -0.029431
     9  H    0.005486  -0.000196  -0.039084   0.379362   0.002158   0.000719
    10  H    0.002758   0.000797  -0.035446   0.391887   0.009481  -0.001026
    11  H    0.004104  -0.000012  -0.039343   0.400110  -0.010186   0.000096
    12  H    0.002090  -0.000044  -0.048916  -0.012017   0.408303  -0.000380
    13  H    0.005130  -0.000099  -0.045169   0.007081   0.388664  -0.000166
    14  H    0.003795   0.000045  -0.040667   0.004822   0.396813  -0.000107
    15  H   -0.038268   0.003983   0.006964  -0.000404   0.000004   0.411182
    16  H    0.004300  -0.043336  -0.000689   0.000180   0.000061  -0.081917
    17  H    0.001799   0.332076   0.008597  -0.003060   0.002313  -0.009329
               7          8          9         10         11         12
     1  O   -0.065977  -0.039919   0.005486   0.002758   0.004104   0.002090
     2  O    0.321834   0.014547  -0.000196   0.000797  -0.000012  -0.000044
     3  C   -0.013556   0.396506  -0.039084  -0.035446  -0.039343  -0.048916
     4  C    0.000891  -0.054157   0.379362   0.391887   0.400110  -0.012017
     5  C    0.000710  -0.058626   0.002158   0.009481  -0.010186   0.408303
     6  C    0.493472  -0.029431   0.000719  -0.001026   0.000096  -0.000380
     7  C    5.010038   0.010931   0.000073  -0.000479  -0.000221  -0.000033
     8  H    0.010931   0.680352   0.007674  -0.014592   0.003285   0.007132
     9  H    0.000073   0.007674   0.570252  -0.030554  -0.026995   0.001707
    10  H   -0.000479  -0.014592  -0.030554   0.612762  -0.034361   0.000560
    11  H   -0.000221   0.003285  -0.026995  -0.034361   0.594673  -0.001762
    12  H   -0.000033   0.007132   0.001707   0.000560  -0.001762   0.605993
    13  H    0.000173   0.005312  -0.000192  -0.000578   0.000469  -0.027611
    14  H   -0.000034  -0.008559  -0.000283  -0.000372  -0.000440  -0.036769
    15  H   -0.065733  -0.000676  -0.000265   0.000077   0.000044   0.000030
    16  H    0.425826   0.000569  -0.000055  -0.000003  -0.000003  -0.000002
    17  H   -0.046153  -0.023850   0.000114   0.003023   0.000101  -0.000047
              13         14         15         16         17
     1  O    0.005130   0.003795  -0.038268   0.004300   0.001799
     2  O   -0.000099   0.000045   0.003983  -0.043336   0.332076
     3  C   -0.045169  -0.040667   0.006964  -0.000689   0.008597
     4  C    0.007081   0.004822  -0.000404   0.000180  -0.003060
     5  C    0.388664   0.396813   0.000004   0.000061   0.002313
     6  C   -0.000166  -0.000107   0.411182  -0.081917  -0.009329
     7  C    0.000173  -0.000034  -0.065733   0.425826  -0.046153
     8  H    0.005312  -0.008559  -0.000676   0.000569  -0.023850
     9  H   -0.000192  -0.000283  -0.000265  -0.000055   0.000114
    10  H   -0.000578  -0.000372   0.000077  -0.000003   0.003023
    11  H    0.000469  -0.000440   0.000044  -0.000003   0.000101
    12  H   -0.027611  -0.036769   0.000030  -0.000002  -0.000047
    13  H    0.564099  -0.023841  -0.000410  -0.000017  -0.000149
    14  H   -0.023841   0.594465   0.000025  -0.000012  -0.000168
    15  H   -0.000410   0.000025   0.544792  -0.007522  -0.000348
    16  H   -0.000017  -0.000012  -0.007522   0.554070   0.003356
    17  H   -0.000149  -0.000168  -0.000348   0.003356   0.463266
 Mulliken charges:
               1
     1  O   -0.248536
     2  O   -0.348600
     3  C    0.037433
     4  C   -0.326751
     5  C   -0.342421
     6  C   -0.039990
     7  C   -0.071760
     8  H    0.103501
     9  H    0.130080
    10  H    0.096064
    11  H    0.110442
    12  H    0.101768
    13  H    0.127303
    14  H    0.111287
    15  H    0.146526
    16  H    0.145194
    17  H    0.268458
 Sum of Mulliken charges =  -0.00000
 Mulliken charges with hydrogens summed into heavy atoms:
               1
     1  O   -0.248536
     2  O   -0.080142
     3  C    0.140934
     4  C    0.009836
     5  C   -0.002063
     6  C    0.106537
     7  C    0.073434
 APT charges:
               1
     1  O   -0.199493
     2  O   -0.283292
     3  C    0.088193
     4  C   -1.152495
     5  C   -1.247279
     6  C   -0.465185
     7  C   -0.515616
     8  H    0.217729
     9  H    0.329750
    10  H    0.294736
    11  H    0.467420
    12  H    0.454670
    13  H    0.314634
    14  H    0.354251
    15  H    0.508957
    16  H    0.574366
    17  H    0.258653
 Sum of APT charges =  -0.00000
 APT charges with hydrogens summed into heavy atoms:
               1
     1  O   -0.199493
     2  O   -0.024639
     3  C    0.305921
     4  C   -0.060589
     5  C   -0.123723
     6  C    0.043773
     7  C    0.058750
 Electronic spatial extent (au):  <R**2>=            877.8165
 Charge=             -0.0000 electrons
 Dipole moment (field-independent basis, Debye):
    X=              0.9356    Y=              0.5784    Z=             -0.6261  Tot=              1.2657
 Quadrupole moment (field-independent basis, Debye-Ang):
   XX=            -43.9211   YY=            -43.4843   ZZ=            -45.5969
   XY=              3.7996   XZ=              2.1839   YZ=             -1.3490
 Traceless Quadrupole moment (field-independent basis, Debye-Ang):
   XX=              0.4130   YY=              0.8498   ZZ=             -1.2628
   XY=              3.7996   XZ=              2.1839   YZ=             -1.3490
 Octapole moment (field-independent basis, Debye-Ang**2):
  XXX=             -4.9271  YYY=              2.0113  ZZZ=              0.7251  XYY=             -3.5723
  XXY=             -8.6716  XXZ=             -3.1337  XZZ=              1.1907  YZZ=             -0.1628
  YYZ=             -2.9401  XYZ=              1.2649
 Hexadecapole moment (field-independent basis, Debye-Ang**3):
 XXXX=           -689.9209 YYYY=           -219.5658 ZZZZ=           -218.6717 XXXY=             13.4458
 XXXZ=             -1.3966 YYYX=             -2.6972 YYYZ=              2.6270 ZZZX=             -4.5762
 ZZZY=              6.0599 XXYY=           -167.3203 XXZZ=           -165.0814 YYZZ=            -74.4109
 XXYZ=             -0.4258 YYXZ=              7.9333 ZZXY=             -3.2710
 N-N= 3.194568476698D+02 E-N=-1.448728388382D+03  KE= 3.448005705198D+02
  Exact polarizability:   0.000   0.000   0.000   0.000   0.000   0.000
 Approx polarizability:  87.018  -5.556  82.667  -3.779   5.045  68.604
 No NMR shielding tensors so no spin-rotation constants.
 Leave Link  601 at Thu Sep 26 12:52:52 2019, MaxMem=   671088640 cpu:              58.8 elap:              29.4
 (Enter /shared/centos7/gaussian/g16/l701.exe)
 SCFChk:  SCF convergence  4.43D-09 required  1.00D-08
 ... and contract with generalized density number  0.
 Compute integral second derivatives.
 Entering OneElI...
 Calculate overlap and kinetic energy integrals
    NBasis = 395  MinDer = 2  MaxDer = 2
 Requested accuracy = 0.1000D-12
 PrmmSu-InSpLW:  IPartL=    0 NPrtUS=   20 NPrtUL=    1 DoSpLW=F IThBeg=    0 IThEnd=   19 NThAct=   20.
 PrsmSu:  NPrtUS=  20 ThrOK=T IAlg=1 NPAlg=1 LenDen=           0 ISkipM=0 DoSpLW=F IThBeg=    0 IThEnd=   19.
 Prism:   IPart=     0 DynPar=F LinDyn=F Incr=           4.
 PRISM was handed    33310578 working-precision words and  8480 shell-pairs
 PRISM was handed    33310578 working-precision words and  8480 shell-pairs
 PRISM was handed    33310578 working-precision words and  8480 shell-pairs
 PRISM was handed    33310578 working-precision words and  8480 shell-pairs
 PRISM was handed    33310578 working-precision words and  8480 shell-pairs
 PRISM was handed    33310578 working-precision words and  8480 shell-pairs
 PRISM was handed    33310578 working-precision words and  8480 shell-pairs
 IPart=  0 NShTot=         466 NBatch=          82 AvBLen=         5.7
 PRISM was handed    33310578 working-precision words and  8480 shell-pairs
 IPart=  5 NShTot=         443 NBatch=          65 AvBLen=         6.8
 PRISM was handed    33310578 working-precision words and  8480 shell-pairs
 PRISM was handed    33310578 working-precision words and  8480 shell-pairs
 PRISM was handed    33310578 working-precision words and  8480 shell-pairs
 PRISM was handed    33310578 working-precision words and  8480 shell-pairs
 PRISM was handed    33310578 working-precision words and  8480 shell-pairs
 PRISM was handed    33310578 working-precision words and  8480 shell-pairs
 PRISM was handed    33310578 working-precision words and  8480 shell-pairs
 PRISM was handed    33310578 working-precision words and  8480 shell-pairs
 PRISM was handed    33310578 working-precision words and  8480 shell-pairs
 PRISM was handed    33310578 working-precision words and  8480 shell-pairs
 PRISM was handed    33310578 working-precision words and  8480 shell-pairs
 IPart= 14 NShTot=         406 NBatch=          40 AvBLen=        10.2
 IPart= 10 NShTot=         416 NBatch=          49 AvBLen=         8.5
 IPart=  6 NShTot=         438 NBatch=          62 AvBLen=         7.1
 PRISM was handed    33310578 working-precision words and  8480 shell-pairs
 IPart=  8 NShTot=         420 NBatch=          51 AvBLen=         8.2
 IPart=  4 NShTot=         448 NBatch=          67 AvBLen=         6.7
 IPart= 12 NShTot=         409 NBatch=          43 AvBLen=         9.5
 IPart= 18 NShTot=         400 NBatch=          38 AvBLen=        10.5
 IPart= 16 NShTot=         402 NBatch=          39 AvBLen=        10.3
 IPart= 19 NShTot=         399 NBatch=          37 AvBLen=        10.8
 IPart= 17 NShTot=         401 NBatch=          38 AvBLen=        10.6
 IPart= 13 NShTot=         408 NBatch=          42 AvBLen=         9.7
 IPart=  9 NShTot=         416 NBatch=          49 AvBLen=         8.5
 IPart=  2 NShTot=         456 NBatch=          74 AvBLen=         6.2
 IPart=  1 NShTot=         459 NBatch=          77 AvBLen=         6.0
 IPart=  3 NShTot=         451 NBatch=          70 AvBLen=         6.4
 IPart= 15 NShTot=         403 NBatch=          39 AvBLen=        10.3
 IPart= 11 NShTot=         414 NBatch=          48 AvBLen=         8.6
 IPart=  7 NShTot=         425 NBatch=          52 AvBLen=         8.2
 PrSmSu:  NxtVal=             81.
 Entering OneElI...
 Calculate potential energy integrals
    NBasis = 395  MinDer = 2  MaxDer = 2
 Requested accuracy = 0.1000D-12
 PrmmSu-InSpLW:  IPartL=    0 NPrtUS=   20 NPrtUL=    1 DoSpLW=F IThBeg=    0 IThEnd=   19 NThAct=   20.
 PrsmSu:  NPrtUS=  20 ThrOK=T IAlg=1 NPAlg=1 LenDen=           0 ISkipM=0 DoSpLW=F IThBeg=    0 IThEnd=   19.
 Prism:   IPart=     0 DynPar=F LinDyn=F Incr=          66.
 PRISM was handed    33354293 working-precision words and  7797 shell-pairs
 PRISM was handed    33354293 working-precision words and  7797 shell-pairs
 PRISM was handed    33354293 working-precision words and  7797 shell-pairs
 PRISM was handed    33354293 working-precision words and  7797 shell-pairs
 PRISM was handed    33354293 working-precision words and  7797 shell-pairs
 PRISM was handed    33354293 working-precision words and  7797 shell-pairs
 PRISM was handed    33354293 working-precision words and  7797 shell-pairs
 PRISM was handed    33354293 working-precision words and  7797 shell-pairs
 PRISM was handed    33354293 working-precision words and  7797 shell-pairs
 PRISM was handed    33354293 working-precision words and  7797 shell-pairs
 PRISM was handed    33354293 working-precision words and  7797 shell-pairs
 PRISM was handed    33354293 working-precision words and  7797 shell-pairs
 PRISM was handed    33354293 working-precision words and  7797 shell-pairs
 PRISM was handed    33354293 working-precision words and  7797 shell-pairs
 PRISM was handed    33354293 working-precision words and  7797 shell-pairs
 PRISM was handed    33354293 working-precision words and  7797 shell-pairs
 PRISM was handed    33354293 working-precision words and  7797 shell-pairs
 PRISM was handed    33354293 working-precision words and  7797 shell-pairs
 PRISM was handed    33354293 working-precision words and  7797 shell-pairs
 PRISM was handed    33354293 working-precision words and  7797 shell-pairs
 IPart= 10 NShTot=        6511 NBatch=         383 AvBLen=        17.0
 IPart= 17 NShTot=        6341 NBatch=         373 AvBLen=        17.0
 IPart= 13 NShTot=        6392 NBatch=         376 AvBLen=        17.0
 IPart= 14 NShTot=        6375 NBatch=         375 AvBLen=        17.0
 IPart= 18 NShTot=        6239 NBatch=         367 AvBLen=        17.0
 IPart=  8 NShTot=        6613 NBatch=         389 AvBLen=        17.0
 IPart=  1 NShTot=        7157 NBatch=         421 AvBLen=        17.0
 IPart=  4 NShTot=        6902 NBatch=         406 AvBLen=        17.0
 IPart=  3 NShTot=        6953 NBatch=         409 AvBLen=        17.0
 IPart= 16 NShTot=        6341 NBatch=         373 AvBLen=        17.0
 IPart= 11 NShTot=        6460 NBatch=         380 AvBLen=        17.0
 IPart=  9 NShTot=        6562 NBatch=         386 AvBLen=        17.0
 IPart= 15 NShTot=        6358 NBatch=         374 AvBLen=        17.0
 IPart= 19 NShTot=        6222 NBatch=         366 AvBLen=        17.0
 IPart=  0 NShTot=        7242 NBatch=         426 AvBLen=        17.0
 IPart= 12 NShTot=        6443 NBatch=         379 AvBLen=        17.0
 IPart=  2 NShTot=        7055 NBatch=         415 AvBLen=        17.0
 IPart=  5 NShTot=        6868 NBatch=         404 AvBLen=        17.0
 IPart=  6 NShTot=        6834 NBatch=         402 AvBLen=        17.0
 IPart=  7 NShTot=        6681 NBatch=         393 AvBLen=        17.0
 PrSmSu:  NxtVal=           1321.
 Polarizability after L701:
                1             2             3 
      1  0.000000D+00
      2  0.000000D+00  0.000000D+00
      3  0.000000D+00  0.000000D+00  0.000000D+00
 Dipole Derivatives after L701:
                 1             2             3             4             5 
      1  -0.254563D+00  0.392984D-01 -0.276003D-01  0.193131D+00 -0.923788D-02
      2  -0.219157D+00 -0.127294D+00  0.187404D-01 -0.639438D+00 -0.659405D+00
      3  -0.124006D+00  0.267098D-01 -0.216623D+00  0.566610D-01  0.195613D+00
                 6             7             8             9            10 
      1  -0.397524D+00  0.352959D+00 -0.177249D+00  0.334512D-01 -0.131891D+01
      2   0.551085D+00  0.129676D+00 -0.291559D+00 -0.270635D+00 -0.149423D+00
      3  -0.383604D+00  0.135509D+00 -0.225354D+00  0.203177D+00  0.164944D+00
                11            12            13            14            15 
      1  -0.235049D+00  0.593526D+00 -0.148501D+01  0.241100D+00 -0.717220D+00
      2  -0.100449D+01  0.293117D+00  0.529586D-01 -0.915265D+00  0.144188D-01
      3   0.130708D+00 -0.113409D+01 -0.290322D+00  0.928519D-01 -0.134157D+01
                16            17            18            19            20 
      1  -0.661648D+00 -0.153289D+00  0.188523D+00 -0.107370D+01 -0.459922D+00
      2  -0.102304D+00 -0.710674D+00 -0.195847D+00  0.356133D-01 -0.376605D+00
      3   0.342864D-01 -0.252415D+00 -0.232325D-01 -0.100155D-01 -0.237375D+00
                21            22            23            24            25 
      1  -0.244698D+00  0.116328D+00  0.631267D-01  0.574790D-01  0.119289D+00
      2  -0.256204D+00 -0.208963D+00  0.371964D+00  0.246467D-01 -0.348486D-02
      3  -0.965477D-01 -0.608920D-01  0.796984D-01  0.164893D+00 -0.192695D-01
                26            27            28            29            30 
      1  -0.347875D+00 -0.487241D+00 -0.340195D-01  0.283244D+00 -0.143065D+00
      2   0.144383D+00  0.511960D-01 -0.295156D+00  0.650116D+00 -0.216833D+00
      3   0.463190D+00  0.725579D+00  0.205591D+00 -0.442689D+00  0.268112D+00
                31            32            33            34            35 
      1   0.115932D+01  0.212225D+00  0.231383D+00  0.120801D+01  0.366310D-01
      2   0.379794D+00  0.170655D+00  0.616104D-01 -0.972177D-01  0.828896D-01
      3  -0.263889D+00 -0.659558D-01  0.722902D-01  0.294989D+00  0.434203D-02
                36            37            38            39            40 
      1  -0.246355D+00  0.953500D-02 -0.480908D+00  0.219766D+00  0.728421D-01
      2   0.725618D-02  0.114277D+00  0.592060D+00 -0.217936D+00 -0.465265D-01
      3   0.731145D-01 -0.124580D+00 -0.574508D+00  0.342308D+00 -0.685484D-01
                41            42            43            44            45 
      1   0.352236D+00  0.472551D+00  0.421346D+00  0.537975D+00  0.218077D+00
      2   0.270450D+00  0.196227D+00  0.274030D+00  0.913498D+00  0.315890D+00
      3   0.522492D+00  0.719462D+00  0.931205D-01  0.266806D+00  0.192028D+00
                46            47            48            49            50 
      1   0.140162D+01  0.364746D+00 -0.380719D-01 -0.226537D+00 -0.267054D+00
      2   0.130815D+00  0.237917D+00  0.158141D-01  0.644507D+00  0.651356D+00
      3   0.152345D-01  0.233466D-01  0.835602D-01 -0.388136D-01 -0.746258D-02
                51 
      1   0.287019D+00
      2  -0.392547D+00
      3   0.351141D+00
 Hessian after L701:
                1             2             3             4             5 
      1  0.500268D+01
      2 -0.322913D+01  0.131596D+02
      3 -0.115357D+01 -0.190761D+01  0.173362D+02
      4  0.172038D+00 -0.524985D+00 -0.199612D+00  0.111361D+02
      5 -0.482937D+00  0.194982D+00  0.231327D+00 -0.173073D+01  0.619101D+01
      6 -0.219350D+00  0.271850D+00 -0.266212D+00  0.252677D+01 -0.128179D+01
      7 -0.561543D+01  0.369064D+01  0.146915D+01  0.299181D+00 -0.133168D+00
      8  0.344292D+01 -0.393604D+01  0.192904D+01 -0.311728D+00 -0.124548D+00
      9  0.139332D+01  0.189712D+01 -0.797943D+01 -0.161334D-01  0.115452D-01
     10 -0.806878D-02  0.161551D+00 -0.333957D+00  0.193922D+00 -0.232116D-01
     11  0.232397D+00  0.786539D-02 -0.334221D+00 -0.724839D-01 -0.141014D+00
     12 -0.279385D+00 -0.211756D+00  0.328789D-01 -0.114968D+00  0.167338D-01
     13 -0.604037D-02 -0.292325D-01  0.398952D+00  0.188689D+00 -0.114408D+00
     14  0.524402D-01 -0.226587D+00  0.105522D+00 -0.123924D+00 -0.936844D-01
     15  0.364574D+00  0.598486D-02  0.336082D+00  0.477489D-01 -0.174644D-01
     16  0.375108D+00  0.169825D+00 -0.232277D+00  0.242834D+00 -0.508146D+00
     17  0.386288D+00 -0.971604D+01  0.199604D+00 -0.402877D+00  0.138831D+00
     18 -0.799778D-01  0.174877D+00 -0.982342D+01 -0.143813D-01 -0.120944D+00
     19 -0.417542D-01 -0.224137D+00  0.839125D-01 -0.861366D+01  0.139622D+01
     20 -0.342648D+00  0.207461D+00 -0.124690D+00  0.111800D+01 -0.736421D+00
     21 -0.333751D-01 -0.103682D+00  0.258359D+00  0.134938D+00  0.236413D+01
     22  0.228356D+00 -0.213610D+00 -0.937162D-01 -0.118356D+00  0.164796D-01
     23 -0.147361D+00  0.402416D-01 -0.146417D+00  0.711341D-01 -0.154398D+00
     24 -0.668251D-01 -0.130864D+00  0.802385D-01 -0.165963D+00  0.473587D-01
     25 -0.628581D-01  0.886539D-01 -0.193281D-01  0.120184D-01 -0.600267D-02
     26  0.477059D-01  0.110118D-02 -0.363593D-01 -0.203646D-01 -0.747051D-02
     27 -0.536606D-01 -0.113163D+00 -0.331246D-01 -0.311607D-01  0.768353D-02
     28 -0.394797D-01  0.268470D-01 -0.109968D-01  0.256606D-01  0.101937D-01
     29  0.363474D-01  0.112319D+00 -0.585211D-01  0.440678D-01 -0.174622D-01
     30 -0.166010D-01 -0.620964D-01 -0.270956D-01 -0.521945D-01 -0.119135D-01
     31  0.101878D+00  0.113623D+00 -0.343938D-02  0.436518D-01  0.195557D-02
     32  0.931976D-01  0.180662D-01 -0.344061D-03  0.251686D-02 -0.979456D-02
     33 -0.343927D-02 -0.306763D-02 -0.502856D-01 -0.490256D-02  0.126497D-03
     34  0.113775D+00  0.519640D-01  0.618883D-01  0.362459D-01 -0.884014D-02
     35  0.404991D-01 -0.333981D-01  0.148281D-01 -0.667914D-02 -0.745239D-02
     36  0.423977D-01  0.140313D-01 -0.285117D-01 -0.836816D-03 -0.106980D-03
     37 -0.496996D-01  0.389447D-01  0.524576D-01  0.772962D-02 -0.141005D-01
     38 -0.900278D-02 -0.855065D-01 -0.216546D-01 -0.387362D-01  0.103362D-01
     39  0.830499D-01  0.494838D-01  0.361521D-01  0.169443D-01 -0.102249D-01
     40 -0.187901D-01  0.423219D-01  0.556602D-01  0.256068D-01 -0.803761D-02
     41  0.432787D-01  0.191906D-01  0.896666D-01  0.112560D-01 -0.189619D-01
     42  0.631048D-01  0.946386D-01  0.744017D-01  0.466357D-01 -0.451484D-02
     43 -0.292548D+00 -0.117417D+00 -0.489735D-01 -0.484634D-01  0.697019D-02
     44 -0.830940D-01  0.200585D+00  0.175186D-01 -0.282185D-01  0.158700D+00
     45 -0.253095D-01  0.264761D-01  0.129366D+00 -0.923943D-02  0.715299D-01
     46  0.184963D+00 -0.368055D-01 -0.100257D-01  0.193321D+00 -0.184413D+00
     47 -0.729418D-02 -0.435725D-01 -0.391573D-02 -0.167786D+00 -0.283522D+00
     48 -0.172598D-01 -0.130406D-02 -0.380570D-01 -0.120519D-01 -0.647144D-01
     49 -0.441260D-01 -0.905294D-02 -0.161189D-01 -0.379656D+01  0.178218D+01
     50 -0.736016D-01  0.797674D-01  0.462261D-01  0.218154D+01 -0.509913D+01
     51  0.230761D-02 -0.916477D-03 -0.375943D-01 -0.215160D+01 -0.123876D+01
                6             7             8             9            10 
      6  0.131340D+02
      7  0.102442D-01  0.179909D+02
      8  0.456168D-01 -0.268829D+01  0.179799D+02
      9 -0.200308D+00 -0.115872D+01 -0.914239D+00  0.203184D+02
     10 -0.179326D+00 -0.495064D+01  0.102963D+01 -0.164847D+01  0.137490D+02
     11  0.438397D-01  0.954549D+00 -0.500739D+01 -0.158258D+01 -0.956987D+00
     12 -0.708151D-01 -0.158475D+01 -0.161693D+01 -0.360852D+01  0.110781D+01
     13  0.674331D-01 -0.480857D+01 -0.533192D+00  0.201298D+01 -0.103774D+00
     14 -0.238929D-01 -0.539319D+00 -0.609936D+01 -0.589009D+00 -0.451093D-01
     15 -0.120437D+00  0.193606D+01 -0.566734D+00 -0.354460D+01  0.125312D+00
     16 -0.591842D-01  0.390753D+00  0.324156D+00  0.160319D+00  0.137500D+00
     17 -0.163340D+00  0.280310D+00  0.591624D-01  0.179446D-01  0.178100D+00
     18  0.145387D+00  0.147765D+00  0.317223D-02 -0.109145D+00 -0.774204D-01
     19  0.194577D+00  0.287865D+00 -0.314268D-02 -0.591004D-01  0.151868D+00
     20  0.251223D+01  0.132252D-01 -0.146315D+00 -0.241739D-01  0.325446D-01
     21 -0.751479D+01 -0.550054D-01 -0.248260D-01 -0.153657D+00 -0.686772D-01
     22 -0.223961D+00 -0.397331D+01 -0.130724D+01 -0.613044D+00  0.375763D-01
     23  0.201238D-01 -0.154251D+01 -0.319605D+01  0.901434D+00  0.458522D-02
     24 -0.138507D+00 -0.720265D+00  0.898420D+00 -0.468158D+01  0.269673D+00
     25 -0.159840D-01  0.786373D-01  0.273091D-02  0.565580D-01 -0.399753D+01
     26  0.152819D-01 -0.103958D-01  0.114147D+00  0.622366D-01 -0.303946D-01
     27  0.115413D-01  0.248909D-01  0.105596D-01 -0.201865D-01  0.149008D-01
     28 -0.314951D-01  0.931178D-01 -0.463938D-01  0.264901D-01 -0.365143D+01
     29 -0.295823D-01 -0.686685D-02  0.134469D-01  0.994870D-01 -0.989112D+00
     30  0.578556D-02 -0.108047D-01  0.981099D-01 -0.485145D-01  0.462028D+00
     31 -0.171778D-01 -0.197095D-01 -0.494058D-01  0.419132D-01 -0.146354D+01
     32 -0.755105D-03 -0.827522D-01  0.333401D-01  0.223294D-01  0.592416D+00
     33 -0.811760D-02  0.823553D-01  0.344716D-01  0.844858D-01  0.346089D+00
     34 -0.310426D-02 -0.812103D-02  0.453203D-01 -0.791213D-01  0.597215D-02
     35  0.594796D-04  0.423578D-01  0.984532D-01  0.156981D-01  0.134351D-01
     36 -0.777156D-02 -0.119644D+00  0.198553D-01  0.843059D-01 -0.212015D-01
     37  0.511950D-02  0.121061D+00  0.551005D-01 -0.373925D-01 -0.496230D-01
     38 -0.658063D-02  0.210771D-01  0.551067D-01  0.518415D-01  0.884927D-02
     39 -0.112455D-01 -0.117673D-01  0.101651D+00  0.152548D-01 -0.146865D-01
     40  0.175681D-01  0.291435D-01 -0.390377D-01 -0.116380D+00 -0.432278D-01
     41  0.281008D-02 -0.336450D-01  0.103783D+00 -0.134691D-01  0.144537D-02
     42 -0.439013D-02 -0.103191D+00 -0.298183D-01 -0.441430D-01  0.804667D-02
     43  0.592579D-02  0.678461D-01  0.109794D+00  0.395147D-01  0.675497D-02
     44  0.710761D-01  0.137118D+00  0.689079D-01  0.406170D-01  0.204000D-01
     45 -0.965067D-02  0.506531D-01  0.415788D-01 -0.339584D-01  0.953265D-03
     46  0.151106D-01  0.354277D-01 -0.778414D-02 -0.297735D-02  0.245724D-01
     47 -0.425788D-01  0.789500D-02 -0.133120D-01 -0.204089D-02  0.897952D-02
     48  0.135067D+00 -0.178459D-02 -0.368314D-03 -0.104569D-01 -0.641879D-02
     49 -0.209317D+01 -0.181642D-01 -0.234331D-01  0.234492D-03 -0.393311D-01
     50 -0.143437D+01 -0.110233D+00 -0.318944D-02  0.526548D-02 -0.711920D-02
     51 -0.507959D+01  0.448177D-01 -0.295598D-01 -0.679104D-01  0.153478D-01
               11            12            13            14            15 
     11  0.142629D+02
     12  0.147290D+01  0.136978D+02
     13  0.105373D-01 -0.103134D-01  0.136397D+02
     14 -0.619922D-01 -0.987986D-01  0.179293D+00  0.153674D+02
     15 -0.110459D+00  0.193828D+00 -0.176470D+01  0.246798D+00  0.129588D+02
     16  0.202342D+00 -0.636858D-01  0.180863D+00  0.108199D+00  0.201068D+00
     17 -0.365086D-01 -0.412564D-01  0.867157D-01 -0.150948D+00  0.468319D-01
     18 -0.526195D-01 -0.119698D+00  0.202647D+00  0.511323D-01 -0.628824D-01
     19  0.445138D-01 -0.378803D-01  0.151310D+00  0.896694D-02  0.421879D-01
     20 -0.999509D-01 -0.711533D-02 -0.840827D-02 -0.101457D+00 -0.476772D-02
     21 -0.150737D-01 -0.871712D-01  0.476676D-01 -0.226455D-02 -0.870542D-01
     22 -0.116740D-01  0.248917D+00 -0.702959D-02  0.114167D+00 -0.171193D+00
     23  0.215322D+00 -0.318541D-01  0.140320D+00  0.970178D-01  0.131668D+00
     24 -0.408904D-02 -0.164075D+00 -0.163789D+00  0.106550D+00  0.905381D-01
     25 -0.138462D+00 -0.117155D+00 -0.342750D-01  0.485962D-03  0.683526D-02
     26 -0.308101D+01  0.115804D+01 -0.423399D-02 -0.301646D-01  0.436154D-02
     27  0.134131D+01 -0.243265D+01  0.329127D-02 -0.328989D-03  0.745790D-01
     28 -0.820976D+00  0.358365D+00 -0.468576D-01 -0.322805D-01  0.372958D-01
     29 -0.227687D+01 -0.711244D+00 -0.360970D-01  0.414458D-01 -0.125417D+00
     30 -0.771284D+00 -0.374056D+01  0.422540D-01 -0.111058D+00  0.911709D-01
     31  0.513084D+00  0.489741D+00  0.124645D-01  0.151502D-01 -0.131385D-01
     32 -0.376000D+01  0.144289D+00  0.706473D-02 -0.579833D-02 -0.266279D-02
     33  0.995719D-01 -0.386551D+01  0.688298D-02  0.416367D-02 -0.193955D-01
     34  0.104412D-01 -0.777058D-03 -0.134938D+01 -0.413162D-01 -0.560629D+00
     35 -0.211872D-01  0.169576D-01 -0.701088D-01 -0.389572D+01  0.208108D-01
     36  0.243918D-01 -0.101400D-01 -0.391881D+00  0.130623D-01 -0.388535D+01
     37  0.632059D-02 -0.824954D-02 -0.397057D+01  0.362955D+00 -0.178934D+00
     38  0.381988D-01 -0.100835D+00  0.533194D+00 -0.196900D+01 -0.831018D+00
     39 -0.992073D-01  0.716796D-01 -0.284908D+00 -0.983705D+00 -0.366414D+01
     40 -0.290267D-02  0.307644D-02 -0.389678D+01 -0.518192D-01 -0.103431D+00
     41 -0.403164D-01  0.803972D-02 -0.136423D+00 -0.288227D+01  0.121019D+01
     42 -0.520337D-02  0.129220D+00 -0.221856D+00  0.129116D+01 -0.233798D+01
     43  0.133627D-01  0.172760D-02  0.121515D-01  0.144178D-01  0.100979D-01
     44  0.969065D-02  0.550094D-02  0.201892D-01  0.570118D-02  0.806476D-02
     45  0.200781D-02 -0.898420D-02  0.166529D-01  0.122780D-01 -0.516747D-02
     46  0.504529D-02 -0.979213D-05  0.205039D-01  0.334021D-02  0.574309D-03
     47 -0.528464D-02  0.412043D-03  0.412994D-02 -0.547427D-02 -0.244477D-03
     48 -0.129483D-02 -0.703940D-02  0.501405D-02  0.683792D-03 -0.635189D-02
     49  0.108918D-01  0.754305D-02  0.176137D-01 -0.256483D-01  0.202786D-01
     50 -0.242770D-02 -0.307617D-02 -0.493395D-01  0.108964D-01 -0.159464D-01
     51 -0.797920D-02 -0.102877D-01  0.336731D-01 -0.222938D-01 -0.116648D-01
               16            17            18            19            20 
     16  0.873475D+01
     17  0.287352D+01  0.177592D+02
     18  0.160032D+01 -0.408971D+01  0.264785D+02
     19 -0.562913D+01 -0.450361D+01 -0.219196D+01  0.149956D+02
     20 -0.409915D+01 -0.594722D+01  0.325655D+01  0.226458D+01  0.112375D+02
     21 -0.197876D+01  0.329657D+01 -0.128465D+02  0.176480D+01 -0.550955D+01
     22 -0.124122D-01 -0.140634D+00  0.211221D-01  0.759132D-01  0.843229D-01
     23 -0.892679D-01 -0.864837D-01  0.502396D-01  0.146027D+00 -0.269455D-01
     24  0.248831D-01  0.152482D-01  0.115474D+00  0.121332D+00  0.428121D-01
     25  0.122233D-01  0.122074D-01 -0.270938D-01  0.196808D-01  0.146605D-02
     26  0.227856D-02 -0.202488D-01 -0.392987D-02 -0.530382D-02 -0.977298D-02
     27 -0.436187D-01 -0.134215D-01  0.101643D-01 -0.307629D-01  0.124917D-02
     28 -0.713688D-02  0.535879D-02 -0.197664D-02  0.180109D-02  0.855862D-02
     29  0.226863D-01  0.137452D-01 -0.952823D-02  0.266700D-01 -0.125925D-03
     30 -0.809730D-02 -0.883801D-02 -0.865997D-02 -0.160790D-01 -0.863020D-02
     31  0.277679D-01  0.148586D-01 -0.907716D-03  0.169041D-01  0.202330D-02
     32  0.162201D-01 -0.451861D-02 -0.105128D-02  0.478961D-02 -0.615940D-02
     33 -0.140959D-02 -0.358669D-03 -0.880895D-02 -0.910681D-03 -0.100592D-02
     34  0.240807D-01  0.358278D-02  0.818624D-02  0.229705D-01 -0.441268D-02
     35  0.591306D-02 -0.849250D-02  0.100584D-02  0.943011D-04 -0.727927D-02
     36  0.274128D-02 -0.124691D-03 -0.773007D-02  0.193737D-02 -0.714359D-04
     37  0.920326D-02 -0.319099D-02  0.291861D-01  0.158697D-01 -0.943171D-02
     38 -0.227952D-01 -0.166784D-01 -0.214958D-01 -0.256153D-01 -0.113347D-02
     39  0.415642D-01 -0.737372D-02  0.143329D-01  0.259100D-01 -0.106792D-01
     40  0.618255D-02  0.806650D-02  0.121552D-01  0.962187D-02  0.131695D-02
     41  0.172841D-01 -0.224572D-02  0.157055D-01  0.127665D-01 -0.978807D-02
     42  0.236092D-01  0.112306D-01  0.743104D-02  0.239472D-01  0.105540D-02
     43 -0.403241D+01  0.930822D+00  0.337749D+00  0.217288D+00  0.145593D+00
     44  0.830977D+00 -0.216483D+01  0.841755D+00  0.195940D+00 -0.328145D+00
     45  0.298120D+00  0.831935D+00 -0.408219D+01  0.536864D-01 -0.159052D+00
     46 -0.478467D+00  0.261981D+00  0.295127D-01 -0.173739D+01  0.769434D+00
     47  0.210189D+00  0.257005D+00  0.387439D-02  0.770745D+00 -0.414700D+01
     48  0.360162D-01  0.100478D-01  0.287307D+00  0.299933D-01  0.303484D-01
     49  0.182927D-01  0.850186D-02  0.507530D-02  0.552463D-01  0.229860D-01
     50 -0.642247D-01 -0.737099D-01 -0.990370D-01 -0.109514D+00  0.122751D+00
     51 -0.160724D-02 -0.104984D+00  0.104282D-01 -0.558793D-02  0.548061D-02
               21            22            23            24            25 
     21  0.245924D+02
     22  0.119405D+00  0.365960D+01
     23  0.568269D-01  0.152528D+01  0.304173D+01
     24 -0.508880D-01  0.769023D+00 -0.105048D+01  0.475801D+01
     25 -0.188629D-01  0.871262D-02 -0.307483D-01 -0.608805D-01  0.386985D+01
     26  0.460185D-02 -0.255856D-01 -0.136255D-01  0.352330D-01  0.646943D-01
     27  0.835227D-02 -0.698561D-01  0.522859D-01  0.707389D-01  0.267187D+00
     28 -0.885455D-02  0.137827D-01 -0.243403D-01  0.623109D-01  0.870202D-01
     29 -0.175666D-01 -0.233733D-01  0.209435D-01  0.498788D-01  0.121234D+00
     30 -0.233351D-02  0.527215D-01  0.465460D-01 -0.645683D-01  0.434923D-01
     31 -0.653148D-02  0.594838D-01 -0.102412D-01 -0.365833D-01  0.102311D-01
     32 -0.215737D-02  0.651001D-02 -0.182208D-01 -0.348291D-02 -0.114119D+00
     33 -0.525886D-02 -0.311610D-01  0.108531D-02 -0.180079D-02 -0.125401D+00
     34  0.162334D-02  0.902289D-01 -0.598509D-01  0.106188D-01 -0.120313D-02
     35 -0.551310D-03 -0.401957D-01 -0.788814D-02 -0.344362D-02 -0.119564D-02
     36 -0.508075D-02  0.181361D-01 -0.819433D-02 -0.260290D-01  0.102460D-01
     37  0.150874D-01 -0.119050D-02 -0.345864D-01  0.147078D-01 -0.129483D-02
     38 -0.109135D-01 -0.394813D-01  0.409509D-01 -0.228578D-01  0.414879D-03
     39 -0.155779D-02  0.232704D-01 -0.378128D-01 -0.821696D-02 -0.105736D-03
     40  0.114965D-01 -0.142616D-01  0.737819D-02 -0.424654D-01 -0.110006D-02
     41  0.610303D-02  0.119195D-01  0.174782D-01  0.105083D-01 -0.230196D-03
     42  0.231414D-02 -0.319852D-01  0.358451D-02 -0.207393D-01 -0.406773D-04
     43  0.443855D-01 -0.440352D-02  0.130732D-02  0.616246D-03 -0.741180D-03
     44 -0.151574D+00 -0.798937D-02  0.386534D-02  0.177053D-02  0.181267D-02
     45  0.166106D+00 -0.306017D-02  0.209127D-02  0.431542D-04  0.969670D-03
     46  0.946429D-02  0.357071D-02  0.118759D-01  0.406207D-02  0.191480D-02
     47  0.270844D-01  0.260079D-02  0.131856D-02  0.139637D-02  0.727056D-03
     48 -0.439125D+01  0.162109D-02  0.478968D-03 -0.406955D-02 -0.542709D-03
     49  0.212012D-01 -0.462621D-01  0.309973D-01 -0.204563D-01 -0.128945D-02
     50  0.828468D-01  0.485078D-01  0.247419D-01  0.604435D-02 -0.366959D-02
     51  0.117994D+00 -0.162407D-01  0.839763D-02  0.454350D-01  0.105737D-03
               26            27            28            29            30 
     26  0.324860D+01
     27 -0.104512D+01  0.220344D+01
     28  0.839974D-01  0.363935D-01  0.365771D+01
     29 -0.197661D+00 -0.111806D+00  0.670745D+00  0.220714D+01
     30 -0.994968D-01  0.105665D+00 -0.364439D+00  0.884930D+00  0.361479D+01
     31 -0.101169D+00 -0.134884D+00 -0.158167D+00  0.134084D+00 -0.121980D+00
[...]
   xx         0.617944D+02      0.915698D+01      0.101885D+02
   yx         0.647094D+01      0.958894D+00      0.106691D+01
   yy         0.604480D+02      0.895747D+01      0.996653D+01
   zx         0.101667D+02      0.150655D+01      0.167626D+01
   zy        -0.232977D+01     -0.345236D+00     -0.384127D+00
   zz         0.837496D+02      0.124104D+02      0.138084D+02

 ----------------------------------------------------------------------

 Test job not archived.
 1\1\GINC-C0291\Freq\RM062X\CC-pVTZ\C5H10O2\HARMS.N\26-Sep-2019\0\\#P G
 eom=AllCheck Guess=TCheck SCRF=Check Test GenChk RM062X/CC-pVTZ Freq\\
 Gaussian input prepared by ASE\\0,1\O,1.4152189439,0.2371716137,3.3310
 998244\O,2.8490333415,1.1499006689,1.1758911029\C,0.2999511526,0.38648
 64236,4.2139324435\C,0.758837173,1.296182774,5.3338461006\C,-0.1532561
 07,-0.9684010696,4.7309960609\C,1.1094350041,-0.1873962323,2.062820191
 4\C,1.8315999759,0.2610594621,1.0451945918\H,-0.5130221361,0.865393134
 6,3.6580479722\H,1.6039092251,0.8421254329,5.8520980533\H,1.0704983492
 ,2.2620676059,4.9401105589\H,-0.0456946424,1.4523889417,6.0514240456\H
 ,0.6631260793,-1.4436718111,5.2753135103\H,-0.4571071261,-1.6292581309
 ,3.920307589\H,-1.0015803139,-0.8506384879,5.4049463937\H,0.3104230865
 ,-0.9037716638,1.9363099741\H,1.6677344773,-0.0712175519,0.0323044617\
 H,2.9177631382,1.3683023911,2.1132744705\\Version=EM64L-G16RevA.03\Sta
 te=1-A\HF=-346.9479196\RMSD=1.550e-09\RMSF=1.027e-06\ZeroPoint=0.14753
 48\Thermal=0.156027\Dipole=-0.7372641,-0.1461093,0.6007321\DipoleDeriv
 =-0.5666498,-0.0875275,0.2518643,0.0081825,-0.3845872,-0.2914049,0.559
 6912,-0.000713,-1.6725696,-0.9395671,-0.4283953,0.3268673,-0.5443169,-
 0.6980023,0.2820787,-0.1499877,-0.1151976,-0.2770794,0.6283789,0.03695
 46,-0.5430692,0.0336942,0.4688854,0.0085886,-0.3091831,0.0051903,0.825
 4063,0.0522924,-0.0617496,-0.0018322,-0.0346182,-0.014915,-0.0737441,0
 .0147994,-0.0443669,-0.0533946,0.0215316,-0.0413249,0.0857813,-0.09367
 68,-0.1134196,0.0637678,0.0233281,0.0054345,-0.0130296,-0.2290669,0.08
 785,0.2557616,0.0017522,-0.0816978,0.2850324,-0.1447755,0.0994649,0.98
 66701,0.6738479,0.5500832,-0.2927534,0.6854605,0.3919097,-0.2228498,0.
 0470588,0.0485422,0.0709842,-0.0947912,0.0373252,0.0200463,0.040981,-0
 .0460433,0.0297517,-0.1055462,0.0558229,-0.0621908,-0.0298298,0.035850
 1,-0.0860022,0.079618,0.0101553,0.0430245,-0.0438303,0.0058865,0.02547
 03,0.0479333,-0.0660884,-0.0060379,-0.0543687,-0.0907876,0.026886,0.01
 41696,0.0654278,0.0312342,-0.0404979,0.0211481,0.0974515,-0.0021677,0.
 0676678,-0.0203539,0.0720101,-0.0273135,-0.0371267,-0.0374596,0.068112
 1,-0.0860235,0.0118924,0.0243032,0.0285238,-0.0462826,0.0484494,0.0226
 136,0.0626423,-0.0301638,-0.046208,-0.0335312,-0.0325604,-0.0737616,-0
 .0512372,-0.0935731,-0.040796,-0.0398515,0.0064018,0.1015762,0.0369758
 ,0.0512877,-0.0088126,0.0992571,0.0074715,-0.0230963,0.0626152,-0.1021
 744,-0.0701754,-0.1066365,0.0498044,-0.0152176,0.0268319,-0.0119027,0.
 0173276,0.0812122,-0.0550714,0.0056671,-0.0631612,0.0915175,-0.0409105
 ,-0.0216217,-0.0521049,-0.0117398,0.3472599,0.0287704,-0.0129137,0.033
 9209,0.3064822,-0.0205986,0.015318,0.0034817,0.2113166\Polar=63.881658
 1,8.0629453,60.9970229,-11.7572656,-0.4834118,81.1133291\Quadrupole=-0
 .5484194,0.1531557,0.3952637,0.6703474,1.6700008,2.2337791\PG=C01 [X(C
 5H10O2)]\NImag=0\\0.32179844,0.03323112,0.11969332,-0.06153967,0.11019
 521,0.50742808,0.00169779,0.00965127,0.00894896,0.27759078,0.00810088,
 0.00192469,0.01027021,0.21175741,0.23317104,0.00412548,0.00329835,0.00
 889005,0.02908031,0.11816577,0.58721588,-0.17834320,0.00620685,0.06714
 475,0.00413382,0.00378820,0.00083852,0.53946201,-0.00057537,-0.0642305
 1,-0.01085400,0.00154345,0.00051256,0.00274581,-0.02582553,0.52251403,
 0.03871222,-0.01125589,-0.11190909,-0.00339512,-0.00322731,0.00027870,
 0.07930318,-0.01584385,0.53358325,0.00382481,0.02037517,0.03569501,-0.
 00070363,-0.00026270,-0.00033813,-0.09590148,-0.03187103,-0.04675765,0
 .57768515,0.00128661,-0.00255533,-0.00946180,-0.00035194,-0.00063022,-
 0.00020170,-0.02361885,-0.12623712,-0.05505424,-0.01405002,0.55867115,
 0.00164966,-0.01922855,-0.03342494,0.00061941,0.00062204,0.00024086,-0
 .03421132,-0.05342399,-0.14408850,-0.02948148,-0.04141778,0.53590656,-
 0.02274173,-0.02609503,0.02636729,-0.00052097,-0.00030672,0.00057226,-
 0.08169547,-0.01970679,0.00079429,-0.00266649,-0.01382240,0.00048254,0
 .57836327,-0.00151353,0.00728014,-0.00138663,-0.00029750,0.00007282,-0
 .00021939,-0.02845859,-0.18529946,0.03677236,-0.00805182,-0.02656853,0
 .00412486,-0.02416540,0.50829160,0.02103628,0.01974834,-0.01866439,-0.
 00018203,-0.00001854,-0.00049885,0.00249894,0.03420492,-0.09194760,-0.
 00847077,-0.02407088,0.01085506,0.00934014,0.03796817,0.57016587,-0.10
 768278,-0.04287864,-0.05598904,-0.03723629,-0.04079701,0.02000873,0.01
 281912,0.01191724,0.02598371,-0.00439887,-0.00032946,0.00395364,-0.000
 91570,0.00148735,0.00194019,0.55204249,-0.03518323,-0.06870343,-0.0631
 3519,-0.04466743,-0.02051215,0.01626142,0.00831821,-0.00784485,-0.0097
 0365,0.00089904,-0.00018705,-0.00114908,-0.00260539,0.00170548,0.00317
 998,0.32971311,0.38119519,-0.02795352,-0.06798213,-0.26937771,-0.01067
 210,-0.00742494,0.00620488,0.00730913,-0.01082641,-0.04550790,0.000693
 20,0.00035715,-0.00101197,-0.00194608,0.00261630,0.00280331,-0.1694858
 3,-0.02752926,0.73823874,0.01011481,-0.00572670,-0.02142880,-0.2122147
 5,-0.14686060,-0.02767517,-0.00650833,-0.00292813,0.00189787,0.0013740
 6,0.00048037,-0.00118249,0.00015153,0.00000613,-0.00002725,-0.21636746
 ,-0.10134566,0.21425817,0.49051752,0.00278913,0.00780214,-0.02622655,-
 0.14065247,-0.16858858,-0.03492463,-0.00606685,-0.00205773,-0.00040423
 ,0.00106897,0.00056009,-0.00128535,0.00017703,-0.00038965,-0.00015546,
 -0.10405501,-0.12444897,0.12272020,0.29037743,0.37205318,0.02043929,0.
 00348138,-0.06969593,0.01269885,-0.00296869,-0.11261752,-0.00896902,-0
 .00094508,0.00239633,0.00190627,0.00008125,-0.00064292,0.00045388,-0.0
 0072050,-0.00050325,0.18661909,0.10458722,-0.36877671,-0.14017265,0.01
 435686,0.87322503,-0.03535031,0.01483605,0.00181198,-0.00021034,-0.000
 24992,-0.00007917,-0.17831213,0.07819911,-0.09440816,-0.00575897,0.002
 94505,-0.00641728,0.00930988,-0.00505732,0.00462651,0.00028966,-0.0025
 1209,-0.00517568,0.00057942,-0.00000996,0.00154374,0.20750556,0.006015
 63,0.00071538,-0.00278795,-0.00020332,-0.00028309,0.00002112,0.0786672
 9,-0.10118577,0.05831033,-0.01657540,0.00899346,-0.01179704,0.02130541
 ,-0.01491030,0.01781031,0.00075344,0.00108449,0.00097422,0.00002645,-0
 .00010766,-0.00065106,-0.08679590,0.10973225,0.02703094,-0.01230218,0.
 00318085,-0.00030680,-0.00067004,-0.00030452,-0.10190578,0.05949714,-0
 .12186733,-0.01867930,0.01021812,-0.01301052,-0.00837431,0.00500342,-0
 .00462054,0.00183078,-0.00061000,0.00512761,0.00072589,0.00131540,-0.0
 0023360,0.09853717,-0.06074835,0.13253135,0.00137085,-0.00029079,0.000
 44124,0.00009191,0.00006552,-0.00000321,-0.01091155,0.00507291,-0.0055
 4952,-0.20821821,0.08764442,-0.09797253,0.00019559,0.00071847,0.000416
 35,0.00032738,-0.00001182,0.00034560,-0.00008762,-0.00007287,-0.000018
 31,0.00065014,-0.00178941,-0.00123149,0.22473949,-0.00010152,0.0006243
 4,0.00203468,-0.00007068,0.00005708,-0.00003585,-0.01753320,0.00816424
 ,-0.01047184,0.08931625,-0.09658050,0.05480996,-0.00067848,0.00193357,
 -0.00036346,-0.00013756,-0.00016903,-0.00014041,0.00008465,0.00002263,
 0.00013923,-0.00111143,-0.00194881,-0.00334057,-0.09550599,0.10192760,
 0.00039437,0.00072088,0.00252814,0.00016518,0.00009050,0.00005037,-0.0
 2253285,0.01083832,-0.01517808,-0.09658496,0.05387859,-0.10504322,0.00
 100694,0.00137595,0.00062507,0.00035418,-0.00011129,-0.00026065,-0.000
 07121,-0.00010022,0.00020891,-0.00086147,-0.00370462,-0.00298878,0.109
 90251,-0.05694142,0.11363031,0.00041855,0.00116408,0.00009862,-0.00007
 360,-0.00007095,-0.00008110,-0.00501175,-0.00967256,0.00539262,-0.0690
 0179,-0.06753407,0.02744819,-0.00029352,-0.00095287,-0.00234176,-0.000
 13667,0.00006246,0.00008057,0.00013034,0.00009424,-0.00004945,-0.00005
 959,0.00015680,0.00047369,0.00849072,0.02287704,-0.00906843,0.07118151
 ,0.00057566,0.00205342,0.00088915,0.00015579,0.00029711,0.00014034,-0.
 00552039,-0.01839921,0.00892383,-0.06748176,-0.26041068,0.08914654,-0.
 00116143,-0.00132328,-0.00450330,0.00009395,0.00011674,-0.00030405,-0.
 00023239,-0.00024433,0.00000023,0.00009948,0.00096809,-0.00020562,-0.0
 0406455,-0.01098401,0.00411073,0.07620653,0.28231587,-0.00062899,0.001
 39589,0.00208573,-0.00011944,0.00006270,0.00003316,-0.00711106,-0.0246
 7017,0.00937911,0.02906439,0.09204634,-0.08549866,-0.00084112,-0.00249
 307,-0.00395303,-0.00027143,-0.00001720,-0.00016649,0.00006152,0.00004
 932,0.00005583,0.00032441,0.00079578,0.00120909,0.00529928,0.01216554,
 -0.00605956,-0.02958071,-0.09643563,0.09003093,0.00087062,-0.00161433,
 -0.00223110,0.00010546,0.00006321,0.00009944,0.00704231,-0.00109851,-0
 .00641506,-0.19727579,0.02851133,0.13301343,-0.00012848,-0.00007607,0.
 00008829,0.00078448,-0.00021714,-0.00054927,-0.00018965,-0.00012523,-0
 .00015630,0.00030310,0.00068789,0.00051424,-0.01690891,0.00220498,0.01
 683439,-0.00638748,0.00167735,0.00411986,0.21135064,-0.00112048,-0.001
 86301,-0.00514377,0.00022394,0.00025383,0.00011474,0.01637175,-0.00259
 746,-0.00836621,0.02659981,-0.05283590,-0.02515480,0.00034992,0.000397
 56,0.00031679,0.00110025,0.00023956,-0.00007096,-0.00042359,-0.0004736
 4,-0.00040346,-0.00026056,0.00056829,0.00030415,0.00916961,-0.00281870
 ,-0.00971483,-0.02149010,0.00612791,0.01872642,-0.02994122,0.05358347,
 -0.00168949,-0.00385164,-0.00618978,0.00040299,0.00024054,0.00007712,0
 .02009553,0.00021647,-0.01266868,0.13076709,-0.02658785,-0.16354857,0.
 00061964,0.00078154,0.00058783,0.00143307,-0.00030065,0.00083311,-0.00
 051530,-0.00045514,-0.00050218,-0.00041048,0.00078326,0.00031390,-0.01
 189746,0.00182476,0.01176113,0.00731754,-0.00218747,-0.00765344,-0.145
 01282,0.02964785,0.17669439,0.00186978,0.00026571,-0.00132596,0.000124
 06,0.00012543,-0.00002305,0.00628674,-0.00497857,0.00554358,0.00082316
 ,0.00008283,0.00069423,-0.20082489,0.08768074,-0.10202497,-0.00004612,
 0.00018955,0.00029388,-0.00008537,-0.00007320,-0.00002584,0.00035529,-
 0.00221107,0.00103478,0.00002761,0.00034879,0.00008403,0.00013345,0.00
 001558,0.00015113,-0.00001229,0.00008519,-0.00014692,0.21464713,-0.000
 28553,0.00282373,-0.00188693,-0.00003540,-0.00001650,-0.00002925,0.025
 77430,-0.01689726,0.01627002,0.00135563,0.00159508,0.00076253,0.085593
 23,-0.09519400,0.05625288,-0.00019214,-0.00004414,-0.00018506,0.000130
 06,0.00006784,-0.00009540,-0.00278823,-0.00489564,0.00184973,-0.000811
 77,-0.00028465,-0.00064286,-0.00029577,0.00046297,-0.00016770,-0.00001
 935,-0.00005458,-0.00004481,-0.09430433,0.10569094,-0.00014924,-0.0013
 2477,0.00113094,0.00009440,0.00004017,-0.00000920,-0.00941011,0.006974
 28,-0.00758463,0.00044619,-0.00114438,0.00035419,-0.10142320,0.0560163
 5,-0.11377264,-0.00017286,-0.00030707,-0.00083112,0.00007831,0.0000348
 3,0.00019650,0.00108627,0.00204550,0.00011630,0.00009268,0.00002923,0.
 00062747,0.00012461,-0.00011547,-0.00008990,0.00015322,-0.00000933,-0.
 00000132,0.11180204,-0.06418803,0.11982651,0.00047186,0.00097831,-0.00
 055437,0.00039710,0.00030363,-0.00002391,-0.00433302,-0.00493355,-0.00
 727821,-0.00007550,-0.00186736,0.00139752,-0.06787578,-0.04441631,-0.0
 5715231,-0.00046502,-0.00038550,-0.00003271,-0.00021151,-0.00000549,0.
 00029016,0.00016549,0.00034436,0.00054805,0.00037141,0.00023945,0.0003
 5039,0.00031589,-0.00056249,-0.00048868,0.00019111,-0.00008150,-0.0003
 2848,-0.00615486,-0.01565770,-0.01791107,0.06868565,0.00127461,0.00226
 195,0.00030796,0.00049490,0.00046396,-0.00005931,-0.00711116,-0.017194
 09,-0.02577018,-0.00152292,-0.00486967,0.00409106,-0.04516503,-0.14425
 702,-0.12051106,-0.00057557,-0.00043123,-0.00065980,-0.00007567,0.0000
 2640,0.00054944,0.00053135,0.00105001,0.00000722,-0.00012438,0.0000859
 3,0.00002273,-0.00089053,-0.00107063,-0.00144002,0.00017727,0.00024826
 ,0.00024783,0.00317568,0.00909146,0.01130771,0.05040295,0.15676087,-0.
 00114807,-0.00137929,0.00100351,0.00003667,-0.00014339,0.00001019,0.00
 398717,0.00783982,0.01051198,0.00097576,0.00177150,-0.00047722,-0.0574
 0289,-0.12222409,-0.20100397,-0.00001166,0.00021451,-0.00107231,0.0001
 1741,0.00024923,0.00011663,-0.00030625,-0.00094962,0.00056250,0.000234
 23,0.00013836,0.00002282,0.00025925,0.00049707,0.00053138,-0.00014701,
 0.00021194,0.00007575,-0.00275497,-0.00906082,-0.01168881,0.06157339,0
 .13255366,0.21764076,-0.00001017,-0.00252798,0.00238557,-0.00006767,-0
 .00013410,0.00002006,-0.00785609,0.00392181,0.00376134,-0.00000718,0.0
 0071950,0.00005484,-0.21071597,0.02358399,0.13042526,-0.00031443,-0.00
 059249,-0.00128855,0.00015439,0.00023565,0.00035719,0.00033402,-0.0004
 0905,0.00005066,-0.00001787,-0.00007145,0.00011536,0.00028026,-0.00002
 900,-0.00021147,0.00028190,-0.00055100,-0.00038423,-0.01709034,0.00148
 450,0.01532321,0.00817647,-0.00045928,-0.00652764,0.22667387,-0.005148
 08,-0.00530698,0.00560146,0.00006536,0.00000885,0.00016394,-0.02153462
 ,0.00741152,0.01557147,0.00015394,0.00091247,-0.00023041,0.02545882,-0
 .05140891,-0.01935946,-0.00078479,-0.00101042,-0.00176730,0.00001182,0
 .00019701,0.00049068,0.00111967,0.00084857,-0.00013009,-0.00003978,-0.
 00005917,-0.00006988,0.00030537,0.00021052,0.00008571,-0.00027932,-0.0
 0067493,-0.00030147,0.00959686,-0.00227016,-0.00961361,0.01599881,-0.0
 0234290,-0.01089179,-0.02539661,0.05320627,0.00155899,0.00254560,-0.00
 155479,0.00034999,0.00026381,-0.00010759,0.00743130,-0.00416278,-0.007
 57489,-0.00016474,-0.00073109,-0.00005946,0.13058720,-0.01781291,-0.14
 962829,0.00019985,0.00032013,0.00105110,-0.00015605,-0.00009339,0.0000
 2905,-0.00051176,0.00005069,0.00001183,-0.00010754,0.00007468,0.000033
 52,-0.00022974,0.00012691,-0.00002307,-0.00024195,-0.00021915,0.000482
 11,-0.01329042,0.00109515,0.01155359,0.01882592,-0.00160822,-0.0146633
 9,-0.14414656,0.02035205,0.16012632,-0.00225800,-0.00519489,-0.0052500
 3,0.00561142,-0.00381658,0.00383638,-0.00069634,0.00101726,0.00128450,
 0.00020237,0.00007944,-0.00014590,0.00002580,-0.00047291,0.00002539,-0
 .20409079,-0.15618208,-0.01597151,-0.00961636,-0.00939164,-0.00643740,
 0.00029037,0.00009109,0.00005712,-0.00007637,0.00004248,0.00002072,0.0
 0001167,0.00006933,0.00004579,-0.00001046,-0.00007196,-0.00010751,-0.0
 0002546,0.00001535,-0.00008928,0.00037218,-0.00010815,0.00111137,0.000
 13310,0.00035402,0.00001174,0.21174177,-0.00438067,-0.00490134,-0.0072
 4728,-0.00563274,0.00663310,-0.00018443,-0.00295826,0.00096586,0.00143
 092,0.00043255,-0.00024327,-0.00000712,0.00040629,-0.00011699,-0.00003
 011,-0.15816493,-0.16650248,-0.01823138,-0.00359902,-0.00466177,-0.002
 28263,0.00051526,-0.00060352,-0.00014810,0.00005537,0.00007849,0.00016
 628,-0.00001078,0.00007658,-0.00000707,0.00001446,-0.00004359,-0.00008
 397,0.00005258,-0.00003736,0.00018525,-0.00028785,0.00030026,0.0010988
 4,0.00010421,0.00013383,-0.00010483,0.17062849,0.17156390,-0.02459783,
 -0.02400357,-0.01254546,0.00394159,0.00053930,-0.00335441,-0.00378758,
 -0.00069465,0.00318274,0.00058501,0.00006622,-0.00032019,-0.00009689,0
 .00010400,-0.00056332,-0.01463654,-0.01830729,-0.05779479,0.01590376,0
 .01632781,0.00958834,0.00050363,-0.00021600,-0.00019345,0.00004718,-0.
 00000769,0.00019389,0.00001379,0.00019552,0.00011626,0.00010248,-0.000
 06655,-0.00020634,-0.00002034,0.00002906,0.00020325,0.00086091,0.00107
 687,-0.00152472,0.00010849,0.00019108,0.00033515,0.02184469,0.02464627
 ,0.06404193,0.00234451,-0.00443692,0.00556507,-0.00676369,-0.01197254,
 -0.02797713,0.00126123,-0.00130454,-0.00058376,-0.00001726,0.00000222,
 -0.00000449,-0.00020337,0.00016350,0.00024638,0.00721836,0.00766370,0.
 01249506,-0.05151470,-0.02100494,-0.03023784,-0.00020811,0.00004309,-0
 .00016653,-0.00002128,-0.00001073,-0.00003560,-0.00000015,0.00001313,-
 0.00000191,-0.00002428,0.00003598,-0.00001078,0.00001737,0.00002220,-0
 .00003182,0.00000113,0.00000364,-0.00003915,-0.00007261,-0.00008695,0.
 00002568,-0.00192125,0.00217974,-0.00065340,0.05273163,-0.00740048,0.0
 0386028,-0.00073460,-0.00665063,-0.00867930,-0.02331189,0.00027514,0.0
 0126931,0.00113915,-0.00049491,-0.00003201,0.00027885,0.00003006,-0.00
 005487,-0.00006937,0.00414422,0.00596911,0.01018492,-0.02135587,-0.068
 14966,-0.08165313,0.00010024,0.00000345,0.00017313,0.00002598,-0.00002
 627,0.00001185,-0.00000855,0.00002165,-0.00001302,0.00006971,0.0000988
 6,0.00013793,-0.00000472,-0.00002482,0.00001651,0.00000554,-0.00002811
 ,0.00003251,0.00002679,0.00000480,0.00001297,0.00224313,-0.00242097,0.
 00032205,0.03287760,0.06955717,0.00462957,0.00063549,0.00002933,-0.002
 86498,-0.00252308,0.00119386,-0.00104740,0.00015364,-0.00040543,0.0003
 2166,0.00000107,-0.00015690,0.00013901,-0.00007481,-0.00013646,-0.0075
 3812,-0.00919437,-0.01423068,-0.03532071,-0.08379607,-0.32449906,0.000
 03827,-0.00003819,-0.00004773,-0.00000983,0.00001602,0.00002395,-0.000
 01641,0.00000933,0.00001955,-0.00002494,-0.00006757,-0.00007733,-0.000
 00631,-0.00000487,0.00000210,0.00000013,0.00002520,0.00000917,0.000022
 11,0.00006671,-0.00002149,0.00019603,0.00082068,-0.00005395,0.04090321
 ,0.09358586,0.33604492,0.00160417,0.00205674,-0.00013950,-0.03196138,-
 0.01973316,-0.00238031,-0.00143586,0.00122282,0.00171417,0.00011561,-0
 .00017767,0.00010204,0.00053628,-0.00017787,-0.00044465,-0.00182737,-0
 .00314325,-0.00240035,-0.00622632,-0.01328481,-0.03824168,0.00011652,-
 0.00010731,-0.00013911,-0.00002327,0.00010740,-0.00007356,0.00000216,0
 .00014521,0.00018844,0.00000770,0.00000394,-0.00013239,-0.00004527,0.0
 0001496,-0.00001335,-0.00003259,-0.00002770,0.00004241,0.00011831,0.00
 020547,-0.00014191,0.00030636,0.00064531,-0.00011897,-0.00282754,-0.00
 388327,0.00057872,0.04157248,0.00243525,-0.00147880,-0.00043398,-0.025
 33001,-0.04468521,-0.08194503,-0.00077431,0.00110592,0.00167933,0.0001
 0920,0.00041803,-0.00014172,0.00038590,-0.00015815,-0.00039976,-0.0012
 9443,-0.00045684,-0.00173111,-0.00856930,-0.01160729,-0.03396635,0.000
 43919,-0.00002920,-0.00021336,-0.00004092,-0.00002274,0.00006928,0.000
 05968,-0.00021873,-0.00008381,-0.00003502,-0.00015594,-0.00006719,-0.0
 0004705,-0.00001292,0.00005283,-0.00007531,-0.00009545,0.00004156,0.00
 009449,0.00013963,-0.00010964,0.00069763,-0.00022074,-0.00020242,-0.00
 418817,-0.00136861,0.00038496,0.03613320,0.05884704,-0.00186998,-0.000
 69313,-0.00291452,-0.03879786,-0.11331906,-0.48730297,0.00036660,-0.00
 104945,-0.00059998,0.00002246,0.00024947,-0.00007362,-0.00027870,0.000
 16844,0.00025519,0.00578224,0.00580178,0.00477159,-0.00649330,-0.00761
 260,-0.00834544,-0.00030174,0.00010163,0.00021303,0.00001083,0.0000687
 7,-0.00017530,0.00015871,-0.00028811,-0.00001688,-0.00014689,-0.000105
 26,0.00002229,0.00001511,0.00004635,-0.00003325,-0.00007673,-0.0001410
 9,-0.00005427,-0.00006564,-0.00015909,0.00001029,-0.00043212,-0.000021
 33,-0.00110492,0.00050703,-0.00011371,0.00230615,0.04160001,0.11706640
 ,0.49304262\\-0.00000090,0.00000079,-0.00000117,-0.00000063,0.00000019
 ,0.00000153,0.00000034,0.00000029,-0.00000062,-0.00000070,0.00000101,0
 .00000014,0.00000025,-0.00000054,0.00000108,0.00000246,-0.00000210,0.0
 0000112,-0.00000047,-0.00000091,-0.00000047,-0.00000079,-0.00000082,-0
 .00000032,-0.00000079,0.00000217,-0.00000038,-0.00000148,0.00000096,-0
 .00000103,-0.00000059,0.00000107,-0.00000114,0.00000085,0.00000120,0.0
 0000092,0.00000150,-0.00000050,0.00000095,0.00000096,-0.00000027,0.000
 00052,0.00000049,-0.00000069,0.00000086,0.00000018,-0.00000174,0.00000
 022,-0.00000068,-0.00000008,-0.00000223\\\@


 QED = W**5 (WHICH WAS WHAT WE WANTED)
 Job cpu time:       0 days  2 hours 37 minutes 20.0 seconds.
 Elapsed time:       0 days  1 hours 18 minutes 41.3 seconds.
 File lengths (MBytes):  RWF=   1392 Int=      0 D2E=      0 Chk=     32 Scr=     32
 Normal termination of Gaussian 16 at Thu Sep 26 21:58:32 2019.
