 Entering Gaussian System, Link 0=g16
 Input=med/species/CC(C)OC=CO/conformers/CC(C)OC=CO_142.com
 Output=med/species/CC(C)OC=CO/conformers/CC(C)OC=CO_142.log
 Initial command:
 /shared/centos7/gaussian/g16/l1.exe "/scratch/harms.n/gauss_scrdir/Gau-47366.inp" -scrdir="/scratch/harms.n/gauss_scrdir/"
 Entering Link 1 = /shared/centos7/gaussian/g16/l1.exe PID=     47367.
  
 Copyright (c) 1988,1990,1992,1993,1995,1998,2003,2009,2016,
            Gaussian, Inc.  All Rights Reserved.
  
 This is part of the Gaussian(R) 16 program.  It is based on
 the Gaussian(R) 09 system (copyright 2009, Gaussian, Inc.),
 the Gaussian(R) 03 system (copyright 2003, Gaussian, Inc.),
 the Gaussian(R) 98 system (copyright 1998, Gaussian, Inc.),
 the Gaussian(R) 94 system (copyright 1995, Gaussian, Inc.),
 the Gaussian 92(TM) system (copyright 1992, Gaussian, Inc.),
 the Gaussian 90(TM) system (copyright 1990, Gaussian, Inc.),
 the Gaussian 88(TM) system (copyright 1988, Gaussian, Inc.),
 the Gaussian 86(TM) system (copyright 1986, Carnegie Mellon
 University), and the Gaussian 82(TM) system (copyright 1983,
 Carnegie Mellon University). Gaussian is a federally registered
 trademark of Gaussian, Inc.
  
 This software contains proprietary and confidential information,
 including trade secrets, belonging to Gaussian, Inc.
  
 This software is provided under written license and may be
 used, copied, transmitted, or stored only in accord with that
 written license.
  
 The following legend is applicable only to US Government
 contracts under FAR:
  
                    RESTRICTED RIGHTS LEGEND
  
 Use, reproduction and disclosure by the US Government is
 subject to restrictions as set forth in subparagraphs (a)
 and (c) of the Commercial Computer Software - Restricted
 Rights clause in FAR 52.227-19.
  
 Gaussian, Inc.
 340 Quinnipiac St., Bldg. 40, Wallingford CT 06492
  
  
 ---------------------------------------------------------------
 Warning -- This program may not be used in any manner that
 competes with the business of Gaussian, Inc. or will provide
 assistance to any competitor of Gaussian, Inc.  The licensee
 of this program is prohibited from giving any competitor of
 Gaussian, Inc. access to this program.  By using this program,
 the user acknowledges that Gaussian, Inc. is engaged in the
 business of creating and licensing software in the field of
 computational chemistry and represents and warrants to the
 licensee that it is not a competitor of Gaussian, Inc. and that
 it will not use this program in any manner prohibited above.
 ---------------------------------------------------------------
  

 Cite this work as:
 Gaussian 16, Revision A.03,
 M. J. Frisch, G. W. Trucks, H. B. Schlegel, G. E. Scuseria, 
 M. A. Robb, J. R. Cheeseman, G. Scalmani, V. Barone, 
 G. A. Petersson, H. Nakatsuji, X. Li, M. Caricato, A. V. Marenich, 
 J. Bloino, B. G. Janesko, R. Gomperts, B. Mennucci, H. P. Hratchian, 
 J. V. Ortiz, A. F. Izmaylov, J. L. Sonnenberg, D. Williams-Young, 
 F. Ding, F. Lipparini, F. Egidi, J. Goings, B. Peng, A. Petrone, 
 T. Henderson, D. Ranasinghe, V. G. Zakrzewski, J. Gao, N. Rega, 
 G. Zheng, W. Liang, M. Hada, M. Ehara, K. Toyota, R. Fukuda, 
 J. Hasegawa, M. Ishida, T. Nakajima, Y. Honda, O. Kitao, H. Nakai, 
 T. Vreven, K. Throssell, J. A. Montgomery, Jr., J. E. Peralta, 
 F. Ogliaro, M. J. Bearpark, J. J. Heyd, E. N. Brothers, K. N. Kudin, 
 V. N. Staroverov, T. A. Keith, R. Kobayashi, J. Normand, 
 K. Raghavachari, A. P. Rendell, J. C. Burant, S. S. Iyengar, 
 J. Tomasi, M. Cossi, J. M. Millam, M. Klene, C. Adamo, R. Cammi, 
 J. W. Ochterski, R. L. Martin, K. Morokuma, O. Farkas, 
 J. B. Foresman, and D. J. Fox, Gaussian, Inc., Wallingford CT, 2016.
 
 ******************************************
 Gaussian 16:  EM64L-G16RevA.03 25-Dec-2016
                26-Sep-2019 
 ******************************************
 %nprocshared=20
 Will use up to   20 processors via shared memory.
 %mem=5GB
 ----------------------------------------------------------------------
 #p m062x/cc-pVTZ opt=(calcfc,maxcycles=900,Tight) freq IOP(7/33=1,2/16
 =3) scf=(maxcycle=900)
 ----------------------------------------------------------------------
 1/6=900,7=10,10=4,18=20,19=15,26=3,38=1/1,3;
 2/9=110,12=2,16=3,17=6,18=5,40=1/2;
 3/5=16,6=1,11=2,25=1,30=1,71=2,74=-55,140=1/1,2,3;
 4//1;
 5/5=2,7=900,38=5/2;
 8/6=4,10=90,11=11/1;
 11/6=1,8=1,9=11,15=111,16=1/1,2,10;
 10/6=1,13=1/2;
 6/7=2,8=2,9=2,10=2,28=1/1;
 7/10=1,18=20,25=1,33=1/1,2,3,16;
 1/6=900,7=10,10=4,18=20,19=15,26=3/3(2);
 2/9=110,16=3/2;
 99//99;
 2/9=110,16=3/2;
 3/5=16,6=1,11=2,25=1,30=1,71=1,74=-55/1,2,3;
 4/5=5,16=3,69=1/1;
 5/5=2,7=900,38=5/2;
 7/33=1/1,2,3,16;
 1/6=900,7=10,18=20,19=15,26=3/3(-5);
 2/9=110,16=3/2;
 6/7=2,8=2,9=2,10=2,19=2,28=1/1;
 99/9=1/99;
 Leave Link    1 at Thu Sep 26 12:49:14 2019, MaxMem=   671088640 cpu:               4.1 elap:               2.0
 (Enter /shared/centos7/gaussian/g16/l101.exe)
 ------------------------------
 Gaussian input prepared by ASE
 ------------------------------
 Symbolic Z-matrix:
 Charge =  0 Multiplicity = 1
 O                    -0.07636  -1.42832   2.13476 
 O                     2.17566  -0.19567   3.49504 
 C                    -1.12127  -0.50714   2.36598 
 C                    -1.38969   0.37611   1.14744 
 C                    -0.89769   0.28742   3.61046 
 C                     1.01777  -0.86222   1.52134 
 C                     2.04586  -0.33581   2.12132 
 H                    -2.03032  -1.14829   2.53601 
 H                    -0.62373   0.17716   0.36903 
 H                    -2.38512   0.18979   0.70485 
 H                    -1.32989   1.46838   1.40437 
 H                    -0.19789   1.15863   3.44324 
 H                    -0.46891  -0.34862   4.41275 
 H                    -1.87101   0.70591   3.99397 
 H                     1.01346  -0.92673   0.42154 
 H                     2.87614   0.06148   1.55631 
 H                     3.12213   0.08204   3.6649 
 
 ITRead=  0  0  0  0  0  0  0  0  0  0  0  0  0  0  0  0  0
 MicOpt= -1 -1 -1 -1 -1 -1 -1 -1 -1 -1 -1 -1 -1 -1 -1 -1 -1
 NAtoms=     17 NQM=       17 NQMF=       0 NMMI=      0 NMMIF=      0
                NMic=       0 NMicF=      0.
                    Isotopes and Nuclear Properties:
 (Nuclear quadrupole moments (NQMom) in fm**2, nuclear magnetic moments (NMagM)
  in nuclear magnetons)

  Atom         1           2           3           4           5           6           7           8           9          10
 IAtWgt=          16          16          12          12          12          12          12           1           1           1
 AtmWgt=  15.9949146  15.9949146  12.0000000  12.0000000  12.0000000  12.0000000  12.0000000   1.0078250   1.0078250   1.0078250
 NucSpn=           0           0           0           0           0           0           0           1           1           1
 AtZEff=  -0.0000000  -0.0000000  -0.0000000  -0.0000000  -0.0000000  -0.0000000  -0.0000000  -0.0000000  -0.0000000  -0.0000000
 NQMom=    0.0000000   0.0000000   0.0000000   0.0000000   0.0000000   0.0000000   0.0000000   0.0000000   0.0000000   0.0000000
 NMagM=    0.0000000   0.0000000   0.0000000   0.0000000   0.0000000   0.0000000   0.0000000   2.7928460   2.7928460   2.7928460
 AtZNuc=   8.0000000   8.0000000   6.0000000   6.0000000   6.0000000   6.0000000   6.0000000   1.0000000   1.0000000   1.0000000

  Atom        11          12          13          14          15          16          17
 IAtWgt=           1           1           1           1           1           1           1
 AtmWgt=   1.0078250   1.0078250   1.0078250   1.0078250   1.0078250   1.0078250   1.0078250
 NucSpn=           1           1           1           1           1           1           1
 AtZEff=  -0.0000000  -0.0000000  -0.0000000  -0.0000000  -0.0000000  -0.0000000  -0.0000000
 NQMom=    0.0000000   0.0000000   0.0000000   0.0000000   0.0000000   0.0000000   0.0000000
 NMagM=    2.7928460   2.7928460   2.7928460   2.7928460   2.7928460   2.7928460   2.7928460
 AtZNuc=   1.0000000   1.0000000   1.0000000   1.0000000   1.0000000   1.0000000   1.0000000
 Leave Link  101 at Thu Sep 26 12:49:15 2019, MaxMem=   671088640 cpu:               2.0 elap:               1.0
 (Enter /shared/centos7/gaussian/g16/l103.exe)

 GradGradGradGradGradGradGradGradGradGradGradGradGradGradGradGradGradGrad
 Berny optimization.
 Initialization pass.
                           ----------------------------
                           !    Initial Parameters    !
                           ! (Angstroms and Degrees)  !
 --------------------------                            --------------------------
 ! Name  Definition              Value          Derivative Info.                !
 --------------------------------------------------------------------------------
 ! R1    R(1,3)                  1.412          calculate D2E/DX2 analytically  !
 ! R2    R(1,6)                  1.3762         calculate D2E/DX2 analytically  !
 ! R3    R(2,7)                  1.3869         calculate D2E/DX2 analytically  !
 ! R4    R(2,17)                 1.0009         calculate D2E/DX2 analytically  !
 ! R5    R(3,4)                  1.5287         calculate D2E/DX2 analytically  !
 ! R6    R(3,5)                  1.4933         calculate D2E/DX2 analytically  !
 ! R7    R(3,8)                  1.1253         calculate D2E/DX2 analytically  !
 ! R8    R(4,9)                  1.1101         calculate D2E/DX2 analytically  !
 ! R9    R(4,10)                 1.1052         calculate D2E/DX2 analytically  !
 ! R10   R(4,11)                 1.1237         calculate D2E/DX2 analytically  !
 ! R11   R(5,12)                 1.1299         calculate D2E/DX2 analytically  !
 ! R12   R(5,13)                 1.11           calculate D2E/DX2 analytically  !
 ! R13   R(5,14)                 1.1267         calculate D2E/DX2 analytically  !
 ! R14   R(6,7)                  1.3016         calculate D2E/DX2 analytically  !
 ! R15   R(6,15)                 1.1017         calculate D2E/DX2 analytically  !
 ! R16   R(7,16)                 1.08           calculate D2E/DX2 analytically  !
 ! A1    A(3,1,6)              113.1392         calculate D2E/DX2 analytically  !
 ! A2    A(7,2,17)             106.5362         calculate D2E/DX2 analytically  !
 ! A3    A(1,3,4)              112.1066         calculate D2E/DX2 analytically  !
 ! A4    A(1,3,5)              111.8868         calculate D2E/DX2 analytically  !
 ! A5    A(1,3,8)              104.5265         calculate D2E/DX2 analytically  !
 ! A6    A(4,3,5)              112.5277         calculate D2E/DX2 analytically  !
 ! A7    A(4,3,8)              107.9261         calculate D2E/DX2 analytically  !
 ! A8    A(5,3,8)              107.3481         calculate D2E/DX2 analytically  !
 ! A9    A(3,4,9)              109.5268         calculate D2E/DX2 analytically  !
 ! A10   A(3,4,10)             112.33           calculate D2E/DX2 analytically  !
 ! A11   A(3,4,11)             111.7174         calculate D2E/DX2 analytically  !
 ! A12   A(9,4,10)             108.0858         calculate D2E/DX2 analytically  !
 ! A13   A(9,4,11)             107.328          calculate D2E/DX2 analytically  !
 ! A14   A(10,4,11)            107.6601         calculate D2E/DX2 analytically  !
 ! A15   A(3,5,12)             112.3115         calculate D2E/DX2 analytically  !
 ! A16   A(3,5,13)             110.8114         calculate D2E/DX2 analytically  !
 ! A17   A(3,5,14)             110.6052         calculate D2E/DX2 analytically  !
 ! A18   A(12,5,13)            108.032          calculate D2E/DX2 analytically  !
 ! A19   A(12,5,14)            107.3983         calculate D2E/DX2 analytically  !
 ! A20   A(13,5,14)            107.4879         calculate D2E/DX2 analytically  !
 ! A21   A(1,6,7)              126.0792         calculate D2E/DX2 analytically  !
 ! A22   A(1,6,15)             114.6942         calculate D2E/DX2 analytically  !
 ! A23   A(7,6,15)             119.1401         calculate D2E/DX2 analytically  !
 ! A24   A(2,7,6)              124.8453         calculate D2E/DX2 analytically  !
 ! A25   A(2,7,16)             114.1452         calculate D2E/DX2 analytically  !
 ! A26   A(6,7,16)             120.9884         calculate D2E/DX2 analytically  !
 ! D1    D(6,1,3,4)             45.1108         calculate D2E/DX2 analytically  !
 ! D2    D(6,1,3,5)            -82.3943         calculate D2E/DX2 analytically  !
 ! D3    D(6,1,3,8)            161.754          calculate D2E/DX2 analytically  !
 ! D4    D(3,1,6,7)             91.0613         calculate D2E/DX2 analytically  !
 ! D5    D(3,1,6,15)           -92.3729         calculate D2E/DX2 analytically  !
 ! D6    D(17,2,7,6)           169.9878         calculate D2E/DX2 analytically  !
 ! D7    D(17,2,7,16)          -11.6747         calculate D2E/DX2 analytically  !
 ! D8    D(1,3,4,9)             -6.1617         calculate D2E/DX2 analytically  !
 ! D9    D(1,3,4,10)           113.9545         calculate D2E/DX2 analytically  !
 ! D10   D(1,3,4,11)          -124.9397         calculate D2E/DX2 analytically  !
 ! D11   D(5,3,4,9)            121.0004         calculate D2E/DX2 analytically  !
 ! D12   D(5,3,4,10)          -118.8834         calculate D2E/DX2 analytically  !
 ! D13   D(5,3,4,11)             2.2224         calculate D2E/DX2 analytically  !
 ! D14   D(8,3,4,9)           -120.7405         calculate D2E/DX2 analytically  !
 ! D15   D(8,3,4,10)            -0.6243         calculate D2E/DX2 analytically  !
 ! D16   D(8,3,4,11)           120.4814         calculate D2E/DX2 analytically  !
 ! D17   D(1,3,5,12)            81.8931         calculate D2E/DX2 analytically  !
 ! D18   D(1,3,5,13)           -39.0328         calculate D2E/DX2 analytically  !
 ! D19   D(1,3,5,14)          -158.1342         calculate D2E/DX2 analytically  !
 ! D20   D(4,3,5,12)           -45.3859         calculate D2E/DX2 analytically  !
 ! D21   D(4,3,5,13)          -166.3118         calculate D2E/DX2 analytically  !
 ! D22   D(4,3,5,14)            74.5868         calculate D2E/DX2 analytically  !
 ! D23   D(8,3,5,12)          -163.9844         calculate D2E/DX2 analytically  !
 ! D24   D(8,3,5,13)            75.0897         calculate D2E/DX2 analytically  !
 ! D25   D(8,3,5,14)           -44.0117         calculate D2E/DX2 analytically  !
 ! D26   D(1,6,7,2)             -3.5722         calculate D2E/DX2 analytically  !
 ! D27   D(1,6,7,16)           178.1975         calculate D2E/DX2 analytically  !
 ! D28   D(15,6,7,2)          -179.9997         calculate D2E/DX2 analytically  !
 ! D29   D(15,6,7,16)            1.7699         calculate D2E/DX2 analytically  !
 --------------------------------------------------------------------------------
 Trust Radius=3.00D-01 FncErr=1.00D-07 GrdErr=1.00D-06 EigMax=2.50D+02 EigMin=1.00D-04
 Number of steps in this run=    102 maximum allowed number of steps=    102.
 GradGradGradGradGradGradGradGradGradGradGradGradGradGradGradGradGradGrad

 Leave Link  103 at Thu Sep 26 12:49:16 2019, MaxMem=   671088640 cpu:               1.4 elap:               0.7
 (Enter /shared/centos7/gaussian/g16/l202.exe)
                          Input orientation:                          
 ---------------------------------------------------------------------
 Center     Atomic      Atomic             Coordinates (Angstroms)
 Number     Number       Type             X           Y           Z
 ---------------------------------------------------------------------
      1          8           0       -0.076364   -1.428325    2.134762
      2          8           0        2.175655   -0.195670    3.495037
      3          6           0       -1.121275   -0.507142    2.365978
      4          6           0       -1.389686    0.376115    1.147444
      5          6           0       -0.897688    0.287424    3.610463
      6          6           0        1.017775   -0.862225    1.521341
      7          6           0        2.045864   -0.335811    2.121318
      8          1           0       -2.030319   -1.148293    2.536012
      9          1           0       -0.623728    0.177157    0.369026
     10          1           0       -2.385115    0.189793    0.704847
     11          1           0       -1.329888    1.468381    1.404369
     12          1           0       -0.197888    1.158630    3.443235
     13          1           0       -0.468907   -0.348619    4.412754
     14          1           0       -1.871010    0.705908    3.993969
     15          1           0        1.013463   -0.926729    0.421542
     16          1           0        2.876137    0.061478    1.556313
     17          1           0        3.122126    0.082040    3.664897
 ---------------------------------------------------------------------
                    Distance matrix (angstroms):
                    1          2          3          4          5
     1  O    0.000000
     2  O    2.905404   0.000000
     3  C    1.412047   3.498791   0.000000
     4  C    2.440413   4.306946   1.528729   0.000000
     5  C    2.407501   3.113220   1.493342   2.513243   0.000000
     6  C    1.376189   2.383371   2.327022   2.732975   3.058615
     7  C    2.386968   1.386935   3.181192   3.641191   3.357153
     8  H    2.014288   4.417854   1.125320   2.159247   2.120986
     9  H    2.448470   4.212777   2.168787   1.110050   3.254863
    10  H    3.161217   5.360444   2.200538   1.105209   3.265666
    11  H    3.239707   4.407810   2.207012   1.123668   2.539352
    12  H    2.901587   2.733225   2.188133   2.702475   1.129905
    13  H    2.551293   2.803446   2.154067   3.469196   1.109989
    14  H    3.351471   4.175797   2.164243   2.905708   1.126748
    15  H    2.091518   3.366231   2.917875   2.828332   3.910996
    16  H    3.357287   2.077366   4.118032   4.296908   4.302597
    17  H    3.853940   1.000891   4.476693   5.174988   4.025426
                    6          7          8          9         10
     6  C    0.000000
     7  C    1.301558   0.000000
     8  H    3.225254   4.177004   0.000000
     9  H    2.258911   3.234252   2.903643   0.000000
    10  H    3.654184   4.681477   2.295543   1.793159   0.000000
    11  H    3.310125   3.894204   2.935677   1.799404   1.799339
    12  H    3.042264   3.002539   3.082653   3.255057   3.636121
    13  H    3.291547   3.402193   2.568977   4.080704   4.208362
    14  H    4.113151   4.464740   2.364124   3.869820   3.368827
    15  H    1.101697   2.074675   3.712773   1.975277   3.588484
    16  H    2.075563   1.080011   5.147491   3.697579   5.331251
    17  H    3.148772   1.927583   5.416252   4.990315   6.253256
                   11         12         13         14         15
    11  H    0.000000
    12  H    2.352519   0.000000
    13  H    3.618447   1.812517   0.000000
    14  H    2.753217   1.818682   1.803692   0.000000
    15  H    3.491961   3.866099   4.296674   4.873184   0.000000
    16  H    4.437693   3.770126   4.417777   5.375208   2.394538
    17  H    5.181927   3.497238   3.693275   5.042709   3.997928
                   16         17
    16  H    0.000000
    17  H    2.122983   0.000000
 Stoichiometry    C5H10O2
 Framework group  C1[X(C5H10O2)]
 Deg. of freedom    45
 Full point group                 C1      NOp   1
 Largest Abelian subgroup         C1      NOp   1
 Largest concise Abelian subgroup C1      NOp   1
                         Standard orientation:                         
 ---------------------------------------------------------------------
 Center     Atomic      Atomic             Coordinates (Angstroms)
 Number     Number       Type             X           Y           Z
 ---------------------------------------------------------------------
      1          8           0       -0.243434   -0.465975    1.048705
      2          8           0        2.123688    0.755345   -0.111676
      3          6           0       -1.295181    0.196193    0.378451
      4          6           0       -1.895835   -0.659783   -0.736687
      5          6           0       -0.886060    1.551187   -0.097659
      6          6           0        0.639039   -1.084145    0.192551
      7          6           0        1.718534   -0.556515   -0.307798
      8          1           0       -2.084859    0.341836    1.166830
      9          1           0       -1.297723   -1.587337   -0.855509
     10          1           0       -2.941237   -0.950230   -0.526303
     11          1           0       -1.882987   -0.124429   -1.724544
     12          1           0       -0.320398    1.509775   -1.074899
     13          1           0       -0.240373    2.054292    0.652039
     14          1           0       -1.789849    2.204421   -0.258943
     15          1           0        0.407213   -2.139069   -0.024543
     16          1           0        2.370010   -1.128486   -0.951887
     17          1           0        3.055189    0.822649   -0.471618
 ---------------------------------------------------------------------
 Rotational constants (GHZ):           4.1322996           1.9546805           1.6325130
 Leave Link  202 at Thu Sep 26 12:49:17 2019, MaxMem=   671088640 cpu:               3.3 elap:               1.7
 (Enter /shared/centos7/gaussian/g16/l301.exe)
 Standard basis: CC-pVTZ (5D, 7F)
 Ernie: Thresh=  0.10000D-02 Tol=  0.10000D-05 Strict=F.
 Ernie:  21 primitive shells out of 262 were deleted.
 There are   395 symmetry adapted cartesian basis functions of A   symmetry.
 There are   350 symmetry adapted basis functions of A   symmetry.
   350 basis functions,   534 primitive gaussians,   395 cartesian basis functions
    28 alpha electrons       28 beta electrons
       nuclear repulsion energy       323.7365236416 Hartrees.
 IExCor= 4336 DFT=T Ex+Corr=M062X ExCW=0 ScaHFX=  0.540000
 ScaDFX=  1.000000  1.000000  1.000000  1.000000 ScalE2=  1.000000  1.000000
 IRadAn=      5 IRanWt=     -1 IRanGd=            0 ICorTp=0 IEmpDi=  4
 NAtoms=   17 NActive=   17 NUniq=   17 SFac= 1.00D+00 NAtFMM=   60 NAOKFM=F Big=F
 Integral buffers will be    131072 words long.
 Raffenetti 2 integral format.
 Two-electron integral symmetry is turned on.
 Leave Link  301 at Thu Sep 26 12:49:18 2019, MaxMem=   671088640 cpu:               1.5 elap:               0.8
 (Enter /shared/centos7/gaussian/g16/l302.exe)
 NPDir=0 NMtPBC=     1 NCelOv=     1 NCel=       1 NClECP=     1 NCelD=      1
         NCelK=      1 NCelE2=     1 NClLst=     1 CellRange=     0.0.
 One-electron integrals computed using PRISM.
 One-electron integral symmetry used in STVInt
 NBasis=   350 RedAO= T EigKep=  2.72D-04  NBF=   350
 NBsUse=   350 1.00D-06 EigRej= -1.00D+00 NBFU=   350
 Precomputing XC quadrature grid using
 IXCGrd= 4 IRadAn=           5 IRanWt=          -1 IRanGd=           0 AccXCQ= 0.00D+00.
 Generated NRdTot=       0 NPtTot=           0 NUsed=           0 NTot=          32
 NSgBfM=   395   395   395   395   395 MxSgAt=    17 MxSgA2=    17.
 Leave Link  302 at Thu Sep 26 12:50:14 2019, MaxMem=   671088640 cpu:             112.5 elap:              56.3
 (Enter /shared/centos7/gaussian/g16/l303.exe)
 DipDrv:  MaxL=1.
 Leave Link  303 at Thu Sep 26 12:50:19 2019, MaxMem=   671088640 cpu:               8.9 elap:               4.5
 (Enter /shared/centos7/gaussian/g16/l401.exe)
 ExpMin= 1.03D-01 ExpMax= 1.53D+04 ExpMxC= 5.22D+02 IAcc=3 IRadAn=         5 AccDes= 0.00D+00
 Harris functional with IExCor= 1009 and IRadAn=       5 diagonalized for initial guess.
 HarFok:  IExCor= 1009 AccDes= 0.00D+00 IRadAn=         5 IDoV= 1 UseB2=F ITyADJ=14
 ICtDFT=  3500011 ScaDFX=  1.000000  1.000000  1.000000  1.000000
 FoFCou: FMM=F IPFlag=           0 FMFlag=      100000 FMFlg1=           0
         NFxFlg=           0 DoJE=T BraDBF=F KetDBF=T FulRan=T
         wScrn=  0.000000 ICntrl=       500 IOpCl=  0 I1Cent=   200000004 NGrid=           0
         NMat0=    1 NMatS0=      1 NMatT0=    0 NMatD0=    1 NMtDS0=    0 NMtDT0=    0
 Petite list used in FoFCou.
 Harris En= -346.804876820304    
 JPrj=0 DoOrth=F DoCkMO=F.
 Leave Link  401 at Thu Sep 26 12:50:49 2019, MaxMem=   671088640 cpu:              59.8 elap:              29.9
 (Enter /shared/centos7/gaussian/g16/l502.exe)
 Integral symmetry usage will be decided dynamically.
 Closed shell SCF:
 Using DIIS extrapolation, IDIIS=  1040.
 NGot=   671088640 LenX=   670765141 LenY=   670608675
 Requested convergence on RMS density matrix=1.00D-08 within 900 cycles.
 Requested convergence on MAX density matrix=1.00D-06.
 Requested convergence on             energy=1.00D-06.
 No special actions if energy rises.
 Fock matrices will be formed incrementally for  20 cycles.
 Integral accuracy reduced to 1.0D-05 until final iterations.

 Cycle   1  Pass 0  IDiag  1:
 FoFJK:  IHMeth= 1 ICntrl=       0 DoSepK=F KAlg= 0 I1Cent=           0 FoldK=F
 IRaf= 970000000 NMat=       1 IRICut=       1 DoRegI=T DoRafI=F ISym2E= 0 IDoP0=0 IntGTp=1.
 FoFCou: FMM=F IPFlag=           0 FMFlag=      100000 FMFlg1=           0
         NFxFlg=           0 DoJE=F BraDBF=F KetDBF=F FulRan=T
         wScrn=  0.000000 ICntrl=         0 IOpCl=  0 I1Cent=           0 NGrid=           0
         NMat0=    1 NMatS0=      1 NMatT0=    0 NMatD0=    1 NMtDS0=    0 NMtDT0=    0
 Symmetry not used in FoFCou.
 E= -346.685232055712    
 DIIS: error= 2.01D-02 at cycle   1 NSaved=   1.
 NSaved= 1 IEnMin= 1 EnMin= -346.685232055712     IErMin= 1 ErrMin= 2.01D-02
 ErrMax= 2.01D-02  0.00D+00 EMaxC= 1.00D-01 BMatC= 2.90D-01 BMatP= 2.90D-01
 IDIUse=3 WtCom= 7.99D-01 WtEn= 2.01D-01
 Coeff-Com:  0.100D+01
 Coeff-En:   0.100D+01
 Coeff:      0.100D+01
 Gap=     0.360 Goal=   None    Shift=    0.000
 GapD=    0.360 DampG=1.000 DampE=0.500 DampFc=0.5000 IDamp=-1.
 Damping current iteration by 5.00D-01
 RMSDP=2.49D-03 MaxDP=1.66D-01              OVMax= 1.46D-01

 Cycle   2  Pass 0  IDiag  1:
 RMSU=  1.25D-03    CP:  1.00D+00
 E= -346.805352030483     Delta-E=       -0.120119974770 Rises=F Damp=T
 DIIS: error= 6.23D-03 at cycle   2 NSaved=   2.
 NSaved= 2 IEnMin= 2 EnMin= -346.805352030483     IErMin= 2 ErrMin= 6.23D-03
 ErrMax= 6.23D-03  0.00D+00 EMaxC= 1.00D-01 BMatC= 2.17D-02 BMatP= 2.90D-01
 IDIUse=3 WtCom= 9.38D-01 WtEn= 6.23D-02
 Coeff-Com: -0.112D+00 0.111D+01
 Coeff-En:   0.000D+00 0.100D+01
 Coeff:     -0.105D+00 0.111D+01
 Gap=     0.339 Goal=   None    Shift=    0.000
 RMSDP=5.53D-04 MaxDP=2.61D-02 DE=-1.20D-01 OVMax= 7.73D-02

 Cycle   3  Pass 0  IDiag  1:
 RMSU=  4.99D-04    CP:  1.01D+00  8.11D-01
 E= -346.916473646884     Delta-E=       -0.111121616402 Rises=F Damp=F
 DIIS: error= 2.21D-03 at cycle   3 NSaved=   3.
 NSaved= 3 IEnMin= 3 EnMin= -346.916473646884     IErMin= 3 ErrMin= 2.21D-03
 ErrMax= 2.21D-03  0.00D+00 EMaxC= 1.00D-01 BMatC= 4.25D-03 BMatP= 2.17D-02
 IDIUse=3 WtCom= 9.78D-01 WtEn= 2.21D-02
 Coeff-Com: -0.815D-01 0.324D+00 0.758D+00
 Coeff-En:   0.000D+00 0.000D+00 0.100D+01
 Coeff:     -0.797D-01 0.317D+00 0.763D+00
 Gap=     0.336 Goal=   None    Shift=    0.000
 RMSDP=1.99D-04 MaxDP=1.05D-02 DE=-1.11D-01 OVMax= 1.31D-02

 Cycle   4  Pass 0  IDiag  1:
 RMSU=  1.25D-04    CP:  1.01D+00  9.24D-01  8.75D-01
 E= -346.919067853031     Delta-E=       -0.002594206146 Rises=F Damp=F
 DIIS: error= 1.23D-03 at cycle   4 NSaved=   4.
 NSaved= 4 IEnMin= 4 EnMin= -346.919067853031     IErMin= 4 ErrMin= 1.23D-03
 ErrMax= 1.23D-03  0.00D+00 EMaxC= 1.00D-01 BMatC= 9.19D-04 BMatP= 4.25D-03
 IDIUse=3 WtCom= 9.88D-01 WtEn= 1.23D-02
 Coeff-Com: -0.270D-01 0.739D-01 0.361D+00 0.592D+00
 Coeff-En:   0.000D+00 0.000D+00 0.976D-01 0.902D+00
 Coeff:     -0.267D-01 0.730D-01 0.358D+00 0.596D+00
 Gap=     0.334 Goal=   None    Shift=    0.000
 RMSDP=6.70D-05 MaxDP=3.85D-03 DE=-2.59D-03 OVMax= 6.10D-03

 Cycle   5  Pass 0  IDiag  1:
 RMSU=  2.98D-05    CP:  1.00D+00  8.97D-01  9.25D-01  6.58D-01
 E= -346.919732280503     Delta-E=       -0.000664427472 Rises=F Damp=F
 DIIS: error= 2.40D-04 at cycle   5 NSaved=   5.
 NSaved= 5 IEnMin= 5 EnMin= -346.919732280503     IErMin= 5 ErrMin= 2.40D-04
 ErrMax= 2.40D-04  0.00D+00 EMaxC= 1.00D-01 BMatC= 3.94D-05 BMatP= 9.19D-04
 IDIUse=3 WtCom= 9.98D-01 WtEn= 2.40D-03
 Coeff-Com: -0.565D-02 0.105D-01 0.100D+00 0.246D+00 0.649D+00
 Coeff-En:   0.000D+00 0.000D+00 0.000D+00 0.000D+00 0.100D+01
 Coeff:     -0.563D-02 0.105D-01 0.100D+00 0.245D+00 0.650D+00
 Gap=     0.334 Goal=   None    Shift=    0.000
 RMSDP=1.23D-05 MaxDP=4.32D-04 DE=-6.64D-04 OVMax= 8.13D-04

 Cycle   6  Pass 0  IDiag  1:
 RMSU=  8.47D-06    CP:  1.01D+00  8.96D-01  9.31D-01  6.90D-01  7.64D-01
 E= -346.919760121619     Delta-E=       -0.000027841116 Rises=F Damp=F
 DIIS: error= 4.28D-05 at cycle   6 NSaved=   6.
 NSaved= 6 IEnMin= 6 EnMin= -346.919760121619     IErMin= 6 ErrMin= 4.28D-05
 ErrMax= 4.28D-05  0.00D+00 EMaxC= 1.00D-01 BMatC= 1.46D-06 BMatP= 3.94D-05
 IDIUse=1 WtCom= 1.00D+00 WtEn= 0.00D+00
 Coeff-Com: -0.101D-03-0.974D-03 0.117D-01 0.493D-01 0.198D+00 0.742D+00
 Coeff:     -0.101D-03-0.974D-03 0.117D-01 0.493D-01 0.198D+00 0.742D+00
 Gap=     0.335 Goal=   None    Shift=    0.000
 RMSDP=3.61D-06 MaxDP=1.90D-04 DE=-2.78D-05 OVMax= 4.33D-04

 Initial convergence to 1.0D-05 achieved.  Increase integral accuracy.
 Cycle   7  Pass 1  IDiag  1:
 E= -346.919766601510     Delta-E=       -0.000006479892 Rises=F Damp=F
 DIIS: error= 2.16D-05 at cycle   1 NSaved=   1.
 NSaved= 1 IEnMin= 1 EnMin= -346.919766601510     IErMin= 1 ErrMin= 2.16D-05
 ErrMax= 2.16D-05  0.00D+00 EMaxC= 1.00D-01 BMatC= 8.80D-07 BMatP= 8.80D-07
 IDIUse=1 WtCom= 1.00D+00 WtEn= 0.00D+00
 Coeff-Com:  0.100D+01
 Coeff:      0.100D+01
 Gap=     0.335 Goal=   None    Shift=    0.000
 RMSDP=3.61D-06 MaxDP=1.90D-04 DE=-6.48D-06 OVMax= 1.63D-04

 Cycle   8  Pass 1  IDiag  1:
 RMSU=  7.16D-06    CP:  1.00D+00
 E= -346.919766863453     Delta-E=       -0.000000261943 Rises=F Damp=F
 DIIS: error= 1.74D-05 at cycle   2 NSaved=   2.
 NSaved= 2 IEnMin= 2 EnMin= -346.919766863453     IErMin= 2 ErrMin= 1.74D-05
 ErrMax= 1.74D-05  0.00D+00 EMaxC= 1.00D-01 BMatC= 3.63D-07 BMatP= 8.80D-07
 IDIUse=1 WtCom= 1.00D+00 WtEn= 0.00D+00
 Coeff-Com:  0.358D+00 0.642D+00
 Coeff:      0.358D+00 0.642D+00
 Gap=     0.335 Goal=   None    Shift=    0.000
 RMSDP=1.33D-06 MaxDP=7.39D-05 DE=-2.62D-07 OVMax= 1.78D-04

 Cycle   9  Pass 1  IDiag  1:
 RMSU=  1.31D-06    CP:  1.00D+00  9.77D-01
 E= -346.919767083677     Delta-E=       -0.000000220224 Rises=F Damp=F
 DIIS: error= 7.12D-06 at cycle   3 NSaved=   3.
 NSaved= 3 IEnMin= 3 EnMin= -346.919767083677     IErMin= 3 ErrMin= 7.12D-06
 ErrMax= 7.12D-06  0.00D+00 EMaxC= 1.00D-01 BMatC= 6.80D-08 BMatP= 3.63D-07
 IDIUse=1 WtCom= 1.00D+00 WtEn= 0.00D+00
 Coeff-Com: -0.161D-01 0.293D+00 0.723D+00
 Coeff:     -0.161D-01 0.293D+00 0.723D+00
 Gap=     0.335 Goal=   None    Shift=    0.000
 RMSDP=5.20D-07 MaxDP=3.40D-05 DE=-2.20D-07 OVMax= 3.46D-05

 Cycle  10  Pass 1  IDiag  1:
 RMSU=  2.59D-07    CP:  1.00D+00  1.02D+00  7.29D-01
 E= -346.919767130395     Delta-E=       -0.000000046718 Rises=F Damp=F
 DIIS: error= 1.30D-06 at cycle   4 NSaved=   4.
 NSaved= 4 IEnMin= 4 EnMin= -346.919767130395     IErMin= 4 ErrMin= 1.30D-06
 ErrMax= 1.30D-06  0.00D+00 EMaxC= 1.00D-01 BMatC= 1.54D-09 BMatP= 6.80D-08
 IDIUse=1 WtCom= 1.00D+00 WtEn= 0.00D+00
 Coeff-Com: -0.127D-01 0.112D+00 0.296D+00 0.605D+00
 Coeff:     -0.127D-01 0.112D+00 0.296D+00 0.605D+00
 Gap=     0.335 Goal=   None    Shift=    0.000
 RMSDP=1.00D-07 MaxDP=4.73D-06 DE=-4.67D-08 OVMax= 8.03D-06

 Cycle  11  Pass 1  IDiag  1:
 RMSU=  9.09D-08    CP:  1.00D+00  1.01D+00  7.58D-01  9.35D-01
 E= -346.919767131647     Delta-E=       -0.000000001252 Rises=F Damp=F
 DIIS: error= 3.58D-07 at cycle   5 NSaved=   5.
 NSaved= 5 IEnMin= 5 EnMin= -346.919767131647     IErMin= 5 ErrMin= 3.58D-07
 ErrMax= 3.58D-07  0.00D+00 EMaxC= 1.00D-01 BMatC= 1.37D-10 BMatP= 1.54D-09
 IDIUse=1 WtCom= 1.00D+00 WtEn= 0.00D+00
 Coeff-Com: -0.580D-03-0.181D-01-0.474D-01 0.167D+00 0.899D+00
 Coeff:     -0.580D-03-0.181D-01-0.474D-01 0.167D+00 0.899D+00
 Gap=     0.335 Goal=   None    Shift=    0.000
 RMSDP=4.69D-08 MaxDP=2.47D-06 DE=-1.25D-09 OVMax= 5.07D-06

 Cycle  12  Pass 1  IDiag  1:
 RMSU=  2.69D-08    CP:  1.00D+00  1.02D+00  7.56D-01  1.07D+00  1.01D+00
 E= -346.919767131765     Delta-E=       -0.000000000117 Rises=F Damp=F
 DIIS: error= 1.93D-07 at cycle   6 NSaved=   6.
 NSaved= 6 IEnMin= 6 EnMin= -346.919767131765     IErMin= 6 ErrMin= 1.93D-07
 ErrMax= 1.93D-07  0.00D+00 EMaxC= 1.00D-01 BMatC= 1.75D-11 BMatP= 1.37D-10
 IDIUse=1 WtCom= 1.00D+00 WtEn= 0.00D+00
 Coeff-Com:  0.807D-03-0.167D-01-0.457D-01 0.212D-01 0.380D+00 0.660D+00
 Coeff:      0.807D-03-0.167D-01-0.457D-01 0.212D-01 0.380D+00 0.660D+00
 Gap=     0.335 Goal=   None    Shift=    0.000
 RMSDP=1.15D-08 MaxDP=3.93D-07 DE=-1.17D-10 OVMax= 1.25D-06

 Cycle  13  Pass 1  IDiag  1:
 RMSU=  8.06D-09    CP:  1.00D+00  1.02D+00  7.57D-01  1.09D+00  1.08D+00
                    CP:  9.19D-01
 E= -346.919767131782     Delta-E=       -0.000000000017 Rises=F Damp=F
 DIIS: error= 3.63D-08 at cycle   7 NSaved=   7.
 NSaved= 7 IEnMin= 7 EnMin= -346.919767131782     IErMin= 7 ErrMin= 3.63D-08
 ErrMax= 3.63D-08  0.00D+00 EMaxC= 1.00D-01 BMatC= 1.32D-12 BMatP= 1.75D-11
 IDIUse=1 WtCom= 1.00D+00 WtEn= 0.00D+00
 Coeff-Com:  0.376D-03-0.430D-02-0.127D-01-0.937D-02 0.480D-01 0.233D+00
 Coeff-Com:  0.745D+00
 Coeff:      0.376D-03-0.430D-02-0.127D-01-0.937D-02 0.480D-01 0.233D+00
 Coeff:      0.745D+00
 Gap=     0.335 Goal=   None    Shift=    0.000
 RMSDP=4.22D-09 MaxDP=1.65D-07 DE=-1.71D-11 OVMax= 4.51D-07

 SCF Done:  E(RM062X) =  -346.919767132     A.U. after   13 cycles
            NFock= 13  Conv=0.42D-08     -V/T= 2.0062
 KE= 3.447794640559D+02 PE=-1.457790741096D+03 EE= 4.423549862667D+02
 Leave Link  502 at Thu Sep 26 13:01:11 2019, MaxMem=   671088640 cpu:            1245.1 elap:             622.7
 (Enter /shared/centos7/gaussian/g16/l801.exe)
 DoSCS=F DFT=T ScalE2(SS,OS)=  1.000000  1.000000
 Range of M.O.s used for correlation:     1   350
 NBasis=   350 NAE=    28 NBE=    28 NFC=     0 NFV=     0
 NROrb=    350 NOA=    28 NOB=    28 NVA=   322 NVB=   322

 **** Warning!!: The largest alpha MO coefficient is  0.10819838D+02

 Leave Link  801 at Thu Sep 26 13:01:12 2019, MaxMem=   671088640 cpu:               1.4 elap:               0.7
 (Enter /shared/centos7/gaussian/g16/l1101.exe)
 Using compressed storage, NAtomX=    17.
 Will process     18 centers per pass.
 Leave Link 1101 at Thu Sep 26 13:01:39 2019, MaxMem=   671088640 cpu:              52.9 elap:              26.5
 (Enter /shared/centos7/gaussian/g16/l1102.exe)
 Symmetrizing basis deriv contribution to polar:
 IMax=3 JMax=2 DiffMx= 0.00D+00
 Leave Link 1102 at Thu Sep 26 13:01:41 2019, MaxMem=   671088640 cpu:               5.5 elap:               2.8
 (Enter /shared/centos7/gaussian/g16/l1110.exe)
 Forming Gx(P) for the SCF density, NAtomX=    17.
 Integral derivatives from FoFJK, PRISM(SPDF).
 Do as many integral derivatives as possible in FoFJK.
 G2DrvN: MDV=     671087280.
 G2DrvN: will do    18 centers at a time, making    1 passes.
 Calling FoFCou, ICntrl=  3107 FMM=F I1Cent=   0 AccDes= 0.00D+00.
 FoFJK:  IHMeth= 1 ICntrl=    3107 DoSepK=F KAlg= 0 I1Cent=           0 FoldK=F
 IRaf=         0 NMat=       1 IRICut=       1 DoRegI=T DoRafI=F ISym2E= 0 IDoP0=0 IntGTp=1.
 FoFCou: FMM=F IPFlag=           0 FMFlag=      100000 FMFlg1=           0
         NFxFlg=           0 DoJE=F BraDBF=F KetDBF=F FulRan=T
         wScrn=  0.000000 ICntrl=      3107 IOpCl=  0 I1Cent=           0 NGrid=           0
         NMat0=    1 NMatS0=      1 NMatT0=    0 NMatD0=    1 NMtDS0=    0 NMtDT0=    0
 Symmetry not used in FoFCou.
 End of G2Drv F.D. properties file   721 does not exist.
 End of G2Drv F.D. properties file   722 does not exist.
 End of G2Drv F.D. properties file   788 does not exist.
 Leave Link 1110 at Thu Sep 26 13:20:09 2019, MaxMem=   671088640 cpu:            2215.1 elap:            1107.7
 (Enter /shared/centos7/gaussian/g16/l1002.exe)
 Minotr:  Closed shell wavefunction.
          IDoAtm=11111111111111111
          Direct CPHF calculation.
          Differentiating once with respect to nuclear coordinates.
          Requested convergence is 1.0D-08 RMS, and 1.0D-07 maximum.
          Secondary convergence is 1.0D-12 RMS, and 1.0D-12 maximum.
          NewPWx=T KeepS1=F KeepF1=F KeepIn=T MapXYZ=F SortEE=F KeepMc=T.
         5081 words used for storage of precomputed grid.
 Two-electron integrals replicated using symmetry.
          MDV=     671088640 using IRadAn=       1.
          Solving linear equations simultaneously, MaxMat=     380.
 FoF2E skips out because all densities are zero.
 CalDSu exits because no D1Ps are significant.
 FoFJK:  IHMeth= 1 ICntrl=       0 DoSepK=F KAlg= 0 I1Cent=           0 FoldK=F
 IRaf= 960000000 NMat=      51 IRICut=     127 DoRegI=T DoRafI=T ISym2E= 2 IDoP0=3 IntGTp=3.
 FoFCou: FMM=F IPFlag=           0 FMFlag=      100000 FMFlg1=           0
         NFxFlg=           0 DoJE=F BraDBF=F KetDBF=F FulRan=T
         wScrn=  0.000000 ICntrl=         0 IOpCl=  0 I1Cent=           0 NGrid=           0
         NMat0=   51 NMatS0=     51 NMatT0=    0 NMatD0=   51 NMtDS0=    0 NMtDT0=    0
 Integrals replicated using symmetry in FoFCou.
 Raff kept on since  93.12% of shell-pairs survive, threshold=   0.20 IRatSp=93.
          There are    54 degrees of freedom in the 1st order CPHF.  IDoFFX=6 NUNeed=     0.
     48 vectors produced by pass  0 Test12= 1.67D-14 1.85D-09 XBig12= 6.91D-02 5.03D-02.
 AX will form    48 AO Fock derivatives at one time.
     48 vectors produced by pass  1 Test12= 1.67D-14 1.85D-09 XBig12= 8.34D-03 2.29D-02.
     48 vectors produced by pass  2 Test12= 1.67D-14 1.85D-09 XBig12= 2.34D-04 2.58D-03.
     48 vectors produced by pass  3 Test12= 1.67D-14 1.85D-09 XBig12= 2.47D-06 1.94D-04.
     48 vectors produced by pass  4 Test12= 1.67D-14 1.85D-09 XBig12= 1.58D-08 1.40D-05.
     48 vectors produced by pass  5 Test12= 1.67D-14 1.85D-09 XBig12= 7.49D-11 1.01D-06.
     24 vectors produced by pass  6 Test12= 1.67D-14 1.85D-09 XBig12= 3.21D-13 6.45D-08.
      6 vectors produced by pass  7 Test12= 1.67D-14 1.85D-09 XBig12= 1.20D-15 3.08D-09.
 InvSVY:  IOpt=1 It=  1 EMax= 3.89D-16
 Solved reduced A of dimension   318 with    54 vectors.
 End of Minotr F.D. properties file   721 does not exist.
 End of Minotr F.D. properties file   722 does not exist.
 End of Minotr F.D. properties file   788 does not exist.
 Leave Link 1002 at Thu Sep 26 13:50:55 2019, MaxMem=   671088640 cpu:            3691.6 elap:            1846.0
 (Enter /shared/centos7/gaussian/g16/l601.exe)
 Copying SCF densities to generalized density rwf, IOpCl= 0 IROHF=0.

 **********************************************************************

            Population analysis using the SCF density.

 **********************************************************************

 Orbital symmetries:
       Occupied  (A) (A) (A) (A) (A) (A) (A) (A) (A) (A) (A) (A)
                 (A) (A) (A) (A) (A) (A) (A) (A) (A) (A) (A) (A)
                 (A) (A) (A) (A)
       Virtual   (A) (A) (A) (A) (A) (A) (A) (A) (A) (A) (A) (A)
                 (A) (A) (A) (A) (A) (A) (A) (A) (A) (A) (A) (A)
                 (A) (A) (A) (A) (A) (A) (A) (A) (A) (A) (A) (A)
                 (A) (A) (A) (A) (A) (A) (A) (A) (A) (A) (A) (A)
                 (A) (A) (A) (A) (A) (A) (A) (A) (A) (A) (A) (A)
                 (A) (A) (A) (A) (A) (A) (A) (A) (A) (A) (A) (A)
                 (A) (A) (A) (A) (A) (A) (A) (A) (A) (A) (A) (A)
                 (A) (A) (A) (A) (A) (A) (A) (A) (A) (A) (A) (A)
                 (A) (A) (A) (A) (A) (A) (A) (A) (A) (A) (A) (A)
                 (A) (A) (A) (A) (A) (A) (A) (A) (A) (A) (A) (A)
                 (A) (A) (A) (A) (A) (A) (A) (A) (A) (A) (A) (A)
                 (A) (A) (A) (A) (A) (A) (A) (A) (A) (A) (A) (A)
                 (A) (A) (A) (A) (A) (A) (A) (A) (A) (A) (A) (A)
                 (A) (A) (A) (A) (A) (A) (A) (A) (A) (A) (A) (A)
                 (A) (A) (A) (A) (A) (A) (A) (A) (A) (A) (A) (A)
                 (A) (A) (A) (A) (A) (A) (A) (A) (A) (A) (A) (A)
                 (A) (A) (A) (A) (A) (A) (A) (A) (A) (A) (A) (A)
                 (A) (A) (A) (A) (A) (A) (A) (A) (A) (A) (A) (A)
                 (A) (A) (A) (A) (A) (A) (A) (A) (A) (A) (A) (A)
                 (A) (A) (A) (A) (A) (A) (A) (A) (A) (A) (A) (A)
                 (A) (A) (A) (A) (A) (A) (A) (A) (A) (A) (A) (A)
                 (A) (A) (A) (A) (A) (A) (A) (A) (A) (A) (A) (A)
                 (A) (A) (A) (A) (A) (A) (A) (A) (A) (A) (A) (A)
                 (A) (A) (A) (A) (A) (A) (A) (A) (A) (A) (A) (A)
                 (A) (A) (A) (A) (A) (A) (A) (A) (A) (A) (A) (A)
                 (A) (A) (A) (A) (A) (A) (A) (A) (A) (A) (A) (A)
                 (A) (A) (A) (A) (A) (A) (A) (A) (A) (A)
 The electronic state is 1-A.
 Alpha  occ. eigenvalues --  -19.65411 -19.62781 -10.58911 -10.58639 -10.57388
 Alpha  occ. eigenvalues --  -10.52662 -10.52029  -1.17762  -1.15955  -0.88274
 Alpha  occ. eigenvalues --   -0.84171  -0.77308  -0.69862  -0.63791  -0.60416
 Alpha  occ. eigenvalues --   -0.55946  -0.55231  -0.53944  -0.47669  -0.47537
 Alpha  occ. eigenvalues --   -0.46836  -0.44324  -0.43357  -0.42080  -0.40512
 Alpha  occ. eigenvalues --   -0.37181  -0.33490  -0.29014
 Alpha virt. eigenvalues --    0.04445   0.07133   0.08358   0.09327   0.11156
 Alpha virt. eigenvalues --    0.12701   0.13065   0.15232   0.15489   0.16158
 Alpha virt. eigenvalues --    0.18014   0.20274   0.21671   0.24674   0.25623
 Alpha virt. eigenvalues --    0.28022   0.30225   0.31508   0.32820   0.33947
 Alpha virt. eigenvalues --    0.34408   0.36095   0.37745   0.38186   0.39658
 Alpha virt. eigenvalues --    0.40722   0.42906   0.44703   0.45809   0.47079
 Alpha virt. eigenvalues --    0.48337   0.48698   0.48896   0.49379   0.50411
 Alpha virt. eigenvalues --    0.50923   0.51586   0.53339   0.54123   0.55273
 Alpha virt. eigenvalues --    0.56621   0.58474   0.59281   0.60052   0.61787
 Alpha virt. eigenvalues --    0.65327   0.66885   0.70270   0.70962   0.71808
 Alpha virt. eigenvalues --    0.73641   0.78099   0.80016   0.83646   0.83935
 Alpha virt. eigenvalues --    0.85475   0.87516   0.89273   0.91494   0.92268
 Alpha virt. eigenvalues --    0.93573   0.96210   0.96590   0.99206   1.00602
 Alpha virt. eigenvalues --    1.02048   1.02711   1.04849   1.06648   1.08079
 Alpha virt. eigenvalues --    1.08887   1.09278   1.10432   1.12870   1.14056
 Alpha virt. eigenvalues --    1.14166   1.16884   1.18821   1.20276   1.21118
 Alpha virt. eigenvalues --    1.22805   1.23952   1.25855   1.26409   1.28673
 Alpha virt. eigenvalues --    1.30355   1.31380   1.32704   1.34274   1.35859
 Alpha virt. eigenvalues --    1.36894   1.38817   1.39118   1.42008   1.42491
 Alpha virt. eigenvalues --    1.44976   1.45560   1.47937   1.48423   1.50910
 Alpha virt. eigenvalues --    1.54111   1.54559   1.57144   1.59297   1.60352
 Alpha virt. eigenvalues --    1.62423   1.65033   1.67363   1.71924   1.86819
 Alpha virt. eigenvalues --    1.89121   1.97708   1.98976   2.04707   2.08080
 Alpha virt. eigenvalues --    2.08875   2.12668   2.14098   2.18182   2.18998
 Alpha virt. eigenvalues --    2.23612   2.26245   2.28641   2.29636   2.33460
 Alpha virt. eigenvalues --    2.35764   2.39822   2.41130   2.45392   2.47392
 Alpha virt. eigenvalues --    2.51707   2.53833   2.55808   2.58661   2.59387
 Alpha virt. eigenvalues --    2.62727   2.63119   2.64795   2.65587   2.68850
 Alpha virt. eigenvalues --    2.69755   2.74808   2.76906   2.80698   2.81515
 Alpha virt. eigenvalues --    2.82062   2.82963   2.85307   2.87707   2.87938
 Alpha virt. eigenvalues --    2.88949   2.92451   2.93355   2.94456   2.95036
 Alpha virt. eigenvalues --    2.96506   2.98346   2.99005   3.00026   3.00588
 Alpha virt. eigenvalues --    3.02326   3.03482   3.04752   3.06298   3.08407
 Alpha virt. eigenvalues --    3.09243   3.10481   3.11661   3.12792   3.13977
 Alpha virt. eigenvalues --    3.14753   3.16550   3.19605   3.20386   3.22521
 Alpha virt. eigenvalues --    3.24612   3.25785   3.29531   3.29536   3.30922
 Alpha virt. eigenvalues --    3.33192   3.33804   3.34540   3.36136   3.37463
 Alpha virt. eigenvalues --    3.39703   3.41637   3.42589   3.44377   3.45573
 Alpha virt. eigenvalues --    3.46610   3.47494   3.49131   3.50991   3.52035
 Alpha virt. eigenvalues --    3.53222   3.55215   3.56450   3.58801   3.60725
 Alpha virt. eigenvalues --    3.63333   3.66543   3.67783   3.69747   3.72305
 Alpha virt. eigenvalues --    3.73584   3.75298   3.76009   3.76897   3.80470
 Alpha virt. eigenvalues --    3.82104   3.82869   3.84035   3.84835   3.86508
 Alpha virt. eigenvalues --    3.87151   3.91717   3.92563   3.93376   3.95216
 Alpha virt. eigenvalues --    3.95697   3.96898   3.99992   4.00828   4.02911
 Alpha virt. eigenvalues --    4.04083   4.05741   4.07207   4.08201   4.08720
 Alpha virt. eigenvalues --    4.09948   4.11449   4.14822   4.16171   4.17880
 Alpha virt. eigenvalues --    4.19314   4.21170   4.24680   4.26190   4.28600
 Alpha virt. eigenvalues --    4.30419   4.33437   4.36663   4.38571   4.42983
 Alpha virt. eigenvalues --    4.43414   4.45957   4.49581   4.51888   4.54586
 Alpha virt. eigenvalues --    4.58724   4.59950   4.64947   4.66716   4.67985
 Alpha virt. eigenvalues --    4.71635   4.72554   4.74341   4.77539   4.79446
 Alpha virt. eigenvalues --    4.82600   4.85019   4.87163   4.93498   4.94696
 Alpha virt. eigenvalues --    4.95467   4.98528   5.00130   5.04292   5.04780
 Alpha virt. eigenvalues --    5.07652   5.09314   5.10597   5.11470   5.13861
 Alpha virt. eigenvalues --    5.21070   5.22271   5.24197   5.25450   5.28159
 Alpha virt. eigenvalues --    5.30089   5.34472   5.34800   5.38074   5.48075
 Alpha virt. eigenvalues --    5.50920   5.60929   5.61355   5.67793   5.77775
 Alpha virt. eigenvalues --    5.78486   5.79750   5.80268   5.83272   5.85249
 Alpha virt. eigenvalues --    5.95089   5.99983   6.05285   6.26438   6.32592
 Alpha virt. eigenvalues --    6.34597   6.48933   6.55243   6.58943   6.65591
 Alpha virt. eigenvalues --    6.75354   6.76710   6.79987   6.83412   7.03403
 Alpha virt. eigenvalues --    7.14248   7.22263   7.27050   7.27849   7.39703
 Alpha virt. eigenvalues --   10.08548  10.97018  11.57749  12.04542  12.98908
 Alpha virt. eigenvalues --   13.45765  14.35066
          Condensed to atoms (all electrons):
               1          2          3          4          5          6
     1  O    7.869060   0.004419   0.313578  -0.047929  -0.065482   0.339379
     2  O    0.004419   7.779951   0.000830  -0.000211  -0.003593  -0.083644
     3  C    0.313578   0.000830   4.833932   0.308946   0.317274  -0.061529
     4  C   -0.047929  -0.000211   0.308946   5.078324  -0.077860  -0.021320
     5  C   -0.065482  -0.003593   0.317274  -0.077860   5.125678  -0.005879
     6  C    0.339379  -0.083644  -0.061529  -0.021320  -0.005879   5.070692
     7  C   -0.071852   0.349697  -0.003647  -0.009033   0.012171   0.435421
     8  H   -0.031958  -0.000121   0.420394  -0.049265  -0.057923   0.007604
     9  H   -0.011963  -0.000094  -0.038240   0.401320   0.003284   0.002685
    10  H    0.002392  -0.000011  -0.034913   0.394564   0.006998   0.003435
    11  H    0.004295  -0.000065  -0.043286   0.395908  -0.005582   0.000540
    12  H    0.001579   0.003785  -0.033745  -0.010738   0.385882  -0.000369
    13  H    0.003442   0.003944  -0.041828   0.010936   0.388061   0.000444
    14  H    0.005022   0.000598  -0.029322   0.003200   0.385649  -0.000687
    15  H   -0.045246   0.003192   0.001417  -0.001314  -0.002723   0.456260
    16  H    0.004649  -0.048540  -0.001316   0.000137   0.000115  -0.078386
    17  H   -0.000358   0.321999  -0.000011   0.000009  -0.000010   0.014144
               7          8          9         10         11         12
     1  O   -0.071852  -0.031958  -0.011963   0.002392   0.004295   0.001579
     2  O    0.349697  -0.000121  -0.000094  -0.000011  -0.000065   0.003785
     3  C   -0.003647   0.420394  -0.038240  -0.034913  -0.043286  -0.033745
     4  C   -0.009033  -0.049265   0.401320   0.394564   0.395908  -0.010738
     5  C    0.012171  -0.057923   0.003284   0.006998  -0.005582   0.385882
     6  C    0.435421   0.007604   0.002685   0.003435   0.000540  -0.000369
     7  C    5.010066  -0.000974   0.000820   0.000371  -0.000350  -0.006212
     8  H   -0.000974   0.594619   0.003135  -0.011537   0.006378   0.008268
     9  H    0.000820   0.003135   0.589534  -0.029366  -0.035844   0.000387
    10  H    0.000371  -0.011537  -0.029366   0.581029  -0.031299   0.000070
    11  H   -0.000350   0.006378  -0.035844  -0.031299   0.593880   0.002400
    12  H   -0.006212   0.008268   0.000387   0.000070   0.002400   0.596770
    13  H   -0.000870  -0.003269  -0.000351  -0.000472   0.000261  -0.035777
    14  H   -0.000238  -0.011747   0.000049  -0.000299  -0.001531  -0.031480
    15  H   -0.116226  -0.000181  -0.004615   0.000064  -0.000342   0.000182
    16  H    0.428076   0.000041   0.000204  -0.000005  -0.000029  -0.000000
    17  H   -0.038804   0.000008   0.000008   0.000000   0.000001   0.000260
              13         14         15         16         17
     1  O    0.003442   0.005022  -0.045246   0.004649  -0.000358
     2  O    0.003944   0.000598   0.003192  -0.048540   0.321999
     3  C   -0.041828  -0.029322   0.001417  -0.001316  -0.000011
     4  C    0.010936   0.003200  -0.001314   0.000137   0.000009
     5  C    0.388061   0.385649  -0.002723   0.000115  -0.000010
     6  C    0.000444  -0.000687   0.456260  -0.078386   0.014144
     7  C   -0.000870  -0.000238  -0.116226   0.428076  -0.038804
     8  H   -0.003269  -0.011747  -0.000181   0.000041   0.000008
     9  H   -0.000351   0.000049  -0.004615   0.000204   0.000008
    10  H   -0.000472  -0.000299   0.000064  -0.000005   0.000000
    11  H    0.000261  -0.001531  -0.000342  -0.000029   0.000001
    12  H   -0.035777  -0.031480   0.000182  -0.000000   0.000260
    13  H    0.549709  -0.019514   0.000276   0.000226  -0.000142
    14  H   -0.019514   0.582009   0.000090   0.000026  -0.000047
    15  H    0.000276   0.000090   0.588237  -0.002831  -0.000516
    16  H    0.000226   0.000026  -0.002831   0.601087  -0.013921
    17  H   -0.000142  -0.000047  -0.000516  -0.013921   0.450596
 Mulliken charges:
               1
     1  O   -0.273029
     2  O   -0.332136
     3  C    0.091466
     4  C   -0.375673
     5  C   -0.406061
     6  C   -0.078788
     7  C    0.011585
     8  H    0.126529
     9  H    0.119048
    10  H    0.118980
    11  H    0.114665
    12  H    0.118738
    13  H    0.144924
    14  H    0.118224
    15  H    0.124277
    16  H    0.110467
    17  H    0.266784
 Sum of Mulliken charges =  -0.00000
 Mulliken charges with hydrogens summed into heavy atoms:
               1
     1  O   -0.273029
     2  O   -0.065353
     3  C    0.217995
     4  C   -0.022979
     5  C   -0.024176
     6  C    0.045488
     7  C    0.122053
 APT charges:
               1
     1  O   -0.196975
     2  O   -0.856107
     3  C   -0.287441
     4  C   -1.108788
     5  C   -1.034382
     6  C   -0.472822
     7  C   -0.286526
     8  H    0.469543
     9  H    0.231736
    10  H    0.507063
    11  H    0.308889
    12  H    0.231157
    13  H    0.299491
    14  H    0.485722
    15  H    0.398943
    16  H    0.469582
    17  H    0.840914
 Sum of APT charges =  -0.00000
 APT charges with hydrogens summed into heavy atoms:
               1
     1  O   -0.196975
     2  O   -0.015193
     3  C    0.182102
     4  C   -0.061099
     5  C   -0.018013
     6  C   -0.073879
     7  C    0.183056
 Electronic spatial extent (au):  <R**2>=            826.4293
 Charge=             -0.0000 electrons
 Dipole moment (field-independent basis, Debye):
    X=              1.1757    Y=             -0.3952    Z=             -2.0748  Tot=              2.4172
 Quadrupole moment (field-independent basis, Debye-Ang):
   XX=            -33.7244   YY=            -43.3726   ZZ=            -46.5160
   XY=             -0.4683   XZ=             -4.0079   YZ=              1.0988
 Traceless Quadrupole moment (field-independent basis, Debye-Ang):
   XX=              7.4800   YY=             -2.1683   ZZ=             -5.3117
   XY=             -0.4683   XZ=             -4.0079   YZ=              1.0988
 Octapole moment (field-independent basis, Debye-Ang**2):
  XXX=             41.0516  YYY=             -2.5898  ZZZ=              0.9136  XYY=              3.9419
  XXY=              5.7618  XXZ=             -7.8963  XZZ=              4.5406  YZZ=              2.9499
  YYZ=              0.0447  XYZ=             -0.2088
 Hexadecapole moment (field-independent basis, Debye-Ang**3):
 XXXX=           -502.8813 YYYY=           -302.0903 ZZZZ=           -149.0075 XXXY=             31.4685
 XXXZ=            -44.4233 YYYX=              8.2641 YYYZ=              1.6654 ZZZX=             -7.0025
 ZZZY=             -1.3866 XXYY=           -153.0830 XXZZ=           -126.8894 YYZZ=            -77.2533
 XXYZ=             -2.9892 YYXZ=             -5.3734 ZZXY=              1.6602
 N-N= 3.237365236416D+02 E-N=-1.457790736220D+03  KE= 3.447794640559D+02
  Exact polarizability:   0.000   0.000   0.000   0.000   0.000   0.000
 Approx polarizability:  89.708   4.639  77.901  -8.062  -0.451  72.302
 No NMR shielding tensors so no spin-rotation constants.
 Leave Link  601 at Thu Sep 26 13:51:26 2019, MaxMem=   671088640 cpu:              60.9 elap:              30.5
 (Enter /shared/centos7/gaussian/g16/l701.exe)
 SCFChk:  SCF convergence  4.22D-09 required  1.00D-08
 ... and contract with generalized density number  0.
 Compute integral second derivatives.
 Entering OneElI...
 Calculate overlap and kinetic energy integrals
    NBasis = 395  MinDer = 2  MaxDer = 2
 Requested accuracy = 0.1000D-12
 PrmmSu-InSpLW:  IPartL=    0 NPrtUS=   20 NPrtUL=    1 DoSpLW=F IThBeg=    0 IThEnd=   19 NThAct=   20.
 PrsmSu:  NPrtUS=  20 ThrOK=T IAlg=1 NPAlg=1 LenDen=           0 ISkipM=0 DoSpLW=F IThBeg=    0 IThEnd=   19.
 Prism:   IPart=     0 DynPar=F LinDyn=F Incr=           4.
 PRISM was handed    33309370 working-precision words and  8487 shell-pairs
 PRISM was handed    33309370 working-precision words and  8487 shell-pairs
 PRISM was handed    33309370 working-precision words and  8487 shell-pairs
 PRISM was handed    33309370 working-precision words and  8487 shell-pairs
 PRISM was handed    33309370 working-precision words and  8487 shell-pairs
 PRISM was handed    33309370 working-precision words and  8487 shell-pairs
 PRISM was handed    33309370 working-precision words and  8487 shell-pairs
 PRISM was handed    33309370 working-precision words and  8487 shell-pairs
 PRISM was handed    33309370 working-precision words and  8487 shell-pairs
 PRISM was handed    33309370 working-precision words and  8487 shell-pairs
 IPart=  8 NShTot=         418 NBatch=          48 AvBLen=         8.7
 IPart=  0 NShTot=         469 NBatch=          83 AvBLen=         5.7
 PRISM was handed    33309370 working-precision words and  8487 shell-pairs
 PRISM was handed    33309370 working-precision words and  8487 shell-pairs
 PRISM was handed    33309370 working-precision words and  8487 shell-pairs
 PRISM was handed    33309370 working-precision words and  8487 shell-pairs
 PRISM was handed    33309370 working-precision words and  8487 shell-pairs
 IPart= 13 NShTot=         407 NBatch=          40 AvBLen=        10.2
 PRISM was handed    33309370 working-precision words and  8487 shell-pairs
 PRISM was handed    33309370 working-precision words and  8487 shell-pairs
 PRISM was handed    33309370 working-precision words and  8487 shell-pairs
 PRISM was handed    33309370 working-precision words and  8487 shell-pairs
 IPart= 15 NShTot=         406 NBatch=          39 AvBLen=        10.4
 PRISM was handed    33309370 working-precision words and  8487 shell-pairs
 IPart=  9 NShTot=         418 NBatch=          48 AvBLen=         8.7
 IPart= 10 NShTot=         418 NBatch=          48 AvBLen=         8.7
 IPart= 11 NShTot=         417 NBatch=          48 AvBLen=         8.7
 IPart=  7 NShTot=         426 NBatch=          51 AvBLen=         8.4
 IPart= 16 NShTot=         404 NBatch=          39 AvBLen=        10.4
 IPart= 19 NShTot=         397 NBatch=          38 AvBLen=        10.4
 IPart=  3 NShTot=         450 NBatch=          69 AvBLen=         6.5
 IPart= 18 NShTot=         398 NBatch=          39 AvBLen=        10.2
 IPart=  6 NShTot=         438 NBatch=          62 AvBLen=         7.1
 IPart= 12 NShTot=         409 NBatch=          41 AvBLen=        10.0
 IPart= 14 NShTot=         407 NBatch=          40 AvBLen=        10.2
 IPart=  5 NShTot=         440 NBatch=          63 AvBLen=         7.0
 IPart=  1 NShTot=         461 NBatch=          77 AvBLen=         6.0
 IPart= 17 NShTot=         402 NBatch=          39 AvBLen=        10.3
 IPart=  2 NShTot=         458 NBatch=          74 AvBLen=         6.2
 IPart=  4 NShTot=         444 NBatch=          65 AvBLen=         6.8
 PrSmSu:  NxtVal=             81.
 Entering OneElI...
 Calculate potential energy integrals
    NBasis = 395  MinDer = 2  MaxDer = 2
 Requested accuracy = 0.1000D-12
 PrmmSu-InSpLW:  IPartL=    0 NPrtUS=   20 NPrtUL=    1 DoSpLW=F IThBeg=    0 IThEnd=   19 NThAct=   20.
 PrsmSu:  NPrtUS=  20 ThrOK=T IAlg=1 NPAlg=1 LenDen=           0 ISkipM=0 DoSpLW=F IThBeg=    0 IThEnd=   19.
 Prism:   IPart=     0 DynPar=F LinDyn=F Incr=          66.
 PRISM was handed    33352703 working-precision words and  7860 shell-pairs
 PRISM was handed    33352703 working-precision words and  7860 shell-pairs
 PRISM was handed    33352703 working-precision words and  7860 shell-pairs
 PRISM was handed    33352703 working-precision words and  7860 shell-pairs
 PRISM was handed    33352703 working-precision words and  7860 shell-pairs
 PRISM was handed    33352703 working-precision words and  7860 shell-pairs
 PRISM was handed    33352703 working-precision words and  7860 shell-pairs
 PRISM was handed    33352703 working-precision words and  7860 shell-pairs
 PRISM was handed    33352703 working-precision words and  7860 shell-pairs
 PRISM was handed    33352703 working-precision words and  7860 shell-pairs
 PRISM was handed    33352703 working-precision words and  7860 shell-pairs
 PRISM was handed    33352703 working-precision words and  7860 shell-pairs
 PRISM was handed    33352703 working-precision words and  7860 shell-pairs
 PRISM was handed    33352703 working-precision words and  7860 shell-pairs
 PRISM was handed    33352703 working-precision words and  7860 shell-pairs
 PRISM was handed    33352703 working-precision words and  7860 shell-pairs
 PRISM was handed    33352703 working-precision words and  7860 shell-pairs
 PRISM was handed    33352703 working-precision words and  7860 shell-pairs
 PRISM was handed    33352703 working-precision words and  7860 shell-pairs
 PRISM was handed    33352703 working-precision words and  7860 shell-pairs
 IPart= 18 NShTot=        6307 NBatch=         371 AvBLen=        17.0
 IPart=  9 NShTot=        6562 NBatch=         386 AvBLen=        17.0
 IPart= 19 NShTot=        6239 NBatch=         367 AvBLen=        17.0
 IPart=  8 NShTot=        6647 NBatch=         391 AvBLen=        17.0
 IPart=  0 NShTot=        7361 NBatch=         433 AvBLen=        17.0
 IPart=  7 NShTot=        6698 NBatch=         394 AvBLen=        17.0
 IPart= 15 NShTot=        6409 NBatch=         377 AvBLen=        17.0
 IPart=  6 NShTot=        6885 NBatch=         405 AvBLen=        17.0
 IPart= 17 NShTot=        6341 NBatch=         373 AvBLen=        17.0
 IPart= 10 NShTot=        6562 NBatch=         386 AvBLen=        17.0
 IPart= 12 NShTot=        6477 NBatch=         381 AvBLen=        17.0
 IPart= 11 NShTot=        6528 NBatch=         384 AvBLen=        17.0
 IPart= 16 NShTot=        6358 NBatch=         374 AvBLen=        17.0
 IPart= 14 NShTot=        6443 NBatch=         379 AvBLen=        17.0
 IPart=  1 NShTot=        7276 NBatch=         428 AvBLen=        17.0
 IPart=  2 NShTot=        7191 NBatch=         423 AvBLen=        17.0
 IPart=  3 NShTot=        7021 NBatch=         413 AvBLen=        17.0
 IPart=  4 NShTot=        6953 NBatch=         409 AvBLen=        17.0
 IPart= 13 NShTot=        6460 NBatch=         380 AvBLen=        17.0
 IPart=  5 NShTot=        6902 NBatch=         406 AvBLen=        17.0
 PrSmSu:  NxtVal=           1321.
 Polarizability after L701:
                1             2             3 
      1  0.000000D+00
      2  0.000000D+00  0.000000D+00
      3  0.000000D+00  0.000000D+00  0.000000D+00
 Dipole Derivatives after L701:
                 1             2             3             4             5 
      1  -0.311009D+00  0.297291D-01 -0.281145D-01 -0.183799D+01  0.500148D-01
      2   0.102245D+00 -0.252618D+00 -0.575421D-01 -0.383454D+00 -0.275773D+00
      3  -0.106081D+00  0.480605D-01 -0.272976D-01  0.244148D+00  0.764330D-01
                 6             7             8             9            10 
      1   0.602627D+00 -0.655452D+00  0.243336D+00  0.753880D+00 -0.131227D+01
      2   0.191520D+00  0.211767D+00  0.110651D+00 -0.225593D-01 -0.958001D-01
      3  -0.454557D+00  0.229524D+00  0.785605D-01 -0.317521D+00 -0.843786D-01
                11            12            13            14            15 
      1  -0.584813D+00 -0.732178D+00 -0.724960D+00  0.583064D+00 -0.177032D+00
      2  -0.964513D+00 -0.104084D+00 -0.102795D+00 -0.143181D+01  0.921491D-01
      3  -0.533648D-01 -0.104958D+01 -0.245933D-01 -0.102416D+00 -0.946376D+00
                16            17            18            19            20 
      1  -0.460526D+00 -0.760620D-01  0.409551D+00 -0.107636D+00  0.398120D+00
      2  -0.160750D-01 -0.778200D+00 -0.312057D+00 -0.426124D-01 -0.536043D+00
      3   0.320557D+00 -0.117277D+00 -0.179740D+00  0.306903D+00 -0.285401D+00
                21            22            23            24            25 
      1   0.304701D+00  0.765569D+00 -0.140540D+00 -0.498196D+00 -0.117716D+00
      2  -0.194542D+00 -0.934004D-01  0.191368D+00  0.638589D-01 -0.399472D+00
      3  -0.215897D+00 -0.327308D+00  0.608980D-01  0.451692D+00 -0.154355D+00
                26            27            28            29            30 
      1   0.340531D+00  0.923600D-01  0.121609D+01  0.326711D+00 -0.201240D+00
      2   0.659811D+00  0.665317D-01  0.347417D+00  0.195712D+00 -0.483347D-01
      3   0.254868D+00  0.153113D+00  0.147783D+00  0.602209D-01  0.109386D+00
                31            32            33            34            35 
      1   0.877026D-01 -0.298988D+00  0.603612D+00  0.734348D-01 -0.186310D-02
      2   0.126715D-01  0.130990D+00 -0.501991D-02  0.237263D+00  0.112002D+00
      3  -0.356009D-02 -0.332065D+00  0.707976D+00 -0.216586D+00  0.377207D-01
                36            37            38            39            40 
      1   0.532889D-01  0.733297D-01 -0.105026D-01 -0.282638D-01  0.700448D+00
      2  -0.428403D+00  0.488290D+00  0.488715D+00  0.508681D+00 -0.678520D+00
      3   0.508034D+00  0.170334D+00  0.151478D+00  0.336427D+00  0.750590D-01
                41            42            43            44            45 
      1  -0.447205D+00  0.770355D-01  0.122355D+00 -0.140071D+00 -0.977620D-01
      2   0.630833D+00 -0.110924D+00  0.276150D+00  0.964901D+00  0.227805D+00
      3  -0.762765D-01  0.125884D+00 -0.478471D-01  0.521448D-02  0.109572D+00
                46            47            48            49            50 
      1   0.711945D+00 -0.503305D+00 -0.596672D+00  0.177668D+01  0.231843D+00
      2  -0.249479D+00  0.379787D+00  0.261338D+00  0.385806D+00  0.374189D+00
      3  -0.290678D+00  0.217588D+00  0.317013D+00 -0.238920D+00 -0.242425D-01
                51 
      1  -0.537596D+00
      2  -0.128418D+00
      3   0.371873D+00
 Hessian after L701:
                1             2             3             4             5 
      1  0.828309D+01
      2  0.523787D+01  0.145820D+02
      3  0.870513D+00  0.170268D-01  0.129582D+02
      4  0.385209D+00  0.473051D+00 -0.450740D+00  0.769142D+01
      5  0.507900D+00 -0.143380D+00 -0.243606D+00 -0.401389D+01  0.733738D+01
      6 -0.449793D+00 -0.223553D+00 -0.230699D+00  0.169539D+01 -0.509307D+00
      7 -0.389828D+01 -0.340642D+01  0.289959D+01  0.310296D+00  0.112150D+00
      8 -0.335142D+01 -0.712432D+01 -0.187176D+01  0.873238D-01 -0.156568D+00
      9  0.274424D+01 -0.181763D+01 -0.712995D+01 -0.642885D-01 -0.550499D-02
     10  0.155592D+00  0.298541D+00  0.430352D+00  0.126374D+00  0.888405D-01
     11  0.213951D+00 -0.157375D+00  0.218638D+00  0.672515D-01 -0.737579D-01
     12  0.419277D+00  0.297069D+00  0.321345D+00  0.208092D-01  0.708565D-02
     13 -0.301709D+00  0.166259D+00 -0.948856D-01  0.358336D+00 -0.152007D+00
     14  0.250410D+00  0.536566D+00 -0.212692D+00 -0.923522D-01 -0.230654D+00
     15 -0.968759D-01 -0.288706D+00  0.593955D-01 -0.232233D-02  0.251635D-03
     16 -0.528794D+01 -0.354454D+01 -0.371654D+01  0.222127D+00 -0.149885D+00
     17 -0.363083D+01 -0.784800D+01  0.288210D+01 -0.361857D+00 -0.623867D+00
     18 -0.346443D+01  0.268980D+01 -0.633099D+01 -0.418917D-01 -0.312190D+00
     19  0.549631D+00  0.518123D+00 -0.104748D-01 -0.793275D+01  0.284961D+01
     20  0.538373D+00 -0.121416D+00 -0.477280D+00  0.304472D+01 -0.196679D+00
     21 -0.531163D-01 -0.423040D+00  0.120269D+00  0.464497D+00  0.128400D+01
     22 -0.154064D-01  0.128383D+00 -0.186689D+00  0.317594D-01  0.635208D-02
     23  0.126680D+00 -0.170126D-01  0.667681D-01 -0.107503D-02 -0.112357D-01
     24 -0.226017D+00  0.847286D-01  0.129472D+00 -0.202306D-01 -0.430957D-02
     25 -0.674063D-02 -0.205246D-01 -0.319300D-01  0.265897D-02  0.953653D-02
     26  0.268212D-01  0.254237D-01  0.377290D-01  0.319447D-01  0.151419D-01
     27  0.146026D-01 -0.360099D-02 -0.146711D-01  0.815697D-02  0.625315D-02
     28  0.100256D+00  0.234884D-01  0.847339D-01  0.188661D-01  0.110878D-01
     29  0.269830D-01 -0.404684D-01  0.166777D-01  0.911517D-02 -0.246834D-02
     30  0.564758D-01  0.985844D-02 -0.676694D-02  0.635862D-03  0.331831D-03
     31 -0.921435D-02 -0.178078D-01  0.814878D-01  0.153019D-01  0.732256D-02
     32 -0.206625D-01 -0.415578D-01 -0.445410D-01 -0.178143D-02 -0.134163D-01
     33  0.902506D-01 -0.380997D-01  0.120027D+00  0.257492D-01  0.749920D-02
     34 -0.480250D-01  0.760268D-02 -0.128610D-01  0.443993D-01 -0.307185D-01
     35 -0.213271D-02  0.223982D-01 -0.689037D-01 -0.396479D-01 -0.549802D-01
     36 -0.119900D-02 -0.948151D-01  0.580594D-01  0.689565D-01 -0.198318D-01
     37 -0.697950D-01  0.101860D-01  0.258526D-02  0.447530D-01 -0.474846D-01
     38 -0.311939D-01  0.903627D-01 -0.954967D-01 -0.931779D-01 -0.189459D-01
     39  0.911261D-02 -0.314236D-01 -0.512923D-01 -0.493145D-01  0.285560D-01
     40  0.229586D-01 -0.104415D+00  0.558273D-01  0.469428D-01 -0.224731D-01
     41 -0.979696D-01  0.828113D-01 -0.748898D-01 -0.297948D-01 -0.601366D-02
     42  0.428716D-01 -0.587713D-01 -0.168737D-01  0.490655D-02 -0.212669D-02
     43  0.190971D-02  0.259527D+00  0.222384D+00  0.592617D-03  0.784913D-01
     44  0.249481D+00  0.191658D+00 -0.186638D+00  0.843014D-01  0.119801D+00
     45  0.182063D+00 -0.145657D+00 -0.361157D-01  0.902413D-02  0.875629D-02
     46  0.876500D-01 -0.493986D-01 -0.109900D+00  0.219536D+00 -0.135172D-01
     47 -0.652013D-01 -0.310347D-01  0.473221D-01 -0.509915D-01 -0.212411D+00
     48 -0.109612D+00  0.340083D-01  0.507737D-01 -0.575904D-01 -0.808271D-01
     49  0.508108D-01  0.200779D-01 -0.334453D-01 -0.158582D+01  0.758688D+00
     50  0.209353D-01 -0.669705D-02 -0.104507D-01  0.886857D+00 -0.572794D+01
     51 -0.283662D-01 -0.718838D-02 -0.172441D-03 -0.161175D+01 -0.165032D+00
                6             7             8             9            10 
      6  0.149823D+02
      7 -0.973427D-01  0.172013D+02
      8 -0.112044D-01  0.225864D+01  0.189236D+02
      9 -0.165097D+00 -0.233579D+01  0.128510D+01  0.204373D+02
     10  0.474009D-01 -0.500073D+01  0.110917D+01  0.151296D+01  0.136269D+02
     11  0.142030D-01  0.107426D+01 -0.485305D+01  0.168850D+01 -0.712659D+00
     12 -0.100588D+00  0.143605D+01  0.170149D+01 -0.361930D+01 -0.149887D+01
     13  0.413523D-01 -0.645587D+01  0.849332D+00 -0.311176D+00  0.209550D-01
     14 -0.996259D-02  0.940853D+00 -0.239139D+01 -0.139553D+01  0.641787D-04
     15 -0.260997D+00 -0.354433D+00 -0.137379D+01 -0.608130D+01  0.549427D-01
     16  0.193086D-01  0.327776D+00 -0.270189D+00  0.833893D-01  0.196401D+00
     17 -0.251185D+00 -0.247354D+00  0.989804D-01 -0.255673D-01 -0.106454D-02
     18  0.280564D+00 -0.287721D-01  0.448009D-01 -0.359027D-01  0.164560D+00
     19  0.440481D+00  0.238494D+00 -0.107168D+00  0.325868D-01  0.847084D-01
     20  0.126268D+01 -0.762398D-01 -0.127276D+00 -0.149632D-01  0.316924D-01
     21 -0.893894D+01 -0.796531D-02  0.102918D-01 -0.167188D+00  0.219021D-01
     22 -0.120483D-01 -0.306063D+01 -0.309870D+00 -0.142719D+01  0.174277D+00
     23 -0.521858D-04 -0.329844D+00 -0.454550D+01  0.296059D+00 -0.324332D-01
     24 -0.616811D-02 -0.135072D+01  0.262246D+00 -0.330701D+01 -0.839369D-01
     25  0.467200D-02  0.101719D+00 -0.609023D-01 -0.171945D-01 -0.361695D+01
     26  0.110580D-01  0.213550D-01  0.824632D-02 -0.634329D-01 -0.140319D+01
     27 -0.119022D-01  0.310882D-01 -0.900371D-01  0.263864D-01 -0.336797D+00
     28  0.417691D-02  0.129368D-01 -0.306939D-01 -0.870121D-01 -0.175157D+01
     29  0.143608D-02 -0.362065D-01  0.528103D-01 -0.352283D-01  0.665573D+00
     30 -0.683827D-02 -0.949345D-01 -0.431502D-01  0.227087D-01 -0.274256D+00
     31  0.134443D-01  0.600199D-01 -0.209835D-01 -0.140694D+00 -0.401770D+01
     32 -0.277322D-02 -0.228042D-01  0.120172D+00 -0.960710D-01 -0.112890D-01
     33  0.266000D-02 -0.932993D-01 -0.708307D-01 -0.999715D-01 -0.686123D-01
     34  0.988626D-02  0.456328D-01 -0.539065D-01  0.421949D-01 -0.302715D-01
     35 -0.289474D-02 -0.108892D+00 -0.210413D-01  0.142679D+00 -0.395069D-01
     36 -0.438101D-01  0.586809D-01  0.905856D-01  0.259602D-01  0.148899D-03
     37 -0.833695D-02  0.370880D-01 -0.673913D-01 -0.420259D-03  0.111555D-01
     38  0.150362D-01 -0.147193D+00 -0.578808D-01 -0.363368D-01  0.110808D+00
     39 -0.535435D-01 -0.387509D-02 -0.782010D-02  0.136493D+00  0.568663D-01
     40  0.588617D-02  0.619797D-01  0.116838D-01 -0.172885D-01 -0.395725D-01
     41 -0.311174D-02  0.523168D-01 -0.213225D-01  0.544337D-01  0.215749D-02
     42 -0.160421D-01 -0.199818D-01  0.404410D-01  0.999101D-02  0.837208D-03
     43  0.263712D-02 -0.136967D-01 -0.434103D-01 -0.142660D-01  0.588655D-02
     44 -0.274590D-02 -0.802582D-01  0.102284D+00  0.213404D-01 -0.995175D-01
     45 -0.380174D-01 -0.246052D-01  0.315875D-01 -0.359304D-01 -0.139679D-01
     46 -0.465297D-01  0.434742D-02 -0.607730D-02  0.285915D-03  0.325134D-01
     47 -0.643317D-01 -0.104401D-01 -0.218261D-02  0.211775D-02 -0.141043D-01
     48  0.197333D+00 -0.494456D-02  0.362321D-02 -0.979015D-02 -0.968566D-02
     49 -0.167059D+01  0.275714D-01  0.585276D-02 -0.336665D-03  0.220606D-01
     50 -0.223296D+00  0.608155D-02 -0.557367D-02  0.355116D-04  0.690792D-02
     51 -0.559019D+01 -0.873769D-02 -0.157262D-02 -0.738703D-02 -0.383954D-02
               11            12            13            14            15 
     11  0.144855D+02
     12 -0.109784D+01  0.138649D+02
     13  0.664102D-01  0.112185D-01  0.152708D+02
     14  0.712826D-01 -0.386134D-01 -0.274881D-01  0.123708D+02
     15  0.848114D-01  0.331062D-01  0.138338D+00  0.714426D+00  0.156118D+02
     16 -0.122148D+00  0.120844D+00 -0.176834D+00 -0.117619D+00  0.460432D-01
     17 -0.195351D+00  0.211481D-01 -0.161034D+00  0.233262D+00 -0.744884D-01
     18 -0.278439D-01 -0.127962D+00  0.549143D-01 -0.960134D-01 -0.187480D+00
     19 -0.244758D-01 -0.828028D-02  0.240895D+00 -0.340262D+00 -0.494579D-01
     20 -0.978580D-01  0.713845D-04 -0.357281D+00  0.230019D-01  0.381670D-01
     21  0.188946D-02 -0.845079D-01 -0.440355D-01  0.353531D-01 -0.199326D+00
     22 -0.228770D-01 -0.561613D-01  0.109803D+00 -0.151887D+00  0.111181D+00
     23  0.697747D-01 -0.122850D+00 -0.127955D+00  0.135387D-01  0.170894D+00
     24 -0.127224D+00 -0.103609D+00  0.966865D-01  0.188926D+00  0.264280D-01
     25 -0.109618D+01 -0.198116D+00 -0.355907D-01 -0.441478D-02 -0.358281D-02
     26 -0.231436D+01  0.265123D+00 -0.377301D-02  0.926665D-01  0.324407D-01
     27  0.401005D+00 -0.428693D+01  0.424417D-03  0.299823D-01 -0.301100D-01
     28  0.651199D+00 -0.344989D+00  0.561332D-01  0.111486D+00  0.185318D-01
     29 -0.370031D+01 -0.129993D+00  0.968480D-01  0.549659D-01  0.166420D-01
     30 -0.104101D+00 -0.390961D+01  0.115415D-01  0.153984D-01 -0.462771D-01
     31 -0.914015D-01  0.840659D-01 -0.124325D-01  0.186186D-01  0.164671D-01
     32 -0.350585D+01 -0.100730D+01  0.149472D-01 -0.107107D-01  0.353637D-02
     33 -0.115051D+01 -0.189391D+01  0.340892D-01  0.352386D-01  0.225220D-01
     34 -0.999769D-02 -0.678045D-02 -0.350530D+01 -0.633353D-01 -0.111866D+01
     35  0.188122D-02  0.266762D-02  0.629357D-01 -0.424344D+01 -0.813180D-01
     36 -0.550001D-02  0.159587D-01 -0.125726D+01  0.145024D+00 -0.207468D+01
     37  0.996706D-01  0.538563D-01 -0.326481D+01  0.664714D+00  0.992884D+00
     38  0.960366D-01  0.897281D-01  0.875320D+00 -0.360021D+01  0.947635D+00
     39  0.864954D-01 -0.134848D-01  0.106541D+01  0.783025D+00 -0.305558D+01
     40 -0.230970D-01  0.178218D-02 -0.236011D+01 -0.119072D+01  0.268510D+00
     41  0.116289D+00  0.990875D-02 -0.127683D+01 -0.289797D+01 -0.197907D+00
     42  0.149333D-01 -0.435227D-01  0.279836D+00 -0.194495D+00 -0.379663D+01
     43 -0.616208D-01 -0.172833D-01 -0.104418D-01  0.170837D-01  0.494656D-03
     44  0.677702D-01 -0.173596D-02  0.198159D-02 -0.154764D-01 -0.592218D-03
     45 -0.217935D-02 -0.413291D-01 -0.366400D-03 -0.312289D-02 -0.452825D-02
     46 -0.108449D-01 -0.105276D-01  0.182005D-01 -0.152930D-01 -0.104931D-01
     47 -0.651320D-02  0.511253D-02 -0.267108D-01  0.328676D-02  0.823025D-02
     48  0.423903D-02 -0.736570D-02 -0.129219D-01  0.423806D-02 -0.748704D-02
     49  0.256631D-02 -0.688617D-02  0.479197D-01  0.143886D-03 -0.115681D-01
     50 -0.413862D-02 -0.106808D-02 -0.953640D-03 -0.955546D-02 -0.234988D-03
     51  0.489150D-03 -0.319732D-02 -0.131669D-01 -0.118286D-02 -0.880072D-02
               16            17            18            19            20 
     16  0.134694D+02
     17 -0.590362D+00  0.184110D+02
     18  0.795437D+01 -0.251463D+01  0.221737D+02
     19 -0.440248D+01  0.428292D+01 -0.512960D+01  0.147347D+02
     20  0.381004D+01 -0.867290D+01 -0.508978D+00 -0.555291D+01  0.129173D+02
     21 -0.505490D+01 -0.700577D+00 -0.110307D+02  0.552489D+01 -0.145761D+01
     22  0.159222D+00 -0.971096D-01 -0.921212D-01  0.126036D-01  0.493344D-02
     23 -0.847004D-01 -0.189722D-01  0.378443D-01 -0.319663D-02 -0.107467D-01
     24 -0.102777D+00  0.437973D-01 -0.144321D-01 -0.153757D-01 -0.169339D-03
     25 -0.151921D-01  0.523589D-01  0.548991D-01  0.577230D-02  0.948348D-02
     26  0.102926D+00 -0.448135D-01  0.662325D-01  0.462440D-01 -0.512761D-02
     27  0.801450D-01  0.419225D-01 -0.289303D-01  0.792737D-02  0.236667D-02
     28  0.101224D+00 -0.125066D-02  0.156823D-01  0.392552D-01  0.843116D-02
     29  0.601091D-02 -0.299645D-01  0.594529D-03  0.750521D-02 -0.858675D-02
     30  0.164731D-01 -0.227110D-02 -0.271852D-01 -0.938730D-04 -0.504348D-03
     31  0.124101D-01 -0.188242D-01  0.325190D-01  0.201336D-01 -0.159031D-02
     32 -0.252560D-01 -0.137048D-01 -0.249485D-01 -0.146560D-01 -0.119568D-01
     33  0.453098D-01 -0.213571D-01  0.167894D-01  0.326034D-01 -0.408290D-03
     34 -0.736536D-02 -0.320062D-01  0.201102D-01 -0.101079D-01  0.151112D-01
     35 -0.426704D-01  0.268675D-01 -0.440172D-01  0.107062D-01 -0.339864D-01
     36  0.372297D-01 -0.681366D-01  0.159586D-01  0.233022D-01 -0.134834D-01
     37 -0.259646D-01  0.464721D-02 -0.226423D-02 -0.202591D-01  0.153715D-02
     38 -0.125096D-01  0.556082D-01  0.229432D-01 -0.154352D-01  0.531314D-02
     39 -0.566141D-02  0.351386D-01 -0.170721D-01 -0.190058D-01  0.236876D-01
     40  0.524944D-02 -0.170810D-01  0.338061D-02  0.147557D-01 -0.141867D-01
     41 -0.163522D-01  0.866824D-02 -0.603847D-03 -0.182769D-01  0.465982D-03
     42  0.276556D-02 -0.166276D-02 -0.100507D-01  0.164718D-02 -0.763941D-03
     43 -0.458621D+01  0.591833D+00  0.143950D+00  0.103524D+00 -0.438240D+00
     44  0.825684D+00 -0.174761D+01  0.744964D+00 -0.564651D+00 -0.217616D+00
     45  0.175130D+00  0.688002D+00 -0.458838D+01  0.757391D-01  0.124191D+00
     46 -0.199089D+00  0.274042D-01  0.396282D+00 -0.356025D+01 -0.952343D+00
     47  0.558328D-01  0.315713D+00 -0.271033D-01 -0.896760D+00 -0.345509D+01
     48  0.373218D+00  0.300620D-02 -0.337039D-01 -0.948024D+00  0.993418D+00
     49  0.207288D+00  0.199605D+00 -0.815942D-01 -0.118615D+00 -0.715354D-01
     50  0.175736D+00  0.451254D-01 -0.508502D-01 -0.177316D+00  0.131480D-01
     51 -0.743469D-01 -0.552415D-01 -0.542284D-01  0.411367D-01  0.295773D-01
               21            22            23            24            25 
     21  0.234022D+02
     22 -0.950115D-02  0.253172D+01
     23  0.914461D-03  0.487611D+00  0.459899D+01
     24  0.139724D-02  0.182517D+01 -0.482777D+00  0.313287D+01
     25  0.304053D-03 -0.449859D-02 -0.141999D-01 -0.173451D-01  0.366186D+01
     26  0.359820D-02 -0.262208D-01  0.206776D-01  0.427297D-01  0.926490D+00
     27 -0.240401D-01 -0.214730D-01  0.323746D-01  0.213754D-01  0.238007D+00
     28 -0.217208D-02  0.104043D-01 -0.264217D-01 -0.335270D-01 -0.173225D+00
     29  0.268625D-03 -0.263573D-01 -0.692364D-02 -0.507952D-01  0.117800D+00
     30 -0.831329D-02 -0.321251D-01 -0.512621D-01 -0.360072D-01  0.455730D-01
     31  0.128622D-01 -0.245428D-01 -0.291897D-03 -0.317249D-02  0.998670D-01
     32 -0.563307D-02 -0.403016D-03 -0.239120D-01  0.118487D-01  0.855592D-01
     33 -0.947520D-03 -0.269604D-01  0.202480D-01  0.996362D-01 -0.648972D-01
     34  0.166788D-03  0.276592D-01  0.264260D-01 -0.685651D-01 -0.435846D-02
     35  0.154090D-02  0.398984D-01 -0.147678D-01 -0.471090D-01  0.309290D-02
     36  0.172843D-02 -0.815930D-01 -0.371024D-01  0.646984D-01  0.142289D-02
     37 -0.572563D-02  0.324877D-02 -0.757841D-02 -0.830628D-03 -0.270888D-02
     38  0.209257D-01 -0.317874D-02 -0.294375D-02  0.437219D-03 -0.432372D-02
     39  0.694988D-03  0.865554D-02  0.271442D-02  0.140475D-02 -0.185349D-02
     40 -0.883490D-03  0.303231D-01 -0.949307D-02  0.119485D-01  0.944366D-03
     41  0.139276D-03 -0.154549D-01 -0.544156D-01  0.679624D-01 -0.450508D-02
     42 -0.786022D-02  0.116615D-01  0.635467D-01 -0.146545D-01  0.434209D-04
     43  0.708454D-01 -0.990994D-03 -0.409046D-03 -0.833307D-03 -0.189876D-01
     44  0.154662D+00 -0.104875D-01  0.367613D-02  0.776293D-02 -0.169547D-03
     45  0.402474D+00 -0.330442D-02  0.127444D-02  0.865668D-03 -0.996128D-02
     46 -0.100195D+01  0.646750D-02 -0.208338D-02 -0.496377D-02  0.596563D-02
     47  0.994327D+00 -0.488486D-02  0.571956D-03  0.286576D-02  0.513654D-03
     48 -0.350962D+01 -0.441539D-02  0.101003D-02  0.248172D-02 -0.557617D-03
     49  0.847826D-01  0.858154D-02 -0.103565D-02 -0.551045D-02 -0.534871D-03
     50  0.789518D-01  0.155248D-02 -0.793622D-03 -0.920054D-03  0.388978D-03
     51  0.427044D-01 -0.308102D-02  0.395060D-03  0.124970D-02  0.516296D-03
               26            27            28            29            30 
     26  0.223711D+01
     27 -0.554893D+00  0.421666D+01
     28  0.119183D+00  0.698621D-01  0.155234D+01
     29  0.848058D-01 -0.290638D-01 -0.774048D+00  0.355612D+01
     30 -0.192829D-01  0.949001D-01  0.130639D+00  0.993235D-01  0.397556D+01
     31  0.131076D+00 -0.832200D-01  0.959387D-02 -0.100066D+00  0.144630D+00
[...]
   yx        -0.543389D+01     -0.805219D+00     -0.895927D+00
   yy         0.746680D+02      0.110647D+02      0.123111D+02
   zx         0.930629D+01      0.137905D+01      0.153440D+01
   zy        -0.940089D+01     -0.139307D+01     -0.155000D+01
   zz         0.614748D+02      0.910962D+01      0.101358D+02

 ----------------------------------------------------------------------

 Test job not archived.
 1\1\GINC-C0316\Freq\RM062X\CC-pVTZ\C5H10O2\HARMS.N\26-Sep-2019\0\\#P G
 eom=AllCheck Guess=TCheck SCRF=Check Test GenChk RM062X/CC-pVTZ Freq\\
 Gaussian input prepared by ASE\\0,1\O,0.0920693381,-1.2670688324,2.000
 3183849\O,2.2908770394,-0.6182129807,3.5936504427\C,-1.1050935384,-0.5
 353323096,2.2993087969\C,-1.6188722378,0.2247272054,1.0875127661\C,-0.
 8934731256,0.3665532403,3.5024319169\C,1.1455592291,-0.5332073237,1.53
 70818963\C,2.2083871443,-0.2616527853,2.2814315479\H,-1.8163035529,-1.
 3208184147,2.5555262756\H,-1.6883919904,-0.4341124229,0.2223375572\H,-
 2.6089609326,0.6293056255,1.2959540991\H,-0.96121469,1.0598785646,0.84
 24994471\H,-0.1652595044,1.1445803808,3.2683068805\H,-0.5175703599,-0.
 2110627362,4.3446542423\H,-1.8308925615,0.8463597123,3.7848492473\H,1.
 1234627378,-0.2176017505,0.5004524646\H,3.0528647299,0.2595124509,1.84
 90928032\H,3.1519638264,-0.3777342757,3.9378974845\\Version=EM64L-G16R
 evA.03\State=1-A\HF=-346.9391847\RMSD=2.014e-09\RMSF=5.733e-07\ZeroPoi
 nt=0.1471514\Thermal=0.1557552\Dipole=0.4309539,0.7500042,-0.0003849\D
 ipoleDeriv=-1.3953871,0.0027442,0.0475412,-0.2136157,-0.4859915,-0.019
 0005,0.2897436,0.0122726,-0.5120955,-0.3877351,0.0452449,-0.1185934,0.
 1870307,-0.3508591,0.2211826,-0.6873071,0.0706407,-1.1894118,0.9093799
 ,-0.1815433,-0.008544,-0.3483014,0.4046535,0.0612299,-0.0488087,0.0643
 919,0.5080313,-0.0336794,0.0501162,-0.0380262,0.0979685,0.004058,0.046
 04,-0.0713719,0.0864949,-0.0842008,-0.0051479,-0.0286326,-0.0520936,0.
 0581969,-0.025385,-0.0549141,0.0005521,-0.0953458,-0.1166088,0.6135919
 ,0.2778512,-0.1305019,0.6062771,-0.014331,-0.1552227,-0.296937,-0.1115
 211,0.1232487,0.1438114,0.0691199,0.1872179,-0.0582084,-0.0009064,-0.2
 474466,0.6340992,-0.1697339,0.9924821,-0.0884213,-0.061342,0.0108935,-
 0.0764606,-0.076404,0.0288787,0.0296181,0.0239188,-0.0010089,0.0766386
 ,0.0040366,-0.0006175,-0.0149861,-0.0076534,-0.0894776,-0.0268638,-0.0
 567866,-0.0874016,-0.1038286,0.0692542,0.0119032,0.0722415,0.0467188,-
 0.0023187,0.0488597,-0.0189311,0.0530891,0.0000176,-0.1043962,0.035061
 7,-0.0837026,-0.0352855,0.0345957,-0.0056201,0.0122073,0.032879,0.0041
 718,-0.0965227,0.0005655,-0.0854407,-0.0176717,0.009248,0.0314075,0.04
 8697,0.020888,0.0635049,0.0183746,-0.0729695,0.0148722,0.0099742,0.060
 7888,-0.0463137,0.0314177,-0.0522528,-0.0964421,0.0877346,0.0594266,0.
 0813404,0.0360015,-0.0350683,0.0372104,-0.0213483,0.0552196,0.0389871,
 -0.0358174,-0.0095057,-0.1177386,0.097816,0.0635511,0.0349017,0.057403
 4,-0.0699511,-0.0158544,-0.0725936,0.0345831,-0.0764412,0.1012681,0.06
 05801,0.0037931,0.0553195,-0.0058155,0.2763926,-0.0436286,0.0436592,-0
 .0430321,0.3139974,0.0173535,0.0730367,0.0109031,0.3329091\Polar=81.71
 23031,1.1286318,53.5001357,6.9240938,0.0782802,68.112019\Quadrupole=6.
 085618,-4.7447022,-1.3409158,1.7985826,1.6741238,-0.1630407\PG=C01 [X(
 C5H10O2)]\NImag=0\\0.47258168,0.03582906,0.29220120,-0.12697907,-0.047
 12195,0.15273451,0.00213519,0.00486661,0.00164036,0.53733472,0.0089224
 1,-0.00343111,-0.00397475,0.15014178,0.09515913,-0.01025240,-0.0082712
 3,0.00774730,0.19697826,-0.05678287,0.47199466,-0.14409486,0.04428129,
 0.02309386,0.00063413,-0.00057252,0.00653581,0.52069910,0.06227071,-0.
 12256631,-0.00983461,-0.00054014,0.00153091,-0.00320681,0.09707968,0.5
 5973175,0.02387583,-0.00353679,-0.06381513,0.00030205,-0.00035822,-0.0
 0157924,-0.01453478,-0.03419700,0.50012888,-0.02838468,0.02693293,-0.0
 2200210,-0.00014224,0.00003754,-0.00064802,-0.08648103,0.00752431,-0.0
 2261025,0.56913998,0.01782538,-0.01171677,0.01169074,0.00003915,0.0001
 2132,0.00143477,0.01185900,-0.11051934,0.04945856,0.01386306,0.5581503
 9,0.00384321,-0.00463708,0.00827472,-0.00009796,-0.00009170,0.00063379
 ,-0.02931352,0.05120760,-0.16428569,-0.02960556,0.04511852,0.52407422,
 -0.01275994,0.02911789,0.03188371,-0.00098381,0.00050213,-0.00084658,-
 0.08318260,-0.02514334,-0.02558113,0.00080750,-0.00817790,-0.01016136,
 0.58472074,0.01201208,-0.01529844,-0.01871341,-0.00011759,-0.00019817,
 0.00101865,-0.01966484,-0.12139183,-0.05408581,0.00021674,0.01211601,0
 .01359670,-0.01602163,0.54707030,0.00719224,-0.01131070,-0.00712820,0.
 00082966,0.00024342,0.00006924,-0.01911481,-0.05276504,-0.15583378,-0.
 00841125,-0.01600973,-0.02957956,-0.00600921,-0.05082283,0.52455102,-0
 .20542582,-0.08470898,0.06282198,0.00637811,-0.00355756,-0.00555112,-0
 .05602732,-0.01341835,0.01528930,0.00142222,0.00058899,-0.00180945,0.0
 0502843,0.00028734,0.00051507,0.71094781,-0.10672716,-0.14865674,0.057
 76330,0.01109173,0.01099802,0.01996955,-0.00502856,0.01730081,-0.00187
 426,0.00446666,-0.00056871,-0.00171606,0.00561939,-0.00079061,-0.00099
 504,0.19317137,0.26438566,0.05811439,0.04900278,-0.09833156,-0.0449079
 5,-0.00063889,-0.05281905,0.01309537,0.00009004,-0.00947249,-0.0041439
 9,-0.00114668,0.00285011,0.00107890,0.00101043,-0.00098702,0.18223185,
 -0.09443562,0.70231755,-0.04530447,-0.02317326,-0.00813217,-0.10220668
 ,-0.02934198,0.00339094,0.00431815,-0.00378684,-0.00231536,-0.00030359
 ,-0.00022472,0.00037080,-0.00029873,0.00011890,-0.00033892,-0.39495611
 ,-0.09215580,-0.20427549,0.77401138,-0.04132578,-0.00571740,-0.0025469
 3,-0.01655774,-0.06802433,0.08493615,0.00538859,-0.00520044,-0.0017987
 1,-0.00029854,-0.00023277,0.00052378,-0.00032165,0.00026014,-0.0000944
 8,-0.08402242,-0.08220270,-0.03895265,0.24671064,0.26491685,0.02602141
 ,0.00937960,0.00835905,-0.04164064,0.06765392,-0.31279263,-0.00193311,
 0.00514334,0.00169697,0.00093251,-0.00136986,-0.00098678,0.00081793,-0
 .00205687,0.00039666,-0.22292993,-0.04692293,-0.23701908,0.17274297,-0
 .08981793,0.67626613,-0.03655302,-0.01502986,0.01365201,-0.00017834,0.
 00056863,-0.00095694,-0.15036040,-0.12123572,0.03631590,0.00869157,0.0
 0882801,-0.00353061,-0.00139027,-0.00443020,0.00003548,-0.00223277,0.0
 0427911,-0.00113145,-0.00045656,-0.00108935,0.00177634,0.18096873,0.01
 891829,0.01194045,-0.00668813,-0.00003139,-0.00010210,0.00021547,-0.13
 177929,-0.19339346,0.04742447,-0.00945269,-0.01223002,0.00486536,-0.01
 265412,-0.01469693,0.00316843,0.00339508,-0.00027240,-0.00048311,0.000
 36579,0.00056474,-0.00072254,0.12824479,0.20766497,0.01038839,0.003905
 47,-0.00188996,0.00004838,-0.00010909,0.00049503,0.03707246,0.04413146
 ,-0.06493556,0.01617335,0.02220160,-0.00804019,-0.01850133,-0.02171854
 ,0.00506387,0.00061969,-0.00128010,0.00080948,0.00027846,0.00034479,-0
 .00072413,-0.04399255,-0.04687197,0.07344767,0.00122683,-0.00070000,0.
 00080155,0.00007834,-0.00001216,0.00033225,-0.00264279,-0.00725494,-0.
 00937266,-0.04804158,-0.01114101,-0.01193539,-0.00061765,0.00185956,-0
 .00180562,-0.00032271,-0.00022544,-0.00042420,-0.00007940,0.00002726,-
 0.00008483,0.00011814,0.00024418,0.00059861,0.04744914,-0.00181103,0.0
 0086991,-0.00079082,0.00004833,0.00003088,-0.00013040,0.00132432,0.011
 44007,0.01476953,-0.01132483,-0.14970342,-0.13156969,0.00146065,-0.001
 49966,0.00227967,0.00038332,0.00036372,-0.00053921,-0.00006804,-0.0000
 7745,0.00034423,-0.00042919,0.00077714,-0.00075225,0.01134011,0.158472
 07,0.00135799,-0.00000068,0.00315111,-0.00001761,-0.00000343,0.0002947
 4,-0.00032475,-0.01894983,-0.02205771,-0.01299260,-0.12942545,-0.21446
 864,-0.00195996,0.00481559,-0.00347519,-0.00072619,-0.00014191,0.00008
 781,0.00002356,0.00008398,-0.00022290,0.00051665,0.00007214,0.00069598
 ,0.01521517,0.14182259,0.23436764,-0.00097017,0.00116030,-0.00200600,-
 0.00011290,0.00005408,-0.00065317,-0.01003179,0.00182954,0.00488206,-0
 .27092606,0.09119920,0.04759868,-0.00002173,-0.00012735,0.00061508,0.0
 0105132,0.00070021,-0.00027394,0.00010538,-0.00006719,0.00053055,0.000
 62966,0.00018347,-0.00017001,0.00340414,-0.00155863,-0.00037533,0.2928
 4931,0.00403085,-0.00204615,0.00373338,-0.00003546,-0.00008059,0.00001
 009,0.01428406,-0.00642128,-0.00649072,0.09074719,-0.08178249,-0.01921
 414,-0.00030705,0.00021211,-0.00045105,-0.00207394,-0.00086671,0.00112
 445,0.00039644,0.00037930,-0.00018039,-0.00044624,0.00001694,-0.000540
 15,0.01773418,-0.00723911,-0.00235302,-0.10066147,0.08694199,-0.005199
 41,0.00448691,-0.00329470,0.00009442,0.00005075,0.00000351,-0.02332005
 ,0.00662385,0.00754941,0.04929958,-0.02027316,-0.05755970,0.00039043,-
 0.00054380,0.00045756,0.00170590,0.00105990,-0.00132008,-0.00035080,-0
 .00033639,0.00029249,0.00072142,-0.00019195,0.00112424,0.02391191,-0.0
 0770455,-0.00418068,-0.05276063,0.02008467,0.05963225,0.00088646,-0.00
 128262,0.00075890,0.00009575,-0.00017890,0.00017893,0.00775856,0.00926
 841,-0.00227677,-0.14547527,-0.12482193,0.03514752,0.00050582,0.000498
 79,0.00053767,-0.00134565,0.00042745,0.00074965,-0.00015792,0.00021718
 ,-0.00032767,0.00016862,0.00147555,-0.00215612,-0.00123155,0.00031795,
 -0.00006095,-0.01693819,-0.02315026,0.00566406,0.15708452,0.00093763,0
 .00094557,-0.00073112,-0.00015770,0.00001579,-0.00088542,-0.01213653,-
 0.01465357,0.00447381,-0.12405785,-0.20245779,0.04331650,0.00037349,0.
 00074961,-0.00136340,-0.00111771,-0.00056994,0.00080034,0.00054797,0.0
 0032824,0.00055249,0.00179240,-0.00039429,0.00266458,-0.01136680,-0.01
 402062,0.00519311,0.00760518,0.01050445,-0.00299547,0.13634430,0.21888
 632,-0.00019240,-0.00134599,0.00112007,0.00001777,-0.00003027,0.000071
 62,0.01995164,0.02148396,-0.00776619,0.03441081,0.04279866,-0.06036906
 ,0.00126677,0.00068967,0.00171928,-0.00007868,-0.00015438,0.00068938,-
 0.00019623,-0.00016907,-0.00020842,-0.00262951,0.00259922,-0.00400613,
 -0.01670988,-0.01891331,0.00680238,0.00339921,0.00473841,-0.00245395,-
 0.03831049,-0.05076268,0.06439228,0.00023836,-0.00015125,-0.00054701,0
 .00044987,-0.00036566,0.00000536,-0.00452407,-0.00408547,0.00090893,-0
 .00006540,0.00000450,0.00044786,-0.16511782,-0.12704384,0.03908067,-0.
 00059442,0.00071597,0.00067038,-0.00094596,0.00083095,0.00090434,0.000
 87777,0.00001859,-0.00090618,0.00022466,0.00028698,-0.00004163,-0.0000
 2833,-0.00011175,-0.00002530,0.00003923,0.00012645,-0.00063504,0.17833
 538,0.00100096,0.00151653,0.00045721,-0.00011482,0.00001214,0.00024043
 ,-0.01580522,-0.01712724,0.00459048,0.00110775,0.00063266,0.00095785,-
 0.12574665,-0.18107735,0.04301286,-0.00088927,-0.00036618,-0.00007593,
 0.00084320,0.00038743,-0.00021273,-0.00008961,-0.00121149,-0.00377221,
 0.00027484,0.00010894,0.00000598,0.00013629,0.00000329,0.00001054,-0.0
 0015197,0.00070095,-0.00047357,0.14077263,0.19650876,0.00028032,0.0020
 8146,0.00131514,-0.00012227,-0.00000315,-0.00116144,-0.02123051,-0.020
 18310,0.00607226,-0.00027580,-0.00081013,0.00215985,0.04027041,0.04389
 296,-0.06072163,0.00068525,-0.00018004,-0.00045610,0.00098865,-0.00035
 280,0.00070782,-0.00048882,-0.00340947,-0.00414426,0.00029704,0.000202
 08,0.00016260,-0.00000756,0.00002884,-0.00004294,0.00029314,0.00049016
 ,-0.00032790,-0.04309582,-0.04437898,0.06468065,0.00056783,-0.00048189
 ,0.00086351,-0.00016130,-0.00006492,-0.00102410,-0.00357456,0.00345534
 ,-0.00307302,0.00035408,-0.00108797,-0.00050910,-0.07906714,0.05012789
 ,-0.07321641,-0.00029036,0.00004520,-0.00024020,0.00037359,-0.00017108
 ,0.00133129,-0.00018631,0.00022186,-0.00001152,0.00040734,0.00028391,-
 0.00041521,0.00032705,-0.00018492,0.00024478,0.00006320,0.00021858,-0.
 00018990,0.00833335,-0.01163128,0.01763838,0.08130886,-0.00114225,0.00
 107186,0.00159359,0.00032469,-0.00014196,-0.00077823,-0.00753151,0.011
 65028,-0.01763741,0.00006756,-0.00240688,-0.00314046,0.05087005,-0.128
 08353,0.11608535,0.00010099,0.00022937,-0.00022059,0.00003188,-0.00003
 129,0.00089538,0.00000343,0.00102212,0.00082257,-0.00033412,0.00069900
 ,-0.00115625,-0.00008432,-0.00014390,0.00008710,0.00015095,0.00008538,
 -0.00027612,0.00896822,-0.01187206,0.01646879,-0.05432162,0.13559493,0
 .00025178,0.00094132,0.00290373,-0.00049062,-0.00002085,0.00054315,-0.
 00958774,0.01587730,-0.02163050,-0.00011835,-0.00487459,-0.00338589,-0
 .07105672,0.11316252,-0.20882197,0.00058525,-0.00004518,-0.00022795,0.
 00004899,0.00007474,-0.00118569,0.00008052,-0.00013935,0.00106670,-0.0
 0075547,0.00081910,-0.00132358,-0.00013872,0.00002193,0.00024518,0.000
 10583,-0.00018576,0.00033440,-0.00215774,0.00281151,-0.00511547,0.0806
 1669,-0.12253497,0.22763434,0.00178980,-0.00114036,-0.00075480,-0.0003
 1131,0.00004357,0.00029155,0.00305639,-0.00243431,-0.00189541,-0.00021
 832,0.00002662,-0.00024060,-0.24711188,0.10198387,0.05977468,-0.000001
 72,0.00000955,-0.00036391,0.00027254,0.00019848,-0.00037964,0.00031582
 ,0.00037332,0.00063964,0.00025967,-0.00011379,0.00013284,0.00043008,-0
 .00013358,-0.00020160,-0.00007302,0.00014550,0.00005828,-0.01717533,0.
 01011620,0.00465993,-0.00837441,0.00293930,0.00295782,0.26715912,0.001
 72356,-0.00315046,-0.00551667,0.00024323,-0.00007970,0.00048153,0.0179
 0601,-0.00760914,-0.00133193,0.00017716,0.00041135,0.00061917,0.101035
 11,-0.09725360,-0.03066972,-0.00215603,-0.00077055,0.00055622,0.000233
 37,0.00041655,-0.00001684,-0.00031151,0.00010100,0.00078684,-0.0002363
 7,-0.00012321,0.00015740,-0.00025660,0.00041950,-0.00011598,-0.0001221
 5,-0.00002982,-0.00002367,-0.02000009,0.01177885,0.00610603,0.01349915
 ,-0.00761614,-0.00588871,-0.11198441,0.10336726,0.00283422,-0.00478158
 ,-0.00508299,-0.00025903,-0.00015682,0.00082667,0.02335007,-0.00651911
 ,-0.00408186,0.00001023,0.00053166,0.00066037,0.05792868,-0.03001327,-
 0.06533051,-0.00179624,-0.00147852,0.00066798,-0.00007331,0.00048914,-
 0.00091711,-0.00039737,0.00013826,0.00094588,-0.00017320,0.00005526,0.
 00037557,-0.00052267,0.00001110,-0.00080560,0.00009609,0.00002459,-0.0
 0007759,0.00551695,-0.00326770,-0.00306191,-0.02175732,0.00973060,0.00
 853184,-0.06482498,0.03509144,0.06736735,-0.00525789,-0.01274564,0.029
 74162,-0.00320047,-0.00448821,-0.00191415,0.00340526,-0.00276052,0.000
 83168,-0.00014449,0.00117423,-0.00028127,-0.00058132,0.00024224,0.0000
 0235,-0.05209217,-0.00465198,-0.01740722,0.00481123,0.00901184,-0.0234
 9829,-0.00035785,0.00029627,-0.00010643,-0.00026173,-0.00013612,-0.000
 36481,0.00022665,-0.00014991,-0.00010928,-0.00134452,0.00066552,-0.000
 10817,0.00004992,0.00008974,0.00006462,-0.00001779,-0.00007190,-0.0001
 5335,-0.00000322,0.00019791,0.00011871,0.05529277,-0.00996767,-0.00671
 156,0.01930526,-0.00449821,0.00627332,-0.00003078,0.00243257,-0.001560
 55,0.00044710,0.00002943,0.00031007,0.00012125,-0.00060945,0.00009947,
 -0.00002141,-0.00185064,-0.05609425,0.07821880,0.00079762,0.00203799,-
 0.00591809,-0.00026422,0.00009863,0.00012374,-0.00017699,-0.00009236,-
 0.00006884,-0.00016492,0.00004526,-0.00019992,0.00095835,-0.00017391,-
 0.00017857,-0.00004378,0.00004265,-0.00009863,-0.00006687,-0.00011222,
 -0.00000933,-0.00001092,0.00020379,0.00019093,0.01229708,0.05740028,0.
 01078515,0.00787827,-0.00617124,-0.00379743,0.00045831,0.00191680,-0.0
 0259836,0.00202367,0.00026828,0.00001603,0.00071124,-0.00000953,0.0003
 7643,-0.00018064,-0.00000555,-0.02184754,0.07653997,-0.31186893,0.0035
 4598,0.00542079,-0.01372578,0.00029278,-0.00016122,0.00001134,0.000118
 41,0.00009484,-0.00022305,-0.00015694,-0.00054699,0.00037042,-0.000407
 31,-0.00065093,0.00009717,-0.00007729,-0.00004736,-0.00010959,-0.00002
 954,0.00002130,0.00014179,-0.00000187,-0.00015532,-0.00010846,0.014047
 25,-0.09076179,0.33012125,-0.00192521,-0.00370296,-0.00425733,0.007808
 51,0.00301562,-0.00377365,0.00135534,-0.00093573,-0.00071841,-0.000262
 74,0.00011850,0.00008719,0.00007191,0.00019460,0.00008758,-0.01239655,
 -0.01115837,0.01531069,-0.23601851,-0.11751114,0.07984754,-0.00014352,
 0.00016973,0.00004011,0.00004190,-0.00001249,0.00001977,-0.00004482,0.
 00005283,-0.00005442,-0.00002821,0.00000988,-0.00003778,-0.00004029,0.
 00002439,0.00007406,-0.00000024,-0.00000058,-0.00004515,-0.00002311,0.
 00004304,0.00004466,-0.00080503,0.00183401,-0.00025601,0.24013405,-0.0
 0309817,0.01052741,0.00256786,-0.00485588,-0.00048308,0.00647892,-0.00
 177911,-0.00131471,0.00003110,-0.00001595,-0.00011140,0.00003491,-0.00
 009172,-0.00023806,-0.00012564,-0.00279876,-0.00122250,0.00262314,-0.1
 1578319,-0.10558790,0.05529930,-0.00039389,0.00015095,0.00009685,-0.00
 002940,-0.00000073,-0.00001883,0.00004344,0.00005950,-0.00004338,0.000
 08355,0.00007675,0.00000974,0.00010368,-0.00001408,-0.00003510,0.00006
 583,0.00000665,0.00000034,-0.00001372,-0.00000588,-0.00002657,0.001479
 29,-0.00346805,-0.00141405,0.12717464,0.10125853,-0.00465194,0.0026707
 1,-0.00050023,0.02211587,0.01830738,-0.02339000,-0.00023824,-0.0013335
 4,-0.00035361,-0.00012105,0.00005259,0.00008233,-0.00002298,0.00008364
 ,-0.00017079,-0.01186637,-0.00901581,0.01085609,0.07892156,0.05477892,
 -0.09524605,-0.00035889,0.00019392,0.00010053,-0.00000012,-0.00001326,
 0.00002360,-0.00000969,0.00006248,-0.00004992,0.00003996,0.00004290,-0
 .00000865,0.00004668,0.00004716,-0.00001204,-0.00011048,-0.00002924,0.
 00010381,0.00003002,-0.00001244,0.00006971,0.00052312,-0.00114923,-0.0
 0014256,-0.08713322,-0.06536440,0.10690169,0.00124990,0.00092874,-0.00
 057902,-0.44761759,-0.12470386,-0.18209297,-0.00030753,0.00016737,-0.0
 0002796,0.00003002,-0.00007309,-0.00001046,-0.00000150,-0.00013656,0.0
 0022573,0.00085771,-0.00057933,0.00191712,-0.00316434,-0.00102003,0.00
 588924,0.00008873,0.00001059,-0.00001495,-0.00001276,0.00000854,0.0000
 1307,0.00005040,0.00000901,-0.00001104,-0.00000782,0.00006968,-0.00001
 640,-0.00005694,0.00006281,-0.00003101,-0.00006321,0.00002924,-0.00014
 303,0.00000888,0.00000862,-0.00009549,0.00028064,-0.00069538,-0.000009
 73,0.00227651,-0.00009066,0.00283577,0.44638890,0.00060113,0.00022202,
 -0.00119295,-0.13984658,-0.04160048,-0.04469980,-0.00025793,0.00010404
 ,0.00011579,-0.00002045,-0.00001222,0.00000751,0.00009479,0.00002053,-
 0.00016070,-0.00133344,-0.00089630,0.00306647,0.01448802,-0.00221696,0
 .00794992,0.00000341,-0.00003625,-0.00003361,-0.00000291,-0.00000517,-
 0.00003255,0.00000878,-0.00000213,0.00000089,-0.00003467,0.00000690,0.
 00000797,-0.00002613,-0.00002381,0.00018107,0.00009279,0.00004838,-0.0
 0001003,-0.00000532,-0.00005978,-0.00001940,-0.00044984,0.00170143,0.0
 0076992,0.00068405,0.00036661,0.00067821,0.12600430,0.04238321,0.00233
 028,0.00065948,0.00060838,-0.13069324,-0.02454374,-0.09285416,-0.00090
 335,0.00040782,0.00009596,0.00008643,-0.00008875,-0.00005036,0.0001260
 1,-0.00013499,-0.00020342,0.00215122,0.00290714,-0.00577613,-0.0446296
 2,-0.01258332,-0.02469057,0.00009504,-0.00000954,-0.00002049,-0.000013
 57,0.00002621,-0.00000970,0.00004907,-0.00003890,0.00003251,-0.0000324
 3,0.00001629,-0.00000869,-0.00009515,0.00009444,0.00005499,-0.00011787
 ,0.00006858,0.00018610,0.00011804,-0.00006735,0.00002066,-0.00138639,0
 .00002950,-0.00056235,0.00076438,-0.00011418,0.00173607,0.17215114,0.0
 3337130,0.12144121\\-0.00000038,-0.00000014,0.00000071,0.00000025,0.00
 000008,-0.00000014,-0.00000002,0.00000032,0.00000045,-0.00000018,-0.00
 000022,0.00000021,0.00000039,0.00000091,-0.00000011,-0.00000028,-0.000
 00077,0.00000006,-0.00000015,-0.00000059,-0.00000053,-0.00000033,0.000
 00066,0.00000113,-0.00000059,-0.00000071,0.00000066,-0.00000008,0.0000
 0016,0.00000021,-0.00000007,-0.00000057,-0.00000043,0.00000059,0.00000
 060,-0.00000065,0.00000047,0.00000126,0.00000023,0.00000059,0.00000133
 ,-0.00000010,-0.00000044,-0.00000134,-0.00000021,0.,-0.00000108,-0.000
 00091,0.00000025,0.00000009,-0.00000057\\\@


 A SLIP OF THE FOOT YOU MAY SOON RECOVER, BUT A SLIP OF THE TONGUE
 YOU MAY NEVER GET OVER. -- BEN FRANKLIN
 Job cpu time:       0 days  2 hours 49 minutes 51.0 seconds.
 Elapsed time:       0 days  1 hours 24 minutes 56.4 seconds.
 File lengths (MBytes):  RWF=   1392 Int=      0 D2E=      0 Chk=     32 Scr=     32
 Normal termination of Gaussian 16 at Thu Sep 26 19:33:55 2019.
