 Entering Gaussian System, Link 0=g16
 Input=med/species/CC(C)OC=CO/conformers/CC(C)OC=CO_134.com
 Output=med/species/CC(C)OC=CO/conformers/CC(C)OC=CO_134.log
 Initial command:
 /shared/centos7/gaussian/g16/l1.exe "/scratch/harms.n/gauss_scrdir/Gau-47511.inp" -scrdir="/scratch/harms.n/gauss_scrdir/"
 Entering Link 1 = /shared/centos7/gaussian/g16/l1.exe PID=     47512.
  
 Copyright (c) 1988,1990,1992,1993,1995,1998,2003,2009,2016,
            Gaussian, Inc.  All Rights Reserved.
  
 This is part of the Gaussian(R) 16 program.  It is based on
 the Gaussian(R) 09 system (copyright 2009, Gaussian, Inc.),
 the Gaussian(R) 03 system (copyright 2003, Gaussian, Inc.),
 the Gaussian(R) 98 system (copyright 1998, Gaussian, Inc.),
 the Gaussian(R) 94 system (copyright 1995, Gaussian, Inc.),
 the Gaussian 92(TM) system (copyright 1992, Gaussian, Inc.),
 the Gaussian 90(TM) system (copyright 1990, Gaussian, Inc.),
 the Gaussian 88(TM) system (copyright 1988, Gaussian, Inc.),
 the Gaussian 86(TM) system (copyright 1986, Carnegie Mellon
 University), and the Gaussian 82(TM) system (copyright 1983,
 Carnegie Mellon University). Gaussian is a federally registered
 trademark of Gaussian, Inc.
  
 This software contains proprietary and confidential information,
 including trade secrets, belonging to Gaussian, Inc.
  
 This software is provided under written license and may be
 used, copied, transmitted, or stored only in accord with that
 written license.
  
 The following legend is applicable only to US Government
 contracts under FAR:
  
                    RESTRICTED RIGHTS LEGEND
  
 Use, reproduction and disclosure by the US Government is
 subject to restrictions as set forth in subparagraphs (a)
 and (c) of the Commercial Computer Software - Restricted
 Rights clause in FAR 52.227-19.
  
 Gaussian, Inc.
 340 Quinnipiac St., Bldg. 40, Wallingford CT 06492
  
  
 ---------------------------------------------------------------
 Warning -- This program may not be used in any manner that
 competes with the business of Gaussian, Inc. or will provide
 assistance to any competitor of Gaussian, Inc.  The licensee
 of this program is prohibited from giving any competitor of
 Gaussian, Inc. access to this program.  By using this program,
 the user acknowledges that Gaussian, Inc. is engaged in the
 business of creating and licensing software in the field of
 computational chemistry and represents and warrants to the
 licensee that it is not a competitor of Gaussian, Inc. and that
 it will not use this program in any manner prohibited above.
 ---------------------------------------------------------------
  

 Cite this work as:
 Gaussian 16, Revision A.03,
 M. J. Frisch, G. W. Trucks, H. B. Schlegel, G. E. Scuseria, 
 M. A. Robb, J. R. Cheeseman, G. Scalmani, V. Barone, 
 G. A. Petersson, H. Nakatsuji, X. Li, M. Caricato, A. V. Marenich, 
 J. Bloino, B. G. Janesko, R. Gomperts, B. Mennucci, H. P. Hratchian, 
 J. V. Ortiz, A. F. Izmaylov, J. L. Sonnenberg, D. Williams-Young, 
 F. Ding, F. Lipparini, F. Egidi, J. Goings, B. Peng, A. Petrone, 
 T. Henderson, D. Ranasinghe, V. G. Zakrzewski, J. Gao, N. Rega, 
 G. Zheng, W. Liang, M. Hada, M. Ehara, K. Toyota, R. Fukuda, 
 J. Hasegawa, M. Ishida, T. Nakajima, Y. Honda, O. Kitao, H. Nakai, 
 T. Vreven, K. Throssell, J. A. Montgomery, Jr., J. E. Peralta, 
 F. Ogliaro, M. J. Bearpark, J. J. Heyd, E. N. Brothers, K. N. Kudin, 
 V. N. Staroverov, T. A. Keith, R. Kobayashi, J. Normand, 
 K. Raghavachari, A. P. Rendell, J. C. Burant, S. S. Iyengar, 
 J. Tomasi, M. Cossi, J. M. Millam, M. Klene, C. Adamo, R. Cammi, 
 J. W. Ochterski, R. L. Martin, K. Morokuma, O. Farkas, 
 J. B. Foresman, and D. J. Fox, Gaussian, Inc., Wallingford CT, 2016.
 
 ******************************************
 Gaussian 16:  EM64L-G16RevA.03 25-Dec-2016
                26-Sep-2019 
 ******************************************
 %nprocshared=20
 Will use up to   20 processors via shared memory.
 %mem=5GB
 ----------------------------------------------------------------------
 #p m062x/cc-pVTZ opt=(calcfc,maxcycles=900,Tight) freq IOP(7/33=1,2/16
 =3) scf=(maxcycle=900)
 ----------------------------------------------------------------------
 1/6=900,7=10,10=4,18=20,19=15,26=3,38=1/1,3;
 2/9=110,12=2,16=3,17=6,18=5,40=1/2;
 3/5=16,6=1,11=2,25=1,30=1,71=2,74=-55,140=1/1,2,3;
 4//1;
 5/5=2,7=900,38=5/2;
 8/6=4,10=90,11=11/1;
 11/6=1,8=1,9=11,15=111,16=1/1,2,10;
 10/6=1,13=1/2;
 6/7=2,8=2,9=2,10=2,28=1/1;
 7/10=1,18=20,25=1,33=1/1,2,3,16;
 1/6=900,7=10,10=4,18=20,19=15,26=3/3(2);
 2/9=110,16=3/2;
 99//99;
 2/9=110,16=3/2;
 3/5=16,6=1,11=2,25=1,30=1,71=1,74=-55/1,2,3;
 4/5=5,16=3,69=1/1;
 5/5=2,7=900,38=5/2;
 7/33=1/1,2,3,16;
 1/6=900,7=10,18=20,19=15,26=3/3(-5);
 2/9=110,16=3/2;
 6/7=2,8=2,9=2,10=2,19=2,28=1/1;
 99/9=1/99;
 Leave Link    1 at Thu Sep 26 11:50:48 2019, MaxMem=   671088640 cpu:               4.5 elap:               2.3
 (Enter /shared/centos7/gaussian/g16/l101.exe)
 ------------------------------
 Gaussian input prepared by ASE
 ------------------------------
 Symbolic Z-matrix:
 Charge =  0 Multiplicity = 1
 O                     3.45463  -2.82437  -0.00558 
 O                     1.10763  -1.70244  -1.18279 
 C                     3.81919  -3.75779   0.98926 
 C                     5.33744  -3.86539   1.13187 
 C                     3.16694  -5.07524   0.72665 
 C                     2.76486  -1.75432   0.517 
 C                     1.69793  -1.23517  -0.01798 
 H                     3.42441  -3.37854   1.97245 
 H                     5.86637  -3.30501   0.33287 
 H                     5.67454  -3.47586   2.10968 
 H                     5.67719  -4.93476   1.07137 
 H                     3.85884  -5.80415   0.21026 
 H                     2.26718  -4.95251   0.08835 
 H                     2.84515  -5.56377   1.68965 
 H                     3.18068  -1.32929   1.44446 
 H                     1.21458  -0.37275   0.4168 
 H                     0.25522  -1.1903   -1.29635 
 
 ITRead=  0  0  0  0  0  0  0  0  0  0  0  0  0  0  0  0  0
 MicOpt= -1 -1 -1 -1 -1 -1 -1 -1 -1 -1 -1 -1 -1 -1 -1 -1 -1
 NAtoms=     17 NQM=       17 NQMF=       0 NMMI=      0 NMMIF=      0
                NMic=       0 NMicF=      0.
                    Isotopes and Nuclear Properties:
 (Nuclear quadrupole moments (NQMom) in fm**2, nuclear magnetic moments (NMagM)
  in nuclear magnetons)

  Atom         1           2           3           4           5           6           7           8           9          10
 IAtWgt=          16          16          12          12          12          12          12           1           1           1
 AtmWgt=  15.9949146  15.9949146  12.0000000  12.0000000  12.0000000  12.0000000  12.0000000   1.0078250   1.0078250   1.0078250
 NucSpn=           0           0           0           0           0           0           0           1           1           1
 AtZEff=  -0.0000000  -0.0000000  -0.0000000  -0.0000000  -0.0000000  -0.0000000  -0.0000000  -0.0000000  -0.0000000  -0.0000000
 NQMom=    0.0000000   0.0000000   0.0000000   0.0000000   0.0000000   0.0000000   0.0000000   0.0000000   0.0000000   0.0000000
 NMagM=    0.0000000   0.0000000   0.0000000   0.0000000   0.0000000   0.0000000   0.0000000   2.7928460   2.7928460   2.7928460
 AtZNuc=   8.0000000   8.0000000   6.0000000   6.0000000   6.0000000   6.0000000   6.0000000   1.0000000   1.0000000   1.0000000

  Atom        11          12          13          14          15          16          17
 IAtWgt=           1           1           1           1           1           1           1
 AtmWgt=   1.0078250   1.0078250   1.0078250   1.0078250   1.0078250   1.0078250   1.0078250
 NucSpn=           1           1           1           1           1           1           1
 AtZEff=  -0.0000000  -0.0000000  -0.0000000  -0.0000000  -0.0000000  -0.0000000  -0.0000000
 NQMom=    0.0000000   0.0000000   0.0000000   0.0000000   0.0000000   0.0000000   0.0000000
 NMagM=    2.7928460   2.7928460   2.7928460   2.7928460   2.7928460   2.7928460   2.7928460
 AtZNuc=   1.0000000   1.0000000   1.0000000   1.0000000   1.0000000   1.0000000   1.0000000
 Leave Link  101 at Thu Sep 26 11:50:50 2019, MaxMem=   671088640 cpu:               2.7 elap:               1.4
 (Enter /shared/centos7/gaussian/g16/l103.exe)

 GradGradGradGradGradGradGradGradGradGradGradGradGradGradGradGradGradGrad
 Berny optimization.
 Initialization pass.
                           ----------------------------
                           !    Initial Parameters    !
                           ! (Angstroms and Degrees)  !
 --------------------------                            --------------------------
 ! Name  Definition              Value          Derivative Info.                !
 --------------------------------------------------------------------------------
 ! R1    R(1,3)                  1.412          calculate D2E/DX2 analytically  !
 ! R2    R(1,6)                  1.3762         calculate D2E/DX2 analytically  !
 ! R3    R(2,7)                  1.3869         calculate D2E/DX2 analytically  !
 ! R4    R(2,17)                 1.0009         calculate D2E/DX2 analytically  !
 ! R5    R(3,4)                  1.5287         calculate D2E/DX2 analytically  !
 ! R6    R(3,5)                  1.4933         calculate D2E/DX2 analytically  !
 ! R7    R(3,8)                  1.1253         calculate D2E/DX2 analytically  !
 ! R8    R(4,9)                  1.1101         calculate D2E/DX2 analytically  !
 ! R9    R(4,10)                 1.1052         calculate D2E/DX2 analytically  !
 ! R10   R(4,11)                 1.1237         calculate D2E/DX2 analytically  !
 ! R11   R(5,12)                 1.1299         calculate D2E/DX2 analytically  !
 ! R12   R(5,13)                 1.11           calculate D2E/DX2 analytically  !
 ! R13   R(5,14)                 1.1267         calculate D2E/DX2 analytically  !
 ! R14   R(6,7)                  1.3016         calculate D2E/DX2 analytically  !
 ! R15   R(6,15)                 1.1017         calculate D2E/DX2 analytically  !
 ! R16   R(7,16)                 1.08           calculate D2E/DX2 analytically  !
 ! A1    A(3,1,6)              112.0773         calculate D2E/DX2 analytically  !
 ! A2    A(7,2,17)             106.5816         calculate D2E/DX2 analytically  !
 ! A3    A(1,3,4)              111.633          calculate D2E/DX2 analytically  !
 ! A4    A(1,3,5)              110.2746         calculate D2E/DX2 analytically  !
 ! A5    A(1,3,8)              107.59           calculate D2E/DX2 analytically  !
 ! A6    A(4,3,5)              112.8351         calculate D2E/DX2 analytically  !
 ! A7    A(4,3,8)              106.8958         calculate D2E/DX2 analytically  !
 ! A8    A(5,3,8)              107.3218         calculate D2E/DX2 analytically  !
 ! A9    A(3,4,9)              111.7493         calculate D2E/DX2 analytically  !
 ! A10   A(3,4,10)             111.1396         calculate D2E/DX2 analytically  !
 ! A11   A(3,4,11)             111.2382         calculate D2E/DX2 analytically  !
 ! A12   A(9,4,10)             108.2736         calculate D2E/DX2 analytically  !
 ! A13   A(9,4,11)             107.3143         calculate D2E/DX2 analytically  !
 ! A14   A(10,4,11)            106.9083         calculate D2E/DX2 analytically  !
 ! A15   A(3,5,12)             112.4599         calculate D2E/DX2 analytically  !
 ! A16   A(3,5,13)             110.9543         calculate D2E/DX2 analytically  !
 ! A17   A(3,5,14)             110.9129         calculate D2E/DX2 analytically  !
 ! A18   A(12,5,13)            107.7517         calculate D2E/DX2 analytically  !
 ! A19   A(12,5,14)            106.606          calculate D2E/DX2 analytically  !
 ! A20   A(13,5,14)            107.9335         calculate D2E/DX2 analytically  !
 ! A21   A(1,6,7)              124.3969         calculate D2E/DX2 analytically  !
 ! A22   A(1,6,15)             115.4976         calculate D2E/DX2 analytically  !
 ! A23   A(7,6,15)             120.1018         calculate D2E/DX2 analytically  !
 ! A24   A(2,7,6)              124.0359         calculate D2E/DX2 analytically  !
 ! A25   A(2,7,16)             114.6226         calculate D2E/DX2 analytically  !
 ! A26   A(6,7,16)             121.326          calculate D2E/DX2 analytically  !
 ! D1    D(6,1,3,4)           -116.0675         calculate D2E/DX2 analytically  !
 ! D2    D(6,1,3,5)            117.6642         calculate D2E/DX2 analytically  !
 ! D3    D(6,1,3,8)              0.9151         calculate D2E/DX2 analytically  !
 ! D4    D(3,1,6,7)           -136.2726         calculate D2E/DX2 analytically  !
 ! D5    D(3,1,6,15)            44.4266         calculate D2E/DX2 analytically  !
 ! D6    D(17,2,7,6)           173.5024         calculate D2E/DX2 analytically  !
 ! D7    D(17,2,7,16)           -7.9146         calculate D2E/DX2 analytically  !
 ! D8    D(1,3,4,9)             -8.2669         calculate D2E/DX2 analytically  !
 ! D9    D(1,3,4,10)           112.8108         calculate D2E/DX2 analytically  !
 ! D10   D(1,3,4,11)          -128.1886         calculate D2E/DX2 analytically  !
 ! D11   D(5,3,4,9)            116.5864         calculate D2E/DX2 analytically  !
 ! D12   D(5,3,4,10)          -122.3359         calculate D2E/DX2 analytically  !
 ! D13   D(5,3,4,11)            -3.3353         calculate D2E/DX2 analytically  !
 ! D14   D(8,3,4,9)           -125.6689         calculate D2E/DX2 analytically  !
 ! D15   D(8,3,4,10)            -4.5912         calculate D2E/DX2 analytically  !
 ! D16   D(8,3,4,11)           114.4094         calculate D2E/DX2 analytically  !
 ! D17   D(1,3,5,12)            98.6352         calculate D2E/DX2 analytically  !
 ! D18   D(1,3,5,13)           -22.1346         calculate D2E/DX2 analytically  !
 ! D19   D(1,3,5,14)          -142.0885         calculate D2E/DX2 analytically  !
 ! D20   D(4,3,5,12)           -26.9549         calculate D2E/DX2 analytically  !
 ! D21   D(4,3,5,13)          -147.7248         calculate D2E/DX2 analytically  !
 ! D22   D(4,3,5,14)            92.3213         calculate D2E/DX2 analytically  !
 ! D23   D(8,3,5,12)          -144.449          calculate D2E/DX2 analytically  !
 ! D24   D(8,3,5,13)            94.7812         calculate D2E/DX2 analytically  !
 ! D25   D(8,3,5,14)           -25.1727         calculate D2E/DX2 analytically  !
 ! D26   D(1,6,7,2)              0.6178         calculate D2E/DX2 analytically  !
 ! D27   D(1,6,7,16)          -177.8742         calculate D2E/DX2 analytically  !
 ! D28   D(15,6,7,2)           179.8883         calculate D2E/DX2 analytically  !
 ! D29   D(15,6,7,16)            1.3964         calculate D2E/DX2 analytically  !
 --------------------------------------------------------------------------------
 Trust Radius=3.00D-01 FncErr=1.00D-07 GrdErr=1.00D-06 EigMax=2.50D+02 EigMin=1.00D-04
 Number of steps in this run=    102 maximum allowed number of steps=    102.
 GradGradGradGradGradGradGradGradGradGradGradGradGradGradGradGradGradGrad

 Leave Link  103 at Thu Sep 26 11:50:50 2019, MaxMem=   671088640 cpu:               1.4 elap:               0.7
 (Enter /shared/centos7/gaussian/g16/l202.exe)
                          Input orientation:                          
 ---------------------------------------------------------------------
 Center     Atomic      Atomic             Coordinates (Angstroms)
 Number     Number       Type             X           Y           Z
 ---------------------------------------------------------------------
      1          8           0        3.454629   -2.824375   -0.005580
      2          8           0        1.107626   -1.702442   -1.182787
      3          6           0        3.819187   -3.757789    0.989263
      4          6           0        5.337442   -3.865395    1.131871
      5          6           0        3.166944   -5.075243    0.726654
      6          6           0        2.764860   -1.754318    0.517002
      7          6           0        1.697933   -1.235169   -0.017977
      8          1           0        3.424406   -3.378539    1.972454
      9          1           0        5.866371   -3.305005    0.332866
     10          1           0        5.674539   -3.475855    2.109681
     11          1           0        5.677186   -4.934761    1.071371
     12          1           0        3.858841   -5.804149    0.210262
     13          1           0        2.267179   -4.952509    0.088348
     14          1           0        2.845147   -5.563767    1.689645
     15          1           0        3.180679   -1.329288    1.444461
     16          1           0        1.214580   -0.372751    0.416796
     17          1           0        0.255219   -1.190300   -1.296354
 ---------------------------------------------------------------------
                    Distance matrix (angstroms):
                    1          2          3          4          5
     1  O    0.000000
     2  O    2.855342   0.000000
     3  C    1.412047   4.036685   0.000000
     4  C    2.433619   5.284634   1.528729   0.000000
     5  C    2.384395   4.388912   1.493342   2.517736   0.000000
     6  C    1.376189   2.374531   2.312690   3.384211   3.351741
     7  C    2.368905   1.386935   3.446428   4.635328   4.178354
     8  H    2.054417   4.258206   1.125320   2.145533   2.120638
     9  H    2.482347   5.245100   2.197005   1.110050   3.252033
    10  H    3.134765   5.902714   2.185669   1.105209   3.280066
    11  H    3.248586   6.034070   2.200946   1.123668   2.537692
    12  H    3.014801   5.131644   2.189978   2.606605   1.129905
    13  H    2.438814   3.677402   2.155860   3.420127   1.109989
    14  H    3.278647   5.116609   2.168143   3.067102   1.126748
    15  H    2.100703   3.367377   2.551964   3.343827   3.814134
    16  H    3.347639   2.082830   4.309314   5.450494   5.101095
    17  H    3.817397   1.000891   4.951557   6.235495   5.259609
                    6          7          8          9         10
     6  C    0.000000
     7  C    1.301558   0.000000
     8  H    2.278472   3.396552   0.000000
     9  H    3.472450   4.667247   2.942252   0.000000
    10  H    3.737184   5.035970   2.256412   1.795288   0.000000
    11  H    4.347894   5.541491   2.882497   1.799245   1.790670
    12  H    4.206187   5.059367   3.029461   3.207947   3.510769
    13  H    3.264943   3.762175   2.714113   3.965884   4.228048
    14  H    3.986658   4.792582   2.278320   4.008821   3.541364
    15  H    1.101697   2.084735   2.130167   3.514548   3.357023
    16  H    2.078975   1.080011   4.042050   5.499484   5.690901
    17  H    3.147169   1.928130   5.051460   6.213804   6.796606
                   11         12         13         14         15
    11  H    0.000000
    12  H    2.191739   0.000000
    13  H    3.548914   1.809293   0.000000
    14  H    2.966202   1.809402   1.808822   0.000000
    15  H    4.401270   4.691219   3.975079   4.254822   0.000000
    16  H    6.415236   6.044407   4.710629   5.587982   2.415907
    17  H    7.001773   6.045129   4.485487   5.895009   4.011197
                   16         17
    16  H    0.000000
    17  H    2.126886   0.000000
 Stoichiometry    C5H10O2
 Framework group  C1[X(C5H10O2)]
 Deg. of freedom    45
 Full point group                 C1      NOp   1
 Largest Abelian subgroup         C1      NOp   1
 Largest concise Abelian subgroup C1      NOp   1
                         Standard orientation:                         
 ---------------------------------------------------------------------
 Center     Atomic      Atomic             Coordinates (Angstroms)
 Number     Number       Type             X           Y           Z
 ---------------------------------------------------------------------
      1          8           0       -0.072959   -0.223152   -0.475968
      2          8           0        2.658978    0.607001   -0.457427
      3          6           0       -1.272142    0.004450    0.233986
      4          6           0       -2.423389   -0.834595   -0.320673
      5          6           0       -1.583597    1.464531    0.269039
      6          6           0        0.899570   -0.786159    0.318453
      7          6           0        2.147296   -0.415814    0.327188
      8          1           0       -1.106938   -0.328493    1.296155
      9          1           0       -2.140399   -1.349845   -1.262292
     10          1           0       -2.747005   -1.599085    0.408926
     11          1           0       -3.320698   -0.196594   -0.545220
     12          1           0       -2.340336    1.763430   -0.514984
     13          1           0       -0.667963    2.069817    0.103755
     14          1           0       -2.018992    1.759081    1.265649
     15          1           0        0.563057   -1.609623    0.968378
     16          1           0        2.876999   -0.915490    0.947091
     17          1           0        3.607696    0.741531   -0.168260
 ---------------------------------------------------------------------
 Rotational constants (GHZ):           5.6726012           1.3518863           1.1931609
 Leave Link  202 at Thu Sep 26 11:50:52 2019, MaxMem=   671088640 cpu:               3.9 elap:               2.0
 (Enter /shared/centos7/gaussian/g16/l301.exe)
 Standard basis: CC-pVTZ (5D, 7F)
 Ernie: Thresh=  0.10000D-02 Tol=  0.10000D-05 Strict=F.
 Ernie:  21 primitive shells out of 262 were deleted.
 There are   395 symmetry adapted cartesian basis functions of A   symmetry.
 There are   350 symmetry adapted basis functions of A   symmetry.
   350 basis functions,   534 primitive gaussians,   395 cartesian basis functions
    28 alpha electrons       28 beta electrons
       nuclear repulsion energy       310.9009164553 Hartrees.
 IExCor= 4336 DFT=T Ex+Corr=M062X ExCW=0 ScaHFX=  0.540000
 ScaDFX=  1.000000  1.000000  1.000000  1.000000 ScalE2=  1.000000  1.000000
 IRadAn=      5 IRanWt=     -1 IRanGd=            0 ICorTp=0 IEmpDi=  4
 NAtoms=   17 NActive=   17 NUniq=   17 SFac= 1.00D+00 NAtFMM=   60 NAOKFM=F Big=F
 Integral buffers will be    131072 words long.
 Raffenetti 2 integral format.
 Two-electron integral symmetry is turned on.
 Leave Link  301 at Thu Sep 26 11:50:53 2019, MaxMem=   671088640 cpu:               1.6 elap:               0.8
 (Enter /shared/centos7/gaussian/g16/l302.exe)
 NPDir=0 NMtPBC=     1 NCelOv=     1 NCel=       1 NClECP=     1 NCelD=      1
         NCelK=      1 NCelE2=     1 NClLst=     1 CellRange=     0.0.
 One-electron integrals computed using PRISM.
 One-electron integral symmetry used in STVInt
 NBasis=   350 RedAO= T EigKep=  2.48D-04  NBF=   350
 NBsUse=   350 1.00D-06 EigRej= -1.00D+00 NBFU=   350
 Precomputing XC quadrature grid using
 IXCGrd= 4 IRadAn=           5 IRanWt=          -1 IRanGd=           0 AccXCQ= 0.00D+00.
 Generated NRdTot=       0 NPtTot=           0 NUsed=           0 NTot=          32
 NSgBfM=   395   395   395   395   395 MxSgAt=    17 MxSgA2=    17.
 Leave Link  302 at Thu Sep 26 11:51:54 2019, MaxMem=   671088640 cpu:             122.1 elap:              61.1
 (Enter /shared/centos7/gaussian/g16/l303.exe)
 DipDrv:  MaxL=1.
 Leave Link  303 at Thu Sep 26 11:51:59 2019, MaxMem=   671088640 cpu:               9.3 elap:               4.7
 (Enter /shared/centos7/gaussian/g16/l401.exe)
 ExpMin= 1.03D-01 ExpMax= 1.53D+04 ExpMxC= 5.22D+02 IAcc=3 IRadAn=         5 AccDes= 0.00D+00
 Harris functional with IExCor= 1009 and IRadAn=       5 diagonalized for initial guess.
 HarFok:  IExCor= 1009 AccDes= 0.00D+00 IRadAn=         5 IDoV= 1 UseB2=F ITyADJ=14
 ICtDFT=  3500011 ScaDFX=  1.000000  1.000000  1.000000  1.000000
 FoFCou: FMM=F IPFlag=           0 FMFlag=      100000 FMFlg1=           0
         NFxFlg=           0 DoJE=T BraDBF=F KetDBF=T FulRan=T
         wScrn=  0.000000 ICntrl=       500 IOpCl=  0 I1Cent=   200000004 NGrid=           0
         NMat0=    1 NMatS0=      1 NMatT0=    0 NMatD0=    1 NMtDS0=    0 NMtDT0=    0
 Petite list used in FoFCou.
 Harris En= -346.808019443976    
 JPrj=0 DoOrth=F DoCkMO=F.
 Leave Link  401 at Thu Sep 26 11:52:29 2019, MaxMem=   671088640 cpu:              60.0 elap:              30.0
 (Enter /shared/centos7/gaussian/g16/l502.exe)
 Integral symmetry usage will be decided dynamically.
 Closed shell SCF:
 Using DIIS extrapolation, IDIIS=  1040.
 NGot=   671088640 LenX=   670765141 LenY=   670608675
 Requested convergence on RMS density matrix=1.00D-08 within 900 cycles.
 Requested convergence on MAX density matrix=1.00D-06.
 Requested convergence on             energy=1.00D-06.
 No special actions if energy rises.
 Fock matrices will be formed incrementally for  20 cycles.
 Integral accuracy reduced to 1.0D-05 until final iterations.

 Cycle   1  Pass 0  IDiag  1:
 FoFJK:  IHMeth= 1 ICntrl=       0 DoSepK=F KAlg= 0 I1Cent=           0 FoldK=F
 IRaf= 940000000 NMat=       1 IRICut=       1 DoRegI=T DoRafI=F ISym2E= 0 IDoP0=0 IntGTp=1.
 FoFCou: FMM=F IPFlag=           0 FMFlag=      100000 FMFlg1=           0
         NFxFlg=           0 DoJE=F BraDBF=F KetDBF=F FulRan=T
         wScrn=  0.000000 ICntrl=         0 IOpCl=  0 I1Cent=           0 NGrid=           0
         NMat0=    1 NMatS0=      1 NMatT0=    0 NMatD0=    1 NMtDS0=    0 NMtDT0=    0
 Symmetry not used in FoFCou.
 E= -346.683615745539    
 DIIS: error= 3.15D-02 at cycle   1 NSaved=   1.
 NSaved= 1 IEnMin= 1 EnMin= -346.683615745539     IErMin= 1 ErrMin= 3.15D-02
 ErrMax= 3.15D-02  0.00D+00 EMaxC= 1.00D-01 BMatC= 2.91D-01 BMatP= 2.91D-01
 IDIUse=3 WtCom= 6.85D-01 WtEn= 3.15D-01
 Coeff-Com:  0.100D+01
 Coeff-En:   0.100D+01
 Coeff:      0.100D+01
 Gap=     0.353 Goal=   None    Shift=    0.000
 GapD=    0.353 DampG=1.000 DampE=0.500 DampFc=0.5000 IDamp=-1.
 Damping current iteration by 5.00D-01
 RMSDP=2.41D-03 MaxDP=1.53D-01              OVMax= 1.41D-01

 Cycle   2  Pass 0  IDiag  1:
 RMSU=  1.20D-03    CP:  1.00D+00
 E= -346.805042026229     Delta-E=       -0.121426280690 Rises=F Damp=T
 DIIS: error= 4.51D-03 at cycle   2 NSaved=   2.
 NSaved= 2 IEnMin= 2 EnMin= -346.805042026229     IErMin= 2 ErrMin= 4.51D-03
 ErrMax= 4.51D-03  0.00D+00 EMaxC= 1.00D-01 BMatC= 2.10D-02 BMatP= 2.91D-01
 IDIUse=3 WtCom= 9.55D-01 WtEn= 4.51D-02
 Coeff-Com: -0.117D+00 0.112D+01
 Coeff-En:   0.000D+00 0.100D+01
 Coeff:     -0.112D+00 0.111D+01
 Gap=     0.325 Goal=   None    Shift=    0.000
 RMSDP=4.85D-04 MaxDP=2.14D-02 DE=-1.21D-01 OVMax= 7.43D-02

 Cycle   3  Pass 0  IDiag  1:
 RMSU=  4.62D-04    CP:  1.01D+00  8.81D-01
 E= -346.915782385652     Delta-E=       -0.110740359423 Rises=F Damp=F
 DIIS: error= 2.43D-03 at cycle   3 NSaved=   3.
 NSaved= 3 IEnMin= 3 EnMin= -346.915782385652     IErMin= 3 ErrMin= 2.43D-03
 ErrMax= 2.43D-03  0.00D+00 EMaxC= 1.00D-01 BMatC= 4.25D-03 BMatP= 2.10D-02
 IDIUse=3 WtCom= 9.76D-01 WtEn= 2.43D-02
 Coeff-Com: -0.818D-01 0.326D+00 0.756D+00
 Coeff-En:   0.000D+00 0.000D+00 0.100D+01
 Coeff:     -0.798D-01 0.318D+00 0.762D+00
 Gap=     0.323 Goal=   None    Shift=    0.000
 RMSDP=2.12D-04 MaxDP=1.48D-02 DE=-1.11D-01 OVMax= 1.32D-02

 Cycle   4  Pass 0  IDiag  1:
 RMSU=  1.38D-04    CP:  1.01D+00  1.01D+00  8.73D-01
 E= -346.917958282454     Delta-E=       -0.002175896802 Rises=F Damp=F
 DIIS: error= 1.47D-03 at cycle   4 NSaved=   4.
 NSaved= 4 IEnMin= 4 EnMin= -346.917958282454     IErMin= 4 ErrMin= 1.47D-03
 ErrMax= 1.47D-03  0.00D+00 EMaxC= 1.00D-01 BMatC= 1.29D-03 BMatP= 4.25D-03
 IDIUse=3 WtCom= 9.85D-01 WtEn= 1.47D-02
 Coeff-Com: -0.285D-01 0.747D-01 0.395D+00 0.559D+00
 Coeff-En:   0.000D+00 0.000D+00 0.202D+00 0.798D+00
 Coeff:     -0.281D-01 0.736D-01 0.392D+00 0.563D+00
 Gap=     0.319 Goal=   None    Shift=    0.000
 RMSDP=7.75D-05 MaxDP=5.35D-03 DE=-2.18D-03 OVMax= 5.06D-03

 Cycle   5  Pass 0  IDiag  1:
 RMSU=  2.68D-05    CP:  1.01D+00  9.74D-01  9.32D-01  5.98D-01
 E= -346.918889441880     Delta-E=       -0.000931159426 Rises=F Damp=F
 DIIS: error= 2.23D-04 at cycle   5 NSaved=   5.
 NSaved= 5 IEnMin= 5 EnMin= -346.918889441880     IErMin= 5 ErrMin= 2.23D-04
 ErrMax= 2.23D-04  0.00D+00 EMaxC= 1.00D-01 BMatC= 2.15D-05 BMatP= 1.29D-03
 IDIUse=3 WtCom= 9.98D-01 WtEn= 2.23D-03
 Coeff-Com: -0.432D-02 0.774D-02 0.884D-01 0.184D+00 0.724D+00
 Coeff-En:   0.000D+00 0.000D+00 0.000D+00 0.000D+00 0.100D+01
 Coeff:     -0.431D-02 0.772D-02 0.882D-01 0.184D+00 0.725D+00
 Gap=     0.319 Goal=   None    Shift=    0.000
 RMSDP=9.27D-06 MaxDP=2.74D-04 DE=-9.31D-04 OVMax= 7.29D-04

 Initial convergence to 1.0D-05 achieved.  Increase integral accuracy.
 Cycle   6  Pass 1  IDiag  1:
 E= -346.918919312243     Delta-E=       -0.000029870363 Rises=F Damp=F
 DIIS: error= 4.82D-05 at cycle   1 NSaved=   1.
 NSaved= 1 IEnMin= 1 EnMin= -346.918919312243     IErMin= 1 ErrMin= 4.82D-05
 ErrMax= 4.82D-05  0.00D+00 EMaxC= 1.00D-01 BMatC= 1.98D-06 BMatP= 1.98D-06
 IDIUse=1 WtCom= 1.00D+00 WtEn= 0.00D+00
 Coeff-Com:  0.100D+01
 Coeff:      0.100D+01
 Gap=     0.320 Goal=   None    Shift=    0.000
 RMSDP=9.27D-06 MaxDP=2.74D-04 DE=-2.99D-05 OVMax= 3.93D-04

 Cycle   7  Pass 1  IDiag  1:
 RMSU=  8.03D-06    CP:  1.00D+00
 E= -346.918919659765     Delta-E=       -0.000000347522 Rises=F Damp=F
 DIIS: error= 5.64D-05 at cycle   2 NSaved=   2.
 NSaved= 2 IEnMin= 2 EnMin= -346.918919659765     IErMin= 1 ErrMin= 4.82D-05
 ErrMax= 5.64D-05  0.00D+00 EMaxC= 1.00D-01 BMatC= 1.76D-06 BMatP= 1.98D-06
 IDIUse=1 WtCom= 1.00D+00 WtEn= 0.00D+00
 Coeff-Com:  0.483D+00 0.517D+00
 Coeff:      0.483D+00 0.517D+00
 Gap=     0.320 Goal=   None    Shift=    0.000
 RMSDP=2.14D-06 MaxDP=1.10D-04 DE=-3.48D-07 OVMax= 1.89D-04

 Cycle   8  Pass 1  IDiag  1:
 RMSU=  2.06D-06    CP:  1.00D+00  9.30D-01
 E= -346.918921043911     Delta-E=       -0.000001384146 Rises=F Damp=F
 DIIS: error= 4.96D-06 at cycle   3 NSaved=   3.
 NSaved= 3 IEnMin= 3 EnMin= -346.918921043911     IErMin= 3 ErrMin= 4.96D-06
 ErrMax= 4.96D-06  0.00D+00 EMaxC= 1.00D-01 BMatC= 2.47D-08 BMatP= 1.76D-06
 IDIUse=1 WtCom= 1.00D+00 WtEn= 0.00D+00
 Coeff-Com: -0.107D-01 0.791D-01 0.932D+00
 Coeff:     -0.107D-01 0.791D-01 0.932D+00
 Gap=     0.320 Goal=   None    Shift=    0.000
 RMSDP=5.37D-07 MaxDP=1.50D-05 DE=-1.38D-06 OVMax= 5.33D-05

 Cycle   9  Pass 1  IDiag  1:
 RMSU=  4.78D-07    CP:  1.00D+00  9.60D-01  1.01D+00
 E= -346.918921064021     Delta-E=       -0.000000020111 Rises=F Damp=F
 DIIS: error= 2.69D-06 at cycle   4 NSaved=   4.
 NSaved= 4 IEnMin= 4 EnMin= -346.918921064021     IErMin= 4 ErrMin= 2.69D-06
 ErrMax= 2.69D-06  0.00D+00 EMaxC= 1.00D-01 BMatC= 7.03D-09 BMatP= 2.47D-08
 IDIUse=1 WtCom= 1.00D+00 WtEn= 0.00D+00
 Coeff-Com: -0.309D-01 0.101D-01 0.451D+00 0.570D+00
 Coeff:     -0.309D-01 0.101D-01 0.451D+00 0.570D+00
 Gap=     0.320 Goal=   None    Shift=    0.000
 RMSDP=1.77D-07 MaxDP=6.53D-06 DE=-2.01D-08 OVMax= 2.00D-05

 Cycle  10  Pass 1  IDiag  1:
 RMSU=  1.60D-07    CP:  1.00D+00  9.66D-01  1.02D+00  8.89D-01
 E= -346.918921069455     Delta-E=       -0.000000005433 Rises=F Damp=F
 DIIS: error= 6.75D-07 at cycle   5 NSaved=   5.
 NSaved= 5 IEnMin= 5 EnMin= -346.918921069455     IErMin= 5 ErrMin= 6.75D-07
 ErrMax= 6.75D-07  0.00D+00 EMaxC= 1.00D-01 BMatC= 3.03D-10 BMatP= 7.03D-09
 IDIUse=1 WtCom= 1.00D+00 WtEn= 0.00D+00
 Coeff-Com: -0.697D-02-0.692D-02 0.782D-02 0.145D+00 0.861D+00
 Coeff:     -0.697D-02-0.692D-02 0.782D-02 0.145D+00 0.861D+00
 Gap=     0.320 Goal=   None    Shift=    0.000
 RMSDP=7.81D-08 MaxDP=1.75D-06 DE=-5.43D-09 OVMax= 6.75D-06

 Cycle  11  Pass 1  IDiag  1:
 RMSU=  4.55D-08    CP:  1.00D+00  9.67D-01  1.03D+00  1.02D+00  1.05D+00
 E= -346.918921069774     Delta-E=       -0.000000000319 Rises=F Damp=F
 DIIS: error= 3.35D-07 at cycle   6 NSaved=   6.
 NSaved= 6 IEnMin= 6 EnMin= -346.918921069774     IErMin= 6 ErrMin= 3.35D-07
 ErrMax= 3.35D-07  0.00D+00 EMaxC= 1.00D-01 BMatC= 6.69D-11 BMatP= 3.03D-10
 IDIUse=1 WtCom= 1.00D+00 WtEn= 0.00D+00
 Coeff-Com:  0.642D-03-0.426D-02-0.492D-01-0.555D-02 0.372D+00 0.686D+00
 Coeff:      0.642D-03-0.426D-02-0.492D-01-0.555D-02 0.372D+00 0.686D+00
 Gap=     0.320 Goal=   None    Shift=    0.000
 RMSDP=2.40D-08 MaxDP=1.12D-06 DE=-3.19D-10 OVMax= 3.95D-06

 Cycle  12  Pass 1  IDiag  1:
 RMSU=  1.72D-08    CP:  1.00D+00  9.67D-01  1.03D+00  1.03D+00  1.12D+00
                    CP:  7.99D-01
 E= -346.918921069844     Delta-E=       -0.000000000070 Rises=F Damp=F
 DIIS: error= 1.12D-07 at cycle   7 NSaved=   7.
 NSaved= 7 IEnMin= 7 EnMin= -346.918921069844     IErMin= 7 ErrMin= 1.12D-07
 ErrMax= 1.12D-07  0.00D+00 EMaxC= 1.00D-01 BMatC= 4.97D-12 BMatP= 6.69D-11
 IDIUse=1 WtCom= 1.00D+00 WtEn= 0.00D+00
 Coeff-Com:  0.777D-03-0.147D-02-0.224D-01-0.127D-01 0.101D+00 0.298D+00
 Coeff-Com:  0.637D+00
 Coeff:      0.777D-03-0.147D-02-0.224D-01-0.127D-01 0.101D+00 0.298D+00
 Coeff:      0.637D+00
 Gap=     0.320 Goal=   None    Shift=    0.000
 RMSDP=5.37D-09 MaxDP=2.51D-07 DE=-7.00D-11 OVMax= 7.93D-07

 SCF Done:  E(RM062X) =  -346.918921070     A.U. after   12 cycles
            NFock= 12  Conv=0.54D-08     -V/T= 2.0063
 KE= 3.447564368205D+02 PE=-1.432071802281D+03 EE= 4.294955279356D+02
 Leave Link  502 at Thu Sep 26 12:02:23 2019, MaxMem=   671088640 cpu:            1188.8 elap:             594.5
 (Enter /shared/centos7/gaussian/g16/l801.exe)
 DoSCS=F DFT=T ScalE2(SS,OS)=  1.000000  1.000000
 Range of M.O.s used for correlation:     1   350
 NBasis=   350 NAE=    28 NBE=    28 NFC=     0 NFV=     0
 NROrb=    350 NOA=    28 NOB=    28 NVA=   322 NVB=   322

 **** Warning!!: The largest alpha MO coefficient is  0.10467282D+02

 Leave Link  801 at Thu Sep 26 12:02:24 2019, MaxMem=   671088640 cpu:               2.0 elap:               1.0
 (Enter /shared/centos7/gaussian/g16/l1101.exe)
 Using compressed storage, NAtomX=    17.
 Will process     18 centers per pass.
 Leave Link 1101 at Thu Sep 26 12:02:57 2019, MaxMem=   671088640 cpu:              65.9 elap:              33.0
 (Enter /shared/centos7/gaussian/g16/l1102.exe)
 Symmetrizing basis deriv contribution to polar:
 IMax=3 JMax=2 DiffMx= 0.00D+00
 Leave Link 1102 at Thu Sep 26 12:03:00 2019, MaxMem=   671088640 cpu:               5.0 elap:               2.5
 (Enter /shared/centos7/gaussian/g16/l1110.exe)
 Forming Gx(P) for the SCF density, NAtomX=    17.
 Integral derivatives from FoFJK, PRISM(SPDF).
 Do as many integral derivatives as possible in FoFJK.
 G2DrvN: MDV=     671087280.
 G2DrvN: will do    18 centers at a time, making    1 passes.
 Calling FoFCou, ICntrl=  3107 FMM=F I1Cent=   0 AccDes= 0.00D+00.
 FoFJK:  IHMeth= 1 ICntrl=    3107 DoSepK=F KAlg= 0 I1Cent=           0 FoldK=F
 IRaf=         0 NMat=       1 IRICut=       1 DoRegI=T DoRafI=F ISym2E= 0 IDoP0=0 IntGTp=1.
 FoFCou: FMM=F IPFlag=           0 FMFlag=      100000 FMFlg1=           0
         NFxFlg=           0 DoJE=F BraDBF=F KetDBF=F FulRan=T
         wScrn=  0.000000 ICntrl=      3107 IOpCl=  0 I1Cent=           0 NGrid=           0
         NMat0=    1 NMatS0=      1 NMatT0=    0 NMatD0=    1 NMtDS0=    0 NMtDT0=    0
 Symmetry not used in FoFCou.
 End of G2Drv F.D. properties file   721 does not exist.
 End of G2Drv F.D. properties file   722 does not exist.
 End of G2Drv F.D. properties file   788 does not exist.
 Leave Link 1110 at Thu Sep 26 12:21:06 2019, MaxMem=   671088640 cpu:            2171.9 elap:            1086.1
 (Enter /shared/centos7/gaussian/g16/l1002.exe)
 Minotr:  Closed shell wavefunction.
          IDoAtm=11111111111111111
          Direct CPHF calculation.
          Differentiating once with respect to nuclear coordinates.
          Requested convergence is 1.0D-08 RMS, and 1.0D-07 maximum.
          Secondary convergence is 1.0D-12 RMS, and 1.0D-12 maximum.
          NewPWx=T KeepS1=F KeepF1=F KeepIn=T MapXYZ=F SortEE=F KeepMc=T.
         5130 words used for storage of precomputed grid.
 Two-electron integrals replicated using symmetry.
          MDV=     671088640 using IRadAn=       1.
          Solving linear equations simultaneously, MaxMat=     380.
 FoF2E skips out because all densities are zero.
 CalDSu exits because no D1Ps are significant.
 FoFJK:  IHMeth= 1 ICntrl=       0 DoSepK=F KAlg= 0 I1Cent=           0 FoldK=F
 IRaf= 920000000 NMat=      51 IRICut=     127 DoRegI=T DoRafI=T ISym2E= 2 IDoP0=3 IntGTp=3.
 FoFCou: FMM=F IPFlag=           0 FMFlag=      100000 FMFlg1=           0
         NFxFlg=           0 DoJE=F BraDBF=F KetDBF=F FulRan=T
         wScrn=  0.000000 ICntrl=         0 IOpCl=  0 I1Cent=           0 NGrid=           0
         NMat0=   51 NMatS0=     51 NMatT0=    0 NMatD0=   51 NMtDS0=    0 NMtDT0=    0
 Integrals replicated using symmetry in FoFCou.
 Raff kept on since  88.34% of shell-pairs survive, threshold=   0.20 IRatSp=88.
          There are    54 degrees of freedom in the 1st order CPHF.  IDoFFX=6 NUNeed=     0.
     48 vectors produced by pass  0 Test12= 1.67D-14 1.85D-09 XBig12= 6.83D-02 6.36D-02.
 AX will form    48 AO Fock derivatives at one time.
     48 vectors produced by pass  1 Test12= 1.67D-14 1.85D-09 XBig12= 6.72D-03 1.96D-02.
     48 vectors produced by pass  2 Test12= 1.67D-14 1.85D-09 XBig12= 1.65D-04 2.13D-03.
     48 vectors produced by pass  3 Test12= 1.67D-14 1.85D-09 XBig12= 1.30D-06 1.65D-04.
     48 vectors produced by pass  4 Test12= 1.67D-14 1.85D-09 XBig12= 9.71D-09 1.24D-05.
     48 vectors produced by pass  5 Test12= 1.67D-14 1.85D-09 XBig12= 5.00D-11 8.36D-07.
     26 vectors produced by pass  6 Test12= 1.67D-14 1.85D-09 XBig12= 2.10D-13 4.27D-08.
      4 vectors produced by pass  7 Test12= 1.67D-14 1.85D-09 XBig12= 7.97D-16 3.84D-09.
 InvSVY:  IOpt=1 It=  1 EMax= 2.22D-16
 Solved reduced A of dimension   318 with    54 vectors.
 End of Minotr F.D. properties file   721 does not exist.
 End of Minotr F.D. properties file   722 does not exist.
 End of Minotr F.D. properties file   788 does not exist.
 Leave Link 1002 at Thu Sep 26 12:51:44 2019, MaxMem=   671088640 cpu:            3674.8 elap:            1837.5
 (Enter /shared/centos7/gaussian/g16/l601.exe)
 Copying SCF densities to generalized density rwf, IOpCl= 0 IROHF=0.

 **********************************************************************

            Population analysis using the SCF density.

 **********************************************************************

 Orbital symmetries:
       Occupied  (A) (A) (A) (A) (A) (A) (A) (A) (A) (A) (A) (A)
                 (A) (A) (A) (A) (A) (A) (A) (A) (A) (A) (A) (A)
                 (A) (A) (A) (A)
       Virtual   (A) (A) (A) (A) (A) (A) (A) (A) (A) (A) (A) (A)
                 (A) (A) (A) (A) (A) (A) (A) (A) (A) (A) (A) (A)
                 (A) (A) (A) (A) (A) (A) (A) (A) (A) (A) (A) (A)
                 (A) (A) (A) (A) (A) (A) (A) (A) (A) (A) (A) (A)
                 (A) (A) (A) (A) (A) (A) (A) (A) (A) (A) (A) (A)
                 (A) (A) (A) (A) (A) (A) (A) (A) (A) (A) (A) (A)
                 (A) (A) (A) (A) (A) (A) (A) (A) (A) (A) (A) (A)
                 (A) (A) (A) (A) (A) (A) (A) (A) (A) (A) (A) (A)
                 (A) (A) (A) (A) (A) (A) (A) (A) (A) (A) (A) (A)
                 (A) (A) (A) (A) (A) (A) (A) (A) (A) (A) (A) (A)
                 (A) (A) (A) (A) (A) (A) (A) (A) (A) (A) (A) (A)
                 (A) (A) (A) (A) (A) (A) (A) (A) (A) (A) (A) (A)
                 (A) (A) (A) (A) (A) (A) (A) (A) (A) (A) (A) (A)
                 (A) (A) (A) (A) (A) (A) (A) (A) (A) (A) (A) (A)
                 (A) (A) (A) (A) (A) (A) (A) (A) (A) (A) (A) (A)
                 (A) (A) (A) (A) (A) (A) (A) (A) (A) (A) (A) (A)
                 (A) (A) (A) (A) (A) (A) (A) (A) (A) (A) (A) (A)
                 (A) (A) (A) (A) (A) (A) (A) (A) (A) (A) (A) (A)
                 (A) (A) (A) (A) (A) (A) (A) (A) (A) (A) (A) (A)
                 (A) (A) (A) (A) (A) (A) (A) (A) (A) (A) (A) (A)
                 (A) (A) (A) (A) (A) (A) (A) (A) (A) (A) (A) (A)
                 (A) (A) (A) (A) (A) (A) (A) (A) (A) (A) (A) (A)
                 (A) (A) (A) (A) (A) (A) (A) (A) (A) (A) (A) (A)
                 (A) (A) (A) (A) (A) (A) (A) (A) (A) (A) (A) (A)
                 (A) (A) (A) (A) (A) (A) (A) (A) (A) (A) (A) (A)
                 (A) (A) (A) (A) (A) (A) (A) (A) (A) (A) (A) (A)
                 (A) (A) (A) (A) (A) (A) (A) (A) (A) (A)
 The electronic state is 1-A.
 Alpha  occ. eigenvalues --  -19.64614 -19.63328 -10.59110 -10.58130 -10.57517
 Alpha  occ. eigenvalues --  -10.52867 -10.52721  -1.17789  -1.15521  -0.89107
 Alpha  occ. eigenvalues --   -0.83509  -0.77496  -0.68007  -0.65823  -0.61419
 Alpha  occ. eigenvalues --   -0.56638  -0.53851  -0.52477  -0.49294  -0.46750
 Alpha  occ. eigenvalues --   -0.45226  -0.44814  -0.43905  -0.42626  -0.40613
 Alpha  occ. eigenvalues --   -0.37440  -0.36278  -0.27184
 Alpha virt. eigenvalues --    0.04770   0.07271   0.08508   0.09695   0.11072
 Alpha virt. eigenvalues --    0.11855   0.12854   0.14303   0.15873   0.16706
 Alpha virt. eigenvalues --    0.17347   0.18246   0.21445   0.24627   0.24807
 Alpha virt. eigenvalues --    0.27644   0.30004   0.31731   0.32334   0.34082
 Alpha virt. eigenvalues --    0.34351   0.35752   0.37038   0.39737   0.41126
 Alpha virt. eigenvalues --    0.41757   0.43151   0.44280   0.44867   0.45190
 Alpha virt. eigenvalues --    0.47918   0.48371   0.49475   0.49693   0.50180
 Alpha virt. eigenvalues --    0.51158   0.52001   0.52856   0.53864   0.55094
 Alpha virt. eigenvalues --    0.56405   0.57441   0.58307   0.59657   0.60570
 Alpha virt. eigenvalues --    0.63910   0.65509   0.67508   0.69981   0.70874
 Alpha virt. eigenvalues --    0.71959   0.75835   0.78615   0.80654   0.82047
 Alpha virt. eigenvalues --    0.84596   0.85216   0.87961   0.89462   0.90506
 Alpha virt. eigenvalues --    0.91724   0.94524   0.95944   0.98956   0.99999
 Alpha virt. eigenvalues --    1.01817   1.02362   1.03391   1.05707   1.06462
 Alpha virt. eigenvalues --    1.07420   1.07969   1.08915   1.10223   1.11779
 Alpha virt. eigenvalues --    1.12963   1.15799   1.17364   1.18930   1.20299
 Alpha virt. eigenvalues --    1.22360   1.23415   1.25192   1.26738   1.27314
 Alpha virt. eigenvalues --    1.28050   1.29240   1.31544   1.32396   1.34132
 Alpha virt. eigenvalues --    1.35699   1.37274   1.37540   1.38784   1.40977
 Alpha virt. eigenvalues --    1.41943   1.45694   1.47681   1.50524   1.51196
 Alpha virt. eigenvalues --    1.51932   1.54625   1.55330   1.56619   1.57467
 Alpha virt. eigenvalues --    1.60874   1.62754   1.67605   1.71070   1.86402
 Alpha virt. eigenvalues --    1.86581   1.92832   1.99693   2.02413   2.07740
 Alpha virt. eigenvalues --    2.07906   2.10910   2.12544   2.14698   2.19148
 Alpha virt. eigenvalues --    2.20404   2.22189   2.24037   2.28950   2.33369
 Alpha virt. eigenvalues --    2.34570   2.35972   2.39098   2.39431   2.43284
 Alpha virt. eigenvalues --    2.44860   2.49842   2.51614   2.54687   2.55907
 Alpha virt. eigenvalues --    2.60260   2.61346   2.62749   2.66067   2.66966
 Alpha virt. eigenvalues --    2.72975   2.74623   2.76733   2.78050   2.79069
 Alpha virt. eigenvalues --    2.81467   2.82131   2.83890   2.85119   2.86260
 Alpha virt. eigenvalues --    2.88058   2.90087   2.90423   2.94047   2.95824
 Alpha virt. eigenvalues --    2.96555   2.97616   2.98521   2.99678   3.00180
 Alpha virt. eigenvalues --    3.02058   3.02853   3.05031   3.05765   3.08005
 Alpha virt. eigenvalues --    3.08752   3.09167   3.10597   3.11816   3.13578
 Alpha virt. eigenvalues --    3.14231   3.16822   3.19133   3.20557   3.21543
 Alpha virt. eigenvalues --    3.23176   3.24343   3.26815   3.27839   3.30261
 Alpha virt. eigenvalues --    3.31815   3.32576   3.33253   3.33956   3.34468
 Alpha virt. eigenvalues --    3.36941   3.38268   3.39910   3.40684   3.43387
 Alpha virt. eigenvalues --    3.43726   3.44842   3.48205   3.48376   3.51358
 Alpha virt. eigenvalues --    3.53212   3.55503   3.56768   3.58303   3.60922
 Alpha virt. eigenvalues --    3.62867   3.64792   3.66068   3.69084   3.70227
 Alpha virt. eigenvalues --    3.72976   3.74536   3.75624   3.76062   3.78494
 Alpha virt. eigenvalues --    3.79141   3.80893   3.81137   3.82454   3.83711
 Alpha virt. eigenvalues --    3.86462   3.87205   3.89930   3.91175   3.92201
 Alpha virt. eigenvalues --    3.93635   3.96188   3.98257   3.99889   4.01658
 Alpha virt. eigenvalues --    4.02387   4.03353   4.04345   4.06841   4.07020
 Alpha virt. eigenvalues --    4.08747   4.10878   4.12811   4.13637   4.15685
 Alpha virt. eigenvalues --    4.18348   4.19404   4.23418   4.24133   4.26753
 Alpha virt. eigenvalues --    4.29049   4.29679   4.33469   4.38492   4.39386
 Alpha virt. eigenvalues --    4.42788   4.44303   4.47056   4.49343   4.52994
 Alpha virt. eigenvalues --    4.54578   4.58676   4.64319   4.64909   4.67512
 Alpha virt. eigenvalues --    4.69556   4.72243   4.74913   4.77265   4.80669
 Alpha virt. eigenvalues --    4.83344   4.86271   4.89249   4.92098   4.93147
 Alpha virt. eigenvalues --    4.94609   4.96141   5.00173   5.03672   5.05524
 Alpha virt. eigenvalues --    5.08023   5.09204   5.10383   5.12545   5.13396
 Alpha virt. eigenvalues --    5.20098   5.20608   5.22353   5.26362   5.28266
 Alpha virt. eigenvalues --    5.28902   5.29579   5.37725   5.40745   5.43612
 Alpha virt. eigenvalues --    5.51462   5.58820   5.61252   5.67039   5.75015
 Alpha virt. eigenvalues --    5.76233   5.77612   5.78831   5.81184   5.82713
 Alpha virt. eigenvalues --    5.94210   6.00749   6.06268   6.14329   6.21683
 Alpha virt. eigenvalues --    6.32873   6.49459   6.55832   6.58008   6.69643
 Alpha virt. eigenvalues --    6.72277   6.74582   6.79346   6.81713   7.01369
 Alpha virt. eigenvalues --    7.08232   7.18315   7.26804   7.34680   7.39823
 Alpha virt. eigenvalues --    9.98525  10.72847  11.52446  11.85927  12.97210
 Alpha virt. eigenvalues --   13.36482  14.40077
          Condensed to atoms (all electrons):
               1          2          3          4          5          6
     1  O    7.887234   0.004688   0.271876  -0.044056  -0.046771   0.322016
     2  O    0.004688   7.767423   0.002817   0.000004  -0.001325  -0.089388
     3  C    0.271876   0.002817   4.951597   0.322287   0.312624  -0.106856
     4  C   -0.044056   0.000004   0.322287   5.009408  -0.054649  -0.004462
     5  C   -0.046771  -0.001325   0.312624  -0.054649   4.981104   0.016450
     6  C    0.322016  -0.089388  -0.106856  -0.004462   0.016450   5.083914
     7  C   -0.057703   0.366955  -0.000861  -0.000625   0.001044   0.478926
     8  H   -0.053209  -0.000167   0.400569  -0.067219  -0.047079  -0.000914
     9  H    0.004193   0.000007  -0.037369   0.380594   0.003347   0.000555
    10  H    0.002658   0.000000  -0.038120   0.397915   0.007148   0.000076
    11  H    0.003636  -0.000001  -0.045230   0.402909  -0.010592   0.000192
    12  H    0.001524  -0.000006  -0.046485  -0.013671   0.407223  -0.000483
    13  H    0.005267   0.002681  -0.035008   0.009012   0.381929  -0.006305
    14  H    0.005032   0.000021  -0.043827   0.004246   0.395588  -0.001002
    15  H   -0.048672   0.003043   0.007825  -0.000722  -0.000651   0.425806
    16  H    0.004773  -0.052297   0.000718   0.000055  -0.000149  -0.100217
    17  H   -0.000192   0.326618  -0.000058   0.000000   0.000034   0.016499
               7          8          9         10         11         12
     1  O   -0.057703  -0.053209   0.004193   0.002658   0.003636   0.001524
     2  O    0.366955  -0.000167   0.000007   0.000000  -0.000001  -0.000006
     3  C   -0.000861   0.400569  -0.037369  -0.038120  -0.045230  -0.046485
     4  C   -0.000625  -0.067219   0.380594   0.397915   0.402909  -0.013671
     5  C    0.001044  -0.047079   0.003347   0.007148  -0.010592   0.407223
     6  C    0.478926  -0.000914   0.000555   0.000076   0.000192  -0.000483
     7  C    4.915945  -0.000478  -0.000128   0.000056   0.000077  -0.000111
     8  H   -0.000478   0.676843   0.008837  -0.013483   0.005745   0.008031
     9  H   -0.000128   0.008837   0.565688  -0.029248  -0.027578   0.001520
    10  H    0.000056  -0.013483  -0.029248   0.601535  -0.036573   0.000505
    11  H    0.000077   0.005745  -0.027578  -0.036573   0.602832  -0.000190
    12  H   -0.000111   0.008031   0.001520   0.000505  -0.000190   0.606338
    13  H   -0.000524   0.000792  -0.000447  -0.000514   0.000513  -0.027016
    14  H   -0.000377  -0.012176  -0.000233  -0.000375  -0.001183  -0.038357
    15  H   -0.096725   0.003973   0.000432  -0.000032  -0.000269   0.000006
    16  H    0.446618  -0.000440  -0.000003  -0.000006  -0.000002  -0.000002
    17  H   -0.043453   0.000009  -0.000000  -0.000000   0.000000   0.000001
              13         14         15         16         17
     1  O    0.005267   0.005032  -0.048672   0.004773  -0.000192
     2  O    0.002681   0.000021   0.003043  -0.052297   0.326618
     3  C   -0.035008  -0.043827   0.007825   0.000718  -0.000058
     4  C    0.009012   0.004246  -0.000722   0.000055   0.000000
     5  C    0.381929   0.395588  -0.000651  -0.000149   0.000034
     6  C   -0.006305  -0.001002   0.425806  -0.100217   0.016499
     7  C   -0.000524  -0.000377  -0.096725   0.446618  -0.043453
     8  H    0.000792  -0.012176   0.003973  -0.000440   0.000009
     9  H   -0.000447  -0.000233   0.000432  -0.000003  -0.000000
    10  H   -0.000514  -0.000375  -0.000032  -0.000006  -0.000000
    11  H    0.000513  -0.001183  -0.000269  -0.000002   0.000000
    12  H   -0.027016  -0.038357   0.000006  -0.000002   0.000001
    13  H    0.561809  -0.022766   0.000599   0.000232  -0.000089
    14  H   -0.022766   0.611487   0.000367  -0.000002  -0.000000
    15  H    0.000599   0.000367   0.600180  -0.003775  -0.000411
    16  H    0.000232  -0.000002  -0.003775   0.618839  -0.014420
    17  H   -0.000089  -0.000000  -0.000411  -0.014420   0.453899
 Mulliken charges:
               1
     1  O   -0.262295
     2  O   -0.331074
     3  C    0.083502
     4  C   -0.341024
     5  C   -0.345275
     6  C   -0.034807
     7  C   -0.008636
     8  H    0.090366
     9  H    0.129834
    10  H    0.108458
    11  H    0.105714
    12  H    0.101173
    13  H    0.129834
    14  H    0.103559
    15  H    0.109028
    16  H    0.100079
    17  H    0.261562
 Sum of Mulliken charges =  -0.00000
 Mulliken charges with hydrogens summed into heavy atoms:
               1
     1  O   -0.262295
     2  O   -0.069511
     3  C    0.173868
     4  C    0.002983
     5  C   -0.010709
     6  C    0.074221
     7  C    0.091443
 APT charges:
               1
     1  O   -0.201624
     2  O   -0.917450
     3  C    0.002348
     4  C   -1.253709
     5  C   -1.178380
     6  C   -0.415707
     7  C   -0.292481
     8  H    0.271425
     9  H    0.305337
    10  H    0.407524
    11  H    0.463805
    12  H    0.441599
    13  H    0.218765
    14  H    0.415760
    15  H    0.327001
    16  H    0.494884
    17  H    0.910903
 Sum of APT charges =  -0.00000
 APT charges with hydrogens summed into heavy atoms:
               1
     1  O   -0.201624
     2  O   -0.006548
     3  C    0.273773
     4  C   -0.077043
     5  C   -0.102255
     6  C   -0.088707
     7  C    0.202403
 Electronic spatial extent (au):  <R**2>=           1028.7589
 Charge=             -0.0000 electrons
 Dipole moment (field-independent basis, Debye):
    X=              0.7780    Y=             -0.5236    Z=              2.1338  Tot=              2.3308
 Quadrupole moment (field-independent basis, Debye-Ang):
   XX=            -31.9401   YY=            -43.9169   ZZ=            -45.4051
   XY=              0.1238   XZ=              2.8890   YZ=             -0.9227
 Traceless Quadrupole moment (field-independent basis, Debye-Ang):
   XX=              8.4806   YY=             -3.4962   ZZ=             -4.9844
   XY=              0.1238   XZ=              2.8890   YZ=             -0.9227
 Octapole moment (field-independent basis, Debye-Ang**2):
  XXX=             63.8884  YYY=              1.5137  ZZZ=             -2.8153  XYY=              4.2850
  XXY=              6.6382  XXZ=              6.1666  XZZ=              0.8175  YZZ=             -1.0852
  YYZ=              0.8646  XYZ=             -0.4844
 Hexadecapole moment (field-independent basis, Debye-Ang**3):
 XXXX=           -772.0215 YYYY=           -266.1524 ZZZZ=           -108.9016 XXXY=             35.1629
 XXXZ=             18.2218 YYYX=             13.6746 YYYZ=             -5.2207 ZZZX=             -5.0938
 ZZZY=             -0.4292 XXYY=           -205.6468 XXZZ=           -186.0831 YYZZ=            -58.7769
 XXYZ=             -5.1626 YYXZ=              0.7548 ZZXY=              0.5522
 N-N= 3.109009164553D+02 E-N=-1.432071808889D+03  KE= 3.447564368205D+02
  Exact polarizability:   0.000   0.000   0.000   0.000   0.000   0.000
 Approx polarizability:  94.234   4.653  72.646   1.088  -4.561  71.631
 No NMR shielding tensors so no spin-rotation constants.
 Leave Link  601 at Thu Sep 26 12:52:14 2019, MaxMem=   671088640 cpu:              60.2 elap:              30.1
 (Enter /shared/centos7/gaussian/g16/l701.exe)
 SCFChk:  SCF convergence  5.37D-09 required  1.00D-08
 ... and contract with generalized density number  0.
 Compute integral second derivatives.
 Entering OneElI...
 Calculate overlap and kinetic energy integrals
    NBasis = 395  MinDer = 2  MaxDer = 2
 Requested accuracy = 0.1000D-12
 PrmmSu-InSpLW:  IPartL=    0 NPrtUS=   20 NPrtUL=    1 DoSpLW=F IThBeg=    0 IThEnd=   19 NThAct=   20.
 PrsmSu:  NPrtUS=  20 ThrOK=T IAlg=1 NPAlg=1 LenDen=           0 ISkipM=0 DoSpLW=F IThBeg=    0 IThEnd=   19.
 Prism:   IPart=     0 DynPar=F LinDyn=F Incr=           4.
 PRISM was handed    33316247 working-precision words and  8356 shell-pairs
 PRISM was handed    33316247 working-precision words and  8356 shell-pairs
 PRISM was handed    33316247 working-precision words and  8356 shell-pairs
 PRISM was handed    33316247 working-precision words and  8356 shell-pairs
 PRISM was handed    33316247 working-precision words and  8356 shell-pairs
 PRISM was handed    33316247 working-precision words and  8356 shell-pairs
 PRISM was handed    33316247 working-precision words and  8356 shell-pairs
 PRISM was handed    33316247 working-precision words and  8356 shell-pairs
 IPart=  0 NShTot=         461 NBatch=          82 AvBLen=         5.6
 PRISM was handed    33316247 working-precision words and  8356 shell-pairs
 IPart=  2 NShTot=         450 NBatch=          73 AvBLen=         6.2
 PRISM was handed    33316247 working-precision words and  8356 shell-pairs
 PRISM was handed    33316247 working-precision words and  8356 shell-pairs
 PRISM was handed    33316247 working-precision words and  8356 shell-pairs
 PRISM was handed    33316247 working-precision words and  8356 shell-pairs
 PRISM was handed    33316247 working-precision words and  8356 shell-pairs
 IPart= 12 NShTot=         404 NBatch=          44 AvBLen=         9.2
 IPart= 19 NShTot=         388 NBatch=          34 AvBLen=        11.4
 PRISM was handed    33316247 working-precision words and  8356 shell-pairs
 PRISM was handed    33316247 working-precision words and  8356 shell-pairs
 PRISM was handed    33316247 working-precision words and  8356 shell-pairs
 PRISM was handed    33316247 working-precision words and  8356 shell-pairs
 IPart= 16 NShTot=         395 NBatch=          37 AvBLen=        10.7
 PRISM was handed    33316247 working-precision words and  8356 shell-pairs
 IPart=  5 NShTot=         436 NBatch=          62 AvBLen=         7.0
 IPart=  8 NShTot=         416 NBatch=          51 AvBLen=         8.2
 PRISM was handed    33316247 working-precision words and  8356 shell-pairs
 IPart=  3 NShTot=         447 NBatch=          70 AvBLen=         6.4
 IPart= 17 NShTot=         392 NBatch=          36 AvBLen=        10.9
 IPart=  1 NShTot=         459 NBatch=          80 AvBLen=         5.7
 IPart= 14 NShTot=         399 NBatch=          41 AvBLen=         9.7
 IPart= 15 NShTot=         396 NBatch=          38 AvBLen=        10.4
 IPart=  7 NShTot=         420 NBatch=          52 AvBLen=         8.1
 IPart= 11 NShTot=         409 NBatch=          48 AvBLen=         8.5
 IPart= 13 NShTot=         401 NBatch=          42 AvBLen=         9.5
 IPart= 18 NShTot=         388 NBatch=          34 AvBLen=        11.4
 IPart=  4 NShTot=         441 NBatch=          65 AvBLen=         6.8
 IPart=  9 NShTot=         413 NBatch=          50 AvBLen=         8.3
 IPart= 10 NShTot=         411 NBatch=          50 AvBLen=         8.2
 IPart=  6 NShTot=         430 NBatch=          60 AvBLen=         7.2
 PrSmSu:  NxtVal=             81.
 Entering OneElI...
 Calculate potential energy integrals
    NBasis = 395  MinDer = 2  MaxDer = 2
 Requested accuracy = 0.1000D-12
 PrmmSu-InSpLW:  IPartL=    0 NPrtUS=   20 NPrtUL=    1 DoSpLW=F IThBeg=    0 IThEnd=   19 NThAct=   20.
 PrsmSu:  NPrtUS=  20 ThrOK=T IAlg=1 NPAlg=1 LenDen=           0 ISkipM=0 DoSpLW=F IThBeg=    0 IThEnd=   19.
 Prism:   IPart=     0 DynPar=F LinDyn=F Incr=          63.
 PRISM was handed    33362140 working-precision words and  7472 shell-pairs
 PRISM was handed    33362140 working-precision words and  7472 shell-pairs
 PRISM was handed    33362140 working-precision words and  7472 shell-pairs
 PRISM was handed    33362140 working-precision words and  7472 shell-pairs
 PRISM was handed    33362140 working-precision words and  7472 shell-pairs
 PRISM was handed    33362140 working-precision words and  7472 shell-pairs
 PRISM was handed    33362140 working-precision words and  7472 shell-pairs
 PRISM was handed    33362140 working-precision words and  7472 shell-pairs
 PRISM was handed    33362140 working-precision words and  7472 shell-pairs
 PRISM was handed    33362140 working-precision words and  7472 shell-pairs
 PRISM was handed    33362140 working-precision words and  7472 shell-pairs
 PRISM was handed    33362140 working-precision words and  7472 shell-pairs
 PRISM was handed    33362140 working-precision words and  7472 shell-pairs
 PRISM was handed    33362140 working-precision words and  7472 shell-pairs
 PRISM was handed    33362140 working-precision words and  7472 shell-pairs
 PRISM was handed    33362140 working-precision words and  7472 shell-pairs
 PRISM was handed    33362140 working-precision words and  7472 shell-pairs
 PRISM was handed    33362140 working-precision words and  7472 shell-pairs
 PRISM was handed    33362140 working-precision words and  7472 shell-pairs
 PRISM was handed    33362140 working-precision words and  7472 shell-pairs
 IPart= 16 NShTot=        6069 NBatch=         357 AvBLen=        17.0
 IPart= 17 NShTot=        6001 NBatch=         353 AvBLen=        17.0
 IPart= 19 NShTot=        5933 NBatch=         349 AvBLen=        17.0
 IPart=  5 NShTot=        6545 NBatch=         385 AvBLen=        17.0
 IPart=  2 NShTot=        6834 NBatch=         402 AvBLen=        17.0
 IPart=  0 NShTot=        7004 NBatch=         412 AvBLen=        17.0
 IPart=  4 NShTot=        6630 NBatch=         390 AvBLen=        17.0
 IPart=  8 NShTot=        6307 NBatch=         371 AvBLen=        17.0
 IPart= 18 NShTot=        5984 NBatch=         352 AvBLen=        17.0
 IPart= 12 NShTot=        6154 NBatch=         362 AvBLen=        17.0
 IPart=  9 NShTot=        6273 NBatch=         369 AvBLen=        17.0
 IPart= 10 NShTot=        6239 NBatch=         367 AvBLen=        17.0
 IPart=  3 NShTot=        6698 NBatch=         394 AvBLen=        17.0
 IPart= 13 NShTot=        6120 NBatch=         360 AvBLen=        17.0
 IPart=  7 NShTot=        6358 NBatch=         374 AvBLen=        17.0
 IPart=  1 NShTot=        6953 NBatch=         409 AvBLen=        17.0
 IPart= 11 NShTot=        6188 NBatch=         364 AvBLen=        17.0
 IPart= 14 NShTot=        6103 NBatch=         359 AvBLen=        17.0
 IPart=  6 NShTot=        6545 NBatch=         385 AvBLen=        17.0
 IPart= 15 NShTot=        6086 NBatch=         358 AvBLen=        17.0
 PrSmSu:  NxtVal=           1261.
 Polarizability after L701:
                1             2             3 
      1  0.000000D+00
      2  0.000000D+00  0.000000D+00
      3  0.000000D+00  0.000000D+00  0.000000D+00
 Dipole Derivatives after L701:
                 1             2             3             4             5 
      1  -0.254561D+00  0.487544D-01 -0.211818D-01 -0.216616D+01  0.139856D-01
      2   0.900869D-01 -0.267623D+00  0.454386D-02 -0.358886D+00 -0.319531D+00
      3   0.395211D-01 -0.461858D-01 -0.826882D-01  0.517473D-01 -0.112483D+00
                 6             7             8             9            10 
      1  -0.701740D+00  0.275957D+00 -0.161106D+00  0.666715D+00 -0.182249D+01
      2  -0.196087D+00  0.137421D-01  0.223893D+00  0.181623D+00 -0.236531D+00
      3  -0.266661D+00  0.100989D+00  0.180590D+00 -0.492805D+00 -0.151468D-01
                11            12            13            14            15 
      1  -0.608566D+00 -0.440683D+00 -0.112278D+01  0.888902D+00  0.637720D-02
      2  -0.104584D+01 -0.816759D-01  0.150016D+00 -0.143495D+01 -0.403803D-01
      3   0.337355D-01 -0.892796D+00  0.336321D-01 -0.189922D+00 -0.977413D+00
                16            17            18            19            20 
      1  -0.675106D+00 -0.635855D-01 -0.289975D+00 -0.113617D+00  0.290878D+00
      2   0.154295D-01 -0.256068D+00  0.388356D+00 -0.698885D-01 -0.425122D+00
      3  -0.206655D+00  0.303747D+00 -0.315948D+00 -0.158857D+00  0.397850D+00
                21            22            23            24            25 
      1  -0.396835D+00  0.118695D+00  0.109595D+00 -0.349921D+00 -0.178401D-01
      2   0.409580D+00 -0.128671D-01  0.174099D+00 -0.960735D-01 -0.102701D+00
      3  -0.338703D+00  0.120521D-01 -0.129953D+00  0.521482D+00 -0.111465D+00
                26            27            28            29            30 
      1   0.379851D+00  0.621931D+00  0.431351D+00  0.670397D+00 -0.617810D+00
      2   0.367531D+00  0.455401D+00  0.203935D+00  0.519416D+00 -0.421962D+00
      3   0.275029D+00  0.566319D+00 -0.432649D-01 -0.155604D+00  0.271806D+00
                31            32            33            34            35 
      1   0.113194D+01 -0.694063D+00  0.268653D+00  0.749939D+00 -0.242795D+00
      2   0.194438D-01  0.132895D+00  0.765331D-02 -0.471780D+00  0.297682D+00
      3   0.173249D+00 -0.116154D+00  0.126581D+00  0.189366D+00 -0.521149D-01
                36            37            38            39            40 
      1   0.570203D+00 -0.265450D-01 -0.113325D+00  0.337571D-01  0.369177D+00
      2  -0.389867D+00  0.645661D+00  0.587825D+00 -0.130890D+00 -0.246960D+00
      3   0.277177D+00  0.289758D-01  0.776404D-02  0.950169D-01 -0.198513D+00
                41            42            43            44            45 
      1  -0.231781D+00 -0.656432D+00  0.905258D-01 -0.120218D+00  0.179196D+00
      2   0.287613D+00  0.542683D+00  0.219045D+00  0.557283D+00 -0.445867D+00
      3   0.132933D+00  0.590489D+00 -0.792359D-01 -0.300225D+00  0.333193D+00
                46            47            48            49            50 
      1   0.932678D+00 -0.482992D+00  0.704442D+00  0.209884D+01  0.316069D+00
      2  -0.227933D+00  0.248638D+00 -0.258909D+00  0.370189D+00  0.352256D+00
      3   0.257460D+00 -0.200797D+00  0.303336D+00 -0.738548D-01 -0.282091D-01
                51 
      1   0.423305D+00
      2   0.718717D-01
      3   0.281617D+00
 Hessian after L701:
                1             2             3             4             5 
      1  0.414293D+01
      2  0.388095D+01  0.161785D+02
      3 -0.530756D+00  0.105579D+01  0.146691D+02
      4  0.777305D+00  0.431025D+00  0.273312D-01  0.666118D+01
      5  0.476527D+00 -0.305773D+00 -0.242830D-01 -0.409382D+01  0.992701D+01
      6  0.998990D-02 -0.323973D-01 -0.467043D+00  0.109172D+01  0.343017D+01
      7 -0.196393D+01 -0.141438D+01 -0.327696D+01  0.256463D+00  0.100280D+00
      8 -0.142532D+01 -0.830543D+01  0.490436D+00  0.731154D-01 -0.104923D+00
      9 -0.311036D+01  0.432446D+00 -0.716265D+01 -0.561460D-01 -0.152403D-01
     10  0.349239D+00  0.352559D+00  0.179152D+00  0.719077D-01  0.412442D-01
     11  0.297085D+00 -0.140146D+00  0.716908D-01  0.317440D-01 -0.450971D-01
     12  0.739720D-01  0.283734D-01 -0.196860D+00 -0.131990D-01 -0.548014D-02
     13 -0.114925D+00 -0.273316D+00 -0.780743D-01  0.116888D+00 -0.508339D-01
     14 -0.198356D+00  0.309635D+00  0.159139D+00 -0.151292D-01 -0.882396D-01
     15 -0.815641D-01  0.209721D+00 -0.166837D+00 -0.381589D-01  0.735993D-02
     16 -0.407669D+01 -0.332570D+01  0.391177D+01  0.363670D+00 -0.228223D+00
     17 -0.338023D+01 -0.807505D+01 -0.226968D+01 -0.369610D+00 -0.396606D+00
     18  0.376657D+01 -0.215068D+01 -0.645378D+01  0.163222D+00  0.552519D+00
     19  0.329350D+00  0.289970D+00 -0.140501D+00 -0.745207D+01  0.283862D+01
     20  0.326999D+00 -0.101242D+00  0.317249D+00  0.297277D+01 -0.335503D+01
     21 -0.162265D+00  0.315123D+00 -0.113336D+00 -0.217766D+01 -0.407331D+01
     22 -0.291033D-01 -0.305100D-01  0.257503D+00  0.132188D-01  0.544882D-02
     23 -0.260345D-01  0.242318D+00 -0.156930D-01  0.115116D-01 -0.963360D-02
     24  0.259628D+00  0.193903D-02  0.226807D+00 -0.297331D-01 -0.920243D-02
     25  0.648184D-01  0.637410D-01 -0.318536D-01  0.957631D-02  0.766070D-02
     26  0.102770D+00 -0.298999D-01 -0.500932D-02  0.136916D-01 -0.212043D-03
     27  0.406972D-01  0.247694D-01 -0.894730D-01  0.122283D-01  0.782038D-02
     28  0.745232D-01  0.687195D-01 -0.470849D-01  0.956470D-02  0.783657D-02
     29  0.785976D-01 -0.137598D-02 -0.333866D-01  0.100822D-01  0.783340D-03
     30 -0.558999D-01 -0.355012D-01 -0.181393D-01 -0.675340D-02 -0.479911D-02
     31  0.154600D+00 -0.274979D-01 -0.141969D-02  0.154347D-01  0.360920D-02
     32 -0.384060D-01 -0.423706D-01 -0.325164D-03 -0.260961D-02 -0.527724D-02
     33  0.120186D-01 -0.648650D-03 -0.480495D-01  0.181963D-02  0.339391D-03
     34  0.703996D-01 -0.909582D-01  0.475866D-02  0.231566D-01 -0.669323D-02
     35 -0.808923D-01  0.194852D-01 -0.146786D-02 -0.900654D-02 -0.593417D-02
     36  0.231314D-01 -0.171894D-01 -0.426115D-01  0.693605D-02 -0.161818D-02
     37 -0.644774D-01 -0.943903D-02 -0.114260D-01  0.487361D-01 -0.227426D-01
     38 -0.905528D-01  0.362788D-01  0.603332D-01 -0.567903D-01 -0.119987D-01
     39 -0.245105D-01  0.321055D-01 -0.717078D-01 -0.145038D-01  0.329322D-02
     40  0.352973D-01 -0.712484D-01 -0.861433D-01  0.151016D-01 -0.588104D-02
     41 -0.777219D-01  0.764868D-02  0.742182D-01 -0.802159D-02 -0.608961D-02
     42 -0.921822D-01  0.750158D-01  0.406522D-01 -0.159395D-01  0.374193D-02
     43  0.545541D-01  0.196269D+00 -0.273454D+00  0.164801D-01  0.730534D-01
     44  0.198589D+00  0.250367D+00  0.143192D+00  0.756265D-01  0.528597D-01
     45 -0.241876D+00  0.871489D-01 -0.977820D-01 -0.545970D-01 -0.638806D-01
     46  0.125463D+00 -0.558772D-01  0.854791D-01  0.250076D+00 -0.563790D-01
     47 -0.640330D-01 -0.305901D-01 -0.239477D-01 -0.902634D-01 -0.264187D-01
     48  0.102329D+00 -0.273051D-01  0.481159D-02  0.923027D-01  0.183323D+00
     49  0.706391D-01  0.156944D-01  0.116753D-01 -0.119669D+01  0.910284D+00
     50  0.200302D-01 -0.123622D-01  0.175178D-02  0.102568D+01 -0.561942D+01
     51  0.110708D-01  0.129756D-02 -0.130831D-01  0.101113D+01  0.924260D-02
                6             7             8             9            10 
      6  0.120529D+02
      7 -0.785740D-01  0.148248D+02
      8 -0.133613D-01  0.101554D+01  0.194632D+02
      9 -0.120301D+00  0.204656D+01 -0.657416D+00  0.203769D+02
     10 -0.610598D-02 -0.315822D+01  0.192897D+01  0.115238D+01  0.119571D+02
     11 -0.507831D-03  0.190618D+01 -0.456719D+01  0.695160D+00 -0.150901D+01
     12 -0.523726D-01  0.116260D+01  0.710301D+00 -0.541066D+01 -0.663807D+00
     13 -0.480794D-01 -0.611984D+01 -0.998377D+00 -0.566183D-01 -0.858411D-01
     14 -0.160860D-02 -0.916165D+00 -0.221863D+01  0.361838D+00  0.356402D-01
     15 -0.851742D-01 -0.336180D-01  0.324620D+00 -0.619157D+01  0.157006D-01
     16 -0.105319D-01  0.282464D+00 -0.259943D+00 -0.867760D-03  0.238854D+00
     17  0.517965D+00 -0.251509D+00  0.210032D+00  0.561321D-01  0.221608D-01
     18 -0.672878D-01 -0.697009D-01  0.526830D-01  0.128765D+00  0.627813D-01
     19 -0.205634D+01  0.251553D+00 -0.172539D+00 -0.221415D-01  0.868196D-01
     20 -0.410040D+01 -0.134454D+00 -0.986229D-01  0.247817D-01  0.198199D-01
     21 -0.562447D+01 -0.504582D-01  0.854372D-02 -0.131502D+00  0.162844D-01
     22 -0.167969D-01 -0.463218D+01 -0.476088D-01  0.616513D-01  0.420016D-01
     23 -0.799441D-02 -0.922022D-01 -0.447052D+01 -0.747985D+00 -0.107475D+00
     24  0.543562D-02  0.225092D+00 -0.761829D+00 -0.191832D+01 -0.265317D+00
     25  0.198974D-02  0.673443D-01 -0.620879D-01 -0.782733D-01 -0.382654D+01
     26  0.138012D-02 -0.268578D-01  0.252902D-01 -0.618930D-01 -0.340836D+00
     27 -0.676686D-02 -0.312377D-01 -0.365705D-01  0.373908D-01 -0.538887D+00
     28 -0.411552D-02 -0.230950D-01 -0.923565D-01  0.712070D-02 -0.362888D+01
     29 -0.415501D-02 -0.715110D-01  0.182666D-01 -0.161230D-01  0.512706D+00
     30 -0.182116D-02 -0.615035D-02 -0.299321D-01  0.102505D+00 -0.481133D+00
     31 -0.175903D-02 -0.844574D-01 -0.136879D-01 -0.533698D-01 -0.206751D+01
     32  0.768723D-03 -0.636797D-01  0.120437D+00 -0.107517D-01 -0.103534D+01
     33 -0.555218D-02 -0.444262D-01  0.175280D-02  0.784632D-01  0.465613D+00
     34 -0.122131D-02  0.101935D+00  0.437846D-01 -0.461614D-02  0.965094D-02
     35  0.566910D-03  0.657325D-01 -0.375169D-01  0.727494D-01 -0.122648D-01
     36 -0.851405D-02  0.114472D-01  0.356488D-01  0.106262D+00  0.101601D-01
     37 -0.121687D-01  0.780232D-01 -0.238524D-01  0.111426D-01  0.168317D-01
     38  0.127183D-01 -0.975711D-01 -0.856537D-02  0.175237D-01  0.113924D+00
     39 -0.293104D-01  0.164153D-02 -0.607584D-02  0.660671D-01  0.117737D-01
     40 -0.122811D-01  0.390546D-01  0.824797D-01  0.383388D-01 -0.417464D-01
     41  0.408515D-02  0.923662D-01 -0.859904D-03 -0.820881D-01  0.819434D-02
     42  0.273174D-02  0.412220D-01 -0.599827D-01  0.789835D-01  0.177470D-02
     43 -0.445491D-01  0.124064D-01 -0.337176D-01  0.470728D-01  0.126027D-01
     44 -0.525833D-01 -0.975763D-01 -0.144632D-01 -0.636293D-01 -0.299293D-01
     45  0.444929D-02  0.820367D-01 -0.534594D-01 -0.300139D-01  0.296336D-01
     46  0.572586D-01  0.407435D-01 -0.160432D-01  0.126428D-01  0.131354D-01
     47  0.188731D+00 -0.192438D-01 -0.597004D-02 -0.668525D-02 -0.350771D-02
     48  0.305908D-02  0.176642D-01 -0.522847D-02 -0.612114D-02  0.844941D-02
     49  0.113157D+01  0.269607D-01  0.164616D-02  0.548458D-02  0.106012D-01
     50  0.566212D-01  0.505094D-02 -0.454039D-02  0.118117D-02  0.315332D-02
     51 -0.559991D+01  0.287212D-02 -0.128753D-03 -0.419998D-02  0.154656D-02
               11            12            13            14            15 
     11  0.136299D+02
     12 -0.442336D+00  0.147407D+02
     13  0.152049D+00  0.194986D-01  0.144081D+02
     14  0.196959D+00  0.429434D-01  0.102665D+01  0.121484D+02
     15  0.111229D+00 -0.105472D+00  0.135063D+00 -0.573304D+00  0.154361D+02
     16 -0.238760D-02  0.442957D-01  0.852632D-01 -0.329011D+00 -0.191243D-01
     17 -0.130888D+00  0.203549D-01 -0.345176D+00  0.121635D+00  0.761246D-02
     18  0.111256D-01 -0.134366D+00  0.584254D-02 -0.983950D-02 -0.224317D+00
     19 -0.184069D-02  0.519136D-02  0.143847D+00 -0.873880D-01  0.118775D-01
     20 -0.582977D-01  0.260689D-02 -0.101348D+00 -0.530049D-01 -0.293802D-02
     21  0.339676D-02 -0.560402D-01  0.141801D-01 -0.563534D-02 -0.863602D-01
     22 -0.109216D+00 -0.210824D+00  0.997802D-01  0.791673D-01 -0.210715D-01
     23  0.166770D+00 -0.139077D+00  0.101110D+00 -0.136048D+00  0.821891D-01
     24 -0.173775D+00 -0.688603D-01 -0.398890D-01  0.103766D+00  0.142902D+00
     25 -0.215475D+00 -0.345896D+00 -0.359473D-01  0.168773D-01  0.656682D-02
     26 -0.330301D+01  0.104717D+01  0.156714D-01  0.586976D-01  0.613915D-01
     27  0.986863D+00 -0.207181D+01  0.113859D-01  0.619288D-01  0.599798D-02
     28  0.588315D+00 -0.578719D+00 -0.209793D-01  0.745547D-01 -0.661412D-02
     29 -0.267910D+01 -0.108319D+01  0.676011D-01  0.127740D+00 -0.188925D-01
     30 -0.102221D+01 -0.291647D+01 -0.128974D-01 -0.293277D-01 -0.432599D-01
     31 -0.121040D+01  0.471339D+00  0.131678D-01  0.858984D-02  0.969275D-02
     32 -0.318870D+01 -0.279671D+00 -0.172497D-01 -0.146040D-01 -0.588017D-02
     33 -0.323921D+00 -0.368260D+01  0.550962D-02  0.316000D-02 -0.110757D-01
     34 -0.154580D-01  0.752673D-02 -0.267543D+01 -0.534882D+00  0.120189D+01
     35 -0.431480D-01  0.246135D-01 -0.632460D+00 -0.366019D+01 -0.653747D+00
     36  0.474482D-02  0.854065D-02  0.113892D+01 -0.531177D+00 -0.278089D+01
     37  0.106140D+00  0.116076D-01 -0.242877D+01  0.112061D+01 -0.322453D+00
     38  0.108389D+00  0.197176D-01  0.138990D+01 -0.320633D+01 -0.273739D+00
     39  0.164027D-01 -0.485940D-01 -0.310024D+00 -0.209207D+00 -0.399503D+01
     40  0.315084D-02  0.171816D-02 -0.341830D+01 -0.279989D+00 -0.863878D+00
     41  0.651811D-01  0.676158D-01 -0.299860D+00 -0.358326D+01  0.737393D+00
     42  0.825596D-01  0.127219D-01 -0.806790D+00  0.637035D+00 -0.187636D+01
     43 -0.174020D-01  0.143985D-01 -0.499940D-02 -0.491087D-02  0.454843D-02
     44 -0.495761D-02 -0.128990D-01 -0.230108D-01  0.616647D-02 -0.107676D-01
     45 -0.175672D-01 -0.950764D-02  0.120597D-01 -0.105867D-01 -0.874561D-02
     46 -0.396982D-02  0.328611D-02  0.119095D-01 -0.233934D-02  0.336901D-02
     47 -0.387027D-02 -0.389122D-03 -0.117505D-01 -0.486250D-02 -0.205179D-02
     48 -0.267438D-02 -0.498887D-02  0.800295D-02 -0.441524D-03 -0.486789D-02
     49  0.501912D-03 -0.298498D-02  0.260582D-01  0.608445D-02 -0.223003D-02
     50 -0.277398D-02 -0.647432D-03  0.408042D-03 -0.405460D-02 -0.195987D-03
     51 -0.176327D-03 -0.341116D-02  0.191297D-02  0.131655D-02 -0.509386D-02
               16            17            18            19            20 
     16  0.855617D+01
     17 -0.160704D+00  0.216121D+02
     18 -0.394484D+01  0.498281D+01  0.219849D+02
     19 -0.106043D+01  0.354419D+01  0.809960D+00  0.110921D+02
     20  0.316009D+01 -0.106549D+02 -0.194299D+01 -0.491480D+01  0.180094D+02
     21  0.101494D+01 -0.188465D+01 -0.119660D+02  0.253346D-01  0.644584D+01
     22  0.353385D-01  0.736270D-01  0.342337D-01  0.329785D-01  0.963202D-02
     23  0.707127D-01 -0.867400D-01 -0.410867D-01  0.172326D-01 -0.188328D-01
     24 -0.264130D-01 -0.443555D-01 -0.622672D-01 -0.201991D-01 -0.557205D-02
     25  0.161400D-01  0.117442D-01  0.211280D-01  0.892638D-02  0.406450D-02
     26  0.221288D-01 -0.137170D-01  0.136813D-01  0.131207D-01 -0.431366D-02
     27  0.408950D-01  0.139781D-01  0.167621D-02  0.219110D-01  0.655089D-02
     28  0.357815D-01  0.984327D-02 -0.315389D-02  0.192533D-01  0.761201D-02
     29  0.196354D-01 -0.103182D-01 -0.240995D-02  0.146662D-01 -0.190465D-02
     30 -0.153958D-01 -0.428149D-02 -0.122267D-01 -0.100750D-01 -0.340608D-02
     31  0.286336D-01 -0.824123D-02  0.660615D-02  0.229568D-01  0.683022D-03
     32 -0.115046D-01 -0.785385D-02 -0.405616D-03 -0.721274D-02 -0.470309D-02
     33  0.784344D-02 -0.904547D-03 -0.963604D-02  0.563387D-02  0.346337D-03
     34  0.136890D-01 -0.153584D-01  0.572820D-02  0.175660D-01 -0.839410D-02
     35 -0.117583D-01 -0.185982D-02 -0.234496D-02 -0.109919D-01 -0.250077D-02
     36  0.945330D-02 -0.581172D-02 -0.668826D-02  0.100726D-01 -0.241909D-02
     37 -0.165138D-01  0.196879D-01 -0.525347D-02 -0.117576D-01 -0.298724D-02
     38 -0.228855D-02  0.213647D-01  0.965142D-02 -0.281076D-01  0.662667D-02
     39 -0.259044D-02  0.149296D-02 -0.643276D-02  0.158394D-02  0.367811D-04
     40  0.735142D-02 -0.145295D-01 -0.638850D-02  0.926577D-02 -0.636791D-02
     41 -0.131622D-01  0.324485D-04  0.340575D-02 -0.957105D-02 -0.346783D-02
     42 -0.133717D-01  0.110121D-01 -0.175200D-02 -0.146176D-01  0.517066D-02
     43 -0.430910D+01  0.543321D+00 -0.520973D+00 -0.891053D-01 -0.385457D+00
     44  0.737438D+00 -0.295138D+01 -0.147652D+01 -0.468625D+00 -0.111600D-01
     45 -0.657918D+00 -0.140440D+01 -0.333746D+01  0.189329D+00  0.130598D+00
     46 -0.466587D+00  0.132275D+00 -0.284891D+00 -0.318047D+01 -0.872569D+00
     47  0.162828D+00  0.350530D+00  0.194624D-01 -0.843484D+00 -0.370425D+01
     48 -0.308963D+00  0.170958D-01  0.244444D+00  0.110465D+01 -0.883142D+00
     49  0.265956D+00  0.188508D+00 -0.408740D-01 -0.220835D+00 -0.752977D-01
     50  0.171849D+00  0.136360D-01 -0.190542D-01 -0.173244D+00  0.562596D-01
     51 -0.291880D-01 -0.143718D-01 -0.775501D-01  0.783270D-01  0.769113D-02
               21            22            23            24            25 
     21  0.209815D+02
     22  0.717457D-02  0.443542D+01
     23 -0.411661D-02  0.868560D-01  0.437005D+01
     24 -0.198990D-01 -0.194745D+00  0.939159D+00  0.152966D+01
     25  0.724028D-02 -0.181547D-01  0.150085D-01  0.494086D-01  0.367546D+01
     26  0.534844D-02  0.175316D-01 -0.166498D-01  0.564528D-01  0.572643D-01
     27  0.291017D-03  0.397721D-01  0.360798D-01  0.936167D-01  0.172291D+00
     28 -0.623630D-03 -0.341467D-01 -0.549634D-01 -0.390600D-01  0.692949D-01
     29 -0.682458D-03 -0.528608D-01 -0.453673D-02 -0.276757D-01 -0.119520D-01
     30 -0.549657D-02 -0.345302D-01 -0.263944D-01  0.158204D-01  0.941144D-01
     31  0.359095D-02  0.405410D-01 -0.994907D-02  0.673512D-01 -0.295644D-01
     32 -0.805561D-03 -0.564069D-02 -0.213276D-01 -0.883479D-02  0.120207D+00
     33 -0.442628D-02  0.471539D-01 -0.709377D-02  0.249637D-01  0.936935D-01
     34  0.471287D-02 -0.462924D-02 -0.449485D-01  0.480214D-01 -0.658553D-02
     35 -0.143249D-02 -0.361571D-01  0.338131D-01 -0.685470D-01 -0.155771D-02
     36 -0.378200D-02  0.314824D-01 -0.567928D-01  0.320204D-01  0.785065D-03
     37 -0.211699D-02 -0.578273D-02  0.835229D-02 -0.938121D-02 -0.399048D-03
     38  0.443181D-03  0.545878D-02  0.197558D-01 -0.217815D-01 -0.226582D-02
     39 -0.132917D-01 -0.237958D-02 -0.120588D-01  0.150061D-02 -0.647088D-03
     40 -0.459670D-02  0.138961D-01  0.402806D-01  0.798964D-03 -0.104601D-02
     41  0.309314D-02  0.388646D-01 -0.600556D-01  0.278144D-03 -0.383594D-03
     42 -0.224194D-02 -0.396868D-03  0.190412D-03  0.286914D-01 -0.985667D-03
     43  0.145269D+00  0.985588D-02 -0.208419D-01 -0.142431D-01  0.378892D-02
     44  0.115143D+00 -0.346011D-01 -0.675432D-02  0.192422D-01 -0.301249D-02
     45  0.292857D+00  0.700393D-03 -0.113540D-03 -0.273432D-01  0.878847D-02
     46  0.116391D+01 -0.289230D-02  0.216918D-02 -0.395176D-02  0.143658D-02
     47 -0.898820D+00 -0.912497D-03 -0.148013D-02  0.230502D-02 -0.304553D-03
     48 -0.334027D+01  0.135965D-02  0.606379D-03 -0.339791D-02  0.129827D-02
     49 -0.492662D-02  0.386224D-02  0.318070D-02 -0.736765D-02  0.144584D-02
     50 -0.274790D-01  0.920547D-03 -0.134224D-03 -0.156877D-02  0.471705D-03
     51  0.925207D-01 -0.287426D-03  0.181698D-03 -0.132732D-02  0.351481D-03
               26            27            28            29            30 
     26  0.317255D+01
     27 -0.108742D+01  0.216031D+01
     28 -0.177009D-01  0.125528D+00  0.338717D+01
     29  0.124212D+00  0.487986D-01 -0.679226D+00  0.252447D+01
     30  0.506033D-01 -0.202769D+00  0.609113D+00  0.968241D+00  0.307602D+01
     31  0.144581D+00  0.921819D-01  0.105610D+00  0.108377D+00 -0.758736D-01
     32 -0.358523D-01 -0.768347D-01  0.880909D-01 -0.110868D+00  0.147377D+00
     33 -0.937295D-01  0.623643D-01 -0.709632D-01  0.169193D+00  0.165676D-01
     34 -0.963678D-02 -0.602000D-02 -0.547255D-02 -0.442521D-02  0.273900D-02
     35  0.277685D-01  0.135107D-01  0.413979D-02  0.166691D-01 -0.725062D-02
     36  0.219766D-02 -0.845038D-02 -0.224903D-02 -0.109286D-01  0.689511D-03
     37  0.334764D-02  0.414051D-02  0.808410D-03  0.130199D-02 -0.257335D-02
     38  0.142485D-03  0.364760D-02 -0.172776D-02 -0.222199D-02 -0.293407D-02
     39 -0.100530D-02 -0.899522D-03 -0.211401D-03 -0.119280D-02  0.500210D-03
[...]
   zy         0.779594D+01      0.115524D+01      0.128538D+01
   zz         0.645043D+02      0.955856D+01      0.106353D+02

 ----------------------------------------------------------------------

 Test job not archived.
 1\1\GINC-C0179\Freq\RM062X\CC-pVTZ\C5H10O2\HARMS.N\26-Sep-2019\0\\#P G
 eom=AllCheck Guess=TCheck SCRF=Check Test GenChk RM062X/CC-pVTZ Freq\\
 Gaussian input prepared by ASE\\0,1\O,3.6077222823,-2.5334521014,0.441
 063305\O,1.8496035091,-1.4497676204,-1.4364946559\C,3.9617954517,-3.67
 1191354,1.2253244214\C,5.4114298834,-3.9724799189,0.9127478329\C,3.043
 9693128,-4.8392531387,0.909603465\C,2.4348406335,-1.9442031782,0.79219
 70343\C,1.6101825656,-1.4041582006,-0.0936552785\H,3.8607159942,-3.401
 2897705,2.2845722217\H,5.5156977447,-4.208741904,-0.1462933684\H,6.037
 1688923,-3.1107260519,1.1375609741\H,5.7578545495,-4.8244378438,1.4967
 026212\H,3.1366377762,-5.1016456724,-0.1447081404\H,2.0042520932,-4.58
 0630194,1.1086504631\H,3.3072838163,-5.7074830553,1.513583296\H,2.2053
 289649,-1.8888430889,1.8510791927\H,0.7234415537,-0.886820747,0.246276
 6736\H,1.1448440272,-0.9965304968,-1.9002320496\\Version=EM64L-G16RevA
 .03\State=1-A\HF=-346.9414281\RMSD=2.366e-09\RMSF=3.102e-07\ZeroPoint=
 0.1467831\Thermal=0.1556428\Dipole=-0.6535271,-0.0088821,0.3503134\Dip
 oleDeriv=-1.2146641,0.7680461,-0.3470362,0.5805495,-0.9719951,0.280902
 7,0.0285081,0.1006623,-0.4458367,-0.237692,-0.0745077,0.1391487,-0.030
 2363,-0.3241178,0.0042749,-0.402054,0.4052936,-1.3922817,0.580302,-0.1
 618285,0.1207985,-0.2707197,0.8597773,-0.1868148,0.2589981,-0.27956,0.
 5017773,-0.0874555,0.0393636,0.0137139,0.0134537,0.0222245,0.0023277,0
 .0228627,-0.0054015,0.0703845,-0.0751771,-0.1158623,-0.001424,-0.00919
 05,-0.1129682,-0.0000625,-0.0612312,-0.0099442,0.0450031,0.8279393,-0.
 7301399,0.1448479,-0.4499936,0.1736037,-0.0281558,-0.2377479,0.2327202
 ,-0.0110206,-0.0686322,0.0061207,-0.1376797,-0.0480449,-0.1243461,0.00
 38546,0.281265,-0.3566291,1.1906489,-0.0220221,0.0060755,0.045099,0.03
 04877,-0.0628641,-0.0879733,-0.0185646,-0.0129373,-0.1774321,0.039502,
 -0.0012359,-0.0274106,0.0041815,0.0609597,-0.0343703,0.044026,-0.05062
 92,-0.090706,-0.0261241,-0.0620075,-0.0085704,-0.1079941,-0.0379149,-0
 .0366094,-0.0102054,-0.0378382,0.0611624,0.0224535,0.0364586,-0.010171
 ,0.0716597,-0.0571741,0.0820807,-0.0339322,0.0866448,0.0099262,0.04716
 3,0.002815,0.0357479,-0.0189431,0.0471951,-0.0080126,0.0074515,-0.0665
 82,-0.0876492,-0.1180523,0.0126461,0.0175993,0.032507,0.06058,-0.03030
 02,0.0278283,-0.0285933,0.0556615,0.0641899,0.0493988,-0.0432994,0.040
 4022,-0.0779436,0.0750132,-0.03149,0.092401,0.005324,0.0075382,0.09072
 66,-0.016689,0.0159179,0.1373755,0.0004312,0.057577,-0.0358155,-0.0706
 255,0.0042225,0.0928616,0.0466064,0.1037197,0.0887844,-0.0170264,0.022
 6102,0.0045224,-0.0189677,0.256509,0.0410692,0.0287188,0.0422434,0.318
 8237,-0.0195599,0.0440984,-0.0383142,0.3546315\Polar=73.155163,-13.270
 7052,68.0050254,8.7088356,-8.0615849,67.7349862\Quadrupole=1.4947081,-
 0.736352,-0.7583561,-4.8324783,2.8274473,-1.8176119\PG=C01 [X(C5H10O2)
 ]\NImag=0\\0.39254374,-0.19003750,0.32619909,-0.06060272,-0.09940690,0
 .24653972,0.00625403,-0.00718990,0.00049198,0.39060918,-0.00614805,-0.
 00474892,-0.00106299,-0.23332197,0.16273488,-0.01678923,0.00805768,0.0
 0645267,0.12985268,-0.11563651,0.54429264,-0.07787160,0.01095204,0.006
 69183,-0.00033924,0.00012696,0.00339152,0.53302798,0.02918474,-0.14709
 635,0.06286893,0.00010088,-0.00018153,-0.00466294,-0.00543668,0.476978
 51,-0.01067190,0.07514684,-0.13010468,-0.00188297,-0.00024002,0.005115
 09,-0.02952183,0.04765432,0.58754095,-0.01636228,0.01208767,-0.0012691
 1,-0.00002127,0.00002474,0.00018582,-0.19975729,0.02242183,0.02912192,
 0.50529903,0.03990548,-0.01914948,-0.00177078,-0.00014294,-0.00001415,
 0.00065424,0.01305829,-0.07862249,-0.00701800,0.01940010,0.59208087,-0
 .02596450,0.01321918,0.00402896,0.00027385,-0.00014004,-0.00037787,0.0
 4003666,-0.01229976,-0.09033213,0.02288237,-0.00794378,0.57810857,0.00
 625302,0.01074704,0.00094593,0.00011849,0.00026828,0.00018294,-0.13019
 630,-0.05832768,-0.01760519,-0.02700311,-0.02811807,-0.00779747,0.5524
 2722,-0.01106469,-0.04357582,0.00589475,-0.00017965,0.00000258,0.00094
 980,-0.05340666,-0.13924010,-0.02718316,-0.00115586,0.00739790,0.00079
 765,-0.04877407,0.52458284,0.00838913,0.02869774,0.00286946,0.00038205
 ,-0.00025125,-0.00106142,-0.02209570,-0.03352070,-0.09021834,0.0050788
 7,0.00488319,0.00238042,-0.01187854,-0.02177157,0.57830266,-0.24958845
 ,0.11213530,0.05652061,0.01148742,-0.00275532,0.01847263,-0.02842426,0
 .02531444,-0.00977068,-0.00020160,0.00156317,-0.00007050,0.00452084,-0
 .00456059,0.00369511,0.59616869,0.09003881,-0.10457663,-0.00185355,0.0
 0219026,0.01303274,-0.00339765,0.03595788,-0.02827878,-0.00508752,0.00
 020241,-0.00281807,0.00153990,0.00015864,-0.00126009,0.00018637,-0.287
 30224,0.30972322,0.07652772,-0.01765781,-0.11283271,-0.02720991,0.0212
 7313,-0.06123180,-0.02123103,0.00401013,0.00586685,-0.00110489,0.00464
 185,-0.00358233,-0.00016357,0.00132892,-0.00088698,0.09924267,-0.12858
 512,0.79199389,-0.04938415,0.03572442,-0.02164182,-0.09764363,0.035038
 40,0.06274806,0.00041005,-0.00609070,0.00798356,0.00005389,0.00143618,
 -0.00125678,-0.00066962,0.00065018,-0.00086138,-0.26223441,0.13674360,
 -0.18350039,0.64563106,0.02805904,-0.00497577,0.01148666,0.03680135,-0
 .05369322,-0.01525040,0.00109184,0.00132447,-0.00204065,-0.00002572,-0
 .00072150,0.00064746,-0.00019669,0.00010429,0.00048213,0.14201354,-0.1
 4889898,0.12661117,-0.32439285,0.31409509,0.02231710,-0.01439528,0.013
 78524,0.02157704,0.00953355,-0.32762700,0.00051403,0.00320475,-0.00624
 908,0.00021893,-0.00149627,0.00165578,-0.00059910,-0.00117165,0.001561
 68,-0.20829771,0.13953347,-0.30409686,0.10080819,-0.10475792,0.7490127
 0,-0.00026110,0.00354562,-0.00961180,-0.00006769,-0.00008195,0.0001106
 0,-0.05450071,0.00566114,0.02423589,-0.00459078,0.00882085,0.03189512,
 0.00160979,-0.00803040,-0.02038462,0.00210317,-0.00093902,-0.00387585,
 -0.00016341,0.00008408,0.00014338,0.06008825,0.00478273,-0.00566442,0.
 03687860,0.00018155,0.00015021,0.00017918,0.00696838,-0.06807757,-0.06
 953613,0.00015286,-0.00099085,-0.00674703,0.00152861,-0.00689643,-0.02
 608131,-0.00472950,0.00289464,0.00385961,0.00028954,-0.00033180,-0.000
 27283,-0.00780931,0.08011722,-0.00446821,0.01247558,-0.02688130,0.0002
 1887,0.00005071,0.00001759,0.02207412,-0.06521207,-0.26951866,0.001618
 14,-0.00258475,-0.00475800,0.00091704,-0.00383278,-0.00610730,0.004990
 53,-0.00270492,-0.00002141,-0.00107817,0.00041895,0.00055684,-0.022954
 59,0.06206990,0.30297877,0.00240130,-0.00186647,-0.00071772,-0.0000187
 9,-0.00002165,-0.00011393,-0.00509467,0.00751522,0.03545895,-0.0486706
 0,0.00400751,0.02033723,0.00205321,0.00086995,0.00093863,-0.00030752,0
 .00014057,0.00020010,0.00014555,-0.00003437,-0.00008479,-0.00601474,0.
 00148653,0.00073774,0.05389843,-0.00074530,0.00066442,-0.00021640,-0.0
 0005090,-0.00001272,0.00006900,0.00154536,-0.00286878,-0.00742781,0.00
 390145,-0.05975269,-0.05654475,-0.00042309,-0.00003116,0.00098769,0.00
 022672,-0.00027253,-0.00002187,-0.00007007,0.00003563,-0.00004465,0.00
 135314,0.00043855,0.00000398,-0.00544975,0.05969282,-0.00010993,-0.000
 31471,0.00120113,-0.00002646,0.00000302,0.00020102,0.00114558,-0.00161
 806,-0.00974163,0.02284614,-0.05712144,-0.30226448,-0.00068315,0.00017
 700,0.00075777,-0.00026209,0.00011598,0.00047806,0.00008636,-0.0000417
 4,-0.00019642,0.00147280,-0.00007868,0.00123011,-0.02674112,0.06303884
 ,0.32755045,0.00329769,-0.00035610,0.00024826,0.00000443,0.00004885,0.
 00012366,-0.01929021,-0.02810264,-0.00788472,-0.13426518,-0.12146720,-
 0.03257144,-0.00590952,0.00338221,0.00188618,-0.00012914,0.00040168,0.
 00024895,0.00024039,-0.00010569,-0.00011181,0.00138328,0.00015048,0.00
 018410,0.00152758,0.00338282,0.00037550,0.14738965,-0.00039441,0.00117
 943,-0.00028170,0.00001709,0.00000667,-0.00015620,0.00551352,0.0050638
 7,0.00231674,-0.12495433,-0.22109950,-0.04664334,0.00104745,0.00023383
 ,0.00030564,0.00018258,0.00016553,-0.00014904,-0.00005916,0.00007669,0
 .00017507,-0.00065470,0.00046913,0.00038630,-0.00264752,-0.00493421,-0
 .00055896,0.13515761,0.23630068,-0.00059317,-0.00002699,-0.00022043,0.
 00001920,0.00003483,0.00001106,0.00478382,0.00746918,0.00044230,-0.032
 98321,-0.04700308,-0.06024184,0.00133807,-0.00056841,0.00010202,-0.000
 14332,0.00012041,-0.00003795,0.00002321,-0.00002896,-0.00002020,-0.000
 41857,0.00067085,0.00022388,-0.01837016,-0.02533273,-0.00515022,0.0341
 6607,0.05101224,0.06030518,-0.00820703,0.00354463,0.00191009,0.0001107
 1,0.00000490,-0.00041019,-0.00428206,0.02257538,-0.01967139,-0.0750064
 2,0.06480962,-0.04427982,0.00109509,0.00007261,-0.00036615,0.00037562,
 0.00065023,-0.00170470,-0.00061038,0.00031954,0.00074910,0.00107789,-0
 .00014070,0.00061363,-0.00001753,-0.00340008,0.00154337,0.00664869,-0.
 01379802,0.01154047,0.07946196,0.00267124,-0.00013545,-0.00096708,-0.0
 0001155,0.00003796,0.00025330,-0.00097575,-0.00624468,0.00351797,0.067
 46902,-0.21268823,0.11449970,-0.00056705,-0.00012457,0.00018200,-0.000
 49970,0.00063448,0.00077994,0.00030072,-0.00017039,-0.00033922,0.00007
 730,0.00001736,-0.00038798,-0.00343875,0.00670228,-0.00424090,0.009103
 56,-0.01796017,0.01356081,-0.07399363,0.22942872,0.00184929,-0.0008285
 1,0.00075607,-0.00004473,0.00002496,0.00000035,0.00188625,-0.00641958,
 0.00253011,-0.04620778,0.11513620,-0.12582886,-0.00003001,0.00014158,-
 0.00007923,0.00040987,-0.00027394,0.00078519,0.00011119,-0.00008465,-0
 .00014576,-0.00074664,-0.00004251,0.00013858,-0.01017235,0.02518895,-0
 .01464529,0.00359563,-0.00630116,0.00358301,0.04955587,-0.12633684,0.1
 3258482,0.00050149,0.00179334,0.00099992,0.00003091,-0.00010319,-0.000
 46658,0.00066571,-0.00502561,-0.02215818,0.00142818,0.00022903,-0.0013
 1912,-0.04977326,0.00643730,0.02566211,-0.00006522,0.00001304,0.000056
 26,-0.00004078,0.00007474,0.00040490,-0.00202040,-0.00357109,-0.000680
 17,-0.00031946,-0.00016420,0.00051927,0.00014958,0.00017604,0.00030974
 ,-0.00006130,0.00005515,-0.00005009,0.05148085,0.00071177,0.00295449,0
 .00099052,-0.00004638,0.00013678,0.00025183,0.00124497,-0.00846875,-0.
 02826041,0.00158700,0.00060661,0.00009296,0.00669272,-0.06067431,-0.05
 956207,0.00058362,-0.00029647,-0.00015051,-0.00007407,-0.00006817,-0.0
 0032721,-0.00350700,-0.00368492,-0.00078118,-0.00047534,0.00041340,0.0
 0052984,0.00022964,-0.00000326,0.00024150,-0.00004627,0.00001368,0.000
 14109,-0.00367605,0.06408405,0.00086958,-0.00011647,0.00202242,-0.0000
 0602,0.00003915,0.00026250,0.00028302,-0.00171301,-0.00990895,0.000458
 27,0.00056084,0.00071455,0.02410823,-0.06125542,-0.29897862,-0.0002845
 5,-0.00021793,-0.00010521,0.00000005,-0.00012349,-0.00033481,-0.001025
 18,-0.00100253,0.00120078,-0.00072099,0.00004495,0.00028614,0.00001083
 ,0.00010507,0.00037104,-0.00001552,-0.00013459,-0.00003271,-0.02566478
 ,0.06897465,0.32380488,0.00130852,0.00055237,-0.00019134,-0.00005774,-
 0.00013336,-0.00050420,-0.01990372,0.00658535,0.00417837,-0.00107856,-
 0.00438901,-0.00171777,-0.29124025,0.06216871,0.04846871,-0.00011745,0
 .00071520,0.00005175,0.00050934,0.00008910,0.00058818,0.00073066,-0.00
 002266,-0.00023693,0.00025810,0.00003204,-0.00006122,-0.00124994,0.000
 28852,0.00036782,0.00031686,0.00007333,-0.00002968,-0.00144245,0.00025
 568,0.00014292,0.31764416,0.00161259,0.00230572,-0.00048204,-0.0000158
 5,0.00012533,-0.00064299,-0.02670697,0.00732681,0.00624967,-0.00223113
 ,-0.00456100,-0.00114094,0.06462182,-0.06317854,-0.01299657,-0.0005121
 9,-0.00098863,0.00030268,0.00042889,-0.00047630,0.00060950,0.00104663,
 0.00098720,0.00019292,0.00008137,-0.00012575,0.00004245,-0.00167021,0.
 00034476,0.00024371,-0.00004242,0.00013657,-0.00024250,0.00650966,-0.0
 0278188,-0.00058585,-0.06717671,0.06706755,0.00041024,0.00056586,-0.00
 037470,-0.00000810,0.00002314,-0.00010134,-0.00818876,0.00303319,0.000
 27530,-0.00054106,-0.00120975,0.00014934,0.04845759,-0.01300662,-0.057
 45688,0.00036862,-0.00020901,0.00058184,-0.00019566,-0.00006762,-0.000
 30948,-0.00001213,0.00076026,0.00020400,-0.00042268,-0.00003551,0.0003
 6367,-0.00040246,-0.00007078,0.00066221,0.00028724,-0.00025350,0.00000
 243,0.03031266,-0.00764207,-0.00442144,-0.05206808,0.01499551,0.057340
 58,-0.00109193,-0.00625391,-0.00002312,-0.00011495,-0.00006742,0.00011
 006,0.00529863,-0.01261224,0.01281303,0.00036186,0.00043074,0.00021244
 ,-0.06304495,0.05322461,-0.03824491,-0.00137327,0.00083184,0.00006046,
 0.00069970,-0.00006903,0.00015549,0.00062279,0.00069344,-0.00029248,-0
 .00004277,-0.00003363,0.00007511,0.00024089,0.00016915,-0.00008462,-0.
 00066777,-0.00032429,-0.00007660,-0.00047635,-0.00329172,0.00190686,-0
 .00574164,0.02408172,-0.01803081,0.06525179,-0.00219027,-0.00729588,-0
 .00072703,-0.00009663,-0.00003135,0.00061065,0.01016336,-0.01585879,0.
 01549035,0.00098384,0.00059272,0.00035501,0.05143149,-0.21714070,0.118
 52346,-0.00248816,0.00114963,0.00065495,0.00049567,-0.00002078,-0.0005
 6807,0.00032978,0.00055737,-0.00085033,-0.00007440,-0.00002200,-0.0000
 9629,0.00003432,0.00019069,-0.00036915,-0.00060553,0.00045610,-0.00015
 102,-0.00267178,0.00760719,-0.00465299,0.00116967,-0.00574445,0.003233
 97,-0.05668698,0.23559476,-0.00071002,-0.00201274,0.00175919,-0.000023
 47,0.00009821,0.00009450,0.00264319,-0.00581751,0.00266186,-0.00005770
 ,0.00015039,-0.00008375,-0.03743923,0.11976803,-0.13104244,-0.00013378
 ,-0.00023530,0.00010590,0.00003731,-0.00002893,-0.00021865,0.00058098,
 0.00054811,0.00006510,-0.00006217,0.00012429,0.00001002,0.00017950,-0.
 00015657,0.00001374,0.00018545,-0.00007649,0.00032687,-0.00789636,0.02
 533729,-0.01489118,0.00112556,-0.00634983,0.00320238,0.04157707,-0.131
 35799,0.13791576,-0.01526932,0.00992750,0.03063394,-0.00068541,0.00558
 736,-0.00242583,0.00149963,-0.00383186,0.00501299,-0.00014180,0.000119
 04,-0.00040160,-0.00002384,0.00042965,-0.00067291,-0.05836185,0.012667
 93,0.04902865,0.00683242,-0.00346247,-0.01756258,0.00003130,-0.0000069
 9,-0.00151853,0.00017736,-0.00009907,-0.00018128,-0.00000825,-0.000029
 63,0.00005672,-0.00010947,0.00007400,-0.00008626,-0.00011372,-0.000177
 80,-0.00004873,-0.00002735,-0.00005927,0.00000979,0.00005257,0.0002124
 5,0.00000587,0.06666248,0.00865867,-0.00177813,-0.01302615,0.00580476,
 0.00440799,0.00007871,-0.00012395,0.00220396,-0.00421929,0.00010369,-0
 .00014274,0.00021652,0.00015119,-0.00018240,0.00011158,0.01330045,-0.0
 3723202,-0.00797157,-0.00627726,0.00311790,0.01225375,-0.00002326,0.00
 029805,0.00066117,-0.00006899,0.00002975,0.00016264,-0.00010246,-0.000
 01275,-0.00001265,0.00004715,-0.00003352,0.00005875,-0.00008643,0.0001
 3886,0.00007760,-0.00024090,-0.00034037,-0.00016308,-0.00010971,-0.000
 03617,0.00003228,-0.01991910,0.03165578,0.00890028,-0.00503284,-0.0065
 0713,-0.00285474,0.00268975,0.00092594,-0.00123779,0.00300996,0.001664
 49,-0.00017152,-0.00016329,0.00065345,0.00029862,-0.00015884,-0.000168
 43,0.04852664,-0.00598682,-0.32317588,0.00765791,-0.00408179,-0.015611
 34,0.00060079,-0.00122631,0.00062249,-0.00026382,0.00015470,-0.0000778
 0,-0.00005719,0.00001103,-0.00003186,0.00015478,-0.00007189,-0.0000132
 5,-0.00004944,0.00009554,0.00001006,-0.00018673,-0.00024961,-0.0001021
 0,-0.00017185,-0.00007369,0.00004732,-0.06072419,0.01099378,0.34242792
 ,0.00413666,0.00554560,-0.00361960,0.00156153,0.00072548,0.00318963,-0
 .00108006,-0.00014925,0.00078867,-0.00004322,0.00038026,-0.00027473,-0
 .00019331,0.00000524,-0.00005408,-0.01254809,0.00698176,0.00998310,-0.
 24768619,0.12629386,0.06698759,0.00003049,-0.00002074,-0.00011950,0.00
 001764,-0.00000854,0.00001074,-0.00001012,-0.00002017,-0.00000412,-0.0
 0014787,0.00000576,0.00002970,0.00002046,-0.00000947,0.00000540,0.0000
 6468,-0.00002869,0.00000962,0.00003686,0.00003502,-0.00000831,-0.00126
 373,-0.00197606,-0.00093327,0.25575034,0.00593437,0.00558972,0.0016874
 4,-0.00149000,0.00337099,0.00034825,-0.00002891,0.00201768,0.00038612,
 0.00003182,-0.00014264,0.00010771,-0.00023875,-0.00005211,-0.00012632,
 0.00716074,-0.00346989,-0.00726635,0.12856219,-0.10581384,-0.03664539,
 0.00014226,-0.00026958,0.00008165,-0.00002532,0.00003353,-0.00000435,-
 0.00007230,-0.00000383,-0.00000603,0.00001542,-0.00008258,-0.00001431,
 -0.00001920,0.00002075,-0.00000045,0.00006879,-0.00008762,0.00000118,0
 .00004451,-0.00001312,-0.00000900,-0.00226716,-0.00354075,0.00000918,-
 0.13720037,0.10138926,-0.00173041,0.00313737,-0.00337520,0.02751079,-0
 .01519740,-0.02144503,-0.00077726,-0.00074703,0.00060844,-0.00006754,0
 .00036432,-0.00031862,-0.00003581,0.00001690,-0.00007923,-0.01636377,0
 .00868078,0.01160472,0.06573071,-0.03670777,-0.08129010,-0.00002715,0.
 00009602,-0.00010680,0.00001972,-0.00000498,0.00001534,0.00002276,-0.0
 0001409,-0.00000210,-0.00014607,0.00005398,0.00003246,0.00000821,0.000
 02340,0.00001657,0.00003587,0.00000038,0.00002022,0.00001564,0.0000517
 2,0.00001472,-0.00026439,-0.00008760,0.00009298,-0.07642674,0.04194829
 ,0.09185884,0.00133940,-0.00085167,-0.00076535,-0.31122799,0.20080795,
 -0.19765765,-0.00016187,0.00021767,-0.00042653,-0.00000086,-0.00004305
 ,0.00001607,-0.00002351,-0.00006854,0.00005752,-0.00130447,0.00054742,
 0.00339067,0.00391018,-0.00654026,0.01219205,-0.00005878,0.00006688,-0
 .00000558,0.00000691,0.00000310,-0.00000962,-0.00001980,0.00000598,-0.
 00000797,0.00002300,-0.00001936,0.00000633,0.00003578,-0.00000131,-0.0
 0001940,0.00002678,0.00006076,0.00001399,-0.00001145,-0.00004184,-0.00
 000389,0.00074898,0.00086219,0.00051152,0.00135395,-0.00061808,0.00249
 544,0.30536376,-0.00097923,0.00010397,-0.00001230,0.19744989,-0.125324
 23,0.12829405,0.00005632,0.00002253,0.00025098,0.00000060,0.00002524,-
 0.00001642,-0.00000184,0.00003480,-0.00005001,0.00036713,0.00049186,-0
 .00166014,-0.00270568,-0.00358330,-0.00529159,-0.00001515,-0.00001416,
 0.00001284,0.00000140,0.00000946,0.00000536,-0.00001458,-0.00001756,-0
 .00000552,-0.00001282,0.00001245,0.00000350,0.00002927,0.00000195,0.00
 000046,-0.00003612,-0.00000938,0.00004483,-0.00002708,0.00001478,-0.00
 001425,0.00083542,0.00144656,0.00008116,-0.00055970,0.00105403,-0.0016
 1429,-0.19438784,0.12573100,0.00237674,-0.00150801,0.00088128,-0.14827
 004,0.09875775,-0.14552890,-0.00039764,0.00076020,-0.00063193,-0.00000
 765,-0.00007988,0.00009681,-0.00001635,-0.00012618,0.00010486,0.003099
 71,-0.00162515,-0.00544530,-0.03665236,0.02356755,-0.03047254,0.000016
 97,-0.00007519,0.00015532,-0.00002265,0.00001630,-0.00001786,-0.000013
 83,0.00001974,-0.00000984,0.00005384,-0.00003922,0.00000520,0.00001166
 ,0.00004482,-0.00001601,0.00003677,0.00005352,-0.00003603,-0.00000179,
 -0.00007354,0.00001865,-0.00086167,0.00083357,-0.00075688,0.00043589,-
 0.00049761,0.00235277,0.18021238,-0.12002868,0.17930042\\-0.00000040,0
 .00000010,0.00000016,-0.00000040,-0.00000022,0.00000013,0.00000011,0.0
 0000029,-0.00000018,0.00000023,0.00000043,-0.00000022,0.00000033,-0.00
 000007,-0.00000008,0.00000008,-0.00000034,0.00000008,-0.00000041,-0.00
 000031,0.00000044,0.00000018,0.00000001,-0.00000007,0.00000014,0.00000
 052,-0.00000024,0.00000003,0.00000050,-0.00000024,0.00000043,0.0000004
 4,-0.00000030,0.00000032,0.00000003,-0.00000010,0.00000033,-0.00000031
 ,0.00000002,0.00000059,-0.00000010,-0.00000014,-0.00000020,-0.00000028
 ,0.00000015,-0.00000056,-0.00000045,0.00000036,-0.00000078,-0.00000023
 ,0.00000025\\\@


 The earth never tires,
 The earth is rude, silent, incomprehensible at first,
 Nature is rude and incomprehensible at first,
 Be not discouraged, keep on,
 There are divine things well envelop'd,
 I swear to you there are divine things more beautiful than words can tell.
                                 -- Walt Whitman
 Job cpu time:       0 days  2 hours 44 minutes 35.1 seconds.
 Elapsed time:       0 days  1 hours 22 minutes 18.3 seconds.
 File lengths (MBytes):  RWF=   1392 Int=      0 D2E=      0 Chk=     32 Scr=     32
 Normal termination of Gaussian 16 at Thu Sep 26 20:42:58 2019.
