 Entering Gaussian System, Link 0=g16
 Input=med/species/CC(C)OC=CO/conformers/CC(C)OC=CO_116.com
 Output=med/species/CC(C)OC=CO/conformers/CC(C)OC=CO_116.log
 Initial command:
 /shared/centos7/gaussian/g16/l1.exe "/scratch/harms.n/gauss_scrdir/Gau-16293.inp" -scrdir="/scratch/harms.n/gauss_scrdir/"
 Entering Link 1 = /shared/centos7/gaussian/g16/l1.exe PID=     16294.
  
 Copyright (c) 1988,1990,1992,1993,1995,1998,2003,2009,2016,
            Gaussian, Inc.  All Rights Reserved.
  
 This is part of the Gaussian(R) 16 program.  It is based on
 the Gaussian(R) 09 system (copyright 2009, Gaussian, Inc.),
 the Gaussian(R) 03 system (copyright 2003, Gaussian, Inc.),
 the Gaussian(R) 98 system (copyright 1998, Gaussian, Inc.),
 the Gaussian(R) 94 system (copyright 1995, Gaussian, Inc.),
 the Gaussian 92(TM) system (copyright 1992, Gaussian, Inc.),
 the Gaussian 90(TM) system (copyright 1990, Gaussian, Inc.),
 the Gaussian 88(TM) system (copyright 1988, Gaussian, Inc.),
 the Gaussian 86(TM) system (copyright 1986, Carnegie Mellon
 University), and the Gaussian 82(TM) system (copyright 1983,
 Carnegie Mellon University). Gaussian is a federally registered
 trademark of Gaussian, Inc.
  
 This software contains proprietary and confidential information,
 including trade secrets, belonging to Gaussian, Inc.
  
 This software is provided under written license and may be
 used, copied, transmitted, or stored only in accord with that
 written license.
  
 The following legend is applicable only to US Government
 contracts under FAR:
  
                    RESTRICTED RIGHTS LEGEND
  
 Use, reproduction and disclosure by the US Government is
 subject to restrictions as set forth in subparagraphs (a)
 and (c) of the Commercial Computer Software - Restricted
 Rights clause in FAR 52.227-19.
  
 Gaussian, Inc.
 340 Quinnipiac St., Bldg. 40, Wallingford CT 06492
  
  
 ---------------------------------------------------------------
 Warning -- This program may not be used in any manner that
 competes with the business of Gaussian, Inc. or will provide
 assistance to any competitor of Gaussian, Inc.  The licensee
 of this program is prohibited from giving any competitor of
 Gaussian, Inc. access to this program.  By using this program,
 the user acknowledges that Gaussian, Inc. is engaged in the
 business of creating and licensing software in the field of
 computational chemistry and represents and warrants to the
 licensee that it is not a competitor of Gaussian, Inc. and that
 it will not use this program in any manner prohibited above.
 ---------------------------------------------------------------
  

 Cite this work as:
 Gaussian 16, Revision A.03,
 M. J. Frisch, G. W. Trucks, H. B. Schlegel, G. E. Scuseria, 
 M. A. Robb, J. R. Cheeseman, G. Scalmani, V. Barone, 
 G. A. Petersson, H. Nakatsuji, X. Li, M. Caricato, A. V. Marenich, 
 J. Bloino, B. G. Janesko, R. Gomperts, B. Mennucci, H. P. Hratchian, 
 J. V. Ortiz, A. F. Izmaylov, J. L. Sonnenberg, D. Williams-Young, 
 F. Ding, F. Lipparini, F. Egidi, J. Goings, B. Peng, A. Petrone, 
 T. Henderson, D. Ranasinghe, V. G. Zakrzewski, J. Gao, N. Rega, 
 G. Zheng, W. Liang, M. Hada, M. Ehara, K. Toyota, R. Fukuda, 
 J. Hasegawa, M. Ishida, T. Nakajima, Y. Honda, O. Kitao, H. Nakai, 
 T. Vreven, K. Throssell, J. A. Montgomery, Jr., J. E. Peralta, 
 F. Ogliaro, M. J. Bearpark, J. J. Heyd, E. N. Brothers, K. N. Kudin, 
 V. N. Staroverov, T. A. Keith, R. Kobayashi, J. Normand, 
 K. Raghavachari, A. P. Rendell, J. C. Burant, S. S. Iyengar, 
 J. Tomasi, M. Cossi, J. M. Millam, M. Klene, C. Adamo, R. Cammi, 
 J. W. Ochterski, R. L. Martin, K. Morokuma, O. Farkas, 
 J. B. Foresman, and D. J. Fox, Gaussian, Inc., Wallingford CT, 2016.
 
 ******************************************
 Gaussian 16:  EM64L-G16RevA.03 25-Dec-2016
                26-Sep-2019 
 ******************************************
 %nprocshared=20
 Will use up to   20 processors via shared memory.
 %mem=5GB
 ----------------------------------------------------------------------
 #p m062x/cc-pVTZ opt=(calcfc,maxcycles=900,Tight) freq IOP(7/33=1,2/16
 =3) scf=(maxcycle=900)
 ----------------------------------------------------------------------
 1/6=900,7=10,10=4,18=20,19=15,26=3,38=1/1,3;
 2/9=110,12=2,16=3,17=6,18=5,40=1/2;
 3/5=16,6=1,11=2,25=1,30=1,71=2,74=-55,140=1/1,2,3;
 4//1;
 5/5=2,7=900,38=5/2;
 8/6=4,10=90,11=11/1;
 11/6=1,8=1,9=11,15=111,16=1/1,2,10;
 10/6=1,13=1/2;
 6/7=2,8=2,9=2,10=2,28=1/1;
 7/10=1,18=20,25=1,33=1/1,2,3,16;
 1/6=900,7=10,10=4,18=20,19=15,26=3/3(2);
 2/9=110,16=3/2;
 99//99;
 2/9=110,16=3/2;
 3/5=16,6=1,11=2,25=1,30=1,71=1,74=-55/1,2,3;
 4/5=5,16=3,69=1/1;
 5/5=2,7=900,38=5/2;
 7/33=1/1,2,3,16;
 1/6=900,7=10,18=20,19=15,26=3/3(-5);
 2/9=110,16=3/2;
 6/7=2,8=2,9=2,10=2,19=2,28=1/1;
 99/9=1/99;
 Leave Link    1 at Thu Sep 26 12:01:52 2019, MaxMem=   671088640 cpu:               4.5 elap:               2.3
 (Enter /shared/centos7/gaussian/g16/l101.exe)
 ------------------------------
 Gaussian input prepared by ASE
 ------------------------------
 Symbolic Z-matrix:
 Charge =  0 Multiplicity = 1
 O                     2.31306   2.09603   1.23629 
 O                     2.31312   0.22891   3.56878 
 C                     3.14254   2.57523   2.2737 
 C                     2.32954   3.12226   3.44707 
 C                     4.1023    3.57231   1.71268 
 C                     2.14182   0.73054   1.23312 
 C                     2.14427  -0.10298   2.23277 
 H                     3.74579   1.70337   2.65092 
 H                     1.24592   3.14138   3.20708 
 H                     2.46743   2.49467   4.34629 
 H                     2.64445   4.16734   3.71404 
 H                     3.81842   4.63911   1.9536 
 H                     4.17591   3.47978   0.60901 
 H                     5.13664   3.41419   2.13066 
 H                     1.98042   0.34268   0.21466 
 H                     2.04765  -1.16283   2.04894 
 H                     1.9783   -0.54902   4.10216 
 
 ITRead=  0  0  0  0  0  0  0  0  0  0  0  0  0  0  0  0  0
 MicOpt= -1 -1 -1 -1 -1 -1 -1 -1 -1 -1 -1 -1 -1 -1 -1 -1 -1
 NAtoms=     17 NQM=       17 NQMF=       0 NMMI=      0 NMMIF=      0
                NMic=       0 NMicF=      0.
                    Isotopes and Nuclear Properties:
 (Nuclear quadrupole moments (NQMom) in fm**2, nuclear magnetic moments (NMagM)
  in nuclear magnetons)

  Atom         1           2           3           4           5           6           7           8           9          10
 IAtWgt=          16          16          12          12          12          12          12           1           1           1
 AtmWgt=  15.9949146  15.9949146  12.0000000  12.0000000  12.0000000  12.0000000  12.0000000   1.0078250   1.0078250   1.0078250
 NucSpn=           0           0           0           0           0           0           0           1           1           1
 AtZEff=  -0.0000000  -0.0000000  -0.0000000  -0.0000000  -0.0000000  -0.0000000  -0.0000000  -0.0000000  -0.0000000  -0.0000000
 NQMom=    0.0000000   0.0000000   0.0000000   0.0000000   0.0000000   0.0000000   0.0000000   0.0000000   0.0000000   0.0000000
 NMagM=    0.0000000   0.0000000   0.0000000   0.0000000   0.0000000   0.0000000   0.0000000   2.7928460   2.7928460   2.7928460
 AtZNuc=   8.0000000   8.0000000   6.0000000   6.0000000   6.0000000   6.0000000   6.0000000   1.0000000   1.0000000   1.0000000

  Atom        11          12          13          14          15          16          17
 IAtWgt=           1           1           1           1           1           1           1
 AtmWgt=   1.0078250   1.0078250   1.0078250   1.0078250   1.0078250   1.0078250   1.0078250
 NucSpn=           1           1           1           1           1           1           1
 AtZEff=  -0.0000000  -0.0000000  -0.0000000  -0.0000000  -0.0000000  -0.0000000  -0.0000000
 NQMom=    0.0000000   0.0000000   0.0000000   0.0000000   0.0000000   0.0000000   0.0000000
 NMagM=    2.7928460   2.7928460   2.7928460   2.7928460   2.7928460   2.7928460   2.7928460
 AtZNuc=   1.0000000   1.0000000   1.0000000   1.0000000   1.0000000   1.0000000   1.0000000
 Leave Link  101 at Thu Sep 26 12:01:54 2019, MaxMem=   671088640 cpu:               2.8 elap:               1.4
 (Enter /shared/centos7/gaussian/g16/l103.exe)

 GradGradGradGradGradGradGradGradGradGradGradGradGradGradGradGradGradGrad
 Berny optimization.
 Initialization pass.
                           ----------------------------
                           !    Initial Parameters    !
                           ! (Angstroms and Degrees)  !
 --------------------------                            --------------------------
 ! Name  Definition              Value          Derivative Info.                !
 --------------------------------------------------------------------------------
 ! R1    R(1,3)                  1.412          calculate D2E/DX2 analytically  !
 ! R2    R(1,6)                  1.3762         calculate D2E/DX2 analytically  !
 ! R3    R(2,7)                  1.3869         calculate D2E/DX2 analytically  !
 ! R4    R(2,17)                 1.0009         calculate D2E/DX2 analytically  !
 ! R5    R(3,4)                  1.5287         calculate D2E/DX2 analytically  !
 ! R6    R(3,5)                  1.4933         calculate D2E/DX2 analytically  !
 ! R7    R(3,8)                  1.1253         calculate D2E/DX2 analytically  !
 ! R8    R(4,9)                  1.1101         calculate D2E/DX2 analytically  !
 ! R9    R(4,10)                 1.1052         calculate D2E/DX2 analytically  !
 ! R10   R(4,11)                 1.1237         calculate D2E/DX2 analytically  !
 ! R11   R(5,12)                 1.1299         calculate D2E/DX2 analytically  !
 ! R12   R(5,13)                 1.11           calculate D2E/DX2 analytically  !
 ! R13   R(5,14)                 1.1267         calculate D2E/DX2 analytically  !
 ! R14   R(6,7)                  1.3016         calculate D2E/DX2 analytically  !
 ! R15   R(6,15)                 1.1017         calculate D2E/DX2 analytically  !
 ! R16   R(7,16)                 1.08           calculate D2E/DX2 analytically  !
 ! A1    A(3,1,6)              114.2995         calculate D2E/DX2 analytically  !
 ! A2    A(7,2,17)             106.6562         calculate D2E/DX2 analytically  !
 ! A3    A(1,3,4)              111.8972         calculate D2E/DX2 analytically  !
 ! A4    A(1,3,5)              109.1548         calculate D2E/DX2 analytically  !
 ! A5    A(1,3,8)              107.353          calculate D2E/DX2 analytically  !
 ! A6    A(4,3,5)              113.0302         calculate D2E/DX2 analytically  !
 ! A7    A(4,3,8)              107.7604         calculate D2E/DX2 analytically  !
 ! A8    A(5,3,8)              107.3795         calculate D2E/DX2 analytically  !
 ! A9    A(3,4,9)              111.0614         calculate D2E/DX2 analytically  !
 ! A10   A(3,4,10)             110.79           calculate D2E/DX2 analytically  !
 ! A11   A(3,4,11)             111.4774         calculate D2E/DX2 analytically  !
 ! A12   A(9,4,10)             107.9074         calculate D2E/DX2 analytically  !
 ! A13   A(9,4,11)             107.9946         calculate D2E/DX2 analytically  !
 ! A14   A(10,4,11)            107.4495         calculate D2E/DX2 analytically  !
 ! A15   A(3,5,12)             112.8815         calculate D2E/DX2 analytically  !
 ! A16   A(3,5,13)             111.1307         calculate D2E/DX2 analytically  !
 ! A17   A(3,5,14)             110.9114         calculate D2E/DX2 analytically  !
 ! A18   A(12,5,13)            107.9008         calculate D2E/DX2 analytically  !
 ! A19   A(12,5,14)            106.5012         calculate D2E/DX2 analytically  !
 ! A20   A(13,5,14)            107.2344         calculate D2E/DX2 analytically  !
 ! A21   A(1,6,7)              129.303          calculate D2E/DX2 analytically  !
 ! A22   A(1,6,15)             111.6957         calculate D2E/DX2 analytically  !
 ! A23   A(7,6,15)             119.0009         calculate D2E/DX2 analytically  !
 ! A24   A(2,7,6)              125.9317         calculate D2E/DX2 analytically  !
 ! A25   A(2,7,16)             114.1848         calculate D2E/DX2 analytically  !
 ! A26   A(6,7,16)             119.8385         calculate D2E/DX2 analytically  !
 ! D1    D(6,1,3,4)            -99.3358         calculate D2E/DX2 analytically  !
 ! D2    D(6,1,3,5)            134.7932         calculate D2E/DX2 analytically  !
 ! D3    D(6,1,3,8)             18.7005         calculate D2E/DX2 analytically  !
 ! D4    D(3,1,6,7)             30.334          calculate D2E/DX2 analytically  !
 ! D5    D(3,1,6,15)          -149.8913         calculate D2E/DX2 analytically  !
 ! D6    D(17,2,7,6)           162.1046         calculate D2E/DX2 analytically  !
 ! D7    D(17,2,7,16)          -20.3548         calculate D2E/DX2 analytically  !
 ! D8    D(1,3,4,9)             -6.405          calculate D2E/DX2 analytically  !
 ! D9    D(1,3,4,10)           113.5054         calculate D2E/DX2 analytically  !
 ! D10   D(1,3,4,11)          -126.8866         calculate D2E/DX2 analytically  !
 ! D11   D(5,3,4,9)            117.3143         calculate D2E/DX2 analytically  !
 ! D12   D(5,3,4,10)          -122.7753         calculate D2E/DX2 analytically  !
 ! D13   D(5,3,4,11)            -3.1673         calculate D2E/DX2 analytically  !
 ! D14   D(8,3,4,9)           -124.198          calculate D2E/DX2 analytically  !
 ! D15   D(8,3,4,10)            -4.2876         calculate D2E/DX2 analytically  !
 ! D16   D(8,3,4,11)           115.3204         calculate D2E/DX2 analytically  !
 ! D17   D(1,3,5,12)           103.4132         calculate D2E/DX2 analytically  !
 ! D18   D(1,3,5,13)           -17.9715         calculate D2E/DX2 analytically  !
 ! D19   D(1,3,5,14)          -137.1615         calculate D2E/DX2 analytically  !
 ! D20   D(4,3,5,12)           -21.8022         calculate D2E/DX2 analytically  !
 ! D21   D(4,3,5,13)          -143.1868         calculate D2E/DX2 analytically  !
 ! D22   D(4,3,5,14)            97.6232         calculate D2E/DX2 analytically  !
 ! D23   D(8,3,5,12)          -140.5111         calculate D2E/DX2 analytically  !
 ! D24   D(8,3,5,13)            98.1042         calculate D2E/DX2 analytically  !
 ! D25   D(8,3,5,14)           -21.0857         calculate D2E/DX2 analytically  !
 ! D26   D(1,6,7,2)              0.7743         calculate D2E/DX2 analytically  !
 ! D27   D(1,6,7,16)          -176.6392         calculate D2E/DX2 analytically  !
 ! D28   D(15,6,7,2)          -178.9864         calculate D2E/DX2 analytically  !
 ! D29   D(15,6,7,16)            3.6002         calculate D2E/DX2 analytically  !
 --------------------------------------------------------------------------------
 Trust Radius=3.00D-01 FncErr=1.00D-07 GrdErr=1.00D-06 EigMax=2.50D+02 EigMin=1.00D-04
 Number of steps in this run=    102 maximum allowed number of steps=    102.
 GradGradGradGradGradGradGradGradGradGradGradGradGradGradGradGradGradGrad

 Leave Link  103 at Thu Sep 26 12:01:55 2019, MaxMem=   671088640 cpu:               1.7 elap:               0.8
 (Enter /shared/centos7/gaussian/g16/l202.exe)
                          Input orientation:                          
 ---------------------------------------------------------------------
 Center     Atomic      Atomic             Coordinates (Angstroms)
 Number     Number       Type             X           Y           Z
 ---------------------------------------------------------------------
      1          8           0        2.313061    2.096032    1.236286
      2          8           0        2.313124    0.228913    3.568776
      3          6           0        3.142537    2.575226    2.273696
      4          6           0        2.329544    3.122265    3.447069
      5          6           0        4.102302    3.572314    1.712682
      6          6           0        2.141822    0.730542    1.233119
      7          6           0        2.144270   -0.102977    2.232765
      8          1           0        3.745793    1.703371    2.650920
      9          1           0        1.245916    3.141381    3.207076
     10          1           0        2.467435    2.494671    4.346290
     11          1           0        2.644449    4.167345    3.714039
     12          1           0        3.818423    4.639112    1.953595
     13          1           0        4.175906    3.479780    0.609009
     14          1           0        5.136638    3.414194    2.130663
     15          1           0        1.980422    0.342681    0.214664
     16          1           0        2.047648   -1.162833    2.048940
     17          1           0        1.978298   -0.549015    4.102164
 ---------------------------------------------------------------------
                    Distance matrix (angstroms):
                    1          2          3          4          5
     1  O    0.000000
     2  O    2.987748   0.000000
     3  C    1.412047   2.805413   0.000000
     4  C    2.437414   2.895957   1.528729   0.000000
     5  C    2.368068   4.221915   1.493342   2.520578   0.000000
     6  C    1.376189   2.395051   2.342454   3.264529   3.485560
     7  C    2.420145   1.386935   2.858493   3.451239   4.196682
     8  H    2.051363   2.251450   1.125320   2.157052   2.121399
     9  H    2.472967   3.122856   2.188355   1.110050   3.252361
    10  H    3.139247   2.400417   2.181261   1.105209   3.281767
    11  H    3.246447   3.955012   2.203978   1.123668   2.546532
    12  H    3.041037   4.931997   2.195203   2.597701   1.129905
    13  H    2.403836   4.774758   2.158067   3.404623   1.109989
    14  H    3.241921   4.492929   2.168125   3.114149   1.126748
    15  H    2.056355   3.372492   3.251827   4.277431   4.144509
    16  H    3.369132   2.077821   3.901588   4.516226   5.172648
    17  H    3.914280   1.000891   3.802581   3.745773   5.215972
                    6          7          8          9         10
     6  C    0.000000
     7  C    1.301558   0.000000
     8  H    2.351441   2.450024   0.000000
     9  H    3.242113   3.504594   2.937101   0.000000
    10  H    3.593050   3.364402   2.265974   1.791131   0.000000
    11  H    4.268397   4.547527   2.900750   1.807072   1.796918
    12  H    4.313583   5.036679   3.018297   3.229892   3.485511
    13  H    3.476395   4.427220   2.740443   3.930560   4.225705
    14  H    4.120254   4.619002   2.265399   4.046085   3.588756
    15  H    1.101697   2.073207   3.302022   4.162541   4.683863
    16  H    2.063808   1.080011   3.385440   4.528831   4.339514
    17  H    3.145699   1.929027   3.209889   3.867375   3.092391
                   11         12         13         14         15
    11  H    0.000000
    12  H    2.167935   0.000000
    13  H    3.529776   1.811010   0.000000
    14  H    3.047182   1.808168   1.800761   0.000000
    15  H    5.226338   4.986126   3.849292   4.802806   0.000000
    16  H    5.616006   6.066903   5.306293   5.522474   2.373955
    17  H    4.778959   5.909236   5.767391   5.437734   3.988455
                   16         17
    16  H    0.000000
    17  H    2.144133   0.000000
 Stoichiometry    C5H10O2
 Framework group  C1[X(C5H10O2)]
 Deg. of freedom    45
 Full point group                 C1      NOp   1
 Largest Abelian subgroup         C1      NOp   1
 Largest concise Abelian subgroup C1      NOp   1
                         Standard orientation:                         
 ---------------------------------------------------------------------
 Center     Atomic      Atomic             Coordinates (Angstroms)
 Number     Number       Type             X           Y           Z
 ---------------------------------------------------------------------
      1          8           0        0.286938   -0.958523   -0.597601
      2          8           0       -1.710631    1.025027    0.403345
      3          6           0        0.911585    0.058938    0.156366
      4          6           0        0.978264    1.378750   -0.612179
      5          6           0        2.250682   -0.420397    0.611478
      6          6           0       -1.035069   -1.169258   -0.278564
      7          6           0       -1.921015   -0.324859    0.164316
      8          1           0        0.284938    0.228278    1.075596
      9          1           0        0.625445    1.250338   -1.656804
     10          1           0        0.343951    2.145340   -0.131063
     11          1           0        2.026468    1.782101   -0.646917
     12          1           0        3.101626    0.018442    0.011476
     13          1           0        2.322832   -1.526190    0.547526
     14          1           0        2.436131   -0.135321    1.685676
     15          1           0       -1.331850   -2.217281   -0.443808
     16          1           0       -2.912336   -0.669970    0.418487
     17          1           0       -2.614343    1.453185    0.445390
 ---------------------------------------------------------------------
 Rotational constants (GHZ):           4.1993612           1.9644189           1.5597975
 Leave Link  202 at Thu Sep 26 12:01:57 2019, MaxMem=   671088640 cpu:               3.9 elap:               2.0
 (Enter /shared/centos7/gaussian/g16/l301.exe)
 Standard basis: CC-pVTZ (5D, 7F)
 Ernie: Thresh=  0.10000D-02 Tol=  0.10000D-05 Strict=F.
 Ernie:  21 primitive shells out of 262 were deleted.
 There are   395 symmetry adapted cartesian basis functions of A   symmetry.
 There are   350 symmetry adapted basis functions of A   symmetry.
   350 basis functions,   534 primitive gaussians,   395 cartesian basis functions
    28 alpha electrons       28 beta electrons
       nuclear repulsion energy       323.4327792055 Hartrees.
 IExCor= 4336 DFT=T Ex+Corr=M062X ExCW=0 ScaHFX=  0.540000
 ScaDFX=  1.000000  1.000000  1.000000  1.000000 ScalE2=  1.000000  1.000000
 IRadAn=      5 IRanWt=     -1 IRanGd=            0 ICorTp=0 IEmpDi=  4
 NAtoms=   17 NActive=   17 NUniq=   17 SFac= 1.00D+00 NAtFMM=   60 NAOKFM=F Big=F
 Integral buffers will be    131072 words long.
 Raffenetti 2 integral format.
 Two-electron integral symmetry is turned on.
 Leave Link  301 at Thu Sep 26 12:01:58 2019, MaxMem=   671088640 cpu:               1.9 elap:               0.9
 (Enter /shared/centos7/gaussian/g16/l302.exe)
 NPDir=0 NMtPBC=     1 NCelOv=     1 NCel=       1 NClECP=     1 NCelD=      1
         NCelK=      1 NCelE2=     1 NClLst=     1 CellRange=     0.0.
 One-electron integrals computed using PRISM.
 One-electron integral symmetry used in STVInt
 NBasis=   350 RedAO= T EigKep=  3.52D-04  NBF=   350
 NBsUse=   350 1.00D-06 EigRej= -1.00D+00 NBFU=   350
 Precomputing XC quadrature grid using
 IXCGrd= 4 IRadAn=           5 IRanWt=          -1 IRanGd=           0 AccXCQ= 0.00D+00.
 Generated NRdTot=       0 NPtTot=           0 NUsed=           0 NTot=          32
 NSgBfM=   395   395   395   395   395 MxSgAt=    17 MxSgA2=    17.
 Leave Link  302 at Thu Sep 26 12:03:03 2019, MaxMem=   671088640 cpu:             129.9 elap:              65.0
 (Enter /shared/centos7/gaussian/g16/l303.exe)
 DipDrv:  MaxL=1.
 Leave Link  303 at Thu Sep 26 12:03:08 2019, MaxMem=   671088640 cpu:               9.8 elap:               4.9
 (Enter /shared/centos7/gaussian/g16/l401.exe)
 ExpMin= 1.03D-01 ExpMax= 1.53D+04 ExpMxC= 5.22D+02 IAcc=3 IRadAn=         5 AccDes= 0.00D+00
 Harris functional with IExCor= 1009 and IRadAn=       5 diagonalized for initial guess.
 HarFok:  IExCor= 1009 AccDes= 0.00D+00 IRadAn=         5 IDoV= 1 UseB2=F ITyADJ=14
 ICtDFT=  3500011 ScaDFX=  1.000000  1.000000  1.000000  1.000000
 FoFCou: FMM=F IPFlag=           0 FMFlag=      100000 FMFlg1=           0
         NFxFlg=           0 DoJE=T BraDBF=F KetDBF=T FulRan=T
         wScrn=  0.000000 ICntrl=       500 IOpCl=  0 I1Cent=   200000004 NGrid=           0
         NMat0=    1 NMatS0=      1 NMatT0=    0 NMatD0=    1 NMtDS0=    0 NMtDT0=    0
 Petite list used in FoFCou.
 Harris En= -346.805169270395    
 JPrj=0 DoOrth=F DoCkMO=F.
 Leave Link  401 at Thu Sep 26 12:03:41 2019, MaxMem=   671088640 cpu:              65.6 elap:              32.8
 (Enter /shared/centos7/gaussian/g16/l502.exe)
 Integral symmetry usage will be decided dynamically.
 Closed shell SCF:
 Using DIIS extrapolation, IDIIS=  1040.
 NGot=   671088640 LenX=   670765141 LenY=   670608675
 Requested convergence on RMS density matrix=1.00D-08 within 900 cycles.
 Requested convergence on MAX density matrix=1.00D-06.
 Requested convergence on             energy=1.00D-06.
 No special actions if energy rises.
 Fock matrices will be formed incrementally for  20 cycles.
 Integral accuracy reduced to 1.0D-05 until final iterations.

 Cycle   1  Pass 0  IDiag  1:
 FoFJK:  IHMeth= 1 ICntrl=       0 DoSepK=F KAlg= 0 I1Cent=           0 FoldK=F
 IRaf= 960000000 NMat=       1 IRICut=       1 DoRegI=T DoRafI=F ISym2E= 0 IDoP0=0 IntGTp=1.
 FoFCou: FMM=F IPFlag=           0 FMFlag=      100000 FMFlg1=           0
         NFxFlg=           0 DoJE=F BraDBF=F KetDBF=F FulRan=T
         wScrn=  0.000000 ICntrl=         0 IOpCl=  0 I1Cent=           0 NGrid=           0
         NMat0=    1 NMatS0=      1 NMatT0=    0 NMatD0=    1 NMtDS0=    0 NMtDT0=    0
 Symmetry not used in FoFCou.
 E= -346.686091639928    
 DIIS: error= 2.16D-02 at cycle   1 NSaved=   1.
 NSaved= 1 IEnMin= 1 EnMin= -346.686091639928     IErMin= 1 ErrMin= 2.16D-02
 ErrMax= 2.16D-02  0.00D+00 EMaxC= 1.00D-01 BMatC= 2.89D-01 BMatP= 2.89D-01
 IDIUse=3 WtCom= 7.84D-01 WtEn= 2.16D-01
 Coeff-Com:  0.100D+01
 Coeff-En:   0.100D+01
 Coeff:      0.100D+01
 Gap=     0.357 Goal=   None    Shift=    0.000
 GapD=    0.357 DampG=1.000 DampE=0.500 DampFc=0.5000 IDamp=-1.
 Damping current iteration by 5.00D-01
 RMSDP=2.13D-03 MaxDP=1.04D-01              OVMax= 1.39D-01

 Cycle   2  Pass 0  IDiag  1:
 RMSU=  1.07D-03    CP:  1.00D+00
 E= -346.806749667594     Delta-E=       -0.120658027666 Rises=F Damp=T
 DIIS: error= 4.09D-03 at cycle   2 NSaved=   2.
 NSaved= 2 IEnMin= 2 EnMin= -346.806749667594     IErMin= 2 ErrMin= 4.09D-03
 ErrMax= 4.09D-03  0.00D+00 EMaxC= 1.00D-01 BMatC= 2.13D-02 BMatP= 2.89D-01
 IDIUse=3 WtCom= 9.59D-01 WtEn= 4.09D-02
 Coeff-Com: -0.122D+00 0.112D+01
 Coeff-En:   0.000D+00 0.100D+01
 Coeff:     -0.117D+00 0.112D+01
 Gap=     0.322 Goal=   None    Shift=    0.000
 RMSDP=4.94D-04 MaxDP=1.58D-02 DE=-1.21D-01 OVMax= 7.53D-02

 Cycle   3  Pass 0  IDiag  1:
 RMSU=  4.81D-04    CP:  1.00D+00  9.00D-01
 E= -346.916846328639     Delta-E=       -0.110096661046 Rises=F Damp=F
 DIIS: error= 2.59D-03 at cycle   3 NSaved=   3.
 NSaved= 3 IEnMin= 3 EnMin= -346.916846328639     IErMin= 3 ErrMin= 2.59D-03
 ErrMax= 2.59D-03  0.00D+00 EMaxC= 1.00D-01 BMatC= 4.11D-03 BMatP= 2.13D-02
 IDIUse=3 WtCom= 9.74D-01 WtEn= 2.59D-02
 Coeff-Com: -0.836D-01 0.323D+00 0.760D+00
 Coeff-En:   0.000D+00 0.000D+00 0.100D+01
 Coeff:     -0.814D-01 0.315D+00 0.767D+00
 Gap=     0.319 Goal=   None    Shift=    0.000
 RMSDP=1.76D-04 MaxDP=8.84D-03 DE=-1.10D-01 OVMax= 1.33D-02

 Cycle   4  Pass 0  IDiag  1:
 RMSU=  1.25D-04    CP:  1.00D+00  1.00D+00  8.76D-01
 E= -346.919171051087     Delta-E=       -0.002324722448 Rises=F Damp=F
 DIIS: error= 1.76D-03 at cycle   4 NSaved=   4.
 NSaved= 4 IEnMin= 4 EnMin= -346.919171051087     IErMin= 4 ErrMin= 1.76D-03
 ErrMax= 1.76D-03  0.00D+00 EMaxC= 1.00D-01 BMatC= 1.08D-03 BMatP= 4.11D-03
 IDIUse=3 WtCom= 9.82D-01 WtEn= 1.76D-02
 Coeff-Com: -0.286D-01 0.756D-01 0.382D+00 0.571D+00
 Coeff-En:   0.000D+00 0.000D+00 0.152D+00 0.848D+00
 Coeff:     -0.281D-01 0.742D-01 0.378D+00 0.576D+00
 Gap=     0.315 Goal=   None    Shift=    0.000
 RMSDP=6.51D-05 MaxDP=3.03D-03 DE=-2.32D-03 OVMax= 5.37D-03

 Cycle   5  Pass 0  IDiag  1:
 RMSU=  2.86D-05    CP:  1.00D+00  9.82D-01  9.30D-01  6.15D-01
 E= -346.919948865124     Delta-E=       -0.000777814037 Rises=F Damp=F
 DIIS: error= 2.33D-04 at cycle   5 NSaved=   5.
 NSaved= 5 IEnMin= 5 EnMin= -346.919948865124     IErMin= 5 ErrMin= 2.33D-04
 ErrMax= 2.33D-04  0.00D+00 EMaxC= 1.00D-01 BMatC= 3.01D-05 BMatP= 1.08D-03
 IDIUse=3 WtCom= 9.98D-01 WtEn= 2.33D-03
 Coeff-Com: -0.530D-02 0.995D-02 0.971D-01 0.217D+00 0.681D+00
 Coeff-En:   0.000D+00 0.000D+00 0.000D+00 0.000D+00 0.100D+01
 Coeff:     -0.529D-02 0.993D-02 0.969D-01 0.217D+00 0.682D+00
 Gap=     0.315 Goal=   None    Shift=    0.000
 RMSDP=1.12D-05 MaxDP=3.35D-04 DE=-7.78D-04 OVMax= 1.01D-03

 Cycle   6  Pass 0  IDiag  1:
 RMSU=  7.78D-06    CP:  1.00D+00  9.80D-01  9.37D-01  6.55D-01  8.46D-01
 E= -346.919969895151     Delta-E=       -0.000021030027 Rises=F Damp=F
 DIIS: error= 6.73D-05 at cycle   6 NSaved=   6.
 NSaved= 6 IEnMin= 6 EnMin= -346.919969895151     IErMin= 6 ErrMin= 6.73D-05
 ErrMax= 6.73D-05  0.00D+00 EMaxC= 1.00D-01 BMatC= 1.56D-06 BMatP= 3.01D-05
 IDIUse=1 WtCom= 1.00D+00 WtEn= 0.00D+00
 Coeff-Com: -0.867D-05-0.120D-02 0.111D-01 0.469D-01 0.225D+00 0.718D+00
 Coeff:     -0.867D-05-0.120D-02 0.111D-01 0.469D-01 0.225D+00 0.718D+00
 Gap=     0.315 Goal=   None    Shift=    0.000
 RMSDP=2.89D-06 MaxDP=1.36D-04 DE=-2.10D-05 OVMax= 4.12D-04

 Initial convergence to 1.0D-05 achieved.  Increase integral accuracy.
 Cycle   7  Pass 1  IDiag  1:
 E= -346.919959544667     Delta-E=        0.000010350484 Rises=F Damp=F
 DIIS: error= 2.31D-05 at cycle   1 NSaved=   1.
 NSaved= 1 IEnMin= 1 EnMin= -346.919959544667     IErMin= 1 ErrMin= 2.31D-05
 ErrMax= 2.31D-05  0.00D+00 EMaxC= 1.00D-01 BMatC= 5.95D-07 BMatP= 5.95D-07
 IDIUse=1 WtCom= 1.00D+00 WtEn= 0.00D+00
 Coeff-Com:  0.100D+01
 Coeff:      0.100D+01
 Gap=     0.316 Goal=   None    Shift=    0.000
 RMSDP=2.89D-06 MaxDP=1.36D-04 DE= 1.04D-05 OVMax= 2.52D-04

 Cycle   8  Pass 1  IDiag  1:
 RMSU=  7.09D-06    CP:  1.00D+00
 E= -346.919959753655     Delta-E=       -0.000000208989 Rises=F Damp=F
 DIIS: error= 2.77D-05 at cycle   2 NSaved=   2.
 NSaved= 2 IEnMin= 2 EnMin= -346.919959753655     IErMin= 1 ErrMin= 2.31D-05
 ErrMax= 2.77D-05  0.00D+00 EMaxC= 1.00D-01 BMatC= 2.35D-07 BMatP= 5.95D-07
 IDIUse=1 WtCom= 1.00D+00 WtEn= 0.00D+00
 Coeff-Com:  0.350D+00 0.650D+00
 Coeff:      0.350D+00 0.650D+00
 Gap=     0.316 Goal=   None    Shift=    0.000
 RMSDP=1.37D-06 MaxDP=5.77D-05 DE=-2.09D-07 OVMax= 2.41D-04

 Cycle   9  Pass 1  IDiag  1:
 RMSU=  1.37D-06    CP:  1.00D+00  9.81D-01
 E= -346.919959922165     Delta-E=       -0.000000168509 Rises=F Damp=F
 DIIS: error= 1.13D-05 at cycle   3 NSaved=   3.
 NSaved= 3 IEnMin= 3 EnMin= -346.919959922165     IErMin= 3 ErrMin= 1.13D-05
 ErrMax= 1.13D-05  0.00D+00 EMaxC= 1.00D-01 BMatC= 5.11D-08 BMatP= 2.35D-07
 IDIUse=1 WtCom= 1.00D+00 WtEn= 0.00D+00
 Coeff-Com: -0.501D-02 0.310D+00 0.695D+00
 Coeff:     -0.501D-02 0.310D+00 0.695D+00
 Gap=     0.316 Goal=   None    Shift=    0.000
 RMSDP=5.63D-07 MaxDP=1.92D-05 DE=-1.69D-07 OVMax= 8.23D-05

 Cycle  10  Pass 1  IDiag  1:
 RMSU=  2.65D-07    CP:  1.00D+00  1.03D+00  7.41D-01
 E= -346.919959963205     Delta-E=       -0.000000041040 Rises=F Damp=F
 DIIS: error= 2.31D-06 at cycle   4 NSaved=   4.
 NSaved= 4 IEnMin= 4 EnMin= -346.919959963205     IErMin= 4 ErrMin= 2.31D-06
 ErrMax= 2.31D-06  0.00D+00 EMaxC= 1.00D-01 BMatC= 2.92D-09 BMatP= 5.11D-08
 IDIUse=1 WtCom= 1.00D+00 WtEn= 0.00D+00
 Coeff-Com: -0.164D-01 0.132D+00 0.335D+00 0.549D+00
 Coeff:     -0.164D-01 0.132D+00 0.335D+00 0.549D+00
 Gap=     0.316 Goal=   None    Shift=    0.000
 RMSDP=1.10D-07 MaxDP=4.51D-06 DE=-4.10D-08 OVMax= 1.43D-05

 Cycle  11  Pass 1  IDiag  1:
 RMSU=  9.57D-08    CP:  1.00D+00  1.03D+00  7.75D-01  9.38D-01
 E= -346.919959965393     Delta-E=       -0.000000002189 Rises=F Damp=F
 DIIS: error= 3.75D-07 at cycle   5 NSaved=   5.
 NSaved= 5 IEnMin= 5 EnMin= -346.919959965393     IErMin= 5 ErrMin= 3.75D-07
 ErrMax= 3.75D-07  0.00D+00 EMaxC= 1.00D-01 BMatC= 1.25D-10 BMatP= 2.92D-09
 IDIUse=1 WtCom= 1.00D+00 WtEn= 0.00D+00
 Coeff-Com: -0.343D-02 0.398D-03 0.126D-02 0.146D+00 0.856D+00
 Coeff:     -0.343D-02 0.398D-03 0.126D-02 0.146D+00 0.856D+00
 Gap=     0.316 Goal=   None    Shift=    0.000
 RMSDP=3.90D-08 MaxDP=1.29D-06 DE=-2.19D-09 OVMax= 3.07D-06

 Cycle  12  Pass 1  IDiag  1:
 RMSU=  2.07D-08    CP:  1.00D+00  1.04D+00  7.72D-01  1.04D+00  1.03D+00
 E= -346.919959965521     Delta-E=       -0.000000000127 Rises=F Damp=F
 DIIS: error= 1.23D-07 at cycle   6 NSaved=   6.
 NSaved= 6 IEnMin= 6 EnMin= -346.919959965521     IErMin= 6 ErrMin= 1.23D-07
 ErrMax= 1.23D-07  0.00D+00 EMaxC= 1.00D-01 BMatC= 2.00D-11 BMatP= 1.25D-10
 IDIUse=1 WtCom= 1.00D+00 WtEn= 0.00D+00
 Coeff-Com:  0.565D-03-0.153D-01-0.413D-01-0.572D-02 0.339D+00 0.723D+00
 Coeff:      0.565D-03-0.153D-01-0.413D-01-0.572D-02 0.339D+00 0.723D+00
 Gap=     0.316 Goal=   None    Shift=    0.000
 RMSDP=1.33D-08 MaxDP=6.94D-07 DE=-1.27D-10 OVMax= 1.04D-06

 Cycle  13  Pass 1  IDiag  1:
 RMSU=  9.89D-09    CP:  1.00D+00  1.04D+00  7.74D-01  1.06D+00  1.09D+00
                    CP:  1.01D+00
 E= -346.919959965538     Delta-E=       -0.000000000018 Rises=F Damp=F
 DIIS: error= 6.24D-08 at cycle   7 NSaved=   7.
 NSaved= 7 IEnMin= 7 EnMin= -346.919959965538     IErMin= 7 ErrMin= 6.24D-08
 ErrMax= 6.24D-08  0.00D+00 EMaxC= 1.00D-01 BMatC= 2.31D-12 BMatP= 2.00D-11
 IDIUse=1 WtCom= 1.00D+00 WtEn= 0.00D+00
 Coeff-Com:  0.502D-03-0.619D-02-0.172D-01-0.133D-01 0.757D-01 0.330D+00
 Coeff-Com:  0.631D+00
 Coeff:      0.502D-03-0.619D-02-0.172D-01-0.133D-01 0.757D-01 0.330D+00
 Coeff:      0.631D+00
 Gap=     0.316 Goal=   None    Shift=    0.000
 RMSDP=3.67D-09 MaxDP=1.10D-07 DE=-1.75D-11 OVMax= 3.59D-07

 SCF Done:  E(RM062X) =  -346.919959966     A.U. after   13 cycles
            NFock= 13  Conv=0.37D-08     -V/T= 2.0062
 KE= 3.447920147145D+02 PE=-1.457215842094D+03 EE= 4.420710882083D+02
 Leave Link  502 at Thu Sep 26 12:15:01 2019, MaxMem=   671088640 cpu:            1360.7 elap:             680.5
 (Enter /shared/centos7/gaussian/g16/l801.exe)
 DoSCS=F DFT=T ScalE2(SS,OS)=  1.000000  1.000000
 Range of M.O.s used for correlation:     1   350
 NBasis=   350 NAE=    28 NBE=    28 NFC=     0 NFV=     0
 NROrb=    350 NOA=    28 NOB=    28 NVA=   322 NVB=   322

 **** Warning!!: The largest alpha MO coefficient is  0.10186847D+02

 Leave Link  801 at Thu Sep 26 12:15:02 2019, MaxMem=   671088640 cpu:               1.7 elap:               0.9
 (Enter /shared/centos7/gaussian/g16/l1101.exe)
 Using compressed storage, NAtomX=    17.
 Will process     18 centers per pass.
 Leave Link 1101 at Thu Sep 26 12:15:31 2019, MaxMem=   671088640 cpu:              58.3 elap:              29.2
 (Enter /shared/centos7/gaussian/g16/l1102.exe)
 Symmetrizing basis deriv contribution to polar:
 IMax=3 JMax=2 DiffMx= 0.00D+00
 Leave Link 1102 at Thu Sep 26 12:15:34 2019, MaxMem=   671088640 cpu:               6.2 elap:               3.1
 (Enter /shared/centos7/gaussian/g16/l1110.exe)
 Forming Gx(P) for the SCF density, NAtomX=    17.
 Integral derivatives from FoFJK, PRISM(SPDF).
 Do as many integral derivatives as possible in FoFJK.
 G2DrvN: MDV=     671087280.
 G2DrvN: will do    18 centers at a time, making    1 passes.
 Calling FoFCou, ICntrl=  3107 FMM=F I1Cent=   0 AccDes= 0.00D+00.
 FoFJK:  IHMeth= 1 ICntrl=    3107 DoSepK=F KAlg= 0 I1Cent=           0 FoldK=F
 IRaf=         0 NMat=       1 IRICut=       1 DoRegI=T DoRafI=F ISym2E= 0 IDoP0=0 IntGTp=1.
 FoFCou: FMM=F IPFlag=           0 FMFlag=      100000 FMFlg1=           0
         NFxFlg=           0 DoJE=F BraDBF=F KetDBF=F FulRan=T
         wScrn=  0.000000 ICntrl=      3107 IOpCl=  0 I1Cent=           0 NGrid=           0
         NMat0=    1 NMatS0=      1 NMatT0=    0 NMatD0=    1 NMtDS0=    0 NMtDT0=    0
 Symmetry not used in FoFCou.
 End of G2Drv F.D. properties file   721 does not exist.
 End of G2Drv F.D. properties file   722 does not exist.
 End of G2Drv F.D. properties file   788 does not exist.
 Leave Link 1110 at Thu Sep 26 12:35:25 2019, MaxMem=   671088640 cpu:            2380.0 elap:            1190.2
 (Enter /shared/centos7/gaussian/g16/l1002.exe)
 Minotr:  Closed shell wavefunction.
          IDoAtm=11111111111111111
          Direct CPHF calculation.
          Differentiating once with respect to nuclear coordinates.
          Requested convergence is 1.0D-08 RMS, and 1.0D-07 maximum.
          Secondary convergence is 1.0D-12 RMS, and 1.0D-12 maximum.
          NewPWx=T KeepS1=F KeepF1=F KeepIn=T MapXYZ=F SortEE=F KeepMc=T.
         5116 words used for storage of precomputed grid.
 Two-electron integrals replicated using symmetry.
          MDV=     671088640 using IRadAn=       1.
          Solving linear equations simultaneously, MaxMat=     380.
 FoF2E skips out because all densities are zero.
 CalDSu exits because no D1Ps are significant.
 FoFJK:  IHMeth= 1 ICntrl=       0 DoSepK=F KAlg= 0 I1Cent=           0 FoldK=F
 IRaf= 950000000 NMat=      51 IRICut=     127 DoRegI=T DoRafI=T ISym2E= 2 IDoP0=3 IntGTp=3.
 FoFCou: FMM=F IPFlag=           0 FMFlag=      100000 FMFlg1=           0
         NFxFlg=           0 DoJE=F BraDBF=F KetDBF=F FulRan=T
         wScrn=  0.000000 ICntrl=         0 IOpCl=  0 I1Cent=           0 NGrid=           0
         NMat0=   51 NMatS0=     51 NMatT0=    0 NMatD0=   51 NMtDS0=    0 NMtDT0=    0
 Integrals replicated using symmetry in FoFCou.
 Raff kept on since  92.12% of shell-pairs survive, threshold=   0.20 IRatSp=92.
          There are    54 degrees of freedom in the 1st order CPHF.  IDoFFX=6 NUNeed=     0.
     48 vectors produced by pass  0 Test12= 1.67D-14 1.85D-09 XBig12= 6.90D-02 5.08D-02.
 AX will form    48 AO Fock derivatives at one time.
     48 vectors produced by pass  1 Test12= 1.67D-14 1.85D-09 XBig12= 9.35D-03 2.82D-02.
     48 vectors produced by pass  2 Test12= 1.67D-14 1.85D-09 XBig12= 2.79D-04 3.37D-03.
     48 vectors produced by pass  3 Test12= 1.67D-14 1.85D-09 XBig12= 3.15D-06 2.17D-04.
     48 vectors produced by pass  4 Test12= 1.67D-14 1.85D-09 XBig12= 1.97D-08 1.43D-05.
     48 vectors produced by pass  5 Test12= 1.67D-14 1.85D-09 XBig12= 8.95D-11 9.37D-07.
     26 vectors produced by pass  6 Test12= 1.67D-14 1.85D-09 XBig12= 3.70D-13 6.99D-08.
      6 vectors produced by pass  7 Test12= 1.67D-14 1.85D-09 XBig12= 1.41D-15 3.52D-09.
 InvSVY:  IOpt=1 It=  1 EMax= 3.33D-16
 Solved reduced A of dimension   320 with    54 vectors.
 End of Minotr F.D. properties file   721 does not exist.
 End of Minotr F.D. properties file   722 does not exist.
 End of Minotr F.D. properties file   788 does not exist.
 Leave Link 1002 at Thu Sep 26 13:08:25 2019, MaxMem=   671088640 cpu:            3960.9 elap:            1980.8
 (Enter /shared/centos7/gaussian/g16/l601.exe)
 Copying SCF densities to generalized density rwf, IOpCl= 0 IROHF=0.

 **********************************************************************

            Population analysis using the SCF density.

 **********************************************************************

 Orbital symmetries:
       Occupied  (A) (A) (A) (A) (A) (A) (A) (A) (A) (A) (A) (A)
                 (A) (A) (A) (A) (A) (A) (A) (A) (A) (A) (A) (A)
                 (A) (A) (A) (A)
       Virtual   (A) (A) (A) (A) (A) (A) (A) (A) (A) (A) (A) (A)
                 (A) (A) (A) (A) (A) (A) (A) (A) (A) (A) (A) (A)
                 (A) (A) (A) (A) (A) (A) (A) (A) (A) (A) (A) (A)
                 (A) (A) (A) (A) (A) (A) (A) (A) (A) (A) (A) (A)
                 (A) (A) (A) (A) (A) (A) (A) (A) (A) (A) (A) (A)
                 (A) (A) (A) (A) (A) (A) (A) (A) (A) (A) (A) (A)
                 (A) (A) (A) (A) (A) (A) (A) (A) (A) (A) (A) (A)
                 (A) (A) (A) (A) (A) (A) (A) (A) (A) (A) (A) (A)
                 (A) (A) (A) (A) (A) (A) (A) (A) (A) (A) (A) (A)
                 (A) (A) (A) (A) (A) (A) (A) (A) (A) (A) (A) (A)
                 (A) (A) (A) (A) (A) (A) (A) (A) (A) (A) (A) (A)
                 (A) (A) (A) (A) (A) (A) (A) (A) (A) (A) (A) (A)
                 (A) (A) (A) (A) (A) (A) (A) (A) (A) (A) (A) (A)
                 (A) (A) (A) (A) (A) (A) (A) (A) (A) (A) (A) (A)
                 (A) (A) (A) (A) (A) (A) (A) (A) (A) (A) (A) (A)
                 (A) (A) (A) (A) (A) (A) (A) (A) (A) (A) (A) (A)
                 (A) (A) (A) (A) (A) (A) (A) (A) (A) (A) (A) (A)
                 (A) (A) (A) (A) (A) (A) (A) (A) (A) (A) (A) (A)
                 (A) (A) (A) (A) (A) (A) (A) (A) (A) (A) (A) (A)
                 (A) (A) (A) (A) (A) (A) (A) (A) (A) (A) (A) (A)
                 (A) (A) (A) (A) (A) (A) (A) (A) (A) (A) (A) (A)
                 (A) (A) (A) (A) (A) (A) (A) (A) (A) (A) (A) (A)
                 (A) (A) (A) (A) (A) (A) (A) (A) (A) (A) (A) (A)
                 (A) (A) (A) (A) (A) (A) (A) (A) (A) (A) (A) (A)
                 (A) (A) (A) (A) (A) (A) (A) (A) (A) (A) (A) (A)
                 (A) (A) (A) (A) (A) (A) (A) (A) (A) (A) (A) (A)
                 (A) (A) (A) (A) (A) (A) (A) (A) (A) (A)
 The electronic state is 1-A.
 Alpha  occ. eigenvalues --  -19.65351 -19.63623 -10.58262 -10.58221 -10.58017
 Alpha  occ. eigenvalues --  -10.52351 -10.51615  -1.18158  -1.16141  -0.88574
 Alpha  occ. eigenvalues --   -0.83818  -0.76748  -0.69792  -0.63510  -0.62666
 Alpha  occ. eigenvalues --   -0.56688  -0.53128  -0.52262  -0.48622  -0.47709
 Alpha  occ. eigenvalues --   -0.46500  -0.44277  -0.42990  -0.41799  -0.39828
 Alpha  occ. eigenvalues --   -0.36917  -0.36523  -0.27344
 Alpha virt. eigenvalues --    0.04211   0.08241   0.08976   0.09996   0.11124
 Alpha virt. eigenvalues --    0.12611   0.13718   0.13986   0.16669   0.16997
 Alpha virt. eigenvalues --    0.17472   0.18159   0.22847   0.24447   0.25411
 Alpha virt. eigenvalues --    0.29718   0.30073   0.31136   0.33861   0.34214
 Alpha virt. eigenvalues --    0.35581   0.35926   0.36463   0.38215   0.40497
 Alpha virt. eigenvalues --    0.41359   0.41631   0.43116   0.45357   0.46600
 Alpha virt. eigenvalues --    0.48020   0.48987   0.49554   0.50851   0.50988
 Alpha virt. eigenvalues --    0.51665   0.53405   0.53550   0.54340   0.54884
 Alpha virt. eigenvalues --    0.56155   0.57929   0.58805   0.60717   0.63254
 Alpha virt. eigenvalues --    0.64988   0.67359   0.69082   0.71327   0.73634
 Alpha virt. eigenvalues --    0.75157   0.77657   0.80497   0.82596   0.82724
 Alpha virt. eigenvalues --    0.84578   0.85664   0.89927   0.90159   0.91849
 Alpha virt. eigenvalues --    0.93284   0.94636   0.98562   1.00669   1.02352
 Alpha virt. eigenvalues --    1.02797   1.03986   1.05129   1.06108   1.07197
 Alpha virt. eigenvalues --    1.08736   1.09258   1.11413   1.12428   1.14393
 Alpha virt. eigenvalues --    1.15622   1.17767   1.20570   1.21159   1.22431
 Alpha virt. eigenvalues --    1.23243   1.24083   1.26068   1.26952   1.27825
 Alpha virt. eigenvalues --    1.29769   1.30741   1.31861   1.34326   1.35865
 Alpha virt. eigenvalues --    1.37090   1.38214   1.39343   1.40078   1.41087
 Alpha virt. eigenvalues --    1.43630   1.46539   1.48861   1.52161   1.52816
 Alpha virt. eigenvalues --    1.54254   1.55621   1.56950   1.57915   1.59310
 Alpha virt. eigenvalues --    1.61652   1.63209   1.69449   1.73619   1.85775
 Alpha virt. eigenvalues --    1.87224   1.96423   2.02040   2.05941   2.06020
 Alpha virt. eigenvalues --    2.08296   2.11416   2.13417   2.17187   2.18136
 Alpha virt. eigenvalues --    2.19394   2.25485   2.28751   2.30363   2.34329
 Alpha virt. eigenvalues --    2.35507   2.38297   2.39930   2.42887   2.44703
 Alpha virt. eigenvalues --    2.48585   2.50834   2.52661   2.56480   2.58299
 Alpha virt. eigenvalues --    2.58904   2.61471   2.63833   2.67504   2.70372
 Alpha virt. eigenvalues --    2.72281   2.75033   2.77766   2.78332   2.80973
 Alpha virt. eigenvalues --    2.83926   2.84429   2.84867   2.86478   2.88132
 Alpha virt. eigenvalues --    2.89262   2.90943   2.93028   2.93771   2.96168
 Alpha virt. eigenvalues --    2.97424   2.98598   2.99459   3.00552   3.01592
 Alpha virt. eigenvalues --    3.03383   3.04996   3.05978   3.06989   3.08324
 Alpha virt. eigenvalues --    3.08834   3.11156   3.12446   3.13138   3.14972
 Alpha virt. eigenvalues --    3.15634   3.16326   3.17368   3.21369   3.23107
 Alpha virt. eigenvalues --    3.25387   3.26022   3.27739   3.29099   3.30790
 Alpha virt. eigenvalues --    3.31922   3.33253   3.34315   3.35216   3.37366
 Alpha virt. eigenvalues --    3.39002   3.39807   3.40109   3.42912   3.44289
 Alpha virt. eigenvalues --    3.46944   3.48056   3.48214   3.48827   3.52040
 Alpha virt. eigenvalues --    3.52604   3.55634   3.57167   3.59320   3.62364
 Alpha virt. eigenvalues --    3.63932   3.64102   3.67470   3.69638   3.70684
 Alpha virt. eigenvalues --    3.72530   3.73530   3.75532   3.77421   3.79114
 Alpha virt. eigenvalues --    3.81010   3.81794   3.82220   3.83878   3.86138
 Alpha virt. eigenvalues --    3.88664   3.89020   3.91088   3.92390   3.94601
 Alpha virt. eigenvalues --    3.97116   3.97241   3.98387   4.01283   4.01966
 Alpha virt. eigenvalues --    4.03511   4.05268   4.05826   4.06449   4.08842
 Alpha virt. eigenvalues --    4.10235   4.12711   4.13552   4.16237   4.17400
 Alpha virt. eigenvalues --    4.19278   4.22210   4.23740   4.25059   4.28961
 Alpha virt. eigenvalues --    4.31070   4.32856   4.36054   4.37849   4.41139
 Alpha virt. eigenvalues --    4.44768   4.45855   4.47305   4.51188   4.53601
 Alpha virt. eigenvalues --    4.57319   4.61004   4.64208   4.67445   4.68511
 Alpha virt. eigenvalues --    4.70998   4.74568   4.76727   4.78505   4.81417
 Alpha virt. eigenvalues --    4.84471   4.87572   4.90178   4.92917   4.94226
 Alpha virt. eigenvalues --    4.96215   4.98475   5.01368   5.02527   5.04802
 Alpha virt. eigenvalues --    5.07616   5.09478   5.11454   5.14327   5.15763
 Alpha virt. eigenvalues --    5.20280   5.22334   5.22897   5.24495   5.28980
 Alpha virt. eigenvalues --    5.29867   5.30583   5.36504   5.39878   5.47654
 Alpha virt. eigenvalues --    5.51193   5.57378   5.59466   5.69767   5.75604
 Alpha virt. eigenvalues --    5.76379   5.78606   5.79790   5.81067   5.83927
 Alpha virt. eigenvalues --    5.93769   6.02324   6.10958   6.17826   6.23699
 Alpha virt. eigenvalues --    6.35382   6.48020   6.57630   6.61229   6.68816
 Alpha virt. eigenvalues --    6.74088   6.77996   6.80447   6.85206   7.01093
 Alpha virt. eigenvalues --    7.07774   7.17857   7.27861   7.34225   7.41615
 Alpha virt. eigenvalues --   10.11063  10.81385  11.73712  11.97423  13.07671
 Alpha virt. eigenvalues --   13.41612  14.31955
          Condensed to atoms (all electrons):
               1          2          3          4          5          6
     1  O    7.869401   0.003221   0.246651  -0.044492  -0.044780   0.368296
     2  O    0.003221   7.830363   0.003868  -0.007062   0.001135  -0.083327
     3  C    0.246651   0.003868   4.971602   0.317639   0.299297  -0.064936
     4  C   -0.044492  -0.007062   0.317639   5.041737  -0.053034  -0.002823
     5  C   -0.044780   0.001135   0.299297  -0.053034   5.000719   0.001947
     6  C    0.368296  -0.083327  -0.064936  -0.002823   0.001947   4.967310
     7  C   -0.074742   0.316425  -0.015533   0.001162   0.000929   0.502735
     8  H   -0.048605  -0.001236   0.422647  -0.066163  -0.046758  -0.012265
     9  H    0.002801   0.000037  -0.040174   0.379467   0.004751   0.000988
    10  H    0.003329   0.008630  -0.037815   0.393985   0.007439   0.000586
    11  H    0.003928   0.001196  -0.042788   0.395221  -0.013773  -0.000611
    12  H    0.001787  -0.000048  -0.049697  -0.012839   0.408548  -0.000330
    13  H    0.006542  -0.000016  -0.046624   0.008448   0.390398   0.000456
    14  H    0.003901  -0.000017  -0.048438   0.004317   0.404471   0.000074
    15  H   -0.039854   0.003294   0.005527  -0.000993  -0.000119   0.438562
    16  H    0.004760  -0.045308  -0.000585   0.000194   0.000115  -0.071106
    17  H   -0.000494   0.314279  -0.000704   0.000445  -0.000073   0.011921
               7          8          9         10         11         12
     1  O   -0.074742  -0.048605   0.002801   0.003329   0.003928   0.001787
     2  O    0.316425  -0.001236   0.000037   0.008630   0.001196  -0.000048
     3  C   -0.015533   0.422647  -0.040174  -0.037815  -0.042788  -0.049697
     4  C    0.001162  -0.066163   0.379467   0.393985   0.395221  -0.012839
     5  C    0.000929  -0.046758   0.004751   0.007439  -0.013773   0.408548
     6  C    0.502735  -0.012265   0.000988   0.000586  -0.000611  -0.000330
     7  C    5.006743  -0.000365  -0.000934  -0.002730   0.000101  -0.000071
     8  H   -0.000365   0.623701   0.007797  -0.011911   0.005374   0.007382
     9  H   -0.000934   0.007797   0.568474  -0.029682  -0.025923   0.001734
    10  H   -0.002730  -0.011911  -0.029682   0.576339  -0.032397   0.000266
    11  H    0.000101   0.005374  -0.025923  -0.032397   0.612786  -0.000940
    12  H   -0.000071   0.007382   0.001734   0.000266  -0.000940   0.609584
    13  H    0.000549   0.002824  -0.000498  -0.000572   0.000486  -0.027657
    14  H   -0.000002  -0.010045  -0.000240  -0.000343  -0.000424  -0.037340
    15  H   -0.090205   0.001582   0.000157   0.000027   0.000052   0.000028
    16  H    0.420873  -0.001371  -0.000038   0.000209   0.000027  -0.000005
    17  H   -0.036203   0.001336   0.000308  -0.000870  -0.000062   0.000005
              13         14         15         16         17
     1  O    0.006542   0.003901  -0.039854   0.004760  -0.000494
     2  O   -0.000016  -0.000017   0.003294  -0.045308   0.314279
     3  C   -0.046624  -0.048438   0.005527  -0.000585  -0.000704
     4  C    0.008448   0.004317  -0.000993   0.000194   0.000445
     5  C    0.390398   0.404471  -0.000119   0.000115  -0.000073
     6  C    0.000456   0.000074   0.438562  -0.071106   0.011921
     7  C    0.000549  -0.000002  -0.090205   0.420873  -0.036203
     8  H    0.002824  -0.010045   0.001582  -0.001371   0.001336
     9  H   -0.000498  -0.000240   0.000157  -0.000038   0.000308
    10  H   -0.000572  -0.000343   0.000027   0.000209  -0.000870
    11  H    0.000486  -0.000424   0.000052   0.000027  -0.000062
    12  H   -0.027657  -0.037340   0.000028  -0.000005   0.000005
    13  H    0.571779  -0.025540  -0.000600  -0.000023   0.000004
    14  H   -0.025540   0.602857   0.000016  -0.000016  -0.000002
    15  H   -0.000600   0.000016   0.550489  -0.007030  -0.000286
    16  H   -0.000023  -0.000016  -0.007030   0.597561  -0.014567
    17  H    0.000004  -0.000002  -0.000286  -0.014567   0.457701
 Mulliken charges:
               1
     1  O   -0.261650
     2  O   -0.345435
     3  C    0.080065
     4  C   -0.355208
     5  C   -0.361210
     6  C   -0.057476
     7  C   -0.028731
     8  H    0.126078
     9  H    0.130975
    10  H    0.125511
    11  H    0.097745
    12  H    0.099595
    13  H    0.120045
    14  H    0.106772
    15  H    0.139354
    16  H    0.116309
    17  H    0.267263
 Sum of Mulliken charges =  -0.00000
 Mulliken charges with hydrogens summed into heavy atoms:
               1
     1  O   -0.261650
     2  O   -0.078172
     3  C    0.206143
     4  C   -0.000977
     5  C   -0.034799
     6  C    0.081878
     7  C    0.087577
 APT charges:
               1
     1  O   -0.199071
     2  O   -0.869533
     3  C    0.093891
     4  C   -1.076840
     5  C   -1.335058
     6  C   -0.532919
     7  C   -0.371561
     8  H    0.249685
     9  H    0.293744
    10  H    0.301692
    11  H    0.439465
    12  H    0.421572
    13  H    0.348806
    14  H    0.382107
    15  H    0.513176
    16  H    0.523828
    17  H    0.817016
 Sum of APT charges =  -0.00000
 APT charges with hydrogens summed into heavy atoms:
               1
     1  O   -0.199071
     2  O   -0.052517
     3  C    0.343576
     4  C   -0.041939
     5  C   -0.182574
     6  C   -0.019742
     7  C    0.152267
 Electronic spatial extent (au):  <R**2>=            842.9124
 Charge=              0.0000 electrons
 Dipole moment (field-independent basis, Debye):
    X=             -2.0682    Y=              0.6490    Z=              0.9714  Tot=              2.3753
 Quadrupole moment (field-independent basis, Debye-Ang):
   XX=            -34.9970   YY=            -42.8136   ZZ=            -45.9673
   XY=             -1.1094   XZ=             -0.6650   YZ=             -0.1097
 Traceless Quadrupole moment (field-independent basis, Debye-Ang):
   XX=              6.2623   YY=             -1.5543   ZZ=             -4.7080
   XY=             -1.1094   XZ=             -0.6650   YZ=             -0.1097
 Octapole moment (field-independent basis, Debye-Ang**2):
  XXX=            -37.5250  YYY=             -1.1031  ZZZ=              0.4452  XYY=            -11.8564
  XXY=              9.8957  XXZ=              5.2371  XZZ=             -0.8910  YZZ=              2.2765
  YYZ=              0.3784  XYZ=             -2.4816
 Hexadecapole moment (field-independent basis, Debye-Ang**3):
 XXXX=           -602.0375 YYYY=           -290.3774 ZZZZ=           -126.6431 XXXY=            -39.8869
 XXXZ=            -27.2879 YYYX=            -18.0644 YYYZ=             11.4322 ZZZX=             -1.6523
 ZZZY=              4.5034 XXYY=           -143.6771 XXZZ=           -141.4099 YYZZ=            -75.8575
 XXYZ=              6.0058 YYXZ=             -1.7962 ZZXY=             -4.5727
 N-N= 3.234327792055D+02 E-N=-1.457215854444D+03  KE= 3.447920147145D+02
  Exact polarizability:   0.000   0.000   0.000   0.000   0.000   0.000
 Approx polarizability:  86.432  -5.792  82.286  -5.388   5.437  69.570
 No NMR shielding tensors so no spin-rotation constants.
 Leave Link  601 at Thu Sep 26 13:08:55 2019, MaxMem=   671088640 cpu:              58.8 elap:              29.4
 (Enter /shared/centos7/gaussian/g16/l701.exe)
 SCFChk:  SCF convergence  3.67D-09 required  1.00D-08
 ... and contract with generalized density number  0.
 Compute integral second derivatives.
 Entering OneElI...
 Calculate overlap and kinetic energy integrals
    NBasis = 395  MinDer = 2  MaxDer = 2
 Requested accuracy = 0.1000D-12
 PrmmSu-InSpLW:  IPartL=    0 NPrtUS=   20 NPrtUL=    1 DoSpLW=F IThBeg=    0 IThEnd=   19 NThAct=   20.
 PrsmSu:  NPrtUS=  20 ThrOK=T IAlg=1 NPAlg=1 LenDen=           0 ISkipM=0 DoSpLW=F IThBeg=    0 IThEnd=   19.
 Prism:   IPart=     0 DynPar=F LinDyn=F Incr=           4.
 PRISM was handed    33310564 working-precision words and  8476 shell-pairs
 PRISM was handed    33310564 working-precision words and  8476 shell-pairs
 PRISM was handed    33310564 working-precision words and  8476 shell-pairs
 PRISM was handed    33310564 working-precision words and  8476 shell-pairs
 PRISM was handed    33310564 working-precision words and  8476 shell-pairs
 PRISM was handed    33310564 working-precision words and  8476 shell-pairs
 PRISM was handed    33310564 working-precision words and  8476 shell-pairs
 PRISM was handed    33310564 working-precision words and  8476 shell-pairs
 PRISM was handed    33310564 working-precision words and  8476 shell-pairs
 PRISM was handed    33310564 working-precision words and  8476 shell-pairs
 PRISM was handed    33310564 working-precision words and  8476 shell-pairs
 PRISM was handed    33310564 working-precision words and  8476 shell-pairs
 PRISM was handed    33310564 working-precision words and  8476 shell-pairs
 PRISM was handed    33310564 working-precision words and  8476 shell-pairs
 PRISM was handed    33310564 working-precision words and  8476 shell-pairs
 IPart= 15 NShTot=         403 NBatch=          39 AvBLen=        10.3
 IPart= 13 NShTot=         407 NBatch=          41 AvBLen=         9.9
 IPart=  2 NShTot=         454 NBatch=          73 AvBLen=         6.2
 IPart=  1 NShTot=         463 NBatch=          79 AvBLen=         5.9
 PRISM was handed    33310564 working-precision words and  8476 shell-pairs
 IPart=  0 NShTot=         471 NBatch=          83 AvBLen=         5.7
 PRISM was handed    33310564 working-precision words and  8476 shell-pairs
 PRISM was handed    33310564 working-precision words and  8476 shell-pairs
 IPart= 10 NShTot=         417 NBatch=          49 AvBLen=         8.5
 PRISM was handed    33310564 working-precision words and  8476 shell-pairs
 PRISM was handed    33310564 working-precision words and  8476 shell-pairs
 IPart= 18 NShTot=         398 NBatch=          38 AvBLen=        10.5
 IPart= 19 NShTot=         398 NBatch=          38 AvBLen=        10.5
 IPart= 16 NShTot=         402 NBatch=          38 AvBLen=        10.6
 IPart= 12 NShTot=         409 NBatch=          43 AvBLen=         9.5
 IPart= 17 NShTot=         400 NBatch=          38 AvBLen=        10.5
 IPart=  8 NShTot=         420 NBatch=          51 AvBLen=         8.2
 IPart=  5 NShTot=         437 NBatch=          61 AvBLen=         7.2
 IPart= 11 NShTot=         416 NBatch=          49 AvBLen=         8.5
 IPart= 14 NShTot=         406 NBatch=          41 AvBLen=         9.9
 IPart=  3 NShTot=         449 NBatch=          71 AvBLen=         6.3
 IPart=  9 NShTot=         419 NBatch=          51 AvBLen=         8.2
 IPart=  6 NShTot=         435 NBatch=          59 AvBLen=         7.4
 IPart=  4 NShTot=         444 NBatch=          67 AvBLen=         6.6
 IPart=  7 NShTot=         428 NBatch=          52 AvBLen=         8.2
 PrSmSu:  NxtVal=             81.
 Entering OneElI...
 Calculate potential energy integrals
    NBasis = 395  MinDer = 2  MaxDer = 2
 Requested accuracy = 0.1000D-12
 PrmmSu-InSpLW:  IPartL=    0 NPrtUS=   20 NPrtUL=    1 DoSpLW=F IThBeg=    0 IThEnd=   19 NThAct=   20.
 PrsmSu:  NPrtUS=  20 ThrOK=T IAlg=1 NPAlg=1 LenDen=           0 ISkipM=0 DoSpLW=F IThBeg=    0 IThEnd=   19.
 Prism:   IPart=     0 DynPar=F LinDyn=F Incr=          66.
 PRISM was handed    33353758 working-precision words and  7788 shell-pairs
 PRISM was handed    33353758 working-precision words and  7788 shell-pairs
 PRISM was handed    33353758 working-precision words and  7788 shell-pairs
 PRISM was handed    33353758 working-precision words and  7788 shell-pairs
 PRISM was handed    33353758 working-precision words and  7788 shell-pairs
 PRISM was handed    33353758 working-precision words and  7788 shell-pairs
 PRISM was handed    33353758 working-precision words and  7788 shell-pairs
 PRISM was handed    33353758 working-precision words and  7788 shell-pairs
 PRISM was handed    33353758 working-precision words and  7788 shell-pairs
 PRISM was handed    33353758 working-precision words and  7788 shell-pairs
 PRISM was handed    33353758 working-precision words and  7788 shell-pairs
 PRISM was handed    33353758 working-precision words and  7788 shell-pairs
 PRISM was handed    33353758 working-precision words and  7788 shell-pairs
 PRISM was handed    33353758 working-precision words and  7788 shell-pairs
 PRISM was handed    33353758 working-precision words and  7788 shell-pairs
 PRISM was handed    33353758 working-precision words and  7788 shell-pairs
 PRISM was handed    33353758 working-precision words and  7788 shell-pairs
 PRISM was handed    33353758 working-precision words and  7788 shell-pairs
 PRISM was handed    33353758 working-precision words and  7788 shell-pairs
 PRISM was handed    33353758 working-precision words and  7788 shell-pairs
 IPart=  2 NShTot=        7072 NBatch=         416 AvBLen=        17.0
 IPart=  1 NShTot=        7191 NBatch=         423 AvBLen=        17.0
 IPart= 18 NShTot=        6222 NBatch=         366 AvBLen=        17.0
 IPart= 19 NShTot=        6188 NBatch=         364 AvBLen=        17.0
 IPart= 13 NShTot=        6392 NBatch=         376 AvBLen=        17.0
 IPart= 15 NShTot=        6358 NBatch=         374 AvBLen=        17.0
 IPart=  8 NShTot=        6596 NBatch=         388 AvBLen=        17.0
 IPart=  9 NShTot=        6562 NBatch=         386 AvBLen=        17.0
 IPart= 16 NShTot=        6341 NBatch=         373 AvBLen=        17.0
 IPart= 10 NShTot=        6511 NBatch=         383 AvBLen=        17.0
 IPart= 11 NShTot=        6460 NBatch=         380 AvBLen=        17.0
 IPart=  0 NShTot=        7310 NBatch=         430 AvBLen=        17.0
 IPart=  7 NShTot=        6664 NBatch=         392 AvBLen=        17.0
 IPart=  4 NShTot=        6885 NBatch=         405 AvBLen=        17.0
 IPart= 12 NShTot=        6392 NBatch=         376 AvBLen=        17.0
 IPart= 17 NShTot=        6307 NBatch=         371 AvBLen=        17.0
 IPart=  3 NShTot=        6936 NBatch=         408 AvBLen=        17.0
 IPart= 14 NShTot=        6375 NBatch=         375 AvBLen=        17.0
 IPart=  6 NShTot=        6817 NBatch=         401 AvBLen=        17.0
 IPart=  5 NShTot=        6817 NBatch=         401 AvBLen=        17.0
 PrSmSu:  NxtVal=           1321.
 Polarizability after L701:
                1             2             3 
      1  0.000000D+00
      2  0.000000D+00  0.000000D+00
      3  0.000000D+00  0.000000D+00  0.000000D+00
 Dipole Derivatives after L701:
                 1             2             3             4             5 
      1  -0.253639D+00 -0.386153D-02 -0.229562D-01 -0.156558D+01  0.601913D+00
      2  -0.263946D+00 -0.206841D+00  0.815348D-01  0.727473D+00 -0.638357D+00
      3  -0.165919D+00  0.363008D-01 -0.136733D+00  0.184716D+00 -0.664877D-01
                 6             7             8             9            10 
      1   0.153373D+00  0.484172D+00 -0.843970D-01 -0.128332D+00 -0.934788D+00
      2  -0.591669D-01 -0.419434D-01  0.120112D+00 -0.245649D+00 -0.315129D-01
      3  -0.404663D+00  0.249872D+00 -0.215444D+00 -0.322611D+00  0.211464D-01
                11            12            13            14            15 
      1  -0.472573D+00  0.279109D+00 -0.195716D+01  0.338085D+00 -0.369364D+00
      2  -0.136075D+01  0.222278D+00  0.133031D+00 -0.942874D+00  0.424250D-01
      3   0.102034D+00 -0.934985D+00 -0.295221D+00  0.852049D-01 -0.110514D+01
                16            17            18            19            20 
      1  -0.730278D+00 -0.127427D+00  0.244674D+00 -0.668812D+00 -0.724410D+00
      2  -0.167016D+00 -0.787590D+00 -0.165994D+00 -0.105974D+00 -0.461656D+00
      3   0.232956D+00 -0.180622D+00 -0.808878D-01  0.190605D+00  0.519785D-02
                21            22            23            24            25 
      1   0.927699D-02  0.112998D+00  0.355044D-01  0.106681D+00  0.389288D-01
      2  -0.524869D-01 -0.362132D-01  0.185154D+00  0.394614D-01 -0.138068D+00
      3   0.157853D-01 -0.187662D+00  0.727098D-01  0.450903D+00  0.230131D+00
                26            27            28            29            30 
      1   0.565852D-02 -0.176789D+00  0.729578D-01  0.508241D-01  0.166860D-02
      2   0.800154D-01 -0.395389D+00 -0.475002D+00  0.691931D+00  0.340454D+00
      3   0.465511D-01  0.762288D+00 -0.187955D-01 -0.158218D-02  0.140186D+00
                31            32            33            34            35 
      1   0.872811D+00  0.298932D+00 -0.358511D-02  0.100447D+01  0.499347D+00
      2   0.609161D+00  0.362546D+00 -0.235049D-01  0.138057D-01  0.114576D+00
      3  -0.209534D+00 -0.105418D+00  0.830395D-01 -0.310010D-01 -0.414031D-01
                36            37            38            39            40 
      1  -0.541012D+00  0.209841D+00 -0.838683D+00 -0.321952D-01  0.290423D+00
      2  -0.472011D-01 -0.737689D-01  0.754923D+00  0.275676D-01 -0.114838D-01
      3   0.145668D+00  0.203931D-01 -0.189262D+00  0.816529D-01  0.110090D+00
                41            42            43            44            45 
      1   0.179797D+00  0.818479D+00  0.351049D+00  0.524441D+00  0.892177D-01
      2   0.862536D-01 -0.467283D-02  0.247395D+00  0.107697D+01  0.187307D+00
      3   0.167557D+00  0.769645D+00  0.373818D-01  0.191697D+00  0.111507D+00
                46            47            48            49            50 
      1   0.121168D+01  0.391301D+00 -0.293029D+00  0.146093D+01 -0.674453D+00
      2   0.224745D+00  0.244641D+00 -0.274364D-01 -0.610683D+00  0.680939D+00
      3  -0.188592D+00 -0.282332D-01  0.115164D+00 -0.180567D+00  0.121200D+00
                51 
      1  -0.135216D+00
      2   0.804727D-01
      3   0.309181D+00
 Hessian after L701:
                1             2             3             4             5 
      1  0.595693D+01
      2 -0.390571D+01  0.132699D+02
      3 -0.286547D-01 -0.263265D+01  0.162605D+02
      4  0.126360D+00 -0.516297D+00 -0.275921D+00  0.963694D+01
      5 -0.536311D+00  0.209997D+00  0.296860D+00  0.232212D+01  0.551114D+01
      6 -0.285855D+00  0.306218D+00 -0.273702D+00  0.764740D+00 -0.184068D+01
      7 -0.597790D+01  0.300898D+01  0.208176D+01  0.333858D+00 -0.320211D+00
      8  0.283000D+01 -0.453576D+01  0.290519D+01 -0.315354D+00 -0.225138D+00
      9  0.190455D+01  0.283767D+01 -0.680212D+01 -0.192881D+00  0.711098D-01
     10 -0.241971D+00  0.105495D+00 -0.106013D+00  0.279038D+00  0.663280D-01
     11  0.100104D+00  0.453673D+00 -0.323380D+00 -0.425595D-01 -0.303588D+00
     12 -0.691019D-01 -0.192237D+00 -0.160716D+00 -0.208161D+00 -0.239831D-01
     13  0.221698D+00 -0.323137D-01  0.342413D+00  0.153693D+00 -0.105005D+00
     14  0.594828D-01 -0.189415D+00  0.581779D-01 -0.100360D+00 -0.705443D-01
     15  0.376837D+00  0.131502D-01  0.547298D-02  0.680718D-02 -0.262592D-02
     16 -0.418009D+00  0.184620D+01 -0.210162D+01  0.225864D+00 -0.307390D+00
     17  0.207802D+01 -0.970795D+01 -0.204159D+00 -0.457591D-01 -0.650971D+00
     18 -0.191454D+01 -0.162241D+00 -0.941250D+01  0.274656D-01 -0.673010D-01
     19  0.596088D-01 -0.408259D+00  0.138179D+00 -0.862357D+01  0.116473D+01
     20 -0.528111D+00  0.236911D+00  0.352552D-01  0.982304D+00  0.242886D+00
     21  0.493841D-01  0.181738D-02  0.287134D+00  0.330078D+00  0.133752D+01
     22  0.260742D+00 -0.119718D+00 -0.182389D+00 -0.122994D-01  0.132864D-01
     23 -0.775664D-01 -0.596485D-01 -0.231251D+00  0.120038D-01 -0.798447D-01
     24 -0.138953D+00 -0.261113D+00  0.149182D+00  0.492704D-01 -0.969960D-02
     25 -0.758553D-01 -0.136154D-01  0.221167D-01  0.118600D-01  0.495808D-02
     26  0.462352D-02  0.721066D-01  0.212066D-01  0.499586D-02 -0.357456D-01
     27  0.609590D-02 -0.572772D-01 -0.771525D-01 -0.606842D-01 -0.709122D-02
     28 -0.479804D-01 -0.176387D-01 -0.491686D-02 -0.161314D-01  0.473383D-01
     29 -0.723713D-02  0.145596D+00  0.438181D-01  0.118428D+00 -0.323550D-01
     30 -0.496830D-02  0.466718D-01 -0.365279D-01 -0.170735D-01 -0.532941D-02
     31  0.393060D-01  0.118251D+00  0.841667D-02  0.712158D-01  0.173542D-01
     32  0.979020D-01  0.784254D-01  0.103940D-01  0.250035D-01 -0.164578D-01
     33  0.295106D-02  0.286081D-02 -0.500282D-01 -0.206948D-01 -0.318839D-02
     34  0.105858D+00  0.668482D-01  0.271347D-01  0.240118D-01 -0.637173D-02
     35  0.681252D-01 -0.152863D-01  0.107144D-01  0.149411D-02 -0.899147D-02
     36  0.620406D-02  0.211899D-02 -0.429458D-01 -0.805292D-02  0.737705D-03
     37  0.283889D-01  0.306140D-01  0.856071D-01  0.111047D-01 -0.153749D-01
     38 -0.478509D-01 -0.907869D-01 -0.305223D-01 -0.230745D-01  0.896687D-02
     39  0.748271D-01  0.169637D-01 -0.438246D-01  0.245845D-03 -0.310511D-03
     40  0.215542D-01  0.392707D-01  0.931951D-01  0.191847D-01 -0.832027D-02
     41  0.333725D-01 -0.311055D-01  0.466160D-01 -0.502441D-02 -0.110935D-01
     42  0.962658D-01  0.545392D-01  0.841934D-01  0.239998D-01 -0.614582D-02
     43 -0.270104D+00 -0.163464D+00 -0.114384D-01 -0.388235D-01 -0.398936D-02
     44 -0.146824D+00  0.204608D+00 -0.148551D-01 -0.203041D-01  0.150384D+00
     45  0.598067D-02  0.129738D-01  0.137911D+00 -0.102476D-02  0.441474D-01
     46  0.175902D+00 -0.950603D-02 -0.722076D-01  0.188420D+00 -0.145830D+00
     47  0.129874D-01 -0.521168D-01 -0.465481D-02 -0.109101D+00 -0.158297D+00
     48 -0.662114D-01  0.121628D-02 -0.185916D-01 -0.606384D-01 -0.485237D-01
     49  0.354748D-01 -0.291427D-01 -0.156635D-01 -0.239072D+01 -0.218731D+01
     50 -0.350113D-01  0.108718D-01  0.132350D-01 -0.228851D+01 -0.453035D+01
     51 -0.148106D-01  0.931779D-02 -0.627522D-02 -0.357475D+00  0.264506D+00
                6             7             8             9            10 
      6  0.152934D+02
      7 -0.101093D+00  0.180019D+02
      8  0.363772D-01 -0.184356D+01  0.180032D+02
      9 -0.336445D+00 -0.180560D+01 -0.158068D+01  0.204702D+02
     10 -0.237458D+00 -0.614623D+01  0.283568D+00 -0.227859D+00  0.148232D+02
     11  0.134136D-01  0.170025D+00 -0.249781D+01 -0.178656D+01 -0.408858D+00
     12 -0.208452D+00 -0.190710D+00 -0.183021D+01 -0.525685D+01  0.249676D+00
     13  0.120258D-01 -0.291564D+01 -0.115287D+01  0.137115D+01  0.909217D-02
     14 -0.577449D-02 -0.113270D+01 -0.594724D+01 -0.456201D+00 -0.185842D+00
     15 -0.115775D+00  0.130614D+01 -0.449218D+00 -0.563135D+01  0.160239D+00
     16 -0.134472D-01  0.490550D+00  0.215697D+00  0.175422D+00 -0.698461D-01
     17 -0.107767D+00  0.175373D+00 -0.360387D-02  0.695589D-01  0.212483D+00
     18  0.369001D+00  0.163068D+00  0.921044D-01  0.195796D-01 -0.273577D-01
     19  0.368289D+00  0.242716D+00  0.804638D-01  0.796548D-01  0.217044D+00
     20  0.139113D+01  0.495133D-01 -0.114692D+00  0.136633D-01  0.172477D+00
     21 -0.847456D+01  0.152839D+00  0.130272D-01 -0.130315D+00 -0.770161D-01
     22 -0.189067D-01 -0.440576D+01 -0.238706D+00 -0.116217D+01  0.242663D+00
     23  0.118887D-01 -0.303683D+00 -0.494510D+01  0.604912D+00 -0.891949D-01
     24 -0.559830D-01 -0.142627D+01  0.607713D+00 -0.272688D+01  0.111988D+00
     25 -0.282007D-01  0.998386D-01  0.187498D-01 -0.179501D-01 -0.388620D+01
     26 -0.530838D-04  0.507098D-01  0.458042D-01  0.125203D+00  0.182356D-01
     27  0.215330D-01 -0.449840D-01  0.739049D-01  0.964282D-03  0.853515D+00
     28 -0.374535D-01  0.113282D+00 -0.145566D-01 -0.189467D-01 -0.344668D+01
     29 -0.409731D-01  0.356010D-01 -0.106181D+00  0.473741D-01 -0.121066D+01
     30 -0.940764D-01 -0.297957D-01  0.593086D-01  0.991481D-01 -0.574331D+00
     31 -0.212344D-01  0.707643D-01 -0.660193D-01  0.282078D-01 -0.182072D+01
     32 -0.616781D-02 -0.110709D+00 -0.358063D-01  0.327091D-01  0.109249D+01
     33 -0.178007D-01  0.439550D-01  0.367512D-01  0.873826D-01 -0.171163D+00
     34 -0.272082D-02 -0.700248D-01  0.331008D-01  0.378703D-03 -0.132411D-01
     35 -0.712446D-03  0.521992D-01  0.127597D+00 -0.184598D-01  0.304868D-01
     36 -0.798267D-02 -0.338728D-01 -0.201585D-01  0.139288D+00 -0.136301D-01
     37  0.979849D-03  0.572440D-01  0.111469D+00 -0.901894D-02 -0.251032D-01
     38 -0.156331D-02  0.628295D-01  0.469534D-01  0.345038D-02 -0.694835D-01
     39 -0.105012D-01 -0.197426D-01  0.388114D-01  0.985858D-01  0.218642D-01
     40  0.108176D-01 -0.302403D-01 -0.292962D-01 -0.137122D+00 -0.540282D-02
     41 -0.629413D-03 -0.186824D-01  0.124678D+00  0.419661D-02 -0.295167D-01
     42 -0.120821D-02 -0.124506D+00 -0.139428D-01  0.336479D-01  0.660176D-01
     43  0.230881D-02  0.618440D-01  0.990633D-01  0.325978D-01 -0.438728D-02
     44  0.359430D-01  0.134432D+00  0.753000D-01  0.305135D-01  0.110304D-01
     45 -0.276392D-01  0.345768D-01  0.304406D-01 -0.430687D-01  0.855749D-03
     46 -0.662488D-01  0.365926D-01  0.370790D-02 -0.967755D-02  0.277409D-01
     47 -0.573573D-01  0.130888D-01 -0.111775D-01 -0.442758D-02  0.179741D-01
     48  0.162778D+00 -0.330059D-02 -0.780800D-03 -0.119039D-01 -0.110227D-01
     49 -0.346542D+00  0.372599D-01 -0.154617D-01 -0.107379D-01  0.609998D-01
     50  0.266706D+00 -0.232053D-01 -0.100162D-02  0.597250D-02 -0.170120D-01
     51 -0.622256D+01 -0.247050D-02  0.136413D-02 -0.984634D-02 -0.183047D-01
               11            12            13            14            15 
     11  0.127220D+02
     12  0.116800D+01  0.155832D+02
     13 -0.716199D-01  0.797331D-01  0.123060D+02
     14  0.341198D-02 -0.113707D+00  0.693847D+00  0.150218D+02
     15 -0.122969D+00 -0.390877D-02 -0.149092D+01  0.373187D+00  0.146261D+02
     16  0.211438D+00  0.251893D-02  0.235183D+00  0.824109D-01  0.131501D+00
     17  0.199346D+00 -0.421548D-01  0.519317D-01 -0.142044D+00  0.181865D-01
     18 -0.683848D-01 -0.145533D+00  0.110080D+00  0.172453D-01 -0.120452D+00
     19  0.145161D+00 -0.574383D-01  0.133100D+00  0.587992D-02  0.104411D-01
     20 -0.101329D+00 -0.389114D-01 -0.165735D-01 -0.909857D-01 -0.317276D-02
     21 -0.406976D-01 -0.127377D+00  0.536976D-02 -0.547772D-04 -0.818227D-01
     22 -0.769308D-01  0.786740D-01 -0.195085D+00  0.770150D-01 -0.150831D-01
     23  0.644251D-01  0.261296D+00  0.890492D-01  0.119081D+00  0.391421D-02
     24  0.305815D+00 -0.142078D+00  0.157379D-01 -0.763701D-03  0.183899D+00
     25  0.749698D-01  0.701301D+00 -0.627842D-02 -0.365338D-01  0.577961D-01
     26 -0.415891D+01  0.945050D-01 -0.399006D-01 -0.597446D-02 -0.531640D-01
     27  0.302023D+00 -0.177129D+01  0.580038D-01 -0.584180D-01  0.504002D-01
     28 -0.978901D+00 -0.551201D+00  0.214683D-01 -0.990927D-01  0.208875D-01
     29 -0.290814D+01  0.850086D+00 -0.103765D+00  0.884243D-01 -0.317252D-01
     30  0.717693D+00 -0.381425D+01  0.168404D-01 -0.200827D-01 -0.433740D-01
     31  0.966252D+00 -0.104010D+00  0.138331D-01  0.209393D-01 -0.884917D-02
     32 -0.355545D+01 -0.272030D-01  0.630353D-02 -0.189901D-01  0.116851D-01
     33 -0.549832D-01 -0.396294D+01 -0.189987D-03  0.173194D-01 -0.105797D-01
     34  0.234342D-01  0.398995D-02 -0.224114D+01  0.837658D+00 -0.109582D+01
     35 -0.166098D-01 -0.506275D-02  0.722892D+00 -0.355777D+01 -0.431316D+00
     36  0.149439D-02  0.848155D-02 -0.956988D+00 -0.433487D+00 -0.333412D+01
     37 -0.777264D-01  0.268129D-01 -0.400924D+01 -0.394757D+00 -0.486913D-01
     38  0.123178D+00 -0.603670D-01 -0.178133D+00 -0.148989D+01  0.156149D+00
     39 -0.591920D-01 -0.292863D-01 -0.258073D-01  0.590948D-01 -0.397870D+01
     40 -0.331690D-01  0.554005D-01 -0.376772D+01  0.159476D+00  0.586991D+00
     41 -0.157828D-01 -0.446441D-01  0.120330D+00 -0.371991D+01  0.510637D+00
     42 -0.519424D-01  0.595411D-01  0.454753D+00  0.556083D+00 -0.152472D+01
     43  0.170855D-02  0.194731D-02  0.125713D-01  0.139850D-01  0.595467D-02
     44  0.632220D-02  0.648417D-02  0.199376D-01  0.676819D-02  0.588017D-02
     45  0.114159D-02 -0.793410D-02  0.891116D-02  0.688704D-02 -0.100765D-01
     46  0.844397D-02 -0.616274D-02  0.190257D-01  0.438638D-02 -0.220358D-02
     47 -0.537968D-02 -0.283388D-02  0.362706D-02 -0.519070D-02 -0.209804D-03
     48 -0.303699D-02 -0.894275D-02 -0.258060D-03  0.113837D-03 -0.625310D-02
     49 -0.117707D-01 -0.132697D-01  0.941127D-02 -0.579167D-02 -0.202664D-02
     50 -0.939749D-02  0.943722D-03 -0.773637D-02 -0.156656D-02  0.161130D-02
     51  0.156410D-02 -0.116256D-01 -0.852983D-03  0.380297D-03 -0.470679D-02
               16            17            18            19            20 
     16  0.100285D+02
     17  0.106053D+01  0.176783D+02
     18  0.488748D+01 -0.319554D+01  0.262392D+02
     19 -0.590573D+01 -0.430721D+01 -0.358213D+01  0.155737D+02
     20 -0.378859D+01 -0.615797D+01  0.291828D+01  0.184900D+01  0.103715D+02
     21 -0.341512D+01  0.302039D+01 -0.126257D+02  0.349052D+01 -0.391498D+01
     22 -0.410955D-01 -0.536721D-01 -0.257890D-01  0.589145D-01  0.831085D-01
     23 -0.257424D-01 -0.430704D-01 -0.730648D-02  0.972552D-01 -0.213492D-01
     24  0.149553D-01 -0.378412D-03  0.338868D-01  0.685454D-01  0.362003D-01
     25 -0.210682D-01  0.159271D-01 -0.923455D-02 -0.482691D-02  0.140923D-01
     26  0.231609D-01  0.156215D-01 -0.279088D-01  0.164130D-01 -0.408479D-02
     27 -0.266401D-01 -0.468124D-01  0.523570D-02 -0.369181D-01 -0.239650D-01
     28 -0.887272D-02  0.171869D-01 -0.850112D-03 -0.199422D-01 -0.132436D-01
     29  0.364015D-01  0.545392D-01  0.851811D-03  0.720160D-02 -0.599978D-02
     30  0.361323D-02  0.101458D-01 -0.176541D-01  0.347217D-02  0.297283D-02
     31  0.842694D-02  0.126631D-01 -0.166755D-02  0.233257D-01  0.129802D-01
     32  0.128900D-01  0.720719D-03 -0.265184D-02  0.172455D-01 -0.293308D-02
     33 -0.190509D-03 -0.809107D-03 -0.832970D-02 -0.526554D-02 -0.303127D-02
     34  0.199973D-01  0.656351D-02  0.767212D-03  0.214855D-01 -0.155965D-02
     35  0.128445D-01 -0.615617D-02 -0.620176D-03  0.697110D-02 -0.738715D-02
     36 -0.363910D-02 -0.161536D-02 -0.828355D-02 -0.566995D-02  0.239143D-03
     37  0.349451D-01 -0.876789D-02  0.189933D-01  0.329465D-01 -0.126082D-01
     38 -0.307585D-01 -0.130147D-01 -0.899443D-02 -0.274043D-01 -0.206950D-04
     39  0.184377D-01 -0.278115D-02 -0.156360D-01  0.599545D-02 -0.118618D-02
     40  0.156732D-01  0.802413D-02  0.118549D-01  0.163880D-01 -0.125799D-02
     41  0.109661D-01 -0.852852D-02  0.629236D-02  0.432252D-02 -0.950361D-02
     42  0.252837D-01  0.695891D-02  0.320016D-02  0.215774D-01 -0.212411D-02
     43 -0.427919D+01  0.826457D+00  0.127244D+00  0.285660D+00  0.182617D+00
     44  0.703088D+00 -0.165364D+01  0.486429D+00  0.261703D+00 -0.368203D+00
     45  0.101512D+00  0.470178D+00 -0.439980D+01  0.461016D-01 -0.160044D+00
     46 -0.385479D+00  0.143358D+00  0.260831D+00 -0.211353D+01  0.995730D+00
     47  0.111715D+00  0.275750D+00 -0.344361D-01  0.955190D+00 -0.394325D+01
     48  0.236995D+00 -0.433549D-01  0.141338D+00 -0.581141D+00 -0.228769D+00
     49  0.701451D-01 -0.193105D+00 -0.462112D-01  0.268834D-02  0.201206D-01
     50 -0.174859D+00  0.162623D+00  0.541780D-01  0.131335D+00 -0.235978D-01
     51 -0.370635D-01  0.499528D-01 -0.576295D-01  0.357865D-01 -0.215568D-01
               21            22            23            24            25 
     21  0.252180D+02
     22  0.138114D-01  0.400593D+01
     23  0.260169D-01  0.292690D+00  0.501207D+01
     24 -0.442652D-01  0.143405D+01 -0.687104D+00  0.247863D+01
     25 -0.154238D-01 -0.317358D-01  0.444019D-02 -0.135834D-01  0.384780D+01
     26 -0.163430D-01  0.710663D-02 -0.179362D-01 -0.528933D-01 -0.332522D-01
     27  0.189805D-01 -0.216055D-01 -0.385304D-01  0.109732D+00 -0.626923D+00
     28 -0.530600D-02  0.375455D-01 -0.798331D-02  0.856248D-02  0.128150D+00
     29 -0.105039D-01  0.274928D-02 -0.647208D-01  0.622757D-01  0.350397D-01
     30 -0.807133D-02  0.579371D-03  0.591728D-01 -0.708727D-03  0.766215D-01
     31 -0.770533D-02  0.244058D-01  0.327387D-01 -0.521900D-01 -0.856735D-01
     32 -0.487983D-02  0.404520D-01  0.582532D-02 -0.429658D-01 -0.763911D-01
     33 -0.752183D-02 -0.388447D-01 -0.292769D-01  0.171473D-01 -0.154624D+00
     34 -0.241782D-02  0.903856D-01 -0.115276D-01 -0.625297D-01  0.190898D-01
     35 -0.140622D-02 -0.115815D-02 -0.284280D-01  0.599452D-03 -0.744615D-02
     36 -0.480712D-02 -0.439485D-01  0.479135D-02 -0.448318D-02  0.111809D-01
     37  0.428116D-02  0.199925D-01 -0.297381D-01 -0.154403D-01 -0.500595D-03
     38 -0.121800D-02 -0.349499D-01  0.151161D-01  0.188918D-01 -0.185128D-02
     39 -0.106788D-01 -0.709986D-02  0.598655D-02 -0.113948D-01 -0.378563D-03
     40  0.774340D-02 -0.570695D-01  0.119964D-01 -0.271132D-01 -0.158657D-03
     41  0.161065D-02  0.142521D-01  0.236051D-01  0.354380D-02 -0.971301D-04
     42 -0.111306D-02 -0.208368D-01  0.265639D-02  0.153656D-01  0.344521D-02
     43  0.310077D-01  0.220574D-03  0.178993D-01  0.148534D-01 -0.746997D-03
     44 -0.155580D+00  0.126480D-01  0.207248D-01  0.263828D-01  0.183195D-02
     45  0.264078D+00  0.770795D-02  0.151894D-01  0.369875D-02 -0.873116D-03
     46 -0.590362D+00 -0.179135D-01 -0.193144D-02  0.195439D-02  0.907507D-04
     47 -0.221164D+00 -0.544225D-02  0.170131D-02  0.165484D-02  0.758413D-03
     48 -0.430329D+01 -0.234141D-02 -0.525321D-03  0.561897D-03 -0.715279D-03
     49  0.283125D-01  0.201573D-01 -0.107052D-01  0.161583D-01  0.621962D-02
     50 -0.335483D-01 -0.127312D-01 -0.245082D-02 -0.815919D-02 -0.158027D-02
     51  0.312919D-01  0.419531D-02 -0.183070D-02 -0.631178D-02 -0.455496D-02
               26            27            28            29            30 
     26  0.398453D+01
     27  0.128163D+00  0.179240D+01
     28  0.121514D-01  0.475053D-01  0.343131D+01
     29  0.341367D-01 -0.191943D+00  0.988847D+00  0.266352D+01
     30 -0.161492D+00 -0.169047D+00  0.428380D+00 -0.703876D+00  0.400438D+01
     31 -0.574030D-01 -0.149527D+00 -0.201067D+00  0.903124D-01  0.937233D-01
[...]
   yx         0.565146D+01      0.837461D+00      0.931801D+00
   yy         0.664160D+02      0.984184D+01      0.109505D+02
   zx         0.784705D+00      0.116281D+00      0.129380D+00
   zy        -0.875332D+01     -0.129711D+01     -0.144323D+01
   zz         0.766479D+02      0.113580D+02      0.126375D+02

 ----------------------------------------------------------------------

 Test job not archived.
 1\1\GINC-C0319\Freq\RM062X\CC-pVTZ\C5H10O2\HARMS.N\26-Sep-2019\0\\#P G
 eom=AllCheck Guess=TCheck SCRF=Check Test GenChk RM062X/CC-pVTZ Freq\\
 Gaussian input prepared by ASE\\0,1\O,2.6390061775,1.9498018018,1.1875
 608758\O,2.836601558,-0.0601649269,3.4545842361\C,3.3182838444,2.55364
 8725,2.2967489593\C,2.3160934695,3.0359974344,3.32942442\C,4.122451047
 ,3.6919172223,1.7048039375\C,1.9947899006,0.7736726744,1.3586064169\C,
 2.0462272791,-0.1318516186,2.3306273852\H,3.9864653297,1.8174070596,2.
 7432271045\H,1.6528469803,3.7775628925,2.882053788\H,1.7199445384,2.20
 89787805,3.7093208655\H,2.8379574856,3.4958300601,4.1687641445\H,3.454
 3316032,4.4089567832,1.2269096089\H,4.8210796673,3.3187565807,0.958065
 8802\H,4.682566882,4.2040266302,2.48645719\H,1.3535471666,0.550799393,
 0.5175516349\H,1.4319038199,-1.0151713204,2.2236677988\H,2.5134909469,
 -0.6871669378,4.1033812096\\Version=EM64L-G16RevA.03\State=1-A\HF=-346
 .9424039\RMSD=4.097e-09\RMSF=6.597e-07\ZeroPoint=0.1472914\Thermal=0.1
 559755\Dipole=-0.2587931,-0.455331,0.6130394\DipoleDeriv=-0.6185392,-0
 .8181885,0.0332147,-0.4675369,-1.3880524,0.0783067,-0.1424552,-0.21778
 56,-0.5742016,-0.4345069,0.2849351,-0.5034021,0.0260919,-0.4502335,0.0
 264207,-0.2734539,0.3446798,-0.992688,0.4914908,0.3456642,-0.0415798,0
 .1839035,0.6057696,0.1544881,0.1117805,0.4516001,0.4741407,-0.0469461,
 -0.0264914,0.1532035,-0.0314008,-0.0020846,-0.0125403,0.0675825,-0.109
 8098,-0.035434,0.0225981,-0.0863714,0.0446827,-0.072539,-0.0219105,0.0
 08738,0.0646284,0.0172612,0.0503097,0.1962226,0.6251178,-0.0140162,0.4
 756533,1.0795961,-0.1853559,-0.0049853,-0.2268481,0.0743696,0.0838722,
 -0.12101,0.550762,0.0240044,-0.0803077,-0.0605482,0.4186692,-0.2043421
 ,0.6527705,-0.0443712,0.0168587,-0.010604,0.0764782,-0.0497988,0.02568
 14,-0.0357843,-0.0632808,-0.0121435,-0.0030547,0.0733592,-0.013404,0.0
 823648,-0.0236626,0.0216981,-0.05773,0.0832055,0.0121166,-0.0151206,-0
 .0609436,0.0505004,-0.0764293,-0.0050762,0.0640024,0.045458,0.0476046,
 0.0339844,0.0141671,-0.0375399,-0.091585,-0.0243925,0.0169689,-0.06850
 87,-0.0590187,-0.0882583,-0.0321176,-0.0254422,0.1002481,-0.0602438,0.
 0326677,-0.0162482,0.0454072,-0.0158936,0.0643822,0.0327676,-0.017701,
 0.019866,0.0834022,0.0426035,0.0317436,-0.0449465,0.1069792,-0.0071552
 ,-0.0267759,0.0203447,-0.0600641,-0.0452796,-0.0525606,0.0005709,-0.03
 21558,-0.0825178,-0.073335,-0.0434172,0.0530071,-0.0766287,-0.0851413,
 -0.0686486,0.0094225,-0.0044626,-0.0822746,-0.0296104,0.024586,0.06020
 32,-0.0755952,-0.0889256,-0.097161,-0.0214786,0.008742,-0.0561785,0.02
 18897,0.0437908,0.263776,-0.1032163,0.0384158,-0.0530986,0.3147814,-0.
 0249667,-0.004806,-0.0101977,0.3179417\Polar=59.0104946,8.3617834,76.8
 370501,0.9221924,-5.8629432,66.5123274\Quadrupole=-1.6154382,2.5454032
 ,-0.929965,3.0624379,0.0464072,-1.9102059\PG=C01 [X(C5H10O2)]\NImag=0\
 \0.22053712,0.21062803,0.42929990,0.08464205,0.01619813,0.31029998,0.0
 0904974,0.01769145,0.00296049,0.23592668,0.00335836,0.00417775,-0.0035
 8733,0.17027717,0.31747938,0.01804375,0.01400721,0.00417314,0.04788486
 ,-0.24511000,0.52835261,-0.08926380,-0.02301636,-0.04425879,-0.0073314
 1,-0.00398467,-0.00228433,0.54022801,-0.01950241,-0.08966632,-0.011139
 09,-0.00195158,-0.00369347,-0.00101576,-0.05266762,0.56619875,-0.05666
 786,-0.03102702,-0.16789946,-0.00565795,-0.00256773,-0.00707951,0.0068
 8494,-0.07094555,0.49632297,0.00989319,-0.01326602,-0.01895085,0.00000
 531,0.00190968,0.00236119,-0.14323816,0.03065793,0.06212711,0.54307775
 ,0.00378431,-0.01018049,-0.02173181,0.00069204,-0.00113373,0.00061628,
 0.02871568,-0.09379823,-0.02011571,0.02866179,0.57505473,0.00924284,-0
 .02203832,-0.03653515,0.00094155,0.00078717,0.00097422,0.05266784,-0.0
 1891125,-0.12171898,0.04343586,-0.02532025,0.53969815,-0.01696242,-0.0
 2654575,0.00056172,0.00119912,0.00097363,-0.00016995,-0.11144333,-0.04
 184931,0.02669666,-0.01692547,-0.01807132,0.01539974,0.56382131,-0.018
 49252,-0.02276179,-0.00118129,-0.00025435,-0.00040765,0.00071309,-0.04
 659809,-0.15325036,0.04309619,0.00470686,0.00978387,-0.00034086,-0.033
 87845,0.53164566,-0.02369173,-0.03345819,0.00557096,0.00108506,0.00067
 876,0.00118824,0.03650479,0.05428587,-0.10227506,0.01636690,0.01954311
 ,-0.01129402,0.01712345,0.03392662,0.57849798,-0.11105553,-0.11379473,
 -0.01235096,-0.00512858,0.01903413,-0.04089188,-0.02244307,-0.02189664
 ,-0.00455962,0.00402804,0.00298331,0.00279858,-0.00136955,-0.00120489,
 -0.00254696,0.35158625,-0.12118639,-0.26501410,0.02805423,-0.00939413,
 0.01276208,-0.01744656,-0.01709432,-0.02633387,-0.01176803,0.00398662,
 0.00269614,0.00127353,-0.00001793,0.00037253,-0.00013845,0.17769517,0.
 64157174,0.00310493,0.05202325,-0.10651995,-0.00849871,0.02550630,-0.0
 3174992,-0.01285084,-0.02650493,0.00657590,-0.00267176,-0.00246962,-0.
 00075076,-0.00188059,-0.00163574,-0.00400057,0.20548371,-0.22820309,0.
 70445421,-0.00629557,-0.03923709,0.01604400,-0.14195159,-0.02717022,-0
 .13967543,0.00962608,0.00295401,0.01142559,-0.00166048,-0.00057934,-0.
 00154742,-0.00113294,-0.00016736,-0.00150826,-0.07338766,-0.00137609,-
 0.03721519,0.34185450,-0.01454721,-0.04120932,0.02849460,-0.04726235,-
 0.08336865,-0.00508782,0.00487531,0.00304099,0.00759205,-0.00020077,-0
 .00038510,-0.00090318,-0.00029503,-0.00006800,-0.00094036,-0.01415197,
 -0.29975172,0.22421231,0.19330603,0.66472278,-0.00821761,-0.00613511,0
 .00555801,-0.10568271,0.02546761,-0.23445147,0.00589672,0.00127993,0.0
 0896282,-0.00103892,0.00010641,-0.00199837,-0.00120107,-0.00012481,-0.
 00152770,-0.02049427,0.24410260,-0.33588404,0.17651438,-0.25997858,0.6
 5486183,-0.01535914,0.00217227,-0.01746304,0.00133412,0.00008095,0.001
 12689,-0.14680603,0.10841095,-0.05899665,-0.01398056,0.01714280,-0.006
 50493,0.01255969,-0.01388527,0.00890482,0.00213896,0.00394616,-0.00060
 615,-0.00238661,-0.00116037,-0.00181576,0.16268885,-0.01702686,0.00994
 764,-0.01425406,-0.00232633,-0.00526166,0.00377947,0.11603296,-0.17812
 661,0.07460150,0.00665355,-0.00635376,0.00370126,0.01354898,-0.0171065
 5,0.01004260,0.00100561,0.00476902,-0.00070460,0.00032176,0.00007635,-
 0.00080275,-0.11546474,0.19308701,-0.02620594,0.00966895,-0.02376021,0
 .00107496,0.00218788,-0.00023965,-0.06129339,0.06787294,-0.08879714,0.
 01562926,-0.01611863,0.00989754,-0.00554039,0.00993220,-0.00426392,0.0
 0201518,0.00358077,0.00017827,-0.00060009,-0.00122933,0.00037182,0.071
 03324,-0.07597830,0.10797831,0.00238764,-0.00152187,-0.00025095,0.0002
 0739,-0.00033230,-0.00052662,-0.01767227,0.01666687,-0.01090806,-0.143
 50468,0.10818295,-0.06657997,0.00085908,0.00066034,-0.00138871,-0.0001
 9765,-0.00013534,0.00014308,0.00000133,-0.00015835,0.00022055,-0.00200
 596,0.00084654,0.00410075,0.15640557,-0.00093240,0.00124125,0.00042961
 ,-0.00017614,-0.00091284,-0.00092415,0.00812414,-0.00925082,0.00471155
 ,0.10845310,-0.17054478,0.07668013,-0.00121397,0.00060670,0.00009605,-
 0.00039398,-0.00069224,0.00007102,0.00069692,0.00024422,0.00100567,0.0
 0118079,0.00030668,-0.00177185,-0.12193463,0.18259015,-0.00048606,0.00
 188834,0.00236113,-0.00012424,0.00017441,0.00038134,0.01594678,-0.0167
 9424,0.00854333,-0.06871416,0.07738146,-0.09405879,-0.00046193,-0.0010
 9565,0.00127946,-0.00034594,-0.00030119,0.00009806,0.00005476,0.000166
 46,-0.00018068,0.00329865,-0.00156322,-0.00284793,0.07139602,-0.083540
 33,0.09929729,0.00145027,0.00065769,-0.00122667,-0.00026302,-0.0008687
 8,-0.00165735,-0.01341307,-0.01907773,0.00596207,-0.12771441,-0.112402
 43,0.05167007,-0.00240925,0.00299067,0.00308539,-0.00026545,-0.0006366
 4,-0.00004959,0.00109362,0.00029134,0.00171240,0.00050081,-0.00028333,
 -0.00047912,0.01240761,0.01572505,-0.00661076,0.13735156,-0.00044575,0
 .00022675,0.00124396,0.00050506,-0.00163302,-0.00014279,0.00634460,0.0
 0967884,-0.00368270,-0.11609678,-0.20869814,0.07385823,0.00123991,-0.0
 0028646,-0.00167469,0.00017705,0.00008976,0.00003377,0.00029160,-0.002
 14555,-0.00167336,-0.00050655,0.00056337,0.00063228,-0.01156710,-0.015
 01356,0.00560082,0.12505213,0.22662613,-0.00118945,0.00011840,0.001929
 78,-0.00033406,0.00068779,-0.00065889,0.01232818,0.01919469,-0.0087791
 1,0.05077609,0.07205574,-0.07898971,0.00277287,-0.00288519,-0.00296657
 ,0.00002006,0.00022623,-0.00116453,0.00026175,-0.00139774,0.00052234,-
 0.00078366,-0.00017565,0.00055854,0.00780397,0.00935710,-0.00512454,-0
 .05872915,-0.07842887,0.08414812,-0.00085927,0.00349112,0.00612773,-0.
 00014156,-0.00017139,-0.00005279,0.01167292,0.00781814,0.01471966,-0.1
 1072586,-0.05492187,-0.10143489,0.00038183,-0.00024557,-0.00035392,-0.
 00073720,-0.00138003,0.00069387,0.00030560,0.00031033,-0.00035751,0.00
 063180,-0.00004734,-0.00111644,-0.00917501,-0.00936415,-0.01345039,-0.
 00861733,-0.00564519,-0.01378871,0.11726319,0.00091572,-0.00103760,-0.
 00269076,0.00047096,-0.00020003,0.00070790,-0.00697254,-0.00561749,-0.
 00606615,-0.05404757,-0.09388489,-0.08788094,-0.00044387,-0.00002820,0
 .00033537,0.00071447,0.00093252,-0.00004572,-0.00033881,0.00034024,-0.
 00040216,0.00005560,-0.00001191,0.00037624,0.01010657,0.01072736,0.017
 81259,-0.01067322,-0.00969160,-0.01981772,0.06012605,0.09834844,0.0025
 9372,-0.00473944,-0.00475029,0.00055142,-0.00013530,0.00048910,-0.0144
 3176,-0.00678012,-0.01476238,-0.09914315,-0.08731586,-0.20533589,-0.00
 103976,0.00009699,0.00051341,0.00132356,0.00259476,-0.00049435,-0.0007
 1055,-0.00030255,0.00000994,0.00027342,-0.00012385,0.00080473,-0.00490
 241,-0.00555097,-0.00965508,0.00570776,0.00460448,0.01009853,0.1088264
 4,0.09728262,0.22276941,0.00134811,0.00186149,0.00060526,-0.00021200,-
 0.00023641,-0.00001542,0.01073139,-0.01281101,0.00854862,0.00171534,-0
 .00066108,-0.00023177,-0.15145730,0.11037627,-0.07280411,-0.00007805,-
 0.00025541,0.00019256,0.00021145,0.00010480,0.00019089,-0.00134653,-0.
 00297555,0.00125102,-0.00012710,0.00014916,-0.00026406,0.00008657,0.00
 002816,-0.00014411,-0.00002606,0.00010578,0.00008354,0.16152998,0.0008
 6519,0.00259808,-0.00034962,-0.00048675,-0.00036321,-0.00007012,0.0172
 2265,-0.02062964,0.01338434,0.00104984,0.00084112,-0.00140900,0.108479
 93,-0.15985895,0.07511618,-0.00028112,0.00002024,-0.00024724,0.0005707
 0,0.00032109,0.00052138,-0.00382361,-0.00258241,0.00136990,-0.00069965
 ,0.00069744,0.00035399,-0.00014787,0.00010744,-0.00033766,-0.00011068,
 0.00003785,-0.00007100,-0.11824398,0.17469860,0.00041807,-0.00115745,0
 .00084705,0.00014514,0.00019630,-0.00017993,-0.00972019,0.00976603,-0.
 00808701,-0.00129882,0.00003705,0.00022748,-0.07119987,0.07582074,-0.0
 9795444,0.00001061,-0.00039947,0.00008724,-0.00013425,-0.00003855,-0.0
 0015833,0.00210047,0.00159773,0.00001380,0.00075823,-0.00008717,-0.000
 14871,0.00016725,-0.00027865,0.00022983,0.00002419,0.00007906,-0.00005
 923,0.07780479,-0.08644427,0.10370193,0.00157492,0.00122529,-0.0005035
 1,-0.00017117,-0.00012301,-0.00032740,-0.01245594,0.00716018,0.0116989
 6,-0.00125046,-0.00387499,0.00076958,-0.15889102,0.06173972,0.11849405
 ,-0.00013267,-0.00046443,-0.00016139,0.00034642,0.00023455,0.00026533,
 0.00078127,-0.00020708,-0.00058298,0.00046973,-0.00019745,-0.00022155,
 -0.00045993,0.00035182,0.00106705,0.00017295,0.00016075,0.00016256,-0.
 01233009,0.00601577,0.01382188,0.16990218,0.00198032,0.00181645,0.0002
 3495,-0.00005085,-0.00001948,-0.00023980,-0.01839829,0.00944336,0.0189
 4667,-0.00259154,-0.00408775,0.00104458,0.06374981,-0.08193963,-0.0672
 4999,-0.00007992,-0.00033993,0.00011838,0.00015104,0.00016430,0.000157
 35,0.00080428,0.00126288,-0.00034026,-0.00030728,0.00001985,-0.0000796
 8,-0.00122562,0.00057444,0.00105254,0.00018007,-0.00010756,0.00004957,
 0.01197294,-0.00741731,-0.01507974,-0.06626645,0.08637392,-0.00113887,
 -0.00027165,0.00105949,-0.00006075,0.00010547,0.00003106,0.00778675,-0
 .00621253,-0.01079929,0.00104608,0.00323002,-0.00029794,0.11952300,-0.
 06465447,-0.17442336,-0.00016323,0.00007943,0.00015948,-0.00005996,-0.
 00003451,0.00000381,-0.00040737,-0.00006751,0.00003994,0.00008171,-0.0
 0012041,0.00006361,0.00088074,-0.00043958,-0.00033631,-0.00019991,0.00
 008926,0.00040999,-0.00983647,0.00499829,0.01105380,-0.13236281,0.0700
 2967,0.18767028,-0.00218182,-0.00483709,0.00118785,0.00023823,0.000051
 42,0.00036490,-0.00837898,-0.00335698,-0.01378451,0.00036035,0.0004621
 6,-0.00060087,-0.11831648,-0.06544621,-0.09879274,0.00026887,0.0003767
 9,-0.00067677,-0.00041830,-0.00022332,-0.00031014,0.00052988,0.0000563
 3,0.00023566,-0.00008711,-0.00005975,-0.00004213,0.00027799,0.00013339
 ,0.00014469,-0.00023229,-0.00013855,0.00080507,-0.01002810,-0.01029572
 ,-0.01295397,0.01254827,0.01008748,0.01482850,0.12553937,-0.00458576,-
 0.00640097,0.00174755,0.00038709,0.00006039,0.00055872,-0.00926916,-0.
 00821587,-0.02028068,0.00053300,0.00062722,-0.00071950,-0.06534902,-0.
 10598857,-0.08921448,-0.00052462,0.00115868,-0.00108038,-0.00048450,-0
 .00026972,-0.00046409,0.00098107,0.00028717,0.00000537,0.00001600,-0.0
 0000121,0.00015300,0.00033275,-0.00009061,0.00013512,-0.00011678,0.000
 36117,0.00044907,0.01058702,0.01166169,0.01586562,-0.00581132,-0.00583
 995,-0.00669510,0.07345264,0.11311240,0.00207386,0.00270852,0.00029343
 ,-0.00000173,-0.00005532,0.00005932,0.00651668,0.00460997,0.00866652,-
 0.00004177,-0.00010849,-0.00005753,-0.10100558,-0.09162492,-0.18861901
 ,0.00063700,0.00052526,0.00089976,-0.00004927,-0.00009200,-0.00000809,
 -0.00066587,-0.00052914,0.00041308,0.00002901,-0.00013604,0.00000835,-
 0.00012499,0.00001539,0.00028156,0.00046112,0.00029255,-0.00002255,-0.
 00531905,-0.00665904,-0.00965752,-0.01215448,-0.00867216,-0.01460651,0
 .10955215,0.09951694,0.20238204,-0.01151554,-0.01271751,-0.01388861,0.
 00679874,-0.00255325,-0.00181286,0.00156099,-0.00007426,0.00364414,-0.
 00020708,-0.00016783,-0.00027673,-0.00021128,-0.00028151,-0.00070342,-
 0.14054682,-0.03607778,-0.14072753,-0.00034890,-0.00009725,-0.00097532
 ,-0.00000883,0.00012316,0.00006270,0.00004819,0.00005595,0.00001288,0.
 00006569,-0.00007041,-0.00009254,0.00009573,-0.00005958,-0.00008852,0.
 00002351,-0.00002182,0.00000984,-0.00003031,0.00001770,0.00001634,-0.0
 0012694,-0.00020692,0.00010071,0.14670363,-0.02442622,-0.01773574,-0.0
 2656725,-0.00415176,-0.00105252,0.00440273,-0.00220005,-0.00080992,0.0
 0417812,-0.00021449,0.00004730,0.00005499,-0.00068392,-0.00041900,-0.0
 0136014,-0.03468579,-0.05456532,-0.03539551,0.01332466,0.00583210,0.01
 514669,-0.00043463,-0.00030515,-0.00041256,0.00005990,-0.00006779,-0.0
 0001255,0.00014243,0.00002716,-0.00004464,0.00010480,-0.00004493,-0.00
 009506,0.00008586,-0.00003151,0.00004281,0.00000955,0.00005566,0.00001
 894,-0.00023081,-0.00043267,0.00022301,0.05062593,0.07048786,0.0026547
 9,-0.00086869,0.00744280,-0.00075537,0.00504242,0.00084087,0.00053885,
 0.00159039,0.00149124,0.00001987,0.00014383,0.00023247,0.00007373,0.00
 005744,-0.00000160,-0.14262523,-0.03691835,-0.23361642,-0.01423219,-0.
 00772349,-0.01465594,0.00002666,0.00001971,-0.00011793,-0.00002209,-0.
 00010114,0.00001723,-0.00008233,0.00011294,0.00006468,-0.00000942,0.00
 001641,-0.00000899,-0.00001428,-0.00000205,0.00001642,0.00002768,0.000
 01204,0.00000019,-0.00000049,0.00000935,-0.00000276,0.15347931,0.03875
 870,0.23950138,0.00741808,-0.00222519,-0.00355146,-0.01216288,-0.01358
 334,-0.01008295,-0.00045417,-0.00034570,-0.00076902,-0.00001791,-0.000
 13591,0.00015390,0.00011401,0.00002456,0.00012971,0.00011151,0.0027592
 0,-0.00083595,-0.12877817,-0.14226874,-0.01996585,0.00027923,0.0001531
 1,0.00012387,-0.00002987,-0.00007156,0.00002536,-0.00009414,0.00007984
 ,-0.00002151,0.00002958,0.00005974,-0.00001318,-0.00000788,-0.00002556
 ,0.00000607,-0.00005120,-0.00001959,0.00003207,0.00000155,0.00007210,0
 .00001430,-0.00279345,0.00234875,0.00219219,0.13607104,-0.00211388,0.0
 0231853,0.00512839,0.00176220,0.00459817,-0.00110945,0.00048107,0.0010
 4133,0.00070276,0.00001868,0.00009200,-0.00005452,-0.00006204,-0.00007
 621,-0.00018353,-0.01235959,-0.01652244,-0.00455398,-0.14324827,-0.247
 46855,-0.01060516,-0.00002887,0.00000482,-0.00016572,0.00002997,-0.000
 02033,0.00000807,-0.00009239,0.00004925,0.00003049,-0.00001008,-0.0000
 4882,-0.00001293,0.00001310,0.00001958,0.00001872,0.00003833,0.0000236
 3,-0.00001078,-0.00003756,-0.00007477,-0.00001776,0.00228407,-0.001286
 59,-0.00062982,0.15356454,0.25568464,-0.00454392,0.00461421,-0.0002548
 0,-0.02246987,-0.02251699,-0.01160864,-0.00074308,-0.00025137,-0.00121
 648,0.00018856,0.00013927,0.00011125,0.00019208,0.00006019,0.00027181,
 0.01460045,0.01824332,0.00459139,-0.02024392,-0.00984977,-0.05089889,0
 .00021110,-0.00000039,-0.00013417,0.00002113,-0.00006045,0.00000276,-0
 .00017606,0.00002587,-0.00004996,-0.00003837,0.00005461,0.00006782,-0.
 00002013,-0.00008410,0.00002619,-0.00001658,-0.00001202,-0.00001930,0.
 00008578,0.00006179,-0.00001041,0.00234701,-0.00035585,-0.00126100,0.0
 3178681,0.01211085,0.05772392,-0.00016598,-0.00056571,0.00031573,-0.08
 739714,-0.14666196,0.12771540,-0.00091917,-0.00013484,-0.00036406,0.00
 014508,0.00018974,0.00009660,0.00018400,-0.00004421,0.00009567,-0.0027
 9139,-0.00074546,-0.00344368,0.00292123,0.02124301,-0.02474113,0.00044
 904,-0.00041078,0.00029173,0.00001310,-0.00004108,-0.00001321,0.000002
 49,0.00012824,-0.00009147,-0.00003901,-0.00004151,0.00000184,-0.000033
 24,-0.00006732,0.00004057,-0.00002295,-0.00000411,0.00003418,0.0000055
 0,-0.00001360,-0.00002209,0.00049268,0.00032580,-0.00127170,0.00036467
 ,-0.00023929,-0.00118101,0.08679108,0.00172746,0.00237998,-0.00003021,
 -0.12573172,-0.24103151,0.24636105,-0.00159530,-0.00001067,-0.00075962
 ,-0.00021387,-0.00007550,0.00017793,0.00041834,-0.00021740,0.00019528,
 -0.00223648,-0.00115307,-0.00112420,0.00098496,-0.00007546,-0.00760163
 ,0.00052917,-0.00055687,0.00039013,0.00008736,0.00006993,-0.00015228,0
 .00021596,-0.00038421,0.00022935,-0.00001744,-0.00007454,0.00004959,-0
 .00010114,-0.00012010,0.00006122,0.00000877,0.00001711,-0.00004453,0.0
 0000580,0.00004561,0.00000322,-0.00077869,0.00030104,0.00048031,-0.000
 38624,0.00166576,-0.00217918,0.12708306,0.23921991,-0.00063257,-0.0015
 3113,0.00018407,0.08894193,0.21313856,-0.25052189,0.00051084,-0.000044
 97,0.00085165,-0.00009151,-0.00007281,-0.00010398,0.00015589,-0.000160
 53,0.00000439,-0.00291106,-0.00350497,-0.00286376,0.01167605,0.0271124
 6,-0.03052705,0.00026818,0.00045718,-0.00009507,0.00002437,-0.00005862
 ,-0.00003683,-0.00004967,0.00019290,0.00023625,-0.00005066,-0.00014317
 ,-0.00007418,-0.00002728,-0.00006997,0.00004144,0.00002361,0.00002790,
 -0.00000892,-0.00004297,-0.00004831,-0.00001969,-0.00110739,0.00141757
 ,0.00005736,0.00077563,-0.00065563,0.00265850,-0.09746337,-0.23605643,
 0.28021772\\0.00000078,0.00000019,-0.00000009,-0.00000139,0.00000026,-
 0.00000018,0.00000024,-0.00000009,0.00000014,-0.00000016,0.00000032,-0
 .00000029,0.00000095,-0.00000064,0.00000059,0.00000015,-0.00000006,-0.
 00000036,-0.00000054,0.00000030,-0.00000010,-0.00000011,-0.00000055,0.
 00000079,0.00000025,0.00000042,-0.00000077,-0.00000074,0.00000041,-0.0
 0000064,-0.00000053,0.00000010,-0.00000005,0.00000143,-0.00000017,0.00
 000015,0.00000127,-0.00000078,0.00000108,0.00000073,-0.00000059,0.0000
 0100,0.00000058,0.00000028,-0.00000081,-0.00000090,0.00000044,-0.00000
 061,-0.00000199,0.00000014,0.00000016\\\@


 THE MORE POWERFUL THE METHOD, THE MORE CATASTROPHIC THE ERRORS.
     -- M.D. KAMEN
 Job cpu time:       0 days  3 hours 43 minutes 19.6 seconds.
 Elapsed time:       0 days  1 hours 57 minutes 27.8 seconds.
 File lengths (MBytes):  RWF=   1392 Int=      0 D2E=      0 Chk=     32 Scr=     32
 Normal termination of Gaussian 16 at Thu Sep 26 21:19:34 2019.
