 Entering Gaussian System, Link 0=g16
 Input=med/species/CC(C)OC=CO/conformers/CC(C)OC=CO_50.com
 Output=med/species/CC(C)OC=CO/conformers/CC(C)OC=CO_50.log
 Initial command:
 /shared/centos7/gaussian/g16/l1.exe "/scratch/harms.n/gauss_scrdir/Gau-41106.inp" -scrdir="/scratch/harms.n/gauss_scrdir/"
 Entering Link 1 = /shared/centos7/gaussian/g16/l1.exe PID=     41107.
  
 Copyright (c) 1988,1990,1992,1993,1995,1998,2003,2009,2016,
            Gaussian, Inc.  All Rights Reserved.
  
 This is part of the Gaussian(R) 16 program.  It is based on
 the Gaussian(R) 09 system (copyright 2009, Gaussian, Inc.),
 the Gaussian(R) 03 system (copyright 2003, Gaussian, Inc.),
 the Gaussian(R) 98 system (copyright 1998, Gaussian, Inc.),
 the Gaussian(R) 94 system (copyright 1995, Gaussian, Inc.),
 the Gaussian 92(TM) system (copyright 1992, Gaussian, Inc.),
 the Gaussian 90(TM) system (copyright 1990, Gaussian, Inc.),
 the Gaussian 88(TM) system (copyright 1988, Gaussian, Inc.),
 the Gaussian 86(TM) system (copyright 1986, Carnegie Mellon
 University), and the Gaussian 82(TM) system (copyright 1983,
 Carnegie Mellon University). Gaussian is a federally registered
 trademark of Gaussian, Inc.
  
 This software contains proprietary and confidential information,
 including trade secrets, belonging to Gaussian, Inc.
  
 This software is provided under written license and may be
 used, copied, transmitted, or stored only in accord with that
 written license.
  
 The following legend is applicable only to US Government
 contracts under FAR:
  
                    RESTRICTED RIGHTS LEGEND
  
 Use, reproduction and disclosure by the US Government is
 subject to restrictions as set forth in subparagraphs (a)
 and (c) of the Commercial Computer Software - Restricted
 Rights clause in FAR 52.227-19.
  
 Gaussian, Inc.
 340 Quinnipiac St., Bldg. 40, Wallingford CT 06492
  
  
 ---------------------------------------------------------------
 Warning -- This program may not be used in any manner that
 competes with the business of Gaussian, Inc. or will provide
 assistance to any competitor of Gaussian, Inc.  The licensee
 of this program is prohibited from giving any competitor of
 Gaussian, Inc. access to this program.  By using this program,
 the user acknowledges that Gaussian, Inc. is engaged in the
 business of creating and licensing software in the field of
 computational chemistry and represents and warrants to the
 licensee that it is not a competitor of Gaussian, Inc. and that
 it will not use this program in any manner prohibited above.
 ---------------------------------------------------------------
  

 Cite this work as:
 Gaussian 16, Revision A.03,
 M. J. Frisch, G. W. Trucks, H. B. Schlegel, G. E. Scuseria, 
 M. A. Robb, J. R. Cheeseman, G. Scalmani, V. Barone, 
 G. A. Petersson, H. Nakatsuji, X. Li, M. Caricato, A. V. Marenich, 
 J. Bloino, B. G. Janesko, R. Gomperts, B. Mennucci, H. P. Hratchian, 
 J. V. Ortiz, A. F. Izmaylov, J. L. Sonnenberg, D. Williams-Young, 
 F. Ding, F. Lipparini, F. Egidi, J. Goings, B. Peng, A. Petrone, 
 T. Henderson, D. Ranasinghe, V. G. Zakrzewski, J. Gao, N. Rega, 
 G. Zheng, W. Liang, M. Hada, M. Ehara, K. Toyota, R. Fukuda, 
 J. Hasegawa, M. Ishida, T. Nakajima, Y. Honda, O. Kitao, H. Nakai, 
 T. Vreven, K. Throssell, J. A. Montgomery, Jr., J. E. Peralta, 
 F. Ogliaro, M. J. Bearpark, J. J. Heyd, E. N. Brothers, K. N. Kudin, 
 V. N. Staroverov, T. A. Keith, R. Kobayashi, J. Normand, 
 K. Raghavachari, A. P. Rendell, J. C. Burant, S. S. Iyengar, 
 J. Tomasi, M. Cossi, J. M. Millam, M. Klene, C. Adamo, R. Cammi, 
 J. W. Ochterski, R. L. Martin, K. Morokuma, O. Farkas, 
 J. B. Foresman, and D. J. Fox, Gaussian, Inc., Wallingford CT, 2016.
 
 ******************************************
 Gaussian 16:  EM64L-G16RevA.03 25-Dec-2016
                26-Sep-2019 
 ******************************************
 %nprocshared=20
 Will use up to   20 processors via shared memory.
 %mem=5GB
 ----------------------------------------------------------------------
 #p m062x/cc-pVTZ opt=(calcfc,maxcycles=900,Tight) freq IOP(7/33=1,2/16
 =3) scf=(maxcycle=900)
 ----------------------------------------------------------------------
 1/6=900,7=10,10=4,18=20,19=15,26=3,38=1/1,3;
 2/9=110,12=2,16=3,17=6,18=5,40=1/2;
 3/5=16,6=1,11=2,25=1,30=1,71=2,74=-55,140=1/1,2,3;
 4//1;
 5/5=2,7=900,38=5/2;
 8/6=4,10=90,11=11/1;
 11/6=1,8=1,9=11,15=111,16=1/1,2,10;
 10/6=1,13=1/2;
 6/7=2,8=2,9=2,10=2,28=1/1;
 7/10=1,18=20,25=1,33=1/1,2,3,16;
 1/6=900,7=10,10=4,18=20,19=15,26=3/3(2);
 2/9=110,16=3/2;
 99//99;
 2/9=110,16=3/2;
 3/5=16,6=1,11=2,25=1,30=1,71=1,74=-55/1,2,3;
 4/5=5,16=3,69=1/1;
 5/5=2,7=900,38=5/2;
 7/33=1/1,2,3,16;
 1/6=900,7=10,18=20,19=15,26=3/3(-5);
 2/9=110,16=3/2;
 6/7=2,8=2,9=2,10=2,19=2,28=1/1;
 99/9=1/99;
 Leave Link    1 at Thu Sep 26 09:42:13 2019, MaxMem=   671088640 cpu:               4.1 elap:               2.1
 (Enter /shared/centos7/gaussian/g16/l101.exe)
 ------------------------------
 Gaussian input prepared by ASE
 ------------------------------
 Symbolic Z-matrix:
 Charge =  0 Multiplicity = 1
 O                     3.59757  -2.80269   0.52663 
 O                     2.42923  -2.14686   2.98001 
 C                     3.15891  -3.58597  -0.5633 
 C                     4.04202  -4.83205  -0.62987 
 C                     3.08382  -2.83963  -1.85458 
 C                     2.83587  -1.6695    0.69862 
 C                     2.32499  -1.3473    1.85154 
 H                     2.11265  -3.92549  -0.3258 
 H                     4.94196  -4.69063   0.0044 
 H                     3.49606  -5.71647  -0.25409 
 H                     4.39443  -5.0423   -1.67593 
 H                     3.92206  -3.11446  -2.56063 
 H                     3.12606  -1.74159  -1.69771 
 H                     2.11349  -3.07281  -2.37768 
 H                     2.72653  -1.05063  -0.20625 
 H                     1.76324  -0.44406   2.03867 
 H                     2.94027  -2.96181   2.70348 
 
 ITRead=  0  0  0  0  0  0  0  0  0  0  0  0  0  0  0  0  0
 MicOpt= -1 -1 -1 -1 -1 -1 -1 -1 -1 -1 -1 -1 -1 -1 -1 -1 -1
 NAtoms=     17 NQM=       17 NQMF=       0 NMMI=      0 NMMIF=      0
                NMic=       0 NMicF=      0.
                    Isotopes and Nuclear Properties:
 (Nuclear quadrupole moments (NQMom) in fm**2, nuclear magnetic moments (NMagM)
  in nuclear magnetons)

  Atom         1           2           3           4           5           6           7           8           9          10
 IAtWgt=          16          16          12          12          12          12          12           1           1           1
 AtmWgt=  15.9949146  15.9949146  12.0000000  12.0000000  12.0000000  12.0000000  12.0000000   1.0078250   1.0078250   1.0078250
 NucSpn=           0           0           0           0           0           0           0           1           1           1
 AtZEff=  -0.0000000  -0.0000000  -0.0000000  -0.0000000  -0.0000000  -0.0000000  -0.0000000  -0.0000000  -0.0000000  -0.0000000
 NQMom=    0.0000000   0.0000000   0.0000000   0.0000000   0.0000000   0.0000000   0.0000000   0.0000000   0.0000000   0.0000000
 NMagM=    0.0000000   0.0000000   0.0000000   0.0000000   0.0000000   0.0000000   0.0000000   2.7928460   2.7928460   2.7928460
 AtZNuc=   8.0000000   8.0000000   6.0000000   6.0000000   6.0000000   6.0000000   6.0000000   1.0000000   1.0000000   1.0000000

  Atom        11          12          13          14          15          16          17
 IAtWgt=           1           1           1           1           1           1           1
 AtmWgt=   1.0078250   1.0078250   1.0078250   1.0078250   1.0078250   1.0078250   1.0078250
 NucSpn=           1           1           1           1           1           1           1
 AtZEff=  -0.0000000  -0.0000000  -0.0000000  -0.0000000  -0.0000000  -0.0000000  -0.0000000
 NQMom=    0.0000000   0.0000000   0.0000000   0.0000000   0.0000000   0.0000000   0.0000000
 NMagM=    2.7928460   2.7928460   2.7928460   2.7928460   2.7928460   2.7928460   2.7928460
 AtZNuc=   1.0000000   1.0000000   1.0000000   1.0000000   1.0000000   1.0000000   1.0000000
 Leave Link  101 at Thu Sep 26 09:42:16 2019, MaxMem=   671088640 cpu:               6.4 elap:               3.2
 (Enter /shared/centos7/gaussian/g16/l103.exe)

 GradGradGradGradGradGradGradGradGradGradGradGradGradGradGradGradGradGrad
 Berny optimization.
 Initialization pass.
                           ----------------------------
                           !    Initial Parameters    !
                           ! (Angstroms and Degrees)  !
 --------------------------                            --------------------------
 ! Name  Definition              Value          Derivative Info.                !
 --------------------------------------------------------------------------------
 ! R1    R(1,3)                  1.412          calculate D2E/DX2 analytically  !
 ! R2    R(1,6)                  1.3762         calculate D2E/DX2 analytically  !
 ! R3    R(2,7)                  1.3869         calculate D2E/DX2 analytically  !
 ! R4    R(2,17)                 1.0009         calculate D2E/DX2 analytically  !
 ! R5    R(3,4)                  1.5287         calculate D2E/DX2 analytically  !
 ! R6    R(3,5)                  1.4933         calculate D2E/DX2 analytically  !
 ! R7    R(3,8)                  1.1253         calculate D2E/DX2 analytically  !
 ! R8    R(4,9)                  1.1101         calculate D2E/DX2 analytically  !
 ! R9    R(4,10)                 1.1052         calculate D2E/DX2 analytically  !
 ! R10   R(4,11)                 1.1237         calculate D2E/DX2 analytically  !
 ! R11   R(5,12)                 1.1299         calculate D2E/DX2 analytically  !
 ! R12   R(5,13)                 1.11           calculate D2E/DX2 analytically  !
 ! R13   R(5,14)                 1.1267         calculate D2E/DX2 analytically  !
 ! R14   R(6,7)                  1.3016         calculate D2E/DX2 analytically  !
 ! R15   R(6,15)                 1.1017         calculate D2E/DX2 analytically  !
 ! R16   R(7,16)                 1.08           calculate D2E/DX2 analytically  !
 ! A1    A(3,1,6)              112.4136         calculate D2E/DX2 analytically  !
 ! A2    A(7,2,17)             106.4383         calculate D2E/DX2 analytically  !
 ! A3    A(1,3,4)              107.8371         calculate D2E/DX2 analytically  !
 ! A4    A(1,3,5)              113.9425         calculate D2E/DX2 analytically  !
 ! A5    A(1,3,8)              107.0545         calculate D2E/DX2 analytically  !
 ! A6    A(4,3,5)              113.501          calculate D2E/DX2 analytically  !
 ! A7    A(4,3,8)              107.4791         calculate D2E/DX2 analytically  !
 ! A8    A(5,3,8)              106.6502         calculate D2E/DX2 analytically  !
 ! A9    A(3,4,9)              109.8526         calculate D2E/DX2 analytically  !
 ! A10   A(3,4,10)             110.6164         calculate D2E/DX2 analytically  !
 ! A11   A(3,4,11)             111.9767         calculate D2E/DX2 analytically  !
 ! A12   A(9,4,10)             107.948          calculate D2E/DX2 analytically  !
 ! A13   A(9,4,11)             107.5478         calculate D2E/DX2 analytically  !
 ! A14   A(10,4,11)            108.767          calculate D2E/DX2 analytically  !
 ! A15   A(3,5,12)             112.424          calculate D2E/DX2 analytically  !
 ! A16   A(3,5,13)             111.7335         calculate D2E/DX2 analytically  !
 ! A17   A(3,5,14)             109.9568         calculate D2E/DX2 analytically  !
 ! A18   A(12,5,13)            107.4993         calculate D2E/DX2 analytically  !
 ! A19   A(12,5,14)            107.3639         calculate D2E/DX2 analytically  !
 ! A20   A(13,5,14)            107.6439         calculate D2E/DX2 analytically  !
 ! A21   A(1,6,7)              122.1266         calculate D2E/DX2 analytically  !
 ! A22   A(1,6,15)             114.5093         calculate D2E/DX2 analytically  !
 ! A23   A(7,6,15)             123.3349         calculate D2E/DX2 analytically  !
 ! A24   A(2,7,6)              123.2652         calculate D2E/DX2 analytically  !
 ! A25   A(2,7,16)             112.3496         calculate D2E/DX2 analytically  !
 ! A26   A(6,7,16)             124.3791         calculate D2E/DX2 analytically  !
 ! D1    D(6,1,3,4)           -178.1603         calculate D2E/DX2 analytically  !
 ! D2    D(6,1,3,5)             54.8825         calculate D2E/DX2 analytically  !
 ! D3    D(6,1,3,8)            -62.772          calculate D2E/DX2 analytically  !
 ! D4    D(3,1,6,7)            129.345          calculate D2E/DX2 analytically  !
 ! D5    D(3,1,6,15)           -52.5595         calculate D2E/DX2 analytically  !
 ! D6    D(17,2,7,6)            -0.5753         calculate D2E/DX2 analytically  !
 ! D7    D(17,2,7,16)          178.5638         calculate D2E/DX2 analytically  !
 ! D8    D(1,3,4,9)            -14.3058         calculate D2E/DX2 analytically  !
 ! D9    D(1,3,4,10)           104.7639         calculate D2E/DX2 analytically  !
 ! D10   D(1,3,4,11)          -133.7369         calculate D2E/DX2 analytically  !
 ! D11   D(5,3,4,9)            112.9081         calculate D2E/DX2 analytically  !
 ! D12   D(5,3,4,10)          -128.0222         calculate D2E/DX2 analytically  !
 ! D13   D(5,3,4,11)            -6.523          calculate D2E/DX2 analytically  !
 ! D14   D(8,3,4,9)           -129.4142         calculate D2E/DX2 analytically  !
 ! D15   D(8,3,4,10)           -10.3445         calculate D2E/DX2 analytically  !
 ! D16   D(8,3,4,11)           111.1547         calculate D2E/DX2 analytically  !
 ! D17   D(1,3,5,12)           105.9378         calculate D2E/DX2 analytically  !
 ! D18   D(1,3,5,13)           -15.0383         calculate D2E/DX2 analytically  !
 ! D19   D(1,3,5,14)          -134.5031         calculate D2E/DX2 analytically  !
 ! D20   D(4,3,5,12)           -18.0172         calculate D2E/DX2 analytically  !
 ! D21   D(4,3,5,13)          -138.9933         calculate D2E/DX2 analytically  !
 ! D22   D(4,3,5,14)           101.5419         calculate D2E/DX2 analytically  !
 ! D23   D(8,3,5,12)          -136.1751         calculate D2E/DX2 analytically  !
 ! D24   D(8,3,5,13)           102.8488         calculate D2E/DX2 analytically  !
 ! D25   D(8,3,5,14)           -16.616          calculate D2E/DX2 analytically  !
 ! D26   D(1,6,7,2)             -4.0792         calculate D2E/DX2 analytically  !
 ! D27   D(1,6,7,16)           176.8856         calculate D2E/DX2 analytically  !
 ! D28   D(15,6,7,2)           177.9951         calculate D2E/DX2 analytically  !
 ! D29   D(15,6,7,16)           -1.0401         calculate D2E/DX2 analytically  !
 --------------------------------------------------------------------------------
 Trust Radius=3.00D-01 FncErr=1.00D-07 GrdErr=1.00D-06 EigMax=2.50D+02 EigMin=1.00D-04
 Number of steps in this run=    102 maximum allowed number of steps=    102.
 GradGradGradGradGradGradGradGradGradGradGradGradGradGradGradGradGradGrad

 Leave Link  103 at Thu Sep 26 09:42:16 2019, MaxMem=   671088640 cpu:               1.5 elap:               0.8
 (Enter /shared/centos7/gaussian/g16/l202.exe)
                          Input orientation:                          
 ---------------------------------------------------------------------
 Center     Atomic      Atomic             Coordinates (Angstroms)
 Number     Number       Type             X           Y           Z
 ---------------------------------------------------------------------
      1          8           0        3.597567   -2.802693    0.526628
      2          8           0        2.429234   -2.146855    2.980008
      3          6           0        3.158914   -3.585971   -0.563296
      4          6           0        4.042015   -4.832050   -0.629874
      5          6           0        3.083823   -2.839627   -1.854576
      6          6           0        2.835869   -1.669498    0.698616
      7          6           0        2.324990   -1.347299    1.851544
      8          1           0        2.112649   -3.925485   -0.325797
      9          1           0        4.941962   -4.690626    0.004403
     10          1           0        3.496063   -5.716475   -0.254090
     11          1           0        4.394428   -5.042299   -1.675929
     12          1           0        3.922061   -3.114461   -2.560627
     13          1           0        3.126059   -1.741590   -1.697715
     14          1           0        2.113487   -3.072811   -2.377677
     15          1           0        2.726532   -1.050627   -0.206249
     16          1           0        1.763239   -0.444059    2.038667
     17          1           0        2.940269   -2.961814    2.703482
 ---------------------------------------------------------------------
                    Distance matrix (angstroms):
                    1          2          3          4          5
     1  O    0.000000
     2  O    2.795389   0.000000
     3  C    1.412047   3.893391   0.000000
     4  C    2.377671   4.779391   1.528729   0.000000
     5  C    2.436274   4.927638   1.493342   2.527404   0.000000
     6  C    1.376189   2.366004   2.317251   3.636125   2.819480
     7  C    2.343720   1.386935   3.396842   4.609674   4.066717
     8  H    2.047504   3.767240   1.125320   2.153318   2.111737
     9  H    2.375796   4.651752   2.172972   1.110050   3.214759
    10  H    3.018269   4.933528   2.179065   1.105209   3.317793
    11  H    3.240691   5.824374   2.210280   1.123668   2.569311
    12  H    3.119879   5.819230   2.189531   2.586949   1.129905
    13  H    2.509176   4.746672   2.165578   3.395615   1.109989
    14  H    3.272682   5.446272   2.155975   3.141490   1.126748
    15  H    2.089389   3.382653   2.596615   4.026054   2.458691
    16  H    3.348757   2.056499   4.311582   5.618576   4.758154
    17  H    2.279485   1.000891   3.333050   3.977799   4.561954
                    6          7          8          9         10
     6  C    0.000000
     7  C    1.301558   0.000000
     8  H    2.581075   3.381264   0.000000
     9  H    3.747636   4.630152   2.949489   0.000000
    10  H    4.209694   4.989469   2.264204   1.791594   0.000000
    11  H    4.409462   5.511684   2.876916   1.801939   1.811960
    12  H    3.726982   5.014055   2.987675   3.178659   3.503151
    13  H    2.414914   3.659838   2.771021   3.858953   4.245075
    14  H    3.457557   4.572574   2.221996   4.036323   3.661980
    15  H    1.101697   2.117490   2.942101   4.266392   4.729123
    16  H    2.109022   1.080011   4.222927   5.681183   6.004813
    17  H    2.387566   1.926403   3.284837   3.778967   4.079742
                   11         12         13         14         15
    11  H    0.000000
    12  H    2.173103   0.000000
    13  H    3.536087   1.806381   0.000000
    14  H    3.094192   1.818281   1.805491   0.000000
    15  H    4.568947   3.351388   1.691604   3.029876   0.000000
    16  H    6.470331   5.739780   4.183470   5.151418   2.517043
    17  H    5.061841   5.357057   4.570995   5.149181   3.487816
                   16         17
    16  H    0.000000
    17  H    2.857704   0.000000
 Stoichiometry    C5H10O2
 Framework group  C1[X(C5H10O2)]
 Deg. of freedom    45
 Full point group                 C1      NOp   1
 Largest Abelian subgroup         C1      NOp   1
 Largest concise Abelian subgroup C1      NOp   1
                         Standard orientation:                         
 ---------------------------------------------------------------------
 Center     Atomic      Atomic             Coordinates (Angstroms)
 Number     Number       Type             X           Y           Z
 ---------------------------------------------------------------------
      1          8           0       -0.007833   -0.241404   -0.484886
      2          8           0        2.645379   -0.792056    0.201732
      3          6           0       -1.183681   -0.091865    0.282510
      4          6           0       -2.104077   -1.270033   -0.036555
      5          6           0       -1.843767    1.238608    0.126948
      6          6           0        0.909649    0.754326   -0.238626
      7          6           0        2.153525    0.495046    0.043504
      8          1           0       -0.885299   -0.179283    1.364024
      9          1           0       -1.749549   -1.788226   -0.951977
     10          1           0       -2.101020   -2.001695    0.791785
     11          1           0       -3.161651   -0.939077   -0.222664
     12          1           0       -2.783494    1.183088   -0.497965
     13          1           0       -1.168648    1.979054   -0.350576
     14          1           0       -2.135153    1.643805    1.137132
     15          1           0        0.510744    1.776911   -0.333129
     16          1           0        2.913887    1.246829    0.195477
     17          1           0        1.869916   -1.410227    0.066442
 ---------------------------------------------------------------------
 Rotational constants (GHZ):           5.4265816           1.4706061           1.2217771
 Leave Link  202 at Thu Sep 26 09:42:18 2019, MaxMem=   671088640 cpu:               3.7 elap:               1.9
 (Enter /shared/centos7/gaussian/g16/l301.exe)
 Standard basis: CC-pVTZ (5D, 7F)
 Ernie: Thresh=  0.10000D-02 Tol=  0.10000D-05 Strict=F.
 Ernie:  21 primitive shells out of 262 were deleted.
 There are   395 symmetry adapted cartesian basis functions of A   symmetry.
 There are   350 symmetry adapted basis functions of A   symmetry.
   350 basis functions,   534 primitive gaussians,   395 cartesian basis functions
    28 alpha electrons       28 beta electrons
       nuclear repulsion energy       314.9873282532 Hartrees.
 IExCor= 4336 DFT=T Ex+Corr=M062X ExCW=0 ScaHFX=  0.540000
 ScaDFX=  1.000000  1.000000  1.000000  1.000000 ScalE2=  1.000000  1.000000
 IRadAn=      5 IRanWt=     -1 IRanGd=            0 ICorTp=0 IEmpDi=  4
 NAtoms=   17 NActive=   17 NUniq=   17 SFac= 1.00D+00 NAtFMM=   60 NAOKFM=F Big=F
 Integral buffers will be    131072 words long.
 Raffenetti 2 integral format.
 Two-electron integral symmetry is turned on.
 Leave Link  301 at Thu Sep 26 09:42:19 2019, MaxMem=   671088640 cpu:               1.5 elap:               0.7
 (Enter /shared/centos7/gaussian/g16/l302.exe)
 NPDir=0 NMtPBC=     1 NCelOv=     1 NCel=       1 NClECP=     1 NCelD=      1
         NCelK=      1 NCelE2=     1 NClLst=     1 CellRange=     0.0.
 One-electron integrals computed using PRISM.
 One-electron integral symmetry used in STVInt
 NBasis=   350 RedAO= T EigKep=  2.45D-04  NBF=   350
 NBsUse=   350 1.00D-06 EigRej= -1.00D+00 NBFU=   350
 Precomputing XC quadrature grid using
 IXCGrd= 4 IRadAn=           5 IRanWt=          -1 IRanGd=           0 AccXCQ= 0.00D+00.
 Generated NRdTot=       0 NPtTot=           0 NUsed=           0 NTot=          32
 NSgBfM=   395   395   395   395   395 MxSgAt=    17 MxSgA2=    17.
 Leave Link  302 at Thu Sep 26 09:43:14 2019, MaxMem=   671088640 cpu:             110.3 elap:              55.2
 (Enter /shared/centos7/gaussian/g16/l303.exe)
 DipDrv:  MaxL=1.
 Leave Link  303 at Thu Sep 26 09:43:20 2019, MaxMem=   671088640 cpu:              11.0 elap:               5.5
 (Enter /shared/centos7/gaussian/g16/l401.exe)
 ExpMin= 1.03D-01 ExpMax= 1.53D+04 ExpMxC= 5.22D+02 IAcc=3 IRadAn=         5 AccDes= 0.00D+00
 Harris functional with IExCor= 1009 and IRadAn=       5 diagonalized for initial guess.
 HarFok:  IExCor= 1009 AccDes= 0.00D+00 IRadAn=         5 IDoV= 1 UseB2=F ITyADJ=14
 ICtDFT=  3500011 ScaDFX=  1.000000  1.000000  1.000000  1.000000
 FoFCou: FMM=F IPFlag=           0 FMFlag=      100000 FMFlg1=           0
         NFxFlg=           0 DoJE=T BraDBF=F KetDBF=T FulRan=T
         wScrn=  0.000000 ICntrl=       500 IOpCl=  0 I1Cent=   200000004 NGrid=           0
         NMat0=    1 NMatS0=      1 NMatT0=    0 NMatD0=    1 NMtDS0=    0 NMtDT0=    0
 Petite list used in FoFCou.
 Harris En= -346.803087149787    
 JPrj=0 DoOrth=F DoCkMO=F.
 Leave Link  401 at Thu Sep 26 09:43:48 2019, MaxMem=   671088640 cpu:              56.2 elap:              28.1
 (Enter /shared/centos7/gaussian/g16/l502.exe)
 Integral symmetry usage will be decided dynamically.
 Closed shell SCF:
 Using DIIS extrapolation, IDIIS=  1040.
 NGot=   671088640 LenX=   670765141 LenY=   670608675
 Requested convergence on RMS density matrix=1.00D-08 within 900 cycles.
 Requested convergence on MAX density matrix=1.00D-06.
 Requested convergence on             energy=1.00D-06.
 No special actions if energy rises.
 Fock matrices will be formed incrementally for  20 cycles.
 Integral accuracy reduced to 1.0D-05 until final iterations.

 Cycle   1  Pass 0  IDiag  1:
 FoFJK:  IHMeth= 1 ICntrl=       0 DoSepK=F KAlg= 0 I1Cent=           0 FoldK=F
 IRaf= 950000000 NMat=       1 IRICut=       1 DoRegI=T DoRafI=F ISym2E= 0 IDoP0=0 IntGTp=1.
 FoFCou: FMM=F IPFlag=           0 FMFlag=      100000 FMFlg1=           0
         NFxFlg=           0 DoJE=F BraDBF=F KetDBF=F FulRan=T
         wScrn=  0.000000 ICntrl=         0 IOpCl=  0 I1Cent=           0 NGrid=           0
         NMat0=    1 NMatS0=      1 NMatT0=    0 NMatD0=    1 NMtDS0=    0 NMtDT0=    0
 Symmetry not used in FoFCou.
 E= -346.702205902857    
 DIIS: error= 1.93D-02 at cycle   1 NSaved=   1.
 NSaved= 1 IEnMin= 1 EnMin= -346.702205902857     IErMin= 1 ErrMin= 1.93D-02
 ErrMax= 1.93D-02  0.00D+00 EMaxC= 1.00D-01 BMatC= 2.79D-01 BMatP= 2.79D-01
 IDIUse=3 WtCom= 8.07D-01 WtEn= 1.93D-01
 Coeff-Com:  0.100D+01
 Coeff-En:   0.100D+01
 Coeff:      0.100D+01
 Gap=     0.359 Goal=   None    Shift=    0.000
 GapD=    0.359 DampG=1.000 DampE=0.500 DampFc=0.5000 IDamp=-1.
 Damping current iteration by 5.00D-01
 RMSDP=1.84D-03 MaxDP=8.82D-02              OVMax= 1.45D-01

 Cycle   2  Pass 0  IDiag  1:
 RMSU=  9.20D-04    CP:  9.98D-01
 E= -346.818320406997     Delta-E=       -0.116114504140 Rises=F Damp=T
 DIIS: error= 4.31D-03 at cycle   2 NSaved=   2.
 NSaved= 2 IEnMin= 2 EnMin= -346.818320406997     IErMin= 2 ErrMin= 4.31D-03
 ErrMax= 4.31D-03  0.00D+00 EMaxC= 1.00D-01 BMatC= 2.11D-02 BMatP= 2.79D-01
 IDIUse=3 WtCom= 9.57D-01 WtEn= 4.31D-02
 Coeff-Com: -0.142D+00 0.114D+01
 Coeff-En:   0.000D+00 0.100D+01
 Coeff:     -0.136D+00 0.114D+01
 Gap=     0.339 Goal=   None    Shift=    0.000
 RMSDP=4.26D-04 MaxDP=1.50D-02 DE=-1.16D-01 OVMax= 6.91D-02

 Cycle   3  Pass 0  IDiag  1:
 RMSU=  4.23D-04    CP:  1.00D+00  1.03D+00
 E= -346.921623311560     Delta-E=       -0.103302904564 Rises=F Damp=F
 DIIS: error= 2.63D-03 at cycle   3 NSaved=   3.
 NSaved= 3 IEnMin= 3 EnMin= -346.921623311560     IErMin= 3 ErrMin= 2.63D-03
 ErrMax= 2.63D-03  0.00D+00 EMaxC= 1.00D-01 BMatC= 3.41D-03 BMatP= 2.11D-02
 IDIUse=3 WtCom= 9.74D-01 WtEn= 2.63D-02
 Coeff-Com: -0.837D-01 0.309D+00 0.775D+00
 Coeff-En:   0.000D+00 0.000D+00 0.100D+01
 Coeff:     -0.815D-01 0.301D+00 0.781D+00
 Gap=     0.341 Goal=   None    Shift=    0.000
 RMSDP=1.30D-04 MaxDP=5.22D-03 DE=-1.03D-01 OVMax= 1.36D-02

 Cycle   4  Pass 0  IDiag  1:
 RMSU=  1.10D-04    CP:  1.00D+00  1.09D+00  9.06D-01
 E= -346.923399763545     Delta-E=       -0.001776451985 Rises=F Damp=F
 DIIS: error= 1.55D-03 at cycle   4 NSaved=   4.
 NSaved= 4 IEnMin= 4 EnMin= -346.923399763545     IErMin= 4 ErrMin= 1.55D-03
 ErrMax= 1.55D-03  0.00D+00 EMaxC= 1.00D-01 BMatC= 1.05D-03 BMatP= 3.41D-03
 IDIUse=3 WtCom= 9.85D-01 WtEn= 1.55D-02
 Coeff-Com: -0.280D-01 0.731D-01 0.399D+00 0.555D+00
 Coeff-En:   0.000D+00 0.000D+00 0.200D+00 0.800D+00
 Coeff:     -0.276D-01 0.720D-01 0.396D+00 0.559D+00
 Gap=     0.337 Goal=   None    Shift=    0.000
 RMSDP=5.23D-05 MaxDP=2.21D-03 DE=-1.78D-03 OVMax= 6.74D-03

 Cycle   5  Pass 0  IDiag  1:
 RMSU=  2.69D-05    CP:  1.00D+00  1.09D+00  9.44D-01  6.18D-01
 E= -346.924168912159     Delta-E=       -0.000769148614 Rises=F Damp=F
 DIIS: error= 2.13D-04 at cycle   5 NSaved=   5.
 NSaved= 5 IEnMin= 5 EnMin= -346.924168912159     IErMin= 5 ErrMin= 2.13D-04
 ErrMax= 2.13D-04  0.00D+00 EMaxC= 1.00D-01 BMatC= 2.54D-05 BMatP= 1.05D-03
 IDIUse=3 WtCom= 9.98D-01 WtEn= 2.13D-03
 Coeff-Com: -0.483D-02 0.939D-02 0.101D+00 0.207D+00 0.688D+00
 Coeff-En:   0.000D+00 0.000D+00 0.000D+00 0.000D+00 0.100D+01
 Coeff:     -0.482D-02 0.937D-02 0.100D+00 0.207D+00 0.688D+00
 Gap=     0.337 Goal=   None    Shift=    0.000
 RMSDP=1.12D-05 MaxDP=3.04D-04 DE=-7.69D-04 OVMax= 1.49D-03

 Cycle   6  Pass 0  IDiag  1:
 RMSU=  8.57D-06    CP:  1.00D+00  1.09D+00  9.51D-01  6.56D-01  8.45D-01
 E= -346.924187338525     Delta-E=       -0.000018426366 Rises=F Damp=F
 DIIS: error= 5.19D-05 at cycle   6 NSaved=   6.
 NSaved= 6 IEnMin= 6 EnMin= -346.924187338525     IErMin= 6 ErrMin= 5.19D-05
 ErrMax= 5.19D-05  0.00D+00 EMaxC= 1.00D-01 BMatC= 2.22D-06 BMatP= 2.54D-05
 IDIUse=1 WtCom= 1.00D+00 WtEn= 0.00D+00
 Coeff-Com: -0.116D-03-0.955D-03 0.172D-01 0.569D-01 0.281D+00 0.646D+00
 Coeff:     -0.116D-03-0.955D-03 0.172D-01 0.569D-01 0.281D+00 0.646D+00
 Gap=     0.337 Goal=   None    Shift=    0.000
 RMSDP=3.57D-06 MaxDP=1.52D-04 DE=-1.84D-05 OVMax= 5.96D-04

 Initial convergence to 1.0D-05 achieved.  Increase integral accuracy.
 Cycle   7  Pass 1  IDiag  1:
 E= -346.924177377529     Delta-E=        0.000009960996 Rises=F Damp=F
 DIIS: error= 3.22D-05 at cycle   1 NSaved=   1.
 NSaved= 1 IEnMin= 1 EnMin= -346.924177377529     IErMin= 1 ErrMin= 3.22D-05
 ErrMax= 3.22D-05  0.00D+00 EMaxC= 1.00D-01 BMatC= 7.47D-07 BMatP= 7.47D-07
 IDIUse=1 WtCom= 1.00D+00 WtEn= 0.00D+00
 Coeff-Com:  0.100D+01
 Coeff:      0.100D+01
 Gap=     0.337 Goal=   None    Shift=    0.000
 RMSDP=3.57D-06 MaxDP=1.52D-04 DE= 9.96D-06 OVMax= 4.06D-04

 Cycle   8  Pass 1  IDiag  1:
 RMSU=  7.11D-06    CP:  1.00D+00
 E= -346.924177528202     Delta-E=       -0.000000150672 Rises=F Damp=F
 DIIS: error= 2.17D-05 at cycle   2 NSaved=   2.
 NSaved= 2 IEnMin= 2 EnMin= -346.924177528202     IErMin= 2 ErrMin= 2.17D-05
 ErrMax= 2.17D-05  0.00D+00 EMaxC= 1.00D-01 BMatC= 3.73D-07 BMatP= 7.47D-07
 IDIUse=1 WtCom= 1.00D+00 WtEn= 0.00D+00
 Coeff-Com:  0.385D+00 0.615D+00
 Coeff:      0.385D+00 0.615D+00
 Gap=     0.337 Goal=   None    Shift=    0.000
 RMSDP=1.76D-06 MaxDP=7.92D-05 DE=-1.51D-07 OVMax= 3.37D-04

 Cycle   9  Pass 1  IDiag  1:
 RMSU=  1.75D-06    CP:  1.00D+00  9.80D-01
 E= -346.924177779185     Delta-E=       -0.000000250983 Rises=F Damp=F
 DIIS: error= 1.05D-05 at cycle   3 NSaved=   3.
 NSaved= 3 IEnMin= 3 EnMin= -346.924177779185     IErMin= 3 ErrMin= 1.05D-05
 ErrMax= 1.05D-05  0.00D+00 EMaxC= 1.00D-01 BMatC= 8.56D-08 BMatP= 3.73D-07
 IDIUse=1 WtCom= 1.00D+00 WtEn= 0.00D+00
 Coeff-Com: -0.129D-01 0.319D+00 0.694D+00
 Coeff:     -0.129D-01 0.319D+00 0.694D+00
 Gap=     0.337 Goal=   None    Shift=    0.000
 RMSDP=5.83D-07 MaxDP=2.55D-05 DE=-2.51D-07 OVMax= 1.11D-04

 Cycle  10  Pass 1  IDiag  1:
 RMSU=  2.62D-07    CP:  1.00D+00  1.01D+00  7.35D-01
 E= -346.924177850914     Delta-E=       -0.000000071729 Rises=F Damp=F
 DIIS: error= 1.71D-06 at cycle   4 NSaved=   4.
 NSaved= 4 IEnMin= 4 EnMin= -346.924177850914     IErMin= 4 ErrMin= 1.71D-06
 ErrMax= 1.71D-06  0.00D+00 EMaxC= 1.00D-01 BMatC= 1.80D-09 BMatP= 8.56D-08
 IDIUse=1 WtCom= 1.00D+00 WtEn= 0.00D+00
 Coeff-Com: -0.130D-01 0.123D+00 0.296D+00 0.594D+00
 Coeff:     -0.130D-01 0.123D+00 0.296D+00 0.594D+00
 Gap=     0.337 Goal=   None    Shift=    0.000
 RMSDP=9.02D-08 MaxDP=4.01D-06 DE=-7.17D-08 OVMax= 8.83D-06

 Cycle  11  Pass 1  IDiag  1:
 RMSU=  8.50D-08    CP:  1.00D+00  1.01D+00  7.50D-01  9.92D-01
 E= -346.924177852366     Delta-E=       -0.000000001452 Rises=F Damp=F
 DIIS: error= 3.60D-07 at cycle   5 NSaved=   5.
 NSaved= 5 IEnMin= 5 EnMin= -346.924177852366     IErMin= 5 ErrMin= 3.60D-07
 ErrMax= 3.60D-07  0.00D+00 EMaxC= 1.00D-01 BMatC= 1.17D-10 BMatP= 1.80D-09
 IDIUse=1 WtCom= 1.00D+00 WtEn= 0.00D+00
 Coeff-Com: -0.122D-02-0.189D-01-0.313D-01 0.146D+00 0.906D+00
 Coeff:     -0.122D-02-0.189D-01-0.313D-01 0.146D+00 0.906D+00
 Gap=     0.337 Goal=   None    Shift=    0.000
 RMSDP=3.92D-08 MaxDP=1.30D-06 DE=-1.45D-09 OVMax= 4.57D-06

 Cycle  12  Pass 1  IDiag  1:
 RMSU=  2.25D-08    CP:  1.00D+00  1.02D+00  7.58D-01  1.10D+00  1.08D+00
 E= -346.924177852517     Delta-E=       -0.000000000151 Rises=F Damp=F
 DIIS: error= 1.47D-07 at cycle   6 NSaved=   6.
 NSaved= 6 IEnMin= 6 EnMin= -346.924177852517     IErMin= 6 ErrMin= 1.47D-07
 ErrMax= 1.47D-07  0.00D+00 EMaxC= 1.00D-01 BMatC= 1.34D-11 BMatP= 1.17D-10
 IDIUse=1 WtCom= 1.00D+00 WtEn= 0.00D+00
 Coeff-Com:  0.826D-03-0.180D-01-0.392D-01-0.460D-02 0.316D+00 0.745D+00
 Coeff:      0.826D-03-0.180D-01-0.392D-01-0.460D-02 0.316D+00 0.745D+00
 Gap=     0.337 Goal=   None    Shift=    0.000
 RMSDP=1.20D-08 MaxDP=3.47D-07 DE=-1.51D-10 OVMax= 1.51D-06

 Cycle  13  Pass 1  IDiag  1:
 RMSU=  8.28D-09    CP:  1.00D+00  1.02D+00  7.58D-01  1.12D+00  1.13D+00
                    CP:  1.04D+00
 E= -346.924177852522     Delta-E=       -0.000000000005 Rises=F Damp=F
 DIIS: error= 4.09D-08 at cycle   7 NSaved=   7.
 NSaved= 7 IEnMin= 7 EnMin= -346.924177852522     IErMin= 7 ErrMin= 4.09D-08
 ErrMax= 4.09D-08  0.00D+00 EMaxC= 1.00D-01 BMatC= 1.15D-12 BMatP= 1.34D-11
 IDIUse=1 WtCom= 1.00D+00 WtEn= 0.00D+00
 Coeff-Com:  0.390D-03-0.506D-02-0.120D-01-0.131D-01 0.473D-01 0.266D+00
 Coeff-Com:  0.717D+00
 Coeff:      0.390D-03-0.506D-02-0.120D-01-0.131D-01 0.473D-01 0.266D+00
 Coeff:      0.717D+00
 Gap=     0.337 Goal=   None    Shift=    0.000
 RMSDP=3.29D-09 MaxDP=1.16D-07 DE=-4.77D-12 OVMax= 5.06D-07

 SCF Done:  E(RM062X) =  -346.924177853     A.U. after   13 cycles
            NFock= 13  Conv=0.33D-08     -V/T= 2.0062
 KE= 3.447938023119D+02 PE=-1.439863105531D+03 EE= 4.331577971130D+02
 Leave Link  502 at Thu Sep 26 09:53:37 2019, MaxMem=   671088640 cpu:            1178.3 elap:             589.3
 (Enter /shared/centos7/gaussian/g16/l801.exe)
 DoSCS=F DFT=T ScalE2(SS,OS)=  1.000000  1.000000
 Range of M.O.s used for correlation:     1   350
 NBasis=   350 NAE=    28 NBE=    28 NFC=     0 NFV=     0
 NROrb=    350 NOA=    28 NOB=    28 NVA=   322 NVB=   322

 **** Warning!!: The largest alpha MO coefficient is  0.11739638D+02

 Leave Link  801 at Thu Sep 26 09:53:38 2019, MaxMem=   671088640 cpu:               2.0 elap:               1.0
 (Enter /shared/centos7/gaussian/g16/l1101.exe)
 Using compressed storage, NAtomX=    17.
 Will process     18 centers per pass.
 Leave Link 1101 at Thu Sep 26 09:54:07 2019, MaxMem=   671088640 cpu:              58.2 elap:              29.1
 (Enter /shared/centos7/gaussian/g16/l1102.exe)
 Symmetrizing basis deriv contribution to polar:
 IMax=3 JMax=2 DiffMx= 0.00D+00
 Leave Link 1102 at Thu Sep 26 09:54:10 2019, MaxMem=   671088640 cpu:               5.2 elap:               2.6
 (Enter /shared/centos7/gaussian/g16/l1110.exe)
 Forming Gx(P) for the SCF density, NAtomX=    17.
 Integral derivatives from FoFJK, PRISM(SPDF).
 Do as many integral derivatives as possible in FoFJK.
 G2DrvN: MDV=     671087280.
 G2DrvN: will do    18 centers at a time, making    1 passes.
 Calling FoFCou, ICntrl=  3107 FMM=F I1Cent=   0 AccDes= 0.00D+00.
 FoFJK:  IHMeth= 1 ICntrl=    3107 DoSepK=F KAlg= 0 I1Cent=           0 FoldK=F
 IRaf=         0 NMat=       1 IRICut=       1 DoRegI=T DoRafI=F ISym2E= 0 IDoP0=0 IntGTp=1.
 FoFCou: FMM=F IPFlag=           0 FMFlag=      100000 FMFlg1=           0
         NFxFlg=           0 DoJE=F BraDBF=F KetDBF=F FulRan=T
         wScrn=  0.000000 ICntrl=      3107 IOpCl=  0 I1Cent=           0 NGrid=           0
         NMat0=    1 NMatS0=      1 NMatT0=    0 NMatD0=    1 NMtDS0=    0 NMtDT0=    0
 Symmetry not used in FoFCou.
 End of G2Drv F.D. properties file   721 does not exist.
 End of G2Drv F.D. properties file   722 does not exist.
 End of G2Drv F.D. properties file   788 does not exist.
 Leave Link 1110 at Thu Sep 26 10:12:13 2019, MaxMem=   671088640 cpu:            2165.3 elap:            1082.8
 (Enter /shared/centos7/gaussian/g16/l1002.exe)
 Minotr:  Closed shell wavefunction.
          IDoAtm=11111111111111111
          Direct CPHF calculation.
          Differentiating once with respect to nuclear coordinates.
          Requested convergence is 1.0D-08 RMS, and 1.0D-07 maximum.
          Secondary convergence is 1.0D-12 RMS, and 1.0D-12 maximum.
          NewPWx=T KeepS1=F KeepF1=F KeepIn=T MapXYZ=F SortEE=F KeepMc=T.
         5109 words used for storage of precomputed grid.
 Two-electron integrals replicated using symmetry.
          MDV=     671088640 using IRadAn=       1.
          Solving linear equations simultaneously, MaxMat=     380.
 FoF2E skips out because all densities are zero.
 CalDSu exits because no D1Ps are significant.
 FoFJK:  IHMeth= 1 ICntrl=       0 DoSepK=F KAlg= 0 I1Cent=           0 FoldK=F
 IRaf= 930000000 NMat=      51 IRICut=     127 DoRegI=T DoRafI=T ISym2E= 2 IDoP0=3 IntGTp=3.
 FoFCou: FMM=F IPFlag=           0 FMFlag=      100000 FMFlg1=           0
         NFxFlg=           0 DoJE=F BraDBF=F KetDBF=F FulRan=T
         wScrn=  0.000000 ICntrl=         0 IOpCl=  0 I1Cent=           0 NGrid=           0
         NMat0=   51 NMatS0=     51 NMatT0=    0 NMatD0=   51 NMtDS0=    0 NMtDT0=    0
 Integrals replicated using symmetry in FoFCou.
 Raff kept on since  90.31% of shell-pairs survive, threshold=   0.20 IRatSp=90.
          There are    54 degrees of freedom in the 1st order CPHF.  IDoFFX=6 NUNeed=     0.
     48 vectors produced by pass  0 Test12= 1.67D-14 1.85D-09 XBig12= 6.67D-02 6.17D-02.
 AX will form    48 AO Fock derivatives at one time.
     48 vectors produced by pass  1 Test12= 1.67D-14 1.85D-09 XBig12= 1.24D-02 3.02D-02.
     48 vectors produced by pass  2 Test12= 1.67D-14 1.85D-09 XBig12= 4.42D-04 2.91D-03.
     48 vectors produced by pass  3 Test12= 1.67D-14 1.85D-09 XBig12= 4.98D-06 2.22D-04.
     48 vectors produced by pass  4 Test12= 1.67D-14 1.85D-09 XBig12= 4.19D-08 2.48D-05.
     48 vectors produced by pass  5 Test12= 1.67D-14 1.85D-09 XBig12= 1.90D-10 1.60D-06.
     26 vectors produced by pass  6 Test12= 1.67D-14 1.85D-09 XBig12= 8.20D-13 7.97D-08.
      4 vectors produced by pass  7 Test12= 1.67D-14 1.85D-09 XBig12= 3.66D-15 4.94D-09.
 InvSVY:  IOpt=1 It=  1 EMax= 5.00D-16
 Solved reduced A of dimension   318 with    54 vectors.
 End of Minotr F.D. properties file   721 does not exist.
 End of Minotr F.D. properties file   722 does not exist.
 End of Minotr F.D. properties file   788 does not exist.
 Leave Link 1002 at Thu Sep 26 10:43:20 2019, MaxMem=   671088640 cpu:            3734.8 elap:            1867.6
 (Enter /shared/centos7/gaussian/g16/l601.exe)
 Copying SCF densities to generalized density rwf, IOpCl= 0 IROHF=0.

 **********************************************************************

            Population analysis using the SCF density.

 **********************************************************************

 Orbital symmetries:
       Occupied  (A) (A) (A) (A) (A) (A) (A) (A) (A) (A) (A) (A)
                 (A) (A) (A) (A) (A) (A) (A) (A) (A) (A) (A) (A)
                 (A) (A) (A) (A)
       Virtual   (A) (A) (A) (A) (A) (A) (A) (A) (A) (A) (A) (A)
                 (A) (A) (A) (A) (A) (A) (A) (A) (A) (A) (A) (A)
                 (A) (A) (A) (A) (A) (A) (A) (A) (A) (A) (A) (A)
                 (A) (A) (A) (A) (A) (A) (A) (A) (A) (A) (A) (A)
                 (A) (A) (A) (A) (A) (A) (A) (A) (A) (A) (A) (A)
                 (A) (A) (A) (A) (A) (A) (A) (A) (A) (A) (A) (A)
                 (A) (A) (A) (A) (A) (A) (A) (A) (A) (A) (A) (A)
                 (A) (A) (A) (A) (A) (A) (A) (A) (A) (A) (A) (A)
                 (A) (A) (A) (A) (A) (A) (A) (A) (A) (A) (A) (A)
                 (A) (A) (A) (A) (A) (A) (A) (A) (A) (A) (A) (A)
                 (A) (A) (A) (A) (A) (A) (A) (A) (A) (A) (A) (A)
                 (A) (A) (A) (A) (A) (A) (A) (A) (A) (A) (A) (A)
                 (A) (A) (A) (A) (A) (A) (A) (A) (A) (A) (A) (A)
                 (A) (A) (A) (A) (A) (A) (A) (A) (A) (A) (A) (A)
                 (A) (A) (A) (A) (A) (A) (A) (A) (A) (A) (A) (A)
                 (A) (A) (A) (A) (A) (A) (A) (A) (A) (A) (A) (A)
                 (A) (A) (A) (A) (A) (A) (A) (A) (A) (A) (A) (A)
                 (A) (A) (A) (A) (A) (A) (A) (A) (A) (A) (A) (A)
                 (A) (A) (A) (A) (A) (A) (A) (A) (A) (A) (A) (A)
                 (A) (A) (A) (A) (A) (A) (A) (A) (A) (A) (A) (A)
                 (A) (A) (A) (A) (A) (A) (A) (A) (A) (A) (A) (A)
                 (A) (A) (A) (A) (A) (A) (A) (A) (A) (A) (A) (A)
                 (A) (A) (A) (A) (A) (A) (A) (A) (A) (A) (A) (A)
                 (A) (A) (A) (A) (A) (A) (A) (A) (A) (A) (A) (A)
                 (A) (A) (A) (A) (A) (A) (A) (A) (A) (A) (A) (A)
                 (A) (A) (A) (A) (A) (A) (A) (A) (A) (A) (A) (A)
                 (A) (A) (A) (A) (A) (A) (A) (A) (A) (A)
 The electronic state is 1-A.
 Alpha  occ. eigenvalues --  -19.64953 -19.64156 -10.60105 -10.58577 -10.57422
 Alpha  occ. eigenvalues --  -10.54053 -10.53783  -1.19336  -1.15268  -0.89806
 Alpha  occ. eigenvalues --   -0.83859  -0.78907  -0.70287  -0.65350  -0.60847
 Alpha  occ. eigenvalues --   -0.59533  -0.54286  -0.52313  -0.49299  -0.47745
 Alpha  occ. eigenvalues --   -0.46172  -0.45116  -0.44319  -0.43457  -0.42928
 Alpha  occ. eigenvalues --   -0.38843  -0.36308  -0.28007
 Alpha virt. eigenvalues --    0.05685   0.07788   0.08178   0.09457   0.10527
 Alpha virt. eigenvalues --    0.10812   0.11443   0.14119   0.15815   0.17001
 Alpha virt. eigenvalues --    0.17909   0.19725   0.21498   0.23497   0.24118
 Alpha virt. eigenvalues --    0.27686   0.29235   0.31426   0.31725   0.33292
 Alpha virt. eigenvalues --    0.34039   0.35856   0.36659   0.37614   0.38845
 Alpha virt. eigenvalues --    0.41235   0.42561   0.44472   0.45390   0.45965
 Alpha virt. eigenvalues --    0.47171   0.47544   0.48318   0.49440   0.50130
 Alpha virt. eigenvalues --    0.51096   0.51300   0.52528   0.53253   0.53748
 Alpha virt. eigenvalues --    0.54605   0.56283   0.58509   0.60330   0.62925
 Alpha virt. eigenvalues --    0.63068   0.64609   0.68825   0.70143   0.71169
 Alpha virt. eigenvalues --    0.73342   0.75457   0.76730   0.80274   0.81372
 Alpha virt. eigenvalues --    0.84151   0.85462   0.86306   0.87678   0.89920
 Alpha virt. eigenvalues --    0.91626   0.94916   0.95587   0.97553   1.01449
 Alpha virt. eigenvalues --    1.01867   1.01939   1.03154   1.04533   1.06702
 Alpha virt. eigenvalues --    1.07219   1.07731   1.10285   1.10731   1.12167
 Alpha virt. eigenvalues --    1.14812   1.16171   1.16823   1.18504   1.19703
 Alpha virt. eigenvalues --    1.21110   1.23305   1.24649   1.25973   1.27247
 Alpha virt. eigenvalues --    1.29568   1.29915   1.30378   1.33609   1.34199
 Alpha virt. eigenvalues --    1.35632   1.36617   1.37111   1.37909   1.41258
 Alpha virt. eigenvalues --    1.43374   1.44463   1.47640   1.47696   1.51735
 Alpha virt. eigenvalues --    1.52610   1.54592   1.55455   1.58392   1.58870
 Alpha virt. eigenvalues --    1.61443   1.68629   1.71196   1.74589   1.85406
 Alpha virt. eigenvalues --    1.89571   1.94577   1.99357   2.00965   2.04930
 Alpha virt. eigenvalues --    2.07297   2.11011   2.14499   2.17825   2.19179
 Alpha virt. eigenvalues --    2.23573   2.25954   2.26480   2.29525   2.32365
 Alpha virt. eigenvalues --    2.35206   2.37015   2.38068   2.38692   2.43696
 Alpha virt. eigenvalues --    2.46054   2.48476   2.51968   2.54777   2.58209
 Alpha virt. eigenvalues --    2.60726   2.61684   2.65474   2.66076   2.66222
 Alpha virt. eigenvalues --    2.71311   2.74386   2.76286   2.76963   2.79209
 Alpha virt. eigenvalues --    2.80185   2.81662   2.82114   2.84086   2.85527
 Alpha virt. eigenvalues --    2.87395   2.89192   2.90858   2.92580   2.92974
 Alpha virt. eigenvalues --    2.95497   2.96836   2.97441   2.99513   2.99904
 Alpha virt. eigenvalues --    3.00718   3.02274   3.03121   3.05433   3.06584
 Alpha virt. eigenvalues --    3.07280   3.09119   3.10766   3.12277   3.12782
 Alpha virt. eigenvalues --    3.15518   3.17110   3.18966   3.20183   3.20791
 Alpha virt. eigenvalues --    3.24409   3.27341   3.28783   3.29636   3.30784
 Alpha virt. eigenvalues --    3.31138   3.33356   3.33795   3.34691   3.35926
 Alpha virt. eigenvalues --    3.36887   3.37634   3.40002   3.40284   3.43525
 Alpha virt. eigenvalues --    3.44317   3.45527   3.47378   3.48436   3.50826
 Alpha virt. eigenvalues --    3.55329   3.55914   3.57316   3.59241   3.61094
 Alpha virt. eigenvalues --    3.64502   3.65405   3.66692   3.70374   3.70540
 Alpha virt. eigenvalues --    3.71823   3.73951   3.74385   3.75319   3.77528
 Alpha virt. eigenvalues --    3.79076   3.80447   3.82838   3.83642   3.84657
 Alpha virt. eigenvalues --    3.85982   3.87757   3.90388   3.91744   3.93563
 Alpha virt. eigenvalues --    3.95797   3.96219   3.97903   3.99456   4.01720
 Alpha virt. eigenvalues --    4.02561   4.04549   4.04959   4.05463   4.08493
 Alpha virt. eigenvalues --    4.09115   4.11635   4.13179   4.14841   4.18459
 Alpha virt. eigenvalues --    4.19337   4.20741   4.23742   4.27081   4.27717
 Alpha virt. eigenvalues --    4.30671   4.32569   4.36580   4.38582   4.43364
 Alpha virt. eigenvalues --    4.44677   4.46218   4.50970   4.52378   4.55392
 Alpha virt. eigenvalues --    4.57687   4.62617   4.64675   4.67685   4.70086
 Alpha virt. eigenvalues --    4.70993   4.73933   4.74578   4.76988   4.81768
 Alpha virt. eigenvalues --    4.83849   4.88572   4.90801   4.92326   4.93735
 Alpha virt. eigenvalues --    4.95924   4.96807   4.99062   5.01257   5.02415
 Alpha virt. eigenvalues --    5.04904   5.06523   5.08932   5.11365   5.13416
 Alpha virt. eigenvalues --    5.19100   5.23341   5.24789   5.26214   5.27295
 Alpha virt. eigenvalues --    5.27391   5.29453   5.36872   5.41009   5.43559
 Alpha virt. eigenvalues --    5.52092   5.55437   5.63139   5.66393   5.73501
 Alpha virt. eigenvalues --    5.75238   5.77774   5.78476   5.81924   5.83853
 Alpha virt. eigenvalues --    5.86822   5.99943   6.15147   6.21597   6.32570
 Alpha virt. eigenvalues --    6.36463   6.41243   6.54313   6.59688   6.71205
 Alpha virt. eigenvalues --    6.74058   6.77587   6.79716   6.84605   7.00279
 Alpha virt. eigenvalues --    7.08415   7.13424   7.26696   7.34686   7.37165
 Alpha virt. eigenvalues --   10.06970  10.66956  11.48166  11.92851  12.99379
 Alpha virt. eigenvalues --   13.42556  14.28706
          Condensed to atoms (all electrons):
               1          2          3          4          5          6
     1  O    7.918516  -0.006443   0.300495  -0.046416  -0.036344   0.315602
     2  O   -0.006443   7.794376   0.001606  -0.000134   0.000068  -0.086897
     3  C    0.300495   0.001606   4.900838   0.321684   0.292133  -0.078142
     4  C   -0.046416  -0.000134   0.321684   4.978321  -0.053296   0.005786
     5  C   -0.036344   0.000068   0.292133  -0.053296   5.093694  -0.032805
     6  C    0.315602  -0.086897  -0.078142   0.005786  -0.032805   5.061239
     7  C   -0.075186   0.368187  -0.006622  -0.000024  -0.003604   0.564045
     8  H   -0.059126  -0.000262   0.409787  -0.044155  -0.097051   0.014521
     9  H    0.005769   0.000009  -0.045946   0.387731   0.000819   0.002153
    10  H    0.001926   0.000009  -0.037642   0.400575   0.006429  -0.000435
    11  H    0.002658   0.000000  -0.047013   0.404696  -0.004794  -0.000353
    12  H    0.002436   0.000002  -0.038276  -0.012953   0.393049   0.002191
    13  H   -0.003685  -0.000090  -0.036507   0.006204   0.404808  -0.011649
    14  H    0.004052  -0.000003  -0.038898   0.003932   0.392333   0.001931
    15  H   -0.054710   0.005666  -0.003695  -0.000704   0.002030   0.393714
    16  H    0.003703  -0.034414  -0.000270   0.000027   0.000031  -0.066956
    17  H    0.021422   0.329396   0.000196  -0.000259   0.000531  -0.020762
               7          8          9         10         11         12
     1  O   -0.075186  -0.059126   0.005769   0.001926   0.002658   0.002436
     2  O    0.368187  -0.000262   0.000009   0.000009   0.000000   0.000002
     3  C   -0.006622   0.409787  -0.045946  -0.037642  -0.047013  -0.038276
     4  C   -0.000024  -0.044155   0.387731   0.400575   0.404696  -0.012953
     5  C   -0.003604  -0.097051   0.000819   0.006429  -0.004794   0.393049
     6  C    0.564045   0.014521   0.002153  -0.000435  -0.000353   0.002191
     7  C    4.822259   0.010103  -0.000171   0.000019  -0.000007   0.000072
     8  H    0.010103   0.663676   0.008561  -0.010499   0.003939   0.009062
     9  H   -0.000171   0.008561   0.568811  -0.027905  -0.027656   0.001979
    10  H    0.000019  -0.010499  -0.027905   0.587164  -0.033697   0.000521
    11  H   -0.000007   0.003939  -0.027656  -0.033697   0.598604  -0.000548
    12  H    0.000072   0.009062   0.001979   0.000521  -0.000548   0.598100
    13  H    0.000093   0.000948  -0.000624  -0.000431   0.000973  -0.032638
    14  H    0.000538  -0.008149  -0.000243  -0.000197  -0.000491  -0.031320
    15  H   -0.059745  -0.002782   0.000220  -0.000007   0.000109   0.000637
    16  H    0.419467  -0.000246  -0.000007  -0.000002  -0.000001  -0.000005
    17  H   -0.044139  -0.001045   0.000189   0.000035   0.000004  -0.000009
              13         14         15         16         17
     1  O   -0.003685   0.004052  -0.054710   0.003703   0.021422
     2  O   -0.000090  -0.000003   0.005666  -0.034414   0.329396
     3  C   -0.036507  -0.038898  -0.003695  -0.000270   0.000196
     4  C    0.006204   0.003932  -0.000704   0.000027  -0.000259
     5  C    0.404808   0.392333   0.002030   0.000031   0.000531
     6  C   -0.011649   0.001931   0.393714  -0.066956  -0.020762
     7  C    0.000093   0.000538  -0.059745   0.419467  -0.044139
     8  H    0.000948  -0.008149  -0.002782  -0.000246  -0.001045
     9  H   -0.000624  -0.000243   0.000220  -0.000007   0.000189
    10  H   -0.000431  -0.000197  -0.000007  -0.000002   0.000035
    11  H    0.000973  -0.000491   0.000109  -0.000001   0.000004
    12  H   -0.032638  -0.031320   0.000637  -0.000005  -0.000009
    13  H    0.588984  -0.029165  -0.007960   0.000090  -0.000022
    14  H   -0.029165   0.592018  -0.002129  -0.000006  -0.000042
    15  H   -0.007960  -0.002129   0.622532  -0.004542   0.001644
    16  H    0.000090  -0.000006  -0.004542   0.524423   0.006386
    17  H   -0.000022  -0.000042   0.001644   0.006386   0.432488
 Mulliken charges:
               1
     1  O   -0.294668
     2  O   -0.371076
     3  C    0.106274
     4  C   -0.351015
     5  C   -0.358031
     6  C   -0.063183
     7  C    0.004715
     8  H    0.102717
     9  H    0.126312
    10  H    0.114136
    11  H    0.103580
    12  H    0.107702
    13  H    0.120671
    14  H    0.115838
    15  H    0.109723
    16  H    0.152323
    17  H    0.273985
 Sum of Mulliken charges =  -0.00000
 Mulliken charges with hydrogens summed into heavy atoms:
               1
     1  O   -0.294668
     2  O   -0.097091
     3  C    0.208991
     4  C   -0.006988
     5  C   -0.013821
     6  C    0.046540
     7  C    0.157038
 APT charges:
               1
     1  O   -0.228384
     2  O   -0.171907
     3  C    0.029004
     4  C   -1.223641
     5  C   -1.170148
     6  C   -0.459974
     7  C   -0.396350
     8  H    0.276423
     9  H    0.282616
    10  H    0.380274
    11  H    0.473780
    12  H    0.450666
    13  H    0.238817
    14  H    0.396319
    15  H    0.314477
    16  H    0.587161
    17  H    0.220866
 Sum of APT charges =  -0.00000
 APT charges with hydrogens summed into heavy atoms:
               1
     1  O   -0.228384
     2  O    0.048959
     3  C    0.305428
     4  C   -0.086971
     5  C   -0.084345
     6  C   -0.145497
     7  C    0.190811
 Electronic spatial extent (au):  <R**2>=            987.8516
 Charge=              0.0000 electrons
 Dipole moment (field-independent basis, Debye):
    X=             -2.0309    Y=              0.8057    Z=              0.5997  Tot=              2.2657
 Quadrupole moment (field-independent basis, Debye-Ang):
   XX=            -46.8447   YY=            -40.6734   ZZ=            -45.8408
   XY=              2.7506   XZ=             -0.6111   YZ=             -0.1248
 Traceless Quadrupole moment (field-independent basis, Debye-Ang):
   XX=             -2.3917   YY=              3.7796   ZZ=             -1.3878
   XY=              2.7506   XZ=             -0.6111   YZ=             -0.1248
 Octapole moment (field-independent basis, Debye-Ang**2):
  XXX=             -7.8333  YYY=             -6.7402  ZZZ=              0.7815  XYY=              7.6120
  XXY=             10.1476  XXZ=             -1.9320  XZZ=             -0.0961  YZZ=             -2.7058
  YYZ=             -0.6082  XYZ=              1.2822
 Hexadecapole moment (field-independent basis, Debye-Ang**3):
 XXXX=           -968.7183 YYYY=           -283.0025 ZZZZ=            -84.6914 XXXY=             34.1543
 XXXZ=              4.5718 YYYX=            -10.3630 YYYZ=             -2.2631 ZZZX=              0.0096
 ZZZY=              1.4711 XXYY=           -201.9549 XXZZ=           -174.4958 YYZZ=            -62.1322
 XXYZ=              5.4444 YYXZ=             -0.2505 ZZXY=             -3.9944
 N-N= 3.149873282532D+02 E-N=-1.439863099226D+03  KE= 3.447938023119D+02
  Exact polarizability:   0.000   0.000   0.000   0.000   0.000   0.000
 Approx polarizability:  93.008  -2.298  77.046   3.694  -0.810  68.586
 No NMR shielding tensors so no spin-rotation constants.
 Leave Link  601 at Thu Sep 26 10:43:47 2019, MaxMem=   671088640 cpu:              53.4 elap:              26.7
 (Enter /shared/centos7/gaussian/g16/l701.exe)
 SCFChk:  SCF convergence  3.29D-09 required  1.00D-08
 ... and contract with generalized density number  0.
 Compute integral second derivatives.
 Entering OneElI...
 Calculate overlap and kinetic energy integrals
    NBasis = 395  MinDer = 2  MaxDer = 2
 Requested accuracy = 0.1000D-12
 PrmmSu-InSpLW:  IPartL=    0 NPrtUS=   20 NPrtUL=    1 DoSpLW=F IThBeg=    0 IThEnd=   19 NThAct=   20.
 PrsmSu:  NPrtUS=  20 ThrOK=T IAlg=1 NPAlg=1 LenDen=           0 ISkipM=0 DoSpLW=F IThBeg=    0 IThEnd=   19.
 Prism:   IPart=     0 DynPar=F LinDyn=F Incr=           4.
 PRISM was handed    33314016 working-precision words and  8421 shell-pairs
 PRISM was handed    33314016 working-precision words and  8421 shell-pairs
 PRISM was handed    33314016 working-precision words and  8421 shell-pairs
 PRISM was handed    33314016 working-precision words and  8421 shell-pairs
 PRISM was handed    33314016 working-precision words and  8421 shell-pairs
 PRISM was handed    33314016 working-precision words and  8421 shell-pairs
 PRISM was handed    33314016 working-precision words and  8421 shell-pairs
 PRISM was handed    33314016 working-precision words and  8421 shell-pairs
 PRISM was handed    33314016 working-precision words and  8421 shell-pairs
 PRISM was handed    33314016 working-precision words and  8421 shell-pairs
 PRISM was handed    33314016 working-precision words and  8421 shell-pairs
 IPart=  1 NShTot=         461 NBatch=          80 AvBLen=         5.8
 PRISM was handed    33314016 working-precision words and  8421 shell-pairs
 PRISM was handed    33314016 working-precision words and  8421 shell-pairs
 PRISM was handed    33314016 working-precision words and  8421 shell-pairs
 IPart=  0 NShTot=         464 NBatch=          82 AvBLen=         5.7
 IPart= 13 NShTot=         404 NBatch=          43 AvBLen=         9.4
 PRISM was handed    33314016 working-precision words and  8421 shell-pairs
 PRISM was handed    33314016 working-precision words and  8421 shell-pairs
 IPart=  7 NShTot=         424 NBatch=          54 AvBLen=         7.9
 IPart=  4 NShTot=         441 NBatch=          65 AvBLen=         6.8
 PRISM was handed    33314016 working-precision words and  8421 shell-pairs
 IPart= 17 NShTot=         394 NBatch=          36 AvBLen=        10.9
 IPart=  2 NShTot=         455 NBatch=          76 AvBLen=         6.0
 PRISM was handed    33314016 working-precision words and  8421 shell-pairs
 PRISM was handed    33314016 working-precision words and  8421 shell-pairs
 PRISM was handed    33314016 working-precision words and  8421 shell-pairs
 IPart= 12 NShTot=         407 NBatch=          44 AvBLen=         9.3
 IPart=  6 NShTot=         436 NBatch=          61 AvBLen=         7.1
 IPart= 16 NShTot=         398 NBatch=          38 AvBLen=        10.5
 IPart= 18 NShTot=         393 NBatch=          36 AvBLen=        10.9
 IPart= 15 NShTot=         403 NBatch=          42 AvBLen=         9.6
 IPart= 11 NShTot=         411 NBatch=          48 AvBLen=         8.6
 IPart= 19 NShTot=         392 NBatch=          35 AvBLen=        11.2
 IPart=  8 NShTot=         421 NBatch=          54 AvBLen=         7.8
 IPart=  5 NShTot=         438 NBatch=          63 AvBLen=         7.0
 IPart=  9 NShTot=         415 NBatch=          51 AvBLen=         8.1
 IPart= 10 NShTot=         413 NBatch=          49 AvBLen=         8.4
 IPart= 14 NShTot=         404 NBatch=          43 AvBLen=         9.4
 IPart=  3 NShTot=         447 NBatch=          71 AvBLen=         6.3
 PrSmSu:  NxtVal=             81.
 Entering OneElI...
 Calculate potential energy integrals
    NBasis = 395  MinDer = 2  MaxDer = 2
 Requested accuracy = 0.1000D-12
 PrmmSu-InSpLW:  IPartL=    0 NPrtUS=   20 NPrtUL=    1 DoSpLW=F IThBeg=    0 IThEnd=   19 NThAct=   20.
 PrsmSu:  NPrtUS=  20 ThrOK=T IAlg=1 NPAlg=1 LenDen=           0 ISkipM=0 DoSpLW=F IThBeg=    0 IThEnd=   19.
 Prism:   IPart=     0 DynPar=F LinDyn=F Incr=          64.
 PRISM was handed    33357452 working-precision words and  7635 shell-pairs
 PRISM was handed    33357452 working-precision words and  7635 shell-pairs
 PRISM was handed    33357452 working-precision words and  7635 shell-pairs
 PRISM was handed    33357452 working-precision words and  7635 shell-pairs
 PRISM was handed    33357452 working-precision words and  7635 shell-pairs
 PRISM was handed    33357452 working-precision words and  7635 shell-pairs
 PRISM was handed    33357452 working-precision words and  7635 shell-pairs
 PRISM was handed    33357452 working-precision words and  7635 shell-pairs
 PRISM was handed    33357452 working-precision words and  7635 shell-pairs
 PRISM was handed    33357452 working-precision words and  7635 shell-pairs
 PRISM was handed    33357452 working-precision words and  7635 shell-pairs
 PRISM was handed    33357452 working-precision words and  7635 shell-pairs
 PRISM was handed    33357452 working-precision words and  7635 shell-pairs
 PRISM was handed    33357452 working-precision words and  7635 shell-pairs
 PRISM was handed    33357452 working-precision words and  7635 shell-pairs
 PRISM was handed    33357452 working-precision words and  7635 shell-pairs
 PRISM was handed    33357452 working-precision words and  7635 shell-pairs
 PRISM was handed    33357452 working-precision words and  7635 shell-pairs
 PRISM was handed    33357452 working-precision words and  7635 shell-pairs
 PRISM was handed    33357452 working-precision words and  7635 shell-pairs
 IPart= 16 NShTot=        6171 NBatch=         363 AvBLen=        17.0
 IPart= 17 NShTot=        6137 NBatch=         361 AvBLen=        17.0
 IPart= 18 NShTot=        6103 NBatch=         359 AvBLen=        17.0
 IPart=  8 NShTot=        6494 NBatch=         382 AvBLen=        17.0
 IPart= 19 NShTot=        6052 NBatch=         356 AvBLen=        17.0
 IPart=  9 NShTot=        6443 NBatch=         379 AvBLen=        17.0
 IPart= 11 NShTot=        6358 NBatch=         374 AvBLen=        17.0
 IPart= 13 NShTot=        6256 NBatch=         368 AvBLen=        17.0
 IPart=  4 NShTot=        6800 NBatch=         400 AvBLen=        17.0
 IPart=  0 NShTot=        7123 NBatch=         419 AvBLen=        17.0
 IPart= 14 NShTot=        6205 NBatch=         365 AvBLen=        17.0
 IPart= 15 NShTot=        6171 NBatch=         363 AvBLen=        17.0
 IPart=  2 NShTot=        6936 NBatch=         408 AvBLen=        17.0
 IPart= 10 NShTot=        6392 NBatch=         376 AvBLen=        17.0
 IPart=  6 NShTot=        6715 NBatch=         395 AvBLen=        17.0
 IPart=  5 NShTot=        6749 NBatch=         397 AvBLen=        17.0
 IPart= 12 NShTot=        6290 NBatch=         370 AvBLen=        17.0
 IPart=  1 NShTot=        7038 NBatch=         414 AvBLen=        17.0
 IPart=  3 NShTot=        6834 NBatch=         402 AvBLen=        17.0
 IPart=  7 NShTot=        6528 NBatch=         384 AvBLen=        17.0
 PrSmSu:  NxtVal=           1281.
 Polarizability after L701:
                1             2             3 
      1  0.000000D+00
      2  0.000000D+00  0.000000D+00
      3  0.000000D+00  0.000000D+00  0.000000D+00
 Dipole Derivatives after L701:
                 1             2             3             4             5 
      1  -0.292723D+00 -0.185493D-02  0.156350D-01  0.676552D+00  0.207376D-01
      2  -0.102576D-01 -0.209310D+00  0.603335D-01 -0.653504D+00 -0.799615D+00
      3   0.709117D-01  0.143060D+00 -0.183120D+00  0.700445D-01 -0.419477D-01
                 6             7             8             9            10 
      1   0.258041D+00  0.319931D+00 -0.439372D-01  0.579637D+00 -0.148885D+01
      2  -0.128457D+00  0.138157D+00  0.326122D+00  0.107948D+00 -0.240358D+00
      3  -0.392658D+00 -0.111375D-01  0.144909D+00 -0.559039D+00  0.159339D-01
                11            12            13            14            15 
      1  -0.771969D+00 -0.240153D+00 -0.136719D+01  0.876941D+00 -0.127783D+00
      2  -0.125754D+01 -0.802821D-01  0.225777D+00 -0.128301D+01 -0.168649D-01
      3   0.790073D-01 -0.924540D+00  0.879723D-01 -0.210169D+00 -0.860249D+00
                16            17            18            19            20 
      1  -0.614281D+00 -0.115033D+00 -0.233266D+00 -0.665782D+00 -0.361289D+00
      2  -0.128070D+00 -0.754570D+00 -0.817612D-01  0.345629D-01 -0.520262D+00
      3  -0.172770D+00 -0.742934D-01 -0.110713D-01 -0.199200D+00  0.592891D-01
                21            22            23            24            25 
      1  -0.284128D+00  0.996210D-01 -0.201508D-02 -0.306429D+00 -0.574101D-01
      2   0.830560D-02 -0.421406D-01  0.163920D+00 -0.582022D-01 -0.190589D+00
      3  -0.300412D-02  0.627381D-01 -0.448660D-01  0.565730D+00 -0.125071D+00
                26            27            28            29            30 
      1   0.314900D+00  0.474594D+00  0.119201D+00  0.525319D+00 -0.541462D+00
      2   0.453658D+00  0.561090D+00  0.116982D-01  0.625163D+00 -0.583263D+00
      3   0.220847D+00  0.451601D+00  0.190073D-01 -0.239301D+00  0.396456D+00
                31            32            33            34            35 
      1   0.127829D+01 -0.340682D+00  0.255237D+00  0.102576D+01  0.501034D-01
      2   0.288615D+00  0.462270D-01  0.665249D-01 -0.356613D+00  0.112647D+00
      3   0.827089D-01 -0.305194D-01  0.968253D-01  0.204735D+00  0.243479D-01
                36            37            38            39            40 
      1   0.554864D+00 -0.965090D-01 -0.281930D+00  0.157667D+00  0.291598D+00
      2  -0.195813D+00  0.517025D+00  0.638667D+00 -0.339177D+00 -0.157794D+00
      3   0.213592D+00 -0.111335D+00 -0.116098D+00  0.174295D+00 -0.113991D+00
                41            42            43            44            45 
      1  -0.303599D+00 -0.717253D+00  0.819456D-01  0.175709D+00  0.160893D-01
      2   0.326853D+00  0.556887D+00 -0.321553D+00  0.790543D+00 -0.485310D-01
      3   0.169521D+00  0.570506D+00  0.846448D-01 -0.118584D+00  0.709417D-01
                46            47            48            49            50 
      1   0.109638D+01  0.901094D+00  0.247032D+00 -0.406541D+00 -0.642495D+00
      2   0.387546D+00  0.556044D+00  0.944976D-01  0.497498D+00  0.784457D+00
      3   0.693088D-01  0.548690D-01  0.109054D+00 -0.345004D-01 -0.200709D-01
                51 
      1  -0.108323D+00
      2   0.767642D-01
      3   0.284682D+00
 Hessian after L701:
                1             2             3             4             5 
      1  0.471220D+01
      2 -0.359640D+01  0.138061D+02
      3  0.211660D+01 -0.126735D+01  0.168135D+02
      4  0.706524D+00 -0.196288D+00  0.339198D+00  0.902565D+01
      5 -0.909865D-01 -0.388919D+00 -0.295782D-01  0.772106D+00  0.508833D+01
      6  0.356595D+00 -0.598246D-01 -0.353863D+00 -0.129119D+01  0.589555D+00
      7 -0.227254D+01 -0.399022D+00 -0.376858D+01  0.320527D+00 -0.542666D-01
      8 -0.310330D+00 -0.870208D+01  0.472956D+00 -0.990802D-01 -0.120116D+00
      9 -0.360508D+01  0.457079D+00 -0.696599D+01  0.508811D-01 -0.341306D-02
     10  0.262098D+00  0.374032D+00  0.901130D-02  0.144323D+00  0.339544D-01
     11  0.325173D+00 -0.558845D-01  0.391904D-01 -0.113494D-01 -0.792664D-01
     12 -0.583355D-01 -0.909994D-02 -0.223991D+00  0.329515D-02 -0.212544D-03
     13  0.276692D+00 -0.628702D+00  0.138388D+00  0.991148D-01 -0.661797D-01
     14 -0.564453D+00  0.339276D+00 -0.108693D-01 -0.514959D-01 -0.490405D-01
     15  0.384614D-01  0.834894D-01 -0.402189D+00 -0.513650D-02 -0.349080D-03
     16 -0.451071D+01  0.500117D+01  0.811105D+00  0.485797D+00 -0.181263D+00
     17  0.496620D+01 -0.474680D+01  0.122393D+01 -0.544813D-01 -0.228223D+00
     18  0.657849D+00  0.112991D+01 -0.915900D+01 -0.850932D-01  0.219422D-01
     19  0.308877D+00 -0.244564D+00  0.403462D-01 -0.773709D+01 -0.277630D+01
     20 -0.327959D+00 -0.285285D+00 -0.363373D-01 -0.312856D+01 -0.369202D+00
     21  0.442556D-01 -0.268287D-01  0.233630D+00  0.437735D+00 -0.961281D+00
     22 -0.127250D+00  0.743130D-01  0.449019D+00  0.235696D-01 -0.870122D-02
     23  0.542213D-01  0.253257D+00 -0.118239D+00 -0.551676D-02 -0.204266D-01
     24  0.464217D+00 -0.139718D+00  0.220385D+00 -0.528516D-01  0.365785D-02
     25  0.129613D-01  0.676794D-01 -0.528108D-01  0.173584D-01  0.675091D-02
     26  0.119731D+00 -0.105893D-01 -0.371280D-01  0.217604D-01 -0.580029D-02
     27  0.171749D-01  0.143260D-01 -0.103533D+00  0.302479D-01  0.893365D-02
     28  0.181363D-01  0.652951D-01 -0.498079D-01  0.208313D-01  0.888572D-02
     29  0.831141D-01  0.306070D-01 -0.632320D-01  0.234708D-01 -0.221310D-02
     30 -0.655267D-01 -0.652215D-01  0.675130D-02 -0.218477D-01 -0.724216D-02
     31  0.150990D+00  0.146034D-01 -0.141874D-01  0.295788D-01  0.294855D-02
     32  0.128303D-01 -0.430947D-01 -0.221920D-02 -0.357486D-02 -0.550078D-02
     33 -0.132163D-02  0.556720D-03 -0.444148D-01  0.529307D-02  0.428043D-03
     34  0.105287D+00 -0.778841D-01 -0.574051D-02  0.255703D-01 -0.609385D-02
     35 -0.562858D-01 -0.139950D-01  0.488570D-02 -0.636574D-02 -0.365589D-02
     36  0.121877D-01 -0.458421D-02 -0.439931D-01  0.103894D-01 -0.154705D-02
     37 -0.197491D-01 -0.385562D-02  0.104683D-01 -0.610102D-02 -0.425383D-02
     38 -0.798396D-01  0.459373D-01 -0.170730D-01 -0.316353D-01  0.633210D-02
     39  0.176387D-01 -0.407602D-01 -0.464869D-01  0.130771D-01 -0.699015D-02
     40  0.219663D-01 -0.633086D-01 -0.772330D-01  0.142723D-01 -0.870136D-02
     41 -0.671049D-01  0.755301D-02  0.708664D-01 -0.156239D-01 -0.156059D-02
     42 -0.855908D-01  0.775889D-01  0.404066D-01 -0.192493D-01  0.565808D-02
     43  0.155590D+00 -0.351172D+00 -0.503424D-01  0.500655D-01 -0.120450D+00
     44 -0.317301D+00 -0.175281D+00 -0.178537D+00 -0.152230D+00  0.109668D+00
     45 -0.283057D-01 -0.132935D+00  0.224565D+00  0.200537D-01 -0.239105D-01
     46  0.124540D+00  0.879422D-01  0.280112D-01  0.151215D+00  0.551607D-01
     47  0.104128D+00  0.835217D-02  0.183408D-01  0.233696D-01 -0.264378D+00
     48  0.356781D-01  0.215986D-01 -0.289381D-01  0.116591D-01  0.136991D-01
     49  0.743938D-01 -0.123847D+00  0.765529D-01 -0.337120D+01  0.243739D+01
     50 -0.254746D+00 -0.691304D-01 -0.696048D-01  0.291549D+01 -0.366602D+01
     51  0.835057D-01 -0.382202D-01 -0.166862D+00  0.553535D+00  0.390650D+00
                6             7             8             9            10 
      6  0.154868D+02
      7  0.292450D-01  0.151154D+02
      8  0.396423D-03  0.257469D+00  0.197287D+02
      9 -0.144432D+00  0.281763D+01 -0.468384D+00  0.203319D+02
     10  0.140088D-01 -0.426198D+01  0.210304D+01  0.514609D+00  0.129616D+02
     11 -0.142589D-02  0.202953D+01 -0.332571D+01  0.546390D+00 -0.171771D+01
     12 -0.766336D-01  0.506775D+00  0.565675D+00 -0.576828D+01 -0.219346D+00
     13  0.744441D-02 -0.517126D+01 -0.196709D+01  0.101039D+00 -0.105152D+00
     14 -0.355500D-02 -0.191196D+01 -0.280393D+01 -0.372327D-01 -0.161256D-01
     15 -0.677392D-01  0.125555D+00 -0.582667D-01 -0.619889D+01 -0.107688D-02
     16 -0.113702D+00  0.463825D+00  0.214885D-01 -0.176416D+00  0.168758D+00
     17  0.249038D-01  0.101908D+00 -0.333265D-01 -0.892126D-01  0.230494D+00
     18  0.401790D+00 -0.191489D+00 -0.906749D-01  0.133919D+00 -0.663018D-02
     19  0.417099D+00  0.253731D+00  0.391735D-01 -0.802985D-01  0.852834D-01
     20 -0.985000D+00  0.336351D-01 -0.121870D+00 -0.225862D-01  0.490160D-01
     21 -0.884665D+01 -0.103859D+00 -0.189007D-01 -0.955169D-01  0.562451D-02
     22 -0.177237D-01 -0.461702D+01 -0.712729D-01  0.427385D+00  0.331511D-01
     23  0.207034D-02 -0.863452D-01 -0.469243D+01 -0.302147D+00 -0.114019D+00
     24 -0.528819D-02  0.589201D+00 -0.324246D+00 -0.175276D+01 -0.846762D-01
     25  0.677147D-02  0.995832D-01 -0.660293D-01 -0.656928D-01 -0.380029D+01
     26  0.594422D-02 -0.321190D-01  0.178617D-01 -0.819735D-01 -0.478146D+00
     27 -0.320319D-02 -0.338243D-01 -0.358961D-01  0.802997D-01 -0.665874D+00
     28 -0.219731D-02  0.408297D-01 -0.732286D-01  0.200646D-01 -0.392786D+01
     29 -0.166307D-02 -0.463544D-01 -0.339793D-01 -0.492012D-02 -0.347796D-01
     30 -0.741662D-02  0.740419D-02 -0.177290D-01  0.104345D+00 -0.584355D-02
     31  0.352991D-02 -0.485874D-01 -0.808246D-01 -0.404118D-01 -0.150687D+01
     32 -0.543209D-03 -0.121712D+00  0.797392D-01 -0.204399D-01 -0.507072D+00
     33 -0.524142D-02 -0.204275D-01 -0.823140D-02  0.906958D-01  0.454182D+00
     34  0.488090D-02  0.286208D-03  0.102545D+00 -0.519984D-02  0.136016D-01
     35 -0.797894D-03  0.129364D+00 -0.122240D-01  0.455994D-01  0.617688D-02
     36 -0.393499D-02  0.928490D-02  0.231992D-01  0.964298D-01  0.619139D-02
     37  0.103762D-02  0.107023D+00  0.354413D-01 -0.137830D-01 -0.246244D-01
     38 -0.587074D-02 -0.360890D-01 -0.107865D-01  0.639649D-01  0.638696D-01
     39 -0.768571D-02  0.369953D-02  0.248654D-01  0.463394D-01 -0.990902D-02
     40 -0.325088D-02 -0.847883D-02  0.108238D+00  0.528894D-01 -0.401477D-01
     41  0.208304D-02  0.106328D+00 -0.136883D-01 -0.647597D-01 -0.649647D-02
     42 -0.397735D-02  0.457401D-01 -0.427928D-01  0.896268D-01 -0.726044D-02
     43  0.207445D-01 -0.418946D-01 -0.186469D-02 -0.218750D-03 -0.947411D-02
     44 -0.330571D-01  0.485594D-01  0.429815D-01 -0.160454D-01  0.174035D-01
     45 -0.391163D-01 -0.138516D-01 -0.216169D-01 -0.206676D-01 -0.275146D-02
     46  0.646153D-02  0.264747D-01  0.779469D-02  0.429154D-02  0.114247D-01
     47 -0.865181D-02  0.227083D-01 -0.295015D-02  0.526918D-02  0.113127D-01
     48  0.851828D-01  0.147750D-02 -0.134806D-02 -0.925449D-02  0.168722D-02
     49  0.560243D+00 -0.594214D-02 -0.546832D-02 -0.168652D-02 -0.380191D-02
     50  0.475437D+00 -0.416321D-01  0.377946D-02 -0.718871D-02 -0.149492D-01
     51 -0.640856D+01 -0.398288D-02  0.993729D-03 -0.177389D-01 -0.194676D-02
               11            12            13            14            15 
     11  0.129074D+02
     12 -0.217807D+00  0.150181D+02
     13  0.113757D+00  0.349757D-03  0.135473D+02
     14  0.285369D+00 -0.632914D-02  0.128335D+01  0.125504D+02
     15  0.539749D-01 -0.115921D+00  0.267102D+00 -0.234974D+00  0.156191D+02
     16  0.213545D+00 -0.231463D-01  0.125121D+00  0.657995D-02 -0.752839D-01
     17  0.106086D-02 -0.198318D-01 -0.155844D+00 -0.972222D-01  0.394066D-03
     18 -0.529879D-02 -0.151619D+00 -0.421073D-01 -0.275647D-01 -0.105481D+00
     19  0.498650D-01 -0.311033D-02  0.725397D-01 -0.929066D-02 -0.842856D-02
     20 -0.446750D-01  0.204982D-02 -0.516370D-01 -0.729771D-01  0.252838D-02
     21  0.423109D-02 -0.607927D-01  0.364966D-02 -0.348476D-02 -0.716763D-01
     22 -0.110964D+00 -0.739418D-01  0.155630D+00  0.257032D+00 -0.168978D+00
     23 -0.181769D-01 -0.116103D+00  0.277726D+00 -0.126528D-01  0.247943D+00
     24 -0.132945D+00  0.551069D-01 -0.245237D+00  0.325986D+00  0.162123D+00
     25 -0.328539D+00 -0.493148D+00 -0.304063D-01 -0.658114D-02 -0.673542D-02
     26 -0.335803D+01  0.110716D+01 -0.186145D-02  0.505367D-01  0.339369D-01
     27  0.981309D+00 -0.224487D+01  0.124064D-02  0.331975D-01 -0.915364D-02
     28  0.597624D-01 -0.105000D+00 -0.449368D-01  0.138748D-01 -0.214019D-02
     29 -0.274343D+01 -0.126057D+01  0.114834D-01  0.123232D+00 -0.422751D-01
     30 -0.118578D+01 -0.263568D+01 -0.607729D-02 -0.551185D-01 -0.281061D-01
     31 -0.682141D+00  0.481751D+00  0.220692D-01  0.549334D-01  0.187266D-01
     32 -0.374456D+01 -0.103919D+00  0.228924D-01 -0.549548D-03  0.122227D-01
     33 -0.135523D+00 -0.372270D+01  0.141933D-01  0.179472D-01 -0.280448D-01
     34 -0.337798D-02 -0.773593D-03 -0.202471D+01  0.686477D-01  0.115966D+01
     35 -0.375818D-01  0.316135D-01 -0.605375D-01 -0.391277D+01 -0.757871D-01
     36  0.128653D-01 -0.217383D-02  0.111056D+01  0.357684D-02 -0.314272D+01
     37  0.599960D-01 -0.100411D-01 -0.338276D+01  0.101472D+01 -0.625333D+00
     38  0.126234D+00 -0.221327D-01  0.130662D+01 -0.291991D+01 -0.891512D+00
     39 -0.271659D-01 -0.391484D-01 -0.724908D+00 -0.786476D+00 -0.371454D+01
     40 -0.883417D-02 -0.393876D-02 -0.363897D+01 -0.239804D+00 -0.656627D+00
     41  0.819437D-01  0.556470D-01 -0.228507D+00 -0.348284D+01  0.908294D+00
     42  0.698956D-01 -0.530819D-02 -0.561836D+00  0.812188D+00 -0.182850D+01
     43  0.273385D-02 -0.937192D-03  0.701828D-01  0.104198D+00 -0.579251D-01
     44  0.102994D-01 -0.671278D-02  0.160491D+00  0.113327D-02 -0.413330D-01
     45 -0.346272D-02 -0.110554D-01 -0.655183D-01 -0.289839D-01 -0.505625D-01
     46  0.468952D-02 -0.231866D-03  0.238613D-01  0.900793D-02 -0.121965D-02
     47 -0.195212D-02 -0.642124D-03  0.101402D-01 -0.173182D-02 -0.104778D-02
     48  0.590431D-03 -0.524151D-02  0.305599D-02  0.153908D-02 -0.875425D-02
     49  0.386730D-02 -0.221246D-03  0.572372D-02 -0.126301D-01 -0.621522D-03
     50 -0.306586D-02  0.121391D-02 -0.260951D-01  0.363899D-02  0.276164D-02
     51  0.961754D-03 -0.983134D-02 -0.133521D-02  0.152778D-03 -0.890949D-02
               16            17            18            19            20 
     16  0.955789D+01
     17 -0.234938D+01  0.164803D+02
     18 -0.333284D+01 -0.443026D+00  0.267951D+02
     19 -0.180514D+01 -0.191989D+01  0.318279D+01  0.114978D+02
     20 -0.152620D+01 -0.959452D+01 -0.459875D+00  0.317921D+01  0.135179D+02
     21  0.307588D+01 -0.501463D+00 -0.135107D+02 -0.362768D+01  0.112886D+01
     22 -0.521767D-01  0.157261D-01 -0.438645D-01  0.138174D+00  0.548016D-01
     23  0.268435D-01 -0.807003D-01 -0.308171D-01  0.634139D-01 -0.379019D-01
     24 -0.971323D-01 -0.427565D-01  0.110018D-01 -0.106115D+00 -0.238741D-01
     25  0.131491D-01  0.348179D-01  0.132745D-01  0.337142D-02  0.690351D-02
     26  0.464431D-01  0.227356D-01  0.171557D-01  0.173745D-01  0.816438D-03
     27  0.247509D-01  0.247926D-01 -0.128026D-01  0.154938D-01  0.756947D-02
     28  0.121802D-02  0.112406D-01 -0.349245D-02  0.862425D-02  0.779752D-02
     29  0.165029D-01  0.625934D-02 -0.696973D-02  0.176735D-01  0.127516D-02
     30 -0.106334D-01 -0.109456D-01 -0.310748D-02 -0.116426D-01 -0.508427D-02
     31  0.171153D-01  0.784250D-02 -0.510749D-03  0.196738D-01  0.271750D-02
     32  0.658464D-03 -0.618881D-02  0.506844D-03  0.157680D-02 -0.459035D-02
     33  0.176571D-02  0.367029D-03 -0.844338D-02  0.308655D-02  0.345008D-03
     34  0.763979D-01 -0.124159D-01  0.124587D-01  0.274505D-01 -0.593803D-02
     35 -0.118207D-01 -0.241402D-01 -0.620902D-03 -0.273837D-02 -0.577125D-02
     36  0.179993D-01 -0.241555D-02 -0.201215D-01  0.871827D-02 -0.188459D-02
     37 -0.390556D-01 -0.208552D-01 -0.395641D-01  0.110160D-01 -0.934442D-02
     38 -0.583661D-01  0.476242D-01  0.232444D-01 -0.397902D-01  0.152462D-02
     39 -0.126590D-01 -0.411051D-02 -0.164951D-01  0.107923D-01 -0.635263D-02
     40  0.424518D-01 -0.222040D-01 -0.329175D-01  0.298923D-01 -0.118868D-01
     41 -0.255486D-01 -0.186091D-01  0.119606D-01 -0.159673D-01 -0.495289D-02
     42 -0.466581D-01  0.188864D-01  0.829127D-03 -0.237683D-01  0.795704D-02
     43 -0.424605D+01 -0.816982D+00  0.345082D-01 -0.154138D+00  0.360008D+00
     44 -0.104982D+01 -0.176693D+01 -0.120497D+00  0.431049D+00 -0.564862D-01
     45  0.692549D-01 -0.178329D+00 -0.461312D+01 -0.142364D+00  0.115944D+00
     46 -0.352480D+00 -0.114624D+00 -0.112388D+00 -0.287595D+01  0.137779D+01
     47 -0.144078D+00  0.243531D+00 -0.299363D-01  0.139003D+01 -0.299600D+01
     48 -0.107595D+00 -0.268054D-01  0.189385D+00  0.322828D+00  0.296501D+00
     49  0.538927D-01  0.984427D-01 -0.997690D-02  0.115854D+00 -0.103585D-01
     50  0.132468D-01 -0.204812D+00  0.105625D-01 -0.180826D+00  0.727573D-01
     51 -0.468440D-02  0.256188D-01  0.688386D-01  0.225397D-02 -0.207645D-01
               21            22            23            24            25 
     21  0.263515D+02
     22 -0.556137D-01  0.443493D+01
     23 -0.185937D-01 -0.186871D+00  0.468098D+01
     24 -0.260896D-01 -0.636779D+00  0.325851D+00  0.117410D+01
     25  0.441149D-02 -0.223931D-01  0.196364D-01  0.363838D-01  0.370996D+01
     26  0.601468D-02  0.225955D-01  0.965370D-02  0.782226D-01  0.170473D+00
     27 -0.284967D-02  0.321645D-01  0.567098D-01  0.741042D-01  0.387886D+00
     28 -0.229327D-02 -0.106088D-02 -0.418852D-01 -0.119327D-01  0.924209D-01
     29 -0.275524D-02 -0.373808D-01 -0.328164D-01 -0.131593D-01 -0.106095D-01
     30 -0.405667D-02 -0.113870D-01 -0.175683D-01  0.175462D-01  0.466242D-01
     31  0.150306D-02  0.313714D-01  0.122498D-01  0.467313D-01 -0.959138D-01
     32  0.169984D-03  0.123295D-01 -0.128519D-01  0.946390D-02  0.117180D+00
     33 -0.469773D-02  0.290941D-01  0.742273D-02  0.996070D-02  0.122243D+00
     34  0.546978D-02  0.336692D-01 -0.480999D-01  0.825051D-01 -0.164832D-02
     35 -0.907597D-04 -0.429355D-01 -0.415626D-02 -0.503160D-01 -0.110089D-01
     36 -0.521651D-02  0.588245D-01 -0.413512D-01  0.387427D-01  0.433702D-03
     37 -0.215570D-02 -0.827934D-02 -0.549706D-04 -0.329964D-02 -0.444965D-03
     38 -0.273507D-02 -0.256661D-02  0.133348D-01 -0.271768D-01 -0.298907D-02
     39 -0.156028D-01  0.148903D-02 -0.152193D-01  0.110692D-01 -0.400386D-04
     40 -0.885024D-02 -0.577768D-02  0.394415D-01 -0.744910D-03 -0.844368D-03
     41  0.343460D-02  0.372822D-01 -0.354918D-01  0.834743D-03 -0.117741D-02
     42 -0.388730D-02 -0.490919D-02  0.639016D-02  0.163950D-01 -0.178948D-02
     43 -0.126630D+00 -0.522050D-02 -0.165963D-01  0.164078D-01  0.635069D-04
     44  0.125777D+00 -0.164778D-01 -0.990347D-02  0.963422D-02  0.407044D-02
     45  0.185495D+00  0.120496D-01  0.151243D-01 -0.561564D-02  0.597512D-03
     46  0.353287D+00 -0.487562D-03  0.126856D-02 -0.546152D-02  0.573483D-03
     47  0.326326D+00  0.937049D-03  0.494565D-03 -0.486608D-02  0.858664D-03
     48 -0.423373D+01  0.199057D-03 -0.129279D-04 -0.155727D-02  0.310218D-03
     49 -0.473372D-02 -0.108253D-01  0.458792D-02  0.878304D-02  0.249196D-02
     50 -0.586859D-01  0.215342D-02 -0.215414D-03  0.540784D-02 -0.143620D-02
     51  0.110878D+00  0.297227D-02 -0.145978D-02  0.784749D-03  0.128124D-02
               26            27            28            29            30 
     26  0.309084D+01
     27 -0.110044D+01  0.239542D+01
     28 -0.144651D-01  0.801070D-01  0.378787D+01
     29  0.120561D+00  0.407534D-01 -0.158406D+00  0.251523D+01
     30  0.379069D-01 -0.223771D+00  0.206255D+00  0.123763D+01  0.277115D+01
     31  0.141888D+00  0.114883D+00  0.675662D-02  0.142764D+00 -0.131543D+00
[...]
   yy         0.630232D+02      0.933908D+01      0.103911D+02
   zx         0.357304D+01      0.529470D+00      0.589115D+00
   zy         0.110500D+02      0.163744D+01      0.182190D+01
   zz         0.769766D+02      0.114068D+02      0.126917D+02

 ----------------------------------------------------------------------

 Test job not archived.
 1\1\GINC-C0180\Freq\RM062X\CC-pVTZ\C5H10O2\HARMS.N\26-Sep-2019\0\\#P G
 eom=AllCheck Guess=TCheck SCRF=Check Test GenChk RM062X/CC-pVTZ Freq\\
 Gaussian input prepared by ASE\\0,1\O,2.832842378,-3.344287395,0.67877
 70185\O,3.6686942188,-1.2000310801,2.1877508705\C,2.9395902572,-3.6626
 801754,-0.7134577812\C,3.6113424549,-5.0158421131,-0.7955689104\C,3.71
 23478919,-2.5795717099,-1.4440944898\C,1.9772974426,-2.308723755,0.963
 7182479\C,2.4015148703,-1.3022691817,1.7153033662\H,1.9239357236,-3.72
 78206936,-1.121314024\H,4.6087892533,-4.9596818192,-0.3584703726\H,3.0
 363015498,-5.7619892659,-0.2504909345\H,3.7060927269,-5.3306287855,-1.
 8341282438\H,4.7315209742,-2.5277295858,-1.0577372675\H,3.2392819438,-
 1.6077733186,-1.3067151066\H,3.7581294856,-2.7950957542,-2.5113816954\
 H,0.9634752241,-2.3777937374,0.5908020771\H,1.7542235067,-0.4953603469
 ,2.0219118555\H,4.1437796266,-1.9869632323,1.8926131541\\Version=EM64L
 -G16RevA.03\State=1-A\HF=-346.9495355\RMSD=2.867e-09\RMSF=8.474e-07\Ze
 roPoint=0.1475551\Thermal=0.1559412\Dipole=-0.1825451,-0.309252,-0.781
 3764\DipoleDeriv=-0.560505,0.3817632,0.3135343,0.1944854,-1.0314475,-0
 .5950761,0.1582986,-0.4205044,-0.9305272,-0.9944055,-0.4228771,-0.5690
 407,0.0263979,-0.3326755,-0.0271066,-0.2209506,-0.1556566,-0.5348166,0
 .3666951,0.0150068,-0.1070577,-0.0230539,0.563609,0.1559492,-0.1897232
 ,0.3139127,0.8986093,0.0445584,0.0494401,0.0363078,0.0568062,-0.072671
 ,-0.0237186,0.0204686,-0.0068523,0.0356237,0.0124095,-0.0303393,0.0795
 753,-0.0460386,-0.1130936,0.0924957,0.0744064,-0.0207708,-0.0477386,0.
 2626427,-0.4393009,-0.3019632,-0.3494355,0.5099424,0.4443207,-0.052599
 ,0.1835425,-0.1055968,0.7808834,0.3527738,0.6179486,0.0718287,0.143279
 ,0.1593355,0.3227727,0.24648,0.1918945,-0.1680636,-0.0195813,-0.070117
 3,0.0089875,-0.0123736,0.0088695,0.0048017,-0.0304023,-0.0443857,-0.08
 10446,0.016537,-0.0532967,-0.0464374,0.0364732,-0.0263212,-0.076203,0.
 0102936,0.0438949,0.0100327,-0.0658664,0.0493431,-0.0356267,-0.0456212
 ,0.0515663,0.0421767,0.0892349,0.0354153,0.0631697,0.0218396,0.0101145
 ,0.0184558,0.0313557,-0.0287113,0.0213057,-0.0684202,-0.1083924,-0.085
 5625,-0.0236469,-0.034782,0.0117863,0.0471667,0.0167233,-0.092138,0.00
 68948,0.0273696,0.0220206,0.0509094,0.0003998,0.0361551,-0.0897038,-0.
 0046141,0.0062667,-0.0131887,0.0933367,0.0613446,-0.0041844,0.0104267,
 -0.0091655,0.0716168,-0.0567126,0.0270451,-0.039448,-0.1218835,-0.0553
 292,0.0386127,-0.0235929,0.0071886,0.0249007,-0.098466,-0.0836934,-0.0
 106393,0.1332134,0.0128155,0.047327,-0.0172014,0.0673038,0.0492648,-0.
 0479609,0.0045859,-0.0623868,0.1068076,0.308338,0.0315866,0.0594019,0.
 0103621,0.2199779,-0.0205728,0.033179,-0.0220891,0.3271758\Polar=63.10
 37811,-1.3327733,72.5999653,-0.5574348,13.5379504,68.2101605\Quadrupol
 e=2.1876478,-0.8993345,-1.2883133,-2.0325321,-0.3142569,0.0481839\PG=C
 01 [X(C5H10O2)]\NImag=0\\0.24418634,-0.17122949,0.31936359,-0.03036018
 ,0.10725611,0.37812310,0.01329409,-0.01023438,0.00044160,0.50386315,-0
 .00554931,0.00282837,0.00221847,-0.16302919,0.43691830,0.00361711,0.00
 215971,-0.00564022,0.06267152,0.17719216,0.15755323,-0.07582959,0.0089
 5445,-0.01779053,0.00150146,-0.00258000,0.00029845,0.60525972,0.011964
 25,-0.07150257,-0.00491161,0.00272359,-0.00016081,0.00080285,-0.013562
 48,0.52389057,-0.00222550,-0.02472234,-0.19885987,0.00485627,0.0010659
 3,0.00217099,0.04381751,-0.00810490,0.46132864,-0.00070907,0.00536943,
 0.00366609,0.00005679,0.00016789,-0.00002357,-0.11160565,0.05542521,0.
 00094430,0.56278381,0.00855504,-0.01317560,-0.00939337,0.00026919,0.00
 006332,0.00005144,0.05202460,-0.18434219,-0.00278165,0.03990298,0.5176
 9282,0.02508264,-0.04350653,-0.01756983,-0.00085974,0.00002354,-0.0003
 2139,-0.00677569,0.01003693,-0.07340769,-0.00384507,-0.00497579,0.5935
 2509,0.00188603,-0.00075255,0.00577979,-0.00060261,0.00031234,0.000562
 14,-0.11999943,-0.04879135,0.02864928,0.00901919,0.00988369,-0.0081695
 4,0.55209249,0.00539011,0.00724333,-0.00591161,-0.00017474,0.00001794,
 -0.00021178,-0.04701077,-0.14933676,0.04099832,-0.01677751,-0.02950606
 ,0.01633739,-0.03915245,0.53790977,0.02561306,0.01957707,-0.04406265,-
 0.00122171,0.00013835,-0.00017370,0.02266968,0.03387557,-0.09156763,-0
 .00230338,0.00276201,0.00360151,0.02317715,0.03623386,0.56483118,-0.16
 289988,0.11349221,0.01739016,-0.05213227,-0.03067673,-0.04161130,-0.00
 736196,0.00665622,0.01592257,-0.00026409,-0.00086154,-0.00280337,-0.00
 054626,-0.00067430,-0.00182950,0.64788570,0.11480877,-0.19255824,-0.05
 074268,-0.00074298,0.00336538,-0.00418638,0.01032486,-0.02251944,-0.02
 422329,0.00054929,-0.00009686,-0.00172823,-0.00033254,0.00382635,0.005
 21258,0.02233184,0.61829632,-0.00117332,-0.02765411,-0.08701045,-0.023
 34237,-0.01666896,-0.00188752,0.02727416,-0.03489490,-0.01530797,0.000
 57624,-0.00069000,-0.00569485,0.00088365,0.00016185,-0.00153401,0.1946
 5509,0.32338869,0.40695293,-0.00556475,0.04222203,0.02272991,-0.301382
 25,0.01218532,-0.07879048,-0.00437892,0.00091803,-0.00657462,0.0002477
 8,0.00010997,0.00281021,0.00100822,-0.00011488,0.00189502,-0.13982164,
 -0.11731936,-0.09936500,0.64363666,0.00821681,-0.04665703,-0.03309190,
 -0.02947459,-0.09767008,-0.04307517,0.00055777,0.00019493,0.00809233,-
 0.00010551,0.00001450,-0.00130836,-0.00019010,-0.00047306,-0.00038698,
 -0.09272946,-0.35073117,-0.21397820,-0.05604455,0.71199870,-0.00325855
 ,-0.01485197,0.00098902,-0.10222001,-0.02735127,-0.09604799,-0.0010382
 8,-0.00117408,-0.00074658,0.00016995,-0.00000107,0.00016147,-0.0000449
 7,0.00004819,0.00062011,-0.08250664,-0.22623410,-0.22367344,0.13280378
 ,0.34679319,0.38623255,0.00521567,0.00024830,-0.00271022,0.00047913,0.
 00030849,-0.00005177,-0.26829717,-0.01319317,-0.08052207,-0.01312016,0
 .00002290,-0.00440619,-0.01649972,-0.00141198,-0.00504156,0.00231201,0
 .00096464,0.00174819,-0.00000842,-0.00057327,-0.00007779,0.28827682,-0
 .00487320,-0.00069774,-0.00912992,0.00037543,-0.00013369,0.00000794,-0
 .01206307,-0.05247520,-0.00317395,0.02941589,0.00047710,0.01117682,-0.
 02465552,-0.00214312,-0.00674642,-0.00304693,0.00121042,-0.00071344,-0
 .00008580,-0.00025391,-0.00011014,0.01431308,0.05817066,-0.02901052,-0
 .01027592,-0.03671229,0.00038755,-0.00055336,-0.00004214,-0.07530993,-
 0.00485096,-0.07478429,0.00205154,0.00109797,0.00238448,0.01542405,0.0
 0170769,0.00734230,-0.00525255,0.00481906,0.00167825,0.00027228,-0.000
 76484,-0.00029005,0.08865469,0.00710471,0.09923633,0.00130009,-0.00073
 257,0.00031219,0.00028917,-0.00002918,0.00010142,-0.01735534,-0.000190
 21,-0.00735752,-0.27068302,-0.01559015,-0.09849271,0.00095270,-0.00099
 998,0.00065684,0.00026965,-0.00001188,0.00030337,-0.00022709,-0.000058
 18,-0.00007925,0.00017485,0.00303049,0.00062314,0.29435943,-0.00194974
 ,0.00195302,0.00112495,-0.00020199,-0.00003850,0.00000209,0.03077349,0
 .00025952,0.01392766,-0.01722788,-0.04818158,-0.00700216,0.00120559,0.
 00209433,-0.00000686,0.00021425,-0.00013799,-0.00004360,-0.00000857,0.
 00014255,0.00001890,0.00247430,-0.00513093,-0.00078254,0.01434426,0.05
 212793,0.00017717,0.00063277,0.00121822,0.00007409,0.00005799,0.000004
 22,0.00163727,-0.00047127,-0.00084072,-0.09896856,-0.00563193,-0.09017
 567,-0.00019766,-0.00006343,-0.00032025,0.00041801,-0.00019026,-0.0000
 9063,-0.00013586,0.00008913,-0.00000685,0.00044536,-0.00025485,0.00075
 138,0.10918265,0.00642456,0.09326504,0.00029728,-0.00116564,-0.0008405
 5,-0.00005902,-0.00000156,-0.00004929,0.00868277,0.01209672,-0.0089762
 0,-0.12743298,-0.10121052,0.07409132,-0.00106222,0.00252164,0.00076335
 ,-0.00001976,-0.00000123,-0.00020537,0.00008877,-0.00001123,-0.0000109
 7,0.00089308,-0.00076102,-0.00042684,-0.01450918,-0.01942528,0.0158402
 4,0.13415325,-0.00051716,0.00311580,0.00036131,0.00018074,0.00005148,-
 0.00002324,-0.01813139,-0.02145965,0.01618699,-0.09879995,-0.17253118,
 0.09200628,0.00433913,-0.00484061,-0.00165643,0.00041083,-0.00003684,-
 0.00024097,-0.00022958,0.00019212,0.00002416,0.00016958,0.00123981,-0.
 00006255,-0.00027880,-0.00119135,0.00005182,0.10725333,0.18870689,-0.0
 0049363,-0.00012813,0.00087006,0.00013534,0.00002842,0.00002555,-0.001
 13089,-0.00219440,-0.00100994,0.07334948,0.09447899,-0.11601365,-0.000
 39656,-0.00019751,0.00033879,0.00011594,-0.00013075,0.00010849,-0.0002
 0911,-0.00000979,-0.00001784,-0.00016282,0.00027887,-0.00011098,-0.007
 04844,-0.01033608,0.00709537,-0.08043944,-0.10305660,0.12152147,-0.001
 69704,0.00409504,0.00110347,0.00022540,-0.00000959,0.00007914,-0.00175
 484,0.00109972,0.01450348,-0.04831203,0.00709060,0.02094346,0.00022128
 ,-0.00049252,0.00003562,0.00114470,0.00021691,0.00073763,-0.00057848,0
 .00025094,-0.00001161,-0.00004400,-0.00074183,-0.00013734,0.00434362,-
 0.00894551,-0.02855194,-0.00189367,0.00646833,0.01594073,0.04839052,0.
 00470712,-0.00665030,-0.00176589,-0.00037276,0.00000328,-0.00015460,-0
 .00192126,-0.00408797,-0.02784412,0.00700697,-0.07012231,-0.07196854,-
 0.00044458,0.00099895,-0.00014664,-0.00088051,0.00015513,-0.00132704,0
 .00085894,-0.00033872,0.00005279,0.00020745,0.00100570,0.00046959,-0.0
 0000948,-0.00167337,-0.00101035,-0.00040852,0.00770666,0.02141481,-0.0
 0900072,0.07369185,0.00099070,-0.00093273,0.00106555,-0.00014861,-0.00
 006276,-0.00003312,-0.00061290,0.00162644,-0.00221442,0.02205044,-0.07
 490564,-0.29498768,-0.00015766,0.00044092,-0.00021590,-0.00065052,0.00
 047019,0.00042675,0.00023061,-0.00012552,0.00000755,0.00035761,-0.0004
 2000,0.00026358,0.00186746,-0.00282012,-0.01093524,0.00018238,-0.00480
 858,-0.01349430,-0.02431852,0.08152123,0.31937429,0.00223314,0.0015450
 2,0.00029214,0.00096613,0.00002910,-0.00018805,-0.01961937,-0.00201691
 ,-0.00765507,0.00095802,0.00126529,-0.00008650,-0.27815338,-0.00901810
 ,-0.08974644,-0.00007973,-0.00001048,0.00041356,-0.00108066,-0.0002696
 0,-0.00019803,-0.00037968,-0.00263428,0.00221871,0.00069751,-0.0007226
 3,0.00003462,0.00034821,0.00016736,0.00019163,-0.00001589,-0.00003337,
 0.00013206,0.30330744,0.00216214,0.00105901,-0.00085651,-0.00074063,-0
 .00003536,-0.00000856,-0.02503339,-0.00285867,-0.01019939,-0.00106567,
 0.00153727,-0.00098605,-0.00767409,-0.04729390,-0.00315543,-0.00014149
 ,-0.00025500,-0.00022731,0.00075336,0.00019996,0.00020408,-0.00241710,
 -0.00307845,0.00291748,0.00049679,-0.00034203,0.00046671,0.00036668,0.
 00024707,0.00005785,0.00000938,-0.00007452,-0.00008270,0.01290331,0.04
 961224,-0.00094137,-0.00023900,0.00248906,-0.00029606,-0.00006131,-0.0
 0003685,0.01645355,0.00156137,0.00432757,0.00033091,-0.00094346,0.0003
 3140,-0.09041345,-0.00464624,-0.08137219,0.00015672,-0.00054767,-0.000
 18146,0.00016711,0.00011316,0.00013622,0.00192955,0.00246785,-0.000871
 75,-0.00035037,-0.00015359,0.00006989,0.00010217,-0.00017488,-0.000040
 63,-0.00017151,0.00000621,-0.00001456,0.09786337,0.00231818,0.08425448
 ,0.00024556,0.00130839,-0.00138824,-0.00088326,-0.00010831,-0.00030724
 ,0.00894072,-0.01723179,-0.00389634,-0.00165831,-0.00184447,0.00218432
 ,-0.10145670,0.10702441,0.01491536,-0.00014891,-0.00027951,0.00085489,
 0.00045771,0.00028462,0.00065186,0.00077674,0.00061585,-0.00073335,0.0
 0027062,-0.00030071,0.00027597,0.00073745,-0.00099327,0.00029119,-0.00
 022012,0.00013525,0.00004480,-0.01204671,0.02642709,0.00511295,0.10651
 888,0.00042248,0.00131155,-0.00098615,-0.00051664,-0.00010464,0.000082
 47,0.01182441,-0.02204951,-0.00394353,-0.00406726,-0.00214731,0.002851
 51,0.10550638,-0.26050869,-0.03031151,0.00011203,0.00005393,-0.0008414
 4,0.00067448,0.00077306,0.00004684,-0.00015994,0.00077605,-0.00018946,
 -0.00002244,0.00019463,0.00000335,0.00081400,-0.00131909,-0.00001184,-
 0.00006943,0.00033143,-0.00008108,-0.00136036,0.00271647,0.00071574,-0
 .11482754,0.28447095,-0.00055417,-0.00142163,0.00112931,0.00025355,-0.
 00004633,0.00055083,-0.00869972,0.01507268,0.00121720,0.00224747,0.001
 93137,-0.00178790,0.01505239,-0.03240869,-0.05109236,0.00048098,0.0008
 6454,-0.00050968,-0.00004189,-0.00050009,-0.00089392,-0.00007860,-0.00
 082300,0.00023697,0.00023714,-0.00027189,0.00004200,-0.00020181,0.0010
 7603,0.00036566,-0.00002833,0.00017394,0.00031000,-0.00485058,0.011672
 92,0.00095365,-0.01793696,0.03282105,0.05224237,-0.00173317,-0.0019952
 3,0.00468142,0.00060263,0.00001158,-0.00004087,-0.00054580,0.00649345,
 0.01476468,0.00017092,0.00045839,-0.00024804,-0.04708205,0.00066837,0.
 00971328,0.00093917,-0.00112620,0.00011852,-0.00069890,0.00000679,-0.0
 0032391,0.00001124,0.00060860,-0.00065305,0.00003513,-0.00006251,-0.00
 010947,-0.00018470,0.00008714,-0.00005808,0.00031177,-0.00002160,-0.00
 008632,0.00292368,-0.00612298,-0.02993279,-0.00131750,0.00174406,0.014
 23831,0.04680600,-0.00370868,-0.00239970,0.00596365,0.00047708,-0.0000
 1889,0.00013055,0.00236052,0.00634097,0.02121379,0.00045690,0.00053694
 ,-0.00034010,0.00111528,-0.05791288,-0.05486825,0.00079579,-0.00126456
 ,-0.00075153,-0.00035121,0.00060506,-0.00011137,0.00005817,0.00082844,
 -0.00084245,0.00000871,-0.00006055,0.00004897,-0.00006747,0.00024588,-
 0.00022460,-0.00006225,-0.00075218,0.00014993,0.00024039,-0.00150778,-
 0.00049274,-0.00030762,-0.00429284,-0.02838126,-0.00079719,0.05971662,
 0.00345239,0.00216591,-0.00263129,-0.00026512,-0.00002448,-0.00026965,
 -0.00225122,-0.00640054,-0.01369082,-0.00031229,-0.00080434,0.00008272
 ,0.01074358,-0.05277724,-0.30610822,-0.00116842,0.00139542,0.00056969,
 0.00022998,-0.00018063,0.00019989,0.00047862,0.00012580,0.00055834,0.0
 0013268,0.00004011,-0.00000839,0.00009911,0.00010596,0.00036250,-0.000
 10374,0.00054583,0.00051179,0.00107712,-0.00189534,-0.00971397,-0.0000
 0524,-0.00043257,-0.00250144,-0.01235449,0.05825623,0.33248519,-0.0213
 3970,0.00876821,-0.00172103,0.00293820,0.00096429,-0.00250459,0.000519
 65,-0.00114480,-0.00408452,0.00040552,0.00005302,0.00060514,-0.0000681
 9,0.00025069,0.00040774,-0.29864876,-0.02305216,-0.10221245,-0.0050885
 4,0.00090280,-0.00041491,0.00031655,0.00042298,0.00127368,0.00017890,-
 0.00024114,-0.00007742,-0.00001305,-0.00006022,-0.00004115,-0.00005105
 ,0.00016014,0.00008280,0.00015088,0.00002047,-0.00009637,-0.00020278,-
 0.00018749,0.00005129,-0.00003574,-0.00015575,0.00014020,0.32090076,0.
 03172972,-0.00379152,0.00507843,-0.00054913,-0.00024333,-0.00762028,0.
 00133472,0.00148842,0.00477393,-0.00000455,-0.00014428,-0.00018938,-0.
 00028250,-0.00008954,-0.00063377,-0.02273734,-0.05127337,-0.02174813,-
 0.02231161,0.00367713,-0.00363654,-0.00108796,0.00014679,-0.00046062,-
 0.00016260,0.00004610,-0.00003329,0.00002271,-0.00004504,0.00003771,-0
 .00004078,-0.00008954,-0.00007620,-0.00003979,-0.00014651,0.00006562,-
 0.00006544,-0.00011949,-0.00000429,0.00009876,0.00009764,-0.00014591,0
 .01393481,0.05271812,0.00731951,-0.00056555,0.00272771,-0.00074367,-0.
 00706648,0.00608934,0.00246389,0.00047856,0.00318925,0.00006941,-0.000
 16656,0.00000501,-0.00022738,0.00005006,-0.00026746,-0.09970175,-0.021
 43521,-0.07399004,-0.01710452,0.00379792,-0.00325692,-0.00083620,0.000
 09468,0.00026352,-0.00010792,-0.00003018,-0.00011708,0.00000794,0.0000
 4969,-0.00001182,-0.00005102,-0.00000112,-0.00002577,-0.00014151,0.000
 03340,0.00001154,0.00007265,0.00020387,-0.00002868,-0.00001762,0.00005
 227,-0.00000572,0.10724352,0.02265541,0.06851028,0.00039283,-0.0006515
 9,-0.00445576,-0.02537616,0.02548470,0.00705166,0.00046446,-0.00070995
 ,0.00034146,-0.00002846,-0.00004808,-0.00035348,-0.00011534,-0.0000597
 5,-0.00001431,0.01024931,-0.00743664,-0.00152575,-0.15125666,0.1295918
 7,0.04550409,-0.00002916,-0.00000416,-0.00003155,0.00001733,0.00000589
 ,0.00000548,-0.00000605,0.00000258,0.00000496,0.00005908,-0.00010245,-
 0.00000402,0.00006157,-0.00000480,-0.00001700,-0.00001959,0.00004772,0
 .00002072,0.00003924,0.00001389,-0.00000198,-0.00017564,-0.00027774,0.
 00107487,0.17020873,-0.00160703,0.00312778,-0.00721992,-0.00122277,0.0
 0606101,0.00252614,0.00062242,-0.00144944,0.00061813,0.00000460,-0.000
 04107,-0.00056833,-0.00003089,-0.00013269,0.00002648,0.01595803,-0.010
 54239,-0.00227485,0.13335837,-0.22395036,-0.07535100,-0.00007836,-0.00
 003155,-0.00007530,0.00000817,0.00002035,0.00001289,-0.00001808,-0.000
 00156,0.00000982,0.00008125,-0.00015724,0.00000846,-0.00000247,0.00003
 210,0.00001501,0.00000592,0.00005792,0.00001138,0.00000962,0.00000821,
 -0.00001502,-0.00112136,-0.00116082,0.00147577,-0.14434269,0.22609334,
 -0.00156301,-0.00793875,0.00462531,-0.01058443,0.01148585,0.00504570,-
 0.00119848,0.00036220,0.00156044,-0.00002207,-0.00003281,-0.00012572,0
 .00005276,0.00022794,-0.00006810,0.01237120,-0.00788457,0.00023767,0.0
 4845310,-0.07894171,-0.07025794,0.00004090,-0.00005448,-0.00022513,-0.
 00002772,0.00002655,0.00002542,0.00000013,0.00007553,0.00000444,0.0000
 4305,0.00000350,-0.00006524,-0.00001916,0.00000220,-0.00000354,0.00006
 949,-0.00005685,-0.00004624,0.00003430,0.00000485,-0.00002796,0.000636
 74,0.00199306,-0.00294722,-0.04497995,0.08169040,0.06157634,0.00072217
 ,0.00075837,0.00286973,-0.14378058,0.16252014,0.04918571,0.00137928,-0
 .00053653,-0.00250771,0.00017174,-0.00008090,0.00032326,0.00040599,0.0
 0003175,0.00030980,-0.00087727,0.00111667,0.00025896,-0.03535283,0.039
 64489,0.01105524,-0.00007777,0.00008349,0.00064950,-0.00011435,0.00006
 818,-0.00004997,-0.00002017,-0.00006864,-0.00004915,-0.00012926,0.0001
 1939,0.00003969,-0.00027115,0.00006090,0.00010260,0.00000619,0.0000655
 5,-0.00018982,-0.00024191,-0.00007658,0.00010883,0.00021298,0.00043873
 ,0.00067980,-0.00448551,-0.00162474,-0.00330684,0.18245243,0.00147818,
 -0.00256975,0.00200664,0.20323376,-0.35090377,-0.12767532,0.00152512,0
 .00006780,-0.00188390,-0.00025081,-0.00003351,0.00014099,-0.00005585,0
 .00014665,0.00008638,-0.00822289,0.00250833,-0.00149606,0.00538507,0.0
 0227632,0.00163341,0.00015487,0.00008962,0.00074150,0.00019704,-0.0000
 8213,-0.00013280,-0.00000453,-0.00008037,-0.00001676,0.00005045,0.0000
 5313,0.00009818,-0.00004250,0.00018809,-0.00000426,0.00015713,-0.00014
 440,0.00023327,-0.00006105,-0.00017040,0.00004081,0.00048548,-0.001070
 75,0.00037348,-0.00150880,0.00206643,-0.00096291,-0.20252067,0.3476587
 1,0.00332767,0.00044509,-0.00075073,0.07086183,-0.14037576,-0.06698727
 ,0.00019311,-0.00081395,-0.00136416,0.00001911,0.00000484,-0.00000728,
 -0.00071759,0.00001029,0.00004858,-0.00598664,0.00115268,-0.00009374,-
 0.00737051,0.01347747,0.00684471,0.00023230,0.00016955,0.00032149,0.00
 004705,-0.00011782,0.00002330,0.00006383,0.00008548,0.00000685,-0.0000
 1259,0.00003041,0.00002672,0.00066214,-0.00026153,-0.00033886,-0.00020
 611,0.00012959,-0.00018777,0.00027412,0.00019208,0.00018734,0.00071134
 ,-0.00005573,-0.00014595,-0.00261944,-0.00089005,0.00069176,-0.0594796
 2,0.12681737,0.06172502\\-0.00000005,0.00000043,0.00000040,0.00000037,
 0.00000144,-0.00000106,-0.00000003,-0.00000021,0.00000042,-0.00000052,
 -0.00000034,0.00000131,0.00000018,-0.00000124,-0.00000017,0.00000018,0
 .00000098,-0.00000059,0.00000036,0.00000118,-0.00000122,-0.00000025,-0
 .00000038,0.00000051,-0.00000046,-0.00000052,0.00000131,-0.00000069,-0
 .00000015,0.00000182,-0.00000056,-0.00000127,0.00000146,0.00000012,-0.
 00000101,-0.00000025,0.00000032,-0.00000075,-0.00000090,0.00000011,-0.
 00000172,-0.00000013,0.00000013,0.00000095,-0.00000051,0.00000053,0.00
 000173,-0.00000166,0.00000026,0.00000088,-0.00000074\\\@


 IMAGINATION WILL OFTEN CARRY US TO WORLDS THAT NEVER WERE.
 BUT WITHOUT IT, WE GO NOWHERE. -- CARL SAGAN (COSMOS)
 Job cpu time:       0 days  3 hours 40 minutes 57.7 seconds.
 Elapsed time:       0 days  1 hours 50 minutes 32.5 seconds.
 File lengths (MBytes):  RWF=   1392 Int=      0 D2E=      0 Chk=     32 Scr=     32
 Normal termination of Gaussian 16 at Thu Sep 26 19:31:45 2019.
