 Entering Gaussian System, Link 0=g16
 Input=med/species/CC(C)OC=CO/conformers/CC(C)OC=CO_139.com
 Output=med/species/CC(C)OC=CO/conformers/CC(C)OC=CO_139.log
 Initial command:
 /shared/centos7/gaussian/g16/l1.exe "/scratch/harms.n/gauss_scrdir/Gau-44592.inp" -scrdir="/scratch/harms.n/gauss_scrdir/"
 Entering Link 1 = /shared/centos7/gaussian/g16/l1.exe PID=     44593.
  
 Copyright (c) 1988,1990,1992,1993,1995,1998,2003,2009,2016,
            Gaussian, Inc.  All Rights Reserved.
  
 This is part of the Gaussian(R) 16 program.  It is based on
 the Gaussian(R) 09 system (copyright 2009, Gaussian, Inc.),
 the Gaussian(R) 03 system (copyright 2003, Gaussian, Inc.),
 the Gaussian(R) 98 system (copyright 1998, Gaussian, Inc.),
 the Gaussian(R) 94 system (copyright 1995, Gaussian, Inc.),
 the Gaussian 92(TM) system (copyright 1992, Gaussian, Inc.),
 the Gaussian 90(TM) system (copyright 1990, Gaussian, Inc.),
 the Gaussian 88(TM) system (copyright 1988, Gaussian, Inc.),
 the Gaussian 86(TM) system (copyright 1986, Carnegie Mellon
 University), and the Gaussian 82(TM) system (copyright 1983,
 Carnegie Mellon University). Gaussian is a federally registered
 trademark of Gaussian, Inc.
  
 This software contains proprietary and confidential information,
 including trade secrets, belonging to Gaussian, Inc.
  
 This software is provided under written license and may be
 used, copied, transmitted, or stored only in accord with that
 written license.
  
 The following legend is applicable only to US Government
 contracts under FAR:
  
                    RESTRICTED RIGHTS LEGEND
  
 Use, reproduction and disclosure by the US Government is
 subject to restrictions as set forth in subparagraphs (a)
 and (c) of the Commercial Computer Software - Restricted
 Rights clause in FAR 52.227-19.
  
 Gaussian, Inc.
 340 Quinnipiac St., Bldg. 40, Wallingford CT 06492
  
  
 ---------------------------------------------------------------
 Warning -- This program may not be used in any manner that
 competes with the business of Gaussian, Inc. or will provide
 assistance to any competitor of Gaussian, Inc.  The licensee
 of this program is prohibited from giving any competitor of
 Gaussian, Inc. access to this program.  By using this program,
 the user acknowledges that Gaussian, Inc. is engaged in the
 business of creating and licensing software in the field of
 computational chemistry and represents and warrants to the
 licensee that it is not a competitor of Gaussian, Inc. and that
 it will not use this program in any manner prohibited above.
 ---------------------------------------------------------------
  

 Cite this work as:
 Gaussian 16, Revision A.03,
 M. J. Frisch, G. W. Trucks, H. B. Schlegel, G. E. Scuseria, 
 M. A. Robb, J. R. Cheeseman, G. Scalmani, V. Barone, 
 G. A. Petersson, H. Nakatsuji, X. Li, M. Caricato, A. V. Marenich, 
 J. Bloino, B. G. Janesko, R. Gomperts, B. Mennucci, H. P. Hratchian, 
 J. V. Ortiz, A. F. Izmaylov, J. L. Sonnenberg, D. Williams-Young, 
 F. Ding, F. Lipparini, F. Egidi, J. Goings, B. Peng, A. Petrone, 
 T. Henderson, D. Ranasinghe, V. G. Zakrzewski, J. Gao, N. Rega, 
 G. Zheng, W. Liang, M. Hada, M. Ehara, K. Toyota, R. Fukuda, 
 J. Hasegawa, M. Ishida, T. Nakajima, Y. Honda, O. Kitao, H. Nakai, 
 T. Vreven, K. Throssell, J. A. Montgomery, Jr., J. E. Peralta, 
 F. Ogliaro, M. J. Bearpark, J. J. Heyd, E. N. Brothers, K. N. Kudin, 
 V. N. Staroverov, T. A. Keith, R. Kobayashi, J. Normand, 
 K. Raghavachari, A. P. Rendell, J. C. Burant, S. S. Iyengar, 
 J. Tomasi, M. Cossi, J. M. Millam, M. Klene, C. Adamo, R. Cammi, 
 J. W. Ochterski, R. L. Martin, K. Morokuma, O. Farkas, 
 J. B. Foresman, and D. J. Fox, Gaussian, Inc., Wallingford CT, 2016.
 
 ******************************************
 Gaussian 16:  EM64L-G16RevA.03 25-Dec-2016
                29-Sep-2019 
 ******************************************
 %nprocshared=20
 Will use up to   20 processors via shared memory.
 %mem=5GB
 ----------------------------------------------------------------------
 #p m062x/cc-pVTZ opt=(calcfc,maxcycles=900,Tight) freq IOP(7/33=1,2/16
 =3) scf=(maxcycle=900)
 ----------------------------------------------------------------------
 1/6=900,7=10,10=4,18=20,19=15,26=3,38=1/1,3;
 2/9=110,12=2,16=3,17=6,18=5,40=1/2;
 3/5=16,6=1,11=2,25=1,30=1,71=2,74=-55,140=1/1,2,3;
 4//1;
 5/5=2,7=900,38=5/2;
 8/6=4,10=90,11=11/1;
 11/6=1,8=1,9=11,15=111,16=1/1,2,10;
 10/6=1,13=1/2;
 6/7=2,8=2,9=2,10=2,28=1/1;
 7/10=1,18=20,25=1,33=1/1,2,3,16;
 1/6=900,7=10,10=4,18=20,19=15,26=3/3(2);
 2/9=110,16=3/2;
 99//99;
 2/9=110,16=3/2;
 3/5=16,6=1,11=2,25=1,30=1,71=1,74=-55/1,2,3;
 4/5=5,16=3,69=1/1;
 5/5=2,7=900,38=5/2;
 7/33=1/1,2,3,16;
 1/6=900,7=10,18=20,19=15,26=3/3(-5);
 2/9=110,16=3/2;
 6/7=2,8=2,9=2,10=2,19=2,28=1/1;
 99/9=1/99;
 Leave Link    1 at Sun Sep 29 06:33:05 2019, MaxMem=   671088640 cpu:               5.0 elap:               2.5
 (Enter /shared/centos7/gaussian/g16/l101.exe)
 ------------------------------
 Gaussian input prepared by ASE
 ------------------------------
 Symbolic Z-matrix:
 Charge =  0 Multiplicity = 1
 O                     3.34854  -2.82011   0.09505 
 O                     1.06654  -1.69519  -1.14765 
 C                     3.77037  -3.75214   1.06832 
 C                     3.29304  -5.14088   0.64338 
 C                     3.37771  -3.43645   2.47411 
 C                     2.7213   -1.68553   0.55679 
 C                     1.6824   -1.16075  -0.02574 
 H                     4.89521  -3.761     1.03673 
 H                     2.53107  -5.05369  -0.15912 
 H                     4.12527  -5.76357   0.2677 
 H                     2.82052  -5.68657   1.50453 
 H                     2.41886  -3.95942   2.76357 
 H                     3.23312  -2.34565   2.62013 
 H                     4.16686  -3.78902   3.19694 
 H                     3.17378  -1.18362   1.4269 
 H                     1.24321  -0.24028   0.32961 
 H                     0.1916   -1.2193   -1.24659 
 
 ITRead=  0  0  0  0  0  0  0  0  0  0  0  0  0  0  0  0  0
 MicOpt= -1 -1 -1 -1 -1 -1 -1 -1 -1 -1 -1 -1 -1 -1 -1 -1 -1
 NAtoms=     17 NQM=       17 NQMF=       0 NMMI=      0 NMMIF=      0
                NMic=       0 NMicF=      0.
                    Isotopes and Nuclear Properties:
 (Nuclear quadrupole moments (NQMom) in fm**2, nuclear magnetic moments (NMagM)
  in nuclear magnetons)

  Atom         1           2           3           4           5           6           7           8           9          10
 IAtWgt=          16          16          12          12          12          12          12           1           1           1
 AtmWgt=  15.9949146  15.9949146  12.0000000  12.0000000  12.0000000  12.0000000  12.0000000   1.0078250   1.0078250   1.0078250
 NucSpn=           0           0           0           0           0           0           0           1           1           1
 AtZEff=  -0.0000000  -0.0000000  -0.0000000  -0.0000000  -0.0000000  -0.0000000  -0.0000000  -0.0000000  -0.0000000  -0.0000000
 NQMom=    0.0000000   0.0000000   0.0000000   0.0000000   0.0000000   0.0000000   0.0000000   0.0000000   0.0000000   0.0000000
 NMagM=    0.0000000   0.0000000   0.0000000   0.0000000   0.0000000   0.0000000   0.0000000   2.7928460   2.7928460   2.7928460
 AtZNuc=   8.0000000   8.0000000   6.0000000   6.0000000   6.0000000   6.0000000   6.0000000   1.0000000   1.0000000   1.0000000

  Atom        11          12          13          14          15          16          17
 IAtWgt=           1           1           1           1           1           1           1
 AtmWgt=   1.0078250   1.0078250   1.0078250   1.0078250   1.0078250   1.0078250   1.0078250
 NucSpn=           1           1           1           1           1           1           1
 AtZEff=  -0.0000000  -0.0000000  -0.0000000  -0.0000000  -0.0000000  -0.0000000  -0.0000000
 NQMom=    0.0000000   0.0000000   0.0000000   0.0000000   0.0000000   0.0000000   0.0000000
 NMagM=    2.7928460   2.7928460   2.7928460   2.7928460   2.7928460   2.7928460   2.7928460
 AtZNuc=   1.0000000   1.0000000   1.0000000   1.0000000   1.0000000   1.0000000   1.0000000
 Leave Link  101 at Sun Sep 29 06:33:06 2019, MaxMem=   671088640 cpu:               2.0 elap:               1.0
 (Enter /shared/centos7/gaussian/g16/l103.exe)

 GradGradGradGradGradGradGradGradGradGradGradGradGradGradGradGradGradGrad
 Berny optimization.
 Initialization pass.
                           ----------------------------
                           !    Initial Parameters    !
                           ! (Angstroms and Degrees)  !
 --------------------------                            --------------------------
 ! Name  Definition              Value          Derivative Info.                !
 --------------------------------------------------------------------------------
 ! R1    R(1,3)                  1.412          calculate D2E/DX2 analytically  !
 ! R2    R(1,6)                  1.3762         calculate D2E/DX2 analytically  !
 ! R3    R(2,7)                  1.3869         calculate D2E/DX2 analytically  !
 ! R4    R(2,17)                 1.0009         calculate D2E/DX2 analytically  !
 ! R5    R(3,4)                  1.5287         calculate D2E/DX2 analytically  !
 ! R6    R(3,5)                  1.4933         calculate D2E/DX2 analytically  !
 ! R7    R(3,8)                  1.1253         calculate D2E/DX2 analytically  !
 ! R8    R(4,9)                  1.1101         calculate D2E/DX2 analytically  !
 ! R9    R(4,10)                 1.1052         calculate D2E/DX2 analytically  !
 ! R10   R(4,11)                 1.1237         calculate D2E/DX2 analytically  !
 ! R11   R(5,12)                 1.1299         calculate D2E/DX2 analytically  !
 ! R12   R(5,13)                 1.11           calculate D2E/DX2 analytically  !
 ! R13   R(5,14)                 1.1267         calculate D2E/DX2 analytically  !
 ! R14   R(6,7)                  1.3016         calculate D2E/DX2 analytically  !
 ! R15   R(6,15)                 1.1017         calculate D2E/DX2 analytically  !
 ! R16   R(7,16)                 1.08           calculate D2E/DX2 analytically  !
 ! A1    A(3,1,6)              116.6842         calculate D2E/DX2 analytically  !
 ! A2    A(7,2,17)             106.5536         calculate D2E/DX2 analytically  !
 ! A3    A(1,3,4)              108.3455         calculate D2E/DX2 analytically  !
 ! A4    A(1,3,5)              115.5161         calculate D2E/DX2 analytically  !
 ! A5    A(1,3,8)              106.5267         calculate D2E/DX2 analytically  !
 ! A6    A(4,3,5)              111.815          calculate D2E/DX2 analytically  !
 ! A7    A(4,3,8)              107.2862         calculate D2E/DX2 analytically  !
 ! A8    A(5,3,8)              106.9127         calculate D2E/DX2 analytically  !
 ! A9    A(3,4,9)              110.1165         calculate D2E/DX2 analytically  !
 ! A10   A(3,4,10)             111.789          calculate D2E/DX2 analytically  !
 ! A11   A(3,4,11)             111.0657         calculate D2E/DX2 analytically  !
 ! A12   A(9,4,10)             108.3846         calculate D2E/DX2 analytically  !
 ! A13   A(9,4,11)             107.6701         calculate D2E/DX2 analytically  !
 ! A14   A(10,4,11)            107.6707         calculate D2E/DX2 analytically  !
 ! A15   A(3,5,12)             111.4971         calculate D2E/DX2 analytically  !
 ! A16   A(3,5,13)             111.4593         calculate D2E/DX2 analytically  !
 ! A17   A(3,5,14)             110.7081         calculate D2E/DX2 analytically  !
 ! A18   A(12,5,13)            108.095          calculate D2E/DX2 analytically  !
 ! A19   A(12,5,14)            106.5688         calculate D2E/DX2 analytically  !
 ! A20   A(13,5,14)            108.3213         calculate D2E/DX2 analytically  !
 ! A21   A(1,6,7)              123.0959         calculate D2E/DX2 analytically  !
 ! A22   A(1,6,15)             116.9614         calculate D2E/DX2 analytically  !
 ! A23   A(7,6,15)             119.8431         calculate D2E/DX2 analytically  !
 ! A24   A(2,7,6)              124.1327         calculate D2E/DX2 analytically  !
 ! A25   A(2,7,16)             114.4559         calculate D2E/DX2 analytically  !
 ! A26   A(6,7,16)             121.397          calculate D2E/DX2 analytically  !
 ! D1    D(6,1,3,4)            131.1933         calculate D2E/DX2 analytically  !
 ! D2    D(6,1,3,5)              4.8869         calculate D2E/DX2 analytically  !
 ! D3    D(6,1,3,8)           -113.6599         calculate D2E/DX2 analytically  !
 ! D4    D(3,1,6,7)           -139.3431         calculate D2E/DX2 analytically  !
 ! D5    D(3,1,6,15)            44.2998         calculate D2E/DX2 analytically  !
 ! D6    D(17,2,7,6)           167.2387         calculate D2E/DX2 analytically  !
 ! D7    D(17,2,7,16)          -14.134          calculate D2E/DX2 analytically  !
 ! D8    D(1,3,4,9)            -14.3526         calculate D2E/DX2 analytically  !
 ! D9    D(1,3,4,10)           106.1877         calculate D2E/DX2 analytically  !
 ! D10   D(1,3,4,11)          -133.5282         calculate D2E/DX2 analytically  !
 ! D11   D(5,3,4,9)            114.0782         calculate D2E/DX2 analytically  !
 ! D12   D(5,3,4,10)          -125.3815         calculate D2E/DX2 analytically  !
 ! D13   D(5,3,4,11)            -5.0974         calculate D2E/DX2 analytically  !
 ! D14   D(8,3,4,9)           -129.002          calculate D2E/DX2 analytically  !
 ! D15   D(8,3,4,10)            -8.4616         calculate D2E/DX2 analytically  !
 ! D16   D(8,3,4,11)           111.8224         calculate D2E/DX2 analytically  !
 ! D17   D(1,3,5,12)            94.8312         calculate D2E/DX2 analytically  !
 ! D18   D(1,3,5,13)           -26.0659         calculate D2E/DX2 analytically  !
 ! D19   D(1,3,5,14)          -146.709          calculate D2E/DX2 analytically  !
 ! D20   D(4,3,5,12)           -29.691          calculate D2E/DX2 analytically  !
 ! D21   D(4,3,5,13)          -150.5881         calculate D2E/DX2 analytically  !
 ! D22   D(4,3,5,14)            88.7689         calculate D2E/DX2 analytically  !
 ! D23   D(8,3,5,12)          -146.8361         calculate D2E/DX2 analytically  !
 ! D24   D(8,3,5,13)            92.2668         calculate D2E/DX2 analytically  !
 ! D25   D(8,3,5,14)           -28.3762         calculate D2E/DX2 analytically  !
 ! D26   D(1,6,7,2)              1.8219         calculate D2E/DX2 analytically  !
 ! D27   D(1,6,7,16)          -176.7142         calculate D2E/DX2 analytically  !
 ! D28   D(15,6,7,2)           178.0785         calculate D2E/DX2 analytically  !
 ! D29   D(15,6,7,16)           -0.4577         calculate D2E/DX2 analytically  !
 --------------------------------------------------------------------------------
 Trust Radius=3.00D-01 FncErr=1.00D-07 GrdErr=1.00D-06 EigMax=2.50D+02 EigMin=1.00D-04
 Number of steps in this run=    102 maximum allowed number of steps=    102.
 GradGradGradGradGradGradGradGradGradGradGradGradGradGradGradGradGradGrad

 Leave Link  103 at Sun Sep 29 06:33:07 2019, MaxMem=   671088640 cpu:               1.4 elap:               0.7
 (Enter /shared/centos7/gaussian/g16/l202.exe)
                          Input orientation:                          
 ---------------------------------------------------------------------
 Center     Atomic      Atomic             Coordinates (Angstroms)
 Number     Number       Type             X           Y           Z
 ---------------------------------------------------------------------
      1          8           0        3.348538   -2.820105    0.095051
      2          8           0        1.066539   -1.695185   -1.147651
      3          6           0        3.770367   -3.752138    1.068321
      4          6           0        3.293040   -5.140878    0.643384
      5          6           0        3.377713   -3.436447    2.474106
      6          6           0        2.721303   -1.685526    0.556788
      7          6           0        1.682398   -1.160750   -0.025740
      8          1           0        4.895209   -3.761003    1.036733
      9          1           0        2.531073   -5.053688   -0.159122
     10          1           0        4.125271   -5.763567    0.267702
     11          1           0        2.820517   -5.686569    1.504531
     12          1           0        2.418862   -3.959418    2.763575
     13          1           0        3.233118   -2.345648    2.620134
     14          1           0        4.166863   -3.789024    3.196943
     15          1           0        3.173777   -1.183624    1.426901
     16          1           0        1.243206   -0.240282    0.329609
     17          1           0        0.191596   -1.219298   -1.246586
 ---------------------------------------------------------------------
                    Distance matrix (angstroms):
                    1          2          3          4          5
     1  O    0.000000
     2  O    2.831479   0.000000
     3  C    1.412047   4.056139   0.000000
     4  C    2.385317   4.476372   1.528729   0.000000
     5  C    2.457769   4.635800   1.493342   2.502758   0.000000
     6  C    1.376189   2.375594   2.373412   3.503404   2.678191
     7  C    2.354586   1.386935   3.503123   4.345494   3.781814
     8  H    2.040648   4.868044   1.125320   2.150749   2.115224
     9  H    2.392017   3.794943   2.176350   1.110050   3.204085
    10  H    3.049112   5.283066   2.193808   1.105209   3.292802
    11  H    3.237600   5.103102   2.198754   1.123668   2.512686
    12  H    3.046859   4.717331   2.177939   2.579776   1.129905
    13  H    2.571862   4.394698   2.162169   3.424097   1.109989
    14  H    3.351148   5.733382   2.165549   3.018565   1.126748
    15  H    2.117177   3.366076   2.661158   4.035837   2.492677
    16  H    3.338102   2.080926   4.389233   5.321289   4.401188
    17  H    3.785348   1.000891   4.957991   5.345066   5.376862
                    6          7          8          9         10
     6  C    0.000000
     7  C    1.301558   0.000000
     8  H    3.043653   4.267590   0.000000
     9  H    3.448656   3.986604   2.947922   0.000000
    10  H    4.322628   5.219163   2.279139   1.796544   0.000000
    11  H    4.112956   4.911220   2.868969   1.803346   1.799460
    12  H    3.183074   4.019353   3.025499   3.122848   3.520818
    13  H    2.226008   3.287760   2.696838   3.943427   4.244059
    14  H    3.672161   4.844180   2.279864   3.941872   3.532846
    15  H    1.101697   2.082043   3.123851   4.231541   4.819228
    16  H    2.079690   1.080011   5.121780   5.006629   6.230313
    17  H    3.141487   1.927792   5.813586   4.621502   6.198165
                   11         12         13         14         15
    11  H    0.000000
    12  H    2.174757   0.000000
    13  H    3.546345   1.813240   0.000000
    14  H    2.877078   1.808963   1.813263   0.000000
    15  H    4.517448   3.172006   1.666621   3.302632   0.000000
    16  H    5.790543   4.597644   3.693077   5.418759   2.412685
    17  H    5.868252   5.343254   5.046884   6.492395   4.005273
                   16         17
    16  H    0.000000
    17  H    2.132779   0.000000
 Stoichiometry    C5H10O2
 Framework group  C1[X(C5H10O2)]
 Deg. of freedom    45
 Full point group                 C1      NOp   1
 Largest Abelian subgroup         C1      NOp   1
 Largest concise Abelian subgroup C1      NOp   1
                         Standard orientation:                         
 ---------------------------------------------------------------------
 Center     Atomic      Atomic             Coordinates (Angstroms)
 Number     Number       Type             X           Y           Z
 ---------------------------------------------------------------------
      1          8           0       -0.062446    0.209359   -0.741762
      2          8           0        2.513220    0.832766    0.255525
      3          6           0       -1.408861    0.007202   -0.367362
      4          6           0       -1.938216    1.304460    0.244126
      5          6           0       -1.660470   -1.167533    0.519633
      6          6           0        0.841375   -0.746917   -0.338599
      7          6           0        2.031000   -0.458770    0.103912
      8          1           0       -1.982217   -0.172289   -1.318883
      9          1           0       -1.095105    1.986058    0.482452
     10          1           0       -2.627919    1.829619   -0.441442
     11          1           0       -2.494535    1.103108    1.199425
     12          1           0       -1.673258   -0.868486    1.609171
     13          1           0       -0.885189   -1.950599    0.386134
     14          1           0       -2.666776   -1.624331    0.299985
     15          1           0        0.542182   -1.800124   -0.460974
     16          1           0        2.737471   -1.233203    0.363866
     17          1           0        3.350189    0.762593    0.799897
 ---------------------------------------------------------------------
 Rotational constants (GHZ):           4.8940445           1.5161121           1.3026455
 Leave Link  202 at Sun Sep 29 06:33:09 2019, MaxMem=   671088640 cpu:               3.4 elap:               1.7
 (Enter /shared/centos7/gaussian/g16/l301.exe)
 Standard basis: CC-pVTZ (5D, 7F)
 Ernie: Thresh=  0.10000D-02 Tol=  0.10000D-05 Strict=F.
 Ernie:  21 primitive shells out of 262 were deleted.
 There are   395 symmetry adapted cartesian basis functions of A   symmetry.
 There are   350 symmetry adapted basis functions of A   symmetry.
   350 basis functions,   534 primitive gaussians,   395 cartesian basis functions
    28 alpha electrons       28 beta electrons
       nuclear repulsion energy       314.6694104642 Hartrees.
 IExCor= 4336 DFT=T Ex+Corr=M062X ExCW=0 ScaHFX=  0.540000
 ScaDFX=  1.000000  1.000000  1.000000  1.000000 ScalE2=  1.000000  1.000000
 IRadAn=      5 IRanWt=     -1 IRanGd=            0 ICorTp=0 IEmpDi=  4
 NAtoms=   17 NActive=   17 NUniq=   17 SFac= 1.00D+00 NAtFMM=   60 NAOKFM=F Big=F
 Integral buffers will be    131072 words long.
 Raffenetti 2 integral format.
 Two-electron integral symmetry is turned on.
 Leave Link  301 at Sun Sep 29 06:33:10 2019, MaxMem=   671088640 cpu:               1.5 elap:               0.7
 (Enter /shared/centos7/gaussian/g16/l302.exe)
 NPDir=0 NMtPBC=     1 NCelOv=     1 NCel=       1 NClECP=     1 NCelD=      1
         NCelK=      1 NCelE2=     1 NClLst=     1 CellRange=     0.0.
 One-electron integrals computed using PRISM.
 One-electron integral symmetry used in STVInt
 NBasis=   350 RedAO= T EigKep=  2.63D-04  NBF=   350
 NBsUse=   350 1.00D-06 EigRej= -1.00D+00 NBFU=   350
 Precomputing XC quadrature grid using
 IXCGrd= 4 IRadAn=           5 IRanWt=          -1 IRanGd=           0 AccXCQ= 0.00D+00.
 Generated NRdTot=       0 NPtTot=           0 NUsed=           0 NTot=          32
 NSgBfM=   395   395   395   395   395 MxSgAt=    17 MxSgA2=    17.
 Leave Link  302 at Sun Sep 29 06:34:11 2019, MaxMem=   671088640 cpu:             122.5 elap:              61.3
 (Enter /shared/centos7/gaussian/g16/l303.exe)
 DipDrv:  MaxL=1.
 Leave Link  303 at Sun Sep 29 06:34:16 2019, MaxMem=   671088640 cpu:               9.9 elap:               5.0
 (Enter /shared/centos7/gaussian/g16/l401.exe)
 ExpMin= 1.03D-01 ExpMax= 1.53D+04 ExpMxC= 5.22D+02 IAcc=3 IRadAn=         5 AccDes= 0.00D+00
 Harris functional with IExCor= 1009 and IRadAn=       5 diagonalized for initial guess.
 HarFok:  IExCor= 1009 AccDes= 0.00D+00 IRadAn=         5 IDoV= 1 UseB2=F ITyADJ=14
 ICtDFT=  3500011 ScaDFX=  1.000000  1.000000  1.000000  1.000000
 FoFCou: FMM=F IPFlag=           0 FMFlag=      100000 FMFlg1=           0
         NFxFlg=           0 DoJE=T BraDBF=F KetDBF=T FulRan=T
         wScrn=  0.000000 ICntrl=       500 IOpCl=  0 I1Cent=   200000004 NGrid=           0
         NMat0=    1 NMatS0=      1 NMatT0=    0 NMatD0=    1 NMtDS0=    0 NMtDT0=    0
 Petite list used in FoFCou.
 Harris En= -346.799432165379    
 JPrj=0 DoOrth=F DoCkMO=F.
 Leave Link  401 at Sun Sep 29 06:34:44 2019, MaxMem=   671088640 cpu:              56.4 elap:              28.2
 (Enter /shared/centos7/gaussian/g16/l502.exe)
 Integral symmetry usage will be decided dynamically.
 Closed shell SCF:
 Using DIIS extrapolation, IDIIS=  1040.
 NGot=   671088640 LenX=   670765141 LenY=   670608675
 Requested convergence on RMS density matrix=1.00D-08 within 900 cycles.
 Requested convergence on MAX density matrix=1.00D-06.
 Requested convergence on             energy=1.00D-06.
 No special actions if energy rises.
 Fock matrices will be formed incrementally for  20 cycles.
 Integral accuracy reduced to 1.0D-05 until final iterations.

 Cycle   1  Pass 0  IDiag  1:
 FoFJK:  IHMeth= 1 ICntrl=       0 DoSepK=F KAlg= 0 I1Cent=           0 FoldK=F
 IRaf= 940000000 NMat=       1 IRICut=       1 DoRegI=T DoRafI=F ISym2E= 0 IDoP0=0 IntGTp=1.
 FoFCou: FMM=F IPFlag=           0 FMFlag=      100000 FMFlg1=           0
         NFxFlg=           0 DoJE=F BraDBF=F KetDBF=F FulRan=T
         wScrn=  0.000000 ICntrl=         0 IOpCl=  0 I1Cent=           0 NGrid=           0
         NMat0=    1 NMatS0=      1 NMatT0=    0 NMatD0=    1 NMtDS0=    0 NMtDT0=    0
 Symmetry not used in FoFCou.
 E= -346.677645701956    
 DIIS: error= 1.85D-02 at cycle   1 NSaved=   1.
 NSaved= 1 IEnMin= 1 EnMin= -346.677645701956     IErMin= 1 ErrMin= 1.85D-02
 ErrMax= 1.85D-02  0.00D+00 EMaxC= 1.00D-01 BMatC= 2.90D-01 BMatP= 2.90D-01
 IDIUse=3 WtCom= 8.15D-01 WtEn= 1.85D-01
 Coeff-Com:  0.100D+01
 Coeff-En:   0.100D+01
 Coeff:      0.100D+01
 Gap=     0.352 Goal=   None    Shift=    0.000
 GapD=    0.352 DampG=1.000 DampE=0.500 DampFc=0.5000 IDamp=-1.
 Damping current iteration by 5.00D-01
 RMSDP=2.44D-03 MaxDP=1.74D-01              OVMax= 1.44D-01

 Cycle   2  Pass 0  IDiag  1:
 RMSU=  1.22D-03    CP:  1.00D+00
 E= -346.797510811057     Delta-E=       -0.119865109101 Rises=F Damp=T
 DIIS: error= 5.12D-03 at cycle   2 NSaved=   2.
 NSaved= 2 IEnMin= 2 EnMin= -346.797510811057     IErMin= 2 ErrMin= 5.12D-03
 ErrMax= 5.12D-03  0.00D+00 EMaxC= 1.00D-01 BMatC= 2.13D-02 BMatP= 2.90D-01
 IDIUse=3 WtCom= 9.49D-01 WtEn= 5.12D-02
 Coeff-Com: -0.117D+00 0.112D+01
 Coeff-En:   0.000D+00 0.100D+01
 Coeff:     -0.111D+00 0.111D+01
 Gap=     0.324 Goal=   None    Shift=    0.000
 RMSDP=4.79D-04 MaxDP=1.95D-02 DE=-1.20D-01 OVMax= 7.07D-02

 Cycle   3  Pass 0  IDiag  1:
 RMSU=  4.56D-04    CP:  1.01D+00  8.84D-01
 E= -346.907143297982     Delta-E=       -0.109632486925 Rises=F Damp=F
 DIIS: error= 2.33D-03 at cycle   3 NSaved=   3.
 NSaved= 3 IEnMin= 3 EnMin= -346.907143297982     IErMin= 3 ErrMin= 2.33D-03
 ErrMax= 2.33D-03  0.00D+00 EMaxC= 1.00D-01 BMatC= 4.25D-03 BMatP= 2.13D-02
 IDIUse=3 WtCom= 9.77D-01 WtEn= 2.33D-02
 Coeff-Com: -0.827D-01 0.326D+00 0.757D+00
 Coeff-En:   0.000D+00 0.000D+00 0.100D+01
 Coeff:     -0.808D-01 0.319D+00 0.762D+00
 Gap=     0.323 Goal=   None    Shift=    0.000
 RMSDP=2.06D-04 MaxDP=1.49D-02 DE=-1.10D-01 OVMax= 1.26D-02

 Cycle   4  Pass 0  IDiag  1:
 RMSU=  1.32D-04    CP:  1.01D+00  1.00D+00  8.64D-01
 E= -346.909444267923     Delta-E=       -0.002300969942 Rises=F Damp=F
 DIIS: error= 1.14D-03 at cycle   4 NSaved=   4.
 NSaved= 4 IEnMin= 4 EnMin= -346.909444267923     IErMin= 4 ErrMin= 1.14D-03
 ErrMax= 1.14D-03  0.00D+00 EMaxC= 1.00D-01 BMatC= 1.14D-03 BMatP= 4.25D-03
 IDIUse=3 WtCom= 9.89D-01 WtEn= 1.14D-02
 Coeff-Com: -0.285D-01 0.767D-01 0.383D+00 0.569D+00
 Coeff-En:   0.000D+00 0.000D+00 0.163D+00 0.837D+00
 Coeff:     -0.282D-01 0.758D-01 0.381D+00 0.572D+00
 Gap=     0.320 Goal=   None    Shift=    0.000
 RMSDP=7.48D-05 MaxDP=5.28D-03 DE=-2.30D-03 OVMax= 4.86D-03

 Cycle   5  Pass 0  IDiag  1:
 RMSU=  2.93D-05    CP:  1.01D+00  9.73D-01  9.22D-01  6.10D-01
 E= -346.910254841896     Delta-E=       -0.000810573973 Rises=F Damp=F
 DIIS: error= 2.21D-04 at cycle   5 NSaved=   5.
 NSaved= 5 IEnMin= 5 EnMin= -346.910254841896     IErMin= 5 ErrMin= 2.21D-04
 ErrMax= 2.21D-04  0.00D+00 EMaxC= 1.00D-01 BMatC= 3.01D-05 BMatP= 1.14D-03
 IDIUse=3 WtCom= 9.98D-01 WtEn= 2.21D-03
 Coeff-Com: -0.519D-02 0.954D-02 0.974D-01 0.213D+00 0.685D+00
 Coeff-En:   0.000D+00 0.000D+00 0.000D+00 0.000D+00 0.100D+01
 Coeff:     -0.518D-02 0.952D-02 0.972D-01 0.213D+00 0.686D+00
 Gap=     0.320 Goal=   None    Shift=    0.000
 RMSDP=1.04D-05 MaxDP=2.87D-04 DE=-8.11D-04 OVMax= 8.60D-04

 Cycle   6  Pass 0  IDiag  1:
 RMSU=  7.67D-06    CP:  1.01D+00  9.73D-01  9.28D-01  6.40D-01  8.23D-01
 E= -346.910276130618     Delta-E=       -0.000021288721 Rises=F Damp=F
 DIIS: error= 4.15D-05 at cycle   6 NSaved=   6.
 NSaved= 6 IEnMin= 6 EnMin= -346.910276130618     IErMin= 6 ErrMin= 4.15D-05
 ErrMax= 4.15D-05  0.00D+00 EMaxC= 1.00D-01 BMatC= 1.46D-06 BMatP= 3.01D-05
 IDIUse=1 WtCom= 1.00D+00 WtEn= 0.00D+00
 Coeff-Com: -0.799D-04-0.980D-03 0.120D-01 0.459D-01 0.218D+00 0.725D+00
 Coeff:     -0.799D-04-0.980D-03 0.120D-01 0.459D-01 0.218D+00 0.725D+00
 Gap=     0.320 Goal=   None    Shift=    0.000
 RMSDP=3.56D-06 MaxDP=1.38D-04 DE=-2.13D-05 OVMax= 3.12D-04

 Initial convergence to 1.0D-05 achieved.  Increase integral accuracy.
 Cycle   7  Pass 1  IDiag  1:
 E= -346.910287803683     Delta-E=       -0.000011673065 Rises=F Damp=F
 DIIS: error= 2.69D-05 at cycle   1 NSaved=   1.
 NSaved= 1 IEnMin= 1 EnMin= -346.910287803683     IErMin= 1 ErrMin= 2.69D-05
 ErrMax= 2.69D-05  0.00D+00 EMaxC= 1.00D-01 BMatC= 7.68D-07 BMatP= 7.68D-07
 IDIUse=1 WtCom= 1.00D+00 WtEn= 0.00D+00
 Coeff-Com:  0.100D+01
 Coeff:      0.100D+01
 Gap=     0.320 Goal=   None    Shift=    0.000
 RMSDP=3.56D-06 MaxDP=1.38D-04 DE=-1.17D-05 OVMax= 1.47D-04

 Cycle   8  Pass 1  IDiag  1:
 RMSU=  6.74D-06    CP:  1.00D+00
 E= -346.910287985745     Delta-E=       -0.000000182063 Rises=F Damp=F
 DIIS: error= 1.79D-05 at cycle   2 NSaved=   2.
 NSaved= 2 IEnMin= 2 EnMin= -346.910287985745     IErMin= 2 ErrMin= 1.79D-05
 ErrMax= 1.79D-05  0.00D+00 EMaxC= 1.00D-01 BMatC= 3.61D-07 BMatP= 7.68D-07
 IDIUse=1 WtCom= 1.00D+00 WtEn= 0.00D+00
 Coeff-Com:  0.381D+00 0.619D+00
 Coeff:      0.381D+00 0.619D+00
 Gap=     0.320 Goal=   None    Shift=    0.000
 RMSDP=1.34D-06 MaxDP=5.86D-05 DE=-1.82D-07 OVMax= 1.15D-04

 Cycle   9  Pass 1  IDiag  1:
 RMSU=  1.33D-06    CP:  1.00D+00  9.85D-01
 E= -346.910288204374     Delta-E=       -0.000000218629 Rises=F Damp=F
 DIIS: error= 7.66D-06 at cycle   3 NSaved=   3.
 NSaved= 3 IEnMin= 3 EnMin= -346.910288204374     IErMin= 3 ErrMin= 7.66D-06
 ErrMax= 7.66D-06  0.00D+00 EMaxC= 1.00D-01 BMatC= 5.57D-08 BMatP= 3.61D-07
 IDIUse=1 WtCom= 1.00D+00 WtEn= 0.00D+00
 Coeff-Com: -0.117D-01 0.275D+00 0.737D+00
 Coeff:     -0.117D-01 0.275D+00 0.737D+00
 Gap=     0.320 Goal=   None    Shift=    0.000
 RMSDP=4.12D-07 MaxDP=1.85D-05 DE=-2.19D-07 OVMax= 2.86D-05

 Cycle  10  Pass 1  IDiag  1:
 RMSU=  2.15D-07    CP:  1.00D+00  1.01D+00  7.79D-01
 E= -346.910288240678     Delta-E=       -0.000000036304 Rises=F Damp=F
 DIIS: error= 1.37D-06 at cycle   4 NSaved=   4.
 NSaved= 4 IEnMin= 4 EnMin= -346.910288240678     IErMin= 4 ErrMin= 1.37D-06
 ErrMax= 1.37D-06  0.00D+00 EMaxC= 1.00D-01 BMatC= 1.46D-09 BMatP= 5.57D-08
 IDIUse=1 WtCom= 1.00D+00 WtEn= 0.00D+00
 Coeff-Com: -0.113D-01 0.111D+00 0.321D+00 0.579D+00
 Coeff:     -0.113D-01 0.111D+00 0.321D+00 0.579D+00
 Gap=     0.320 Goal=   None    Shift=    0.000
 RMSDP=8.97D-08 MaxDP=3.29D-06 DE=-3.63D-08 OVMax= 1.06D-05

 Cycle  11  Pass 1  IDiag  1:
 RMSU=  8.37D-08    CP:  1.00D+00  1.01D+00  7.99D-01  9.19D-01
 E= -346.910288241905     Delta-E=       -0.000000001227 Rises=F Damp=F
 DIIS: error= 3.21D-07 at cycle   5 NSaved=   5.
 NSaved= 5 IEnMin= 5 EnMin= -346.910288241905     IErMin= 5 ErrMin= 3.21D-07
 ErrMax= 3.21D-07  0.00D+00 EMaxC= 1.00D-01 BMatC= 1.12D-10 BMatP= 1.46D-09
 IDIUse=1 WtCom= 1.00D+00 WtEn= 0.00D+00
 Coeff-Com: -0.110D-02-0.136D-01-0.369D-01 0.164D+00 0.888D+00
 Coeff:     -0.110D-02-0.136D-01-0.369D-01 0.164D+00 0.888D+00
 Gap=     0.320 Goal=   None    Shift=    0.000
 RMSDP=3.44D-08 MaxDP=1.08D-06 DE=-1.23D-09 OVMax= 4.11D-06

 Cycle  12  Pass 1  IDiag  1:
 RMSU=  2.33D-08    CP:  1.00D+00  1.01D+00  7.99D-01  1.04D+00  9.91D-01
 E= -346.910288242003     Delta-E=       -0.000000000098 Rises=F Damp=F
 DIIS: error= 1.32D-07 at cycle   6 NSaved=   6.
 NSaved= 6 IEnMin= 6 EnMin= -346.910288242003     IErMin= 6 ErrMin= 1.32D-07
 ErrMax= 1.32D-07  0.00D+00 EMaxC= 1.00D-01 BMatC= 1.39D-11 BMatP= 1.12D-10
 IDIUse=1 WtCom= 1.00D+00 WtEn= 0.00D+00
 Coeff-Com:  0.697D-03-0.164D-01-0.472D-01 0.133D-01 0.365D+00 0.685D+00
 Coeff:      0.697D-03-0.164D-01-0.472D-01 0.133D-01 0.365D+00 0.685D+00
 Gap=     0.320 Goal=   None    Shift=    0.000
 RMSDP=1.09D-08 MaxDP=4.14D-07 DE=-9.85D-11 OVMax= 1.57D-06

 Cycle  13  Pass 1  IDiag  1:
 RMSU=  7.24D-09    CP:  1.00D+00  1.01D+00  8.01D-01  1.06D+00  1.06D+00
                    CP:  9.58D-01
 E= -346.910288242034     Delta-E=       -0.000000000031 Rises=F Damp=F
 DIIS: error= 3.75D-08 at cycle   7 NSaved=   7.
 NSaved= 7 IEnMin= 7 EnMin= -346.910288242034     IErMin= 7 ErrMin= 3.75D-08
 ErrMax= 3.75D-08  0.00D+00 EMaxC= 1.00D-01 BMatC= 1.14D-12 BMatP= 1.39D-11
 IDIUse=1 WtCom= 1.00D+00 WtEn= 0.00D+00
 Coeff-Com:  0.355D-03-0.528D-02-0.156D-01-0.765D-02 0.717D-01 0.272D+00
 Coeff-Com:  0.685D+00
 Coeff:      0.355D-03-0.528D-02-0.156D-01-0.765D-02 0.717D-01 0.272D+00
 Coeff:      0.685D+00
 Gap=     0.320 Goal=   None    Shift=    0.000
 RMSDP=2.81D-09 MaxDP=1.51D-07 DE=-3.09D-11 OVMax= 4.53D-07

 SCF Done:  E(RM062X) =  -346.910288242     A.U. after   13 cycles
            NFock= 13  Conv=0.28D-08     -V/T= 2.0062
 KE= 3.447860978400D+02 PE=-1.439604148104D+03 EE= 4.332383515572D+02
 Leave Link  502 at Sun Sep 29 06:47:13 2019, MaxMem=   671088640 cpu:            1497.9 elap:             749.1
 (Enter /shared/centos7/gaussian/g16/l801.exe)
 DoSCS=F DFT=T ScalE2(SS,OS)=  1.000000  1.000000
 Range of M.O.s used for correlation:     1   350
 NBasis=   350 NAE=    28 NBE=    28 NFC=     0 NFV=     0
 NROrb=    350 NOA=    28 NOB=    28 NVA=   322 NVB=   322

 **** Warning!!: The largest alpha MO coefficient is  0.10440192D+02

 Leave Link  801 at Sun Sep 29 06:47:14 2019, MaxMem=   671088640 cpu:               1.8 elap:               0.9
 (Enter /shared/centos7/gaussian/g16/l1101.exe)
 Using compressed storage, NAtomX=    17.
 Will process     18 centers per pass.
 Leave Link 1101 at Sun Sep 29 06:47:52 2019, MaxMem=   671088640 cpu:              76.1 elap:              38.1
 (Enter /shared/centos7/gaussian/g16/l1102.exe)
 Symmetrizing basis deriv contribution to polar:
 IMax=3 JMax=2 DiffMx= 0.00D+00
 Leave Link 1102 at Sun Sep 29 06:47:56 2019, MaxMem=   671088640 cpu:               7.3 elap:               3.7
 (Enter /shared/centos7/gaussian/g16/l1110.exe)
 Forming Gx(P) for the SCF density, NAtomX=    17.
 Integral derivatives from FoFJK, PRISM(SPDF).
 Do as many integral derivatives as possible in FoFJK.
 G2DrvN: MDV=     671087280.
 G2DrvN: will do    18 centers at a time, making    1 passes.
 Calling FoFCou, ICntrl=  3107 FMM=F I1Cent=   0 AccDes= 0.00D+00.
 FoFJK:  IHMeth= 1 ICntrl=    3107 DoSepK=F KAlg= 0 I1Cent=           0 FoldK=F
 IRaf=         0 NMat=       1 IRICut=       1 DoRegI=T DoRafI=F ISym2E= 0 IDoP0=0 IntGTp=1.
 FoFCou: FMM=F IPFlag=           0 FMFlag=      100000 FMFlg1=           0
         NFxFlg=           0 DoJE=F BraDBF=F KetDBF=F FulRan=T
         wScrn=  0.000000 ICntrl=      3107 IOpCl=  0 I1Cent=           0 NGrid=           0
         NMat0=    1 NMatS0=      1 NMatT0=    0 NMatD0=    1 NMtDS0=    0 NMtDT0=    0
 Symmetry not used in FoFCou.
 End of G2Drv F.D. properties file   721 does not exist.
 End of G2Drv F.D. properties file   722 does not exist.
 End of G2Drv F.D. properties file   788 does not exist.
 Leave Link 1110 at Sun Sep 29 07:10:27 2019, MaxMem=   671088640 cpu:            2701.9 elap:            1351.2
 (Enter /shared/centos7/gaussian/g16/l1002.exe)
 Minotr:  Closed shell wavefunction.
          IDoAtm=11111111111111111
          Direct CPHF calculation.
          Differentiating once with respect to nuclear coordinates.
          Requested convergence is 1.0D-08 RMS, and 1.0D-07 maximum.
          Secondary convergence is 1.0D-12 RMS, and 1.0D-12 maximum.
          NewPWx=T KeepS1=F KeepF1=F KeepIn=T MapXYZ=F SortEE=F KeepMc=T.
         5123 words used for storage of precomputed grid.
 Two-electron integrals replicated using symmetry.
          MDV=     671088640 using IRadAn=       1.
          Solving linear equations simultaneously, MaxMat=     380.
 FoF2E skips out because all densities are zero.
 CalDSu exits because no D1Ps are significant.
 FoFJK:  IHMeth= 1 ICntrl=       0 DoSepK=F KAlg= 0 I1Cent=           0 FoldK=F
 IRaf= 930000000 NMat=      51 IRICut=     127 DoRegI=T DoRafI=T ISym2E= 2 IDoP0=3 IntGTp=3.
 FoFCou: FMM=F IPFlag=           0 FMFlag=      100000 FMFlg1=           0
         NFxFlg=           0 DoJE=F BraDBF=F KetDBF=F FulRan=T
         wScrn=  0.000000 ICntrl=         0 IOpCl=  0 I1Cent=           0 NGrid=           0
         NMat0=   51 NMatS0=     51 NMatT0=    0 NMatD0=   51 NMtDS0=    0 NMtDT0=    0
 Integrals replicated using symmetry in FoFCou.
 Raff kept on since  89.96% of shell-pairs survive, threshold=   0.20 IRatSp=90.
          There are    54 degrees of freedom in the 1st order CPHF.  IDoFFX=6 NUNeed=     0.
     48 vectors produced by pass  0 Test12= 1.67D-14 1.85D-09 XBig12= 7.22D-02 5.82D-02.
 AX will form    48 AO Fock derivatives at one time.
     48 vectors produced by pass  1 Test12= 1.67D-14 1.85D-09 XBig12= 6.24D-03 2.08D-02.
     48 vectors produced by pass  2 Test12= 1.67D-14 1.85D-09 XBig12= 1.85D-04 2.16D-03.
     48 vectors produced by pass  3 Test12= 1.67D-14 1.85D-09 XBig12= 2.48D-06 1.81D-04.
     48 vectors produced by pass  4 Test12= 1.67D-14 1.85D-09 XBig12= 1.89D-08 1.96D-05.
     48 vectors produced by pass  5 Test12= 1.67D-14 1.85D-09 XBig12= 8.63D-11 1.05D-06.
     24 vectors produced by pass  6 Test12= 1.67D-14 1.85D-09 XBig12= 3.58D-13 5.76D-08.
      4 vectors produced by pass  7 Test12= 1.67D-14 1.85D-09 XBig12= 1.37D-15 4.09D-09.
 InvSVY:  IOpt=1 It=  1 EMax= 3.05D-16
 Solved reduced A of dimension   316 with    54 vectors.
 End of Minotr F.D. properties file   721 does not exist.
 End of Minotr F.D. properties file   722 does not exist.
 End of Minotr F.D. properties file   788 does not exist.
 Leave Link 1002 at Sun Sep 29 07:42:56 2019, MaxMem=   671088640 cpu:            3897.3 elap:            1948.9
 (Enter /shared/centos7/gaussian/g16/l601.exe)
 Copying SCF densities to generalized density rwf, IOpCl= 0 IROHF=0.

 **********************************************************************

            Population analysis using the SCF density.

 **********************************************************************

 Orbital symmetries:
       Occupied  (A) (A) (A) (A) (A) (A) (A) (A) (A) (A) (A) (A)
                 (A) (A) (A) (A) (A) (A) (A) (A) (A) (A) (A) (A)
                 (A) (A) (A) (A)
       Virtual   (A) (A) (A) (A) (A) (A) (A) (A) (A) (A) (A) (A)
                 (A) (A) (A) (A) (A) (A) (A) (A) (A) (A) (A) (A)
                 (A) (A) (A) (A) (A) (A) (A) (A) (A) (A) (A) (A)
                 (A) (A) (A) (A) (A) (A) (A) (A) (A) (A) (A) (A)
                 (A) (A) (A) (A) (A) (A) (A) (A) (A) (A) (A) (A)
                 (A) (A) (A) (A) (A) (A) (A) (A) (A) (A) (A) (A)
                 (A) (A) (A) (A) (A) (A) (A) (A) (A) (A) (A) (A)
                 (A) (A) (A) (A) (A) (A) (A) (A) (A) (A) (A) (A)
                 (A) (A) (A) (A) (A) (A) (A) (A) (A) (A) (A) (A)
                 (A) (A) (A) (A) (A) (A) (A) (A) (A) (A) (A) (A)
                 (A) (A) (A) (A) (A) (A) (A) (A) (A) (A) (A) (A)
                 (A) (A) (A) (A) (A) (A) (A) (A) (A) (A) (A) (A)
                 (A) (A) (A) (A) (A) (A) (A) (A) (A) (A) (A) (A)
                 (A) (A) (A) (A) (A) (A) (A) (A) (A) (A) (A) (A)
                 (A) (A) (A) (A) (A) (A) (A) (A) (A) (A) (A) (A)
                 (A) (A) (A) (A) (A) (A) (A) (A) (A) (A) (A) (A)
                 (A) (A) (A) (A) (A) (A) (A) (A) (A) (A) (A) (A)
                 (A) (A) (A) (A) (A) (A) (A) (A) (A) (A) (A) (A)
                 (A) (A) (A) (A) (A) (A) (A) (A) (A) (A) (A) (A)
                 (A) (A) (A) (A) (A) (A) (A) (A) (A) (A) (A) (A)
                 (A) (A) (A) (A) (A) (A) (A) (A) (A) (A) (A) (A)
                 (A) (A) (A) (A) (A) (A) (A) (A) (A) (A) (A) (A)
                 (A) (A) (A) (A) (A) (A) (A) (A) (A) (A) (A) (A)
                 (A) (A) (A) (A) (A) (A) (A) (A) (A) (A) (A) (A)
                 (A) (A) (A) (A) (A) (A) (A) (A) (A) (A) (A) (A)
                 (A) (A) (A) (A) (A) (A) (A) (A) (A) (A) (A) (A)
                 (A) (A) (A) (A) (A) (A) (A) (A) (A) (A)
 The electronic state is 1-A.
 Alpha  occ. eigenvalues --  -19.64470 -19.63340 -10.59110 -10.57998 -10.57420
 Alpha  occ. eigenvalues --  -10.53438 -10.52449  -1.17647  -1.15361  -0.89068
 Alpha  occ. eigenvalues --   -0.84016  -0.77838  -0.69286  -0.64137  -0.60372
 Alpha  occ. eigenvalues --   -0.56365  -0.55513  -0.54308  -0.48627  -0.46084
 Alpha  occ. eigenvalues --   -0.45542  -0.44577  -0.43039  -0.42558  -0.41651
 Alpha  occ. eigenvalues --   -0.38253  -0.35144  -0.26939
 Alpha virt. eigenvalues --    0.05081   0.07490   0.08398   0.09554   0.10463
 Alpha virt. eigenvalues --    0.12109   0.12787   0.14102   0.15915   0.16359
 Alpha virt. eigenvalues --    0.18158   0.20879   0.22122   0.24037   0.25194
 Alpha virt. eigenvalues --    0.27717   0.29812   0.31963   0.32139   0.33769
 Alpha virt. eigenvalues --    0.34683   0.35679   0.36488   0.38403   0.40664
 Alpha virt. eigenvalues --    0.41023   0.42773   0.44029   0.45078   0.46459
 Alpha virt. eigenvalues --    0.47003   0.47817   0.48479   0.50161   0.50706
 Alpha virt. eigenvalues --    0.51891   0.52643   0.53348   0.53667   0.54463
 Alpha virt. eigenvalues --    0.56693   0.57160   0.60009   0.61379   0.62857
 Alpha virt. eigenvalues --    0.64137   0.66384   0.67583   0.68757   0.72015
 Alpha virt. eigenvalues --    0.72927   0.73998   0.79003   0.79222   0.82282
 Alpha virt. eigenvalues --    0.84120   0.85230   0.87973   0.89608   0.91012
 Alpha virt. eigenvalues --    0.94439   0.96656   0.97218   0.98736   0.99179
 Alpha virt. eigenvalues --    1.01533   1.03152   1.04342   1.05578   1.06297
 Alpha virt. eigenvalues --    1.06463   1.08101   1.09233   1.10844   1.12716
 Alpha virt. eigenvalues --    1.12915   1.15763   1.17817   1.20491   1.20734
 Alpha virt. eigenvalues --    1.21711   1.23517   1.24883   1.25190   1.27602
 Alpha virt. eigenvalues --    1.29901   1.31079   1.32888   1.33833   1.35413
 Alpha virt. eigenvalues --    1.36111   1.37745   1.38583   1.39087   1.39861
 Alpha virt. eigenvalues --    1.43765   1.45992   1.48302   1.48733   1.51735
 Alpha virt. eigenvalues --    1.53175   1.53867   1.55765   1.57008   1.58162
 Alpha virt. eigenvalues --    1.63354   1.68587   1.72345   1.72860   1.85987
 Alpha virt. eigenvalues --    1.87568   1.93528   1.99514   2.02002   2.06941
 Alpha virt. eigenvalues --    2.09442   2.12328   2.13686   2.16972   2.17413
 Alpha virt. eigenvalues --    2.20148   2.23326   2.26495   2.30377   2.34360
 Alpha virt. eigenvalues --    2.35058   2.36718   2.41284   2.43352   2.45287
 Alpha virt. eigenvalues --    2.46017   2.50043   2.51019   2.56409   2.58165
 Alpha virt. eigenvalues --    2.60363   2.62228   2.64948   2.65874   2.67519
 Alpha virt. eigenvalues --    2.69893   2.74524   2.77396   2.78459   2.80540
 Alpha virt. eigenvalues --    2.82879   2.83215   2.85016   2.86866   2.87277
 Alpha virt. eigenvalues --    2.87954   2.90016   2.90980   2.92975   2.93753
 Alpha virt. eigenvalues --    2.95175   2.97186   2.98364   2.99563   3.01001
 Alpha virt. eigenvalues --    3.02289   3.02692   3.04390   3.06038   3.06471
 Alpha virt. eigenvalues --    3.08746   3.09849   3.10700   3.11847   3.13886
 Alpha virt. eigenvalues --    3.15037   3.16086   3.18957   3.21006   3.21737
 Alpha virt. eigenvalues --    3.25601   3.26103   3.26780   3.28611   3.30070
 Alpha virt. eigenvalues --    3.32033   3.32884   3.33532   3.35167   3.37868
 Alpha virt. eigenvalues --    3.38741   3.39733   3.40468   3.42256   3.43575
 Alpha virt. eigenvalues --    3.44886   3.45476   3.48683   3.51096   3.51554
 Alpha virt. eigenvalues --    3.54013   3.55544   3.55731   3.59105   3.61827
 Alpha virt. eigenvalues --    3.62958   3.64573   3.67268   3.69032   3.73127
 Alpha virt. eigenvalues --    3.73991   3.74767   3.75587   3.76530   3.77234
 Alpha virt. eigenvalues --    3.81311   3.82914   3.83567   3.85804   3.86545
 Alpha virt. eigenvalues --    3.88745   3.89261   3.91049   3.92535   3.94421
 Alpha virt. eigenvalues --    3.96051   3.97156   3.98354   4.00794   4.01162
 Alpha virt. eigenvalues --    4.04719   4.05435   4.07325   4.08017   4.10974
 Alpha virt. eigenvalues --    4.11412   4.11947   4.14318   4.14475   4.16228
 Alpha virt. eigenvalues --    4.19148   4.23686   4.25184   4.26895   4.28676
 Alpha virt. eigenvalues --    4.30089   4.32228   4.37202   4.40310   4.42638
 Alpha virt. eigenvalues --    4.43476   4.46793   4.49438   4.50540   4.54798
 Alpha virt. eigenvalues --    4.58368   4.59273   4.62898   4.64668   4.67591
 Alpha virt. eigenvalues --    4.69401   4.70789   4.73582   4.76979   4.80814
 Alpha virt. eigenvalues --    4.84335   4.88076   4.91489   4.92224   4.92546
 Alpha virt. eigenvalues --    4.95194   4.97704   5.01665   5.04876   5.05242
 Alpha virt. eigenvalues --    5.07234   5.09993   5.11765   5.13589   5.14367
 Alpha virt. eigenvalues --    5.21248   5.21880   5.23137   5.24291   5.27996
 Alpha virt. eigenvalues --    5.29087   5.30128   5.35750   5.39607   5.46445
 Alpha virt. eigenvalues --    5.49856   5.58872   5.62858   5.67866   5.75277
 Alpha virt. eigenvalues --    5.76087   5.77969   5.79737   5.82144   5.84071
 Alpha virt. eigenvalues --    5.94867   6.03202   6.07133   6.14099   6.28661
 Alpha virt. eigenvalues --    6.33422   6.48760   6.54828   6.58701   6.70474
 Alpha virt. eigenvalues --    6.71791   6.75751   6.79373   6.81636   7.02104
 Alpha virt. eigenvalues --    7.08441   7.19857   7.26954   7.31962   7.42721
 Alpha virt. eigenvalues --   10.10925  11.03382  11.48275  11.87691  12.93356
 Alpha virt. eigenvalues --   13.42856  14.39739
          Condensed to atoms (all electrons):
               1          2          3          4          5          6
     1  O    7.845608   0.004791   0.311953  -0.059549  -0.045767   0.325960
     2  O    0.004791   7.769147   0.002240  -0.001015  -0.000079  -0.087529
     3  C    0.311953   0.002240   4.863503   0.304747   0.307657  -0.077478
     4  C   -0.059549  -0.001015   0.304747   5.033608  -0.046568   0.009231
     5  C   -0.045767  -0.000079   0.307657  -0.046568   5.082627  -0.038553
     6  C    0.325960  -0.087529  -0.077478   0.009231  -0.038553   5.129228
     7  C   -0.065183   0.367269   0.006241   0.001247   0.002124   0.452490
     8  H   -0.041095   0.000033   0.423589  -0.060150  -0.069121  -0.003035
     9  H    0.007134   0.001990  -0.034089   0.375284   0.002589  -0.002259
    10  H    0.003014   0.000001  -0.036500   0.394261   0.005483  -0.000356
    11  H    0.004488   0.000008  -0.047590   0.396562  -0.009274  -0.000672
    12  H    0.003591   0.000042  -0.038151  -0.015821   0.392832  -0.000005
    13  H   -0.007663  -0.000203  -0.046316   0.009616   0.410418  -0.000413
    14  H    0.003258   0.000000  -0.031386   0.002384   0.397038   0.002841
    15  H   -0.042371   0.003153   0.005263  -0.002488  -0.013433   0.429409
    16  H    0.004541  -0.053135   0.000193  -0.000072   0.000013  -0.103388
    17  H   -0.000128   0.324907  -0.000044   0.000030   0.000029   0.015619
               7          8          9         10         11         12
     1  O   -0.065183  -0.041095   0.007134   0.003014   0.004488   0.003591
     2  O    0.367269   0.000033   0.001990   0.000001   0.000008   0.000042
     3  C    0.006241   0.423589  -0.034089  -0.036500  -0.047590  -0.038151
     4  C    0.001247  -0.060150   0.375284   0.394261   0.396562  -0.015821
     5  C    0.002124  -0.069121   0.002589   0.005483  -0.009274   0.392832
     6  C    0.452490  -0.003035  -0.002259  -0.000356  -0.000672  -0.000005
     7  C    4.933696  -0.001457  -0.000052  -0.000082  -0.000270  -0.001311
     8  H   -0.001457   0.636769   0.007218  -0.009404   0.006928   0.010163
     9  H   -0.000052   0.007218   0.558900  -0.023641  -0.027882   0.002147
    10  H   -0.000082  -0.009404  -0.023641   0.594495  -0.036557   0.000629
    11  H   -0.000270   0.006928  -0.027882  -0.036557   0.619285   0.000885
    12  H   -0.001311   0.010163   0.002147   0.000629   0.000885   0.600274
    13  H    0.005303  -0.005015  -0.000850  -0.000617   0.000783  -0.039595
    14  H    0.000020  -0.013463  -0.000253  -0.000062  -0.001174  -0.032161
    15  H   -0.095817   0.004930   0.000593   0.000081   0.000224   0.001899
    16  H    0.448401   0.000084   0.000134  -0.000001  -0.000002   0.000064
    17  H   -0.043821   0.000000  -0.000079   0.000000   0.000002  -0.000002
              13         14         15         16         17
     1  O   -0.007663   0.003258  -0.042371   0.004541  -0.000128
     2  O   -0.000203   0.000000   0.003153  -0.053135   0.324907
     3  C   -0.046316  -0.031386   0.005263   0.000193  -0.000044
     4  C    0.009616   0.002384  -0.002488  -0.000072   0.000030
     5  C    0.410418   0.397038  -0.013433   0.000013   0.000029
     6  C   -0.000413   0.002841   0.429409  -0.103388   0.015619
     7  C    0.005303   0.000020  -0.095817   0.448401  -0.043821
     8  H   -0.005015  -0.013463   0.004930   0.000084   0.000000
     9  H   -0.000850  -0.000253   0.000593   0.000134  -0.000079
    10  H   -0.000617  -0.000062   0.000081  -0.000001   0.000000
    11  H    0.000783  -0.001174   0.000224  -0.000002   0.000002
    12  H   -0.039595  -0.032161   0.001899   0.000064  -0.000002
    13  H    0.604720  -0.026448  -0.017177  -0.000082   0.000001
    14  H   -0.026448   0.577898   0.000062  -0.000006  -0.000001
    15  H   -0.017177   0.000062   0.611060  -0.002753  -0.000317
    16  H   -0.000082  -0.000006  -0.002753   0.620407  -0.014220
    17  H    0.000001  -0.000001  -0.000317  -0.014220   0.457439
 Mulliken charges:
               1
     1  O   -0.252583
     2  O   -0.331621
     3  C    0.086165
     4  C   -0.341309
     5  C   -0.378014
     6  C   -0.051088
     7  C   -0.008799
     8  H    0.113025
     9  H    0.133115
    10  H    0.109255
    11  H    0.094256
    12  H    0.114521
    13  H    0.113539
    14  H    0.121453
    15  H    0.117680
    16  H    0.099822
    17  H    0.260583
 Sum of Mulliken charges =  -0.00000
 Mulliken charges with hydrogens summed into heavy atoms:
               1
     1  O   -0.252583
     2  O   -0.071037
     3  C    0.199191
     4  C   -0.004683
     5  C   -0.028502
     6  C    0.066592
     7  C    0.091023
 APT charges:
               1
     1  O   -0.198608
     2  O   -0.866537
     3  C   -0.227209
     4  C   -1.132969
     5  C   -1.087439
     6  C   -0.383149
     7  C   -0.315854
     8  H    0.428067
     9  H    0.212932
    10  H    0.481981
    11  H    0.370125
    12  H    0.305949
    13  H    0.220810
    14  H    0.521692
    15  H    0.337703
    16  H    0.472924
    17  H    0.859582
 Sum of APT charges =   0.00000
 APT charges with hydrogens summed into heavy atoms:
               1
     1  O   -0.198608
     2  O   -0.006955
     3  C    0.200858
     4  C   -0.067932
     5  C   -0.038987
     6  C   -0.045446
     7  C    0.157070
 Electronic spatial extent (au):  <R**2>=            963.7960
 Charge=             -0.0000 electrons
 Dipole moment (field-independent basis, Debye):
    X=              0.4012    Y=             -1.7920    Z=              1.4940  Tot=              2.3673
 Quadrupole moment (field-independent basis, Debye-Ang):
   XX=            -33.7233   YY=            -43.7293   ZZ=            -45.1072
   XY=             -1.5964   XZ=              4.8048   YZ=              1.1322
 Traceless Quadrupole moment (field-independent basis, Debye-Ang):
   XX=              7.1300   YY=             -2.8760   ZZ=             -4.2539
   XY=             -1.5964   XZ=              4.8048   YZ=              1.1322
 Octapole moment (field-independent basis, Debye-Ang**2):
  XXX=             47.7916  YYY=              0.8791  ZZZ=              0.6154  XYY=              3.8428
  XXY=              0.5968  XXZ=             13.6056  XZZ=              4.2610  YZZ=              3.0608
  YYZ=             -0.9561  XYZ=              1.9721
 Hexadecapole moment (field-independent basis, Debye-Ang**3):
 XXXX=           -708.6810 YYYY=           -283.5914 ZZZZ=           -118.0164 XXXY=             23.5733
 XXXZ=             68.6003 YYYX=              5.2494 YYYZ=              2.1210 ZZZX=              9.7779
 ZZZY=              1.4768 XXYY=           -189.9915 XXZZ=           -152.8650 YYZZ=            -69.9996
 XXYZ=              5.8870 YYXZ=              7.9258 ZZXY=              6.0579
 N-N= 3.146694104642D+02 E-N=-1.439604144421D+03  KE= 3.447860978400D+02
  Exact polarizability:   0.000   0.000   0.000   0.000   0.000   0.000
 Approx polarizability:  93.723   3.622  76.257   8.227   1.223  70.602
 No NMR shielding tensors so no spin-rotation constants.
 Leave Link  601 at Sun Sep 29 07:43:27 2019, MaxMem=   671088640 cpu:              62.2 elap:              31.1
 (Enter /shared/centos7/gaussian/g16/l701.exe)
 SCFChk:  SCF convergence  2.81D-09 required  1.00D-08
 ... and contract with generalized density number  0.
 Compute integral second derivatives.
 Entering OneElI...
 Calculate overlap and kinetic energy integrals
    NBasis = 395  MinDer = 2  MaxDer = 2
 Requested accuracy = 0.1000D-12
 PrmmSu-InSpLW:  IPartL=    0 NPrtUS=   20 NPrtUL=    1 DoSpLW=F IThBeg=    0 IThEnd=   19 NThAct=   20.
 PrsmSu:  NPrtUS=  20 ThrOK=T IAlg=1 NPAlg=1 LenDen=           0 ISkipM=0 DoSpLW=F IThBeg=    0 IThEnd=   19.
 Prism:   IPart=     0 DynPar=F LinDyn=F Incr=           4.
 PRISM was handed    33313986 working-precision words and  8417 shell-pairs
 PRISM was handed    33313986 working-precision words and  8417 shell-pairs
 PRISM was handed    33313986 working-precision words and  8417 shell-pairs
 PRISM was handed    33313986 working-precision words and  8417 shell-pairs
 PRISM was handed    33313986 working-precision words and  8417 shell-pairs
 PRISM was handed    33313986 working-precision words and  8417 shell-pairs
 IPart=  0 NShTot=         463 NBatch=          82 AvBLen=         5.6
 PRISM was handed    33313986 working-precision words and  8417 shell-pairs
 PRISM was handed    33313986 working-precision words and  8417 shell-pairs
 PRISM was handed    33313986 working-precision words and  8417 shell-pairs
 PRISM was handed    33313986 working-precision words and  8417 shell-pairs
 PRISM was handed    33313986 working-precision words and  8417 shell-pairs
 PRISM was handed    33313986 working-precision words and  8417 shell-pairs
 PRISM was handed    33313986 working-precision words and  8417 shell-pairs
 PRISM was handed    33313986 working-precision words and  8417 shell-pairs
 PRISM was handed    33313986 working-precision words and  8417 shell-pairs
 PRISM was handed    33313986 working-precision words and  8417 shell-pairs
 PRISM was handed    33313986 working-precision words and  8417 shell-pairs
 IPart= 19 NShTot=         393 NBatch=          35 AvBLen=        11.2
 PRISM was handed    33313986 working-precision words and  8417 shell-pairs
 IPart=  1 NShTot=         456 NBatch=          78 AvBLen=         5.8
 IPart=  4 NShTot=         442 NBatch=          66 AvBLen=         6.7
 PRISM was handed    33313986 working-precision words and  8417 shell-pairs
 IPart= 14 NShTot=         402 NBatch=          39 AvBLen=        10.3
 PRISM was handed    33313986 working-precision words and  8417 shell-pairs
 IPart= 15 NShTot=         400 NBatch=          39 AvBLen=        10.3
 IPart= 10 NShTot=         416 NBatch=          49 AvBLen=         8.5
 IPart= 13 NShTot=         406 NBatch=          41 AvBLen=         9.9
 IPart=  3 NShTot=         446 NBatch=          70 AvBLen=         6.4
 IPart=  2 NShTot=         451 NBatch=          74 AvBLen=         6.1
 IPart= 12 NShTot=         409 NBatch=          44 AvBLen=         9.3
 IPart= 11 NShTot=         415 NBatch=          49 AvBLen=         8.5
 IPart=  9 NShTot=         417 NBatch=          50 AvBLen=         8.3
 IPart= 16 NShTot=         398 NBatch=          38 AvBLen=        10.5
 IPart=  7 NShTot=         423 NBatch=          52 AvBLen=         8.1
 IPart= 18 NShTot=         396 NBatch=          37 AvBLen=        10.7
 IPart= 17 NShTot=         397 NBatch=          37 AvBLen=        10.7
 IPart=  6 NShTot=         434 NBatch=          61 AvBLen=         7.1
 IPart=  5 NShTot=         436 NBatch=          62 AvBLen=         7.0
 IPart=  8 NShTot=         417 NBatch=          50 AvBLen=         8.3
 PrSmSu:  NxtVal=             81.
 Entering OneElI...
 Calculate potential energy integrals
    NBasis = 395  MinDer = 2  MaxDer = 2
 Requested accuracy = 0.1000D-12
 PrmmSu-InSpLW:  IPartL=    0 NPrtUS=   20 NPrtUL=    1 DoSpLW=F IThBeg=    0 IThEnd=   19 NThAct=   20.
 PrsmSu:  NPrtUS=  20 ThrOK=T IAlg=1 NPAlg=1 LenDen=           0 ISkipM=0 DoSpLW=F IThBeg=    0 IThEnd=   19.
 Prism:   IPart=     0 DynPar=F LinDyn=F Incr=          64.
 PRISM was handed    33358727 working-precision words and  7613 shell-pairs
 PRISM was handed    33358727 working-precision words and  7613 shell-pairs
 PRISM was handed    33358727 working-precision words and  7613 shell-pairs
 PRISM was handed    33358727 working-precision words and  7613 shell-pairs
 PRISM was handed    33358727 working-precision words and  7613 shell-pairs
 PRISM was handed    33358727 working-precision words and  7613 shell-pairs
 PRISM was handed    33358727 working-precision words and  7613 shell-pairs
 PRISM was handed    33358727 working-precision words and  7613 shell-pairs
 PRISM was handed    33358727 working-precision words and  7613 shell-pairs
 PRISM was handed    33358727 working-precision words and  7613 shell-pairs
 PRISM was handed    33358727 working-precision words and  7613 shell-pairs
 PRISM was handed    33358727 working-precision words and  7613 shell-pairs
 PRISM was handed    33358727 working-precision words and  7613 shell-pairs
 PRISM was handed    33358727 working-precision words and  7613 shell-pairs
 PRISM was handed    33358727 working-precision words and  7613 shell-pairs
 PRISM was handed    33358727 working-precision words and  7613 shell-pairs
 PRISM was handed    33358727 working-precision words and  7613 shell-pairs
 PRISM was handed    33358727 working-precision words and  7613 shell-pairs
 PRISM was handed    33358727 working-precision words and  7613 shell-pairs
 PRISM was handed    33358727 working-precision words and  7613 shell-pairs
 IPart= 17 NShTot=        6103 NBatch=         359 AvBLen=        17.0
 IPart= 18 NShTot=        6086 NBatch=         358 AvBLen=        17.0
 IPart= 14 NShTot=        6171 NBatch=         363 AvBLen=        17.0
 IPart=  1 NShTot=        7055 NBatch=         415 AvBLen=        17.0
 IPart=  0 NShTot=        7191 NBatch=         423 AvBLen=        17.0
 IPart=  6 NShTot=        6681 NBatch=         393 AvBLen=        17.0
 IPart=  4 NShTot=        6749 NBatch=         397 AvBLen=        17.0
 IPart= 15 NShTot=        6171 NBatch=         363 AvBLen=        17.0
 IPart=  8 NShTot=        6477 NBatch=         381 AvBLen=        17.0
 IPart= 11 NShTot=        6307 NBatch=         371 AvBLen=        17.0
 IPart= 16 NShTot=        6154 NBatch=         362 AvBLen=        17.0
 IPart= 10 NShTot=        6341 NBatch=         373 AvBLen=        17.0
 IPart=  5 NShTot=        6715 NBatch=         395 AvBLen=        17.0
 IPart=  2 NShTot=        6953 NBatch=         409 AvBLen=        17.0
 IPart= 12 NShTot=        6256 NBatch=         368 AvBLen=        17.0
 IPart=  9 NShTot=        6392 NBatch=         376 AvBLen=        17.0
 IPart= 19 NShTot=        6086 NBatch=         358 AvBLen=        17.0
 IPart=  7 NShTot=        6545 NBatch=         385 AvBLen=        17.0
 IPart=  3 NShTot=        6800 NBatch=         400 AvBLen=        17.0
 IPart= 13 NShTot=        6188 NBatch=         364 AvBLen=        17.0
 PrSmSu:  NxtVal=           1281.
 Polarizability after L701:
                1             2             3 
      1  0.000000D+00
      2  0.000000D+00  0.000000D+00
      3  0.000000D+00  0.000000D+00  0.000000D+00
 Dipole Derivatives after L701:
                 1             2             3             4             5 
      1  -0.232210D+00  0.531827D-02  0.338682D-01 -0.184349D+01  0.403055D+00
      2  -0.138368D-01 -0.189950D+00 -0.391500D-01 -0.308092D+00 -0.140418D+00
      3   0.898542D-01 -0.119197D+00 -0.173663D+00 -0.376453D+00  0.111246D-01
                 6             7             8             9            10 
      1  -0.895215D+00 -0.463835D+00 -0.211505D+00 -0.922509D+00 -0.123600D+01
      2  -0.194290D+00 -0.149066D+00  0.213132D+00 -0.757023D-01  0.173354D+00
      3  -0.615706D+00 -0.202508D+00 -0.597727D-01 -0.430924D+00 -0.219428D-02
                11            12            13            14            15 
      1   0.886641D+00  0.415067D+00 -0.108621D+01 -0.723015D+00  0.659664D+00
      2  -0.123141D+01 -0.160614D+00 -0.180865D+00 -0.122997D+01  0.257941D+00
      3   0.247188D-01 -0.931499D+00  0.530413D-01 -0.121483D-01 -0.946139D+00
                16            17            18            19            20 
      1  -0.556867D+00  0.132117D+00 -0.400727D+00 -0.120622D+00  0.461351D+00
      2   0.162914D+00 -0.625427D+00  0.156518D+00  0.738152D-01 -0.783281D+00
      3  -0.208574D+00 -0.524458D-01  0.328467D-01 -0.211544D+00  0.651034D-01
                21            22            23            24            25 
      1  -0.959484D-01  0.586771D+00  0.104692D+00  0.559683D+00 -0.123411D+00
      2  -0.644271D-04  0.343974D-01  0.155207D+00  0.374407D-01  0.564544D+00
      3  -0.436594D-01  0.251813D+00  0.558958D-01  0.542224D+00  0.142487D+00
                26            27            28            29            30 
      1  -0.214414D+00 -0.912556D-01  0.745917D+00 -0.483757D+00  0.596265D+00
      2   0.619629D+00  0.198944D+00 -0.460128D+00  0.431132D+00 -0.401824D+00
      3   0.122330D+00  0.142577D+00  0.151005D+00 -0.936729D-01  0.268892D+00
                31            32            33            34            35 
      1   0.525556D+00  0.124471D+00 -0.810927D+00  0.146636D+00 -0.177109D+00
      2  -0.175111D+00  0.708133D-01  0.294035D+00  0.271111D-01  0.508747D-01
      3  -0.249523D+00 -0.101318D+00  0.514005D+00 -0.411850D-01  0.196702D+00
                36            37            38            39            40 
      1  -0.554431D+00 -0.949007D-01  0.194857D+00 -0.215095D-01  0.106131D+01
      2  -0.264665D+00 -0.624647D+00  0.645362D+00  0.916190D-01  0.563310D+00
      3   0.720338D+00  0.580064D-01 -0.904536D-01  0.111969D+00 -0.682111D-01
                41            42            43            44            45 
      1   0.470879D+00  0.202588D+00  0.653091D-01 -0.213802D+00  0.848901D-01
      2   0.379792D+00  0.100936D+00  0.288479D+00  0.856502D+00 -0.598255D-01
      3  -0.528442D-01  0.123975D+00  0.123380D+00  0.216602D+00  0.912987D-01
                46            47            48            49            50 
      1   0.855304D+00 -0.765927D+00  0.339338D+00  0.177073D+01  0.614858D-02
      2  -0.307098D+00  0.469910D+00 -0.132339D+00  0.330920D+00  0.308104D+00
      3   0.128951D+00 -0.987768D-01  0.935579D-01  0.361656D+00 -0.118482D-01
                51 
      1   0.901161D+00
      2   0.191041D+00
      3   0.499908D+00
 Hessian after L701:
                1             2             3             4             5 
      1  0.447528D+01
      2  0.337135D+01  0.141969D+02
      3  0.599401D+00  0.201317D+01  0.168562D+02
      4  0.664795D+00  0.303580D+00  0.492101D+00  0.806120D+01
      5  0.349880D+00 -0.352002D+00  0.144018D+00 -0.376876D+01  0.743274D+01
      6  0.499305D+00  0.127216D+00 -0.312136D+00 -0.329724D+01 -0.118900D+01
      7 -0.713590D+00  0.714251D+00 -0.221504D+01  0.234366D+00  0.104258D+00
      8  0.630174D+00 -0.869265D+01 -0.279583D+00  0.860802D-01 -0.904336D-01
      9 -0.215521D+01 -0.344161D+00 -0.846101D+01  0.343463D-01  0.599488D-02
     10 -0.129945D+00 -0.257260D+00 -0.260520D+00  0.123218D+00 -0.220892D-01
     11 -0.152351D+00  0.134860D+00  0.252974D+00  0.372053D-02 -0.854053D-01
     12 -0.210304D+00  0.271013D+00  0.798453D-01  0.980125D-02  0.441806D-04
     13 -0.504650D-01  0.319577D+00 -0.329642D+00  0.904854D-01  0.952639D-01
     14  0.255656D+00  0.202422D+00 -0.334608D+00  0.721469D-01 -0.448844D-01
     15 -0.257149D+00 -0.333412D+00  0.200144D+00  0.369448D-02  0.476907D-02
     16 -0.458725D+01 -0.489219D+01  0.171778D+01  0.479037D+00 -0.979979D-01
     17 -0.480719D+01 -0.520452D+01 -0.218484D+01 -0.295042D+00 -0.800863D+00
     18  0.152861D+01 -0.202667D+01 -0.911494D+01 -0.112005D+00 -0.144633D+00
     19  0.195231D+00  0.323447D+00  0.507348D-01 -0.780705D+01  0.326819D+01
     20  0.356856D+00 -0.374844D+00  0.129847D+00  0.345295D+01 -0.237293D+00
     21  0.605231D-01  0.102904D+00  0.303836D+00  0.523437D+00  0.115041D+01
     22 -0.308630D+00  0.205784D-01  0.225581D+00  0.231529D-01  0.102259D-01
     23  0.558040D-02  0.150879D+00  0.687068D-01  0.823726D-02 -0.696148D-02
     24  0.210391D+00  0.830182D-01  0.340848D+00  0.206941D-01  0.772900D-02
     25 -0.380234D-01 -0.276447D-01 -0.335551D-01  0.498226D-01 -0.160188D-01
     26 -0.107111D+00 -0.288926D-01  0.708505D-01 -0.461078D-01 -0.166259D-01
     27 -0.766266D-01  0.525473D-01 -0.485398D-01 -0.126646D-01  0.222782D-02
     28  0.107565D+00 -0.933526D-01  0.274176D-04  0.200633D-01 -0.405179D-02
     29 -0.100680D+00  0.584511D-02  0.188149D-02 -0.926134D-02 -0.612593D-02
     30  0.193081D-01 -0.106778D-01 -0.514056D-01  0.842948D-02 -0.938979D-03
     31  0.754867D-01 -0.271915D-01 -0.102089D+00  0.206817D-01  0.588748D-03
     32 -0.322098D-01 -0.433867D-01  0.222206D-01  0.992470D-04 -0.762311D-02
     33 -0.109867D+00  0.218584D-01  0.369436D-01 -0.148288D-01 -0.155062D-02
     34  0.602731D-02  0.443387D-01 -0.800496D-01  0.152295D-01  0.129399D-01
     35  0.314637D-01 -0.294762D-01 -0.369895D-01  0.628912D-02 -0.808691D-02
     36 -0.924206D-01 -0.683592D-01  0.757383D-01 -0.212478D-01 -0.125838D-01
     37 -0.224941D-01 -0.424151D-01 -0.119262D-01 -0.429335D-02  0.240064D-02
     38  0.205384D-01  0.703012D-02 -0.859040D-01  0.260951D-01  0.159185D-01
     39 -0.271555D-01 -0.361633D-01  0.415952D-01 -0.131891D-03  0.201329D-02
     40  0.842679D-01  0.893502D-01 -0.460871D-01  0.137213D-01  0.129507D-01
     41  0.826105D-01  0.121737D-01 -0.301004D-01  0.102984D-01  0.136214D-02
     42 -0.278756D-01 -0.196518D-01 -0.296825D-01  0.903182D-03  0.921735D-03
     43  0.727591D-01  0.242599D+00 -0.963825D-01  0.684314D-02  0.845964D-01
     44  0.194218D+00  0.208731D-01  0.285222D+00  0.879027D-01  0.976338D-01
     45 -0.568153D-01  0.204338D+00  0.101995D+00  0.151173D-01  0.233199D-01
     46  0.109208D+00 -0.929706D-01  0.551084D-01  0.258197D+00 -0.816586D-01
     47 -0.108166D+00  0.953263D-02 -0.395119D-01 -0.132349D+00 -0.210652D+00
     48  0.581464D-01 -0.383660D-01 -0.199130D-01  0.216617D-01  0.545022D-02
     49  0.597785D-01  0.395208D-02  0.345653D-01 -0.224947D+01  0.492830D-01
     50  0.938034D-02 -0.147860D-01  0.264518D-02  0.194128D+00 -0.568070D+01
     51  0.377399D-01  0.140232D-02  0.484874D-03  0.232793D+01  0.181129D-02
                6             7             8             9            10 
      6  0.133902D+02
      7  0.619163D-01  0.144366D+02
      8  0.128635D-01 -0.329948D+00  0.196133D+02
      9 -0.114971D+00  0.195914D+01  0.473294D+00  0.211270D+02
     10 -0.109783D-01 -0.521651D+01 -0.147060D+01 -0.665709D+00  0.137381D+02
     11 -0.178824D-02 -0.142333D+01 -0.282603D+01  0.144442D+01  0.139955D+01
     12 -0.912949D-01 -0.621987D+00  0.143747D+01 -0.515281D+01  0.675235D+00
     13 -0.200028D-01 -0.611034D+01  0.984376D+00 -0.650435D+00 -0.131705D+00
     14 -0.671610D-02  0.943466D+00 -0.346085D+01 -0.206359D+01 -0.403328D-01
     15 -0.862944D-01 -0.625915D+00 -0.206392D+01 -0.488302D+01 -0.872185D-02
     16 -0.156798D+00  0.201376D+00 -0.499705D-01 -0.126300D+00  0.119018D+00
     17 -0.240088D+00 -0.101177D+00  0.332263D-01  0.383625D-01 -0.260408D+00
     18  0.241290D+00 -0.630091D-01  0.137910D-01  0.758267D-01 -0.812136D-01
     19  0.525630D+00  0.300012D+00 -0.948705D-01 -0.367513D-01  0.135872D+00
     20  0.115599D+01 -0.839700D-01 -0.139187D+00  0.118967D-02 -0.903870D-01
     21 -0.853986D+01  0.207540D-01 -0.124075D-01 -0.145937D+00  0.633259D-02
     22  0.100196D-01 -0.359107D+01  0.240754D+00  0.142751D+01  0.188325D+00
     23  0.265424D-02  0.241002D+00 -0.452207D+01  0.334989D+00  0.215893D-01
     24 -0.221880D-02  0.134970D+01  0.319977D+00 -0.260021D+01  0.403656D-01
     25  0.100651D-03  0.983733D-01  0.297706D-01  0.376262D-02 -0.266671D+01
     26  0.384467D-02 -0.407997D-01 -0.114331D-01 -0.575524D-01  0.137733D+01
     27 -0.265664D-01 -0.185484D-01 -0.402807D-01  0.447445D-01  0.510623D+00
     28  0.320461D-02  0.558049D-01  0.403256D-01  0.314151D-01 -0.289778D+01
     29 -0.725709D-03  0.394602D-01 -0.304398D-01 -0.244827D-01 -0.757374D+00
     30 -0.641791D-02  0.389653D-01 -0.376194D-01  0.965228D-01  0.838149D+00
     31 -0.883164D-02  0.326620D-01  0.742353D-01  0.954175D-01 -0.324840D+01
     32 -0.917633D-03  0.855413D-01  0.587673D-01 -0.116987D+00  0.122170D+00
     33 -0.237855D-02  0.619781D-01 -0.775676D-01  0.201923D-01 -0.104307D+01
     34 -0.100210D-01  0.830711D-01 -0.287709D-01  0.565179D-01  0.909986D-02
     35 -0.978329D-03 -0.223492D-01  0.262997D-01  0.167311D+00  0.300990D-01
     36  0.692664D-03  0.296693D-01  0.122405D+00 -0.363476D-01 -0.241110D-01
     37 -0.276082D-02  0.116119D+00 -0.119434D-01 -0.286325D-01 -0.238916D-01
     38 -0.496502D-02  0.837123D-01 -0.268894D-01  0.640766D-01 -0.862214D-01
     39 -0.122841D-01 -0.595196D-01  0.740988D-01  0.881173D-01  0.564246D-02
     40 -0.236721D-02  0.232265D-02 -0.337043D-01  0.684485D-01 -0.136461D-01
     41 -0.933655D-03 -0.683285D-01  0.336679D-01  0.457633D-01  0.453765D-01
     42 -0.582593D-02  0.743404D-01  0.480239D-01  0.166636D-01  0.335305D-02
     43  0.291105D-01  0.247232D-01 -0.573949D-01 -0.871499D-02 -0.173277D-01
     44  0.485378D-01 -0.124139D+00  0.414171D-01  0.292729D-01  0.246305D-02
     45 -0.235708D-01 -0.946484D-02  0.946258D-02 -0.566754D-01  0.412014D-02
     46  0.171918D-01  0.260610D-01 -0.120560D-01 -0.350885D-02  0.104257D-01
     47  0.281337D-02 -0.195064D-01 -0.229018D-02  0.192025D-02 -0.126664D-01
     48  0.184890D+00  0.646569D-02 -0.132324D-02 -0.118880D-01  0.193234D-02
     49  0.236252D+01  0.200355D-01  0.354453D-02 -0.129729D-02  0.218369D-01
     50  0.921929D-01  0.185901D-02 -0.441304D-02  0.174165D-03 -0.123329D-02
     51 -0.459325D+01  0.105491D-01  0.132113D-02 -0.622645D-02  0.857212D-02
               11            12            13            14            15 
     11  0.125084D+02
     12 -0.910416D+00  0.145423D+02
     13 -0.981327D-01  0.124901D-01  0.144873D+02
     14  0.260522D+00 -0.114856D+00 -0.717551D+00  0.130142D+02
     15  0.591722D-02 -0.137121D+00  0.900841D+00  0.128016D+01  0.150130D+02
     16 -0.238495D+00 -0.857959D-01  0.110073D+00 -0.963172D-01 -0.528055D-01
     17  0.323337D-01  0.631374D-01  0.663804D-01 -0.141583D+00 -0.494370D-01
     18  0.609518D-01 -0.154784D+00 -0.906846D-01 -0.754337D-02 -0.104103D+00
     19 -0.796410D-01  0.848770D-02  0.247060D+00  0.369948D-01 -0.200716D-01
     20 -0.486277D-01 -0.456934D-02  0.687344D-01 -0.121309D+00 -0.582945D-02
     21 -0.535132D-02 -0.768471D-01 -0.257144D-01 -0.119278D-01 -0.112464D+00
     22 -0.247584D-02  0.154254D-01  0.242021D+00  0.254300D-01 -0.331039D-01
     23 -0.645671D-01 -0.207126D+00  0.584501D-02  0.133154D+00  0.200910D+00
     24 -0.233766D+00 -0.244098D-02  0.190601D-01  0.224843D+00 -0.189698D+00
     25  0.111420D+01  0.410964D+00 -0.259789D-01  0.343694D-01  0.787494D-02
     26 -0.296784D+01  0.373593D+00  0.304878D-01  0.876453D-01  0.991723D-02
     27  0.376746D+00 -0.385967D+01  0.199526D-02  0.719171D-02 -0.348116D-01
     28 -0.748672D+00  0.914403D+00 -0.188145D-01 -0.604897D-01  0.208851D-01
     29 -0.323656D+01 -0.756099D+00 -0.489804D-01  0.921958D-01 -0.480040D-01
     30 -0.686830D+00 -0.306309D+01  0.237045D-01 -0.557242D-01 -0.222724D-01
     31  0.215485D+00 -0.113709D+01 -0.109715D-01 -0.189562D-01 -0.165853D-01
     32 -0.390620D+01 -0.183147D+00 -0.384564D-02  0.370293D-03  0.901381D-02
     33 -0.329991D+00 -0.197518D+01 -0.207804D-01  0.371563D-01  0.367830D-02
     34  0.139239D-01 -0.949145D-02 -0.396071D+01 -0.743944D-01 -0.160891D+00
     35 -0.359065D-01  0.524366D-01 -0.358296D-01 -0.387324D+01  0.543848D+00
     36  0.363265D-01 -0.168385D-02 -0.621836D-01  0.727775D+00 -0.149351D+01
     37 -0.829740D-01  0.537197D-02 -0.303169D+01 -0.129691D+01 -0.151992D+00
     38  0.168327D+00 -0.423980D-02 -0.162516D+01 -0.284495D+01  0.231100D+00
     39 -0.975859D-02 -0.562670D-01 -0.882150D-01  0.134194D+00 -0.434211D+01
     40  0.591873D-01 -0.407262D-02 -0.185147D+01  0.961470D+00  0.342446D+00
     41  0.883501D-01 -0.783308D-02  0.101848D+01 -0.333105D+01  0.214016D+00
     42  0.276269D-02 -0.380631D-01  0.295093D+00  0.178558D+00 -0.378090D+01
     43  0.190614D-01  0.569933D-02 -0.324866D-01 -0.211642D-01  0.377078D-01
     44 -0.138107D-01 -0.612561D-02 -0.534684D-01  0.361698D-01  0.426390D-02
     45 -0.486507D-02 -0.599055D-02  0.242784D-01  0.703071D-02 -0.197994D-01
     46 -0.391427D-02  0.355745D-02  0.275540D-01 -0.674770D-02  0.518020D-02
     47 -0.311405D-02 -0.294376D-02 -0.113584D-01 -0.564279D-02 -0.400711D-02
     48 -0.527747D-04 -0.521533D-02  0.233462D-02 -0.162673D-02 -0.980229D-02
     49  0.486710D-02  0.730485D-02  0.201683D-01  0.332661D-02  0.860578D-02
     50 -0.468951D-02 -0.335712D-03  0.518235D-02 -0.318790D-02  0.697206D-03
     51  0.272089D-02 -0.173054D-02  0.786068D-02 -0.319936D-03 -0.883616D-03
               16            17            18            19            20 
     16  0.106180D+02
     17  0.213642D+01  0.167104D+02
     18 -0.585142D+01  0.113310D+01  0.257095D+02
     19 -0.237254D+01  0.210613D+01  0.478274D+01  0.126722D+02
     20  0.174221D+01 -0.926702D+01  0.738593D+00 -0.370814D+01  0.128757D+02
     21  0.463029D+01  0.893707D+00 -0.120550D+02 -0.539047D+01 -0.125002D+01
     22  0.795464D-01 -0.273996D-02  0.271096D-01  0.195121D-02  0.609653D-02
     23  0.752242D-02 -0.271991D-01  0.842076D-03  0.415237D-02 -0.584699D-02
     24  0.519966D-01 -0.226764D-03  0.339690D-02  0.867179D-02  0.181930D-02
     25 -0.167417D-01  0.123774D-02 -0.708964D-03 -0.394164D-02 -0.614102D-02
     26 -0.176270D-01  0.264945D-01  0.175628D-01 -0.274186D-01  0.492229D-02
     27 -0.851965D-02  0.163928D-01 -0.675732D-02 -0.822305D-02  0.529555D-02
     28  0.130861D-01 -0.154747D-01  0.108025D-02  0.145273D-01 -0.794622D-02
     29 -0.145536D-01  0.110738D-02 -0.775089D-03 -0.119018D-01 -0.188691D-02
     30  0.657338D-02 -0.407763D-02 -0.786875D-02  0.737262D-02 -0.276430D-02
     31  0.121914D-01 -0.103192D-01 -0.101799D-01  0.129836D-01 -0.433801D-02
     32 -0.437954D-02 -0.647625D-02 -0.229504D-03 -0.235390D-02 -0.605269D-02
     33 -0.171574D-01  0.693134D-02 -0.476877D-03 -0.150782D-01  0.242093D-02
     34  0.282481D-01  0.215330D-02 -0.458259D-01  0.590000D-02  0.374154D-02
     35 -0.331705D-02 -0.282771D-01  0.598703D-02 -0.468807D-02 -0.901036D-02
     36 -0.586831D-01 -0.236166D-02  0.275414D-01 -0.250401D-01 -0.508714D-02
     37 -0.983926D-01  0.325546D-01  0.425370D-01  0.455243D-01  0.376954D-01
     38  0.844775D-01  0.304951D-01 -0.199037D-01  0.846731D-01  0.137238D-02
     39  0.219403D-01 -0.129702D-01 -0.896808D-01  0.727278D-02  0.420645D-02
     40  0.883215D-01  0.306847D-01 -0.142575D-01  0.270675D-01  0.105333D-01
     41  0.373818D-01 -0.190194D-01 -0.538746D-02  0.116027D-01 -0.389021D-02
     42 -0.138983D-01 -0.110023D-02 -0.238326D-01  0.141818D-02  0.397842D-03
     43 -0.446478D+01  0.699787D+00  0.927546D-03  0.128885D-01 -0.346233D+00
     44  0.968867D+00 -0.164432D+01  0.565478D-01 -0.432081D+00 -0.653847D-02
     45  0.476162D-01  0.169866D+00 -0.475709D+01 -0.270264D+00 -0.233527D+00
     46 -0.413201D+00  0.264723D+00 -0.259029D+00 -0.331352D+01 -0.138081D+01
     47  0.302297D+00  0.312011D+00  0.107135D+00 -0.130933D+01 -0.274561D+01
     48 -0.251334D+00  0.945614D-01  0.258943D+00  0.477067D+00 -0.523996D+00
     49  0.204011D+00  0.152284D+00  0.145327D+00 -0.174155D+00 -0.508511D-01
     50  0.135683D+00 -0.681971D-02  0.706370D-01 -0.164774D+00  0.850762D-01
     51  0.146527D+00  0.790403D-01 -0.200699D-02 -0.103501D+00 -0.139612D-01
               21            22            23            24            25 
     21  0.247692D+02
     22 -0.351365D-02  0.333687D+01
     23  0.145602D-02 -0.275064D+00  0.441241D+01
     24 -0.247351D-02 -0.178276D+01 -0.503128D+00  0.224671D+01
     25 -0.174769D-02 -0.106731D-01  0.274538D-01  0.289539D-01  0.285095D+01
     26  0.981549D-03  0.406516D-01  0.386042D-01  0.668586D-01 -0.102507D+01
     27 -0.117760D-01  0.305783D-01  0.499380D-01  0.237730D-01 -0.389933D+00
     28  0.390048D-02  0.131692D-01  0.231260D-01  0.748044D-02 -0.126741D+00
     29 -0.250578D-02  0.252645D-01 -0.467949D-01 -0.278112D-01 -0.236425D-01
     30 -0.298879D-02  0.829853D-02 -0.313418D-01  0.892303D-02 -0.119720D+00
     31 -0.418174D-02 -0.255059D-01 -0.120549D-01 -0.282340D-01 -0.103773D+00
     32  0.214588D-03 -0.455369D-02 -0.547085D-02  0.454228D-01 -0.121850D+00
     33 -0.354970D-02 -0.481290D-02  0.434784D-01  0.749640D-01  0.104357D+00
     34 -0.563131D-02 -0.344691D-01 -0.182757D-02  0.103478D-01 -0.733290D-02
     35  0.152953D-02 -0.676370D-02 -0.309601D-01 -0.373456D-01  0.742148D-02
     36 -0.129250D-03  0.364054D-01 -0.317040D-01  0.146741D+00 -0.887763D-02
     37  0.858608D-02  0.111753D-01  0.673718D-02 -0.199407D-02 -0.177981D-02
     38  0.626377D-02  0.527372D-02 -0.460376D-02  0.109995D-01  0.551493D-02
     39 -0.405501D-01 -0.981792D-02  0.133438D-01 -0.497374D-02 -0.208473D-03
     40  0.287968D-02  0.243737D-01 -0.316656D-01  0.314189D-01  0.399320D-02
     41  0.479971D-03 -0.282205D-01 -0.244700D-01  0.708956D-01  0.443666D-02
     42 -0.630953D-02  0.285949D-01  0.660089D-01 -0.364497D-01  0.114507D-02
     43 -0.228956D+00  0.377303D-01 -0.313250D-01  0.226242D-01 -0.129445D-03
     44 -0.259818D+00 -0.504627D-01  0.537590D-02 -0.259032D-01 -0.251543D-02
     45  0.186517D+00  0.182248D-01 -0.957931D-02 -0.104934D-01 -0.135150D-02
     46  0.510927D+00  0.638812D-02 -0.600367D-03  0.568748D-02  0.786238D-03
     47 -0.534593D+00 -0.455381D-02 -0.110301D-02 -0.371375D-02 -0.145325D-02
     48 -0.429628D+01  0.307632D-02 -0.110563D-03  0.106759D-02 -0.331312D-03
     49 -0.107411D+00  0.563707D-02  0.129205D-02  0.559130D-02 -0.209808D-02
     50 -0.813146D-01  0.559944D-03 -0.370908D-03  0.332549D-03 -0.610342D-04
     51  0.346403D-01  0.318395D-02  0.662304D-03  0.252608D-02 -0.724922D-03
               26            27            28            29            30 
     26  0.269208D+01
     27 -0.522991D+00  0.385248D+01
     28 -0.235821D-01 -0.146320D+00  0.266709D+01
     29  0.103852D+00 -0.249781D-01  0.904548D+00  0.303538D+01
     30 -0.225427D-01  0.776132D-02 -0.811536D+00  0.737434D+00  0.324110D+01
     31 -0.154503D+00  0.123733D+00  0.149166D+00  0.297960D-02 -0.261946D-01
[...]
   xx         0.701428D+02      0.103941D+02      0.115650D+02
   yx        -0.138905D+02     -0.205836D+01     -0.229023D+01
   yy         0.742480D+02      0.110024D+02      0.122418D+02
   zx        -0.505807D+01     -0.749528D+00     -0.833963D+00
   zy         0.915523D+01      0.135666D+01      0.150949D+01
   zz         0.645045D+02      0.955857D+01      0.106353D+02

 ----------------------------------------------------------------------

 Test job not archived.
 1\1\GINC-C0318\Freq\RM062X\CC-pVTZ\C5H10O2\HARMS.N\29-Sep-2019\0\\#P G
 eom=AllCheck Guess=TCheck SCRF=Check Test GenChk RM062X/CC-pVTZ Freq\\
 Gaussian input prepared by ASE\\0,1\O,2.8614224262,-3.0984560299,0.137
 3555272\O,0.669057897,-1.5037169528,-0.5266635711\C,3.5780158259,-3.76
 91541026,1.1725086083\C,3.7011725905,-5.2143516405,0.7410527257\C,2.85
 66126053,-3.6182149357,2.5003816429\C,2.8948633699,-1.7420887645,0.210
 2255152\C,1.8653655991,-0.9800353013,-0.1301464785\H,4.5765394253,-3.3
 18760814,1.2443848316\H,2.7077826604,-5.6513180358,0.6386004548\H,4.20
 96792505,-5.2838427032,-0.2187920356\H,4.2600583057,-5.7863808867,1.48
 08330621\H,1.8609939717,-4.056776166,2.4267758041\H,2.7495647293,-2.56
 69247489,2.7665529449\H,3.4064892424,-4.1229623569,3.2946201629\H,3.82
 77432673,-1.2852729348,0.5233154933\H,1.9692594974,0.0963400232,-0.119
 0320272\H,0.0647695779,-0.7912336652,-0.7372950475\\Version=EM64L-G16R
 evA.03\State=1-A\HF=-346.9414281\RMSD=1.779e-09\RMSF=3.166e-07\ZeroPoi
 nt=0.1467832\Thermal=0.1556428\Dipole=0.1249105,0.6288483,0.3725958\Di
 poleDeriv=-0.5304663,0.2374545,-0.1949108,0.5941751,-1.5684908,0.47626
 7,-0.1267473,0.1991597,-0.5335413,-1.3008405,0.2596387,-0.4010691,-0.3
 7072,-0.1787502,-0.1462823,-0.3290498,0.0842395,-0.4745026,0.5588979,-
 0.3279611,0.1401524,-0.1954038,0.6948388,-0.2035437,0.1516562,-0.35137
 59,0.6881237,0.0666738,0.0240298,0.0109047,0.0288222,-0.0832644,-0.014
 2849,0.014473,-0.0421975,0.0217428,0.0069439,0.0511079,0.0966153,0.029
 8229,-0.0163007,-0.0534235,0.0359058,0.0510507,-0.1337848,0.0254769,0.
 0278568,0.0055409,-0.3461757,1.1556657,-0.2791078,-0.0180802,0.1113636
 ,-0.1906146,1.0513259,-0.1291078,0.4714511,0.3751603,-0.0667545,0.1792
 317,0.3775999,-0.0336176,0.0130928,-0.162666,-0.0270994,-0.0165038,-0.
 1083049,-0.0696379,-0.0090734,0.0113712,0.0448548,-0.0300148,-0.080288
 4,-0.0875627,-0.0118632,-0.0171325,0.0246092,-0.0105614,0.007287,-0.01
 89094,0.0654353,0.0312882,0.0086738,0.0773363,-0.0036813,0.0402046,-0.
 0084329,0.0857311,-0.0519739,-0.074369,0.0198358,0.0588982,-0.0641973,
 0.0450468,-0.0140529,0.0432278,-0.0795081,0.0806212,-0.0305767,-0.0687
 291,-0.059647,0.0227112,-0.0648136,0.0309779,0.0021106,-0.0357483,-0.0
 333904,0.0444604,0.0472892,0.0103163,0.0303064,0.0234413,-0.1017938,-0
 .0664292,0.0322348,-0.0483728,0.0526934,0.0096811,0.0488868,-0.0791516
 ,0.0495375,0.0241937,0.0874268,-0.0567303,0.0829971,-0.0423051,-0.0480
 837,-0.0605237,-0.0520354,0.0008757,-0.0214382,0.0105512,-0.0306833,-0
 .0800004,0.1438113,0.0109941,-0.0098373,-0.0541341,-0.0371718,-0.07186
 08,-0.0037964,-0.0497137,0.0159856,0.1349065,0.362667,-0.0251239,0.018
 8467,-0.0034782,0.2218544,-0.0038797,0.0100019,-0.0104343,0.3454427\Po
 lar=70.6462742,-12.3010315,77.4918419,7.0932503,-7.3391736,60.7571381\
 Quadrupole=0.3723945,3.3462519,-3.7186464,-3.7731262,1.7800471,-2.5178
 371\PG=C01 [X(C5H10O2)]\NImag=0\\0.19029570,-0.04687979,0.52635623,0.1
 3185065,-0.05644120,0.24863079,0.00176156,0.01604751,0.00355120,0.5578
 9404,-0.00260818,0.01298778,0.00031976,-0.14234181,0.46207224,0.002802
 92,0.00617847,-0.00679148,0.18404554,-0.05291768,0.07767057,-0.1096883
 9,0.02843771,-0.06465655,0.00442053,0.00267444,0.00230391,0.57343113,0
 .01265087,-0.09717556,0.02063912,-0.00380159,-0.00093236,-0.00073944,0
 .05232626,0.54859843,-0.06658255,0.04369903,-0.14820885,0.00354463,0.0
 0123675,0.00110621,-0.00791492,0.02892930,0.47551926,-0.00313623,0.028
 56910,-0.00080167,-0.00015012,-0.00030888,-0.00004526,-0.08131972,-0.0
 0400174,0.00270650,0.58433738,0.00763676,-0.03076154,0.00307106,0.0000
 6338,-0.00002136,0.00006449,0.00540932,-0.19617120,-0.03884216,0.00056
 270,0.50265145,-0.00606049,0.03687305,0.00241488,-0.00064071,-0.000352
 16,-0.00024182,0.00552070,-0.05059874,-0.09122158,0.00090262,-0.028104
 03,0.58850040,0.00912282,0.00564563,-0.02474177,-0.00068462,-0.0005774
 8,-0.00023416,-0.11729569,0.00511809,0.06302089,-0.00166733,0.00160906
 ,0.00447297,0.55965276,-0.00299618,-0.00326978,0.02490949,-0.00000558,
 -0.00003475,0.00030478,0.00512777,-0.08384171,-0.01724332,0.01779615,-
 0.00466857,-0.03292992,-0.00026976,0.58683275,0.00303965,0.01060418,-0
 .04030637,-0.00105978,-0.00051620,-0.00022099,0.05439494,-0.01405917,-
 0.15851768,0.00811034,-0.00774652,-0.01088892,0.04567097,-0.00787924,0
 .50882784,-0.08162717,-0.02079220,-0.02948482,-0.05372592,0.01679899,-
 0.02181017,-0.00496131,0.02539621,0.00366219,-0.00284016,0.00237150,-0
 .00428851,0.00068294,-0.00116294,-0.00017882,0.77524530,-0.00216894,-0
 .31901290,-0.00416372,-0.03220868,0.01202851,-0.01301208,0.01420801,-0
 .04585662,0.01594074,-0.00018546,-0.00080555,0.00142159,-0.00383120,0.
 00421422,-0.00229881,-0.12328353,0.70899384,-0.02843161,-0.03227769,-0
 .06635755,-0.02379877,0.00471649,0.00498577,0.00354455,0.03016064,-0.0
 0001828,-0.00184544,0.00122972,-0.00295631,-0.00210263,0.00295910,-0.0
 0252343,0.23740162,-0.04480527,0.21364803,0.00957007,-0.00729682,0.000
 70976,-0.27454428,-0.05316561,-0.08187414,-0.00304521,-0.00082848,-0.0
 0232729,0.00111871,-0.00041098,0.00112672,0.00083375,0.00053192,0.0014
 2601,-0.37369366,0.22416322,-0.10732267,0.74541599,0.04004784,-0.06246
 082,0.01235234,-0.09908719,-0.14467373,-0.03157482,-0.00776880,0.00084
 078,-0.00807603,0.00141995,-0.00051179,0.00209053,0.00125178,-0.000364
 17,0.00084503,0.19840437,-0.24937651,0.06935931,-0.13681170,0.77819375
 ,0.00144939,-0.00811650,0.01231601,-0.08089979,-0.01733909,-0.05974609
 ,-0.00303982,0.00120953,-0.00231023,0.00033616,-0.00013056,0.00038126,
 0.00033464,-0.00050090,0.00052676,-0.10937537,0.08127294,-0.09215994,0
 .21287519,-0.05329374,0.18512911,-0.02237955,0.00367006,-0.01501937,0.
 00013719,-0.00014032,-0.00010435,-0.24652368,-0.09286372,-0.00646910,0
 .00448227,0.00104903,0.00094509,-0.01464345,-0.00800448,0.00159305,0.0
 0047455,-0.00545521,-0.00005703,0.00022868,0.00118043,0.00024024,0.275
 80287,0.01882154,0.00170870,0.00686196,0.00007413,-0.00009188,-0.00021
 601,-0.09625650,-0.09642893,-0.00636435,-0.02922950,-0.01474235,-0.002
 22270,0.00346481,0.00242080,-0.00127343,0.00410610,0.00439506,0.001151
 65,-0.00012544,-0.00012613,0.00007122,0.09801041,0.10488058,-0.0335671
 6,-0.00020249,-0.01213600,-0.00022028,-0.00002047,0.00005478,-0.004119
 90,-0.00352713,-0.04914436,-0.00807357,-0.00554375,-0.00007952,0.02855
 964,0.01219482,0.00082860,-0.00055100,-0.00551254,0.00010678,0.0001980
 3,0.00062431,-0.00004091,0.01579378,0.00333412,0.06250087,0.00091280,-
 0.00066298,0.00068027,0.00014054,0.00006466,0.00006068,0.00092452,0.00
 074374,-0.00002698,-0.27370145,-0.09765050,-0.02204860,0.00109383,0.00
 050181,-0.00007686,0.00039658,0.00044050,0.00015610,-0.00017273,-0.000
 17100,-0.00006448,0.00125850,0.00080345,0.00010332,0.29490673,0.000187
 03,0.00310583,-0.00037477,0.00016152,0.00005710,0.00003823,-0.03307561
 ,-0.01637056,-0.00412472,-0.09524830,-0.08718385,-0.00940269,-0.000887
 40,0.00140637,0.00147452,0.00000114,-0.00038826,0.00004415,-0.00003217
 ,0.00013647,0.00002819,0.00144510,-0.00575985,-0.00174053,0.10700647,0
 .09667222,0.00063827,0.00058012,0.00024823,0.00005295,-0.00002023,-0.0
 0002813,-0.01017617,-0.00391447,-0.00225913,-0.02131495,-0.00997696,-0
 .04980247,-0.00125397,0.00019233,0.00027964,0.00003300,0.00022262,-0.0
 0011033,0.00002779,-0.00002460,0.00002102,0.00041430,-0.00197828,0.000
 15526,0.02416291,0.01331442,0.04956279,-0.00002070,-0.00039698,-0.0002
 2266,0.00004144,0.00001196,-0.00004401,-0.00208214,-0.00020217,0.00092
 966,-0.10837260,0.00666901,0.11337620,0.00059973,0.00081629,-0.0001011
 9,0.00000529,0.00025998,-0.00015337,-0.00000941,-0.00010853,-0.0000019
 1,0.00036976,0.00045409,-0.00054445,-0.01263038,0.00231020,0.02645525,
 0.11253929,-0.00124705,0.00297660,0.00047898,-0.00016801,-0.00006140,-
 0.00002125,0.01700809,-0.00193869,-0.03089844,0.00559488,-0.04791260,-
 0.01064184,0.00012900,-0.00664400,-0.00031556,-0.00025047,-0.00031764,
 0.00006211,0.00010724,0.00028932,0.00003552,-0.00039189,0.00147843,0.0
 0047748,-0.00498275,0.00006618,0.01184828,-0.00717342,0.05152351,-0.00
 040020,0.00062112,0.00130078,0.00007539,0.00002077,0.00004211,0.003895
 25,0.00091503,-0.00976318,0.11364867,-0.01399313,-0.25932137,-0.000587
 04,-0.00272535,0.00047057,-0.00006338,-0.00001423,0.00031078,-0.000121
 02,-0.00000023,0.00001697,-0.00041200,-0.00012194,0.00022809,-0.002218
 48,0.00061738,0.00400738,-0.12439827,0.01640029,0.27993272,0.00100513,
 0.00084714,0.00024348,-0.00009189,-0.00000014,-0.00004636,-0.00302550,
 -0.00089051,-0.00121072,-0.11850153,0.07342834,-0.09493897,-0.00006421
 ,-0.00017990,-0.00027015,0.00042302,-0.00030259,-0.00013159,0.00003787
 ,0.00005582,0.00003564,0.00013962,0.00032634,0.00029239,-0.01340151,0.
 01664644,-0.01961933,0.00867639,-0.00955679,0.01011498,0.12459019,0.00
 051783,-0.00934443,-0.00131934,0.00041083,0.00020680,0.00014653,0.0162
 2745,-0.01012205,0.02373141,0.07214237,-0.12127009,0.09381820,-0.00002
 951,0.00106818,0.00068623,0.00169908,0.00069220,0.00096524,-0.00061220
 ,-0.00094634,-0.00017533,-0.00095001,0.00079400,0.00017237,-0.00606203
 ,0.00743253,-0.01016647,-0.00232957,0.00068875,-0.00192537,-0.08065418
 ,0.13095570,0.00052623,-0.00209218,0.00075289,-0.00006191,0.00001681,0
 .00003411,0.00589160,-0.00410160,0.00515088,-0.09591140,0.09674998,-0.
 17375189,-0.00000156,0.00003124,-0.00011269,0.00024000,-0.00069600,0.0
 0068009,-0.00004900,-0.00003872,-0.00001808,-0.00011317,0.00064528,0.0
 0030023,-0.00021054,0.00036914,-0.00199154,-0.01564986,0.01438536,-0.0
 1709360,0.10496290,-0.10494652,0.18592961,0.00262579,-0.00000028,-0.00
 056230,0.00012557,0.00004026,0.00001527,-0.01875142,-0.00687736,-0.001
 50403,0.00066792,-0.00052274,-0.00096870,-0.26955964,-0.09921938,-0.01
 862434,-0.00019005,0.00005211,0.00027432,-0.00023287,-0.00008070,0.000
 04037,-0.00013990,0.00069830,0.00322948,0.00020936,0.00083831,0.000443
 50,0.00049187,0.00010779,-0.00005111,-0.00005315,-0.00002501,0.0001032
 2,0.29347797,0.00008715,-0.00014030,0.00009135,0.00054559,0.00024751,0
 .00002362,0.00293842,0.00053436,0.00087492,0.00116370,0.00069906,0.000
 28787,-0.09978882,-0.09215459,-0.00881162,-0.00007376,-0.00035863,0.00
 002428,-0.00055664,-0.00018621,-0.00003536,0.00050803,0.00076662,-0.00
 071523,-0.00011265,0.00023719,-0.00028377,-0.00008106,-0.00006299,0.00
 010128,0.00009693,-0.00003327,0.00007546,0.10924263,0.09516128,-0.0013
 2481,-0.00125892,0.00299288,0.00004224,-0.00004330,0.00005710,0.030390
 76,0.01245360,0.00050508,-0.00002286,0.00150588,0.00138238,-0.02086301
 ,-0.00891803,-0.04771218,-0.00007279,0.00058101,0.00008176,0.00005289,
 -0.00006449,-0.00002467,0.00286216,-0.00068357,-0.00513124,-0.00049253
 ,-0.00058327,-0.00006647,-0.00032190,0.00014419,0.00008848,-0.00009193
 ,-0.00011036,0.00000608,0.01754236,0.01058749,0.05073073,-0.00002034,-
 0.00047403,-0.00138500,-0.00031885,-0.00005207,-0.00006562,-0.00249258
 ,0.01777693,0.00279679,-0.00120314,-0.00063314,0.00299076,-0.05004594,
 0.02297973,0.00615675,0.00063360,-0.00012237,0.00012074,-0.00003730,-0
 .00007325,0.00006011,0.00033566,0.00013748,-0.00082746,0.00020898,0.00
 031664,0.00024603,0.00042931,0.00102176,0.00054594,0.00005722,-0.00041
 350,0.00001029,0.00420450,-0.02903653,-0.00683122,0.05061491,-0.000131
 51,0.00054133,-0.00059262,0.00012600,0.00007347,-0.00014762,0.00008712
 ,-0.00275661,0.00012427,0.00095772,0.00105227,-0.00076177,0.02358534,-
 0.30010861,-0.06302003,0.00006503,-0.00043413,0.00106503,-0.00038317,0
 .00001640,0.00032339,0.00035847,0.00049558,-0.00043816,0.00004746,0.00
 022153,0.00023758,-0.00000292,-0.00020427,-0.00000240,-0.00016184,0.00
 014616,0.00011980,0.00177677,-0.01127084,-0.00222473,-0.02670211,0.324
 91046,-0.00044257,0.00066378,0.00271859,0.00071151,0.00011321,0.000211
 65,0.00154831,-0.03081413,-0.00705247,0.00301553,0.00111290,-0.0053393
 7,0.00559767,-0.06070946,-0.06172093,0.00011031,-0.00028902,-0.0007237
 2,-0.00096560,0.00052393,-0.00025557,-0.00047558,0.00072078,0.00109062
 ,-0.00000405,0.00030208,0.00006552,0.00034566,-0.00185678,-0.00046801,
 0.00017825,-0.00002990,0.00025248,0.00021388,-0.00207117,-0.00157942,-
 0.00900501,0.06869637,0.06652682,0.00052816,-0.00082672,0.00502528,0.0
 0017012,0.00013473,0.00001903,0.00819811,-0.00808220,0.00962840,0.0001
 2233,0.00002404,-0.00036772,-0.11772054,0.06436455,-0.10007141,-0.0000
 6021,0.00084578,0.00025797,-0.00011971,-0.00033938,-0.00014371,0.00021
 547,-0.00031031,-0.00105925,0.00000737,0.00012315,-0.00005091,0.000015
 69,-0.00025838,-0.00005674,0.00020434,0.00009094,0.00021538,-0.0128717
 5,0.01496586,-0.02079299,-0.00219456,0.00042482,-0.00105996,0.12348016
 ,0.00013381,0.00090825,-0.00106430,0.00022894,0.00004019,-0.00002074,-
 0.00220861,-0.00056699,-0.00271998,0.00001361,-0.00015767,-0.00002846,
 0.06409040,-0.10456163,0.09187063,0.00022793,0.00000848,0.00027569,-0.
 00053062,0.00021627,-0.00000119,-0.00023476,0.00007787,0.00024182,-0.0
 0010020,0.00000902,-0.00006102,-0.00015239,0.00006170,0.00011370,0.000
 21729,-0.00002842,-0.00053403,-0.00615206,0.00641405,-0.01116779,0.015
 46171,-0.01270078,0.02338893,-0.07111254,0.11025149,0.00270122,0.00244
 484,-0.00806502,-0.00047371,-0.00019280,-0.00026212,-0.01840121,0.0132
 8077,-0.01552948,-0.00079370,0.00046060,0.00090617,-0.09823011,0.09047
 499,-0.18894599,0.00014659,-0.00310936,-0.00006604,0.00013230,0.000713
 50,0.00036372,0.00062746,0.00023377,0.00095195,0.00007990,-0.00001441,
 -0.00007114,0.00028017,0.00002208,0.00036793,0.00046654,-0.00080656,-0
 .00006071,-0.00013965,-0.00006021,-0.00130265,0.00505239,-0.00344969,0
 .00661159,0.10844962,-0.10025112,0.20503082,0.00303591,-0.00439407,0.0
 0011905,-0.00001614,0.00421294,-0.00320064,0.00248961,0.00210025,-0.00
 069117,0.00040998,0.00021551,0.00032698,-0.00024872,-0.00034462,-0.000
 18059,-0.26521864,-0.09209023,-0.07938220,-0.01553336,-0.01367696,-0.0
 0436407,0.00022631,-0.00098223,0.00078122,-0.00015363,0.00020300,-0.00
 004510,-0.00003444,0.00005496,0.00002598,0.00000025,-0.00013005,-0.000
 01564,-0.00001974,0.00010343,-0.00000414,-0.00020681,0.00001536,0.0003
 1809,-0.00000303,0.00014228,0.00008616,0.27639841,-0.02702136,-0.02868
 779,-0.00745179,0.00278453,-0.00277855,0.00119308,-0.00548756,0.002434
 97,-0.00512127,0.00057329,-0.00007936,0.00026994,0.00054645,-0.0002376
 4,0.00050321,-0.09321257,-0.09706746,-0.03154290,0.01451166,0.01157091
 ,0.00426236,0.00166007,0.00024703,0.00050184,0.00014203,0.00031706,0.0
 0004081,-0.00007238,0.00004315,-0.00001078,0.00012855,-0.00015091,0.00
 004340,0.00011795,0.00009450,-0.00020646,-0.00016417,0.00000887,0.0001
 7571,-0.00004764,0.00001720,0.00024912,0.10447368,0.11373584,-0.003203
 01,-0.00360131,0.00209729,-0.00123581,0.00226428,0.00744319,0.00163699
 ,0.00136631,0.00044347,0.00011776,0.00010979,0.00003829,0.00011625,0.0
 0004234,0.00011170,-0.07807679,-0.03026745,-0.05648511,-0.00555415,-0.
 00645370,-0.00169859,0.00019493,-0.00035188,0.00047850,-0.00009801,0.0
 0007636,-0.00003412,0.00000779,-0.00005867,-0.00006156,-0.00000537,-0.
 00005100,-0.00000557,-0.00000955,-0.00011464,-0.00003955,0.00019093,0.
 00000050,-0.00027191,-0.00001728,-0.00006685,0.00004955,0.08562606,0.0
 3692733,0.05061348,-0.00314066,0.00133864,-0.00582991,-0.01147900,-0.0
 3311530,-0.00399978,0.00041984,0.00085852,0.00111925,-0.00032289,0.000
 19248,-0.00044965,-0.00013714,0.00008563,0.00001542,0.00783203,0.02342
 296,0.00248524,-0.05754671,-0.01659913,-0.00822327,-0.00011475,-0.0000
 0399,-0.00007788,0.00002252,-0.00001575,-0.00000169,-0.00000302,-0.000
 01881,0.00001228,-0.00001587,0.00018377,0.00004945,0.00002250,0.000004
 04,-0.00001949,0.00003813,-0.00005685,-0.00000441,0.00002630,0.0000033
 5,-0.00006145,-0.00060656,0.00019458,0.00130675,0.06218080,0.00246378,
 0.00095611,0.00239774,-0.00589561,-0.00622594,-0.00147920,0.00000696,-
 0.00025611,-0.00120355,0.00017700,-0.00013221,0.00030773,-0.00002009,-
 0.00005514,-0.00000357,-0.00623747,-0.01367006,-0.00184703,-0.01710158
 ,-0.34343457,-0.00023008,0.00011088,-0.00004774,0.00009208,-0.00001185
 ,0.00002818,-0.00001160,-0.00000498,0.00002363,-0.00000166,0.00000419,
 -0.00010644,-0.00002071,-0.00000608,0.00003185,-0.00000994,-0.00000938
 ,0.00000292,0.00002039,0.00000075,-0.00000483,0.00002564,0.00074532,0.
 00022449,0.00026298,0.02606452,0.36163062,-0.00378082,0.00299579,0.008
 53561,-0.00508214,-0.01127765,0.00119244,-0.00061924,-0.00126070,0.001
 38241,-0.00005510,0.00003522,-0.00004938,0.00020007,-0.00019094,-0.000
 13236,0.00339255,0.00639516,0.00142470,-0.00938157,0.00203574,-0.03380
 865,-0.00005774,0.00023940,-0.00018341,0.00000581,-0.00002867,0.000015
 81,0.00002987,-0.00005647,-0.00003666,0.00002125,0.00003035,-0.0000756
 8,0.00000428,-0.00001199,0.00000342,-0.00001420,0.00010895,-0.00004377
 ,-0.00000051,0.00005075,0.00001700,0.00160912,-0.00012007,-0.00432944,
 0.01288635,0.00188373,0.02518695,0.00115509,-0.00283192,0.00052435,-0.
 22368017,0.20837181,-0.07782287,-0.00069810,0.00057691,-0.00068153,0.0
 0007657,-0.00001376,0.00010132,0.00008144,-0.00002101,0.00015602,-0.00
 337621,-0.00374434,-0.00101523,-0.03226984,0.03235647,-0.00925933,0.00
 013043,0.00001132,0.00008311,-0.00002202,0.00002024,-0.00001188,-0.000
 01609,0.00002384,-0.00001023,0.00001964,-0.00006621,0.00001402,-0.0000
 0695,-0.00000632,-0.00005275,-0.00000281,-0.00000569,-0.00008202,0.000
 00176,-0.00002815,0.00007746,-0.00051940,0.00087289,-0.00099748,0.0028
 2448,-0.00028639,0.00084201,0.25630217,0.00050640,0.00131228,0.0002859
 4,0.26306603,-0.33289364,0.09217966,0.00034553,0.00000887,0.00005741,0
 .00000342,0.00001536,-0.00002660,-0.00003633,-0.00000174,-0.00005966,-
 0.00405740,-0.00304455,-0.00154051,-0.02145863,0.01081637,-0.00738039,
 0.00004791,-0.00006780,0.00006146,0.00000382,0.00001283,0.00000124,0.0
 0000289,-0.00000968,0.00000552,-0.00000508,0.00001762,-0.00000672,0.00
 000948,0.00002040,-0.00000131,-0.00001368,0.00000626,0.00005240,0.0000
 0255,0.00001579,-0.00002117,-0.00064858,0.00030769,-0.00008438,-0.0025
 3866,0.00103526,-0.00082860,-0.23522968,0.32244867,0.00078491,-0.00067
 008,-0.00014268,-0.07855057,0.07399150,-0.02550728,-0.00019919,0.00006
 108,-0.00008208,0.00002636,-0.00000251,0.00002926,0.00004114,-0.000011
 93,0.00003644,-0.00108460,-0.00166557,0.00016279,-0.00895323,0.0109816
 2,-0.00869212,0.00003734,-0.00004603,0.00001974,-0.00000845,0.00000458
 ,0.00000768,0.00001300,-0.00000528,-0.00002144,-0.00000101,-0.00001948
 ,0.00000338,-0.00000700,0.00003773,0.00000828,-0.00004222,-0.00003888,
 -0.00002209,0.00002480,-0.00002604,0.00000443,-0.00100911,0.00028647,0
 .00165039,0.00079279,-0.00018294,0.00090101,0.08813505,-0.08269427,0.0
 3164428\\-0.00000013,0.00000020,0.00000010,0.00000011,0.00000025,0.000
 00048,0.00000008,-0.00000019,-0.00000024,-0.00000019,0.00000010,-0.000
 00055,-0.00000006,-0.00000046,-0.00000022,0.00000050,-0.00000011,0.000
 00033,0.,0.00000035,0.00000053,-0.00000004,-0.00000014,0.,-0.00000011,
 0.00000013,-0.00000053,-0.00000017,0.00000018,-0.00000054,-0.00000008,
 -0.00000019,-0.00000061,0.,-0.00000032,-0.00000016,0.00000017,-0.00000
 039,0.00000009,0.00000006,-0.00000048,-0.00000029,-0.00000014,0.000000
 08,0.00000034,0.00000013,0.00000031,0.00000072,-0.00000011,0.00000067,
 0.00000055\\\@


 NEVER LOSE YOUR IGNORANCE, IT CAN'T BE REPLACED.
   -- ANDY CAPP
 Job cpu time:       0 days  2 hours 32 minutes 30.8 seconds.
 Elapsed time:       0 days  1 hours 16 minutes 16.3 seconds.
 File lengths (MBytes):  RWF=   1392 Int=      0 D2E=      0 Chk=     32 Scr=     32
 Normal termination of Gaussian 16 at Sun Sep 29 14:39:02 2019.
