 Entering Gaussian System, Link 0=g16
 Input=med/species/CC(C)OC=CO/conformers/CC(C)OC=CO_138.com
 Output=med/species/CC(C)OC=CO/conformers/CC(C)OC=CO_138.log
 Initial command:
 /shared/centos7/gaussian/g16/l1.exe "/scratch/harms.n/gauss_scrdir/Gau-35531.inp" -scrdir="/scratch/harms.n/gauss_scrdir/"
 Entering Link 1 = /shared/centos7/gaussian/g16/l1.exe PID=     35532.
  
 Copyright (c) 1988,1990,1992,1993,1995,1998,2003,2009,2016,
            Gaussian, Inc.  All Rights Reserved.
  
 This is part of the Gaussian(R) 16 program.  It is based on
 the Gaussian(R) 09 system (copyright 2009, Gaussian, Inc.),
 the Gaussian(R) 03 system (copyright 2003, Gaussian, Inc.),
 the Gaussian(R) 98 system (copyright 1998, Gaussian, Inc.),
 the Gaussian(R) 94 system (copyright 1995, Gaussian, Inc.),
 the Gaussian 92(TM) system (copyright 1992, Gaussian, Inc.),
 the Gaussian 90(TM) system (copyright 1990, Gaussian, Inc.),
 the Gaussian 88(TM) system (copyright 1988, Gaussian, Inc.),
 the Gaussian 86(TM) system (copyright 1986, Carnegie Mellon
 University), and the Gaussian 82(TM) system (copyright 1983,
 Carnegie Mellon University). Gaussian is a federally registered
 trademark of Gaussian, Inc.
  
 This software contains proprietary and confidential information,
 including trade secrets, belonging to Gaussian, Inc.
  
 This software is provided under written license and may be
 used, copied, transmitted, or stored only in accord with that
 written license.
  
 The following legend is applicable only to US Government
 contracts under FAR:
  
                    RESTRICTED RIGHTS LEGEND
  
 Use, reproduction and disclosure by the US Government is
 subject to restrictions as set forth in subparagraphs (a)
 and (c) of the Commercial Computer Software - Restricted
 Rights clause in FAR 52.227-19.
  
 Gaussian, Inc.
 340 Quinnipiac St., Bldg. 40, Wallingford CT 06492
  
  
 ---------------------------------------------------------------
 Warning -- This program may not be used in any manner that
 competes with the business of Gaussian, Inc. or will provide
 assistance to any competitor of Gaussian, Inc.  The licensee
 of this program is prohibited from giving any competitor of
 Gaussian, Inc. access to this program.  By using this program,
 the user acknowledges that Gaussian, Inc. is engaged in the
 business of creating and licensing software in the field of
 computational chemistry and represents and warrants to the
 licensee that it is not a competitor of Gaussian, Inc. and that
 it will not use this program in any manner prohibited above.
 ---------------------------------------------------------------
  

 Cite this work as:
 Gaussian 16, Revision A.03,
 M. J. Frisch, G. W. Trucks, H. B. Schlegel, G. E. Scuseria, 
 M. A. Robb, J. R. Cheeseman, G. Scalmani, V. Barone, 
 G. A. Petersson, H. Nakatsuji, X. Li, M. Caricato, A. V. Marenich, 
 J. Bloino, B. G. Janesko, R. Gomperts, B. Mennucci, H. P. Hratchian, 
 J. V. Ortiz, A. F. Izmaylov, J. L. Sonnenberg, D. Williams-Young, 
 F. Ding, F. Lipparini, F. Egidi, J. Goings, B. Peng, A. Petrone, 
 T. Henderson, D. Ranasinghe, V. G. Zakrzewski, J. Gao, N. Rega, 
 G. Zheng, W. Liang, M. Hada, M. Ehara, K. Toyota, R. Fukuda, 
 J. Hasegawa, M. Ishida, T. Nakajima, Y. Honda, O. Kitao, H. Nakai, 
 T. Vreven, K. Throssell, J. A. Montgomery, Jr., J. E. Peralta, 
 F. Ogliaro, M. J. Bearpark, J. J. Heyd, E. N. Brothers, K. N. Kudin, 
 V. N. Staroverov, T. A. Keith, R. Kobayashi, J. Normand, 
 K. Raghavachari, A. P. Rendell, J. C. Burant, S. S. Iyengar, 
 J. Tomasi, M. Cossi, J. M. Millam, M. Klene, C. Adamo, R. Cammi, 
 J. W. Ochterski, R. L. Martin, K. Morokuma, O. Farkas, 
 J. B. Foresman, and D. J. Fox, Gaussian, Inc., Wallingford CT, 2016.
 
 ******************************************
 Gaussian 16:  EM64L-G16RevA.03 25-Dec-2016
                26-Sep-2019 
 ******************************************
 %nprocshared=20
 Will use up to   20 processors via shared memory.
 %mem=5GB
 ----------------------------------------------------------------------
 #p m062x/cc-pVTZ opt=(calcfc,maxcycles=900,Tight) freq IOP(7/33=1,2/16
 =3) scf=(maxcycle=900)
 ----------------------------------------------------------------------
 1/6=900,7=10,10=4,18=20,19=15,26=3,38=1/1,3;
 2/9=110,12=2,16=3,17=6,18=5,40=1/2;
 3/5=16,6=1,11=2,25=1,30=1,71=2,74=-55,140=1/1,2,3;
 4//1;
 5/5=2,7=900,38=5/2;
 8/6=4,10=90,11=11/1;
 11/6=1,8=1,9=11,15=111,16=1/1,2,10;
 10/6=1,13=1/2;
 6/7=2,8=2,9=2,10=2,28=1/1;
 7/10=1,18=20,25=1,33=1/1,2,3,16;
 1/6=900,7=10,10=4,18=20,19=15,26=3/3(2);
 2/9=110,16=3/2;
 99//99;
 2/9=110,16=3/2;
 3/5=16,6=1,11=2,25=1,30=1,71=1,74=-55/1,2,3;
 4/5=5,16=3,69=1/1;
 5/5=2,7=900,38=5/2;
 7/33=1/1,2,3,16;
 1/6=900,7=10,18=20,19=15,26=3/3(-5);
 2/9=110,16=3/2;
 6/7=2,8=2,9=2,10=2,19=2,28=1/1;
 99/9=1/99;
 Leave Link    1 at Thu Sep 26 12:05:37 2019, MaxMem=   671088640 cpu:               6.8 elap:               3.5
 (Enter /shared/centos7/gaussian/g16/l101.exe)
 ------------------------------
 Gaussian input prepared by ASE
 ------------------------------
 Symbolic Z-matrix:
 Charge =  0 Multiplicity = 1
 O                    -0.154    -1.4335    1.91644 
 O                     2.31187  -2.53638   2.79201 
 C                    -1.07898  -0.43456   2.29114 
 C                    -2.38695  -0.60985   1.51946 
 C                    -0.55886   0.96365   2.22347 
 C                     1.07381  -0.98582   1.48519 
 C                     2.20314  -1.50586   1.87017 
 H                    -1.30937  -0.64335   3.37265 
 H                    -2.23803  -1.24203   0.61924 
 H                    -3.16341  -1.08546   2.14587 
 H                    -2.79936   0.37512   1.16964 
 H                    -0.9095    1.51328   1.30062 
 H                     0.55085   0.98714   2.23074 
 H                    -0.92132   1.55494   3.11148 
 H                     1.06065  -0.18658   0.72705 
 H                     3.142    -1.17106   1.45439 
 H                     3.28321  -2.62029   3.01838 
 
 ITRead=  0  0  0  0  0  0  0  0  0  0  0  0  0  0  0  0  0
 MicOpt= -1 -1 -1 -1 -1 -1 -1 -1 -1 -1 -1 -1 -1 -1 -1 -1 -1
 NAtoms=     17 NQM=       17 NQMF=       0 NMMI=      0 NMMIF=      0
                NMic=       0 NMicF=      0.
                    Isotopes and Nuclear Properties:
 (Nuclear quadrupole moments (NQMom) in fm**2, nuclear magnetic moments (NMagM)
  in nuclear magnetons)

  Atom         1           2           3           4           5           6           7           8           9          10
 IAtWgt=          16          16          12          12          12          12          12           1           1           1
 AtmWgt=  15.9949146  15.9949146  12.0000000  12.0000000  12.0000000  12.0000000  12.0000000   1.0078250   1.0078250   1.0078250
 NucSpn=           0           0           0           0           0           0           0           1           1           1
 AtZEff=  -0.0000000  -0.0000000  -0.0000000  -0.0000000  -0.0000000  -0.0000000  -0.0000000  -0.0000000  -0.0000000  -0.0000000
 NQMom=    0.0000000   0.0000000   0.0000000   0.0000000   0.0000000   0.0000000   0.0000000   0.0000000   0.0000000   0.0000000
 NMagM=    0.0000000   0.0000000   0.0000000   0.0000000   0.0000000   0.0000000   0.0000000   2.7928460   2.7928460   2.7928460
 AtZNuc=   8.0000000   8.0000000   6.0000000   6.0000000   6.0000000   6.0000000   6.0000000   1.0000000   1.0000000   1.0000000

  Atom        11          12          13          14          15          16          17
 IAtWgt=           1           1           1           1           1           1           1
 AtmWgt=   1.0078250   1.0078250   1.0078250   1.0078250   1.0078250   1.0078250   1.0078250
 NucSpn=           1           1           1           1           1           1           1
 AtZEff=  -0.0000000  -0.0000000  -0.0000000  -0.0000000  -0.0000000  -0.0000000  -0.0000000
 NQMom=    0.0000000   0.0000000   0.0000000   0.0000000   0.0000000   0.0000000   0.0000000
 NMagM=    2.7928460   2.7928460   2.7928460   2.7928460   2.7928460   2.7928460   2.7928460
 AtZNuc=   1.0000000   1.0000000   1.0000000   1.0000000   1.0000000   1.0000000   1.0000000
 Leave Link  101 at Thu Sep 26 12:05:41 2019, MaxMem=   671088640 cpu:               7.4 elap:               3.7
 (Enter /shared/centos7/gaussian/g16/l103.exe)

 GradGradGradGradGradGradGradGradGradGradGradGradGradGradGradGradGradGrad
 Berny optimization.
 Initialization pass.
                           ----------------------------
                           !    Initial Parameters    !
                           ! (Angstroms and Degrees)  !
 --------------------------                            --------------------------
 ! Name  Definition              Value          Derivative Info.                !
 --------------------------------------------------------------------------------
 ! R1    R(1,3)                  1.412          calculate D2E/DX2 analytically  !
 ! R2    R(1,6)                  1.3762         calculate D2E/DX2 analytically  !
 ! R3    R(2,7)                  1.3869         calculate D2E/DX2 analytically  !
 ! R4    R(2,17)                 1.0009         calculate D2E/DX2 analytically  !
 ! R5    R(3,4)                  1.5287         calculate D2E/DX2 analytically  !
 ! R6    R(3,5)                  1.4933         calculate D2E/DX2 analytically  !
 ! R7    R(3,8)                  1.1253         calculate D2E/DX2 analytically  !
 ! R8    R(4,9)                  1.1101         calculate D2E/DX2 analytically  !
 ! R9    R(4,10)                 1.1052         calculate D2E/DX2 analytically  !
 ! R10   R(4,11)                 1.1237         calculate D2E/DX2 analytically  !
 ! R11   R(5,12)                 1.1299         calculate D2E/DX2 analytically  !
 ! R12   R(5,13)                 1.11           calculate D2E/DX2 analytically  !
 ! R13   R(5,14)                 1.1267         calculate D2E/DX2 analytically  !
 ! R14   R(6,7)                  1.3016         calculate D2E/DX2 analytically  !
 ! R15   R(6,15)                 1.1017         calculate D2E/DX2 analytically  !
 ! R16   R(7,16)                 1.08           calculate D2E/DX2 analytically  !
 ! A1    A(3,1,6)              115.9411         calculate D2E/DX2 analytically  !
 ! A2    A(7,2,17)             106.7797         calculate D2E/DX2 analytically  !
 ! A3    A(1,3,4)              110.2058         calculate D2E/DX2 analytically  !
 ! A4    A(1,3,5)              114.9736         calculate D2E/DX2 analytically  !
 ! A5    A(1,3,8)              104.9446         calculate D2E/DX2 analytically  !
 ! A6    A(4,3,5)              112.4876         calculate D2E/DX2 analytically  !
 ! A7    A(4,3,8)              106.7795         calculate D2E/DX2 analytically  !
 ! A8    A(5,3,8)              106.7728         calculate D2E/DX2 analytically  !
 ! A9    A(3,4,9)              111.0936         calculate D2E/DX2 analytically  !
 ! A10   A(3,4,10)             111.3669         calculate D2E/DX2 analytically  !
 ! A11   A(3,4,11)             111.7561         calculate D2E/DX2 analytically  !
 ! A12   A(9,4,10)             107.988          calculate D2E/DX2 analytically  !
 ! A13   A(9,4,11)             107.2163         calculate D2E/DX2 analytically  !
 ! A14   A(10,4,11)            107.2059         calculate D2E/DX2 analytically  !
 ! A15   A(3,5,12)             112.6051         calculate D2E/DX2 analytically  !
 ! A16   A(3,5,13)             111.5752         calculate D2E/DX2 analytically  !
 ! A17   A(3,5,14)             110.0961         calculate D2E/DX2 analytically  !
 ! A18   A(12,5,13)            107.7761         calculate D2E/DX2 analytically  !
 ! A19   A(12,5,14)            106.7738         calculate D2E/DX2 analytically  !
 ! A20   A(13,5,14)            107.7784         calculate D2E/DX2 analytically  !
 ! A21   A(1,6,7)              123.4672         calculate D2E/DX2 analytically  !
 ! A22   A(1,6,15)             116.1668         calculate D2E/DX2 analytically  !
 ! A23   A(7,6,15)             120.2497         calculate D2E/DX2 analytically  !
 ! A24   A(2,7,6)              124.1591         calculate D2E/DX2 analytically  !
 ! A25   A(2,7,16)             114.7123         calculate D2E/DX2 analytically  !
 ! A26   A(6,7,16)             121.1014         calculate D2E/DX2 analytically  !
 ! D1    D(6,1,3,4)            125.6096         calculate D2E/DX2 analytically  !
 ! D2    D(6,1,3,5)             -2.7809         calculate D2E/DX2 analytically  !
 ! D3    D(6,1,3,8)           -119.7687         calculate D2E/DX2 analytically  !
 ! D4    D(3,1,6,7)            135.0957         calculate D2E/DX2 analytically  !
 ! D5    D(3,1,6,15)           -48.8257         calculate D2E/DX2 analytically  !
 ! D6    D(17,2,7,6)          -170.0595         calculate D2E/DX2 analytically  !
 ! D7    D(17,2,7,16)           11.8269         calculate D2E/DX2 analytically  !
 ! D8    D(1,3,4,9)            -18.5117         calculate D2E/DX2 analytically  !
 ! D9    D(1,3,4,10)           101.9086         calculate D2E/DX2 analytically  !
 ! D10   D(1,3,4,11)          -138.2149         calculate D2E/DX2 analytically  !
 ! D11   D(5,3,4,9)            111.2255         calculate D2E/DX2 analytically  !
 ! D12   D(5,3,4,10)          -128.3542         calculate D2E/DX2 analytically  !
 ! D13   D(5,3,4,11)            -8.4778         calculate D2E/DX2 analytically  !
 ! D14   D(8,3,4,9)           -131.9644         calculate D2E/DX2 analytically  !
 ! D15   D(8,3,4,10)           -11.5441         calculate D2E/DX2 analytically  !
 ! D16   D(8,3,4,11)           108.3323         calculate D2E/DX2 analytically  !
 ! D17   D(1,3,5,12)           101.6083         calculate D2E/DX2 analytically  !
 ! D18   D(1,3,5,13)           -19.7416         calculate D2E/DX2 analytically  !
 ! D19   D(1,3,5,14)          -139.3654         calculate D2E/DX2 analytically  !
 ! D20   D(4,3,5,12)           -25.6331         calculate D2E/DX2 analytically  !
 ! D21   D(4,3,5,13)          -146.9829         calculate D2E/DX2 analytically  !
 ! D22   D(4,3,5,14)            93.3933         calculate D2E/DX2 analytically  !
 ! D23   D(8,3,5,12)          -142.4472         calculate D2E/DX2 analytically  !
 ! D24   D(8,3,5,13)            96.203          calculate D2E/DX2 analytically  !
 ! D25   D(8,3,5,14)           -23.4208         calculate D2E/DX2 analytically  !
 ! D26   D(1,6,7,2)             -2.3838         calculate D2E/DX2 analytically  !
 ! D27   D(1,6,7,16)           175.6148         calculate D2E/DX2 analytically  !
 ! D28   D(15,6,7,2)          -178.3092         calculate D2E/DX2 analytically  !
 ! D29   D(15,6,7,16)           -0.3106         calculate D2E/DX2 analytically  !
 --------------------------------------------------------------------------------
 Trust Radius=3.00D-01 FncErr=1.00D-07 GrdErr=1.00D-06 EigMax=2.50D+02 EigMin=1.00D-04
 Number of steps in this run=    102 maximum allowed number of steps=    102.
 GradGradGradGradGradGradGradGradGradGradGradGradGradGradGradGradGradGrad

 Leave Link  103 at Thu Sep 26 12:05:42 2019, MaxMem=   671088640 cpu:               1.6 elap:               0.8
 (Enter /shared/centos7/gaussian/g16/l202.exe)
                          Input orientation:                          
 ---------------------------------------------------------------------
 Center     Atomic      Atomic             Coordinates (Angstroms)
 Number     Number       Type             X           Y           Z
 ---------------------------------------------------------------------
      1          8           0       -0.153997   -1.433500    1.916439
      2          8           0        2.311870   -2.536377    2.792013
      3          6           0       -1.078976   -0.434555    2.291139
      4          6           0       -2.386946   -0.609854    1.519455
      5          6           0       -0.558864    0.963649    2.223471
      6          6           0        1.073806   -0.985815    1.485192
      7          6           0        2.203142   -1.505856    1.870171
      8          1           0       -1.309371   -0.643348    3.372652
      9          1           0       -2.238030   -1.242030    0.619238
     10          1           0       -3.163410   -1.085456    2.145867
     11          1           0       -2.799361    0.375120    1.169641
     12          1           0       -0.909499    1.513279    1.300624
     13          1           0        0.550852    0.987142    2.230739
     14          1           0       -0.921319    1.554942    3.111480
     15          1           0        1.060647   -0.186577    0.727049
     16          1           0        3.142004   -1.171063    1.454388
     17          1           0        3.283209   -2.620287    3.018378
 ---------------------------------------------------------------------
                    Distance matrix (angstroms):
                    1          2          3          4          5
     1  O    0.000000
     2  O    2.839625   0.000000
     3  C    1.412047   4.020742   0.000000
     4  C    2.412892   5.235433   1.528729   0.000000
     5  C    2.450410   4.562295   1.493342   2.512655   0.000000
     6  C    1.376189   2.375884   2.363875   3.481282   2.647844
     7  C    2.358704   1.386935   3.478103   4.689854   3.721821
     8  H    2.019848   4.127237   1.125320   2.143975   2.113366
     9  H    2.462231   5.205562   2.188761   1.110050   3.202839
    10  H    3.038147   5.700997   2.188526   1.105209   3.314893
    11  H    3.290405   6.101933   2.207500   1.123668   2.544946
    12  H    3.103791   5.385273   2.191780   2.595848   1.129905
    13  H    2.540690   3.978869   2.163610   3.418622   1.109989
    14  H    3.308730   5.224411   2.157757   3.060874   1.126748
    15  H    2.108276   3.369153   2.661928   3.562719   2.486990
    16  H    3.338561   2.083854   4.365692   5.557740   4.341072
    17  H    3.799621   1.000891   4.933047   6.199941   5.313944
                    6          7          8          9         10
     6  C    0.000000
     7  C    1.301558   0.000000
     8  H    3.059301   3.916519   0.000000
     9  H    3.432751   4.621520   2.966836   0.000000
    10  H    4.289571   5.390049   2.266699   1.792048   0.000000
    11  H    4.117419   5.390163   2.847912   1.798113   1.794110
    12  H    3.195784   4.373568   3.017323   3.133848   3.542312
    13  H    2.172989   3.012492   2.724499   3.917143   4.254246
    14  H    3.616737   4.546602   2.247505   3.970900   3.595982
    15  H    1.101697   2.086270   3.581179   3.465094   4.545733
    16  H    2.076706   1.080011   4.875753   5.444931   6.343794
    17  H    3.147002   1.930513   5.012544   6.175723   6.684002
                   11         12         13         14         15
    11  H    0.000000
    12  H    2.210009   0.000000
    13  H    3.567132   1.809575   0.000000
    14  H    2.947840   1.811374   1.807039   0.000000
    15  H    3.925692   2.664578   1.974486   3.556205   0.000000
    16  H    6.145859   4.862511   3.460439   5.166010   2.414597
    17  H    7.027656   6.133176   4.593440   5.926151   4.014090
                   16         17
    16  H    0.000000
    17  H    2.136880   0.000000
 Stoichiometry    C5H10O2
 Framework group  C1[X(C5H10O2)]
 Deg. of freedom    45
 Full point group                 C1      NOp   1
 Largest Abelian subgroup         C1      NOp   1
 Largest concise Abelian subgroup C1      NOp   1
                         Standard orientation:                         
 ---------------------------------------------------------------------
 Center     Atomic      Atomic             Coordinates (Angstroms)
 Number     Number       Type             X           Y           Z
 ---------------------------------------------------------------------
      1          8           0       -0.062007   -0.632705   -0.094824
      2          8           0        2.713008   -0.541744    0.500561
      3          6           0       -1.286112   -0.136562    0.404463
      4          6           0       -2.458340   -0.870309   -0.247079
      5          6           0       -1.436571    1.347932    0.343540
      6          6           0        0.797333    0.304270   -0.621613
      7          6           0        2.073126    0.332407   -0.365464
      8          1           0       -1.291068   -0.419038    1.493742
      9          1           0       -2.141631   -1.378782   -1.181617
     10          1           0       -2.881937   -1.633998    0.430291
     11          1           0       -3.291731   -0.166695   -0.517296
     12          1           0       -2.083549    1.683826   -0.519756
     13          1           0       -0.453473    1.854223    0.247301
     14          1           0       -1.927725    1.726218    1.284405
     15          1           0        0.360316    1.013103   -1.342937
     16          1           0        2.724752    1.041623   -0.854155
     17          1           0        3.641425   -0.191319    0.631045
 ---------------------------------------------------------------------
 Rotational constants (GHZ):           5.9909384           1.3581449           1.2346051
 Leave Link  202 at Thu Sep 26 12:05:44 2019, MaxMem=   671088640 cpu:               3.8 elap:               1.9
 (Enter /shared/centos7/gaussian/g16/l301.exe)
 Standard basis: CC-pVTZ (5D, 7F)
 Ernie: Thresh=  0.10000D-02 Tol=  0.10000D-05 Strict=F.
 Ernie:  21 primitive shells out of 262 were deleted.
 There are   395 symmetry adapted cartesian basis functions of A   symmetry.
 There are   350 symmetry adapted basis functions of A   symmetry.
   350 basis functions,   534 primitive gaussians,   395 cartesian basis functions
    28 alpha electrons       28 beta electrons
       nuclear repulsion energy       313.3722261891 Hartrees.
 IExCor= 4336 DFT=T Ex+Corr=M062X ExCW=0 ScaHFX=  0.540000
 ScaDFX=  1.000000  1.000000  1.000000  1.000000 ScalE2=  1.000000  1.000000
 IRadAn=      5 IRanWt=     -1 IRanGd=            0 ICorTp=0 IEmpDi=  4
 NAtoms=   17 NActive=   17 NUniq=   17 SFac= 1.00D+00 NAtFMM=   60 NAOKFM=F Big=F
 Integral buffers will be    131072 words long.
 Raffenetti 2 integral format.
 Two-electron integral symmetry is turned on.
 Leave Link  301 at Thu Sep 26 12:05:45 2019, MaxMem=   671088640 cpu:               2.0 elap:               1.0
 (Enter /shared/centos7/gaussian/g16/l302.exe)
 NPDir=0 NMtPBC=     1 NCelOv=     1 NCel=       1 NClECP=     1 NCelD=      1
         NCelK=      1 NCelE2=     1 NClLst=     1 CellRange=     0.0.
 One-electron integrals computed using PRISM.
 One-electron integral symmetry used in STVInt
 NBasis=   350 RedAO= T EigKep=  2.74D-04  NBF=   350
 NBsUse=   350 1.00D-06 EigRej= -1.00D+00 NBFU=   350
 Precomputing XC quadrature grid using
 IXCGrd= 4 IRadAn=           5 IRanWt=          -1 IRanGd=           0 AccXCQ= 0.00D+00.
 Generated NRdTot=       0 NPtTot=           0 NUsed=           0 NTot=          32
 NSgBfM=   395   395   395   395   395 MxSgAt=    17 MxSgA2=    17.
 Leave Link  302 at Thu Sep 26 12:06:44 2019, MaxMem=   671088640 cpu:             118.1 elap:              59.1
 (Enter /shared/centos7/gaussian/g16/l303.exe)
 DipDrv:  MaxL=1.
 Leave Link  303 at Thu Sep 26 12:06:48 2019, MaxMem=   671088640 cpu:               8.4 elap:               4.2
 (Enter /shared/centos7/gaussian/g16/l401.exe)
 ExpMin= 1.03D-01 ExpMax= 1.53D+04 ExpMxC= 5.22D+02 IAcc=3 IRadAn=         5 AccDes= 0.00D+00
 Harris functional with IExCor= 1009 and IRadAn=       5 diagonalized for initial guess.
 HarFok:  IExCor= 1009 AccDes= 0.00D+00 IRadAn=         5 IDoV= 1 UseB2=F ITyADJ=14
 ICtDFT=  3500011 ScaDFX=  1.000000  1.000000  1.000000  1.000000
 FoFCou: FMM=F IPFlag=           0 FMFlag=      100000 FMFlg1=           0
         NFxFlg=           0 DoJE=T BraDBF=F KetDBF=T FulRan=T
         wScrn=  0.000000 ICntrl=       500 IOpCl=  0 I1Cent=   200000004 NGrid=           0
         NMat0=    1 NMatS0=      1 NMatT0=    0 NMatD0=    1 NMtDS0=    0 NMtDT0=    0
 Petite list used in FoFCou.
 Harris En= -346.801319349914    
 JPrj=0 DoOrth=F DoCkMO=F.
 Leave Link  401 at Thu Sep 26 12:07:22 2019, MaxMem=   671088640 cpu:              68.1 elap:              34.1
 (Enter /shared/centos7/gaussian/g16/l502.exe)
 Integral symmetry usage will be decided dynamically.
 Closed shell SCF:
 Using DIIS extrapolation, IDIIS=  1040.
 NGot=   671088640 LenX=   670765141 LenY=   670608675
 Requested convergence on RMS density matrix=1.00D-08 within 900 cycles.
 Requested convergence on MAX density matrix=1.00D-06.
 Requested convergence on             energy=1.00D-06.
 No special actions if energy rises.
 Fock matrices will be formed incrementally for  20 cycles.
 Integral accuracy reduced to 1.0D-05 until final iterations.

 Cycle   1  Pass 0  IDiag  1:
 FoFJK:  IHMeth= 1 ICntrl=       0 DoSepK=F KAlg= 0 I1Cent=           0 FoldK=F
 IRaf= 940000000 NMat=       1 IRICut=       1 DoRegI=T DoRafI=F ISym2E= 0 IDoP0=0 IntGTp=1.
 FoFCou: FMM=F IPFlag=           0 FMFlag=      100000 FMFlg1=           0
         NFxFlg=           0 DoJE=F BraDBF=F KetDBF=F FulRan=T
         wScrn=  0.000000 ICntrl=         0 IOpCl=  0 I1Cent=           0 NGrid=           0
         NMat0=    1 NMatS0=      1 NMatT0=    0 NMatD0=    1 NMtDS0=    0 NMtDT0=    0
 Symmetry not used in FoFCou.
 E= -346.679748519417    
 DIIS: error= 1.91D-02 at cycle   1 NSaved=   1.
 NSaved= 1 IEnMin= 1 EnMin= -346.679748519417     IErMin= 1 ErrMin= 1.91D-02
 ErrMax= 1.91D-02  0.00D+00 EMaxC= 1.00D-01 BMatC= 2.89D-01 BMatP= 2.89D-01
 IDIUse=3 WtCom= 8.09D-01 WtEn= 1.91D-01
 Coeff-Com:  0.100D+01
 Coeff-En:   0.100D+01
 Coeff:      0.100D+01
 Gap=     0.352 Goal=   None    Shift=    0.000
 GapD=    0.352 DampG=1.000 DampE=0.500 DampFc=0.5000 IDamp=-1.
 Damping current iteration by 5.00D-01
 RMSDP=2.38D-03 MaxDP=1.56D-01              OVMax= 1.41D-01

 Cycle   2  Pass 0  IDiag  1:
 RMSU=  1.19D-03    CP:  1.00D+00
 E= -346.799854649923     Delta-E=       -0.120106130506 Rises=F Damp=T
 DIIS: error= 4.28D-03 at cycle   2 NSaved=   2.
 NSaved= 2 IEnMin= 2 EnMin= -346.799854649923     IErMin= 2 ErrMin= 4.28D-03
 ErrMax= 4.28D-03  0.00D+00 EMaxC= 1.00D-01 BMatC= 2.13D-02 BMatP= 2.89D-01
 IDIUse=3 WtCom= 9.57D-01 WtEn= 4.28D-02
 Coeff-Com: -0.122D+00 0.112D+01
 Coeff-En:   0.000D+00 0.100D+01
 Coeff:     -0.117D+00 0.112D+01
 Gap=     0.326 Goal=   None    Shift=    0.000
 RMSDP=4.79D-04 MaxDP=1.96D-02 DE=-1.20D-01 OVMax= 7.07D-02

 Cycle   3  Pass 0  IDiag  1:
 RMSU=  4.63D-04    CP:  1.01D+00  8.99D-01
 E= -346.909030120251     Delta-E=       -0.109175470328 Rises=F Damp=F
 DIIS: error= 2.63D-03 at cycle   3 NSaved=   3.
 NSaved= 3 IEnMin= 3 EnMin= -346.909030120251     IErMin= 3 ErrMin= 2.63D-03
 ErrMax= 2.63D-03  0.00D+00 EMaxC= 1.00D-01 BMatC= 4.15D-03 BMatP= 2.13D-02
 IDIUse=3 WtCom= 9.74D-01 WtEn= 2.63D-02
 Coeff-Com: -0.832D-01 0.325D+00 0.758D+00
 Coeff-En:   0.000D+00 0.000D+00 0.100D+01
 Coeff:     -0.810D-01 0.317D+00 0.764D+00
 Gap=     0.322 Goal=   None    Shift=    0.000
 RMSDP=1.96D-04 MaxDP=1.37D-02 DE=-1.09D-01 OVMax= 1.34D-02

 Cycle   4  Pass 0  IDiag  1:
 RMSU=  1.29D-04    CP:  1.01D+00  1.01D+00  8.79D-01
 E= -346.911232308925     Delta-E=       -0.002202188674 Rises=F Damp=F
 DIIS: error= 1.48D-03 at cycle   4 NSaved=   4.
 NSaved= 4 IEnMin= 4 EnMin= -346.911232308925     IErMin= 4 ErrMin= 1.48D-03
 ErrMax= 1.48D-03  0.00D+00 EMaxC= 1.00D-01 BMatC= 1.16D-03 BMatP= 4.15D-03
 IDIUse=3 WtCom= 9.85D-01 WtEn= 1.48D-02
 Coeff-Com: -0.286D-01 0.758D-01 0.388D+00 0.565D+00
 Coeff-En:   0.000D+00 0.000D+00 0.178D+00 0.822D+00
 Coeff:     -0.282D-01 0.747D-01 0.385D+00 0.569D+00
 Gap=     0.320 Goal=   None    Shift=    0.000
 RMSDP=7.12D-05 MaxDP=4.90D-03 DE=-2.20D-03 OVMax= 5.91D-03

 Cycle   5  Pass 0  IDiag  1:
 RMSU=  2.77D-05    CP:  1.01D+00  9.86D-01  9.34D-01  6.10D-01
 E= -346.912070171016     Delta-E=       -0.000837862091 Rises=F Damp=F
 DIIS: error= 2.33D-04 at cycle   5 NSaved=   5.
 NSaved= 5 IEnMin= 5 EnMin= -346.912070171016     IErMin= 5 ErrMin= 2.33D-04
 ErrMax= 2.33D-04  0.00D+00 EMaxC= 1.00D-01 BMatC= 2.54D-05 BMatP= 1.16D-03
 IDIUse=3 WtCom= 9.98D-01 WtEn= 2.33D-03
 Coeff-Com: -0.476D-02 0.850D-02 0.931D-01 0.201D+00 0.703D+00
 Coeff-En:   0.000D+00 0.000D+00 0.000D+00 0.000D+00 0.100D+01
 Coeff:     -0.474D-02 0.848D-02 0.929D-01 0.200D+00 0.703D+00
 Gap=     0.320 Goal=   None    Shift=    0.000
 RMSDP=1.00D-05 MaxDP=2.97D-04 DE=-8.38D-04 OVMax= 8.53D-04

 Cycle   6  Pass 0  IDiag  1:
 RMSU=  7.77D-06    CP:  1.01D+00  9.85D-01  9.41D-01  6.43D-01  8.72D-01
 E= -346.912087672100     Delta-E=       -0.000017501083 Rises=F Damp=F
 DIIS: error= 4.56D-05 at cycle   6 NSaved=   6.
 NSaved= 6 IEnMin= 6 EnMin= -346.912087672100     IErMin= 6 ErrMin= 4.56D-05
 ErrMax= 4.56D-05  0.00D+00 EMaxC= 1.00D-01 BMatC= 1.71D-06 BMatP= 2.54D-05
 IDIUse=1 WtCom= 1.00D+00 WtEn= 0.00D+00
 Coeff-Com: -0.156D-03-0.869D-03 0.143D-01 0.495D-01 0.252D+00 0.685D+00
 Coeff:     -0.156D-03-0.869D-03 0.143D-01 0.495D-01 0.252D+00 0.685D+00
 Gap=     0.320 Goal=   None    Shift=    0.000
 RMSDP=3.53D-06 MaxDP=1.20D-04 DE=-1.75D-05 OVMax= 3.17D-04

 Initial convergence to 1.0D-05 achieved.  Increase integral accuracy.
 Cycle   7  Pass 1  IDiag  1:
 E= -346.912070461373     Delta-E=        0.000017210727 Rises=F Damp=F
 DIIS: error= 2.89D-05 at cycle   1 NSaved=   1.
 NSaved= 1 IEnMin= 1 EnMin= -346.912070461373     IErMin= 1 ErrMin= 2.89D-05
 ErrMax= 2.89D-05  0.00D+00 EMaxC= 1.00D-01 BMatC= 7.79D-07 BMatP= 7.79D-07
 IDIUse=1 WtCom= 1.00D+00 WtEn= 0.00D+00
 Coeff-Com:  0.100D+01
 Coeff:      0.100D+01
 Gap=     0.320 Goal=   None    Shift=    0.000
 RMSDP=3.53D-06 MaxDP=1.20D-04 DE= 1.72D-05 OVMax= 1.45D-04

 Cycle   8  Pass 1  IDiag  1:
 RMSU=  7.71D-06    CP:  1.00D+00
 E= -346.912070661061     Delta-E=       -0.000000199688 Rises=F Damp=F
 DIIS: error= 1.67D-05 at cycle   2 NSaved=   2.
 NSaved= 2 IEnMin= 2 EnMin= -346.912070661061     IErMin= 2 ErrMin= 1.67D-05
 ErrMax= 1.67D-05  0.00D+00 EMaxC= 1.00D-01 BMatC= 3.57D-07 BMatP= 7.79D-07
 IDIUse=1 WtCom= 1.00D+00 WtEn= 0.00D+00
 Coeff-Com:  0.375D+00 0.625D+00
 Coeff:      0.375D+00 0.625D+00
 Gap=     0.320 Goal=   None    Shift=    0.000
 RMSDP=1.39D-06 MaxDP=5.67D-05 DE=-2.00D-07 OVMax= 1.20D-04

 Cycle   9  Pass 1  IDiag  1:
 RMSU=  1.37D-06    CP:  1.00D+00  9.76D-01
 E= -346.912070866776     Delta-E=       -0.000000205715 Rises=F Damp=F
 DIIS: error= 7.12D-06 at cycle   3 NSaved=   3.
 NSaved= 3 IEnMin= 3 EnMin= -346.912070866776     IErMin= 3 ErrMin= 7.12D-06
 ErrMax= 7.12D-06  0.00D+00 EMaxC= 1.00D-01 BMatC= 6.30D-08 BMatP= 3.57D-07
 IDIUse=1 WtCom= 1.00D+00 WtEn= 0.00D+00
 Coeff-Com: -0.127D-01 0.289D+00 0.724D+00
 Coeff:     -0.127D-01 0.289D+00 0.724D+00
 Gap=     0.320 Goal=   None    Shift=    0.000
 RMSDP=4.90D-07 MaxDP=2.71D-05 DE=-2.06D-07 OVMax= 3.23D-05

 Cycle  10  Pass 1  IDiag  1:
 RMSU=  2.48D-07    CP:  1.00D+00  1.01D+00  7.70D-01
 E= -346.912070907547     Delta-E=       -0.000000040772 Rises=F Damp=F
 DIIS: error= 1.43D-06 at cycle   4 NSaved=   4.
 NSaved= 4 IEnMin= 4 EnMin= -346.912070907547     IErMin= 4 ErrMin= 1.43D-06
 ErrMax= 1.43D-06  0.00D+00 EMaxC= 1.00D-01 BMatC= 1.17D-09 BMatP= 6.30D-08
 IDIUse=1 WtCom= 1.00D+00 WtEn= 0.00D+00
 Coeff-Com: -0.110D-01 0.109D+00 0.290D+00 0.612D+00
 Coeff:     -0.110D-01 0.109D+00 0.290D+00 0.612D+00
 Gap=     0.320 Goal=   None    Shift=    0.000
 RMSDP=8.52D-08 MaxDP=2.95D-06 DE=-4.08D-08 OVMax= 9.01D-06

 Cycle  11  Pass 1  IDiag  1:
 RMSU=  8.03D-08    CP:  1.00D+00  1.01D+00  7.90D-01  1.02D+00
 E= -346.912070908533     Delta-E=       -0.000000000986 Rises=F Damp=F
 DIIS: error= 3.50D-07 at cycle   5 NSaved=   5.
 NSaved= 5 IEnMin= 5 EnMin= -346.912070908533     IErMin= 5 ErrMin= 3.50D-07
 ErrMax= 3.50D-07  0.00D+00 EMaxC= 1.00D-01 BMatC= 1.28D-10 BMatP= 1.17D-09
 IDIUse=1 WtCom= 1.00D+00 WtEn= 0.00D+00
 Coeff-Com: -0.113D-02-0.136D-01-0.363D-01 0.200D+00 0.851D+00
 Coeff:     -0.113D-02-0.136D-01-0.363D-01 0.200D+00 0.851D+00
 Gap=     0.320 Goal=   None    Shift=    0.000
 RMSDP=4.00D-08 MaxDP=1.64D-06 DE=-9.86D-10 OVMax= 5.39D-06

 Cycle  12  Pass 1  IDiag  1:
 RMSU=  2.37D-08    CP:  1.00D+00  1.01D+00  7.91D-01  1.14D+00  9.56D-01
 E= -346.912070908661     Delta-E=       -0.000000000128 Rises=F Damp=F
 DIIS: error= 1.73D-07 at cycle   6 NSaved=   6.
 NSaved= 6 IEnMin= 6 EnMin= -346.912070908661     IErMin= 6 ErrMin= 1.73D-07
 ErrMax= 1.73D-07  0.00D+00 EMaxC= 1.00D-01 BMatC= 1.38D-11 BMatP= 1.28D-10
 IDIUse=1 WtCom= 1.00D+00 WtEn= 0.00D+00
 Coeff-Com:  0.728D-03-0.168D-01-0.453D-01 0.129D-01 0.330D+00 0.719D+00
 Coeff:      0.728D-03-0.168D-01-0.453D-01 0.129D-01 0.330D+00 0.719D+00
 Gap=     0.320 Goal=   None    Shift=    0.000
 RMSDP=1.27D-08 MaxDP=4.59D-07 DE=-1.28D-10 OVMax= 1.06D-06

 Cycle  13  Pass 1  IDiag  1:
 RMSU=  7.68D-09    CP:  1.00D+00  1.01D+00  7.94D-01  1.17D+00  1.04D+00
                    CP:  9.94D-01
 E= -346.912070908677     Delta-E=       -0.000000000016 Rises=F Damp=F
 DIIS: error= 4.98D-08 at cycle   7 NSaved=   7.
 NSaved= 7 IEnMin= 7 EnMin= -346.912070908677     IErMin= 7 ErrMin= 4.98D-08
 ErrMax= 4.98D-08  0.00D+00 EMaxC= 1.00D-01 BMatC= 1.07D-12 BMatP= 1.38D-11
 IDIUse=1 WtCom= 1.00D+00 WtEn= 0.00D+00
 Coeff-Com:  0.345D-03-0.517D-02-0.142D-01-0.951D-02 0.683D-01 0.275D+00
 Coeff-Com:  0.685D+00
 Coeff:      0.345D-03-0.517D-02-0.142D-01-0.951D-02 0.683D-01 0.275D+00
 Coeff:      0.685D+00
 Gap=     0.320 Goal=   None    Shift=    0.000
 RMSDP=2.79D-09 MaxDP=1.20D-07 DE=-1.57D-11 OVMax= 5.34D-07

 SCF Done:  E(RM062X) =  -346.912070909     A.U. after   13 cycles
            NFock= 13  Conv=0.28D-08     -V/T= 2.0062
 KE= 3.447839160250D+02 PE=-1.437010918791D+03 EE= 4.319427056683D+02
 Leave Link  502 at Thu Sep 26 12:22:18 2019, MaxMem=   671088640 cpu:            1790.2 elap:             895.6
 (Enter /shared/centos7/gaussian/g16/l801.exe)
 DoSCS=F DFT=T ScalE2(SS,OS)=  1.000000  1.000000
 Range of M.O.s used for correlation:     1   350
 NBasis=   350 NAE=    28 NBE=    28 NFC=     0 NFV=     0
 NROrb=    350 NOA=    28 NOB=    28 NVA=   322 NVB=   322

 **** Warning!!: The largest alpha MO coefficient is  0.10200943D+02

 Leave Link  801 at Thu Sep 26 12:22:19 2019, MaxMem=   671088640 cpu:               1.8 elap:               0.9
 (Enter /shared/centos7/gaussian/g16/l1101.exe)
 Using compressed storage, NAtomX=    17.
 Will process     18 centers per pass.
 Leave Link 1101 at Thu Sep 26 12:22:50 2019, MaxMem=   671088640 cpu:              62.1 elap:              31.1
 (Enter /shared/centos7/gaussian/g16/l1102.exe)
 Symmetrizing basis deriv contribution to polar:
 IMax=3 JMax=2 DiffMx= 0.00D+00
 Leave Link 1102 at Thu Sep 26 12:22:53 2019, MaxMem=   671088640 cpu:               5.0 elap:               2.5
 (Enter /shared/centos7/gaussian/g16/l1110.exe)
 Forming Gx(P) for the SCF density, NAtomX=    17.
 Integral derivatives from FoFJK, PRISM(SPDF).
 Do as many integral derivatives as possible in FoFJK.
 G2DrvN: MDV=     671087280.
 G2DrvN: will do    18 centers at a time, making    1 passes.
 Calling FoFCou, ICntrl=  3107 FMM=F I1Cent=   0 AccDes= 0.00D+00.
 FoFJK:  IHMeth= 1 ICntrl=    3107 DoSepK=F KAlg= 0 I1Cent=           0 FoldK=F
 IRaf=         0 NMat=       1 IRICut=       1 DoRegI=T DoRafI=F ISym2E= 0 IDoP0=0 IntGTp=1.
 FoFCou: FMM=F IPFlag=           0 FMFlag=      100000 FMFlg1=           0
         NFxFlg=           0 DoJE=F BraDBF=F KetDBF=F FulRan=T
         wScrn=  0.000000 ICntrl=      3107 IOpCl=  0 I1Cent=           0 NGrid=           0
         NMat0=    1 NMatS0=      1 NMatT0=    0 NMatD0=    1 NMtDS0=    0 NMtDT0=    0
 Symmetry not used in FoFCou.
 End of G2Drv F.D. properties file   721 does not exist.
 End of G2Drv F.D. properties file   722 does not exist.
 End of G2Drv F.D. properties file   788 does not exist.
 Leave Link 1110 at Thu Sep 26 12:46:47 2019, MaxMem=   671088640 cpu:            2868.4 elap:            1434.5
 (Enter /shared/centos7/gaussian/g16/l1002.exe)
 Minotr:  Closed shell wavefunction.
          IDoAtm=11111111111111111
          Direct CPHF calculation.
          Differentiating once with respect to nuclear coordinates.
          Requested convergence is 1.0D-08 RMS, and 1.0D-07 maximum.
          Secondary convergence is 1.0D-12 RMS, and 1.0D-12 maximum.
          NewPWx=T KeepS1=F KeepF1=F KeepIn=T MapXYZ=F SortEE=F KeepMc=T.
         5123 words used for storage of precomputed grid.
 Two-electron integrals replicated using symmetry.
          MDV=     671088640 using IRadAn=       1.
          Solving linear equations simultaneously, MaxMat=     380.
 FoF2E skips out because all densities are zero.
 CalDSu exits because no D1Ps are significant.
 FoFJK:  IHMeth= 1 ICntrl=       0 DoSepK=F KAlg= 0 I1Cent=           0 FoldK=F
 IRaf= 920000000 NMat=      51 IRICut=     127 DoRegI=T DoRafI=T ISym2E= 2 IDoP0=3 IntGTp=3.
 FoFCou: FMM=F IPFlag=           0 FMFlag=      100000 FMFlg1=           0
         NFxFlg=           0 DoJE=F BraDBF=F KetDBF=F FulRan=T
         wScrn=  0.000000 ICntrl=         0 IOpCl=  0 I1Cent=           0 NGrid=           0
         NMat0=   51 NMatS0=     51 NMatT0=    0 NMatD0=   51 NMtDS0=    0 NMtDT0=    0
 Integrals replicated using symmetry in FoFCou.
 Raff kept on since  89.17% of shell-pairs survive, threshold=   0.20 IRatSp=89.
          There are    54 degrees of freedom in the 1st order CPHF.  IDoFFX=6 NUNeed=     0.
     48 vectors produced by pass  0 Test12= 1.67D-14 1.85D-09 XBig12= 6.88D-02 5.71D-02.
 AX will form    48 AO Fock derivatives at one time.
     48 vectors produced by pass  1 Test12= 1.67D-14 1.85D-09 XBig12= 9.06D-03 2.12D-02.
     48 vectors produced by pass  2 Test12= 1.67D-14 1.85D-09 XBig12= 2.62D-04 2.41D-03.
     48 vectors produced by pass  3 Test12= 1.67D-14 1.85D-09 XBig12= 3.01D-06 2.42D-04.
     48 vectors produced by pass  4 Test12= 1.67D-14 1.85D-09 XBig12= 2.37D-08 2.26D-05.
     48 vectors produced by pass  5 Test12= 1.67D-14 1.85D-09 XBig12= 1.17D-10 1.17D-06.
     24 vectors produced by pass  6 Test12= 1.67D-14 1.85D-09 XBig12= 4.75D-13 7.32D-08.
      4 vectors produced by pass  7 Test12= 1.67D-14 1.85D-09 XBig12= 1.93D-15 4.57D-09.
 InvSVY:  IOpt=1 It=  1 EMax= 2.50D-16
 Solved reduced A of dimension   316 with    54 vectors.
 End of Minotr F.D. properties file   721 does not exist.
 End of Minotr F.D. properties file   722 does not exist.
 End of Minotr F.D. properties file   788 does not exist.
 Leave Link 1002 at Thu Sep 26 13:28:17 2019, MaxMem=   671088640 cpu:            4977.9 elap:            2489.5
 (Enter /shared/centos7/gaussian/g16/l601.exe)
 Copying SCF densities to generalized density rwf, IOpCl= 0 IROHF=0.

 **********************************************************************

            Population analysis using the SCF density.

 **********************************************************************

 Orbital symmetries:
       Occupied  (A) (A) (A) (A) (A) (A) (A) (A) (A) (A) (A) (A)
                 (A) (A) (A) (A) (A) (A) (A) (A) (A) (A) (A) (A)
                 (A) (A) (A) (A)
       Virtual   (A) (A) (A) (A) (A) (A) (A) (A) (A) (A) (A) (A)
                 (A) (A) (A) (A) (A) (A) (A) (A) (A) (A) (A) (A)
                 (A) (A) (A) (A) (A) (A) (A) (A) (A) (A) (A) (A)
                 (A) (A) (A) (A) (A) (A) (A) (A) (A) (A) (A) (A)
                 (A) (A) (A) (A) (A) (A) (A) (A) (A) (A) (A) (A)
                 (A) (A) (A) (A) (A) (A) (A) (A) (A) (A) (A) (A)
                 (A) (A) (A) (A) (A) (A) (A) (A) (A) (A) (A) (A)
                 (A) (A) (A) (A) (A) (A) (A) (A) (A) (A) (A) (A)
                 (A) (A) (A) (A) (A) (A) (A) (A) (A) (A) (A) (A)
                 (A) (A) (A) (A) (A) (A) (A) (A) (A) (A) (A) (A)
                 (A) (A) (A) (A) (A) (A) (A) (A) (A) (A) (A) (A)
                 (A) (A) (A) (A) (A) (A) (A) (A) (A) (A) (A) (A)
                 (A) (A) (A) (A) (A) (A) (A) (A) (A) (A) (A) (A)
                 (A) (A) (A) (A) (A) (A) (A) (A) (A) (A) (A) (A)
                 (A) (A) (A) (A) (A) (A) (A) (A) (A) (A) (A) (A)
                 (A) (A) (A) (A) (A) (A) (A) (A) (A) (A) (A) (A)
                 (A) (A) (A) (A) (A) (A) (A) (A) (A) (A) (A) (A)
                 (A) (A) (A) (A) (A) (A) (A) (A) (A) (A) (A) (A)
                 (A) (A) (A) (A) (A) (A) (A) (A) (A) (A) (A) (A)
                 (A) (A) (A) (A) (A) (A) (A) (A) (A) (A) (A) (A)
                 (A) (A) (A) (A) (A) (A) (A) (A) (A) (A) (A) (A)
                 (A) (A) (A) (A) (A) (A) (A) (A) (A) (A) (A) (A)
                 (A) (A) (A) (A) (A) (A) (A) (A) (A) (A) (A) (A)
                 (A) (A) (A) (A) (A) (A) (A) (A) (A) (A) (A) (A)
                 (A) (A) (A) (A) (A) (A) (A) (A) (A) (A) (A) (A)
                 (A) (A) (A) (A) (A) (A) (A) (A) (A) (A) (A) (A)
                 (A) (A) (A) (A) (A) (A) (A) (A) (A) (A)
 The electronic state is 1-A.
 Alpha  occ. eigenvalues --  -19.64516 -19.63159 -10.59036 -10.58087 -10.57429
 Alpha  occ. eigenvalues --  -10.53315 -10.52709  -1.17581  -1.15376  -0.88977
 Alpha  occ. eigenvalues --   -0.84047  -0.77849  -0.69628  -0.63740  -0.60653
 Alpha  occ. eigenvalues --   -0.56524  -0.54887  -0.52920  -0.50453  -0.46326
 Alpha  occ. eigenvalues --   -0.45807  -0.44642  -0.42902  -0.42186  -0.41084
 Alpha  occ. eigenvalues --   -0.38969  -0.34670  -0.27076
 Alpha virt. eigenvalues --    0.04948   0.07256   0.08425   0.09650   0.10817
 Alpha virt. eigenvalues --    0.11707   0.13020   0.13745   0.14967   0.16270
 Alpha virt. eigenvalues --    0.17484   0.18420   0.22401   0.24275   0.25824
 Alpha virt. eigenvalues --    0.27854   0.29198   0.32296   0.33060   0.34124
 Alpha virt. eigenvalues --    0.34598   0.36174   0.37899   0.38567   0.40443
 Alpha virt. eigenvalues --    0.40981   0.41246   0.44602   0.45293   0.46571
 Alpha virt. eigenvalues --    0.47083   0.48196   0.49072   0.49698   0.49889
 Alpha virt. eigenvalues --    0.50841   0.53101   0.53324   0.54050   0.54159
 Alpha virt. eigenvalues --    0.55907   0.58065   0.59085   0.59682   0.61298
 Alpha virt. eigenvalues --    0.63866   0.65592   0.67461   0.69905   0.71675
 Alpha virt. eigenvalues --    0.72963   0.75223   0.78773   0.80134   0.82799
 Alpha virt. eigenvalues --    0.83587   0.85982   0.87470   0.89746   0.91162
 Alpha virt. eigenvalues --    0.94038   0.95665   0.97143   0.97863   1.00735
 Alpha virt. eigenvalues --    1.01178   1.03391   1.04131   1.05321   1.06427
 Alpha virt. eigenvalues --    1.08097   1.09085   1.10732   1.11701   1.12835
 Alpha virt. eigenvalues --    1.13661   1.15251   1.16858   1.18206   1.21271
 Alpha virt. eigenvalues --    1.21943   1.23856   1.25257   1.25740   1.26985
 Alpha virt. eigenvalues --    1.29203   1.31095   1.32143   1.32884   1.35587
 Alpha virt. eigenvalues --    1.35879   1.37036   1.37801   1.39173   1.40554
 Alpha virt. eigenvalues --    1.42378   1.44592   1.46786   1.50499   1.51620
 Alpha virt. eigenvalues --    1.53409   1.54499   1.55693   1.57134   1.60005
 Alpha virt. eigenvalues --    1.63556   1.63924   1.66204   1.71688   1.86204
 Alpha virt. eigenvalues --    1.87910   1.95972   2.00200   2.02592   2.07954
 Alpha virt. eigenvalues --    2.08521   2.10868   2.13997   2.15619   2.17967
 Alpha virt. eigenvalues --    2.21454   2.25901   2.27484   2.31260   2.33318
 Alpha virt. eigenvalues --    2.35476   2.37934   2.39776   2.42709   2.43356
 Alpha virt. eigenvalues --    2.45664   2.50820   2.54589   2.56970   2.57968
 Alpha virt. eigenvalues --    2.59394   2.60857   2.64709   2.66874   2.69088
 Alpha virt. eigenvalues --    2.70628   2.74240   2.76005   2.77978   2.81360
 Alpha virt. eigenvalues --    2.81923   2.82655   2.84496   2.85676   2.86374
 Alpha virt. eigenvalues --    2.88230   2.89029   2.91718   2.92685   2.95745
 Alpha virt. eigenvalues --    2.95861   2.98111   2.98480   2.98732   3.00145
 Alpha virt. eigenvalues --    3.00969   3.02845   3.04229   3.05529   3.07881
 Alpha virt. eigenvalues --    3.08665   3.09389   3.10755   3.12568   3.14975
 Alpha virt. eigenvalues --    3.15277   3.17099   3.19910   3.20314   3.21590
 Alpha virt. eigenvalues --    3.23311   3.25147   3.26785   3.28074   3.30609
 Alpha virt. eigenvalues --    3.31680   3.32896   3.33802   3.34727   3.37156
 Alpha virt. eigenvalues --    3.38812   3.39559   3.40559   3.43307   3.44458
 Alpha virt. eigenvalues --    3.45214   3.46681   3.48079   3.51076   3.52803
 Alpha virt. eigenvalues --    3.53672   3.53897   3.57863   3.59651   3.61146
 Alpha virt. eigenvalues --    3.62450   3.63058   3.65431   3.68685   3.73438
 Alpha virt. eigenvalues --    3.73758   3.74492   3.75531   3.76229   3.78092
 Alpha virt. eigenvalues --    3.80118   3.82338   3.83242   3.84572   3.86101
 Alpha virt. eigenvalues --    3.88019   3.88533   3.90880   3.92696   3.94474
 Alpha virt. eigenvalues --    3.95974   3.97028   3.99588   4.00446   4.03212
 Alpha virt. eigenvalues --    4.04970   4.05507   4.05881   4.08098   4.08734
 Alpha virt. eigenvalues --    4.10998   4.11802   4.15436   4.16515   4.16725
 Alpha virt. eigenvalues --    4.17376   4.19601   4.21938   4.27762   4.29562
 Alpha virt. eigenvalues --    4.30167   4.32176   4.36230   4.39876   4.41257
 Alpha virt. eigenvalues --    4.43633   4.45066   4.46841   4.52094   4.53578
 Alpha virt. eigenvalues --    4.56205   4.60710   4.63662   4.65002   4.68323
 Alpha virt. eigenvalues --    4.70107   4.71200   4.73635   4.76718   4.81880
 Alpha virt. eigenvalues --    4.83568   4.86801   4.89776   4.90486   4.92928
 Alpha virt. eigenvalues --    4.95260   4.98099   4.99421   5.04460   5.05452
 Alpha virt. eigenvalues --    5.06709   5.09189   5.10753   5.13453   5.13693
 Alpha virt. eigenvalues --    5.19736   5.22335   5.22717   5.25143   5.27590
 Alpha virt. eigenvalues --    5.28982   5.31854   5.34253   5.40243   5.46421
 Alpha virt. eigenvalues --    5.52039   5.59157   5.62083   5.67954   5.75219
 Alpha virt. eigenvalues --    5.76764   5.79006   5.79802   5.82396   5.85447
 Alpha virt. eigenvalues --    5.93773   6.03604   6.06827   6.17428   6.28271
 Alpha virt. eigenvalues --    6.33185   6.48814   6.54494   6.58352   6.70038
 Alpha virt. eigenvalues --    6.72391   6.75870   6.79136   6.81594   7.02591
 Alpha virt. eigenvalues --    7.10645   7.19693   7.27105   7.30454   7.42701
 Alpha virt. eigenvalues --   10.14346  10.91633  11.55163  11.86929  12.88344
 Alpha virt. eigenvalues --   13.39300  14.46985
          Condensed to atoms (all electrons):
               1          2          3          4          5          6
     1  O    7.849289   0.004427   0.313422  -0.054932  -0.045377   0.321311
     2  O    0.004427   7.764372   0.002812   0.000023   0.000115  -0.089121
     3  C    0.313422   0.002812   4.873248   0.318587   0.316118  -0.088282
     4  C   -0.054932   0.000023   0.318587   5.046061  -0.057119  -0.008909
     5  C   -0.045377   0.000115   0.316118  -0.057119   5.112428  -0.050172
     6  C    0.321311  -0.089121  -0.088282  -0.008909  -0.050172   5.129087
     7  C   -0.057377   0.372068  -0.002725  -0.000754  -0.008864   0.465631
     8  H   -0.042308  -0.000169   0.408229  -0.067734  -0.060871   0.012859
     9  H    0.005064   0.000007  -0.035240   0.378493   0.003369   0.002193
    10  H    0.002488  -0.000001  -0.037080   0.398896   0.006348  -0.000075
    11  H    0.004291  -0.000000  -0.045226   0.392599  -0.007854   0.000648
    12  H    0.004073  -0.000009  -0.044905  -0.014862   0.391786   0.001352
    13  H   -0.011235  -0.000429  -0.045734   0.005356   0.398573   0.013346
    14  H    0.003444   0.000003  -0.031412   0.003748   0.394083   0.002828
    15  H   -0.044139   0.002942   0.008356   0.001763   0.000279   0.425439
    16  H    0.004818  -0.053427   0.000769   0.000074  -0.000287  -0.100481
    17  H   -0.000175   0.326017  -0.000073   0.000000   0.000055   0.016052
               7          8          9         10         11         12
     1  O   -0.057377  -0.042308   0.005064   0.002488   0.004291   0.004073
     2  O    0.372068  -0.000169   0.000007  -0.000001  -0.000000  -0.000009
     3  C   -0.002725   0.408229  -0.035240  -0.037080  -0.045226  -0.044905
     4  C   -0.000754  -0.067734   0.378493   0.398896   0.392599  -0.014862
     5  C   -0.008864  -0.060871   0.003369   0.006348  -0.007854   0.391786
     6  C    0.465631   0.012859   0.002193  -0.000075   0.000648   0.001352
     7  C    4.931924   0.003934   0.000079   0.000043   0.000069   0.000981
     8  H    0.003934   0.633795   0.006842  -0.010899   0.006409   0.009805
     9  H    0.000079   0.006842   0.566875  -0.025564  -0.029558   0.001902
    10  H    0.000043  -0.010899  -0.025564   0.587742  -0.036351   0.000562
    11  H    0.000069   0.006409  -0.029558  -0.036351   0.618303  -0.000214
    12  H    0.000981   0.009805   0.001902   0.000562  -0.000214   0.611093
    13  H    0.004642   0.002353  -0.000207  -0.000493   0.001287  -0.037579
    14  H    0.000055  -0.015296  -0.000353  -0.000127  -0.000673  -0.031774
    15  H   -0.096661  -0.002034   0.000082  -0.000074  -0.000433  -0.003449
    16  H    0.440859  -0.000016  -0.000004  -0.000002  -0.000005  -0.000024
    17  H   -0.043406  -0.000010  -0.000001   0.000000   0.000000   0.000001
              13         14         15         16         17
     1  O   -0.011235   0.003444  -0.044139   0.004818  -0.000175
     2  O   -0.000429   0.000003   0.002942  -0.053427   0.326017
     3  C   -0.045734  -0.031412   0.008356   0.000769  -0.000073
     4  C    0.005356   0.003748   0.001763   0.000074   0.000000
     5  C    0.398573   0.394083   0.000279  -0.000287   0.000055
     6  C    0.013346   0.002828   0.425439  -0.100481   0.016052
     7  C    0.004642   0.000055  -0.096661   0.440859  -0.043406
     8  H    0.002353  -0.015296  -0.002034  -0.000016  -0.000010
     9  H   -0.000207  -0.000353   0.000082  -0.000004  -0.000001
    10  H   -0.000493  -0.000127  -0.000074  -0.000002   0.000000
    11  H    0.001287  -0.000673  -0.000433  -0.000005   0.000000
    12  H   -0.037579  -0.031774  -0.003449  -0.000024   0.000001
    13  H    0.583276  -0.025333  -0.011496   0.000373  -0.000036
    14  H   -0.025333   0.580098   0.000408  -0.000009  -0.000001
    15  H   -0.011496   0.000408   0.593332  -0.001675  -0.000396
    16  H    0.000373  -0.000009  -0.001675   0.623520  -0.014139
    17  H   -0.000036  -0.000001  -0.000396  -0.014139   0.455190
 Mulliken charges:
               1
     1  O   -0.257084
     2  O   -0.329629
     3  C    0.089138
     4  C   -0.341290
     5  C   -0.392610
     6  C   -0.053705
     7  C   -0.010497
     8  H    0.115112
     9  H    0.126022
    10  H    0.114589
    11  H    0.096709
    12  H    0.111261
    13  H    0.123337
    14  H    0.120312
    15  H    0.127756
    16  H    0.099657
    17  H    0.260922
 Sum of Mulliken charges =  -0.00000
 Mulliken charges with hydrogens summed into heavy atoms:
               1
     1  O   -0.257084
     2  O   -0.068708
     3  C    0.204250
     4  C   -0.003969
     5  C   -0.037700
     6  C    0.074051
     7  C    0.089160
 APT charges:
               1
     1  O   -0.206180
     2  O   -0.889793
     3  C   -0.104458
     4  C   -1.238734
     5  C   -1.108687
     6  C   -0.409549
     7  C   -0.286457
     8  H    0.350996
     9  H    0.285875
    10  H    0.458267
    11  H    0.425671
    12  H    0.386546
    13  H    0.201530
    14  H    0.448484
    15  H    0.321565
    16  H    0.463254
    17  H    0.901670
 Sum of APT charges =  -0.00000
 APT charges with hydrogens summed into heavy atoms:
               1
     1  O   -0.206180
     2  O    0.011877
     3  C    0.246538
     4  C   -0.068921
     5  C   -0.072127
     6  C   -0.087984
     7  C    0.176797
 Electronic spatial extent (au):  <R**2>=           1006.1642
 Charge=             -0.0000 electrons
 Dipole moment (field-independent basis, Debye):
    X=              0.5610    Y=              2.2950    Z=             -0.2005  Tot=              2.3711
 Quadrupole moment (field-independent basis, Debye-Ang):
   XX=            -32.6984   YY=            -45.7697   ZZ=            -43.7871
   XY=              3.7467   XZ=             -0.3981   YZ=             -0.8453
 Traceless Quadrupole moment (field-independent basis, Debye-Ang):
   XX=              8.0533   YY=             -5.0179   ZZ=             -3.0354
   XY=              3.7467   XZ=             -0.3981   YZ=             -0.8453
 Octapole moment (field-independent basis, Debye-Ang**2):
  XXX=             62.3457  YYY=             -4.4236  ZZZ=              3.8647  XYY=              1.5828
  XXY=              7.2138  XXZ=              6.2266  XZZ=              2.1199  YZZ=             -0.3424
  YYZ=             -0.4214  XYZ=             -0.1114
 Hexadecapole moment (field-independent basis, Debye-Ang**3):
 XXXX=           -759.9139 YYYY=           -237.7856 ZZZZ=           -121.4526 XXXY=             15.1653
 XXXZ=             33.0956 YYYX=              0.4298 YYYZ=             -3.4179 ZZZX=              6.3465
 ZZZY=             -1.8931 XXYY=           -204.6889 XXZZ=           -178.4371 YYZZ=            -55.6221
 XXYZ=             -4.5420 YYXZ=             -1.8795 ZZXY=             -0.0811
 N-N= 3.133722261891D+02 E-N=-1.437010913450D+03  KE= 3.447839160250D+02
  Exact polarizability:   0.000   0.000   0.000   0.000   0.000   0.000
 Approx polarizability:  96.396   0.508  72.370   2.779  -3.905  72.303
 No NMR shielding tensors so no spin-rotation constants.
 Leave Link  601 at Thu Sep 26 13:28:41 2019, MaxMem=   671088640 cpu:              49.1 elap:              24.6
 (Enter /shared/centos7/gaussian/g16/l701.exe)
 SCFChk:  SCF convergence  2.79D-09 required  1.00D-08
 ... and contract with generalized density number  0.
 Compute integral second derivatives.
 Entering OneElI...
 Calculate overlap and kinetic energy integrals
    NBasis = 395  MinDer = 2  MaxDer = 2
 Requested accuracy = 0.1000D-12
 PrmmSu-InSpLW:  IPartL=    0 NPrtUS=   20 NPrtUL=    1 DoSpLW=F IThBeg=    0 IThEnd=   19 NThAct=   20.
 PrsmSu:  NPrtUS=  20 ThrOK=T IAlg=1 NPAlg=1 LenDen=           0 ISkipM=0 DoSpLW=F IThBeg=    0 IThEnd=   19.
 Prism:   IPart=     0 DynPar=F LinDyn=F Incr=           4.
 PRISM was handed    33314957 working-precision words and  8361 shell-pairs
 PRISM was handed    33314957 working-precision words and  8361 shell-pairs
 PRISM was handed    33314957 working-precision words and  8361 shell-pairs
 PRISM was handed    33314957 working-precision words and  8361 shell-pairs
 PRISM was handed    33314957 working-precision words and  8361 shell-pairs
 PRISM was handed    33314957 working-precision words and  8361 shell-pairs
 PRISM was handed    33314957 working-precision words and  8361 shell-pairs
 PRISM was handed    33314957 working-precision words and  8361 shell-pairs
 PRISM was handed    33314957 working-precision words and  8361 shell-pairs
 PRISM was handed    33314957 working-precision words and  8361 shell-pairs
 PRISM was handed    33314957 working-precision words and  8361 shell-pairs
 PRISM was handed    33314957 working-precision words and  8361 shell-pairs
 PRISM was handed    33314957 working-precision words and  8361 shell-pairs
 PRISM was handed    33314957 working-precision words and  8361 shell-pairs
 PRISM was handed    33314957 working-precision words and  8361 shell-pairs
 IPart= 16 NShTot=         394 NBatch=          37 AvBLen=        10.6
 IPart=  0 NShTot=         462 NBatch=          83 AvBLen=         5.6
 IPart=  5 NShTot=         435 NBatch=          61 AvBLen=         7.1
 PRISM was handed    33314957 working-precision words and  8361 shell-pairs
 PRISM was handed    33314957 working-precision words and  8361 shell-pairs
 PRISM was handed    33314957 working-precision words and  8361 shell-pairs
 IPart=  8 NShTot=         415 NBatch=          50 AvBLen=         8.3
 PRISM was handed    33314957 working-precision words and  8361 shell-pairs
 IPart=  6 NShTot=         431 NBatch=          60 AvBLen=         7.2
 PRISM was handed    33314957 working-precision words and  8361 shell-pairs
 IPart=  3 NShTot=         446 NBatch=          70 AvBLen=         6.4
 IPart= 19 NShTot=         390 NBatch=          35 AvBLen=        11.1
 IPart= 14 NShTot=         398 NBatch=          39 AvBLen=        10.2
 IPart= 15 NShTot=         397 NBatch=          38 AvBLen=        10.4
 IPart=  2 NShTot=         452 NBatch=          75 AvBLen=         6.0
 IPart=  9 NShTot=         414 NBatch=          49 AvBLen=         8.4
 IPart=  7 NShTot=         417 NBatch=          51 AvBLen=         8.2
 IPart=  4 NShTot=         442 NBatch=          67 AvBLen=         6.6
 IPart= 17 NShTot=         393 NBatch=          36 AvBLen=        10.9
 IPart=  1 NShTot=         459 NBatch=          81 AvBLen=         5.7
 IPart= 13 NShTot=         401 NBatch=          41 AvBLen=         9.8
 IPart= 12 NShTot=         403 NBatch=          43 AvBLen=         9.4
 IPart= 11 NShTot=         409 NBatch=          47 AvBLen=         8.7
 IPart= 10 NShTot=         412 NBatch=          48 AvBLen=         8.6
 IPart= 18 NShTot=         391 NBatch=          35 AvBLen=        11.2
 PrSmSu:  NxtVal=             81.
 Entering OneElI...
 Calculate potential energy integrals
    NBasis = 395  MinDer = 2  MaxDer = 2
 Requested accuracy = 0.1000D-12
 PrmmSu-InSpLW:  IPartL=    0 NPrtUS=   20 NPrtUL=    1 DoSpLW=F IThBeg=    0 IThEnd=   19 NThAct=   20.
 PrsmSu:  NPrtUS=  20 ThrOK=T IAlg=1 NPAlg=1 LenDen=           0 ISkipM=0 DoSpLW=F IThBeg=    0 IThEnd=   19.
 Prism:   IPart=     0 DynPar=F LinDyn=F Incr=          64.
 PRISM was handed    33359812 working-precision words and  7548 shell-pairs
 PRISM was handed    33359812 working-precision words and  7548 shell-pairs
 PRISM was handed    33359812 working-precision words and  7548 shell-pairs
 PRISM was handed    33359812 working-precision words and  7548 shell-pairs
 PRISM was handed    33359812 working-precision words and  7548 shell-pairs
 PRISM was handed    33359812 working-precision words and  7548 shell-pairs
 PRISM was handed    33359812 working-precision words and  7548 shell-pairs
 PRISM was handed    33359812 working-precision words and  7548 shell-pairs
 PRISM was handed    33359812 working-precision words and  7548 shell-pairs
 PRISM was handed    33359812 working-precision words and  7548 shell-pairs
 PRISM was handed    33359812 working-precision words and  7548 shell-pairs
 PRISM was handed    33359812 working-precision words and  7548 shell-pairs
 PRISM was handed    33359812 working-precision words and  7548 shell-pairs
 PRISM was handed    33359812 working-precision words and  7548 shell-pairs
 PRISM was handed    33359812 working-precision words and  7548 shell-pairs
 PRISM was handed    33359812 working-precision words and  7548 shell-pairs
 PRISM was handed    33359812 working-precision words and  7548 shell-pairs
 PRISM was handed    33359812 working-precision words and  7548 shell-pairs
 PRISM was handed    33359812 working-precision words and  7548 shell-pairs
 PRISM was handed    33359812 working-precision words and  7548 shell-pairs
 IPart= 10 NShTot=        6307 NBatch=         371 AvBLen=        17.0
 IPart=  4 NShTot=        6749 NBatch=         397 AvBLen=        17.0
 IPart=  7 NShTot=        6375 NBatch=         375 AvBLen=        17.0
 IPart= 19 NShTot=        6052 NBatch=         356 AvBLen=        17.0
 IPart= 18 NShTot=        6052 NBatch=         356 AvBLen=        17.0
 IPart= 11 NShTot=        6273 NBatch=         369 AvBLen=        17.0
 IPart= 15 NShTot=        6103 NBatch=         359 AvBLen=        17.0
 IPart=  8 NShTot=        6375 NBatch=         375 AvBLen=        17.0
 IPart=  6 NShTot=        6562 NBatch=         386 AvBLen=        17.0
 IPart= 16 NShTot=        6086 NBatch=         358 AvBLen=        17.0
 IPart= 17 NShTot=        6052 NBatch=         356 AvBLen=        17.0
 IPart=  9 NShTot=        6324 NBatch=         372 AvBLen=        17.0
 IPart= 13 NShTot=        6171 NBatch=         363 AvBLen=        17.0
 IPart= 12 NShTot=        6222 NBatch=         366 AvBLen=        17.0
 IPart= 14 NShTot=        6154 NBatch=         362 AvBLen=        17.0
 IPart=  0 NShTot=        7106 NBatch=         418 AvBLen=        17.0
 IPart=  1 NShTot=        7004 NBatch=         412 AvBLen=        17.0
 IPart=  5 NShTot=        6647 NBatch=         391 AvBLen=        17.0
 IPart=  2 NShTot=        6919 NBatch=         407 AvBLen=        17.0
 IPart=  3 NShTot=        6783 NBatch=         399 AvBLen=        17.0
 PrSmSu:  NxtVal=           1281.
 Polarizability after L701:
                1             2             3 
      1  0.000000D+00
      2  0.000000D+00  0.000000D+00
      3  0.000000D+00  0.000000D+00  0.000000D+00
 Dipole Derivatives after L701:
                 1             2             3             4             5 
      1  -0.219152D+00  0.246634D-01  0.135377D-01 -0.210927D+01 -0.863926D+00
      2   0.653000D-01 -0.102068D+00 -0.391958D-01  0.400061D-01 -0.228627D+00
      3   0.680454D-01  0.323849D-01 -0.297318D+00 -0.291955D+00 -0.200426D+00
                 6             7             8             9            10 
      1   0.179302D-01  0.154330D+00 -0.127136D+00  0.764303D+00 -0.181599D+01
      2  -0.117883D+00  0.178883D+00  0.126687D+00  0.162159D+00 -0.240165D+00
      3  -0.331486D+00  0.899314D-03  0.212268D+00 -0.594393D+00  0.303800D-01
                11            12            13            14            15 
      1  -0.557955D+00 -0.510210D+00 -0.104913D+01  0.852239D+00 -0.914282D-01
      2  -0.104302D+01 -0.898749D-01  0.167251D+00 -0.135715D+01 -0.272590D-01
      3   0.608196D-01 -0.857195D+00 -0.888423D-03 -0.261822D+00 -0.919783D+00
                16            17            18            19            20 
      1  -0.676620D+00 -0.266458D+00 -0.501671D-01 -0.861686D-01 -0.362525D+00
      2  -0.202440D+00 -0.358863D+00  0.286224D+00 -0.127602D+00 -0.441693D+00
      3  -0.168775D-01  0.345933D+00 -0.193164D+00 -0.987304D-01  0.419886D+00
                21            22            23            24            25 
      1   0.183600D+00  0.206504D+00  0.102773D+00 -0.459331D+00 -0.362430D-01
      2   0.405290D+00 -0.657422D-02  0.201254D+00 -0.143409D+00 -0.114364D+00
      3  -0.331509D+00 -0.194547D-01 -0.131002D+00  0.645230D+00 -0.126953D+00
                26            27            28            29            30 
      1   0.345747D+00  0.632190D+00  0.570220D+00  0.712202D+00 -0.642432D+00
      2   0.353999D+00  0.477581D+00  0.277070D+00  0.539681D+00 -0.418593D+00
      3   0.244400D+00  0.539868D+00 -0.654437D-01 -0.155483D+00  0.264899D+00
                31            32            33            34            35 
      1   0.101095D+01 -0.722335D+00  0.349746D+00  0.573260D+00 -0.210162D+00
      2  -0.368687D-03  0.143053D+00  0.851248D-02 -0.347714D+00  0.293198D+00
      3   0.145031D+00 -0.116855D+00  0.123009D+00  0.158607D+00 -0.574787D-01
                36            37            38            39            40 
      1   0.572308D+00  0.474037D-01 -0.723124D-01  0.390575D-01  0.410076D+00
      2  -0.426269D+00  0.588046D+00  0.454929D+00 -0.158353D+00 -0.284171D+00
      3   0.293180D+00  0.679656D-01  0.677340D-01  0.102256D+00 -0.228437D+00
                41            42            43            44            45 
      1  -0.264495D+00 -0.636345D+00  0.122297D+00  0.132812D+00 -0.437132D-01
      2   0.348671D+00  0.539208D+00 -0.156774D+00  0.423044D+00 -0.225033D+00
      3   0.159961D+00  0.586705D+00  0.259434D+00 -0.426521D+00  0.419353D+00
                46            47            48            49            50 
      1   0.806257D+00  0.754383D+00 -0.432788D+00  0.209127D+01  0.522485D+00
      2   0.249442D+00  0.366483D+00 -0.206570D+00 -0.858272D-01  0.280413D+00
      3  -0.194735D+00 -0.272506D+00  0.217022D+00  0.313112D+00  0.787073D-01
                51 
      1   0.293742D+00
      2  -0.265359D-01
      3   0.333326D+00
 Hessian after L701:
                1             2             3             4             5 
      1  0.519764D+01
      2 -0.146587D+01  0.135653D+02
      3  0.437554D+01  0.129242D+01  0.168482D+02
      4  0.840488D+00  0.555105D-01  0.332411D+00  0.599807D+01
      5  0.256778D-01 -0.466420D+00 -0.253061D-01  0.156387D+01  0.112320D+02
      6  0.377673D+00 -0.170184D-01 -0.391341D+00 -0.405251D+01  0.316472D+01
      7 -0.184317D+01 -0.241019D+01 -0.275670D+01  0.287703D+00 -0.577702D-01
      8 -0.226161D+01 -0.801026D+01  0.750689D+00 -0.638845D-01 -0.111551D+00
      9 -0.271344D+01  0.740487D+00 -0.806280D+01  0.516253D-01 -0.132520D-01
     10  0.394121D+00  0.207188D+00  0.376766D+00  0.840704D-01  0.491672D-02
     11  0.130151D+00 -0.140553D+00  0.637308D-01 -0.175845D-02 -0.545376D-01
     12  0.258885D+00  0.597429D-01 -0.141766D+00  0.145646D-01  0.212218D-02
     13 -0.592701D-01 -0.376138D+00  0.370348D-01  0.105619D+00 -0.104305D+00
     14 -0.307727D+00  0.551636D+00  0.263726D-01 -0.662266D-01 -0.587141D-01
     15  0.119719D-01  0.766769D-01 -0.185108D+00  0.840117D-02 -0.680184D-02
     16 -0.531394D+01  0.431453D+01 -0.294881D+01  0.333382D+00  0.606841D-01
     17  0.414954D+01 -0.529185D+01 -0.246024D+01  0.250362D+00 -0.156107D+00
     18 -0.298607D+01 -0.257675D+01 -0.834585D+01 -0.429006D+00  0.506811D+00
     19  0.476077D+00 -0.105737D+00  0.216958D+00 -0.671029D+01 -0.286341D+01
     20 -0.134110D+00 -0.254193D+00  0.352419D+00 -0.299832D+01 -0.492160D+01
     21  0.239810D+00  0.355820D+00 -0.101361D+00  0.318294D+01 -0.386294D+01
     22 -0.332723D+00  0.836595D-01  0.264312D+00  0.192789D-01 -0.478601D-02
     23  0.812130D-01  0.143668D+00 -0.764061D-01  0.396815D-02 -0.159583D-01
     24  0.269016D+00 -0.494399D-01  0.353765D+00 -0.299162D-01  0.508713D-02
     25  0.634898D-01  0.225102D-02  0.268111D-01  0.103963D-01  0.213867D-02
     26  0.486734D-01 -0.863447D-01  0.128809D-01  0.867431D-02 -0.752678D-02
     27  0.989046D-01  0.120969D-01 -0.530014D-01  0.174653D-01  0.111664D-02
     28  0.106563D+00  0.613928D-01 -0.411196D-01  0.146397D-01  0.266248D-02
     29  0.823485D-01 -0.184393D-01 -0.220682D-01  0.957468D-02 -0.514010D-02
     30 -0.583835D-01 -0.240154D-01 -0.319589D-01 -0.606684D-02 -0.558620D-03
     31  0.148140D+00 -0.534826D-01  0.155651D-01  0.140020D-01 -0.439653D-02
     32 -0.515527D-01 -0.323499D-01 -0.574491D-02 -0.518678D-02 -0.236802D-02
     33  0.258514D-01 -0.682884D-02 -0.475605D-01  0.472958D-02 -0.134069D-02
     34  0.438825D-01 -0.111000D+00  0.179434D-01  0.130129D-01 -0.128795D-01
     35 -0.947534D-01  0.568608D-01 -0.128656D-01 -0.100456D-01 -0.305388D-03
     36  0.307140D-01 -0.342812D-01 -0.453381D-01  0.921931D-02 -0.734410D-02
     37 -0.559074D-02  0.492240D-01 -0.145078D-02 -0.705879D-02 -0.763310D-02
     38 -0.949016D-02  0.501025D-01  0.404205D-01 -0.301931D-01  0.150058D-01
     39 -0.341434D-02  0.965094D-02  0.488861D-02  0.542596D-02 -0.614557D-02
     40  0.152309D-01 -0.783044D-01 -0.481719D-01  0.129734D-01 -0.142396D-01
     41 -0.730394D-01  0.449708D-01  0.546089D-01 -0.120759D-01  0.647502D-03
     42 -0.611629D-01  0.760836D-01  0.510032D-02 -0.113157D-01  0.953618D-02
     43  0.965338D-01 -0.288210D+00  0.181875D+00  0.326136D-01 -0.549616D-01
     44 -0.246587D+00 -0.125103D+00  0.450864D-01 -0.680933D-01  0.129183D-01
     45  0.182059D+00  0.116212D+00  0.234095D+00  0.714379D-01 -0.458568D-01
     46  0.100301D+00  0.981450D-01 -0.604569D-01  0.233740D+00  0.974369D-01
     47  0.112804D+00  0.248120D-01 -0.374608D-01  0.141302D+00 -0.423441D-01
     48 -0.645733D-01 -0.331458D-01 -0.253446D-01 -0.116400D+00  0.183339D+00
     49  0.722241D-01  0.170283D-01  0.114894D-01 -0.128263D+01  0.136699D+01
     50  0.143380D-01 -0.118043D-01  0.146786D-02  0.122252D+01 -0.541801D+01
     51  0.166254D-01  0.229910D-02 -0.145825D-01  0.946999D+00  0.968112D-01
                6             7             8             9            10 
      6  0.114642D+02
      7  0.415991D-01  0.148050D+02
      8 -0.581441D-02  0.129331D+01  0.194244D+02
      9 -0.128824D+00  0.197510D+01 -0.851135D+00  0.209468D+02
     10  0.260858D-01 -0.291305D+01  0.173366D+01  0.140897D+01  0.117279D+02
     11 -0.545377D-03  0.172940D+01 -0.489161D+01  0.740169D+00 -0.142925D+01
     12 -0.543770D-01  0.138616D+01  0.755525D+00 -0.516476D+01 -0.846525D+00
     13  0.108334D-01 -0.637343D+01 -0.740251D+00 -0.603568D-01 -0.103908D-01
     14 -0.449498D-02 -0.678406D+00 -0.184823D+01  0.153254D+00  0.771392D-01
     15 -0.835003D-01 -0.458829D-01  0.133939D+00 -0.634692D+01  0.188957D-01
     16 -0.317840D+00  0.236391D+00 -0.324371D-01 -0.128528D+00  0.126369D+00
     17  0.539678D+00  0.483923D-01  0.752806D-01  0.781104D-02  0.721002D-01
     18 -0.254279D+00 -0.186105D+00  0.291334D-01  0.200480D+00 -0.214128D-01
     19  0.307076D+01  0.217869D+00 -0.316766D-01 -0.122823D+00  0.739442D-01
     20 -0.383274D+01 -0.102584D-02 -0.131065D+00  0.314974D-02  0.269915D-01
     21 -0.488609D+01 -0.130972D+00  0.113657D-01 -0.696262D-01  0.838171D-03
     22 -0.101529D-01 -0.460016D+01  0.357714D-01 -0.190656D+00  0.319055D-01
     23 -0.107160D-02 -0.436363D-02 -0.441437D+01 -0.672574D+00 -0.680825D-01
     24 -0.691810D-02 -0.518728D-01 -0.692673D+00 -0.192028D+01 -0.276219D+00
     25  0.664551D-02  0.524991D-01 -0.540683D-01 -0.848125D-01 -0.380618D+01
     26  0.456404D-02 -0.245247D-01  0.382059D-01 -0.530500D-01 -0.367323D+00
     27  0.874604D-03 -0.338239D-01 -0.206012D-01  0.263147D-01 -0.617907D+00
     28  0.111944D-02 -0.118252D-02 -0.614772D-01 -0.260779D-01 -0.343094D+01
     29  0.237407D-03 -0.471878D-01  0.307347D-01 -0.433743D-01  0.668351D+00
     30 -0.595112D-02 -0.380638D-01 -0.550891D-01  0.922111D-01 -0.566583D+00
     31  0.452134D-02 -0.135748D+00 -0.957907D-02 -0.713599D-01 -0.232158D+01
     32 -0.162369D-02 -0.516264D-01  0.128351D+00 -0.114263D-01 -0.106240D+01
     33 -0.385344D-02 -0.567547D-01  0.253087D-02  0.818793D-01  0.503339D+00
     34  0.636330D-02  0.854371D-01  0.106823D+00 -0.113690D-01  0.114089D-01
     35 -0.309118D-02  0.112982D+00 -0.137854D+00  0.868309D-01 -0.256142D-01
     36 -0.305384D-02 -0.104544D-02  0.518368D-01  0.138856D+00  0.141538D-01
     37 -0.298046D-02  0.139877D+00 -0.251464D-01  0.102453D-01  0.312368D-01
     38 -0.216960D-02 -0.106297D+00 -0.833994D-01  0.275039D-01  0.912848D-01
     39 -0.145253D-01 -0.942174D-02 -0.179741D-01  0.107607D+00  0.950970D-02
     40 -0.447380D-02  0.172887D-01  0.672665D-01  0.425291D-02 -0.395026D-01
     41  0.159493D-02  0.850390D-01 -0.490215D-01 -0.338197D-01  0.108190D-01
     42 -0.470966D-02  0.122250D-01 -0.115418D-01  0.869703D-01  0.469797D-02
     43  0.740888D-01 -0.389263D-01  0.399464D-01 -0.399984D-01  0.184244D-01
     44 -0.614220D-01  0.836889D-01 -0.544896D-02 -0.803622D-01  0.478379D-01
     45  0.306642D-01 -0.866395D-01 -0.751848D-01  0.241026D-01 -0.328714D-01
     46 -0.828772D-01  0.350876D-01  0.797707D-02 -0.113908D-01  0.111538D-01
     47  0.173048D+00  0.231644D-01 -0.830554D-02 -0.228799D-02  0.985375D-02
     48  0.406765D-01 -0.211002D-01 -0.454213D-02 -0.817387D-02 -0.407557D-02
     49  0.851146D+00  0.284717D-01 -0.461732D-02  0.106164D-01  0.110959D-01
     50  0.461449D-01  0.541478D-02 -0.582037D-02  0.207654D-02  0.253058D-02
     51 -0.569901D+01  0.329119D-02 -0.464066D-03 -0.384610D-02  0.233353D-02
               11            12            13            14            15 
     11  0.137737D+02
     12 -0.438699D+00  0.144471D+02
     13  0.205625D+00  0.209526D-01  0.145630D+02
     14  0.202201D+00  0.161196D-02  0.512494D+00  0.122420D+02
     15  0.801497D-01 -0.992213D-01  0.297384D+00 -0.443332D+00  0.157189D+02
     16  0.558804D-01 -0.446727D-01  0.152996D+00  0.168836D-01 -0.144323D+00
     17 -0.883194D-01 -0.648230D-02 -0.132896D+00 -0.416674D-01  0.974837D-01
     18  0.111695D-01 -0.101005D+00 -0.106714D+00  0.309395D-01 -0.507971D-01
     19  0.200047D-01 -0.209464D-01  0.721120D-01 -0.103764D-01 -0.504765D-01
     20 -0.494104D-01 -0.136530D-02 -0.659123D-01 -0.689754D-01  0.231492D-01
     21  0.248842D-02 -0.565910D-01 -0.381060D-01  0.167296D-01 -0.740157D-01
     22 -0.758373D-01 -0.222127D+00  0.171547D+00  0.661012D-01 -0.321966D-01
     23  0.185801D+00 -0.996651D-01  0.928867D-01 -0.188103D+00  0.168049D+00
     24 -0.126403D+00 -0.668326D-01 -0.611535D-01  0.204699D+00  0.131648D+00
     25 -0.238904D+00 -0.413596D+00 -0.339326D-01  0.193463D-01  0.925100D-02
     26 -0.334984D+01  0.100931D+01  0.203589D-01  0.434890D-01  0.602653D-01
     27  0.953787D+00 -0.208831D+01  0.153685D-01  0.580648D-01  0.907000D-02
     28  0.735671D+00 -0.655987D+00 -0.662800D-02  0.782245D-01 -0.560921D-02
     29 -0.267809D+01 -0.980684D+00  0.734865D-01  0.104092D+00 -0.127326D-01
     30 -0.931118D+00 -0.304807D+01 -0.145821D-01 -0.230504D-01 -0.410017D-01
     31 -0.123974D+01  0.521808D+00  0.328152D-01  0.212471D-01  0.267557D-01
     32 -0.299422D+01 -0.383987D+00 -0.602042D-02 -0.238791D-01 -0.108428D-02
     33 -0.435349D+00 -0.359810D+01  0.246150D-01  0.115479D-01 -0.141582D-01
     34 -0.185915D-01  0.115377D-01 -0.300755D+01 -0.473869D+00  0.113886D+01
     35 -0.472640D-01  0.343860D-01 -0.558248D+00 -0.366996D+01 -0.738951D+00
     36  0.122517D-01  0.123210D-01  0.108292D+01 -0.605738D+00 -0.250595D+01
     37  0.892497D-01  0.114209D-01 -0.233000D+01  0.109640D+01 -0.285942D+00
     38  0.641915D-01  0.163978D-01  0.142825D+01 -0.365838D+01 -0.207628D+00
     39  0.105067D-01 -0.377428D-01 -0.237318D+00 -0.129665D+00 -0.427705D+01
     40  0.479986D-02  0.282635D-02 -0.337649D+01 -0.384932D+00 -0.878294D+00
     41  0.669278D-01  0.636575D-01 -0.408372D+00 -0.351685D+01  0.826594D+00
     42  0.823149D-01  0.101352D-01 -0.842690D+00  0.743430D+00 -0.219009D+01
     43  0.300387D-01 -0.182940D-01  0.545613D-01  0.248211D-01 -0.608922D-01
     44  0.766251D-02 -0.273096D-01  0.520735D-01 -0.608270D-01 -0.519921D-01
     45 -0.229393D-01 -0.612156D-02 -0.117371D+00 -0.361343D-01  0.193170D-01
     46  0.516585D-02 -0.504744D-02  0.205834D-01  0.676907D-02 -0.903857D-02
     47 -0.317631D-02 -0.422001D-02  0.752866D-02 -0.516334D-02 -0.359312D-02
     48 -0.118081D-02 -0.345017D-02 -0.140785D-01 -0.472108D-02 -0.634400D-02
     49 -0.190901D-02 -0.964471D-03  0.244333D-01  0.210799D-02  0.112996D-02
     50 -0.342512D-02 -0.338082D-03 -0.564410D-03 -0.271672D-02 -0.191663D-03
     51 -0.333273D-03 -0.320583D-02  0.325799D-02  0.487351D-03 -0.482191D-02
               16            17            18            19            20 
     16  0.933778D+01
     17 -0.403007D+01  0.201842D+02
     18  0.976773D-01  0.518749D+01  0.235004D+02
     19 -0.555067D+00  0.797467D+00  0.277725D+01  0.101292D+02
     20  0.100480D+01 -0.115178D+02 -0.190302D+01  0.836931D+00  0.195949D+02
     21  0.244740D+01 -0.196282D+01 -0.117033D+02 -0.450087D+01  0.630259D+01
     22  0.434513D-03  0.410204D-01 -0.109606D+00  0.694433D-01  0.292293D-01
     23  0.424700D-01 -0.595871D-01 -0.598071D-01  0.386195D-01 -0.147267D-01
     24 -0.148528D+00 -0.661884D-01  0.108693D+00 -0.809580D-01 -0.220759D-01
     25  0.248153D-01  0.355360D-01  0.151015D-01  0.128199D-01  0.105326D-01
     26  0.476694D-01  0.260864D-02  0.154511D-01  0.196453D-01 -0.653937D-03
     27  0.360749D-01  0.233629D-01 -0.155018D-01  0.209781D-01  0.852029D-02
     28  0.143360D-01  0.135993D-01 -0.807953D-02  0.162581D-01  0.771654D-02
     29  0.167774D-01 -0.607134D-03 -0.585210D-02  0.145514D-01 -0.236402D-03
     30 -0.132577D-01 -0.703866D-02 -0.481759D-02 -0.103462D-01 -0.363320D-02
     31  0.410928D-01  0.493188D-02 -0.138169D-02  0.235575D-01  0.157496D-02
     32 -0.516279D-02 -0.109869D-01 -0.352081D-03 -0.567587D-02 -0.505436D-02
     33  0.282039D-02  0.573787D-03 -0.138170D-01  0.432291D-02  0.387261D-03
     34  0.387743D-01 -0.450702D-01  0.110271D-01  0.478528D-01 -0.161925D-01
     35 -0.419500D-01 -0.287740D-02 -0.305379D-02 -0.224497D-01 -0.679078D-02
     36  0.180556D-01 -0.910657D-02 -0.241861D-01  0.154164D-01 -0.395126D-02
     37 -0.776190D-01 -0.492391D-01  0.262343D-01  0.281859D-01 -0.172740D-01
     38 -0.126161D+00  0.239338D-01  0.708261D-02 -0.620743D-01 -0.244506D-01
     39 -0.146153D-03  0.490186D-02 -0.168647D+00  0.145778D-03 -0.261692D-02
     40  0.366533D-01 -0.315911D-01 -0.501263D-01  0.224091D-01 -0.989693D-02
     41 -0.379427D-01 -0.116220D-01  0.299571D-01 -0.141220D-01 -0.401746D-02
     42 -0.562429D-01  0.303263D-01  0.175549D-01 -0.232544D-01  0.700355D-02
     43 -0.425900D+01 -0.745151D+00  0.631553D+00 -0.203049D+00  0.166282D+00
     44 -0.900902D+00 -0.324198D+01 -0.130456D+01  0.214303D+00  0.307404D+00
     45  0.844778D+00 -0.141287D+01 -0.346232D+01 -0.458335D+00  0.103491D+00
     46 -0.427168D+00 -0.338849D+00  0.180480D+00 -0.347667D+01  0.118153D+01
     47 -0.359387D+00  0.214440D+00  0.458912D-01  0.109810D+01 -0.300628D+01
     48  0.206359D+00  0.482042D-01  0.331108D+00 -0.698187D+00 -0.996183D+00
     49  0.289760D+00 -0.400799D-01  0.159186D+00 -0.244660D+00 -0.228500D-01
     50 -0.256837D-01 -0.770524D-01 -0.105293D-01  0.759013D-01  0.102903D+00
     51  0.149180D+00 -0.150842D-01 -0.137448D-01 -0.139634D+00 -0.351273D-01
               21            22            23            24            25 
     21  0.205791D+02
     22 -0.454785D-01  0.465218D+01
     23 -0.180927D-01 -0.162059D+00  0.443502D+01
     24  0.835234D-02  0.282668D+00  0.852911D+00  0.117589D+01
     25  0.474799D-02 -0.200727D-01  0.890729D-02  0.338700D-01  0.369067D+01
     26  0.531782D-02  0.952215D-02 -0.147353D-01  0.462224D-01  0.778701D-01
     27 -0.331374D-02  0.242694D-01  0.283350D-01  0.887108D-01  0.215575D+00
     28 -0.199008D-02 -0.251998D-01 -0.427385D-01 -0.352904D-01  0.411005D-01
     29 -0.119026D-02 -0.416019D-01 -0.371635D-02 -0.257598D-01 -0.100083D-01
     30 -0.409396D-02 -0.352081D-01 -0.278103D-01  0.126329D-02  0.966463D-01
     31  0.273662D-02  0.287861D-01 -0.122911D-01  0.709270D-01 -0.289246D-01
     32 -0.539512D-03 -0.736426D-02 -0.219986D-01 -0.133781D-01  0.138972D+00
     33 -0.523160D-02  0.480302D-01 -0.105242D-01  0.362551D-01  0.914688D-01
     34  0.644965D-02 -0.235320D-01 -0.388023D-01  0.445554D-01 -0.852205D-02
     35 -0.155653D-02 -0.276640D-01  0.462174D-01 -0.955418D-01  0.125299D-02
     36 -0.945013D-02  0.258614D-01 -0.797898D-01  0.571217D-01  0.128109D-02
     37 -0.204321D-02 -0.579215D-02  0.177820D-01 -0.180381D-01 -0.546899D-03
     38  0.352452D-02  0.161491D-01  0.273298D-01 -0.327183D-01 -0.997711D-03
     39 -0.435635D-01 -0.806482D-02 -0.203272D-01  0.316583D-02 -0.329907D-03
     40 -0.100978D-01  0.327106D-01  0.460087D-01 -0.329895D-02 -0.630245D-03
     41  0.458201D-02  0.421771D-01 -0.106638D+00  0.160710D-01 -0.602798D-03
     42 -0.120296D-02 -0.277644D-02  0.897430D-02  0.411705D-01 -0.120638D-02
     43 -0.370129D+00 -0.441303D-02 -0.764246D-02  0.172752D-01  0.505181D-03
     44  0.114214D+00 -0.669644D-02  0.131338D-02  0.533698D-02  0.606262D-02
     45  0.918901D-01  0.130979D-01  0.898027D-02 -0.134439D-01 -0.155797D-02
     46 -0.730691D+00  0.170168D-02  0.200588D-02 -0.534333D-02  0.116695D-02
     47 -0.971912D+00  0.169410D-02  0.709814D-03 -0.461779D-02  0.131327D-02
     48 -0.378909D+01 -0.207315D-02 -0.134481D-02  0.283310D-02 -0.291916D-03
     49 -0.545480D-01  0.391125D-02  0.211856D-02 -0.769339D-02  0.133974D-02
     50  0.242378D-02  0.684999D-03 -0.231350D-03 -0.153117D-02  0.398034D-03
     51  0.676227D-01  0.100598D-03  0.162978D-03 -0.139969D-02  0.396238D-03
               26            27            28            29            30 
     26  0.328245D+01
     27 -0.104708D+01  0.212472D+01
     28 -0.188658D-01  0.119961D+00  0.314649D+01
     29  0.105871D+00  0.358720D-01 -0.859114D+00  0.257430D+01
     30  0.462777D-01 -0.153177D+00  0.710292D+00  0.888000D+00  0.317890D+01
[...]
   yx         0.226211D+01      0.335210D+00      0.372972D+00
   yy         0.647263D+02      0.959144D+01      0.106719D+02
   zx         0.117848D+02      0.174632D+01      0.194305D+01
   zy         0.600865D+01      0.890390D+00      0.990692D+00
   zz         0.614748D+02      0.910963D+01      0.101358D+02

 ----------------------------------------------------------------------

 Test job not archived.
 1\1\GINC-C0183\Freq\RM062X\CC-pVTZ\C5H10O2\HARMS.N\27-Sep-2019\0\\#P G
 eom=AllCheck Guess=TCheck SCRF=Check Test GenChk RM062X/CC-pVTZ Freq\\
 Gaussian input prepared by ASE\\0,1\O,-0.3365826259,-1.5859939101,2.55
 46248623\O,2.4110550584,-1.1187436403,2.7177937064\C,-1.1478999742,-0.
 4032039153,2.5262628915\C,-2.0180825804,-0.3460317,1.2814245186\C,-0.2
 887208341,0.8379693794,2.6905391459\C,0.5043751258,-1.7639599037,1.494
 3892915\C,1.8145148234,-1.582729678,1.5843409993\H,-1.7859202004,-0.52
 11607851,3.4023173943\H,-1.4146655143,-0.16439427,0.3909649123\H,-2.56
 45013089,-1.2798794019,1.1518638922\H,-2.7375685232,0.4676510012,1.368
 9872037\H,0.3729100949,0.956281196,1.8310727895\H,0.3249837635,0.75547
 50222,3.5854372271\H,-0.9172486045,1.7256779342,2.765740058\H,0.076473
 5868,-2.1241513254,0.5660264164\H,2.4512018084,-1.8078965416,0.7384084
 008\H,3.361433281,-1.1054972353,2.5977428736\\Version=EM64L-G16RevA.03
 \State=1-A\HF=-346.9391847\RMSD=2.835e-09\RMSF=5.785e-07\ZeroPoint=0.1
 471514\Thermal=0.1557552\Dipole=0.4978256,0.3544949,-0.6121438\DipoleD
 eriv=-1.0989759,0.3130169,0.1722606,0.3229468,-0.6691068,-0.1241346,0.
 4807547,-0.2298989,-0.6253931,-0.8052932,-0.0753028,-0.2846472,-0.3344
 803,-0.3912576,-0.1495088,-0.8311713,-0.131006,-0.7314551,0.7319225,-0
 .2185625,0.0408531,-0.362185,0.7431233,0.1046839,0.1090138,0.0401421,0
 .3470202,-0.0556852,0.0414824,-0.0907678,0.0425819,0.0051015,-0.031248
 7,-0.1251588,0.0308349,-0.0632391,-0.0537674,-0.1133093,-0.0253492,-0.
 0080729,-0.1093194,-0.0262296,-0.0543256,-0.0318425,0.0159438,0.439603
 ,-0.1192174,-0.3053577,-0.0164062,-0.1286821,0.1374457,-0.5933779,0.34
 70877,0.4115872,0.598846,0.1495831,0.3110166,0.3513185,-0.0170546,0.24
 59528,0.732871,0.1885334,0.5535956,-0.0706691,0.0000909,0.0648901,0.00
 36212,-0.0016329,0.0213609,0.0847837,0.0073761,-0.0935317,-0.0057004,-
 0.0299945,0.1021344,-0.0386421,0.0599848,0.0168812,0.0522211,0.0125969
 ,-0.0566731,0.02027,-0.0685218,-0.0330837,-0.1070214,-0.0692007,-0.038
 1736,-0.0273658,-0.0135871,0.0305149,-0.0277784,0.0861043,-0.0049351,0
 .1172848,-0.0409212,-0.0065602,0.0127366,-0.0256953,0.0646791,-0.00176
 11,-0.0425397,0.0525089,-0.0225129,0.067762,-0.015272,0.0842798,0.0196
 536,-0.0586127,0.0040508,-0.0378222,-0.0841943,-0.0153506,0.0544737,0.
 0272835,-0.0753666,-0.0043791,-0.0372974,-0.0064821,0.1162228,0.011230
 5,0.0934654,-0.0751393,-0.0231582,0.0047748,-0.0103872,0.0764007,0.016
 2342,-0.0233576,-0.0335015,-0.0480792,0.1208668,-0.0563825,0.0423485,-
 0.1049275,-0.0702478,-0.0086483,0.0144842,0.0477326,-0.0081589,0.12789
 02,-0.0639007,0.0259276,-0.0654339,-0.0396435,0.3238344,0.0076432,0.05
 92098,0.0296908,0.3231123,-0.019039,0.0770544,-0.0290674,0.2763519\Pol
 ar=84.0963835,-3.6560031,59.2053824,1.6844626,5.6680594,60.0227587\Qua
 drupole=6.1536006,-3.7671841,-2.3864165,-1.5892929,-1.3689756,1.860144
 1\PG=C01 [X(C5H10O2)]\NImag=0\\0.31013876,-0.14076514,0.27769800,-0.15
 700664,0.01369899,0.32968140,0.00079284,0.00302259,0.00313845,0.701112
 61,-0.00138630,-0.00579684,0.00704332,0.05982721,0.06690076,-0.0093869
 9,0.00689718,0.01145533,0.04305751,0.12161602,0.33647495,-0.09580149,0
 .05176965,0.00487047,0.00249233,0.00206648,0.00331799,0.52839650,0.063
 33003,-0.15456415,0.01083316,-0.00283273,-0.00237164,-0.00471717,0.035
 25483,0.45601181,-0.00227730,0.02421822,-0.08011091,0.00004932,-0.0012
 1165,0.00046525,-0.07356932,-0.01244461,0.59615130,-0.02124602,0.01461
 615,-0.01872553,-0.00017223,0.00003610,-0.00001884,-0.11286808,-0.0040
 1228,-0.04724798,0.54704413,0.02973827,-0.01391894,0.02447726,0.000756
 84,0.00094293,0.00111907,-0.00601494,-0.07662284,-0.00451127,0.0037711
 2,0.59133201,-0.00189802,0.00198996,0.00333816,-0.00025767,-0.00031485
 ,-0.00015786,-0.05376400,-0.00000421,-0.17179487,-0.04544252,0.0058416
 2,0.51298845,0.00712807,0.02821490,0.00405830,-0.00062569,0.00026407,-
 0.00062660,-0.12927976,-0.06791263,-0.00567099,-0.01335182,-0.01897080
 ,-0.00457545,0.55594058,-0.00223265,-0.04558788,-0.00492175,0.00116130
 ,0.00016042,0.00073226,-0.05997804,-0.14597059,-0.01013333,-0.00534126
 ,0.00226589,-0.00294859,-0.05080044,0.51699310,-0.00062325,-0.00207460
 ,0.00327327,0.00059819,-0.00048842,-0.00064746,-0.00367525,-0.00755818
 ,-0.08515759,-0.02032000,-0.02567341,-0.00557008,0.00283006,-0.0098767
 7,0.58340842,-0.15505198,0.02884431,0.10573600,-0.02235983,-0.01044853
 ,-0.01338902,-0.03675699,0.01701839,0.02246359,-0.00016987,-0.00045274
 ,-0.00039707,0.00515213,-0.00205460,-0.00178772,0.88085696,0.01235285,
 -0.07104474,-0.00859652,-0.02276085,0.00684872,-0.01105849,0.02086916,
 -0.00590449,-0.02731507,0.00049522,-0.00034821,0.00164764,0.00156902,-
 0.00196296,-0.00152246,0.07793674,0.20812836,0.11139090,-0.02532261,-0
 .22631773,-0.05817138,-0.01664558,-0.01993203,0.01691463,-0.02153212,-
 0.00553744,-0.00403780,0.00422774,0.00422174,-0.00361364,0.00251558,0.
 00006159,0.03301029,0.15394637,0.58866612,-0.03533295,-0.00004631,0.01
 698075,-0.15315556,-0.02867146,-0.05470487,0.00236926,-0.00380713,-0.0
 0064415,-0.00005728,-0.00065058,0.00053735,-0.00013910,-0.00063980,0.0
 0041743,-0.55343931,-0.05871983,-0.01918223,0.93304164,0.00821184,0.00
 957798,-0.00402823,-0.04691722,-0.06961128,-0.08620848,0.00124315,0.00
 056013,-0.00032078,0.00010819,-0.00098921,0.00024977,0.00028998,-0.000
 71668,0.00084148,-0.06413565,-0.06869232,-0.01675166,0.07738509,0.1875
 0448,0.05650419,-0.00684507,-0.01690800,-0.10107696,-0.08879289,-0.260
 25651,-0.00276690,0.00980414,-0.00211483,0.00019888,-0.00154365,-0.000
 47662,0.00068273,-0.00126776,0.00121394,-0.04034949,-0.01728609,-0.092
 04589,-0.02760576,0.16019523,0.59464778,-0.01888685,0.00913810,0.01923
 367,-0.00031809,0.00002952,-0.00067960,-0.13475215,-0.02100848,0.11915
 692,0.01163231,0.00225954,-0.01785311,-0.01130064,-0.00494770,0.015314
 23,-0.00085320,0.00232089,-0.00241515,0.00019182,0.00023019,0.00133172
 ,0.15528792,0.02798562,-0.00872407,-0.02721548,0.00037838,0.00018079,0
 .00080937,-0.02703813,-0.05030337,0.03221745,-0.00071179,0.00087716,0.
 00016754,-0.01780147,-0.00416859,0.02224937,0.00309174,-0.00308545,0.0
 0142743,-0.00003244,-0.00045614,-0.00200047,0.01480162,0.06698961,0.00
 185156,-0.00235614,0.00110841,0.00024337,0.00010053,0.00035188,0.12437
 192,0.02453431,-0.22363429,0.01371898,0.00433272,-0.02408806,-0.003370
 26,-0.00047234,0.00444592,-0.00099500,0.00005921,0.00224297,-0.0001243
 5,-0.00018082,-0.00035161,-0.13138889,-0.02602977,0.23980415,0.0009634
 4,-0.00086699,0.00162279,0.00005614,-0.00011839,0.00013641,0.01247488,
 0.00253553,-0.01693045,-0.13156869,-0.02627237,0.12197594,0.00152625,0
 .00075798,-0.00012529,-0.00071897,0.00135652,0.00091602,-0.00022813,0.
 00000848,-0.00028838,-0.00171133,0.00013247,-0.00372966,0.14128614,0.0
 0015120,0.00011684,-0.00046827,-0.00040587,-0.00027216,-0.00047144,-0.
 00078701,-0.00139097,0.00117204,-0.02613475,-0.05505649,0.03583586,0.0
 0071303,0.00007286,-0.00081197,-0.00006693,0.00001678,0.00097488,0.000
 48888,0.00012584,0.00017309,0.00004073,0.00082801,-0.00000978,0.027270
 41,0.05506462,-0.00057554,0.00011752,0.00187181,0.00036182,0.00031864,
 0.00039918,0.01808605,0.00327504,-0.02574510,0.12080301,0.03583087,-0.
 22167706,0.00130843,0.00083266,0.00137560,0.00081970,-0.00042142,-0.00
 052407,-0.00068132,-0.00033889,0.00006418,-0.00427368,0.00014638,-0.00
 334847,-0.13216834,-0.03899712,0.24401251,0.00203431,0.00021192,0.0013
 8393,0.00023787,0.00019711,0.00026839,-0.01097443,-0.01727012,-0.00142
 318,-0.11381301,-0.11555896,-0.01364401,-0.00171704,0.00140727,-0.0040
 8129,-0.00069988,-0.00016131,-0.00002743,-0.00010731,-0.00000464,-0.00
 010059,0.00060948,0.00056380,0.00018357,-0.00899312,-0.01503518,-0.003
 09957,0.12118370,-0.00035027,0.00158050,0.00023527,-0.00002994,-0.0000
 1365,-0.00005721,0.00242281,0.00040461,0.00059444,-0.11689243,-0.24721
 692,-0.02614958,0.00045804,0.00080048,-0.00041778,-0.00003707,0.000105
 45,-0.00029184,0.00006222,0.00007474,0.00011765,-0.00014236,0.00015431
 ,-0.00058914,-0.00091244,-0.00343237,-0.00040772,0.12795276,0.26588141
 ,0.00273956,0.00035581,0.00163305,0.00003783,0.00013638,0.00017974,-0.
 01378872,-0.02682349,-0.00269062,-0.01340650,-0.02417101,-0.05118359,-
 0.00291904,0.00167075,-0.00467593,-0.00042654,0.00037517,0.00072326,-0
 .00007625,-0.00017130,-0.00034719,0.00084997,-0.00014528,0.00082746,0.
 01194408,0.02344758,0.00397572,0.01789839,0.02867692,0.05322362,-0.002
 97625,0.00143117,-0.00310861,-0.00030062,-0.00026140,-0.00042201,-0.01
 147420,0.01326969,0.00594027,-0.16450332,0.13324598,0.01450492,0.00034
 103,0.00011631,0.00066247,0.00106181,-0.00025544,-0.00140616,0.0002284
 7,0.00022050,0.00049580,0.00083940,-0.00012475,-0.00005424,-0.01193475
 ,0.01313344,0.00060024,0.01238701,-0.01237211,-0.00135308,0.17615398,0
 .00105166,0.00124537,0.00059556,0.00018139,0.00009230,0.00020985,-0.00
 044005,-0.00276614,-0.00074698,0.13433953,-0.19783129,-0.01774842,-0.0
 0014150,-0.00026091,-0.00014391,-0.00079752,0.00026012,0.00051847,-0.0
 0002989,-0.00004372,-0.00020358,-0.00002521,0.00013295,0.00038367,-0.0
 0483398,0.00472599,-0.00001656,0.01885002,-0.01878187,-0.00214541,-0.1
 4737540,0.21278162,-0.00670655,0.00302796,-0.00458013,0.00017630,0.000
 08937,0.00001834,-0.01579658,0.02074758,0.00533673,0.01553441,-0.01914
 953,-0.04793391,0.00056777,-0.00027009,0.00056782,0.00155919,-0.001072
 93,-0.00245739,-0.00045892,0.00000107,0.00059241,0.00108174,0.00027392
 ,0.00079849,0.01662364,-0.02078341,-0.00167893,0.00263430,-0.00215149,
 -0.00162078,-0.01532757,0.01938128,0.05048817,0.00066804,0.00062000,-0
 .00069584,0.00002947,-0.00063203,-0.00017631,-0.01451707,-0.00185879,0
 .01689420,0.00061641,0.00067967,0.00121257,-0.14311281,-0.01689400,0.1
 2632080,-0.00007462,0.00071748,0.00000211,0.00033970,0.00118030,0.0003
 6590,-0.00120206,-0.00325782,-0.00119403,-0.00015194,-0.00019349,-0.00
 087120,0.00040133,0.00012249,-0.00030582,-0.00003712,-0.00008043,0.000
 03292,0.15575419,0.00162138,0.00207947,-0.00087378,-0.00049188,-0.0000
 3390,-0.00037573,-0.01962976,-0.00313537,0.02433662,0.00134040,0.00070
 932,0.00106123,-0.01537683,-0.04858143,0.02065575,-0.00035839,-0.00080
 679,0.00004225,0.00127807,-0.00089740,-0.00024427,-0.00312693,-0.00438
 414,-0.00113614,0.00003633,0.00034671,-0.00068980,0.00030298,0.0000064
 3,-0.00003333,0.00009908,-0.00000064,-0.00007245,0.02064743,0.05234667
 ,-0.00009993,0.00094073,0.00032251,-0.00051064,-0.00046017,-0.00069495
 ,-0.00229893,0.00073462,0.00207341,-0.00065960,0.00009942,0.00140138,0
 .12678468,0.02182009,-0.21522273,0.00088839,-0.00076085,-0.00053529,0.
 00036103,-0.00037580,0.00070698,-0.00068679,-0.00092867,0.00110823,0.0
 0034312,-0.00010635,0.00021750,0.00002207,0.00008162,0.00008846,-0.000
 08890,0.00005047,-0.00003022,-0.14041815,-0.02287439,0.23142401,0.0014
 2129,0.00124575,0.00138008,-0.00063361,-0.00038620,-0.00041365,-0.0123
 4625,0.00336028,-0.01663219,-0.00138142,-0.00398100,0.00065445,-0.1320
 7339,0.01165005,-0.12602884,-0.00012902,-0.00016642,-0.00028239,0.0006
 4589,0.00021949,0.00055253,0.00019269,0.00059889,0.00023386,0.00010297
 ,0.00000015,-0.00015750,-0.00040989,-0.00012508,-0.00127256,0.00031130
 ,-0.00001977,0.00030676,0.01221978,-0.00184224,0.01672455,0.14214286,0
 .00051493,0.00282683,0.00085635,0.00008018,0.00003556,0.00017998,-0.01
 620982,0.00163143,-0.02517942,-0.00252583,-0.00506796,0.00008600,0.014
 30127,-0.04867292,0.02101289,0.00040019,-0.00024017,-0.00032896,-0.000
 33785,-0.00023129,-0.00044796,0.00072646,0.00102744,0.00041959,0.00013
 643,-0.00011240,0.00011241,-0.00122808,0.00014078,-0.00136754,-0.00019
 923,0.00016112,0.00014055,0.00184497,-0.00127975,0.00204825,-0.0107935
 6,0.05080799,0.00105560,0.00008409,0.00029529,0.00005353,0.00093774,0.
 00083803,-0.00117613,0.00059863,-0.00283991,-0.00044315,-0.00099700,0.
 00101068,-0.12612414,0.01842065,-0.23522653,0.00034343,-0.00027839,0.0
 0008029,-0.00081093,-0.00088294,-0.00125801,0.00002833,-0.00054112,0.0
 0068237,0.00012817,0.00011616,0.00049241,-0.00034747,0.00015802,0.0000
 5187,-0.00004967,0.00018734,-0.00004409,-0.01472600,0.00217177,-0.0195
 9418,0.13890764,-0.02047181,0.25158733,0.00051013,-0.00599765,-0.00082
 020,-0.00000907,0.00051326,0.00059062,0.01136870,-0.01302548,-0.001810
 79,-0.00001392,0.00039554,-0.00006424,-0.13824272,0.12751940,0.0104792
 7,-0.00109276,-0.00004236,0.00082061,-0.00004032,-0.00020212,-0.000881
 98,0.00060031,0.00089866,0.00047241,-0.00000935,0.00012028,-0.00007403
 ,0.00022348,0.00006073,0.00025232,-0.00015476,-0.00039445,-0.00037318,
 -0.01091533,0.01527971,-0.00029549,-0.00985831,0.01329920,0.00318731,0
 .14754006,-0.00171633,-0.00778704,-0.00187785,0.00041572,0.00021829,0.
 00055882,0.01954234,-0.01740326,-0.00169430,0.00069154,0.00084820,0.00
 018147,0.12544817,-0.22378356,-0.01602270,-0.00206804,0.00059146,0.002
 17228,-0.00008071,0.00012780,-0.00060485,-0.00014217,0.00071446,0.0007
 0929,-0.00004950,-0.00009557,-0.00001248,-0.00021146,0.00030298,0.0002
 7768,-0.00072856,0.00026200,-0.00041751,-0.00284654,0.00365803,-0.0002
 5224,0.00011596,-0.00126935,0.00023554,-0.13849292,0.24370604,0.000389
 51,-0.00052484,0.00083326,-0.00017688,0.00016907,0.00022644,0.00232458
 ,-0.00124238,-0.00260006,-0.00000845,0.00013142,0.00001913,0.00998275,
 -0.01557309,-0.04766981,0.00020646,-0.00035777,0.00039699,-0.00047644,
 -0.00019031,-0.00031549,-0.00013824,-0.00000403,0.00004793,0.00012579,
 -0.00009393,-0.00007551,0.00006333,0.00018115,-0.00001443,-0.00047826,
 -0.00030936,-0.00006326,0.01368866,-0.02196571,-0.00120111,-0.01396108
 ,0.02256145,0.00366897,-0.01148835,0.01709357,0.04664774,0.00907773,0.
 00953190,0.02475454,-0.00541109,-0.00031710,0.00249033,0.00210840,-0.0
 0166350,0.00136610,0.00001314,0.00090710,-0.00109773,-0.00036933,0.000
 28630,-0.00000647,-0.10836580,-0.04273456,-0.09919663,-0.00533355,-0.0
 1074959,-0.02784098,-0.00020018,0.00020015,-0.00013866,-0.00106895,0.0
 0064902,0.00002897,-0.00038762,-0.00022778,-0.00018821,0.00005136,-0.0
 0028309,0.00025332,0.00000997,0.00004101,-0.00005004,-0.00007867,-0.00
 007724,0.00000666,0.00005519,0.00014990,-0.00003371,0.11075208,0.00098
 109,0.00183392,-0.00514680,-0.00172780,0.00738435,-0.00231505,-0.00078
 475,0.00139375,-0.00046677,0.00018824,0.00017750,0.00001682,-0.0000095
 7,-0.00011420,0.00007270,-0.04347446,-0.06520258,-0.08580475,-0.000377
 62,-0.00102135,-0.00236147,0.00015093,-0.00007569,0.00016602,0.0007515
 2,-0.00097272,0.00028684,0.00003944,-0.00000387,-0.00006014,-0.0002485
 6,0.00003383,0.00029734,-0.00016027,-0.00007567,-0.00006541,0.00000447
 ,0.00007537,0.00013387,0.00000018,-0.00000114,0.00003633,0.04458896,0.
 05886021,0.00501514,-0.01105280,-0.02905229,0.00136133,-0.00159292,0.0
 0301638,-0.00338999,0.00375532,-0.00138911,0.00001103,-0.00001386,-0.0
 0003461,0.00068072,-0.00050251,-0.00000387,-0.10464034,-0.08535696,-0.
 24648734,0.00071031,-0.00019805,-0.00052157,0.00034801,-0.00039563,0.0
 0002800,-0.00054519,0.00004556,0.00062038,0.00024532,-0.00000911,-0.00
 018565,0.00008528,-0.00000847,0.00055714,-0.00005322,-0.00005689,0.000
 04867,0.00010421,0.00014380,0.00001508,-0.00014223,-0.00034295,0.00003
 807,0.10066542,0.09458201,0.27320225,-0.00539644,-0.00062146,-0.001219
 07,0.01013563,-0.00621164,-0.01963527,0.00011885,-0.00193477,0.0003887
 1,-0.00018477,0.00026494,0.00007066,0.00005352,0.00009558,-0.00013892,
 -0.00861540,0.00760755,0.02630855,-0.16807270,0.03196119,0.13465428,-0
 .00022400,0.00038092,-0.00003488,-0.00000444,0.00000535,-0.00005321,0.
 00003695,-0.00001111,0.00002168,-0.00005366,0.00003054,-0.00010228,0.0
 0003148,0.00005925,0.00000987,-0.00003348,0.00001057,0.00002131,0.0000
 2590,0.00006407,0.00002602,-0.00035605,0.00021545,-0.00068915,0.168888
 79,-0.00049776,0.01101768,-0.00404794,0.00349411,-0.00029973,-0.012453
 43,-0.00188222,-0.00005888,0.00141823,0.00002495,-0.00006003,0.0000858
 5,-0.00022510,-0.00022584,0.00000829,-0.00268813,0.00150862,0.00303340
 ,0.03263547,-0.04888524,-0.05001502,-0.00030452,0.00034310,0.00006924,
 0.00010226,0.00002460,-0.00006037,-0.00003771,0.00000902,0.00000506,0.
 00003110,0.00000075,-0.00007396,0.00007683,-0.00007877,-0.00007396,0.0
 0001819,0.00004317,0.00006582,0.00001163,-0.00002603,0.00001797,0.0004
 4651,-0.00399886,0.00160860,-0.03207610,0.04033998,-0.00180275,-0.0036
 2833,0.00248071,0.00810218,-0.00952552,-0.02590047,0.00065038,-0.00023
 491,-0.00037294,0.00000713,0.00007467,-0.00004700,0.00003260,0.0000840
 5,-0.00016463,-0.00254361,0.00068982,0.00434390,0.13279452,-0.04956712
 ,-0.21989457,0.00004453,-0.00003147,-0.00001115,-0.00002658,-0.0000106
 9,0.00001973,0.00001954,0.00000562,0.00001879,-0.00002161,0.00000844,0
 .00001766,-0.00002107,0.00003801,-0.00001912,-0.00007520,0.00007922,0.
 00010054,0.00005393,0.00000769,0.00004084,0.00017552,0.00156416,-0.000
 06072,-0.13922482,0.06039009,0.23906551,0.00195738,-0.00034888,-0.0015
 8310,-0.53187110,-0.01450071,0.04959193,-0.00055850,0.00055716,-0.0000
 5276,0.00002443,-0.00011761,0.00003792,0.00007071,-0.00010570,0.000164
 60,0.00125675,-0.00038464,-0.00103029,-0.02091057,0.00095085,0.0061250
 0,0.00009458,-0.00006586,-0.00004571,-0.00002017,0.00005073,-0.0000538
 4,-0.00001183,0.00002153,-0.00000711,0.00006030,-0.00003186,-0.0000052
 8,-0.00005944,0.00012039,-0.00002526,-0.00009276,0.00005741,-0.0000544
 9,0.00001276,-0.00009145,-0.00004570,-0.00049663,-0.00013725,0.0002333
 6,0.00364982,0.00087049,0.00183529,0.54689429,0.00100957,-0.00055292,-
 0.00056330,0.00584858,-0.00436494,-0.01446556,-0.00040371,0.00048996,0
 .00006720,0.00000690,-0.00004112,0.00000187,-0.00002011,-0.00024718,-0
 .00025027,-0.00070929,-0.00017181,-0.00218090,-0.01845610,-0.00642632,
 0.00132298,-0.00000062,-0.00005039,-0.00000045,-0.00003426,0.00001043,
 0.00002401,-0.00001784,-0.00001204,-0.00002786,0.00001819,-0.00001147,
 0.00003228,0.00003422,0.00012723,0.00012265,0.00010102,0.00012416,0.00
 006161,0.00005640,-0.00006330,0.00007043,-0.00074799,0.00170715,-0.000
 60513,0.00015965,0.00034644,0.00005627,0.01315539,0.00913611,0.0014305
 0,0.00047394,0.00067585,0.10301372,-0.01137908,-0.04583623,-0.00031023
 ,0.00027427,-0.00003902,0.00003692,-0.00007507,-0.00001587,-0.00002793
 ,-0.00010983,-0.00000791,-0.00049827,-0.00269126,-0.00689967,-0.047036
 17,-0.00207318,-0.00273498,0.00004633,0.00000045,-0.00001220,-0.000002
 08,-0.00001221,0.00000013,0.00000471,0.00002317,-0.00000376,0.00002112
 ,-0.00001238,0.00003196,-0.00005551,0.00001687,-0.00009354,-0.00004066
 ,0.00015519,0.00013987,0.00009402,-0.00001147,0.00002030,-0.00118840,-
 0.00093571,0.00020919,-0.00040350,0.00002210,0.00038294,-0.05508456,0.
 01633419,0.05418296\\0.00000007,0.00000047,0.00000055,0.00000013,0.,-0
 .00000012,0.00000009,0.00000047,0.00000027,-0.00000013,0.00000011,0.00
 000025,0.00000057,0.00000052,-0.00000069,-0.00000063,-0.00000052,0.000
 00051,-0.00000036,-0.00000075,0.,0.00000040,0.00000129,0.00000036,-0.0
 0000034,-0.00000064,0.00000017,-0.00000036,0.00000009,0.00000107,0.000
 00009,0.00000019,0.00000002,0.00000026,-0.00000018,-0.00000095,0.00000
 068,0.00000087,-0.00000090,0.00000072,0.00000060,-0.00000113,-0.000000
 60,-0.00000082,0.00000100,-0.00000056,-0.00000129,0.00000010,-0.000000
 01,-0.00000041,-0.00000051\\\@


 ON A TOMBSTONE, "HERE LIES LESTER MOORE,
 FOUR SLUGS FROM A 44, NO LES, NO MORE".
 Job cpu time:       0 days  2 hours 44 minutes  0.1 seconds.
 Elapsed time:       0 days  1 hours 22 minutes  1.2 seconds.
 File lengths (MBytes):  RWF=   1568 Int=      0 D2E=      0 Chk=     48 Scr=     32
 Normal termination of Gaussian 16 at Fri Sep 27 03:17:02 2019.
