 Entering Gaussian System, Link 0=g16
 Input=med/species/CC(C)OC=CO/conformers/CC(C)OC=CO_153.com
 Output=med/species/CC(C)OC=CO/conformers/CC(C)OC=CO_153.log
 Initial command:
 /shared/centos7/gaussian/g16/l1.exe "/scratch/harms.n/gauss_scrdir/Gau-8862.inp" -scrdir="/scratch/harms.n/gauss_scrdir/"
 Entering Link 1 = /shared/centos7/gaussian/g16/l1.exe PID=      8863.
  
 Copyright (c) 1988,1990,1992,1993,1995,1998,2003,2009,2016,
            Gaussian, Inc.  All Rights Reserved.
  
 This is part of the Gaussian(R) 16 program.  It is based on
 the Gaussian(R) 09 system (copyright 2009, Gaussian, Inc.),
 the Gaussian(R) 03 system (copyright 2003, Gaussian, Inc.),
 the Gaussian(R) 98 system (copyright 1998, Gaussian, Inc.),
 the Gaussian(R) 94 system (copyright 1995, Gaussian, Inc.),
 the Gaussian 92(TM) system (copyright 1992, Gaussian, Inc.),
 the Gaussian 90(TM) system (copyright 1990, Gaussian, Inc.),
 the Gaussian 88(TM) system (copyright 1988, Gaussian, Inc.),
 the Gaussian 86(TM) system (copyright 1986, Carnegie Mellon
 University), and the Gaussian 82(TM) system (copyright 1983,
 Carnegie Mellon University). Gaussian is a federally registered
 trademark of Gaussian, Inc.
  
 This software contains proprietary and confidential information,
 including trade secrets, belonging to Gaussian, Inc.
  
 This software is provided under written license and may be
 used, copied, transmitted, or stored only in accord with that
 written license.
  
 The following legend is applicable only to US Government
 contracts under FAR:
  
                    RESTRICTED RIGHTS LEGEND
  
 Use, reproduction and disclosure by the US Government is
 subject to restrictions as set forth in subparagraphs (a)
 and (c) of the Commercial Computer Software - Restricted
 Rights clause in FAR 52.227-19.
  
 Gaussian, Inc.
 340 Quinnipiac St., Bldg. 40, Wallingford CT 06492
  
  
 ---------------------------------------------------------------
 Warning -- This program may not be used in any manner that
 competes with the business of Gaussian, Inc. or will provide
 assistance to any competitor of Gaussian, Inc.  The licensee
 of this program is prohibited from giving any competitor of
 Gaussian, Inc. access to this program.  By using this program,
 the user acknowledges that Gaussian, Inc. is engaged in the
 business of creating and licensing software in the field of
 computational chemistry and represents and warrants to the
 licensee that it is not a competitor of Gaussian, Inc. and that
 it will not use this program in any manner prohibited above.
 ---------------------------------------------------------------
  

 Cite this work as:
 Gaussian 16, Revision A.03,
 M. J. Frisch, G. W. Trucks, H. B. Schlegel, G. E. Scuseria, 
 M. A. Robb, J. R. Cheeseman, G. Scalmani, V. Barone, 
 G. A. Petersson, H. Nakatsuji, X. Li, M. Caricato, A. V. Marenich, 
 J. Bloino, B. G. Janesko, R. Gomperts, B. Mennucci, H. P. Hratchian, 
 J. V. Ortiz, A. F. Izmaylov, J. L. Sonnenberg, D. Williams-Young, 
 F. Ding, F. Lipparini, F. Egidi, J. Goings, B. Peng, A. Petrone, 
 T. Henderson, D. Ranasinghe, V. G. Zakrzewski, J. Gao, N. Rega, 
 G. Zheng, W. Liang, M. Hada, M. Ehara, K. Toyota, R. Fukuda, 
 J. Hasegawa, M. Ishida, T. Nakajima, Y. Honda, O. Kitao, H. Nakai, 
 T. Vreven, K. Throssell, J. A. Montgomery, Jr., J. E. Peralta, 
 F. Ogliaro, M. J. Bearpark, J. J. Heyd, E. N. Brothers, K. N. Kudin, 
 V. N. Staroverov, T. A. Keith, R. Kobayashi, J. Normand, 
 K. Raghavachari, A. P. Rendell, J. C. Burant, S. S. Iyengar, 
 J. Tomasi, M. Cossi, J. M. Millam, M. Klene, C. Adamo, R. Cammi, 
 J. W. Ochterski, R. L. Martin, K. Morokuma, O. Farkas, 
 J. B. Foresman, and D. J. Fox, Gaussian, Inc., Wallingford CT, 2016.
 
 ******************************************
 Gaussian 16:  EM64L-G16RevA.03 25-Dec-2016
                29-Sep-2019 
 ******************************************
 %nprocshared=20
 Will use up to   20 processors via shared memory.
 %mem=5GB
 ----------------------------------------------------------------------
 #p m062x/cc-pVTZ opt=(calcfc,maxcycles=900,Tight) freq IOP(7/33=1,2/16
 =3) scf=(maxcycle=900)
 ----------------------------------------------------------------------
 1/6=900,7=10,10=4,18=20,19=15,26=3,38=1/1,3;
 2/9=110,12=2,16=3,17=6,18=5,40=1/2;
 3/5=16,6=1,11=2,25=1,30=1,71=2,74=-55,140=1/1,2,3;
 4//1;
 5/5=2,7=900,38=5/2;
 8/6=4,10=90,11=11/1;
 11/6=1,8=1,9=11,15=111,16=1/1,2,10;
 10/6=1,13=1/2;
 6/7=2,8=2,9=2,10=2,28=1/1;
 7/10=1,18=20,25=1,33=1/1,2,3,16;
 1/6=900,7=10,10=4,18=20,19=15,26=3/3(2);
 2/9=110,16=3/2;
 99//99;
 2/9=110,16=3/2;
 3/5=16,6=1,11=2,25=1,30=1,71=1,74=-55/1,2,3;
 4/5=5,16=3,69=1/1;
 5/5=2,7=900,38=5/2;
 7/33=1/1,2,3,16;
 1/6=900,7=10,18=20,19=15,26=3/3(-5);
 2/9=110,16=3/2;
 6/7=2,8=2,9=2,10=2,19=2,28=1/1;
 99/9=1/99;
 Leave Link    1 at Sun Sep 29 07:27:42 2019, MaxMem=   671088640 cpu:               4.3 elap:               2.1
 (Enter /shared/centos7/gaussian/g16/l101.exe)
 ------------------------------
 Gaussian input prepared by ASE
 ------------------------------
 Symbolic Z-matrix:
 Charge =  0 Multiplicity = 1
 O                     3.93468  -1.52823   2.65603 
 O                     1.08368   0.23395   1.19241 
 C                     3.46881  -2.39847   3.66574 
 C                     1.99338  -2.79178   3.592 
 C                     3.84478  -1.88081   5.01509 
 C                     3.01992  -1.01001   1.76803 
 C                     2.00912  -0.2601    2.09964 
 H                     4.05187  -3.34765   3.50626 
 H                     1.43453  -2.16129   2.86926 
 H                     1.88772  -3.84677   3.28003 
 H                     1.49789  -2.67797   4.59408 
 H                     2.95116  -1.50946   5.59838 
 H                     4.57196  -1.04602   4.93501 
 H                     4.31614  -2.68617   5.64658 
 H                     3.25015  -1.24954   0.71762 
 H                     1.76595   0.01006   3.11665 
 H                     1.36594  -0.08138   0.2854 
 
 ITRead=  0  0  0  0  0  0  0  0  0  0  0  0  0  0  0  0  0
 MicOpt= -1 -1 -1 -1 -1 -1 -1 -1 -1 -1 -1 -1 -1 -1 -1 -1 -1
 NAtoms=     17 NQM=       17 NQMF=       0 NMMI=      0 NMMIF=      0
                NMic=       0 NMicF=      0.
                    Isotopes and Nuclear Properties:
 (Nuclear quadrupole moments (NQMom) in fm**2, nuclear magnetic moments (NMagM)
  in nuclear magnetons)

  Atom         1           2           3           4           5           6           7           8           9          10
 IAtWgt=          16          16          12          12          12          12          12           1           1           1
 AtmWgt=  15.9949146  15.9949146  12.0000000  12.0000000  12.0000000  12.0000000  12.0000000   1.0078250   1.0078250   1.0078250
 NucSpn=           0           0           0           0           0           0           0           1           1           1
 AtZEff=  -0.0000000  -0.0000000  -0.0000000  -0.0000000  -0.0000000  -0.0000000  -0.0000000  -0.0000000  -0.0000000  -0.0000000
 NQMom=    0.0000000   0.0000000   0.0000000   0.0000000   0.0000000   0.0000000   0.0000000   0.0000000   0.0000000   0.0000000
 NMagM=    0.0000000   0.0000000   0.0000000   0.0000000   0.0000000   0.0000000   0.0000000   2.7928460   2.7928460   2.7928460
 AtZNuc=   8.0000000   8.0000000   6.0000000   6.0000000   6.0000000   6.0000000   6.0000000   1.0000000   1.0000000   1.0000000

  Atom        11          12          13          14          15          16          17
 IAtWgt=           1           1           1           1           1           1           1
 AtmWgt=   1.0078250   1.0078250   1.0078250   1.0078250   1.0078250   1.0078250   1.0078250
 NucSpn=           1           1           1           1           1           1           1
 AtZEff=  -0.0000000  -0.0000000  -0.0000000  -0.0000000  -0.0000000  -0.0000000  -0.0000000
 NQMom=    0.0000000   0.0000000   0.0000000   0.0000000   0.0000000   0.0000000   0.0000000
 NMagM=    2.7928460   2.7928460   2.7928460   2.7928460   2.7928460   2.7928460   2.7928460
 AtZNuc=   1.0000000   1.0000000   1.0000000   1.0000000   1.0000000   1.0000000   1.0000000
 Leave Link  101 at Sun Sep 29 07:27:44 2019, MaxMem=   671088640 cpu:               2.9 elap:               1.5
 (Enter /shared/centos7/gaussian/g16/l103.exe)

 GradGradGradGradGradGradGradGradGradGradGradGradGradGradGradGradGradGrad
 Berny optimization.
 Initialization pass.
                           ----------------------------
                           !    Initial Parameters    !
                           ! (Angstroms and Degrees)  !
 --------------------------                            --------------------------
 ! Name  Definition              Value          Derivative Info.                !
 --------------------------------------------------------------------------------
 ! R1    R(1,3)                  1.412          calculate D2E/DX2 analytically  !
 ! R2    R(1,6)                  1.3762         calculate D2E/DX2 analytically  !
 ! R3    R(2,7)                  1.3869         calculate D2E/DX2 analytically  !
 ! R4    R(2,17)                 1.0009         calculate D2E/DX2 analytically  !
 ! R5    R(3,4)                  1.5287         calculate D2E/DX2 analytically  !
 ! R6    R(3,5)                  1.4933         calculate D2E/DX2 analytically  !
 ! R7    R(3,8)                  1.1253         calculate D2E/DX2 analytically  !
 ! R8    R(4,9)                  1.1101         calculate D2E/DX2 analytically  !
 ! R9    R(4,10)                 1.1052         calculate D2E/DX2 analytically  !
 ! R10   R(4,11)                 1.1237         calculate D2E/DX2 analytically  !
 ! R11   R(5,12)                 1.1299         calculate D2E/DX2 analytically  !
 ! R12   R(5,13)                 1.11           calculate D2E/DX2 analytically  !
 ! R13   R(5,14)                 1.1267         calculate D2E/DX2 analytically  !
 ! R14   R(6,7)                  1.3016         calculate D2E/DX2 analytically  !
 ! R15   R(6,15)                 1.1017         calculate D2E/DX2 analytically  !
 ! R16   R(7,16)                 1.08           calculate D2E/DX2 analytically  !
 ! A1    A(3,1,6)              118.3055         calculate D2E/DX2 analytically  !
 ! A2    A(7,2,17)             107.0            calculate D2E/DX2 analytically  !
 ! A3    A(1,3,4)              116.2632         calculate D2E/DX2 analytically  !
 ! A4    A(1,3,5)              110.452          calculate D2E/DX2 analytically  !
 ! A5    A(1,3,8)              104.3322         calculate D2E/DX2 analytically  !
 ! A6    A(4,3,5)              112.071          calculate D2E/DX2 analytically  !
 ! A7    A(4,3,8)              106.0344         calculate D2E/DX2 analytically  !
 ! A8    A(5,3,8)              106.8579         calculate D2E/DX2 analytically  !
 ! A9    A(3,4,9)              111.7879         calculate D2E/DX2 analytically  !
 ! A10   A(3,4,10)             110.5779         calculate D2E/DX2 analytically  !
 ! A11   A(3,4,11)             110.8862         calculate D2E/DX2 analytically  !
 ! A12   A(9,4,10)             108.0751         calculate D2E/DX2 analytically  !
 ! A13   A(9,4,11)             107.5237         calculate D2E/DX2 analytically  !
 ! A14   A(10,4,11)            107.8336         calculate D2E/DX2 analytically  !
 ! A15   A(3,5,12)             112.412          calculate D2E/DX2 analytically  !
 ! A16   A(3,5,13)             111.1276         calculate D2E/DX2 analytically  !
 ! A17   A(3,5,14)             111.3437         calculate D2E/DX2 analytically  !
 ! A18   A(12,5,13)            107.9508         calculate D2E/DX2 analytically  !
 ! A19   A(12,5,14)            106.0485         calculate D2E/DX2 analytically  !
 ! A20   A(13,5,14)            107.6932         calculate D2E/DX2 analytically  !
 ! A21   A(1,6,7)              124.6651         calculate D2E/DX2 analytically  !
 ! A22   A(1,6,15)             113.231          calculate D2E/DX2 analytically  !
 ! A23   A(7,6,15)             122.0383         calculate D2E/DX2 analytically  !
 ! A24   A(2,7,6)              123.8333         calculate D2E/DX2 analytically  !
 ! A25   A(2,7,16)             112.1246         calculate D2E/DX2 analytically  !
 ! A26   A(6,7,16)             123.9799         calculate D2E/DX2 analytically  !
 ! D1    D(6,1,3,4)              5.7344         calculate D2E/DX2 analytically  !
 ! D2    D(6,1,3,5)           -123.4054         calculate D2E/DX2 analytically  !
 ! D3    D(6,1,3,8)            122.0921         calculate D2E/DX2 analytically  !
 ! D4    D(3,1,6,7)             60.8233         calculate D2E/DX2 analytically  !
 ! D5    D(3,1,6,15)          -122.0814         calculate D2E/DX2 analytically  !
 ! D6    D(17,2,7,6)            -1.1524         calculate D2E/DX2 analytically  !
 ! D7    D(17,2,7,16)         -178.3802         calculate D2E/DX2 analytically  !
 ! D8    D(1,3,4,9)            -12.2453         calculate D2E/DX2 analytically  !
 ! D9    D(1,3,4,10)           108.2173         calculate D2E/DX2 analytically  !
 ! D10   D(1,3,4,11)          -132.2188         calculate D2E/DX2 analytically  !
 ! D11   D(5,3,4,9)            116.1095         calculate D2E/DX2 analytically  !
 ! D12   D(5,3,4,10)          -123.428          calculate D2E/DX2 analytically  !
 ! D13   D(5,3,4,11)            -3.8641         calculate D2E/DX2 analytically  !
 ! D14   D(8,3,4,9)           -127.6508         calculate D2E/DX2 analytically  !
 ! D15   D(8,3,4,10)            -7.1883         calculate D2E/DX2 analytically  !
 ! D16   D(8,3,4,11)           112.3756         calculate D2E/DX2 analytically  !
 ! D17   D(1,3,5,12)           109.8627         calculate D2E/DX2 analytically  !
 ! D18   D(1,3,5,13)           -11.2533         calculate D2E/DX2 analytically  !
 ! D19   D(1,3,5,14)          -131.3071         calculate D2E/DX2 analytically  !
 ! D20   D(4,3,5,12)           -21.4999         calculate D2E/DX2 analytically  !
 ! D21   D(4,3,5,13)          -142.6158         calculate D2E/DX2 analytically  !
 ! D22   D(4,3,5,14)            97.3303         calculate D2E/DX2 analytically  !
 ! D23   D(8,3,5,12)          -137.241          calculate D2E/DX2 analytically  !
 ! D24   D(8,3,5,13)           101.6431         calculate D2E/DX2 analytically  !
 ! D25   D(8,3,5,14)           -18.4108         calculate D2E/DX2 analytically  !
 ! D26   D(1,6,7,2)           -178.8234         calculate D2E/DX2 analytically  !
 ! D27   D(1,6,7,16)            -1.9206         calculate D2E/DX2 analytically  !
 ! D28   D(15,6,7,2)             4.3256         calculate D2E/DX2 analytically  !
 ! D29   D(15,6,7,16)         -178.7716         calculate D2E/DX2 analytically  !
 --------------------------------------------------------------------------------
 Trust Radius=3.00D-01 FncErr=1.00D-07 GrdErr=1.00D-06 EigMax=2.50D+02 EigMin=1.00D-04
 Number of steps in this run=    102 maximum allowed number of steps=    102.
 GradGradGradGradGradGradGradGradGradGradGradGradGradGradGradGradGradGrad

 Leave Link  103 at Sun Sep 29 07:27:45 2019, MaxMem=   671088640 cpu:               2.1 elap:               1.1
 (Enter /shared/centos7/gaussian/g16/l202.exe)
                          Input orientation:                          
 ---------------------------------------------------------------------
 Center     Atomic      Atomic             Coordinates (Angstroms)
 Number     Number       Type             X           Y           Z
 ---------------------------------------------------------------------
      1          8           0        3.934685   -1.528229    2.656030
      2          8           0        1.083676    0.233950    1.192414
      3          6           0        3.468809   -2.398468    3.665743
      4          6           0        1.993385   -2.791784    3.592002
      5          6           0        3.844779   -1.880811    5.015094
      6          6           0        3.019919   -1.010011    1.768027
      7          6           0        2.009118   -0.260099    2.099641
      8          1           0        4.051871   -3.347651    3.506258
      9          1           0        1.434525   -2.161285    2.869258
     10          1           0        1.887720   -3.846770    3.280034
     11          1           0        1.497886   -2.677969    4.594079
     12          1           0        2.951157   -1.509462    5.598383
     13          1           0        4.571960   -1.046025    4.935012
     14          1           0        4.316144   -2.686172    5.646577
     15          1           0        3.250154   -1.249537    0.717620
     16          1           0        1.765945    0.010056    3.116649
     17          1           0        1.365941   -0.081377    0.285398
 ---------------------------------------------------------------------
                    Distance matrix (angstroms):
                    1          2          3          4          5
     1  O    0.000000
     2  O    3.657280   0.000000
     3  C    1.412047   4.328491   0.000000
     4  C    2.498252   3.967450   1.528729   0.000000
     5  C    2.386961   5.168054   1.493342   2.506535   0.000000
     6  C    1.376189   2.372299   2.393876   2.748704   3.461521
     7  C    2.371819   1.386935   3.025887   2.938846   3.807391
     8  H    2.011696   5.195375   1.125320   2.133942   2.114496
     9  H    2.587861   2.944835   2.197488   1.110050   3.239228
    10  H    3.155167   4.653699   2.178576   1.105209   3.271927
    11  H    3.319025   4.496906   2.196467   1.123668   2.514084
    12  H    3.102438   5.093087   2.189382   2.566562   1.129905
    13  H    2.415037   5.273851   2.158029   3.391224   1.109989
    14  H    3.229507   6.230211   2.173580   3.102844   1.126748
    15  H    2.074532   2.668294   3.171637   3.495721   4.384104
    16  H    2.698504   2.053850   3.000373   2.850964   3.391316
    17  H    3.783084   1.000891   4.606267   4.321299   5.634947
                    6          7          8          9         10
     6  C    0.000000
     7  C    1.301558   0.000000
     8  H    3.090459   3.960352   0.000000
     9  H    2.247580   2.130017   2.943422   0.000000
    10  H    3.408114   3.777866   2.232454   1.793037   0.000000
    11  H    3.617352   3.511363   2.855639   1.801662   1.801328
    12  H    3.863393   3.832694   2.994579   3.189541   3.459574
    13  H    3.527027   3.901944   2.758499   3.918500   4.217615
    14  H    4.419600   4.877392   2.255739   4.036426   3.583958
    15  H    1.101697   2.104552   3.580689   2.959280   3.894587
    16  H    2.105176   1.080011   4.080619   2.210377   3.862206
    17  H    2.407529   1.933157   5.315704   3.317688   4.839244
                   11         12         13         14         15
    11  H    0.000000
    12  H    2.118026   0.000000
    13  H    3.497057   1.811584   0.000000
    14  H    3.008388   1.802819   1.806059   0.000000
    15  H    4.487515   4.896816   4.424363   5.243555   0.000000
    16  H    3.078982   3.142080   3.506490   4.491514   3.089464
    17  H    5.032338   5.725395   5.729574   6.650631   2.258689
                   16         17
    16  H    0.000000
    17  H    2.860830   0.000000
 Stoichiometry    C5H10O2
 Framework group  C1[X(C5H10O2)]
 Deg. of freedom    45
 Full point group                 C1      NOp   1
 Largest Abelian subgroup         C1      NOp   1
 Largest concise Abelian subgroup C1      NOp   1
                         Standard orientation:                         
 ---------------------------------------------------------------------
 Center     Atomic      Atomic             Coordinates (Angstroms)
 Number     Number       Type             X           Y           Z
 ---------------------------------------------------------------------
      1          8           0       -0.434210   -1.080260   -0.388667
      2          8           0        2.840283    0.353802    0.383896
      3          6           0       -1.404385   -0.054710   -0.358903
      4          6           0       -0.884573    1.373256   -0.525400
      5          6           0       -2.277659   -0.197283    0.844066
      6          6           0        0.893310   -0.721368   -0.441399
      7          6           0        1.506673   -0.018133    0.465960
      8          1           0       -2.051052   -0.256835   -1.257409
      9          1           0        0.220369    1.423082   -0.431422
     10          1           0       -1.162855    1.774838   -1.516751
     11          1           0       -1.321554    2.052305    0.255989
     12          1           0       -2.096873    0.616727    1.606555
     13          1           0       -2.115042   -1.175469    1.342847
     14          1           0       -3.368338   -0.130096    0.569352
     15          1           0        1.420287   -1.132957   -1.316971
     16          1           0        1.025666    0.383834    1.345436
     17          1           0        3.200606   -0.034342   -0.465394
 ---------------------------------------------------------------------
 Rotational constants (GHZ):           5.1402500           1.4826821           1.3737807
 Leave Link  202 at Sun Sep 29 07:27:47 2019, MaxMem=   671088640 cpu:               3.8 elap:               1.9
 (Enter /shared/centos7/gaussian/g16/l301.exe)
 Standard basis: CC-pVTZ (5D, 7F)
 Ernie: Thresh=  0.10000D-02 Tol=  0.10000D-05 Strict=F.
 Ernie:  21 primitive shells out of 262 were deleted.
 There are   395 symmetry adapted cartesian basis functions of A   symmetry.
 There are   350 symmetry adapted basis functions of A   symmetry.
   350 basis functions,   534 primitive gaussians,   395 cartesian basis functions
    28 alpha electrons       28 beta electrons
       nuclear repulsion energy       317.1697176015 Hartrees.
 IExCor= 4336 DFT=T Ex+Corr=M062X ExCW=0 ScaHFX=  0.540000
 ScaDFX=  1.000000  1.000000  1.000000  1.000000 ScalE2=  1.000000  1.000000
 IRadAn=      5 IRanWt=     -1 IRanGd=            0 ICorTp=0 IEmpDi=  4
 NAtoms=   17 NActive=   17 NUniq=   17 SFac= 1.00D+00 NAtFMM=   60 NAOKFM=F Big=F
 Integral buffers will be    131072 words long.
 Raffenetti 2 integral format.
 Two-electron integral symmetry is turned on.
 Leave Link  301 at Sun Sep 29 07:27:48 2019, MaxMem=   671088640 cpu:               3.1 elap:               1.6
 (Enter /shared/centos7/gaussian/g16/l302.exe)
 NPDir=0 NMtPBC=     1 NCelOv=     1 NCel=       1 NClECP=     1 NCelD=      1
         NCelK=      1 NCelE2=     1 NClLst=     1 CellRange=     0.0.
 One-electron integrals computed using PRISM.
 One-electron integral symmetry used in STVInt
 NBasis=   350 RedAO= T EigKep=  2.69D-04  NBF=   350
 NBsUse=   350 1.00D-06 EigRej= -1.00D+00 NBFU=   350
 Precomputing XC quadrature grid using
 IXCGrd= 4 IRadAn=           5 IRanWt=          -1 IRanGd=           0 AccXCQ= 0.00D+00.
 Generated NRdTot=       0 NPtTot=           0 NUsed=           0 NTot=          32
 NSgBfM=   395   395   395   395   395 MxSgAt=    17 MxSgA2=    17.
 Leave Link  302 at Sun Sep 29 07:29:04 2019, MaxMem=   671088640 cpu:             151.5 elap:              75.8
 (Enter /shared/centos7/gaussian/g16/l303.exe)
 DipDrv:  MaxL=1.
 Leave Link  303 at Sun Sep 29 07:29:09 2019, MaxMem=   671088640 cpu:               8.8 elap:               4.4
 (Enter /shared/centos7/gaussian/g16/l401.exe)
 ExpMin= 1.03D-01 ExpMax= 1.53D+04 ExpMxC= 5.22D+02 IAcc=3 IRadAn=         5 AccDes= 0.00D+00
 Harris functional with IExCor= 1009 and IRadAn=       5 diagonalized for initial guess.
 HarFok:  IExCor= 1009 AccDes= 0.00D+00 IRadAn=         5 IDoV= 1 UseB2=F ITyADJ=14
 ICtDFT=  3500011 ScaDFX=  1.000000  1.000000  1.000000  1.000000
 FoFCou: FMM=F IPFlag=           0 FMFlag=      100000 FMFlg1=           0
         NFxFlg=           0 DoJE=T BraDBF=F KetDBF=T FulRan=T
         wScrn=  0.000000 ICntrl=       500 IOpCl=  0 I1Cent=   200000004 NGrid=           0
         NMat0=    1 NMatS0=      1 NMatT0=    0 NMatD0=    1 NMtDS0=    0 NMtDT0=    0
 Petite list used in FoFCou.
 Harris En= -346.793506757700    
 JPrj=0 DoOrth=F DoCkMO=F.
 Leave Link  401 at Sun Sep 29 07:29:52 2019, MaxMem=   671088640 cpu:              87.6 elap:              43.8
 (Enter /shared/centos7/gaussian/g16/l502.exe)
 Integral symmetry usage will be decided dynamically.
 Closed shell SCF:
 Using DIIS extrapolation, IDIIS=  1040.
 NGot=   671088640 LenX=   670765141 LenY=   670608675
 Requested convergence on RMS density matrix=1.00D-08 within 900 cycles.
 Requested convergence on MAX density matrix=1.00D-06.
 Requested convergence on             energy=1.00D-06.
 No special actions if energy rises.
 Fock matrices will be formed incrementally for  20 cycles.
 Integral accuracy reduced to 1.0D-05 until final iterations.

 Cycle   1  Pass 0  IDiag  1:
 FoFJK:  IHMeth= 1 ICntrl=       0 DoSepK=F KAlg= 0 I1Cent=           0 FoldK=F
 IRaf= 960000000 NMat=       1 IRICut=       1 DoRegI=T DoRafI=F ISym2E= 0 IDoP0=0 IntGTp=1.
 FoFCou: FMM=F IPFlag=           0 FMFlag=      100000 FMFlg1=           0
         NFxFlg=           0 DoJE=F BraDBF=F KetDBF=F FulRan=T
         wScrn=  0.000000 ICntrl=         0 IOpCl=  0 I1Cent=           0 NGrid=           0
         NMat0=    1 NMatS0=      1 NMatT0=    0 NMatD0=    1 NMtDS0=    0 NMtDT0=    0
 Symmetry not used in FoFCou.
 E= -346.679734680417    
 DIIS: error= 2.06D-02 at cycle   1 NSaved=   1.
 NSaved= 1 IEnMin= 1 EnMin= -346.679734680417     IErMin= 1 ErrMin= 2.06D-02
 ErrMax= 2.06D-02  0.00D+00 EMaxC= 1.00D-01 BMatC= 2.84D-01 BMatP= 2.84D-01
 IDIUse=3 WtCom= 7.94D-01 WtEn= 2.06D-01
 Coeff-Com:  0.100D+01
 Coeff-En:   0.100D+01
 Coeff:      0.100D+01
 Gap=     0.340 Goal=   None    Shift=    0.000
 GapD=    0.340 DampG=1.000 DampE=0.500 DampFc=0.5000 IDamp=-1.
 Damping current iteration by 5.00D-01
 RMSDP=2.11D-03 MaxDP=1.16D-01              OVMax= 1.39D-01

 Cycle   2  Pass 0  IDiag  1:
 RMSU=  1.06D-03    CP:  1.00D+00
 E= -346.797848696280     Delta-E=       -0.118114015864 Rises=F Damp=T
 DIIS: error= 5.77D-03 at cycle   2 NSaved=   2.
 NSaved= 2 IEnMin= 2 EnMin= -346.797848696280     IErMin= 2 ErrMin= 5.77D-03
 ErrMax= 5.77D-03  0.00D+00 EMaxC= 1.00D-01 BMatC= 2.14D-02 BMatP= 2.84D-01
 IDIUse=3 WtCom= 9.42D-01 WtEn= 5.77D-02
 Coeff-Com: -0.137D+00 0.114D+01
 Coeff-En:   0.000D+00 0.100D+01
 Coeff:     -0.129D+00 0.113D+01
 Gap=     0.337 Goal=   None    Shift=    0.000
 RMSDP=4.67D-04 MaxDP=1.64D-02 DE=-1.18D-01 OVMax= 7.19D-02

 Cycle   3  Pass 0  IDiag  1:
 RMSU=  4.62D-04    CP:  1.00D+00  9.43D-01
 E= -346.904185847334     Delta-E=       -0.106337151053 Rises=F Damp=F
 DIIS: error= 2.14D-03 at cycle   3 NSaved=   3.
 NSaved= 3 IEnMin= 3 EnMin= -346.904185847334     IErMin= 3 ErrMin= 2.14D-03
 ErrMax= 2.14D-03  0.00D+00 EMaxC= 1.00D-01 BMatC= 2.99D-03 BMatP= 2.14D-02
 IDIUse=3 WtCom= 9.79D-01 WtEn= 2.14D-02
 Coeff-Com: -0.793D-01 0.287D+00 0.792D+00
 Coeff-En:   0.000D+00 0.000D+00 0.100D+01
 Coeff:     -0.776D-01 0.281D+00 0.796D+00
 Gap=     0.337 Goal=   None    Shift=    0.000
 RMSDP=1.26D-04 MaxDP=4.38D-03 DE=-1.06D-01 OVMax= 1.26D-02

 Cycle   4  Pass 0  IDiag  1:
 RMSU=  1.03D-04    CP:  1.00D+00  1.00D+00  9.24D-01
 E= -346.905909760637     Delta-E=       -0.001723913303 Rises=F Damp=F
 DIIS: error= 1.21D-03 at cycle   4 NSaved=   4.
 NSaved= 4 IEnMin= 4 EnMin= -346.905909760637     IErMin= 4 ErrMin= 1.21D-03
 ErrMax= 1.21D-03  0.00D+00 EMaxC= 1.00D-01 BMatC= 7.70D-04 BMatP= 2.99D-03
 IDIUse=3 WtCom= 9.88D-01 WtEn= 1.21D-02
 Coeff-Com: -0.267D-01 0.710D-01 0.385D+00 0.571D+00
 Coeff-En:   0.000D+00 0.000D+00 0.137D+00 0.863D+00
 Coeff:     -0.264D-01 0.702D-01 0.382D+00 0.575D+00
 Gap=     0.333 Goal=   None    Shift=    0.000
 RMSDP=4.69D-05 MaxDP=1.80D-03 DE=-1.72D-03 OVMax= 6.65D-03

 Cycle   5  Pass 0  IDiag  1:
 RMSU=  2.73D-05    CP:  1.00D+00  1.00D+00  9.52D-01  6.52D-01
 E= -346.906475890868     Delta-E=       -0.000566130231 Rises=F Damp=F
 DIIS: error= 2.20D-04 at cycle   5 NSaved=   5.
 NSaved= 5 IEnMin= 5 EnMin= -346.906475890868     IErMin= 5 ErrMin= 2.20D-04
 ErrMax= 2.20D-04  0.00D+00 EMaxC= 1.00D-01 BMatC= 3.42D-05 BMatP= 7.70D-04
 IDIUse=3 WtCom= 9.98D-01 WtEn= 2.20D-03
 Coeff-Com: -0.549D-02 0.110D-01 0.106D+00 0.242D+00 0.646D+00
 Coeff-En:   0.000D+00 0.000D+00 0.000D+00 0.000D+00 0.100D+01
 Coeff:     -0.548D-02 0.110D-01 0.106D+00 0.242D+00 0.647D+00
 Gap=     0.333 Goal=   None    Shift=    0.000
 RMSDP=1.45D-05 MaxDP=5.45D-04 DE=-5.66D-04 OVMax= 1.77D-03

 Cycle   6  Pass 0  IDiag  1:
 RMSU=  9.35D-06    CP:  1.00D+00  9.98D-01  9.62D-01  6.94D-01  7.39D-01
 E= -346.906501160171     Delta-E=       -0.000025269304 Rises=F Damp=F
 DIIS: error= 6.94D-05 at cycle   6 NSaved=   6.
 NSaved= 6 IEnMin= 6 EnMin= -346.906501160171     IErMin= 6 ErrMin= 6.94D-05
 ErrMax= 6.94D-05  0.00D+00 EMaxC= 1.00D-01 BMatC= 2.45D-06 BMatP= 3.42D-05
 IDIUse=1 WtCom= 1.00D+00 WtEn= 0.00D+00
 Coeff-Com: -0.201D-03-0.846D-03 0.173D-01 0.646D-01 0.265D+00 0.654D+00
 Coeff:     -0.201D-03-0.846D-03 0.173D-01 0.646D-01 0.265D+00 0.654D+00
 Gap=     0.333 Goal=   None    Shift=    0.000
 RMSDP=3.84D-06 MaxDP=1.39D-04 DE=-2.53D-05 OVMax= 6.63D-04

 Initial convergence to 1.0D-05 achieved.  Increase integral accuracy.
 Cycle   7  Pass 1  IDiag  1:
 E= -346.906481891418     Delta-E=        0.000019268753 Rises=F Damp=F
 DIIS: error= 2.43D-05 at cycle   1 NSaved=   1.
 NSaved= 1 IEnMin= 1 EnMin= -346.906481891418     IErMin= 1 ErrMin= 2.43D-05
 ErrMax= 2.43D-05  0.00D+00 EMaxC= 1.00D-01 BMatC= 7.05D-07 BMatP= 7.05D-07
 IDIUse=1 WtCom= 1.00D+00 WtEn= 0.00D+00
 Coeff-Com:  0.100D+01
 Coeff:      0.100D+01
 Gap=     0.334 Goal=   None    Shift=    0.000
 RMSDP=3.84D-06 MaxDP=1.39D-04 DE= 1.93D-05 OVMax= 3.75D-04

 Cycle   8  Pass 1  IDiag  1:
 RMSU=  6.74D-06    CP:  1.00D+00
 E= -346.906482025915     Delta-E=       -0.000000134497 Rises=F Damp=F
 DIIS: error= 2.39D-05 at cycle   2 NSaved=   2.
 NSaved= 2 IEnMin= 2 EnMin= -346.906482025915     IErMin= 2 ErrMin= 2.39D-05
 ErrMax= 2.39D-05  0.00D+00 EMaxC= 1.00D-01 BMatC= 4.25D-07 BMatP= 7.05D-07
 IDIUse=1 WtCom= 1.00D+00 WtEn= 0.00D+00
 Coeff-Com:  0.418D+00 0.582D+00
 Coeff:      0.418D+00 0.582D+00
 Gap=     0.334 Goal=   None    Shift=    0.000
 RMSDP=2.02D-06 MaxDP=7.67D-05 DE=-1.34D-07 OVMax= 3.27D-04

 Cycle   9  Pass 1  IDiag  1:
 RMSU=  2.01D-06    CP:  1.00D+00  9.70D-01
 E= -346.906482329560     Delta-E=       -0.000000303645 Rises=F Damp=F
 DIIS: error= 9.25D-06 at cycle   3 NSaved=   3.
 NSaved= 3 IEnMin= 3 EnMin= -346.906482329560     IErMin= 3 ErrMin= 9.25D-06
 ErrMax= 9.25D-06  0.00D+00 EMaxC= 1.00D-01 BMatC= 7.29D-08 BMatP= 4.25D-07
 IDIUse=1 WtCom= 1.00D+00 WtEn= 0.00D+00
 Coeff-Com: -0.106D-01 0.286D+00 0.725D+00
 Coeff:     -0.106D-01 0.286D+00 0.725D+00
 Gap=     0.334 Goal=   None    Shift=    0.000
 RMSDP=6.28D-07 MaxDP=2.46D-05 DE=-3.04D-07 OVMax= 9.23D-05

 Cycle  10  Pass 1  IDiag  1:
 RMSU=  3.20D-07    CP:  1.00D+00  1.01D+00  7.64D-01
 E= -346.906482387998     Delta-E=       -0.000000058438 Rises=F Damp=F
 DIIS: error= 1.88D-06 at cycle   4 NSaved=   4.
 NSaved= 4 IEnMin= 4 EnMin= -346.906482387998     IErMin= 4 ErrMin= 1.88D-06
 ErrMax= 1.88D-06  0.00D+00 EMaxC= 1.00D-01 BMatC= 2.36D-09 BMatP= 7.29D-08
 IDIUse=1 WtCom= 1.00D+00 WtEn= 0.00D+00
 Coeff-Com: -0.161D-01 0.111D+00 0.317D+00 0.588D+00
 Coeff:     -0.161D-01 0.111D+00 0.317D+00 0.588D+00
 Gap=     0.334 Goal=   None    Shift=    0.000
 RMSDP=9.81D-08 MaxDP=4.99D-06 DE=-5.84D-08 OVMax= 9.43D-06

 Cycle  11  Pass 1  IDiag  1:
 RMSU=  9.39D-08    CP:  1.00D+00  1.01D+00  7.70D-01  9.91D-01
 E= -346.906482390053     Delta-E=       -0.000000002055 Rises=F Damp=F
 DIIS: error= 4.26D-07 at cycle   5 NSaved=   5.
 NSaved= 5 IEnMin= 5 EnMin= -346.906482390053     IErMin= 5 ErrMin= 4.26D-07
 ErrMax= 4.26D-07  0.00D+00 EMaxC= 1.00D-01 BMatC= 1.10D-10 BMatP= 2.36D-09
 IDIUse=1 WtCom= 1.00D+00 WtEn= 0.00D+00
 Coeff-Com: -0.190D-02-0.146D-01-0.300D-01 0.107D+00 0.940D+00
 Coeff:     -0.190D-02-0.146D-01-0.300D-01 0.107D+00 0.940D+00
 Gap=     0.334 Goal=   None    Shift=    0.000
 RMSDP=5.32D-08 MaxDP=1.41D-06 DE=-2.05D-09 OVMax= 5.47D-06

 Cycle  12  Pass 1  IDiag  1:
 RMSU=  2.80D-08    CP:  1.00D+00  1.01D+00  7.77D-01  1.11D+00  1.13D+00
 E= -346.906482390200     Delta-E=       -0.000000000148 Rises=F Damp=F
 DIIS: error= 2.22D-07 at cycle   6 NSaved=   6.
 NSaved= 6 IEnMin= 6 EnMin= -346.906482390200     IErMin= 6 ErrMin= 2.22D-07
 ErrMax= 2.22D-07  0.00D+00 EMaxC= 1.00D-01 BMatC= 2.44D-11 BMatP= 1.10D-10
 IDIUse=1 WtCom= 1.00D+00 WtEn= 0.00D+00
 Coeff-Com:  0.918D-03-0.173D-01-0.456D-01-0.157D-01 0.398D+00 0.680D+00
 Coeff:      0.918D-03-0.173D-01-0.456D-01-0.157D-01 0.398D+00 0.680D+00
 Gap=     0.334 Goal=   None    Shift=    0.000
 RMSDP=1.69D-08 MaxDP=5.91D-07 DE=-1.48D-10 OVMax= 1.63D-06

 Cycle  13  Pass 1  IDiag  1:
 RMSU=  1.01D-08    CP:  1.00D+00  1.01D+00  7.77D-01  1.15D+00  1.20D+00
                    CP:  9.38D-01
 E= -346.906482390232     Delta-E=       -0.000000000032 Rises=F Damp=F
 DIIS: error= 5.10D-08 at cycle   7 NSaved=   7.
 NSaved= 7 IEnMin= 7 EnMin= -346.906482390232     IErMin= 7 ErrMin= 5.10D-08
 ErrMax= 5.10D-08  0.00D+00 EMaxC= 1.00D-01 BMatC= 1.84D-12 BMatP= 2.44D-11
 IDIUse=1 WtCom= 1.00D+00 WtEn= 0.00D+00
 Coeff-Com:  0.497D-03-0.566D-02-0.160D-01-0.148D-01 0.825D-01 0.260D+00
 Coeff-Com:  0.693D+00
 Coeff:      0.497D-03-0.566D-02-0.160D-01-0.148D-01 0.825D-01 0.260D+00
 Coeff:      0.693D+00
 Gap=     0.334 Goal=   None    Shift=    0.000
 RMSDP=4.35D-09 MaxDP=1.30D-07 DE=-3.18D-11 OVMax= 4.94D-07

 SCF Done:  E(RM062X) =  -346.906482390     A.U. after   13 cycles
            NFock= 13  Conv=0.43D-08     -V/T= 2.0060
 KE= 3.448371945357D+02 PE=-1.444360217880D+03 EE= 4.354468233522D+02
 Leave Link  502 at Sun Sep 29 07:46:32 2019, MaxMem=   671088640 cpu:            1996.2 elap:             999.5
 (Enter /shared/centos7/gaussian/g16/l801.exe)
 DoSCS=F DFT=T ScalE2(SS,OS)=  1.000000  1.000000
 Range of M.O.s used for correlation:     1   350
 NBasis=   350 NAE=    28 NBE=    28 NFC=     0 NFV=     0
 NROrb=    350 NOA=    28 NOB=    28 NVA=   322 NVB=   322

 **** Warning!!: The largest alpha MO coefficient is  0.11326085D+02

 Leave Link  801 at Sun Sep 29 07:46:33 2019, MaxMem=   671088640 cpu:               1.8 elap:               0.9
 (Enter /shared/centos7/gaussian/g16/l1101.exe)
 Using compressed storage, NAtomX=    17.
 Will process     18 centers per pass.
 Leave Link 1101 at Sun Sep 29 07:47:06 2019, MaxMem=   671088640 cpu:              65.6 elap:              32.8
 (Enter /shared/centos7/gaussian/g16/l1102.exe)
 Symmetrizing basis deriv contribution to polar:
 IMax=3 JMax=2 DiffMx= 0.00D+00
 Leave Link 1102 at Sun Sep 29 07:47:09 2019, MaxMem=   671088640 cpu:               5.8 elap:               2.9
 (Enter /shared/centos7/gaussian/g16/l1110.exe)
 Forming Gx(P) for the SCF density, NAtomX=    17.
 Integral derivatives from FoFJK, PRISM(SPDF).
 Do as many integral derivatives as possible in FoFJK.
 G2DrvN: MDV=     671087280.
 G2DrvN: will do    18 centers at a time, making    1 passes.
 Calling FoFCou, ICntrl=  3107 FMM=F I1Cent=   0 AccDes= 0.00D+00.
 FoFJK:  IHMeth= 1 ICntrl=    3107 DoSepK=F KAlg= 0 I1Cent=           0 FoldK=F
 IRaf=         0 NMat=       1 IRICut=       1 DoRegI=T DoRafI=F ISym2E= 0 IDoP0=0 IntGTp=1.
 FoFCou: FMM=F IPFlag=           0 FMFlag=      100000 FMFlg1=           0
         NFxFlg=           0 DoJE=F BraDBF=F KetDBF=F FulRan=T
         wScrn=  0.000000 ICntrl=      3107 IOpCl=  0 I1Cent=           0 NGrid=           0
         NMat0=    1 NMatS0=      1 NMatT0=    0 NMatD0=    1 NMtDS0=    0 NMtDT0=    0
 Symmetry not used in FoFCou.
 End of G2Drv F.D. properties file   721 does not exist.
 End of G2Drv F.D. properties file   722 does not exist.
 End of G2Drv F.D. properties file   788 does not exist.
 Leave Link 1110 at Sun Sep 29 08:12:36 2019, MaxMem=   671088640 cpu:            3054.7 elap:            1527.5
 (Enter /shared/centos7/gaussian/g16/l1002.exe)
 Minotr:  Closed shell wavefunction.
          IDoAtm=11111111111111111
          Direct CPHF calculation.
          Differentiating once with respect to nuclear coordinates.
          Requested convergence is 1.0D-08 RMS, and 1.0D-07 maximum.
          Secondary convergence is 1.0D-12 RMS, and 1.0D-12 maximum.
          NewPWx=T KeepS1=F KeepF1=F KeepIn=T MapXYZ=F SortEE=F KeepMc=T.
         5109 words used for storage of precomputed grid.
 Two-electron integrals replicated using symmetry.
          MDV=     671088640 using IRadAn=       1.
          Solving linear equations simultaneously, MaxMat=     380.
 FoF2E skips out because all densities are zero.
 CalDSu exits because no D1Ps are significant.
 FoFJK:  IHMeth= 1 ICntrl=       0 DoSepK=F KAlg= 0 I1Cent=           0 FoldK=F
 IRaf= 940000000 NMat=      51 IRICut=     127 DoRegI=T DoRafI=T ISym2E= 2 IDoP0=3 IntGTp=3.
 FoFCou: FMM=F IPFlag=           0 FMFlag=      100000 FMFlg1=           0
         NFxFlg=           0 DoJE=F BraDBF=F KetDBF=F FulRan=T
         wScrn=  0.000000 ICntrl=         0 IOpCl=  0 I1Cent=           0 NGrid=           0
         NMat0=   51 NMatS0=     51 NMatT0=    0 NMatD0=   51 NMtDS0=    0 NMtDT0=    0
 Integrals replicated using symmetry in FoFCou.
 Raff kept on since  91.88% of shell-pairs survive, threshold=   0.20 IRatSp=92.
          There are    54 degrees of freedom in the 1st order CPHF.  IDoFFX=6 NUNeed=     0.
     48 vectors produced by pass  0 Test12= 1.67D-14 1.85D-09 XBig12= 7.98D-02 4.98D-02.
 AX will form    48 AO Fock derivatives at one time.
     48 vectors produced by pass  1 Test12= 1.67D-14 1.85D-09 XBig12= 7.11D-03 2.31D-02.
     48 vectors produced by pass  2 Test12= 1.67D-14 1.85D-09 XBig12= 2.04D-04 2.45D-03.
     48 vectors produced by pass  3 Test12= 1.67D-14 1.85D-09 XBig12= 2.30D-06 1.99D-04.
     48 vectors produced by pass  4 Test12= 1.67D-14 1.85D-09 XBig12= 1.83D-08 2.15D-05.
     48 vectors produced by pass  5 Test12= 1.67D-14 1.85D-09 XBig12= 8.75D-11 1.23D-06.
     25 vectors produced by pass  6 Test12= 1.67D-14 1.85D-09 XBig12= 3.73D-13 6.44D-08.
      4 vectors produced by pass  7 Test12= 1.67D-14 1.85D-09 XBig12= 1.36D-15 3.80D-09.
 InvSVY:  IOpt=1 It=  1 EMax= 3.33D-16
 Solved reduced A of dimension   317 with    54 vectors.
 End of Minotr F.D. properties file   721 does not exist.
 End of Minotr F.D. properties file   722 does not exist.
 End of Minotr F.D. properties file   788 does not exist.
 Leave Link 1002 at Sun Sep 29 08:56:27 2019, MaxMem=   671088640 cpu:            5261.8 elap:            2631.2
 (Enter /shared/centos7/gaussian/g16/l601.exe)
 Copying SCF densities to generalized density rwf, IOpCl= 0 IROHF=0.

 **********************************************************************

            Population analysis using the SCF density.

 **********************************************************************

 Orbital symmetries:
       Occupied  (A) (A) (A) (A) (A) (A) (A) (A) (A) (A) (A) (A)
                 (A) (A) (A) (A) (A) (A) (A) (A) (A) (A) (A) (A)
                 (A) (A) (A) (A)
       Virtual   (A) (A) (A) (A) (A) (A) (A) (A) (A) (A) (A) (A)
                 (A) (A) (A) (A) (A) (A) (A) (A) (A) (A) (A) (A)
                 (A) (A) (A) (A) (A) (A) (A) (A) (A) (A) (A) (A)
                 (A) (A) (A) (A) (A) (A) (A) (A) (A) (A) (A) (A)
                 (A) (A) (A) (A) (A) (A) (A) (A) (A) (A) (A) (A)
                 (A) (A) (A) (A) (A) (A) (A) (A) (A) (A) (A) (A)
                 (A) (A) (A) (A) (A) (A) (A) (A) (A) (A) (A) (A)
                 (A) (A) (A) (A) (A) (A) (A) (A) (A) (A) (A) (A)
                 (A) (A) (A) (A) (A) (A) (A) (A) (A) (A) (A) (A)
                 (A) (A) (A) (A) (A) (A) (A) (A) (A) (A) (A) (A)
                 (A) (A) (A) (A) (A) (A) (A) (A) (A) (A) (A) (A)
                 (A) (A) (A) (A) (A) (A) (A) (A) (A) (A) (A) (A)
                 (A) (A) (A) (A) (A) (A) (A) (A) (A) (A) (A) (A)
                 (A) (A) (A) (A) (A) (A) (A) (A) (A) (A) (A) (A)
                 (A) (A) (A) (A) (A) (A) (A) (A) (A) (A) (A) (A)
                 (A) (A) (A) (A) (A) (A) (A) (A) (A) (A) (A) (A)
                 (A) (A) (A) (A) (A) (A) (A) (A) (A) (A) (A) (A)
                 (A) (A) (A) (A) (A) (A) (A) (A) (A) (A) (A) (A)
                 (A) (A) (A) (A) (A) (A) (A) (A) (A) (A) (A) (A)
                 (A) (A) (A) (A) (A) (A) (A) (A) (A) (A) (A) (A)
                 (A) (A) (A) (A) (A) (A) (A) (A) (A) (A) (A) (A)
                 (A) (A) (A) (A) (A) (A) (A) (A) (A) (A) (A) (A)
                 (A) (A) (A) (A) (A) (A) (A) (A) (A) (A) (A) (A)
                 (A) (A) (A) (A) (A) (A) (A) (A) (A) (A) (A) (A)
                 (A) (A) (A) (A) (A) (A) (A) (A) (A) (A) (A) (A)
                 (A) (A) (A) (A) (A) (A) (A) (A) (A) (A) (A) (A)
                 (A) (A) (A) (A) (A) (A) (A) (A) (A) (A)
 The electronic state is 1-A.
 Alpha  occ. eigenvalues --  -19.65483 -19.63800 -10.59318 -10.58960 -10.57931
 Alpha  occ. eigenvalues --  -10.53017 -10.52871  -1.18007  -1.16657  -0.89139
 Alpha  occ. eigenvalues --   -0.84569  -0.77650  -0.71210  -0.66219  -0.60513
 Alpha  occ. eigenvalues --   -0.56985  -0.53671  -0.52972  -0.49520  -0.48022
 Alpha  occ. eigenvalues --   -0.47285  -0.45413  -0.44781  -0.42161  -0.41078
 Alpha  occ. eigenvalues --   -0.38843  -0.34553  -0.27924
 Alpha virt. eigenvalues --    0.05433   0.06297   0.07064   0.08725   0.11065
 Alpha virt. eigenvalues --    0.11477   0.12398   0.13190   0.15752   0.16631
 Alpha virt. eigenvalues --    0.17997   0.20023   0.21685   0.23657   0.25439
 Alpha virt. eigenvalues --    0.26882   0.29282   0.30940   0.32115   0.32684
 Alpha virt. eigenvalues --    0.35277   0.35917   0.37045   0.39266   0.40015
 Alpha virt. eigenvalues --    0.40822   0.43791   0.44496   0.45543   0.46015
 Alpha virt. eigenvalues --    0.47316   0.47755   0.48336   0.49730   0.50308
 Alpha virt. eigenvalues --    0.51750   0.52838   0.53100   0.53381   0.54852
 Alpha virt. eigenvalues --    0.55275   0.56822   0.57377   0.59004   0.60492
 Alpha virt. eigenvalues --    0.63571   0.65458   0.68323   0.70027   0.70697
 Alpha virt. eigenvalues --    0.74194   0.75046   0.77725   0.80544   0.82671
 Alpha virt. eigenvalues --    0.84901   0.85226   0.89865   0.90255   0.92631
 Alpha virt. eigenvalues --    0.95214   0.95698   0.98053   0.98862   0.99857
 Alpha virt. eigenvalues --    1.02435   1.03367   1.04401   1.05892   1.06463
 Alpha virt. eigenvalues --    1.08026   1.09863   1.10623   1.11783   1.12763
 Alpha virt. eigenvalues --    1.14356   1.16384   1.17564   1.18512   1.18680
 Alpha virt. eigenvalues --    1.21209   1.22170   1.25510   1.28509   1.29946
 Alpha virt. eigenvalues --    1.30164   1.30582   1.32530   1.33554   1.34719
 Alpha virt. eigenvalues --    1.35983   1.36560   1.37151   1.41187   1.41631
 Alpha virt. eigenvalues --    1.42787   1.43428   1.47109   1.48390   1.50246
 Alpha virt. eigenvalues --    1.53079   1.54286   1.55051   1.58103   1.60579
 Alpha virt. eigenvalues --    1.62708   1.64412   1.66473   1.78817   1.86122
 Alpha virt. eigenvalues --    1.87837   1.89516   1.97219   2.00450   2.05346
 Alpha virt. eigenvalues --    2.08764   2.11158   2.16383   2.17697   2.21267
 Alpha virt. eigenvalues --    2.24746   2.27059   2.29557   2.30872   2.32444
 Alpha virt. eigenvalues --    2.36030   2.37271   2.41231   2.43583   2.46489
 Alpha virt. eigenvalues --    2.49737   2.51042   2.51604   2.56583   2.57850
 Alpha virt. eigenvalues --    2.59857   2.61491   2.62850   2.66387   2.68033
 Alpha virt. eigenvalues --    2.70089   2.71898   2.75413   2.77043   2.79088
 Alpha virt. eigenvalues --    2.80069   2.81475   2.83682   2.84109   2.85455
 Alpha virt. eigenvalues --    2.87505   2.90844   2.90965   2.92616   2.94307
 Alpha virt. eigenvalues --    2.96542   2.96817   2.98471   2.99194   3.00441
 Alpha virt. eigenvalues --    3.01567   3.02532   3.04788   3.05900   3.06514
 Alpha virt. eigenvalues --    3.08723   3.09032   3.10636   3.12746   3.14154
 Alpha virt. eigenvalues --    3.16330   3.17882   3.18949   3.20847   3.22542
 Alpha virt. eigenvalues --    3.25759   3.26318   3.27949   3.29120   3.31288
 Alpha virt. eigenvalues --    3.31904   3.33007   3.35101   3.36658   3.37443
 Alpha virt. eigenvalues --    3.38781   3.39804   3.41834   3.43189   3.44134
 Alpha virt. eigenvalues --    3.46499   3.49017   3.49252   3.53138   3.55127
 Alpha virt. eigenvalues --    3.55570   3.56439   3.57721   3.59952   3.61003
 Alpha virt. eigenvalues --    3.61990   3.63192   3.66423   3.68815   3.71128
 Alpha virt. eigenvalues --    3.73299   3.73849   3.75587   3.77150   3.78578
 Alpha virt. eigenvalues --    3.79511   3.81868   3.82559   3.84318   3.86525
 Alpha virt. eigenvalues --    3.86880   3.88356   3.89221   3.91936   3.93618
 Alpha virt. eigenvalues --    3.96264   3.97871   3.99185   4.00934   4.01635
 Alpha virt. eigenvalues --    4.02207   4.04484   4.05005   4.07163   4.08512
 Alpha virt. eigenvalues --    4.11225   4.11813   4.12816   4.16362   4.18241
 Alpha virt. eigenvalues --    4.20039   4.20562   4.22348   4.25336   4.27134
 Alpha virt. eigenvalues --    4.28384   4.33844   4.34832   4.38307   4.41151
 Alpha virt. eigenvalues --    4.42828   4.47183   4.48821   4.54057   4.56132
 Alpha virt. eigenvalues --    4.58082   4.62257   4.65178   4.66146   4.68296
 Alpha virt. eigenvalues --    4.72102   4.73788   4.76874   4.79561   4.81366
 Alpha virt. eigenvalues --    4.83234   4.84939   4.88253   4.90660   4.92593
 Alpha virt. eigenvalues --    4.94274   4.97512   4.99244   5.01524   5.03156
 Alpha virt. eigenvalues --    5.08189   5.09383   5.11035   5.14029   5.17512
 Alpha virt. eigenvalues --    5.19264   5.22482   5.24747   5.25820   5.27701
 Alpha virt. eigenvalues --    5.28727   5.30581   5.34176   5.39065   5.44371
 Alpha virt. eigenvalues --    5.46571   5.53293   5.58544   5.66941   5.69606
 Alpha virt. eigenvalues --    5.78362   5.79573   5.81616   5.81892   5.84511
 Alpha virt. eigenvalues --    5.89416   6.01189   6.21223   6.24682   6.30936
 Alpha virt. eigenvalues --    6.31496   6.48258   6.53458   6.58724   6.70972
 Alpha virt. eigenvalues --    6.73046   6.75912   6.77393   6.79920   7.04151
 Alpha virt. eigenvalues --    7.10520   7.14681   7.28132   7.30045   7.37367
 Alpha virt. eigenvalues --   10.31423  10.86302  11.71959  11.91388  12.98302
 Alpha virt. eigenvalues --   13.41137  14.20580
          Condensed to atoms (all electrons):
               1          2          3          4          5          6
     1  O    7.864552   0.003475   0.292357  -0.043886  -0.054749   0.351053
     2  O    0.003475   7.795742   0.000062  -0.001861   0.000032  -0.066356
     3  C    0.292357   0.000062   4.922256   0.291658   0.315089  -0.084392
     4  C   -0.043886  -0.001861   0.291658   5.123418  -0.060372  -0.029452
     5  C   -0.054749   0.000032   0.315089  -0.060372   5.050096  -0.003240
     6  C    0.351053  -0.066356  -0.084392  -0.029452  -0.003240   5.116182
     7  C   -0.069440   0.330556   0.005066  -0.012637   0.001064   0.428857
     8  H   -0.042294   0.000004   0.421247  -0.055916  -0.067216   0.007380
     9  H   -0.004638   0.008312  -0.030902   0.405803   0.002971  -0.025326
    10  H    0.002240  -0.000077  -0.039891   0.399086   0.007876   0.004130
    11  H    0.003547  -0.000018  -0.042020   0.395007  -0.013062   0.003264
    12  H    0.002706   0.000009  -0.044395  -0.015128   0.397203   0.000963
    13  H    0.005411   0.000001  -0.041003   0.009667   0.381043   0.001109
    14  H    0.004570   0.000000  -0.038201   0.003690   0.393219  -0.000126
    15  H   -0.044203  -0.001505   0.002783  -0.000553  -0.001058   0.452153
    16  H   -0.001917  -0.028717   0.004172  -0.003518  -0.001577  -0.063147
    17  H    0.000141   0.325881   0.000227  -0.000152  -0.000018  -0.006290
               7          8          9         10         11         12
     1  O   -0.069440  -0.042294  -0.004638   0.002240   0.003547   0.002706
     2  O    0.330556   0.000004   0.008312  -0.000077  -0.000018   0.000009
     3  C    0.005066   0.421247  -0.030902  -0.039891  -0.042020  -0.044395
     4  C   -0.012637  -0.055916   0.405803   0.399086   0.395007  -0.015128
     5  C    0.001064  -0.067216   0.002971   0.007876  -0.013062   0.397203
     6  C    0.428857   0.007380  -0.025326   0.004130   0.003264   0.000963
     7  C    5.069543  -0.002359  -0.010475   0.001114  -0.000496  -0.001007
     8  H   -0.002359   0.625831   0.004034  -0.014344   0.006419   0.008995
     9  H   -0.010475   0.004034   0.569703  -0.030552  -0.034322   0.001599
    10  H    0.001114  -0.014344  -0.030552   0.578770  -0.028809   0.000597
    11  H   -0.000496   0.006419  -0.034322  -0.028809   0.594877  -0.000320
    12  H   -0.001007   0.008995   0.001599   0.000597  -0.000320   0.621307
    13  H   -0.000613   0.003178  -0.000542  -0.000526   0.000814  -0.031825
    14  H   -0.000123  -0.011676  -0.000185  -0.000431   0.000212  -0.035772
    15  H   -0.108601   0.001621  -0.000332   0.000029   0.000035   0.000087
    16  H    0.422863   0.000081  -0.006806   0.000225   0.000074   0.000383
    17  H   -0.050289   0.000010  -0.000411   0.000022   0.000001   0.000002
              13         14         15         16         17
     1  O    0.005411   0.004570  -0.044203  -0.001917   0.000141
     2  O    0.000001   0.000000  -0.001505  -0.028717   0.325881
     3  C   -0.041003  -0.038201   0.002783   0.004172   0.000227
     4  C    0.009667   0.003690  -0.000553  -0.003518  -0.000152
     5  C    0.381043   0.393219  -0.001058  -0.001577  -0.000018
     6  C    0.001109  -0.000126   0.452153  -0.063147  -0.006290
     7  C   -0.000613  -0.000123  -0.108601   0.422863  -0.050289
     8  H    0.003178  -0.011676   0.001621   0.000081   0.000010
     9  H   -0.000542  -0.000185  -0.000332  -0.006806  -0.000411
    10  H   -0.000526  -0.000431   0.000029   0.000225   0.000022
    11  H    0.000814   0.000212   0.000035   0.000074   0.000001
    12  H   -0.031825  -0.035772   0.000087   0.000383   0.000002
    13  H    0.565870  -0.022616   0.000116   0.000357   0.000002
    14  H   -0.022616   0.593436   0.000072   0.000046   0.000001
    15  H    0.000116   0.000072   0.565463   0.003450   0.006087
    16  H    0.000357   0.000046   0.003450   0.485499   0.006508
    17  H    0.000002   0.000001   0.006087   0.006508   0.454586
 Mulliken charges:
               1
     1  O   -0.268923
     2  O   -0.365541
     3  C    0.065887
     4  C   -0.404855
     5  C   -0.347302
     6  C   -0.086762
     7  C   -0.003022
     8  H    0.115006
     9  H    0.152069
    10  H    0.120540
    11  H    0.114797
    12  H    0.094596
    13  H    0.129556
    14  H    0.113883
    15  H    0.124356
    16  H    0.182022
    17  H    0.263691
 Sum of Mulliken charges =  -0.00000
 Mulliken charges with hydrogens summed into heavy atoms:
               1
     1  O   -0.268923
     2  O   -0.101850
     3  C    0.180893
     4  C   -0.017448
     5  C   -0.009267
     6  C    0.037594
     7  C    0.179000
 APT charges:
               1
     1  O   -0.175473
     2  O   -0.478698
     3  C   -0.254304
     4  C   -0.996541
     5  C   -1.193852
     6  C   -0.448544
     7  C   -0.254029
     8  H    0.435296
     9  H    0.187110
    10  H    0.419997
    11  H    0.360960
    12  H    0.286807
    13  H    0.306987
    14  H    0.522829
    15  H    0.422911
    16  H    0.281718
    17  H    0.576824
 Sum of APT charges =  -0.00000
 APT charges with hydrogens summed into heavy atoms:
               1
     1  O   -0.175473
     2  O    0.098126
     3  C    0.180992
     4  C   -0.028473
     5  C   -0.077229
     6  C   -0.025633
     7  C    0.027689
 Electronic spatial extent (au):  <R**2>=            936.7961
 Charge=             -0.0000 electrons
 Dipole moment (field-independent basis, Debye):
    X=             -0.1767    Y=              0.6231    Z=             -1.0577  Tot=              1.2403
 Quadrupole moment (field-independent basis, Debye-Ang):
   XX=            -42.2852   YY=            -47.2268   ZZ=            -42.4760
   XY=             -3.0779   XZ=             -4.6735   YZ=              0.5802
 Traceless Quadrupole moment (field-independent basis, Debye-Ang):
   XX=              1.7108   YY=             -3.2308   ZZ=              1.5200
   XY=             -3.0779   XZ=             -4.6735   YZ=              0.5802
 Octapole moment (field-independent basis, Debye-Ang**2):
  XXX=             10.8822  YYY=             -1.0331  ZZZ=             -1.4165  XYY=              2.8225
  XXY=             -9.0884  XXZ=            -18.5526  XZZ=              5.2634  YZZ=             -0.5722
  YYZ=              0.4444  XYZ=              1.7465
 Hexadecapole moment (field-independent basis, Debye-Ang**3):
 XXXX=           -801.5806 YYYY=           -232.5946 ZZZZ=           -156.2383 XXXY=            -14.8287
 XXXZ=            -45.7214 YYYX=              4.1947 YYYZ=              3.3051 ZZZX=              6.2386
 ZZZY=              4.4896 XXYY=           -183.6874 XXZZ=           -163.0090 YYZZ=            -61.1519
 XXYZ=              1.8827 YYXZ=             -2.7786 ZZXY=             -0.2519
 N-N= 3.171697176015D+02 E-N=-1.444360211066D+03  KE= 3.448371945357D+02
  Exact polarizability:   0.000   0.000   0.000   0.000   0.000   0.000
 Approx polarizability:  86.883   4.055  74.839   4.466   8.204  78.932
 No NMR shielding tensors so no spin-rotation constants.
 Leave Link  601 at Sun Sep 29 08:56:58 2019, MaxMem=   671088640 cpu:              61.2 elap:              30.7
 (Enter /shared/centos7/gaussian/g16/l701.exe)
 SCFChk:  SCF convergence  4.35D-09 required  1.00D-08
 ... and contract with generalized density number  0.
 Compute integral second derivatives.
 Entering OneElI...
 Calculate overlap and kinetic energy integrals
    NBasis = 395  MinDer = 2  MaxDer = 2
 Requested accuracy = 0.1000D-12
 PrmmSu-InSpLW:  IPartL=    0 NPrtUS=   20 NPrtUL=    1 DoSpLW=F IThBeg=    0 IThEnd=   19 NThAct=   20.
 PrsmSu:  NPrtUS=  20 ThrOK=T IAlg=1 NPAlg=1 LenDen=           0 ISkipM=0 DoSpLW=F IThBeg=    0 IThEnd=   19.
 Prism:   IPart=     0 DynPar=F LinDyn=F Incr=           4.
 PRISM was handed    33312089 working-precision words and  8438 shell-pairs
 PRISM was handed    33312089 working-precision words and  8438 shell-pairs
 PRISM was handed    33312089 working-precision words and  8438 shell-pairs
 PRISM was handed    33312089 working-precision words and  8438 shell-pairs
 PRISM was handed    33312089 working-precision words and  8438 shell-pairs
 PRISM was handed    33312089 working-precision words and  8438 shell-pairs
 PRISM was handed    33312089 working-precision words and  8438 shell-pairs
 PRISM was handed    33312089 working-precision words and  8438 shell-pairs
 PRISM was handed    33312089 working-precision words and  8438 shell-pairs
 PRISM was handed    33312089 working-precision words and  8438 shell-pairs
 PRISM was handed    33312089 working-precision words and  8438 shell-pairs
 PRISM was handed    33312089 working-precision words and  8438 shell-pairs
 PRISM was handed    33312089 working-precision words and  8438 shell-pairs
 PRISM was handed    33312089 working-precision words and  8438 shell-pairs
 PRISM was handed    33312089 working-precision words and  8438 shell-pairs
 PRISM was handed    33312089 working-precision words and  8438 shell-pairs
 IPart= 17 NShTot=         399 NBatch=          39 AvBLen=        10.2
 PRISM was handed    33312089 working-precision words and  8438 shell-pairs
 IPart= 18 NShTot=         394 NBatch=          37 AvBLen=        10.6
 PRISM was handed    33312089 working-precision words and  8438 shell-pairs
 PRISM was handed    33312089 working-precision words and  8438 shell-pairs
 PRISM was handed    33312089 working-precision words and  8438 shell-pairs
 IPart=  6 NShTot=         435 NBatch=          59 AvBLen=         7.4
 IPart= 12 NShTot=         408 NBatch=          41 AvBLen=        10.0
 IPart=  1 NShTot=         463 NBatch=          80 AvBLen=         5.8
 IPart=  9 NShTot=         416 NBatch=          48 AvBLen=         8.7
 IPart=  4 NShTot=         443 NBatch=          64 AvBLen=         6.9
 IPart= 19 NShTot=         394 NBatch=          37 AvBLen=        10.6
 IPart=  7 NShTot=         422 NBatch=          51 AvBLen=         8.3
 IPart= 15 NShTot=         404 NBatch=          39 AvBLen=        10.4
 IPart= 13 NShTot=         406 NBatch=          40 AvBLen=        10.2
 IPart=  0 NShTot=         466 NBatch=          83 AvBLen=         5.6
 IPart= 10 NShTot=         415 NBatch=          47 AvBLen=         8.8
 IPart=  2 NShTot=         455 NBatch=          73 AvBLen=         6.2
 IPart= 11 NShTot=         412 NBatch=          44 AvBLen=         9.4
 IPart= 16 NShTot=         399 NBatch=          39 AvBLen=        10.2
 IPart= 14 NShTot=         406 NBatch=          40 AvBLen=        10.2
 IPart=  5 NShTot=         437 NBatch=          60 AvBLen=         7.3
 IPart=  8 NShTot=         418 NBatch=          49 AvBLen=         8.5
 IPart=  3 NShTot=         446 NBatch=          66 AvBLen=         6.8
 PrSmSu:  NxtVal=             81.
 Entering OneElI...
 Calculate potential energy integrals
    NBasis = 395  MinDer = 2  MaxDer = 2
 Requested accuracy = 0.1000D-12
 PrmmSu-InSpLW:  IPartL=    0 NPrtUS=   20 NPrtUL=    1 DoSpLW=F IThBeg=    0 IThEnd=   19 NThAct=   20.
 PrsmSu:  NPrtUS=  20 ThrOK=T IAlg=1 NPAlg=1 LenDen=           0 ISkipM=0 DoSpLW=F IThBeg=    0 IThEnd=   19.
 Prism:   IPart=     0 DynPar=F LinDyn=F Incr=          66.
 PRISM was handed    33354646 working-precision words and  7775 shell-pairs
 PRISM was handed    33354646 working-precision words and  7775 shell-pairs
 PRISM was handed    33354646 working-precision words and  7775 shell-pairs
 PRISM was handed    33354646 working-precision words and  7775 shell-pairs
 PRISM was handed    33354646 working-precision words and  7775 shell-pairs
 PRISM was handed    33354646 working-precision words and  7775 shell-pairs
 PRISM was handed    33354646 working-precision words and  7775 shell-pairs
 PRISM was handed    33354646 working-precision words and  7775 shell-pairs
 PRISM was handed    33354646 working-precision words and  7775 shell-pairs
 PRISM was handed    33354646 working-precision words and  7775 shell-pairs
 PRISM was handed    33354646 working-precision words and  7775 shell-pairs
 PRISM was handed    33354646 working-precision words and  7775 shell-pairs
 PRISM was handed    33354646 working-precision words and  7775 shell-pairs
 PRISM was handed    33354646 working-precision words and  7775 shell-pairs
 PRISM was handed    33354646 working-precision words and  7775 shell-pairs
 PRISM was handed    33354646 working-precision words and  7775 shell-pairs
 PRISM was handed    33354646 working-precision words and  7775 shell-pairs
 PRISM was handed    33354646 working-precision words and  7775 shell-pairs
 PRISM was handed    33354646 working-precision words and  7775 shell-pairs
 PRISM was handed    33354646 working-precision words and  7775 shell-pairs
 IPart=  9 NShTot=        6545 NBatch=         385 AvBLen=        17.0
 IPart= 17 NShTot=        6324 NBatch=         372 AvBLen=        17.0
 IPart= 16 NShTot=        6324 NBatch=         372 AvBLen=        17.0
 IPart= 10 NShTot=        6528 NBatch=         384 AvBLen=        17.0
 IPart= 12 NShTot=        6392 NBatch=         376 AvBLen=        17.0
 IPart= 13 NShTot=        6375 NBatch=         375 AvBLen=        17.0
 IPart=  2 NShTot=        7089 NBatch=         417 AvBLen=        17.0
 IPart= 18 NShTot=        6256 NBatch=         368 AvBLen=        17.0
 IPart= 11 NShTot=        6426 NBatch=         378 AvBLen=        17.0
 IPart=  4 NShTot=        6834 NBatch=         402 AvBLen=        17.0
 IPart=  0 NShTot=        7276 NBatch=         428 AvBLen=        17.0
 IPart=  8 NShTot=        6596 NBatch=         388 AvBLen=        17.0
 IPart= 14 NShTot=        6358 NBatch=         374 AvBLen=        17.0
 IPart= 19 NShTot=        6188 NBatch=         364 AvBLen=        17.0
 IPart=  5 NShTot=        6766 NBatch=         398 AvBLen=        17.0
 IPart=  7 NShTot=        6613 NBatch=         389 AvBLen=        17.0
 IPart=  3 NShTot=        6953 NBatch=         409 AvBLen=        17.0
 IPart=  6 NShTot=        6766 NBatch=         398 AvBLen=        17.0
 IPart= 15 NShTot=        6341 NBatch=         373 AvBLen=        17.0
 IPart=  1 NShTot=        7225 NBatch=         425 AvBLen=        17.0
 PrSmSu:  NxtVal=           1321.
 Polarizability after L701:
                1             2             3 
      1  0.000000D+00
      2  0.000000D+00  0.000000D+00
      3  0.000000D+00  0.000000D+00  0.000000D+00
 Dipole Derivatives after L701:
                 1             2             3             4             5 
      1  -0.173773D+00  0.427596D-01 -0.368105D-02 -0.462410D+00  0.792112D+00
      2   0.246467D+00 -0.138742D+00  0.674700D-01  0.139024D+00 -0.374883D+00
      3   0.558480D-01  0.485796D-01 -0.213903D+00  0.299034D+00 -0.300503D-01
                 6             7             8             9            10 
      1   0.154585D+01 -0.473403D+00 -0.198051D+00 -0.947930D+00 -0.598190D+00
      2   0.673859D-02  0.147349D+00  0.557043D-01 -0.110618D+00 -0.108490D+00
      3  -0.598801D+00 -0.421998D+00 -0.205138D+00 -0.345213D+00  0.108785D+00
                11            12            13            14            15 
      1   0.667480D+00 -0.442231D-01 -0.165923D+01 -0.133279D+00  0.955453D+00
      2  -0.141477D+01  0.577290D-01 -0.562829D-01 -0.893857D+00  0.234312D-01
      3   0.275550D+00 -0.976664D+00  0.134447D+00 -0.157537D-01 -0.102847D+01
                16            17            18            19            20 
      1  -0.642987D+00 -0.217174D+00  0.315083D+00 -0.191910D+00 -0.232605D-01
      2  -0.932739D-01 -0.102254D+00 -0.394776D+00 -0.161449D+00 -0.138017D+00
      3   0.289857D+00 -0.368417D+00 -0.600390D+00  0.198929D-01 -0.264861D+00
                21            22            23            24            25 
      1  -0.424687D+00  0.632729D+00  0.104616D+00  0.553989D+00  0.291043D+00
      2  -0.293130D+00  0.457196D-01  0.171015D+00  0.797793D-01  0.518213D+00
      3  -0.432160D+00  0.253522D+00  0.791061D-01  0.502145D+00 -0.163926D+00
                26            27            28            29            30 
      1  -0.415696D-01  0.157130D-01  0.210786D+00 -0.143581D+00  0.426626D+00
      2   0.156469D+00  0.688813D-01 -0.150580D+00  0.365569D+00 -0.596407D+00
      3  -0.293148D-02  0.113819D+00  0.181811D+00 -0.212409D+00  0.683635D+00
                31            32            33            34            35 
      1   0.285785D+00 -0.304958D+00 -0.402621D+00  0.513864D-01 -0.508916D+00
      2  -0.272400D+00  0.579844D+00  0.551542D+00  0.619410D-01  0.315253D+00
      3  -0.905196D-01  0.708923D-01  0.217252D+00  0.537525D-01  0.459627D+00
                36            37            38            39            40 
      1  -0.473726D+00 -0.238181D-02  0.633201D+00 -0.406792D+00  0.138758D+01
      2   0.176496D+00 -0.711046D-01  0.553048D+00 -0.264049D+00  0.374236D-01
      3   0.493782D+00  0.773718D-01 -0.445229D+00  0.370296D+00 -0.171938D+00
                41            42            43            44            45 
      1  -0.597301D-01  0.324357D+00  0.419443D+00 -0.225461D+00 -0.471339D+00
      2   0.877416D-01  0.192521D-01 -0.204855D+00  0.272591D+00  0.420929D+00
      3   0.162061D-01  0.931683D-01 -0.246350D+00  0.265567D+00  0.576698D+00
                46            47            48            49            50 
      1  -0.438040D-01  0.173733D+00  0.385302D+00  0.969335D+00 -0.557922D+00
      2  -0.717866D-01  0.217938D+00  0.170755D+00 -0.591529D-02  0.287349D+00
      3  -0.277950D+00  0.245054D+00  0.671021D+00 -0.101640D+00  0.842084D-01
                51 
      1  -0.134737D+01
      2   0.159773D-01
      3   0.473788D+00
 Hessian after L701:
                1             2             3             4             5 
      1  0.434830D+01
      2  0.164209D+01  0.127558D+02
      3  0.494227D+00 -0.625314D+00  0.179538D+02
      4  0.403732D+00  0.276716D+00  0.148148D+00  0.421823D+01
      5  0.294524D+00 -0.925722D-01  0.593253D-01 -0.179173D+01  0.133679D+02
      6  0.171605D+00  0.638081D-01 -0.196974D+00  0.179478D+01 -0.158720D+01
      7 -0.396448D+01 -0.432369D+01 -0.289461D+00  0.160898D+00  0.429879D-01
      8 -0.418456D+01 -0.470696D+01  0.325233D+00  0.126787D-01 -0.906238D-01
      9 -0.248510D+00  0.381526D+00 -0.875899D+01  0.239319D-01 -0.133731D-02
     10 -0.229263D+00  0.865219D-02 -0.141094D-01  0.189328D+00 -0.979170D-01
     11  0.101793D+00  0.691847D+00  0.610095D-01 -0.412973D-01 -0.100188D+00
     12 -0.190092D-01  0.467080D-01 -0.173149D+00  0.773545D-01 -0.244375D-01
     13 -0.158178D-01  0.625659D-01 -0.445979D+00  0.966812D-01  0.213521D-01
     14 -0.231487D-01 -0.170191D+00  0.147350D+00  0.184056D-01 -0.579941D-01
     15 -0.363900D+00  0.525094D-01  0.216655D+00  0.951854D-02  0.186294D-02
     16  0.239266D+00  0.227317D+01 -0.468018D+00 -0.971910D-01 -0.818701D-03
     17  0.194324D+01 -0.905316D+01 -0.361913D+00 -0.272251D-01  0.247108D+00
     18 -0.476981D+00 -0.298197D+00 -0.101415D+02  0.199688D+00 -0.678740D-01
     19 -0.331768D+00  0.205343D-02  0.559406D+00 -0.604389D-01  0.236610D+01
     20  0.121017D+00  0.271172D+00  0.231051D+00  0.228423D+01 -0.784216D+01
     21  0.457152D+00  0.167476D+00  0.517056D+00 -0.730605D+00 -0.126304D+00
     22 -0.186544D+00  0.259303D+00  0.126949D+00  0.223026D-01  0.505664D-02
     23  0.269355D+00 -0.241216D-01  0.186193D-01  0.627183D-02 -0.527356D-02
     24  0.997547D-01  0.494159D-02  0.375811D+00  0.197104D-01  0.466244D-02
     25 -0.147865D-01  0.734901D-01 -0.315083D-02  0.724120D-01 -0.285269D-01
     26 -0.382243D-02  0.403451D-01 -0.150147D-01 -0.594655D-01 -0.593570D-01
     27 -0.155783D-02 -0.188286D-02 -0.285752D-01  0.438050D-01 -0.827953D-02
     28 -0.356301D-01 -0.432779D-01  0.210322D-01  0.157763D-01 -0.739124D-02
     29 -0.294297D-01  0.938999D-01 -0.581144D-01 -0.140243D-01 -0.668113D-02
     30  0.214116D-01 -0.877518D-01 -0.510673D-02  0.249516D-01 -0.628499D-02
     31 -0.298821D-01 -0.620721D-01 -0.163789D-01  0.258506D-01 -0.141249D-01
     32 -0.518942D-01  0.124352D+00  0.367730D-01 -0.244167D-01 -0.329067D-02
     33 -0.185531D-01  0.570070D-01 -0.309474D-01 -0.122764D-01  0.345630D-02
     34 -0.525553D-02 -0.468323D-01 -0.495487D-01  0.150155D-01  0.298874D-04
     35 -0.520969D-01  0.249027D-01  0.716083D-01 -0.141941D-01 -0.916942D-02
     36 -0.557344D-01  0.702806D-01  0.248921D-01 -0.167070D-01 -0.631593D-03
     37 -0.202557D-01 -0.614214D-01 -0.642787D-01  0.111434D-01  0.599902D-02
     38 -0.306171D-02 -0.836843D-01 -0.356673D-02  0.190096D-01  0.872104D-03
     39 -0.980955D-01  0.582670D-01  0.131385D-01 -0.121035D-01 -0.548223D-02
     40  0.159742D+00 -0.731951D-01 -0.412251D-01  0.191310D-01  0.418933D-02
     41 -0.536393D-01 -0.352293D-01  0.999008D-02  0.929434D-03 -0.457727D-02
     42 -0.278588D-01  0.110280D-01 -0.476082D-01  0.220532D-02  0.693231D-03
     43 -0.333671D+00 -0.204538D-01  0.423544D-01 -0.330237D-01  0.106918D-01
     44 -0.142284D-01  0.169881D+00  0.449978D-01  0.391426D-01 -0.977555D-02
     45  0.501632D-01  0.358261D-01  0.263995D+00  0.596024D-01  0.741141D-01
     46 -0.382223D-01  0.117813D-01  0.404395D-02 -0.153354D+00 -0.419778D-01
     47  0.436692D-01  0.123434D-01  0.597475D-01 -0.730682D-01  0.796341D-01
     48  0.580798D-01  0.762410D-01  0.357969D-01  0.673543D-01  0.501213D-01
     49  0.545420D-01  0.211140D-01 -0.401091D-02 -0.490649D+01 -0.768442D+00
     50  0.196327D-03 -0.186430D-01 -0.178188D-02 -0.611963D+00 -0.541390D+01
     51 -0.421940D-01 -0.124730D-01 -0.183073D-01 -0.169935D+01  0.163359D+01
                6             7             8             9            10 
      6  0.110614D+02
      7  0.507439D-01  0.164675D+02
      8 -0.347027D-02  0.292960D+01  0.174811D+02
      9 -0.946309D-01  0.800603D+00  0.132544D+00  0.209463D+02
     10  0.113385D+00 -0.576301D+01  0.113863D+01 -0.157723D+00  0.146734D+02
     11 -0.114260D-01  0.119311D+01 -0.178059D+01 -0.675361D+00 -0.354566D+00
     12 -0.106856D+00 -0.164229D+00 -0.660664D+00 -0.580233D+01  0.333818D-01
     13 -0.752028D-02 -0.439934D+01  0.203661D+00 -0.223399D+01  0.654857D-01
     14 -0.291815D-02  0.227778D+00 -0.633025D+01 -0.188739D+00  0.147496D+00
     15 -0.556010D-01 -0.219998D+01 -0.185668D+00 -0.357191D+01 -0.887935D-01
     16  0.338550D+00  0.261938D+00 -0.261977D+00  0.212265D-01 -0.634372D-01
     17 -0.252226D-01 -0.152253D+00  0.181034D+00 -0.526018D-01 -0.159893D+00
     18  0.918727D-01  0.738950D-01 -0.593855D-01  0.849310D-01  0.111995D-02
     19 -0.637308D+00  0.257806D+00 -0.678486D-01  0.125566D+00  0.261896D+00
     20 -0.114975D+00 -0.247415D-01 -0.202468D+00 -0.368001D-01 -0.197088D+00
     21 -0.840043D+01  0.164175D+00 -0.413989D-01 -0.137919D+00  0.122704D+00
     22  0.157493D-01 -0.351998D+01  0.281512D+00  0.137714D+01  0.903259D-01
     23  0.278764D-02  0.243137D+00 -0.451005D+01  0.324437D+00 -0.143375D+00
     24  0.341937D-02  0.131321D+01  0.352515D+00 -0.292336D+01 -0.213760D-01
     25  0.267472D-01  0.110763D-01 -0.537496D-01  0.934890D-03 -0.169433D+01
     26 -0.135443D-01 -0.142232D+00  0.169453D-01  0.518678D-02  0.489958D+00
     27 -0.605543D-01  0.319101D-01  0.155941D-01  0.656554D-01  0.207157D+00
     28  0.174652D-01  0.915350D-01 -0.819119D-02  0.172111D-01 -0.391685D+01
     29 -0.104476D-01 -0.196825D-01 -0.931538D-01  0.718906D-01 -0.236364D+00
     30  0.801757D-02  0.190866D-01  0.553578D-01  0.114475D+00  0.450245D+00
     31  0.349592D-02  0.120918D+00  0.187467D-01 -0.985049D-02 -0.370630D+01
     32 -0.368815D-02  0.184684D-01 -0.192062D+00 -0.271841D-01 -0.639317D+00
     33 -0.149951D-01 -0.116525D-01  0.167195D-01  0.139590D+00 -0.583768D+00
     34 -0.432903D-02  0.672523D-01  0.574449D-01  0.122826D+00  0.115757D-01
     35  0.451745D-03  0.298529D-01  0.117335D+00 -0.253880D-01 -0.777284D-02
     36 -0.750574D-02  0.769108D-01 -0.528993D-01 -0.784787D-01  0.117909D-02
     37 -0.214167D-02  0.767724D-01 -0.622275D-01  0.734753D-01 -0.345790D-01
     38  0.105095D-03 -0.137515D-01  0.896880D-01  0.603432D-01  0.534992D-01
     39 -0.827587D-02  0.190260D-01  0.755536D-01 -0.324150D-01 -0.393290D-01
     40  0.474323D-02 -0.193490D-01  0.456098D-01  0.847179D-01  0.769663D-01
     41 -0.414763D-05  0.246314D-01  0.736046D-01 -0.202842D-01  0.533609D-01
     42 -0.351306D-02  0.103018D+00 -0.239818D-01  0.410859D-01 -0.327189D-01
     43  0.219148D-01  0.892394D-01 -0.646789D-01 -0.463711D-01  0.196824D-01
     44  0.724772D-01 -0.615331D-01 -0.977111D-02  0.298436D-01 -0.373096D-01
     45  0.618328D-01 -0.690678D-01  0.373619D-01 -0.706580D-02 -0.270896D-01
     46  0.111961D+00  0.361971D-01  0.166872D-01  0.538769D-01 -0.715590D-02
     47  0.590345D-01  0.335763D-01 -0.380702D-01  0.198130D-01  0.760802D-03
     48  0.661344D-01  0.973625D-01  0.142517D-01  0.175463D-01  0.597130D-01
     49 -0.201984D+01  0.250786D-01 -0.132932D-02 -0.505742D-02  0.262663D-01
     50  0.157423D+01 -0.526544D-02 -0.566549D-02  0.211158D-02 -0.187512D-01
     51 -0.234329D+01 -0.155485D-01  0.233520D-02 -0.245581D-02 -0.239788D-01
               11            12            13            14            15 
     11  0.125442D+02
     12  0.623776D+00  0.157392D+02
     13  0.679341D-01 -0.114894D+00  0.129311D+02
     14  0.222229D-01 -0.119972D+00 -0.139805D+00  0.149387D+02
     15  0.766339D-03 -0.268967D-01  0.189027D+01  0.316903D-01  0.134913D+02
     16 -0.386677D-01 -0.119338D-02  0.114045D+00 -0.897805D-01 -0.127480D+00
     17 -0.950132D-02 -0.224074D-01 -0.706363D-01 -0.110856D+00  0.229535D-01
     18 -0.339369D-01 -0.143010D+00 -0.146223D+00  0.272838D-01 -0.605285D-01
     19 -0.154466D+00  0.129561D+00  0.237363D+00 -0.658819D-02  0.118337D-01
     20 -0.914005D-01 -0.948416D-01 -0.114989D-02 -0.117180D+00 -0.485388D-02
     21 -0.663336D-01 -0.158988D+00 -0.361987D-01 -0.982625D-02 -0.127017D+00
     22 -0.170872D+00 -0.191877D-01  0.213269D+00  0.103863D-01  0.120364D+00
     23 -0.116311D+00 -0.640693D-01  0.188453D-01  0.208197D+00 -0.290550D-01
     24 -0.911912D-01  0.170254D+00  0.180904D+00 -0.290737D-01 -0.253918D+00
     25  0.140878D+00  0.290428D+00  0.576844D-01  0.538922D-01 -0.337239D-01
     26 -0.458812D+01  0.686089D-01  0.465134D-01 -0.828669D-02 -0.234207D-01
     27  0.269788D-01 -0.449584D+01 -0.346881D-01 -0.193941D-01 -0.192463D-01
     28 -0.232255D+00  0.479428D+00 -0.353083D-01  0.296691D-01 -0.377208D-01
     29 -0.366745D+01 -0.934751D+00  0.413190D-01  0.259844D-01 -0.980886D-01
     30 -0.844062D+00 -0.213207D+01 -0.506062D-01 -0.104656D+00  0.778273D-01
     31 -0.594292D+00 -0.616516D+00 -0.111626D-01 -0.249909D-01  0.513175D-03
     32 -0.295428D+01  0.124682D+01 -0.202093D-01  0.305131D-03  0.936827D-02
     33  0.109040D+01 -0.283192D+01  0.692721D-02  0.296639D-01 -0.402828D-03
     34 -0.760750D-02  0.272811D-01 -0.396671D+01  0.956434D-01  0.146960D+00
     35  0.441087D-02  0.392136D-01  0.225247D+00 -0.261268D+01  0.125680D+01
     36  0.311999D-01 -0.374221D-01  0.289277D+00  0.137699D+01 -0.263859D+01
     37  0.589255D-01 -0.396832D-01 -0.394150D+01 -0.171457D+00  0.128520D+00
     38  0.838360D-01 -0.104118D+00 -0.352954D+00 -0.206800D+01 -0.101710D+01
     39 -0.108111D+00  0.223646D-01  0.252631D+00 -0.112445D+01 -0.336870D+01
     40  0.552367D-01 -0.506603D-01 -0.134471D+01 -0.124637D+00  0.541245D+00
     41 -0.136103D-01 -0.231574D-01 -0.107262D+00 -0.369782D+01 -0.241506D-01
     42 -0.204679D-01 -0.239404D-01  0.447850D+00 -0.241041D-01 -0.365073D+01
     43 -0.245566D-01 -0.129960D-01 -0.535384D-02 -0.239898D-02  0.105911D-02
     44  0.582444D-02  0.147636D-01 -0.357694D-02 -0.479266D-02  0.117679D-02
     45  0.150371D-01 -0.834006D-02 -0.875573D-02  0.602081D-02 -0.433719D-02
     46  0.379854D-02  0.838145D-03 -0.551904D-02 -0.389304D-03  0.612542D-03
     47 -0.234181D-01  0.825720D-02  0.113316D-01 -0.134693D-01  0.632152D-02
     48  0.323286D-02  0.169241D-01  0.217643D-01  0.385923D-02 -0.149663D-02
     49 -0.309913D-02  0.957577D-04  0.980166D-02 -0.756463D-04  0.705585D-03
     50 -0.747791D-02  0.274754D-03 -0.317601D-02 -0.391403D-02 -0.110744D-02
     51 -0.151098D-02 -0.794255D-02 -0.107629D-01  0.275786D-03 -0.637921D-02
               16            17            18            19            20 
     16  0.105160D+02
     17 -0.475942D+01  0.227683D+02
     18 -0.105593D+01 -0.558213D+01  0.200888D+02
     19 -0.750166D+01  0.385376D+01  0.265312D+01  0.107745D+02
     20  0.358003D+01 -0.988785D+01  0.536883D+01 -0.537841D+01  0.220676D+02
     21  0.248523D+01  0.546325D+01 -0.713713D+01 -0.158555D+01 -0.579476D+01
     22  0.180991D+00 -0.382847D-02  0.893402D-01 -0.172350D-01  0.141599D-01
     23 -0.123995D-02 -0.604625D-01  0.151516D-02  0.120337D-01 -0.201863D-02
     24  0.123489D+00 -0.717838D-02 -0.101495D-01  0.449066D-02  0.980829D-02
     25 -0.315566D-01  0.101656D+00  0.163406D-01 -0.421989D-01 -0.214079D-01
     26  0.491426D-01  0.977288D-01 -0.551171D-01 -0.632455D-01  0.123330D-01
     27  0.146191D-01 -0.279071D-01  0.157180D-01  0.215668D-01 -0.288908D-01
     28  0.199894D-01 -0.585772D-01  0.260785D-01  0.168106D-01 -0.166179D-01
     29 -0.651631D-01  0.299121D-01 -0.269853D-01 -0.278995D-01 -0.583132D-02
     30  0.359169D-01 -0.392687D-01 -0.140704D-01  0.391687D-01 -0.181831D-01
     31  0.205452D-01 -0.542102D-01 -0.205264D-01  0.216723D-01 -0.184698D-01
     32 -0.639967D-01  0.384486D-01  0.202245D-01 -0.313271D-01 -0.178605D-02
     33 -0.221484D-01  0.259225D-01 -0.191319D-01 -0.106062D-01  0.381402D-02
     34  0.232547D-01 -0.146670D-01 -0.213249D-01  0.806475D-02  0.438876D-03
     35 -0.292223D-01 -0.367905D-02  0.160980D-01 -0.198215D-01 -0.104112D-01
     36 -0.341880D-01  0.128729D-01  0.149318D-02 -0.182610D-01 -0.320164D-03
     37  0.166089D-01  0.135031D-01 -0.286151D-01  0.116429D-01  0.140721D-01
     38  0.297437D-01 -0.144668D-01 -0.195246D-01  0.318480D-01  0.245987D-02
     39 -0.423716D-01 -0.134268D-01  0.687929D-02 -0.213065D-01 -0.114379D-01
     40  0.299202D-01 -0.345766D-02 -0.241667D-02  0.235722D-01  0.382420D-02
     41 -0.400373D-02 -0.883877D-02 -0.408196D-04  0.366167D-03 -0.687345D-02
     42 -0.112195D-02 -0.128191D-02 -0.853189D-02  0.325102D-02 -0.920406D-04
     43 -0.389507D+01 -0.559808D+00 -0.129131D+01  0.446329D+00  0.746863D-02
     44 -0.569730D+00 -0.422496D+01  0.101060D+01 -0.232181D-01  0.158821D+00
     45 -0.123966D+01  0.947765D+00 -0.254585D+01 -0.471849D-01 -0.404889D+00
     46  0.276439D+00 -0.544649D-01 -0.860893D-01 -0.426999D+01 -0.424806D+00
     47 -0.139933D-01  0.103960D-01 -0.318552D+00 -0.493443D+00 -0.447148D+01
     48 -0.303768D-01 -0.334016D+00 -0.206517D+00 -0.123350D+01  0.909047D+00
     49 -0.110102D+00  0.628269D-02  0.698345D-01  0.163642D+00  0.574443D-01
     50 -0.340761D-01  0.832079D-03  0.171946D-01  0.104051D-03  0.127102D+00
     51  0.345315D-02 -0.541322D-02 -0.323078D-02  0.575146D-02 -0.125062D-01
               21            22            23            24            25 
     21  0.184449D+02
     22 -0.668560D-02  0.319747D+01
     23  0.515519D-02 -0.405330D+00  0.453966D+01
     24 -0.410119D-02 -0.183509D+01 -0.363889D+00  0.249249D+01
     25 -0.283957D-02  0.460361D-01  0.400277D-01  0.328282D-01  0.184861D+01
     26 -0.225538D-01  0.438950D-01  0.749168D-02  0.206183D-01 -0.553729D+00
     27 -0.551547D-01  0.198419D-01  0.123491D-01 -0.873190D-02 -0.230333D+00
     28  0.280198D-01  0.175339D-01 -0.528332D-01  0.528364D-02 -0.910478D-01
     29 -0.208601D-01 -0.599583D-01 -0.895549D-01  0.147885D-01  0.687377D-01
     30  0.911974D-02  0.619108D-02  0.183893D-01  0.375936D-01 -0.175420D+00
     31 -0.314277D-02 -0.196897D-01  0.175548D-01  0.125219D-01 -0.175349D+00
     32  0.266297D-02  0.347041D-01  0.512968D-01  0.631144D-01  0.150270D+00
     33 -0.135040D-01  0.237615D-01  0.496122D-01  0.171701D-01  0.139673D+00
     34 -0.816200D-02 -0.332136D-01 -0.250485D-02 -0.638174D-02  0.136775D-01
     35  0.894382D-02  0.674901D-02 -0.165897D-01  0.556211D-01 -0.137685D-02
     36 -0.333424D-02  0.170301D-01  0.461255D-01  0.118549D+00 -0.261033D-01
     37 -0.118956D-01 -0.148215D-01  0.105798D-02 -0.282251D-02 -0.122685D-02
     38 -0.138171D-01 -0.660079D-02 -0.737289D-02 -0.297621D-01  0.545300D-02
     39 -0.452796D-02  0.903671D-02 -0.184166D-01  0.467653D-01 -0.344160D-02
     40 -0.309014D-02 -0.153271D-01  0.292721D-02  0.621293D-01  0.990507D-02
     41 -0.363968D-03  0.330868D-02  0.327924D-01 -0.374532D-02  0.141214D-02
     42 -0.731797D-02  0.598817D-01 -0.588013D-02 -0.537856D-01  0.794906D-03
     43  0.137375D-01  0.341761D-01 -0.698179D-02  0.676309D-02 -0.776719D-02
     44 -0.448093D+00 -0.140185D-01 -0.542193D-02 -0.321314D-02  0.474033D-02
     45 -0.369714D+00 -0.945162D-02  0.521418D-03 -0.117460D-01  0.675309D-02
     46 -0.102830D+01 -0.305737D-03  0.363337D-03  0.110611D-02  0.549047D-02
     47  0.883698D+00  0.339817D-02 -0.125122D-02  0.346990D-02  0.154008D-01
     48 -0.259279D+01  0.965360D-02  0.242165D-02  0.800088D-02 -0.422522D-01
     49  0.145439D+00  0.500837D-02  0.689845D-03  0.347796D-02 -0.662549D-02
     50  0.131222D-01 -0.186592D-02 -0.101181D-02 -0.148671D-02  0.283195D-02
     51  0.408302D-01 -0.451951D-02 -0.622973D-03 -0.425865D-02  0.276515D-02
               26            27            28            29            30 
     26  0.427741D+01
     27  0.143264D-01  0.453760D+01
     28  0.481424D-01 -0.194544D+00  0.380791D+01
     29  0.109976D+00  0.463267D-01  0.357582D+00  0.349509D+01
     30  0.258466D-01 -0.744214D-02 -0.398933D+00  0.107419D+01  0.210822D+01
     31  0.122908D+00  0.170285D+00  0.107643D+00 -0.830049D-02  0.283432D-01
[...]
   yy         0.617486D+02      0.915019D+01      0.101810D+02
   zx         0.902295D+01      0.133706D+01      0.148768D+01
   zy        -0.106825D+02     -0.158298D+01     -0.176130D+01
   zz         0.691569D+02      0.102480D+02      0.114024D+02

 ----------------------------------------------------------------------

 Test job not archived.
 1\1\GINC-C0237\Freq\RM062X\CC-pVTZ\C5H10O2\HARMS.N\29-Sep-2019\0\\#P G
 eom=AllCheck Guess=TCheck SCRF=Check Test GenChk RM062X/CC-pVTZ Freq\\
 Gaussian input prepared by ASE\\0,1\O,3.6984239916,-1.8470342777,2.490
 4974771\O,1.8692950824,1.0415147902,1.2777428973\C,3.4383582474,-2.554
 6171933,3.7107252594\C,2.2784585849,-3.5270296103,3.5678819546\C,3.244
 1217038,-1.5908312708,4.8674907923\C,2.6655025557,-1.0987621139,1.9947
 136152\C,2.7835986463,0.2140212579,1.8535404497\H,4.3566611615,-3.1217
 93558,3.8636902524\H,1.3249056322,-3.0011280258,3.5064947813\H,2.40153
 34667,-4.1413327721,2.6763998418\H,2.2380277088,-4.1825080536,4.437326
 1185\H,2.3332597377,-1.0068744179,4.7321390305\H,4.0871043186,-0.90429
 63027,4.9356993339\H,3.1635173118,-2.1404944056,5.8052627937\H,1.78051
 39126,-1.6342914626,1.6574230412\H,3.6701153229,0.7368450235,2.1838916
 183\H,1.1142776992,0.5269692417,0.9773008804\\Version=EM64L-G16RevA.03
 \State=1-A\HF=-346.9397254\RMSD=4.133e-09\RMSF=4.865e-07\ZeroPoint=0.1
 470574\Thermal=0.1556059\Dipole=-0.5651107,-0.5134349,0.3575977\Dipole
 Deriv=-0.595749,0.3854909,-0.2838304,0.1033139,-0.9989813,0.4097469,-0
 .1160372,0.4275696,-0.8374815,-0.6560206,0.7593829,-0.3685799,0.283661
 4,-0.836308,0.3247293,-0.2067107,0.4680252,-0.5904068,0.3106001,0.1703
 488,-0.0793016,0.0573458,0.6880469,-0.2188362,0.0202739,-0.2844944,0.8
 199184,-0.0344209,-0.1238342,0.0280611,-0.0991756,-0.0685057,0.0284315
 ,-0.0392889,0.0100075,-0.0147939,0.0405352,-0.0373679,0.0296832,0.0132
 72,-0.0638019,-0.099947,0.0100487,-0.0119446,-0.1218801,0.3620862,-0.5
 638176,0.5636293,-0.0364308,0.3052957,-0.1116856,0.2322252,-0.1884592,
 0.0029493,0.4648843,-0.6115358,0.390475,-0.23936,0.7762398,-0.3498588,
 0.2980101,-0.4243372,0.1648153,-0.1018251,0.0739641,-0.0245311,0.05951
 92,-0.0522193,0.0228734,-0.0085729,0.0277748,-0.010619,-0.0742065,0.05
 23308,-0.0212799,0.0985723,0.0014548,-0.0032993,-0.0174727,-0.0213297,
 0.0654298,0.0369811,-0.0014924,0.0160637,-0.0155803,0.0077954,-0.07911
 3,-0.0045074,-0.1141434,-0.0540401,0.0689707,-0.005061,-0.0070065,-0.0
 143584,-0.0080378,0.0811399,0.0091907,0.112575,-0.0566791,-0.0597682,0
 .0785993,-0.0204875,0.0480674,0.0100958,-0.0243018,-0.0463102,0.002361
 8,0.0649879,-0.0387778,-0.0854745,-0.0185686,-0.0828392,-0.0337555,-0.
 0456255,0.0158919,-0.0180894,0.0605118,0.0768764,-0.0095675,0.0151329,
 -0.0082018,0.0153784,0.1027247,0.004723,0.0793628,-0.0864188,-0.080537
 2,0.0290692,-0.1548799,-0.0471023,0.0075401,-0.0021233,-0.0846429,-0.0
 34872,0.1282064,0.0026955,-0.0096872,-0.0785995,-0.0192297,0.0622221,0
 .0026011,-0.068467,0.0037082,0.1315509,0.277676,-0.1013479,0.0140197,-
 0.1014739,0.1875406,-0.0374562,0.0016465,-0.0337149,0.3339494\Polar=59
 .7631693,-0.3966935,80.0680734,6.3668917,-9.6856677,64.2330537\Quadrup
 ole=1.6783985,-2.0425903,0.3641918,0.6241295,3.1519297,-0.1026499\PG=C
 01 [X(C5H10O2)]\NImag=0\\0.33587385,-0.11213515,0.27366334,0.03989050,
 -0.17323530,0.31749870,-0.00210843,0.00744325,-0.00888817,0.53640872,0
 .00344132,-0.01224697,0.00776371,0.08567587,0.40894921,-0.01022932,0.0
 1079623,0.00820132,0.24003376,-0.01298252,0.15142048,-0.09466512,-0.01
 367009,0.03825386,-0.00158563,0.00243641,0.00053289,0.60431889,-0.0042
 5177,-0.09014473,0.04643931,-0.00346126,0.00255410,-0.00440459,-0.0723
 6921,0.52425292,0.02250718,0.05621713,-0.15523725,0.00296476,-0.004488
 25,0.00308923,0.02682118,0.01164351,0.45709019,-0.00186702,-0.00735209
 ,0.00473248,-0.00010455,-0.00004287,0.00008490,-0.15784917,-0.05548464
 ,-0.01526700,0.52246745,-0.01758177,-0.01912300,0.01115610,0.00027177,
 -0.00025650,0.00019497,-0.05021596,-0.12292166,-0.01242726,-0.04812438
 ,0.53809517,0.02719001,0.03120697,-0.01050854,-0.00074040,0.00087741,-
 0.00054184,-0.01964673,-0.01620599,-0.07982569,-0.00792956,-0.00250301
 ,0.59105080,0.00236720,0.00034039,0.00760214,0.00018259,-0.00058638,0.
 00060252,-0.08630723,0.01495902,0.01058553,0.00246745,-0.01955244,-0.0
 2264648,0.58182964,-0.00295472,0.01001017,0.02324086,0.00079576,-0.000
 66556,0.00006858,0.01450287,-0.14039738,-0.06642301,0.00102304,-0.0174
 5375,-0.02012011,0.01392929,0.54780061,0.00691631,-0.00773436,-0.04626
 768,-0.00098240,0.00084452,-0.00075138,0.00772418,-0.05883903,-0.13451
 611,-0.00245238,-0.00901322,-0.00185167,0.00847205,-0.05022547,0.52498
 679,-0.22002074,0.09432402,-0.06845404,0.00604361,0.03575232,-0.005570
 38,0.00502785,0.01124357,-0.02008321,0.00334699,-0.00337811,0.00478803
 ,-0.00025497,-0.00360212,0.00395518,0.53865356,0.08530327,-0.13793660,
 0.05876102,0.01015820,-0.02293654,0.00705762,0.01794454,-0.02805737,0.
 02145984,0.00037519,-0.00020914,-0.00043245,-0.00167421,0.00409789,-0.
 00270237,0.07160683,0.87464639,-0.04992088,0.04599977,-0.08504791,-0.0
 0306628,0.02321734,-0.00098239,-0.02737678,0.02452825,-0.02199696,0.00
 236726,-0.00039195,0.00114794,-0.00020621,0.00034608,-0.00175043,0.171
 41663,-0.09453274,0.23172819,0.00147989,0.03922280,-0.00803470,-0.1962
 5490,0.06569703,-0.08772303,-0.00267716,0.00327968,0.00234444,-0.00060
 945,-0.00009596,0.00023361,0.00059117,-0.00042960,0.00048538,-0.119865
 12,-0.07040578,-0.01885265,0.58868645,0.01197018,-0.02451139,0.0093001
 4,0.10700266,-0.19658345,0.07890148,-0.00080180,0.00041677,-0.00400734
 ,0.00034701,0.00004481,-0.00024912,0.00112688,0.00067713,-0.00092401,-
 0.06963408,-0.54841894,0.04422460,0.08965886,0.89688441,0.00297136,0.0
 1347755,-0.00251169,-0.09357922,0.05562802,-0.09430093,-0.00159181,0.0
 0513745,-0.00155059,-0.00028103,-0.00004824,0.00006870,0.00044097,-0.0
 0012976,0.00060118,-0.02232999,0.04866265,-0.06803378,0.20534042,-0.07
 908012,0.23804861,0.00670924,-0.00319146,0.00116122,-0.00012403,-0.000
 01675,-0.00007165,-0.24220566,0.11787082,-0.03177712,-0.02353802,0.010
 81134,-0.00258891,-0.00220590,0.00159843,0.00027289,0.00186659,-0.0014
 2220,0.00124774,0.00033040,-0.00008291,0.00011589,0.25834899,0.0157002
 5,-0.01423009,0.01316171,0.00048194,-0.00067428,0.00008433,0.11211759,
 -0.11736741,0.01409457,-0.02079688,0.01094027,-0.00304413,0.01894371,-
 0.01181044,0.00016865,-0.00255333,-0.00067540,0.00171189,0.00041844,0.
 00043730,0.00023367,-0.12188041,0.13503953,-0.02692552,0.02609358,-0.0
 1860946,-0.00066446,0.00107712,-0.00006200,-0.02305311,0.00991786,-0.0
 4913807,-0.00402516,0.00128191,0.00055879,0.02255104,-0.01525964,0.002
 85664,0.00264552,0.00274335,-0.00300963,-0.00085677,-0.00033745,-0.000
 43548,0.03061150,-0.02325794,0.06920699,0.00160290,-0.00059397,0.00067
 490,-0.00015602,0.00010840,-0.00020030,-0.02482117,0.01480449,-0.00345
 197,-0.24801613,0.11376593,-0.01285051,0.00125969,0.00119527,0.0009980
 0,-0.00088276,0.00061464,-0.00098033,0.00078977,-0.00048136,0.00037684
 ,-0.00257551,-0.00424104,-0.00032626,0.27180946,0.00156207,0.00086825,
 -0.00040493,-0.00022706,0.00014712,-0.00010762,-0.01992919,0.01247589,
 -0.00270939,0.11483540,-0.11203480,0.00614189,-0.00048809,0.00175705,0
 .00064321,0.00120846,-0.00042452,0.00149009,-0.00007957,-0.00031342,0.
 00000847,-0.00378584,-0.00235564,-0.00055639,-0.12397330,0.12010808,-0
 .00019289,-0.00001468,0.00015076,0.00020179,-0.00021016,0.00010368,-0.
 00305544,0.00176233,-0.00171233,-0.01272517,0.00595353,-0.04820263,-0.
 00059873,0.00078557,0.00002897,0.00066885,0.00018681,-0.00015132,-0.00
 031954,0.00023509,-0.00020257,-0.00060469,-0.00078088,0.00078007,0.015
 74837,-0.00846462,0.04852577,0.00127366,0.00269747,0.00001564,-0.00007
 020,0.00008841,-0.00010443,0.00395576,-0.01483321,-0.02352111,-0.05252
 281,0.02007282,0.02802009,-0.00404145,-0.00302208,0.00062137,0.0007759
 8,-0.00033949,0.00044994,-0.00014515,-0.00007140,-0.00003206,0.0008323
 6,0.00084260,-0.00006489,-0.00231101,0.01435009,0.02391757,0.05352737,
 0.00132677,0.00241570,0.00036076,-0.00010261,0.00014508,-0.00006848,0.
 00352771,-0.01342668,-0.01825728,0.01940745,-0.13142631,-0.12374700,-0
 .00455967,-0.00224699,0.00068342,0.00006727,-0.00070223,0.00011728,0.0
 0023929,0.00002162,0.00021247,0.00002605,0.00067908,0.00051853,0.00079
 869,-0.00890183,-0.01246132,-0.01860948,0.14120578,0.00006864,0.000373
 63,0.00159569,0.00011632,-0.00010308,0.00010224,0.00099241,-0.00000316
 ,-0.00379633,0.02617857,-0.12518382,-0.22880273,-0.00121098,-0.0000181
 5,0.00074159,-0.00010832,-0.00007612,0.00021827,-0.00007487,0.00013397
 ,-0.00004566,-0.00039040,-0.00005607,-0.00003375,-0.00013908,0.0027522
 4,0.00287899,-0.02867051,0.13748101,0.24601156,-0.00442482,-0.00662296
 ,0.00197717,0.00017954,-0.00020491,0.00004622,0.00121912,-0.01273523,0
 .02156788,-0.04554763,-0.00509468,0.00536278,0.00044184,0.00055612,-0.
 00017822,-0.00238013,0.00120466,-0.00174272,0.00054239,-0.00022038,0.0
 0026100,0.00057760,0.00098767,0.00038723,0.00170203,0.01665080,-0.0235
 4891,-0.00143727,-0.00245036,0.00291166,0.04853885,-0.00345649,-0.0034
 5521,0.00105717,0.00029906,-0.00031017,0.00024318,0.00359954,-0.011339
 06,0.01692588,-0.00578944,-0.14450257,0.12984742,0.00056959,0.00040885
 ,0.00014294,-0.00140826,0.00100095,-0.00067285,-0.00014177,0.00014339,
 -0.00013838,0.00002570,0.00096492,-0.00014881,-0.00113399,-0.00992066,
 0.01219037,0.00036211,0.01267471,-0.01483312,0.00739081,0.15427203,-0.
 00055092,-0.00007521,0.00155783,-0.00018018,0.00016068,-0.00013727,-0.
 00001597,-0.00297974,0.00109284,0.00677243,0.13115954,-0.22046995,0.00
 002165,-0.00005745,-0.00030907,0.00008747,-0.00046464,0.00015434,0.000
 27855,-0.00009914,0.00019101,0.00048772,0.00018128,0.00034006,-0.00018
 790,-0.00023250,-0.00103417,0.00026609,0.01642379,-0.01920156,-0.00702
 828,-0.14336994,0.23731071,0.00043866,-0.00035412,0.00066214,-0.000156
 67,0.00010486,-0.00015131,-0.00505578,0.00290750,0.00012967,0.00116246
 ,-0.00094689,0.00017742,-0.23608444,0.11839911,-0.02968932,-0.00010948
 ,0.00109649,-0.00121667,0.00019249,-0.00087008,-0.00044272,0.00128753,
 0.00021562,0.00064093,0.00044422,0.00041178,-0.00005891,0.00009596,-0.
 00006660,0.00010201,-0.00002138,-0.00010957,0.00005606,0.25433330,-0.0
 0082317,0.00062309,0.00060477,0.00013532,-0.00010080,0.00005456,0.0196
 8266,-0.01418264,0.00370497,0.00118659,0.00085565,0.00098441,0.1183249
 6,-0.12242132,0.01784374,-0.00029538,0.00029902,0.00072135,-0.00031895
 ,0.00035908,0.00017363,-0.00015367,-0.00187526,-0.00367418,-0.00082487
 ,-0.00018529,-0.00034018,-0.00033832,0.00039884,0.00001965,0.00004189,
 -0.00003438,-0.00006259,-0.13194418,0.13291637,-0.00128993,0.00151175,
 0.00177146,0.00028538,-0.00015802,0.00002255,0.02375645,-0.01595294,0.
 00420269,0.00100321,0.00128177,0.00081869,-0.03079403,0.01876192,-0.05
 069029,0.00010788,-0.00002630,-0.00096724,-0.00045921,0.00074276,-0.00
 085027,0.00044531,-0.00341844,-0.00385444,-0.00063221,0.00009719,0.000
 19357,-0.00000324,0.00026210,-0.00000938,-0.00009049,0.00007767,-0.000
 00903,0.03279472,-0.01782762,0.05375005,0.00019611,0.00077763,-0.00074
 991,-0.00009939,0.00022993,-0.00003229,0.00377952,0.00368725,0.0005706
 0,0.00073002,0.00034415,0.00058942,-0.21328891,-0.13219731,-0.01229836
 ,0.00017339,-0.00002340,-0.00008451,-0.00004703,-0.00034745,0.00000813
 ,0.00070690,-0.00018493,-0.00065144,0.00042048,0.00013197,0.00022728,0
 .00040284,0.00000663,0.00022319,-0.00010462,-0.00001921,0.00011578,-0.
 01952437,-0.01747770,-0.00074178,0.22757854,0.00118600,0.00180981,0.00
 167211,-0.00000024,0.00003330,-0.00000137,-0.01801119,-0.01503187,0.00
 064199,0.00193829,-0.00187751,-0.00409783,-0.13063156,-0.15239149,-0.0
 0987407,-0.00029934,0.00019089,-0.00053644,-0.00012557,-0.00016506,-0.
 00019163,0.00014376,0.00033197,0.00061958,-0.00013853,0.00013051,-0.00
 001770,-0.00130840,-0.00067631,-0.00034743,0.00028553,0.00033991,0.000
 06353,0.01387531,0.01216314,0.00084020,0.14448814,0.16502911,0.0002731
 4,0.00081084,0.00274937,0.00017646,-0.00005913,0.00013362,-0.02189510,
 -0.01646431,-0.00240144,0.00153163,-0.00271919,-0.00429211,-0.01093399
 ,-0.00815007,-0.04721452,-0.00039012,0.00031649,-0.00019212,-0.0002547
 8,-0.00004073,-0.00013178,0.00028653,0.00080749,0.00085244,0.00025032,
 0.00016092,-0.00004595,-0.00107341,-0.00130109,0.00004373,0.00004877,-
 0.00023658,0.00022373,-0.00340023,-0.00298049,-0.00137347,0.01267230,0
 .01301436,0.04873862,0.00090297,0.00099607,0.00211289,0.00008794,0.000
 02186,-0.00001860,-0.00254221,-0.00291528,0.00356695,0.00003257,-0.000
 17292,-0.00009621,-0.04702717,-0.01026711,0.01659671,-0.00014530,0.000
 75769,-0.00078542,-0.00019502,-0.00058904,-0.00018172,-0.00007384,-0.0
 0020045,-0.00020917,-0.00006098,0.00012394,-0.00009994,-0.00013320,0.0
 0008565,0.00006320,0.00016265,-0.00030248,-0.00027460,0.00316139,0.012
 92156,-0.02429175,-0.00105517,-0.01142594,0.02250089,0.04679069,0.0008
 2156,-0.00065736,-0.00659369,-0.00006883,0.00012544,0.00001986,0.00028
 167,0.01172936,-0.01599758,-0.00016429,0.00006190,0.00044715,-0.010404
 13,-0.11710693,0.11892448,0.00092629,-0.00121163,0.00067140,-0.0001554
 6,0.00035074,0.00022802,0.00025068,0.00071800,0.00094706,-0.00009779,0
 .00000002,0.00009397,0.00022655,0.00024213,0.00014007,-0.00029360,-0.0
 0033422,-0.00043973,-0.00269708,-0.00875570,0.01376263,0.00045055,-0.0
 0984920,0.01670283,0.01091597,0.12460656,0.00017295,-0.00239458,-0.006
 89570,-0.00043413,0.00042668,-0.00029922,0.00034166,0.01671445,-0.0178
 1900,-0.00007493,0.00071100,0.00081745,0.01633669,0.11686017,-0.245785
 87,0.00208338,-0.00163883,0.00117786,0.00019801,-0.00017856,0.00039679
 ,0.00051637,-0.00008550,0.00078535,-0.00000042,-0.00002528,-0.00013195
 ,0.00018272,-0.00015013,0.00037971,-0.00035050,-0.00079439,0.00017231,
 0.00007744,0.00101299,-0.00283561,0.00019671,-0.00188623,0.00296355,-0
 .01904384,-0.12861665,0.26713560,-0.02846968,-0.00068058,-0.01570666,0
 .00127686,0.00059234,0.00319024,-0.00142969,-0.00287426,0.00401388,-0.
 00010681,-0.00008164,0.00007521,0.00007261,0.00062920,-0.00057708,-0.2
 1610824,-0.11468768,-0.06894778,-0.00053628,0.00060203,-0.00402512,0.0
 0008892,0.00029044,-0.00035844,0.00083337,-0.00081928,0.00049516,-0.00
 020086,0.00025932,-0.00006527,0.00059044,0.00014045,0.00013375,0.00000
 251,-0.00004558,-0.00004067,-0.00000809,0.00010797,0.00016918,0.000113
 85,-0.00012991,-0.00029863,0.24223314,0.02033341,0.01114685,0.00869954
 ,-0.00036789,0.00265201,-0.00145481,0.00093032,0.00181747,-0.00113831,
 -0.00133354,-0.00020582,0.00092533,-0.00014147,-0.00025064,0.00023928,
 -0.11274591,-0.13250080,-0.03963092,-0.02636539,-0.01000547,-0.0104792
 2,-0.00016654,-0.00012957,0.00005035,0.00009981,-0.00131322,0.00107287
 ,-0.00010645,-0.00042155,-0.00028433,0.00041900,0.00005771,-0.00020231
 ,-0.00002058,-0.00003744,-0.00003071,0.00004001,-0.00006430,-0.0000525
 0,-0.00001392,0.00002015,0.00010648,0.11860024,0.13473669,-0.01410730,
 -0.00098429,-0.00255794,0.00465421,-0.00175782,-0.00233948,-0.00133438
 ,-0.00195705,0.00247801,0.00027919,0.00048999,-0.00000612,0.00000427,0
 .00014785,-0.00017538,-0.07097666,-0.04044690,-0.06270203,-0.00121169,
 0.00312926,0.00570068,0.00026201,0.00017870,-0.00012587,0.00056957,0.0
 0123714,-0.00118566,-0.00002708,0.00000519,-0.00002401,0.00028173,-0.0
 0025494,0.00011610,0.00008052,-0.00022500,-0.00016123,0.00010388,0.000
 02626,0.00010436,0.00008866,-0.00010488,-0.00005739,0.08470608,0.03938
 633,0.05415169,0.00022750,0.00065874,0.00325249,-0.02211071,-0.0066963
 8,-0.01043446,0.00036887,-0.00034045,-0.00019553,-0.00003369,0.0000687
 0,-0.00009371,0.00009926,-0.00001014,-0.00002688,0.00042170,0.00037037
 ,-0.00421286,-0.23981175,-0.12128125,-0.07380849,-0.00001376,-0.000009
 91,0.00010546,-0.00007240,0.00000790,-0.00002238,-0.00000772,0.0000040
 2,0.00002818,-0.00001329,0.00003021,-0.00002206,-0.00021221,-0.0000879
 9,0.00000948,0.00012658,-0.00010352,0.00005979,-0.00003959,0.00013457,
 0.00001386,0.00172164,-0.00028404,-0.00295896,0.25981451,0.00030054,0.
 00316645,-0.00119634,0.02227396,0.01211010,0.00896432,-0.00002930,-0.0
 0049257,0.00031705,-0.00017038,0.00000230,0.00004358,-0.00014814,-0.00
 001724,-0.00016139,-0.02583873,-0.00815493,-0.00936472,-0.12523468,-0.
 13373014,-0.04396092,-0.00002177,-0.00000702,0.00003962,0.00015619,-0.
 00007917,-0.00006197,-0.00003706,0.00007925,0.00000351,0.00013684,0.00
 001085,0.00003229,-0.00000092,-0.00002977,0.00004969,0.00009897,0.0000
 4325,0.00018363,0.00007038,0.00004524,-0.00004442,-0.00023426,-0.00466
 597,0.00195854,0.12476207,0.13335404,0.00187637,-0.00113300,-0.0057545
 7,-0.01585777,-0.00466749,-0.00517167,-0.00043029,0.00037533,0.0003981
 6,-0.00006987,0.00004221,-0.00001453,-0.00005162,0.00011667,0.00005268
 ,0.00122291,0.00144318,0.01008804,-0.07199853,-0.04101021,-0.06882032,
 0.00000417,0.00006830,-0.00014096,0.00010222,-0.00008532,0.00003346,-0
 .00000729,-0.00006381,-0.00004080,0.00008011,-0.00000134,-0.00001458,0
 .00021431,-0.00001732,0.00008238,-0.00018127,0.00010420,-0.00015882,0.
 00004550,-0.00016174,-0.00004916,-0.00282324,0.00210999,0.00676380,0.0
 9020106,0.04057152,0.06104560,0.00048383,-0.00185996,0.00149806,-0.321
 40874,-0.18660146,-0.12995476,0.00046882,0.00051298,-0.00077615,-0.000
 01167,-0.00008998,0.00015593,-0.00010139,-0.00014604,0.00016259,0.0034
 5706,-0.00087913,0.00191151,-0.03247071,-0.01632788,-0.01324244,-0.000
 01182,-0.00013131,0.00019355,0.00003406,0.00001993,-0.00003244,0.00000
 576,0.00003985,-0.00002475,-0.00002533,-0.00005627,0.00004039,0.000045
 79,0.00001682,-0.00005912,0.00001318,0.00001928,-0.00002137,0.00002041
 ,0.00000325,0.00008267,-0.00007370,0.00112294,-0.00041405,-0.00046496,
 0.00391628,-0.00232679,0.35003941,-0.00074229,-0.00139831,-0.00078693,
 -0.23030992,-0.19294211,-0.08736574,0.00000342,0.00011487,0.00044346,0
 .00014553,0.00001094,-0.00007451,-0.00000774,0.00001004,-0.00001631,0.
 00462652,0.00099295,0.00210157,0.02483661,0.01439263,0.01026635,-0.000
 00522,0.00001402,-0.00005457,-0.00005858,0.00004164,0.00007097,0.00002
 583,-0.00006029,0.00000121,-0.00005121,0.00002295,-0.00003786,-0.00000
 066,0.00000741,0.00002637,-0.00000525,-0.00001616,0.00000755,-0.000005
 99,0.00001549,-0.00001719,-0.00166882,-0.00083609,-0.00082835,0.002777
 08,-0.00163467,0.00230884,0.20044069,0.18126469,0.00135031,-0.00091600
 ,-0.00013439,-0.12403967,-0.06556899,-0.05848694,-0.00002304,0.0002883
 0,-0.00035736,-0.00012455,0.00001568,0.00005343,-0.00017482,0.00005596
 ,0.00004454,0.00093686,-0.00031061,0.00031917,-0.01909464,-0.01074060,
 -0.00812390,0.00002141,-0.00004761,0.00002932,0.00004877,0.00005492,-0
 .00002870,0.00003059,-0.00001544,-0.00001755,0.00001458,-0.00003428,0.
 00001670,0.00002395,0.00000730,-0.00009042,0.00003225,-0.00002954,0.00
 000078,0.00002645,-0.00002319,0.00004529,0.00005939,0.00068294,0.00002
 046,-0.00189501,0.00262601,0.00170129,0.14280717,0.07395516,0.06500825
 \\0.00000030,-0.00000049,-0.00000027,0.00000068,-0.00000066,-0.0000005
 4,-0.00000068,-0.00000004,0.00000097,-0.00000039,0.00000033,0.00000029
 ,0.00000029,0.,-0.00000007,-0.00000036,0.00000055,-0.00000047,0.000000
 67,-0.00000024,-0.00000061,-0.00000044,-0.00000034,0.00000017,-0.00000
 044,0.00000077,0.00000071,-0.00000093,-0.00000017,0.00000028,-0.000000
 67,0.00000017,0.00000073,0.00000042,0.00000061,-0.00000034,0.00000056,
 -0.00000009,-0.00000015,-0.00000006,0.00000042,-0.00000017,-0.00000042
 ,-0.00000032,0.00000010,0.00000068,-0.00000076,-0.00000047,0.00000079,
 0.00000027,-0.00000016\\\@


 THERE IS NOTHING NOBLE IN BEING SUPERIOR TO SOME OTHER MAN.
 TRUE NOBILITY IS BEING SUPERIOR TO YOUR FORMER SELF.

                                                   -- HINDU PROVERB
 Job cpu time:       0 days  2 hours 40 minutes 22.8 seconds.
 Elapsed time:       0 days  1 hours 20 minutes 12.0 seconds.
 File lengths (MBytes):  RWF=   1392 Int=      0 D2E=      0 Chk=     32 Scr=     32
 Normal termination of Gaussian 16 at Sun Sep 29 18:20:51 2019.
