 Entering Gaussian System, Link 0=g16
 Input=med/species/CC(C)OC=CO/conformers/CC(C)OC=CO_41.com
 Output=med/species/CC(C)OC=CO/conformers/CC(C)OC=CO_41.log
 Initial command:
 /shared/centos7/gaussian/g16/l1.exe "/scratch/harms.n/gauss_scrdir/Gau-31784.inp" -scrdir="/scratch/harms.n/gauss_scrdir/"
 Entering Link 1 = /shared/centos7/gaussian/g16/l1.exe PID=     31785.
  
 Copyright (c) 1988,1990,1992,1993,1995,1998,2003,2009,2016,
            Gaussian, Inc.  All Rights Reserved.
  
 This is part of the Gaussian(R) 16 program.  It is based on
 the Gaussian(R) 09 system (copyright 2009, Gaussian, Inc.),
 the Gaussian(R) 03 system (copyright 2003, Gaussian, Inc.),
 the Gaussian(R) 98 system (copyright 1998, Gaussian, Inc.),
 the Gaussian(R) 94 system (copyright 1995, Gaussian, Inc.),
 the Gaussian 92(TM) system (copyright 1992, Gaussian, Inc.),
 the Gaussian 90(TM) system (copyright 1990, Gaussian, Inc.),
 the Gaussian 88(TM) system (copyright 1988, Gaussian, Inc.),
 the Gaussian 86(TM) system (copyright 1986, Carnegie Mellon
 University), and the Gaussian 82(TM) system (copyright 1983,
 Carnegie Mellon University). Gaussian is a federally registered
 trademark of Gaussian, Inc.
  
 This software contains proprietary and confidential information,
 including trade secrets, belonging to Gaussian, Inc.
  
 This software is provided under written license and may be
 used, copied, transmitted, or stored only in accord with that
 written license.
  
 The following legend is applicable only to US Government
 contracts under FAR:
  
                    RESTRICTED RIGHTS LEGEND
  
 Use, reproduction and disclosure by the US Government is
 subject to restrictions as set forth in subparagraphs (a)
 and (c) of the Commercial Computer Software - Restricted
 Rights clause in FAR 52.227-19.
  
 Gaussian, Inc.
 340 Quinnipiac St., Bldg. 40, Wallingford CT 06492
  
  
 ---------------------------------------------------------------
 Warning -- This program may not be used in any manner that
 competes with the business of Gaussian, Inc. or will provide
 assistance to any competitor of Gaussian, Inc.  The licensee
 of this program is prohibited from giving any competitor of
 Gaussian, Inc. access to this program.  By using this program,
 the user acknowledges that Gaussian, Inc. is engaged in the
 business of creating and licensing software in the field of
 computational chemistry and represents and warrants to the
 licensee that it is not a competitor of Gaussian, Inc. and that
 it will not use this program in any manner prohibited above.
 ---------------------------------------------------------------
  

 Cite this work as:
 Gaussian 16, Revision A.03,
 M. J. Frisch, G. W. Trucks, H. B. Schlegel, G. E. Scuseria, 
 M. A. Robb, J. R. Cheeseman, G. Scalmani, V. Barone, 
 G. A. Petersson, H. Nakatsuji, X. Li, M. Caricato, A. V. Marenich, 
 J. Bloino, B. G. Janesko, R. Gomperts, B. Mennucci, H. P. Hratchian, 
 J. V. Ortiz, A. F. Izmaylov, J. L. Sonnenberg, D. Williams-Young, 
 F. Ding, F. Lipparini, F. Egidi, J. Goings, B. Peng, A. Petrone, 
 T. Henderson, D. Ranasinghe, V. G. Zakrzewski, J. Gao, N. Rega, 
 G. Zheng, W. Liang, M. Hada, M. Ehara, K. Toyota, R. Fukuda, 
 J. Hasegawa, M. Ishida, T. Nakajima, Y. Honda, O. Kitao, H. Nakai, 
 T. Vreven, K. Throssell, J. A. Montgomery, Jr., J. E. Peralta, 
 F. Ogliaro, M. J. Bearpark, J. J. Heyd, E. N. Brothers, K. N. Kudin, 
 V. N. Staroverov, T. A. Keith, R. Kobayashi, J. Normand, 
 K. Raghavachari, A. P. Rendell, J. C. Burant, S. S. Iyengar, 
 J. Tomasi, M. Cossi, J. M. Millam, M. Klene, C. Adamo, R. Cammi, 
 J. W. Ochterski, R. L. Martin, K. Morokuma, O. Farkas, 
 J. B. Foresman, and D. J. Fox, Gaussian, Inc., Wallingford CT, 2016.
 
 ******************************************
 Gaussian 16:  EM64L-G16RevA.03 25-Dec-2016
                26-Sep-2019 
 ******************************************
 %nprocshared=20
 Will use up to   20 processors via shared memory.
 %mem=5GB
 ----------------------------------------------------------------------
 #p m062x/cc-pVTZ opt=(calcfc,maxcycles=900,Tight) freq IOP(7/33=1,2/16
 =3) scf=(maxcycle=900)
 ----------------------------------------------------------------------
 1/6=900,7=10,10=4,18=20,19=15,26=3,38=1/1,3;
 2/9=110,12=2,16=3,17=6,18=5,40=1/2;
 3/5=16,6=1,11=2,25=1,30=1,71=2,74=-55,140=1/1,2,3;
 4//1;
 5/5=2,7=900,38=5/2;
 8/6=4,10=90,11=11/1;
 11/6=1,8=1,9=11,15=111,16=1/1,2,10;
 10/6=1,13=1/2;
 6/7=2,8=2,9=2,10=2,28=1/1;
 7/10=1,18=20,25=1,33=1/1,2,3,16;
 1/6=900,7=10,10=4,18=20,19=15,26=3/3(2);
 2/9=110,16=3/2;
 99//99;
 2/9=110,16=3/2;
 3/5=16,6=1,11=2,25=1,30=1,71=1,74=-55/1,2,3;
 4/5=5,16=3,69=1/1;
 5/5=2,7=900,38=5/2;
 7/33=1/1,2,3,16;
 1/6=900,7=10,18=20,19=15,26=3/3(-5);
 2/9=110,16=3/2;
 6/7=2,8=2,9=2,10=2,19=2,28=1/1;
 99/9=1/99;
 Leave Link    1 at Thu Sep 26 09:31:54 2019, MaxMem=   671088640 cpu:               4.3 elap:               2.1
 (Enter /shared/centos7/gaussian/g16/l101.exe)
 ------------------------------
 Gaussian input prepared by ASE
 ------------------------------
 Symbolic Z-matrix:
 Charge =  0 Multiplicity = 1
 O                     0.24838  -1.40129  -0.54025 
 O                     3.00395  -1.34268   1.83635 
 C                    -0.49559  -0.35526  -1.12865 
 C                     0.34228   0.42162  -2.14424 
 C                    -1.15627   0.52168  -0.11645 
 C                     1.20588  -0.95383   0.34115 
 C                     2.03393  -1.76148   0.93787 
 H                    -1.30569  -0.88853  -1.69936 
 H                     1.42531   0.23283  -1.99053 
 H                     0.09598   0.11551  -3.17726 
 H                     0.17711   1.53044  -2.0676 
 H                    -0.65615   1.52967  -0.01396 
 H                    -1.16094   0.04369   0.88534 
 H                    -2.23033   0.71512  -0.3967 
 H                     1.21934   0.13141   0.5304 
 H                     2.04253  -2.83176   0.79343 
 H                     2.92587  -0.34733   1.90672 
 
 ITRead=  0  0  0  0  0  0  0  0  0  0  0  0  0  0  0  0  0
 MicOpt= -1 -1 -1 -1 -1 -1 -1 -1 -1 -1 -1 -1 -1 -1 -1 -1 -1
 NAtoms=     17 NQM=       17 NQMF=       0 NMMI=      0 NMMIF=      0
                NMic=       0 NMicF=      0.
                    Isotopes and Nuclear Properties:
 (Nuclear quadrupole moments (NQMom) in fm**2, nuclear magnetic moments (NMagM)
  in nuclear magnetons)

  Atom         1           2           3           4           5           6           7           8           9          10
 IAtWgt=          16          16          12          12          12          12          12           1           1           1
 AtmWgt=  15.9949146  15.9949146  12.0000000  12.0000000  12.0000000  12.0000000  12.0000000   1.0078250   1.0078250   1.0078250
 NucSpn=           0           0           0           0           0           0           0           1           1           1
 AtZEff=  -0.0000000  -0.0000000  -0.0000000  -0.0000000  -0.0000000  -0.0000000  -0.0000000  -0.0000000  -0.0000000  -0.0000000
 NQMom=    0.0000000   0.0000000   0.0000000   0.0000000   0.0000000   0.0000000   0.0000000   0.0000000   0.0000000   0.0000000
 NMagM=    0.0000000   0.0000000   0.0000000   0.0000000   0.0000000   0.0000000   0.0000000   2.7928460   2.7928460   2.7928460
 AtZNuc=   8.0000000   8.0000000   6.0000000   6.0000000   6.0000000   6.0000000   6.0000000   1.0000000   1.0000000   1.0000000

  Atom        11          12          13          14          15          16          17
 IAtWgt=           1           1           1           1           1           1           1
 AtmWgt=   1.0078250   1.0078250   1.0078250   1.0078250   1.0078250   1.0078250   1.0078250
 NucSpn=           1           1           1           1           1           1           1
 AtZEff=  -0.0000000  -0.0000000  -0.0000000  -0.0000000  -0.0000000  -0.0000000  -0.0000000
 NQMom=    0.0000000   0.0000000   0.0000000   0.0000000   0.0000000   0.0000000   0.0000000
 NMagM=    2.7928460   2.7928460   2.7928460   2.7928460   2.7928460   2.7928460   2.7928460
 AtZNuc=   1.0000000   1.0000000   1.0000000   1.0000000   1.0000000   1.0000000   1.0000000
 Leave Link  101 at Thu Sep 26 09:31:58 2019, MaxMem=   671088640 cpu:               6.2 elap:               3.1
 (Enter /shared/centos7/gaussian/g16/l103.exe)

 GradGradGradGradGradGradGradGradGradGradGradGradGradGradGradGradGradGrad
 Berny optimization.
 Initialization pass.
                           ----------------------------
                           !    Initial Parameters    !
                           ! (Angstroms and Degrees)  !
 --------------------------                            --------------------------
 ! Name  Definition              Value          Derivative Info.                !
 --------------------------------------------------------------------------------
 ! R1    R(1,3)                  1.412          calculate D2E/DX2 analytically  !
 ! R2    R(1,6)                  1.3762         calculate D2E/DX2 analytically  !
 ! R3    R(2,7)                  1.3869         calculate D2E/DX2 analytically  !
 ! R4    R(2,17)                 1.0009         calculate D2E/DX2 analytically  !
 ! R5    R(3,4)                  1.5287         calculate D2E/DX2 analytically  !
 ! R6    R(3,5)                  1.4933         calculate D2E/DX2 analytically  !
 ! R7    R(3,8)                  1.1253         calculate D2E/DX2 analytically  !
 ! R8    R(4,9)                  1.1101         calculate D2E/DX2 analytically  !
 ! R9    R(4,10)                 1.1052         calculate D2E/DX2 analytically  !
 ! R10   R(4,11)                 1.1237         calculate D2E/DX2 analytically  !
 ! R11   R(5,12)                 1.1299         calculate D2E/DX2 analytically  !
 ! R12   R(5,13)                 1.11           calculate D2E/DX2 analytically  !
 ! R13   R(5,14)                 1.1267         calculate D2E/DX2 analytically  !
 ! R14   R(6,7)                  1.3016         calculate D2E/DX2 analytically  !
 ! R15   R(6,15)                 1.1017         calculate D2E/DX2 analytically  !
 ! R16   R(7,16)                 1.08           calculate D2E/DX2 analytically  !
 ! A1    A(3,1,6)              113.1163         calculate D2E/DX2 analytically  !
 ! A2    A(7,2,17)             106.9345         calculate D2E/DX2 analytically  !
 ! A3    A(1,3,4)              111.3781         calculate D2E/DX2 analytically  !
 ! A4    A(1,3,5)              112.6852         calculate D2E/DX2 analytically  !
 ! A5    A(1,3,8)              103.8614         calculate D2E/DX2 analytically  !
 ! A6    A(4,3,5)              113.2256         calculate D2E/DX2 analytically  !
 ! A7    A(4,3,8)              107.3651         calculate D2E/DX2 analytically  !
 ! A8    A(5,3,8)              107.6702         calculate D2E/DX2 analytically  !
 ! A9    A(3,4,9)              110.8743         calculate D2E/DX2 analytically  !
 ! A10   A(3,4,10)             110.9804         calculate D2E/DX2 analytically  !
 ! A11   A(3,4,11)             112.0612         calculate D2E/DX2 analytically  !
 ! A12   A(9,4,10)             107.4424         calculate D2E/DX2 analytically  !
 ! A13   A(9,4,11)             107.5656         calculate D2E/DX2 analytically  !
 ! A14   A(10,4,11)            107.7161         calculate D2E/DX2 analytically  !
 ! A15   A(3,5,12)             112.9252         calculate D2E/DX2 analytically  !
 ! A16   A(3,5,13)             111.1447         calculate D2E/DX2 analytically  !
 ! A17   A(3,5,14)             110.7298         calculate D2E/DX2 analytically  !
 ! A18   A(12,5,13)            107.7075         calculate D2E/DX2 analytically  !
 ! A19   A(12,5,14)            106.9373         calculate D2E/DX2 analytically  !
 ! A20   A(13,5,14)            107.1217         calculate D2E/DX2 analytically  !
 ! A21   A(1,6,7)              122.3111         calculate D2E/DX2 analytically  !
 ! A22   A(1,6,15)             116.0278         calculate D2E/DX2 analytically  !
 ! A23   A(7,6,15)             121.6499         calculate D2E/DX2 analytically  !
 ! A24   A(2,7,6)              123.6821         calculate D2E/DX2 analytically  !
 ! A25   A(2,7,16)             112.3527         calculate D2E/DX2 analytically  !
 ! A26   A(6,7,16)             123.9649         calculate D2E/DX2 analytically  !
 ! D1    D(6,1,3,4)             72.0317         calculate D2E/DX2 analytically  !
 ! D2    D(6,1,3,5)            -56.4768         calculate D2E/DX2 analytically  !
 ! D3    D(6,1,3,8)           -172.7086         calculate D2E/DX2 analytically  !
 ! D4    D(3,1,6,7)           -176.776          calculate D2E/DX2 analytically  !
 ! D5    D(3,1,6,15)             4.4216         calculate D2E/DX2 analytically  !
 ! D6    D(17,2,7,6)            -0.3459         calculate D2E/DX2 analytically  !
 ! D7    D(17,2,7,16)          179.8493         calculate D2E/DX2 analytically  !
 ! D8    D(1,3,4,9)            -17.9722         calculate D2E/DX2 analytically  !
 ! D9    D(1,3,4,10)           101.3564         calculate D2E/DX2 analytically  !
 ! D10   D(1,3,4,11)          -138.1751         calculate D2E/DX2 analytically  !
 ! D11   D(5,3,4,9)            110.2471         calculate D2E/DX2 analytically  !
 ! D12   D(5,3,4,10)          -130.4243         calculate D2E/DX2 analytically  !
 ! D13   D(5,3,4,11)            -9.9558         calculate D2E/DX2 analytically  !
 ! D14   D(8,3,4,9)           -131.0497         calculate D2E/DX2 analytically  !
 ! D15   D(8,3,4,10)           -11.721          calculate D2E/DX2 analytically  !
 ! D16   D(8,3,4,11)           108.7474         calculate D2E/DX2 analytically  !
 ! D17   D(1,3,5,12)           106.3794         calculate D2E/DX2 analytically  !
 ! D18   D(1,3,5,13)           -14.7959         calculate D2E/DX2 analytically  !
 ! D19   D(1,3,5,14)          -133.735          calculate D2E/DX2 analytically  !
 ! D20   D(4,3,5,12)           -21.16           calculate D2E/DX2 analytically  !
 ! D21   D(4,3,5,13)          -142.3352         calculate D2E/DX2 analytically  !
 ! D22   D(4,3,5,14)            98.7257         calculate D2E/DX2 analytically  !
 ! D23   D(8,3,5,12)          -139.6867         calculate D2E/DX2 analytically  !
 ! D24   D(8,3,5,13)            99.1381         calculate D2E/DX2 analytically  !
 ! D25   D(8,3,5,14)           -19.8011         calculate D2E/DX2 analytically  !
 ! D26   D(1,6,7,2)           -179.6122         calculate D2E/DX2 analytically  !
 ! D27   D(1,6,7,16)             0.1701         calculate D2E/DX2 analytically  !
 ! D28   D(15,6,7,2)            -0.8764         calculate D2E/DX2 analytically  !
 ! D29   D(15,6,7,16)          178.906          calculate D2E/DX2 analytically  !
 --------------------------------------------------------------------------------
 Trust Radius=3.00D-01 FncErr=1.00D-07 GrdErr=1.00D-06 EigMax=2.50D+02 EigMin=1.00D-04
 Number of steps in this run=    102 maximum allowed number of steps=    102.
 GradGradGradGradGradGradGradGradGradGradGradGradGradGradGradGradGradGrad

 Leave Link  103 at Thu Sep 26 09:31:59 2019, MaxMem=   671088640 cpu:               2.0 elap:               1.5
 (Enter /shared/centos7/gaussian/g16/l202.exe)
                          Input orientation:                          
 ---------------------------------------------------------------------
 Center     Atomic      Atomic             Coordinates (Angstroms)
 Number     Number       Type             X           Y           Z
 ---------------------------------------------------------------------
      1          8           0        0.248375   -1.401289   -0.540246
      2          8           0        3.003951   -1.342683    1.836348
      3          6           0       -0.495592   -0.355263   -1.128650
      4          6           0        0.342282    0.421621   -2.144244
      5          6           0       -1.156275    0.521676   -0.116452
      6          6           0        1.205880   -0.953829    0.341150
      7          6           0        2.033931   -1.761483    0.937874
      8          1           0       -1.305694   -0.888530   -1.699358
      9          1           0        1.425306    0.232828   -1.990535
     10          1           0        0.095983    0.115513   -3.177260
     11          1           0        0.177111    1.530438   -2.067604
     12          1           0       -0.656151    1.529673   -0.013964
     13          1           0       -1.160942    0.043693    0.885339
     14          1           0       -2.230333    0.715121   -0.396701
     15          1           0        1.219338    0.131408    0.530404
     16          1           0        2.042532   -2.831756    0.793433
     17          1           0        2.925875   -0.347326    1.906716
 ---------------------------------------------------------------------
                    Distance matrix (angstroms):
                    1          2          3          4          5
     1  O    0.000000
     2  O    3.639345   0.000000
     3  C    1.412047   4.691803   0.000000
     4  C    2.429944   5.103172   1.528729   0.000000
     5  C    2.418768   4.959510   1.493342   2.523416   0.000000
     6  C    1.376189   2.370629   2.326715   2.968981   2.822461
     7  C    2.345802   1.386935   3.556186   4.138486   4.062244
     8  H    2.005391   5.592898   1.125320   2.151800   2.125229
     9  H    2.481701   4.429378   2.185989   1.110050   3.203152
    10  H    3.045940   5.976527   2.183665   1.105209   3.331916
    11  H    3.306497   5.611300   2.211342   1.123668   2.569536
    12  H    3.112182   5.007038   2.195743   2.600528   1.129905
    13  H    2.471122   4.491413   2.158243   3.403071   1.109989
    14  H    3.262482   6.051346   2.165825   3.123843   1.126748
    15  H    2.106708   2.657683   2.435220   2.829699   2.492843
    16  H    2.654041   2.056535   4.033546   4.701623   4.722897
    17  H    3.777229   1.000891   4.573833   4.865851   4.638137
                    6          7          8          9         10
     6  C    0.000000
     7  C    1.301558   0.000000
     8  H    3.236656   4.343976   0.000000
     9  H    2.625463   3.594896   2.966579   0.000000
    10  H    3.841168   4.920678   2.270902   1.785827   0.000000
    11  H    3.609992   4.828811   2.861070   1.802144   1.799981
    12  H    3.124267   4.355943   3.018305   3.149779   3.545701
    13  H    2.625460   3.669963   2.751482   3.872351   4.253203
    14  H    3.890678   5.108679   2.263530   4.017040   3.674613
    15  H    1.101697   2.100626   3.519645   2.531372   3.874139
    16  H    2.105032   1.080011   4.604427   4.186063   5.314306
    17  H    2.403585   1.932371   5.585951   4.216260   5.836892
                   11         12         13         14         15
    11  H    0.000000
    12  H    2.216250   0.000000
    13  H    3.566605   1.808783   0.000000
    14  H    3.041783   1.813293   1.799456   0.000000
    15  H    3.129404   2.401862   2.408196   3.619458   0.000000
    16  H    5.540223   5.191998   4.305682   5.679272   3.086612
    17  H    5.184296   4.476946   4.230624   5.746390   2.244034
                   16         17
    16  H    0.000000
    17  H    2.862182   0.000000
 Stoichiometry    C5H10O2
 Framework group  C1[X(C5H10O2)]
 Deg. of freedom    45
 Full point group                 C1      NOp   1
 Largest Abelian subgroup         C1      NOp   1
 Largest concise Abelian subgroup C1      NOp   1
                         Standard orientation:                         
 ---------------------------------------------------------------------
 Center     Atomic      Atomic             Coordinates (Angstroms)
 Number     Number       Type             X           Y           Z
 ---------------------------------------------------------------------
      1          8           0        0.270028   -0.200879   -0.942228
      2          8           0       -3.066420    0.077313    0.484500
      3          6           0        1.546707   -0.025896   -0.364864
      4          6           0        1.882402   -1.162898    0.600303
      5          6           0        1.726059    1.329240    0.236392
      6          6           0       -0.758931    0.023312   -0.056295
      7          6           0       -2.007359   -0.147427   -0.382373
      8          1           0        2.251232   -0.107927   -1.238513
      9          1           0        0.964747   -1.710288    0.901109
     10          1           0        2.564543   -1.893658    0.128966
     11          1           0        2.376707   -0.788836    1.537517
     12          1           0        1.704235    1.315952    1.366008
     13          1           0        0.935567    2.028058   -0.108358
     14          1           0        2.716325    1.772554   -0.067595
     15          1           0       -0.466201    0.377366    0.945050
     16          1           0       -2.336925   -0.476082   -1.356947
     17          1           0       -2.672355    0.373402    1.355607
 ---------------------------------------------------------------------
 Rotational constants (GHZ):           5.4538540           1.2852482           1.2297188
 Leave Link  202 at Thu Sep 26 09:32:01 2019, MaxMem=   671088640 cpu:               3.5 elap:               1.7
 (Enter /shared/centos7/gaussian/g16/l301.exe)
 Standard basis: CC-pVTZ (5D, 7F)
 Ernie: Thresh=  0.10000D-02 Tol=  0.10000D-05 Strict=F.
 Ernie:  21 primitive shells out of 262 were deleted.
 There are   395 symmetry adapted cartesian basis functions of A   symmetry.
 There are   350 symmetry adapted basis functions of A   symmetry.
   350 basis functions,   534 primitive gaussians,   395 cartesian basis functions
    28 alpha electrons       28 beta electrons
       nuclear repulsion energy       311.9883503397 Hartrees.
 IExCor= 4336 DFT=T Ex+Corr=M062X ExCW=0 ScaHFX=  0.540000
 ScaDFX=  1.000000  1.000000  1.000000  1.000000 ScalE2=  1.000000  1.000000
 IRadAn=      5 IRanWt=     -1 IRanGd=            0 ICorTp=0 IEmpDi=  4
 NAtoms=   17 NActive=   17 NUniq=   17 SFac= 1.00D+00 NAtFMM=   60 NAOKFM=F Big=F
 Integral buffers will be    131072 words long.
 Raffenetti 2 integral format.
 Two-electron integral symmetry is turned on.
 Leave Link  301 at Thu Sep 26 09:32:02 2019, MaxMem=   671088640 cpu:               1.7 elap:               0.8
 (Enter /shared/centos7/gaussian/g16/l302.exe)
 NPDir=0 NMtPBC=     1 NCelOv=     1 NCel=       1 NClECP=     1 NCelD=      1
         NCelK=      1 NCelE2=     1 NClLst=     1 CellRange=     0.0.
 One-electron integrals computed using PRISM.
 One-electron integral symmetry used in STVInt
 NBasis=   350 RedAO= T EigKep=  1.93D-04  NBF=   350
 NBsUse=   350 1.00D-06 EigRej= -1.00D+00 NBFU=   350
 Precomputing XC quadrature grid using
 IXCGrd= 4 IRadAn=           5 IRanWt=          -1 IRanGd=           0 AccXCQ= 0.00D+00.
 Generated NRdTot=       0 NPtTot=           0 NUsed=           0 NTot=          32
 NSgBfM=   395   395   395   395   395 MxSgAt=    17 MxSgA2=    17.
 Leave Link  302 at Thu Sep 26 09:33:24 2019, MaxMem=   671088640 cpu:             164.6 elap:              82.4
 (Enter /shared/centos7/gaussian/g16/l303.exe)
 DipDrv:  MaxL=1.
 Leave Link  303 at Thu Sep 26 09:33:29 2019, MaxMem=   671088640 cpu:              10.4 elap:               5.2
 (Enter /shared/centos7/gaussian/g16/l401.exe)
 ExpMin= 1.03D-01 ExpMax= 1.53D+04 ExpMxC= 5.22D+02 IAcc=3 IRadAn=         5 AccDes= 0.00D+00
 Harris functional with IExCor= 1009 and IRadAn=       5 diagonalized for initial guess.
 HarFok:  IExCor= 1009 AccDes= 0.00D+00 IRadAn=         5 IDoV= 1 UseB2=F ITyADJ=14
 ICtDFT=  3500011 ScaDFX=  1.000000  1.000000  1.000000  1.000000
 FoFCou: FMM=F IPFlag=           0 FMFlag=      100000 FMFlg1=           0
         NFxFlg=           0 DoJE=T BraDBF=F KetDBF=T FulRan=T
         wScrn=  0.000000 ICntrl=       500 IOpCl=  0 I1Cent=   200000004 NGrid=           0
         NMat0=    1 NMatS0=      1 NMatT0=    0 NMatD0=    1 NMtDS0=    0 NMtDT0=    0
 Petite list used in FoFCou.
 Harris En= -346.804295599247    
 JPrj=0 DoOrth=F DoCkMO=F.
 Leave Link  401 at Thu Sep 26 09:33:58 2019, MaxMem=   671088640 cpu:              57.3 elap:              28.6
 (Enter /shared/centos7/gaussian/g16/l502.exe)
 Integral symmetry usage will be decided dynamically.
 Closed shell SCF:
 Using DIIS extrapolation, IDIIS=  1040.
 NGot=   671088640 LenX=   670765141 LenY=   670608675
 Requested convergence on RMS density matrix=1.00D-08 within 900 cycles.
 Requested convergence on MAX density matrix=1.00D-06.
 Requested convergence on             energy=1.00D-06.
 No special actions if energy rises.
 Fock matrices will be formed incrementally for  20 cycles.
 Integral accuracy reduced to 1.0D-05 until final iterations.

 Cycle   1  Pass 0  IDiag  1:
 FoFJK:  IHMeth= 1 ICntrl=       0 DoSepK=F KAlg= 0 I1Cent=           0 FoldK=F
 IRaf= 940000000 NMat=       1 IRICut=       1 DoRegI=T DoRafI=F ISym2E= 0 IDoP0=0 IntGTp=1.
 FoFCou: FMM=F IPFlag=           0 FMFlag=      100000 FMFlg1=           0
         NFxFlg=           0 DoJE=F BraDBF=F KetDBF=F FulRan=T
         wScrn=  0.000000 ICntrl=         0 IOpCl=  0 I1Cent=           0 NGrid=           0
         NMat0=    1 NMatS0=      1 NMatT0=    0 NMatD0=    1 NMtDS0=    0 NMtDT0=    0
 Symmetry not used in FoFCou.
 E= -346.692905807406    
 DIIS: error= 2.07D-02 at cycle   1 NSaved=   1.
 NSaved= 1 IEnMin= 1 EnMin= -346.692905807406     IErMin= 1 ErrMin= 2.07D-02
 ErrMax= 2.07D-02  0.00D+00 EMaxC= 1.00D-01 BMatC= 2.85D-01 BMatP= 2.85D-01
 IDIUse=3 WtCom= 7.93D-01 WtEn= 2.07D-01
 Coeff-Com:  0.100D+01
 Coeff-En:   0.100D+01
 Coeff:      0.100D+01
 Gap=     0.341 Goal=   None    Shift=    0.000
 GapD=    0.341 DampG=1.000 DampE=0.500 DampFc=0.5000 IDamp=-1.
 Damping current iteration by 5.00D-01
 RMSDP=1.82D-03 MaxDP=9.24D-02              OVMax= 1.32D-01

 Cycle   2  Pass 0  IDiag  1:
 RMSU=  9.07D-04    CP:  9.97D-01
 E= -346.812637388147     Delta-E=       -0.119731580741 Rises=F Damp=T
 DIIS: error= 4.99D-03 at cycle   2 NSaved=   2.
 NSaved= 2 IEnMin= 2 EnMin= -346.812637388147     IErMin= 2 ErrMin= 4.99D-03
 ErrMax= 4.99D-03  0.00D+00 EMaxC= 1.00D-01 BMatC= 2.11D-02 BMatP= 2.85D-01
 IDIUse=3 WtCom= 9.50D-01 WtEn= 4.99D-02
 Coeff-Com: -0.141D+00 0.114D+01
 Coeff-En:   0.000D+00 0.100D+01
 Coeff:     -0.134D+00 0.113D+01
 Gap=     0.323 Goal=   None    Shift=    0.000
 RMSDP=4.31D-04 MaxDP=1.43D-02 DE=-1.20D-01 OVMax= 6.68D-02

 Cycle   3  Pass 0  IDiag  1:
 RMSU=  4.29D-04    CP:  1.00D+00  1.03D+00
 E= -346.919237131135     Delta-E=       -0.106599742988 Rises=F Damp=F
 DIIS: error= 2.38D-03 at cycle   3 NSaved=   3.
 NSaved= 3 IEnMin= 3 EnMin= -346.919237131135     IErMin= 3 ErrMin= 2.38D-03
 ErrMax= 2.38D-03  0.00D+00 EMaxC= 1.00D-01 BMatC= 2.95D-03 BMatP= 2.11D-02
 IDIUse=3 WtCom= 9.76D-01 WtEn= 2.38D-02
 Coeff-Com: -0.777D-01 0.287D+00 0.790D+00
 Coeff-En:   0.000D+00 0.000D+00 0.100D+01
 Coeff:     -0.758D-01 0.280D+00 0.795D+00
 Gap=     0.324 Goal=   None    Shift=    0.000
 RMSDP=1.05D-04 MaxDP=4.86D-03 DE=-1.07D-01 OVMax= 1.16D-02

 Cycle   4  Pass 0  IDiag  1:
 RMSU=  9.66D-05    CP:  1.00D+00  1.06D+00  9.45D-01
 E= -346.920690598556     Delta-E=       -0.001453467422 Rises=F Damp=F
 DIIS: error= 1.42D-03 at cycle   4 NSaved=   4.
 NSaved= 4 IEnMin= 4 EnMin= -346.920690598556     IErMin= 4 ErrMin= 1.42D-03
 ErrMax= 1.42D-03  0.00D+00 EMaxC= 1.00D-01 BMatC= 9.24D-04 BMatP= 2.95D-03
 IDIUse=3 WtCom= 9.86D-01 WtEn= 1.42D-02
 Coeff-Com: -0.264D-01 0.692D-01 0.402D+00 0.555D+00
 Coeff-En:   0.000D+00 0.000D+00 0.202D+00 0.798D+00
 Coeff:     -0.260D-01 0.682D-01 0.399D+00 0.559D+00
 Gap=     0.320 Goal=   None    Shift=    0.000
 RMSDP=4.66D-05 MaxDP=2.10D-03 DE=-1.45D-03 OVMax= 5.97D-03

 Cycle   5  Pass 0  IDiag  1:
 RMSU=  2.57D-05    CP:  1.00D+00  1.07D+00  9.66D-01  6.17D-01
 E= -346.921349682511     Delta-E=       -0.000659083955 Rises=F Damp=F
 DIIS: error= 2.44D-04 at cycle   5 NSaved=   5.
 NSaved= 5 IEnMin= 5 EnMin= -346.921349682511     IErMin= 5 ErrMin= 2.44D-04
 ErrMax= 2.44D-04  0.00D+00 EMaxC= 1.00D-01 BMatC= 2.59D-05 BMatP= 9.24D-04
 IDIUse=3 WtCom= 9.98D-01 WtEn= 2.44D-03
 Coeff-Com: -0.455D-02 0.871D-02 0.100D+00 0.212D+00 0.684D+00
 Coeff-En:   0.000D+00 0.000D+00 0.000D+00 0.000D+00 0.100D+01
 Coeff:     -0.454D-02 0.869D-02 0.100D+00 0.211D+00 0.684D+00
 Gap=     0.320 Goal=   None    Shift=    0.000
 RMSDP=1.23D-05 MaxDP=3.95D-04 DE=-6.59D-04 OVMax= 1.73D-03

 Cycle   6  Pass 0  IDiag  1:
 RMSU=  8.98D-06    CP:  1.00D+00  1.07D+00  9.76D-01  6.56D-01  7.94D-01
 E= -346.921368266101     Delta-E=       -0.000018583590 Rises=F Damp=F
 DIIS: error= 6.88D-05 at cycle   6 NSaved=   6.
 NSaved= 6 IEnMin= 6 EnMin= -346.921368266101     IErMin= 6 ErrMin= 6.88D-05
 ErrMax= 6.88D-05  0.00D+00 EMaxC= 1.00D-01 BMatC= 2.59D-06 BMatP= 2.59D-05
 IDIUse=1 WtCom= 1.00D+00 WtEn= 0.00D+00
 Coeff-Com: -0.127D-04-0.125D-02 0.165D-01 0.581D-01 0.296D+00 0.631D+00
 Coeff:     -0.127D-04-0.125D-02 0.165D-01 0.581D-01 0.296D+00 0.631D+00
 Gap=     0.320 Goal=   None    Shift=    0.000
 RMSDP=3.59D-06 MaxDP=1.82D-04 DE=-1.86D-05 OVMax= 6.82D-04

 Initial convergence to 1.0D-05 achieved.  Increase integral accuracy.
 Cycle   7  Pass 1  IDiag  1:
 E= -346.921362727567     Delta-E=        0.000005538534 Rises=F Damp=F
 DIIS: error= 2.89D-05 at cycle   1 NSaved=   1.
 NSaved= 1 IEnMin= 1 EnMin= -346.921362727567     IErMin= 1 ErrMin= 2.89D-05
 ErrMax= 2.89D-05  0.00D+00 EMaxC= 1.00D-01 BMatC= 6.39D-07 BMatP= 6.39D-07
 IDIUse=1 WtCom= 1.00D+00 WtEn= 0.00D+00
 Coeff-Com:  0.100D+01
 Coeff:      0.100D+01
 Gap=     0.321 Goal=   None    Shift=    0.000
 RMSDP=3.59D-06 MaxDP=1.82D-04 DE= 5.54D-06 OVMax= 4.51D-04

 Cycle   8  Pass 1  IDiag  1:
 RMSU=  7.03D-06    CP:  1.00D+00
 E= -346.921362819250     Delta-E=       -0.000000091683 Rises=F Damp=F
 DIIS: error= 3.21D-05 at cycle   2 NSaved=   2.
 NSaved= 2 IEnMin= 2 EnMin= -346.921362819250     IErMin= 1 ErrMin= 2.89D-05
 ErrMax= 3.21D-05  0.00D+00 EMaxC= 1.00D-01 BMatC= 4.26D-07 BMatP= 6.39D-07
 IDIUse=1 WtCom= 1.00D+00 WtEn= 0.00D+00
 Coeff-Com:  0.435D+00 0.565D+00
 Coeff:      0.435D+00 0.565D+00
 Gap=     0.321 Goal=   None    Shift=    0.000
 RMSDP=1.56D-06 MaxDP=8.42D-05 DE=-9.17D-08 OVMax= 3.39D-04

 Cycle   9  Pass 1  IDiag  1:
 RMSU=  1.55D-06    CP:  1.00D+00  9.73D-01
 E= -346.921363139535     Delta-E=       -0.000000320285 Rises=F Damp=F
 DIIS: error= 1.05D-05 at cycle   3 NSaved=   3.
 NSaved= 3 IEnMin= 3 EnMin= -346.921363139535     IErMin= 3 ErrMin= 1.05D-05
 ErrMax= 1.05D-05  0.00D+00 EMaxC= 1.00D-01 BMatC= 5.64D-08 BMatP= 4.26D-07
 IDIUse=1 WtCom= 1.00D+00 WtEn= 0.00D+00
 Coeff-Com: -0.838D-02 0.259D+00 0.749D+00
 Coeff:     -0.838D-02 0.259D+00 0.749D+00
 Gap=     0.321 Goal=   None    Shift=    0.000
 RMSDP=4.92D-07 MaxDP=2.18D-05 DE=-3.20D-07 OVMax= 9.53D-05

 Cycle  10  Pass 1  IDiag  1:
 RMSU=  2.47D-07    CP:  1.00D+00  1.00D+00  7.67D-01
 E= -346.921363186446     Delta-E=       -0.000000046911 Rises=F Damp=F
 DIIS: error= 1.88D-06 at cycle   4 NSaved=   4.
 NSaved= 4 IEnMin= 4 EnMin= -346.921363186446     IErMin= 4 ErrMin= 1.88D-06
 ErrMax= 1.88D-06  0.00D+00 EMaxC= 1.00D-01 BMatC= 2.06D-09 BMatP= 5.64D-08
 IDIUse=1 WtCom= 1.00D+00 WtEn= 0.00D+00
 Coeff-Com: -0.144D-01 0.980D-01 0.327D+00 0.589D+00
 Coeff:     -0.144D-01 0.980D-01 0.327D+00 0.589D+00
 Gap=     0.321 Goal=   None    Shift=    0.000
 RMSDP=7.89D-08 MaxDP=3.17D-06 DE=-4.69D-08 OVMax= 7.95D-06

 Cycle  11  Pass 1  IDiag  1:
 RMSU=  7.43D-08    CP:  1.00D+00  1.01D+00  7.77D-01  9.40D-01
 E= -346.921363187975     Delta-E=       -0.000000001529 Rises=F Damp=F
 DIIS: error= 4.77D-07 at cycle   5 NSaved=   5.
 NSaved= 5 IEnMin= 5 EnMin= -346.921363187975     IErMin= 5 ErrMin= 4.77D-07
 ErrMax= 4.77D-07  0.00D+00 EMaxC= 1.00D-01 BMatC= 1.42D-10 BMatP= 2.06D-09
 IDIUse=1 WtCom= 1.00D+00 WtEn= 0.00D+00
 Coeff-Com: -0.331D-02-0.374D-02 0.975D-02 0.187D+00 0.810D+00
 Coeff:     -0.331D-02-0.374D-02 0.975D-02 0.187D+00 0.810D+00
 Gap=     0.321 Goal=   None    Shift=    0.000
 RMSDP=3.01D-08 MaxDP=9.98D-07 DE=-1.53D-09 OVMax= 2.97D-06

 Cycle  12  Pass 1  IDiag  1:
 RMSU=  2.21D-08    CP:  1.00D+00  1.01D+00  7.81D-01  1.02D+00  1.01D+00
 E= -346.921363188095     Delta-E=       -0.000000000120 Rises=F Damp=F
 DIIS: error= 1.70D-07 at cycle   6 NSaved=   6.
 NSaved= 6 IEnMin= 6 EnMin= -346.921363188095     IErMin= 6 ErrMin= 1.70D-07
 ErrMax= 1.70D-07  0.00D+00 EMaxC= 1.00D-01 BMatC= 1.52D-11 BMatP= 1.42D-10
 IDIUse=1 WtCom= 1.00D+00 WtEn= 0.00D+00
 Coeff-Com:  0.659D-03-0.140D-01-0.371D-01-0.411D-02 0.286D+00 0.769D+00
 Coeff:      0.659D-03-0.140D-01-0.371D-01-0.411D-02 0.286D+00 0.769D+00
 Gap=     0.321 Goal=   None    Shift=    0.000
 RMSDP=1.14D-08 MaxDP=4.52D-07 DE=-1.20D-10 OVMax= 1.41D-06

 Cycle  13  Pass 1  IDiag  1:
 RMSU=  7.57D-09    CP:  1.00D+00  1.01D+00  7.81D-01  1.05D+00  1.06D+00
                    CP:  9.41D-01
 E= -346.921363188124     Delta-E=       -0.000000000029 Rises=F Damp=F
 DIIS: error= 3.19D-08 at cycle   7 NSaved=   7.
 NSaved= 7 IEnMin= 7 EnMin= -346.921363188124     IErMin= 7 ErrMin= 3.19D-08
 ErrMax= 3.19D-08  0.00D+00 EMaxC= 1.00D-01 BMatC= 1.07D-12 BMatP= 1.52D-11
 IDIUse=1 WtCom= 1.00D+00 WtEn= 0.00D+00
 Coeff-Com:  0.415D-03-0.499D-02-0.142D-01-0.124D-01 0.581D-01 0.283D+00
 Coeff-Com:  0.690D+00
 Coeff:      0.415D-03-0.499D-02-0.142D-01-0.124D-01 0.581D-01 0.283D+00
 Coeff:      0.690D+00
 Gap=     0.321 Goal=   None    Shift=    0.000
 RMSDP=2.37D-09 MaxDP=1.16D-07 DE=-2.93D-11 OVMax= 2.05D-07

 SCF Done:  E(RM062X) =  -346.921363188     A.U. after   13 cycles
            NFock= 13  Conv=0.24D-08     -V/T= 2.0062
 KE= 3.447887081724D+02 PE=-1.433919786911D+03 EE= 4.302213652112D+02
 Leave Link  502 at Thu Sep 26 09:43:52 2019, MaxMem=   671088640 cpu:            1186.9 elap:             593.6
 (Enter /shared/centos7/gaussian/g16/l801.exe)
 DoSCS=F DFT=T ScalE2(SS,OS)=  1.000000  1.000000
 Range of M.O.s used for correlation:     1   350
 NBasis=   350 NAE=    28 NBE=    28 NFC=     0 NFV=     0
 NROrb=    350 NOA=    28 NOB=    28 NVA=   322 NVB=   322

 **** Warning!!: The largest alpha MO coefficient is  0.11870488D+02

 Leave Link  801 at Thu Sep 26 09:43:52 2019, MaxMem=   671088640 cpu:               1.4 elap:               0.7
 (Enter /shared/centos7/gaussian/g16/l1101.exe)
 Using compressed storage, NAtomX=    17.
 Will process     18 centers per pass.
 Leave Link 1101 at Thu Sep 26 09:44:19 2019, MaxMem=   671088640 cpu:              53.1 elap:              26.6
 (Enter /shared/centos7/gaussian/g16/l1102.exe)
 Symmetrizing basis deriv contribution to polar:
 IMax=3 JMax=2 DiffMx= 0.00D+00
 Leave Link 1102 at Thu Sep 26 09:44:21 2019, MaxMem=   671088640 cpu:               4.9 elap:               2.5
 (Enter /shared/centos7/gaussian/g16/l1110.exe)
 Forming Gx(P) for the SCF density, NAtomX=    17.
 Integral derivatives from FoFJK, PRISM(SPDF).
 Do as many integral derivatives as possible in FoFJK.
 G2DrvN: MDV=     671087280.
 G2DrvN: will do    18 centers at a time, making    1 passes.
 Calling FoFCou, ICntrl=  3107 FMM=F I1Cent=   0 AccDes= 0.00D+00.
 FoFJK:  IHMeth= 1 ICntrl=    3107 DoSepK=F KAlg= 0 I1Cent=           0 FoldK=F
 IRaf=         0 NMat=       1 IRICut=       1 DoRegI=T DoRafI=F ISym2E= 0 IDoP0=0 IntGTp=1.
 FoFCou: FMM=F IPFlag=           0 FMFlag=      100000 FMFlg1=           0
         NFxFlg=           0 DoJE=F BraDBF=F KetDBF=F FulRan=T
         wScrn=  0.000000 ICntrl=      3107 IOpCl=  0 I1Cent=           0 NGrid=           0
         NMat0=    1 NMatS0=      1 NMatT0=    0 NMatD0=    1 NMtDS0=    0 NMtDT0=    0
 Symmetry not used in FoFCou.
 End of G2Drv F.D. properties file   721 does not exist.
 End of G2Drv F.D. properties file   722 does not exist.
 End of G2Drv F.D. properties file   788 does not exist.
 Leave Link 1110 at Thu Sep 26 10:02:55 2019, MaxMem=   671088640 cpu:            2227.1 elap:            1113.8
 (Enter /shared/centos7/gaussian/g16/l1002.exe)
 Minotr:  Closed shell wavefunction.
          IDoAtm=11111111111111111
          Direct CPHF calculation.
          Differentiating once with respect to nuclear coordinates.
          Requested convergence is 1.0D-08 RMS, and 1.0D-07 maximum.
          Secondary convergence is 1.0D-12 RMS, and 1.0D-12 maximum.
          NewPWx=T KeepS1=F KeepF1=F KeepIn=T MapXYZ=F SortEE=F KeepMc=T.
         5116 words used for storage of precomputed grid.
 Two-electron integrals replicated using symmetry.
          MDV=     671088640 using IRadAn=       1.
          Solving linear equations simultaneously, MaxMat=     380.
 FoF2E skips out because all densities are zero.
 CalDSu exits because no D1Ps are significant.
 FoFJK:  IHMeth= 1 ICntrl=       0 DoSepK=F KAlg= 0 I1Cent=           0 FoldK=F
 IRaf= 930000000 NMat=      51 IRICut=     127 DoRegI=T DoRafI=T ISym2E= 2 IDoP0=3 IntGTp=3.
 FoFCou: FMM=F IPFlag=           0 FMFlag=      100000 FMFlg1=           0
         NFxFlg=           0 DoJE=F BraDBF=F KetDBF=F FulRan=T
         wScrn=  0.000000 ICntrl=         0 IOpCl=  0 I1Cent=           0 NGrid=           0
         NMat0=   51 NMatS0=     51 NMatT0=    0 NMatD0=   51 NMtDS0=    0 NMtDT0=    0
 Integrals replicated using symmetry in FoFCou.
 Raff kept on since  90.30% of shell-pairs survive, threshold=   0.20 IRatSp=90.
          There are    54 degrees of freedom in the 1st order CPHF.  IDoFFX=6 NUNeed=     0.
     48 vectors produced by pass  0 Test12= 1.67D-14 1.85D-09 XBig12= 7.05D-02 7.36D-02.
 AX will form    48 AO Fock derivatives at one time.
     48 vectors produced by pass  1 Test12= 1.67D-14 1.85D-09 XBig12= 1.21D-02 3.43D-02.
     48 vectors produced by pass  2 Test12= 1.67D-14 1.85D-09 XBig12= 4.70D-04 2.93D-03.
     48 vectors produced by pass  3 Test12= 1.67D-14 1.85D-09 XBig12= 5.18D-06 3.36D-04.
     48 vectors produced by pass  4 Test12= 1.67D-14 1.85D-09 XBig12= 4.79D-08 2.42D-05.
     48 vectors produced by pass  5 Test12= 1.67D-14 1.85D-09 XBig12= 2.50D-10 1.43D-06.
     26 vectors produced by pass  6 Test12= 1.67D-14 1.85D-09 XBig12= 1.25D-12 1.10D-07.
      5 vectors produced by pass  7 Test12= 1.67D-14 1.85D-09 XBig12= 5.22D-15 6.08D-09.
 InvSVY:  IOpt=1 It=  1 EMax= 3.61D-16
 Solved reduced A of dimension   319 with    54 vectors.
 End of Minotr F.D. properties file   721 does not exist.
 End of Minotr F.D. properties file   722 does not exist.
 End of Minotr F.D. properties file   788 does not exist.
 Leave Link 1002 at Thu Sep 26 10:45:28 2019, MaxMem=   671088640 cpu:            5104.4 elap:            2552.7
 (Enter /shared/centos7/gaussian/g16/l601.exe)
 Copying SCF densities to generalized density rwf, IOpCl= 0 IROHF=0.

 **********************************************************************

            Population analysis using the SCF density.

 **********************************************************************

 Orbital symmetries:
       Occupied  (A) (A) (A) (A) (A) (A) (A) (A) (A) (A) (A) (A)
                 (A) (A) (A) (A) (A) (A) (A) (A) (A) (A) (A) (A)
                 (A) (A) (A) (A)
       Virtual   (A) (A) (A) (A) (A) (A) (A) (A) (A) (A) (A) (A)
                 (A) (A) (A) (A) (A) (A) (A) (A) (A) (A) (A) (A)
                 (A) (A) (A) (A) (A) (A) (A) (A) (A) (A) (A) (A)
                 (A) (A) (A) (A) (A) (A) (A) (A) (A) (A) (A) (A)
                 (A) (A) (A) (A) (A) (A) (A) (A) (A) (A) (A) (A)
                 (A) (A) (A) (A) (A) (A) (A) (A) (A) (A) (A) (A)
                 (A) (A) (A) (A) (A) (A) (A) (A) (A) (A) (A) (A)
                 (A) (A) (A) (A) (A) (A) (A) (A) (A) (A) (A) (A)
                 (A) (A) (A) (A) (A) (A) (A) (A) (A) (A) (A) (A)
                 (A) (A) (A) (A) (A) (A) (A) (A) (A) (A) (A) (A)
                 (A) (A) (A) (A) (A) (A) (A) (A) (A) (A) (A) (A)
                 (A) (A) (A) (A) (A) (A) (A) (A) (A) (A) (A) (A)
                 (A) (A) (A) (A) (A) (A) (A) (A) (A) (A) (A) (A)
                 (A) (A) (A) (A) (A) (A) (A) (A) (A) (A) (A) (A)
                 (A) (A) (A) (A) (A) (A) (A) (A) (A) (A) (A) (A)
                 (A) (A) (A) (A) (A) (A) (A) (A) (A) (A) (A) (A)
                 (A) (A) (A) (A) (A) (A) (A) (A) (A) (A) (A) (A)
                 (A) (A) (A) (A) (A) (A) (A) (A) (A) (A) (A) (A)
                 (A) (A) (A) (A) (A) (A) (A) (A) (A) (A) (A) (A)
                 (A) (A) (A) (A) (A) (A) (A) (A) (A) (A) (A) (A)
                 (A) (A) (A) (A) (A) (A) (A) (A) (A) (A) (A) (A)
                 (A) (A) (A) (A) (A) (A) (A) (A) (A) (A) (A) (A)
                 (A) (A) (A) (A) (A) (A) (A) (A) (A) (A) (A) (A)
                 (A) (A) (A) (A) (A) (A) (A) (A) (A) (A) (A) (A)
                 (A) (A) (A) (A) (A) (A) (A) (A) (A) (A) (A) (A)
                 (A) (A) (A) (A) (A) (A) (A) (A) (A) (A) (A) (A)
                 (A) (A) (A) (A) (A) (A) (A) (A) (A) (A)
 The electronic state is 1-A.
 Alpha  occ. eigenvalues --  -19.64582 -19.64075 -10.59946 -10.58008 -10.57837
 Alpha  occ. eigenvalues --  -10.54042 -10.53611  -1.18339  -1.15951  -0.89579
 Alpha  occ. eigenvalues --   -0.83660  -0.78669  -0.70750  -0.66222  -0.60701
 Alpha  occ. eigenvalues --   -0.56932  -0.53324  -0.52412  -0.50716  -0.47322
 Alpha  occ. eigenvalues --   -0.46591  -0.45872  -0.44822  -0.42329  -0.42086
 Alpha  occ. eigenvalues --   -0.39110  -0.37894  -0.26427
 Alpha virt. eigenvalues --    0.05625   0.06579   0.07907   0.09352   0.09926
 Alpha virt. eigenvalues --    0.11066   0.12318   0.13841   0.14448   0.15840
 Alpha virt. eigenvalues --    0.17022   0.19158   0.21007   0.24021   0.27029
 Alpha virt. eigenvalues --    0.27899   0.28796   0.30973   0.31401   0.33635
 Alpha virt. eigenvalues --    0.35599   0.35832   0.37285   0.38794   0.39096
 Alpha virt. eigenvalues --    0.40061   0.43007   0.45106   0.45308   0.46820
 Alpha virt. eigenvalues --    0.47313   0.47699   0.48281   0.49435   0.49683
 Alpha virt. eigenvalues --    0.50964   0.51069   0.52691   0.53250   0.53970
 Alpha virt. eigenvalues --    0.55479   0.56909   0.58489   0.59367   0.61108
 Alpha virt. eigenvalues --    0.61653   0.65128   0.68201   0.69748   0.72470
 Alpha virt. eigenvalues --    0.75320   0.76979   0.78600   0.79713   0.83007
 Alpha virt. eigenvalues --    0.83918   0.84362   0.88164   0.89572   0.91763
 Alpha virt. eigenvalues --    0.92253   0.94495   0.95528   0.96541   0.97813
 Alpha virt. eigenvalues --    1.00748   1.02881   1.04375   1.04966   1.06337
 Alpha virt. eigenvalues --    1.07888   1.08147   1.09971   1.11429   1.11609
 Alpha virt. eigenvalues --    1.13593   1.15443   1.16894   1.17571   1.19716
 Alpha virt. eigenvalues --    1.20819   1.23857   1.24764   1.26969   1.27547
 Alpha virt. eigenvalues --    1.29335   1.29628   1.31184   1.33050   1.33927
 Alpha virt. eigenvalues --    1.35819   1.36234   1.37103   1.39533   1.40920
 Alpha virt. eigenvalues --    1.42383   1.44610   1.45894   1.48931   1.50037
 Alpha virt. eigenvalues --    1.52849   1.54255   1.56249   1.57336   1.61035
 Alpha virt. eigenvalues --    1.63091   1.64541   1.68677   1.79802   1.83849
 Alpha virt. eigenvalues --    1.89125   1.90465   1.96441   2.01394   2.02780
 Alpha virt. eigenvalues --    2.04500   2.12057   2.14395   2.16700   2.17540
 Alpha virt. eigenvalues --    2.22083   2.24585   2.29567   2.32184   2.35083
 Alpha virt. eigenvalues --    2.38229   2.40356   2.42266   2.45224   2.48362
 Alpha virt. eigenvalues --    2.51824   2.52987   2.55023   2.57119   2.59419
 Alpha virt. eigenvalues --    2.62278   2.63216   2.65116   2.66417   2.67386
 Alpha virt. eigenvalues --    2.69490   2.71650   2.75219   2.77308   2.80100
 Alpha virt. eigenvalues --    2.80370   2.81292   2.82923   2.84188   2.85791
 Alpha virt. eigenvalues --    2.87039   2.88379   2.90219   2.92167   2.92567
 Alpha virt. eigenvalues --    2.94066   2.94862   2.98161   2.98935   2.99447
 Alpha virt. eigenvalues --    3.00615   3.01075   3.01568   3.04209   3.05530
 Alpha virt. eigenvalues --    3.06691   3.08666   3.10984   3.12365   3.14624
 Alpha virt. eigenvalues --    3.15596   3.18535   3.19814   3.21395   3.22085
 Alpha virt. eigenvalues --    3.23127   3.26381   3.27828   3.28670   3.30049
 Alpha virt. eigenvalues --    3.30866   3.31845   3.34896   3.35913   3.36574
 Alpha virt. eigenvalues --    3.37558   3.38760   3.39777   3.41692   3.42359
 Alpha virt. eigenvalues --    3.44023   3.45697   3.47519   3.48897   3.49584
 Alpha virt. eigenvalues --    3.51911   3.53684   3.56514   3.58920   3.59848
 Alpha virt. eigenvalues --    3.62087   3.62157   3.66395   3.68107   3.69635
 Alpha virt. eigenvalues --    3.71780   3.72989   3.75240   3.76579   3.77804
 Alpha virt. eigenvalues --    3.79025   3.79952   3.81886   3.84012   3.87935
 Alpha virt. eigenvalues --    3.89344   3.89367   3.90306   3.91661   3.93754
 Alpha virt. eigenvalues --    3.94591   3.95642   3.96609   3.99970   4.01017
 Alpha virt. eigenvalues --    4.03043   4.04250   4.05462   4.07090   4.08449
 Alpha virt. eigenvalues --    4.10012   4.12623   4.13481   4.15396   4.16238
 Alpha virt. eigenvalues --    4.17788   4.18264   4.21539   4.22950   4.26422
 Alpha virt. eigenvalues --    4.30832   4.31777   4.37318   4.38737   4.41190
 Alpha virt. eigenvalues --    4.43498   4.45918   4.50690   4.52785   4.55864
 Alpha virt. eigenvalues --    4.58752   4.61414   4.62337   4.68510   4.69939
 Alpha virt. eigenvalues --    4.72092   4.73124   4.78248   4.79890   4.81697
 Alpha virt. eigenvalues --    4.84052   4.85644   4.87912   4.89123   4.90731
 Alpha virt. eigenvalues --    4.93109   4.97874   5.00385   5.01287   5.04148
 Alpha virt. eigenvalues --    5.06204   5.08769   5.10352   5.13238   5.18051
 Alpha virt. eigenvalues --    5.21173   5.22281   5.24707   5.25724   5.27202
 Alpha virt. eigenvalues --    5.28557   5.31587   5.34258   5.43133   5.47127
 Alpha virt. eigenvalues --    5.50005   5.51768   5.64394   5.68892   5.75360
 Alpha virt. eigenvalues --    5.77336   5.78210   5.81361   5.82564   5.84018
 Alpha virt. eigenvalues --    5.92065   5.94458   5.99675   6.22559   6.32167
 Alpha virt. eigenvalues --    6.40695   6.45278   6.51853   6.58985   6.71998
 Alpha virt. eigenvalues --    6.72652   6.76185   6.79455   6.80095   6.96049
 Alpha virt. eigenvalues --    7.07970   7.12844   7.28540   7.33523   7.41025
 Alpha virt. eigenvalues --   10.77872  10.84200  11.69228  11.72663  12.92106
 Alpha virt. eigenvalues --   13.42145  14.47942
          Condensed to atoms (all electrons):
               1          2          3          4          5          6
     1  O    7.882148   0.002513   0.318790  -0.050053  -0.060018   0.292610
     2  O    0.002513   7.797379   0.000029  -0.000036  -0.000093  -0.078729
     3  C    0.318790   0.000029   4.879314   0.309200   0.295854  -0.074620
     4  C   -0.050053  -0.000036   0.309200   5.063937  -0.088055  -0.002048
     5  C   -0.060018  -0.000093   0.295854  -0.088055   5.120813  -0.014144
     6  C    0.292610  -0.078729  -0.074620  -0.002048  -0.014144   5.052261
     7  C   -0.059725   0.355996  -0.000757   0.003713   0.000046   0.621584
     8  H   -0.028957   0.000009   0.417260  -0.052694  -0.048793   0.008228
     9  H   -0.009272  -0.000007  -0.036614   0.396483  -0.000711   0.008528
    10  H    0.002408  -0.000002  -0.034932   0.400165   0.007478   0.000067
    11  H    0.005198   0.000005  -0.041973   0.387626  -0.000798  -0.001554
    12  H    0.005085   0.000003  -0.044303  -0.006037   0.389679  -0.003629
    13  H   -0.001916   0.000068  -0.041924   0.008084   0.395925   0.002322
    14  H    0.003575  -0.000002  -0.031819   0.005165   0.391331   0.001392
    15  H   -0.052294  -0.002790   0.006324  -0.004642   0.000465   0.361773
    16  H    0.005920  -0.030548   0.000878   0.000056  -0.000037  -0.078670
    17  H   -0.000044   0.325380   0.000243  -0.000047  -0.000135  -0.012275
               7          8          9         10         11         12
     1  O   -0.059725  -0.028957  -0.009272   0.002408   0.005198   0.005085
     2  O    0.355996   0.000009  -0.000007  -0.000002   0.000005   0.000003
     3  C   -0.000757   0.417260  -0.036614  -0.034932  -0.041973  -0.044303
     4  C    0.003713  -0.052694   0.396483   0.400165   0.387626  -0.006037
     5  C    0.000046  -0.048793  -0.000711   0.007478  -0.000798   0.389679
     6  C    0.621584   0.008228   0.008528   0.000067  -0.001554  -0.003629
     7  C    4.756079   0.000115   0.003803  -0.000117  -0.000431  -0.000228
     8  H    0.000115   0.586272   0.004196  -0.012933   0.005004   0.007773
     9  H    0.003803   0.004196   0.558668  -0.026171  -0.035840   0.001584
    10  H   -0.000117  -0.012933  -0.026171   0.575953  -0.032200   0.000553
    11  H   -0.000431   0.005004  -0.035840  -0.032200   0.610697  -0.003348
    12  H   -0.000228   0.007773   0.001584   0.000553  -0.003348   0.620444
    13  H    0.001286   0.000489  -0.000296  -0.000539   0.000587  -0.037313
    14  H   -0.000037  -0.015245  -0.000320  -0.000255   0.000023  -0.031050
    15  H   -0.035778  -0.000295  -0.001475   0.000009  -0.000562  -0.003941
    16  H    0.412994  -0.000070   0.000099  -0.000005  -0.000012  -0.000044
    17  H   -0.047088   0.000001   0.000031  -0.000001   0.000000  -0.000046
              13         14         15         16         17
     1  O   -0.001916   0.003575  -0.052294   0.005920  -0.000044
     2  O    0.000068  -0.000002  -0.002790  -0.030548   0.325380
     3  C   -0.041924  -0.031819   0.006324   0.000878   0.000243
     4  C    0.008084   0.005165  -0.004642   0.000056  -0.000047
     5  C    0.395925   0.391331   0.000465  -0.000037  -0.000135
     6  C    0.002322   0.001392   0.361773  -0.078670  -0.012275
     7  C    0.001286  -0.000037  -0.035778   0.412994  -0.047088
     8  H    0.000489  -0.015245  -0.000295  -0.000070   0.000001
     9  H   -0.000296  -0.000320  -0.001475   0.000099   0.000031
    10  H   -0.000539  -0.000255   0.000009  -0.000005  -0.000001
    11  H    0.000587   0.000023  -0.000562  -0.000012   0.000000
    12  H   -0.037313  -0.031050  -0.003941  -0.000044  -0.000046
    13  H    0.556349  -0.021888  -0.002468   0.000088   0.000052
    14  H   -0.021888   0.576332  -0.000169  -0.000001  -0.000000
    15  H   -0.002468  -0.000169   0.595626   0.007561   0.008433
    16  H    0.000088  -0.000001   0.007561   0.520182   0.007347
    17  H    0.000052  -0.000000   0.008433   0.007347   0.460299
 Mulliken charges:
               1
     1  O   -0.255969
     2  O   -0.369175
     3  C    0.079050
     4  C   -0.370819
     5  C   -0.388808
     6  C   -0.083095
     7  C   -0.011455
     8  H    0.129639
     9  H    0.137314
    10  H    0.120522
    11  H    0.107578
    12  H    0.104819
    13  H    0.141093
    14  H    0.122970
    15  H    0.124224
    16  H    0.154261
    17  H    0.257851
 Sum of Mulliken charges =  -0.00000
 Mulliken charges with hydrogens summed into heavy atoms:
               1
     1  O   -0.255969
     2  O   -0.111324
     3  C    0.208689
     4  C   -0.005405
     5  C   -0.019926
     6  C    0.041128
     7  C    0.142806
 APT charges:
               1
     1  O   -0.137660
     2  O   -0.259983
     3  C   -0.262927
     4  C   -1.111754
     5  C   -1.105182
     6  C   -0.436909
     7  C   -0.332806
     8  H    0.482867
     9  H    0.210292
    10  H    0.496835
    11  H    0.371046
    12  H    0.286333
    13  H    0.236451
    14  H    0.526381
    15  H    0.235955
    16  H    0.444869
    17  H    0.356191
 Sum of APT charges =   0.00000
 APT charges with hydrogens summed into heavy atoms:
               1
     1  O   -0.137660
     2  O    0.096209
     3  C    0.219940
     4  C   -0.033581
     5  C   -0.056017
     6  C   -0.200953
     7  C    0.112063
 Electronic spatial extent (au):  <R**2>=           1025.6301
 Charge=              0.0000 electrons
 Dipole moment (field-independent basis, Debye):
    X=              2.0229    Y=              0.6026    Z=              1.6339  Tot=              2.6693
 Quadrupole moment (field-independent basis, Debye-Ang):
   XX=            -47.2124   YY=            -44.8606   ZZ=            -41.7254
   XY=             -0.2782   XZ=             -1.2901   YZ=              1.3177
 Traceless Quadrupole moment (field-independent basis, Debye-Ang):
   XX=             -2.6129   YY=             -0.2612   ZZ=              2.8741
   XY=             -0.2782   XZ=             -1.2901   YZ=              1.3177
 Octapole moment (field-independent basis, Debye-Ang**2):
  XXX=             22.7506  YYY=             -0.3907  ZZZ=              4.2160  XYY=             -1.8068
  XXY=              0.4892  XXZ=             -4.2740  XZZ=            -12.5965  YZZ=              1.3264
  YYZ=             -0.9186  XYZ=             -3.7231
 Hexadecapole moment (field-independent basis, Debye-Ang**3):
 XXXX=          -1062.8866 YYYY=           -226.3404 ZZZZ=           -142.6484 XXXY=             -0.7315
 XXXZ=            -12.4625 YYYX=             -3.7523 YYYZ=              0.7723 ZZZX=            -17.7529
 ZZZY=              6.5099 XXYY=           -197.0604 XXZZ=           -156.8066 YYZZ=            -63.9171
 XXYZ=             11.6676 YYXZ=             -6.4227 ZZXY=             -2.3703
 N-N= 3.119883503397D+02 E-N=-1.433919779543D+03  KE= 3.447887081724D+02
  Exact polarizability:   0.000   0.000   0.000   0.000   0.000   0.000
 Approx polarizability:  96.059   1.654  66.647   1.255   3.219  76.611
 No NMR shielding tensors so no spin-rotation constants.
 Leave Link  601 at Thu Sep 26 10:45:58 2019, MaxMem=   671088640 cpu:              60.6 elap:              30.4
 (Enter /shared/centos7/gaussian/g16/l701.exe)
 SCFChk:  SCF convergence  2.37D-09 required  1.00D-08
 ... and contract with generalized density number  0.
 Compute integral second derivatives.
 Entering OneElI...
 Calculate overlap and kinetic energy integrals
    NBasis = 395  MinDer = 2  MaxDer = 2
 Requested accuracy = 0.1000D-12
 PrmmSu-InSpLW:  IPartL=    0 NPrtUS=   20 NPrtUL=    1 DoSpLW=F IThBeg=    0 IThEnd=   19 NThAct=   20.
 PrsmSu:  NPrtUS=  20 ThrOK=T IAlg=1 NPAlg=1 LenDen=           0 ISkipM=0 DoSpLW=F IThBeg=    0 IThEnd=   19.
 Prism:   IPart=     0 DynPar=F LinDyn=F Incr=           4.
 PRISM was handed    33314673 working-precision words and  8406 shell-pairs
 PRISM was handed    33314673 working-precision words and  8406 shell-pairs
 PRISM was handed    33314673 working-precision words and  8406 shell-pairs
 PRISM was handed    33314673 working-precision words and  8406 shell-pairs
 PRISM was handed    33314673 working-precision words and  8406 shell-pairs
 PRISM was handed    33314673 working-precision words and  8406 shell-pairs
 PRISM was handed    33314673 working-precision words and  8406 shell-pairs
 PRISM was handed    33314673 working-precision words and  8406 shell-pairs
 PRISM was handed    33314673 working-precision words and  8406 shell-pairs
 PRISM was handed    33314673 working-precision words and  8406 shell-pairs
 PRISM was handed    33314673 working-precision words and  8406 shell-pairs
 PRISM was handed    33314673 working-precision words and  8406 shell-pairs
 PRISM was handed    33314673 working-precision words and  8406 shell-pairs
 IPart=  0 NShTot=         466 NBatch=          82 AvBLen=         5.7
 PRISM was handed    33314673 working-precision words and  8406 shell-pairs
 PRISM was handed    33314673 working-precision words and  8406 shell-pairs
 PRISM was handed    33314673 working-precision words and  8406 shell-pairs
 PRISM was handed    33314673 working-precision words and  8406 shell-pairs
 PRISM was handed    33314673 working-precision words and  8406 shell-pairs
 IPart= 19 NShTot=         394 NBatch=          36 AvBLen=        10.9
 IPart=  2 NShTot=         451 NBatch=          72 AvBLen=         6.3
 PRISM was handed    33314673 working-precision words and  8406 shell-pairs
 PRISM was handed    33314673 working-precision words and  8406 shell-pairs
 IPart= 17 NShTot=         396 NBatch=          38 AvBLen=        10.4
 IPart= 14 NShTot=         400 NBatch=          40 AvBLen=        10.0
 IPart=  9 NShTot=         418 NBatch=          51 AvBLen=         8.2
 IPart=  8 NShTot=         422 NBatch=          53 AvBLen=         8.0
 IPart= 12 NShTot=         403 NBatch=          41 AvBLen=         9.8
 IPart=  7 NShTot=         424 NBatch=          54 AvBLen=         7.9
 IPart=  6 NShTot=         432 NBatch=          61 AvBLen=         7.1
 IPart= 13 NShTot=         401 NBatch=          40 AvBLen=        10.0
 IPart=  3 NShTot=         445 NBatch=          68 AvBLen=         6.5
 IPart= 18 NShTot=         394 NBatch=          36 AvBLen=        10.9
 IPart= 11 NShTot=         411 NBatch=          47 AvBLen=         8.7
 IPart= 10 NShTot=         413 NBatch=          48 AvBLen=         8.6
 IPart= 16 NShTot=         398 NBatch=          39 AvBLen=        10.2
 IPart=  4 NShTot=         441 NBatch=          65 AvBLen=         6.8
 IPart=  5 NShTot=         438 NBatch=          62 AvBLen=         7.1
 IPart= 15 NShTot=         399 NBatch=          40 AvBLen=        10.0
 IPart=  1 NShTot=         460 NBatch=          80 AvBLen=         5.8
 PrSmSu:  NxtVal=             81.
 Entering OneElI...
 Calculate potential energy integrals
    NBasis = 395  MinDer = 2  MaxDer = 2
 Requested accuracy = 0.1000D-12
 PrmmSu-InSpLW:  IPartL=    0 NPrtUS=   20 NPrtUL=    1 DoSpLW=F IThBeg=    0 IThEnd=   19 NThAct=   20.
 PrsmSu:  NPrtUS=  20 ThrOK=T IAlg=1 NPAlg=1 LenDen=           0 ISkipM=0 DoSpLW=F IThBeg=    0 IThEnd=   19.
 Prism:   IPart=     0 DynPar=F LinDyn=F Incr=          64.
 PRISM was handed    33357173 working-precision words and  7617 shell-pairs
 PRISM was handed    33357173 working-precision words and  7617 shell-pairs
 PRISM was handed    33357173 working-precision words and  7617 shell-pairs
 PRISM was handed    33357173 working-precision words and  7617 shell-pairs
 PRISM was handed    33357173 working-precision words and  7617 shell-pairs
 PRISM was handed    33357173 working-precision words and  7617 shell-pairs
 PRISM was handed    33357173 working-precision words and  7617 shell-pairs
 PRISM was handed    33357173 working-precision words and  7617 shell-pairs
 PRISM was handed    33357173 working-precision words and  7617 shell-pairs
 PRISM was handed    33357173 working-precision words and  7617 shell-pairs
 PRISM was handed    33357173 working-precision words and  7617 shell-pairs
 PRISM was handed    33357173 working-precision words and  7617 shell-pairs
 PRISM was handed    33357173 working-precision words and  7617 shell-pairs
 PRISM was handed    33357173 working-precision words and  7617 shell-pairs
 PRISM was handed    33357173 working-precision words and  7617 shell-pairs
 PRISM was handed    33357173 working-precision words and  7617 shell-pairs
 PRISM was handed    33357173 working-precision words and  7617 shell-pairs
 PRISM was handed    33357173 working-precision words and  7617 shell-pairs
 PRISM was handed    33357173 working-precision words and  7617 shell-pairs
 PRISM was handed    33357173 working-precision words and  7617 shell-pairs
 IPart=  8 NShTot=        6494 NBatch=         382 AvBLen=        17.0
 IPart= 12 NShTot=        6290 NBatch=         370 AvBLen=        17.0
 IPart= 17 NShTot=        6069 NBatch=         357 AvBLen=        17.0
 IPart=  2 NShTot=        6919 NBatch=         407 AvBLen=        17.0
 IPart= 11 NShTot=        6341 NBatch=         373 AvBLen=        17.0
 IPart= 13 NShTot=        6239 NBatch=         367 AvBLen=        17.0
 IPart=  6 NShTot=        6681 NBatch=         393 AvBLen=        17.0
 IPart=  3 NShTot=        6851 NBatch=         403 AvBLen=        17.0
 IPart= 14 NShTot=        6222 NBatch=         366 AvBLen=        17.0
 IPart= 10 NShTot=        6392 NBatch=         376 AvBLen=        17.0
 IPart= 15 NShTot=        6188 NBatch=         364 AvBLen=        17.0
 IPart=  7 NShTot=        6545 NBatch=         385 AvBLen=        17.0
 IPart=  0 NShTot=        7123 NBatch=         419 AvBLen=        17.0
 IPart= 16 NShTot=        6171 NBatch=         363 AvBLen=        17.0
 IPart=  1 NShTot=        6987 NBatch=         411 AvBLen=        17.0
 IPart= 18 NShTot=        6035 NBatch=         355 AvBLen=        17.0
 IPart= 19 NShTot=        6018 NBatch=         354 AvBLen=        17.0
 IPart=  4 NShTot=        6783 NBatch=         399 AvBLen=        17.0
 IPart=  9 NShTot=        6426 NBatch=         378 AvBLen=        17.0
 IPart=  5 NShTot=        6715 NBatch=         395 AvBLen=        17.0
 PrSmSu:  NxtVal=           1281.
 Polarizability after L701:
                1             2             3 
      1  0.000000D+00
      2  0.000000D+00  0.000000D+00
      3  0.000000D+00  0.000000D+00  0.000000D+00
 Dipole Derivatives after L701:
                 1             2             3             4             5 
      1  -0.221698D+00 -0.470730D-02  0.611820D-02  0.741709D+00  0.343136D+00
      2  -0.229387D-02 -0.193876D+00  0.395223D-01 -0.601357D-01 -0.464009D+00
      3   0.294797D-01  0.539648D-01  0.259205D-02 -0.266000D+00 -0.219347D+00
                 6             7             8             9            10 
      1   0.908438D+00 -0.621485D+00  0.922651D-01  0.958626D+00 -0.113635D+01
      2  -0.187482D+00 -0.278447D-01  0.251443D+00 -0.549792D-01  0.100483D+00
      3  -0.105765D+01  0.162462D+00 -0.798890D-01 -0.418739D+00 -0.498400D-01
                11            12            13            14            15 
      1   0.817931D+00 -0.694120D+00 -0.103178D+01 -0.962263D+00 -0.416971D+00
      2  -0.119061D+01  0.216806D+00 -0.688465D-01 -0.134341D+01 -0.169795D+00
      3   0.563696D-01 -0.100830D+01 -0.119261D-01  0.206805D-01 -0.940361D+00
                16            17            18            19            20 
      1  -0.737740D+00  0.231903D-01 -0.210537D-01 -0.398478D+00 -0.210611D+00
      2   0.580944D-02 -0.803989D-01 -0.159216D+00 -0.696510D-01 -0.317095D-01
      3   0.506572D-03 -0.143558D+00 -0.492587D+00 -0.986517D-01 -0.198900D+00
                21            22            23            24            25 
      1  -0.431709D+00  0.765452D+00 -0.502536D-01 -0.618308D+00 -0.581714D-01
      2  -0.203007D+00 -0.260105D-01  0.178333D+00  0.337056D-01  0.515118D+00
      3  -0.568231D+00 -0.312333D+00  0.335918D-01  0.504817D+00 -0.255729D+00
                26            27            28            29            30 
      1  -0.153195D+00  0.121675D+00  0.746624D+00 -0.666797D+00 -0.422785D+00
      2   0.464497D+00 -0.219861D+00 -0.487273D+00  0.600497D+00  0.305496D+00
      3  -0.182466D+00  0.224550D+00 -0.584452D-02 -0.126174D-01  0.143384D+00
                31            32            33            34            35 
      1   0.445788D+00  0.292822D+00  0.778652D+00  0.856210D-01 -0.120894D-01
      2  -0.880550D-01  0.551569D-01 -0.203428D+00 -0.108428D-01  0.113053D+00
      3   0.259018D+00  0.217518D+00  0.612193D+00 -0.962690D-02 -0.349955D-01
                36            37            38            39            40 
      1   0.581742D+00 -0.746436D-01  0.196445D+00 -0.197359D-01  0.105557D+01
      2   0.423373D+00 -0.573245D+00  0.632590D+00 -0.170708D+00  0.596747D+00
      3   0.660325D+00  0.676000D-01 -0.603190D-01  0.151407D+00 -0.538845D-01
                41            42            43            44            45 
      1   0.426548D+00 -0.337232D+00  0.106007D+00 -0.374805D-01 -0.132523D+00
      2   0.381032D+00 -0.181280D+00  0.578622D-01  0.137984D+00  0.148560D+00
      3   0.753504D-02  0.142538D+00  0.121264D+00  0.140462D+00  0.463875D+00
                46            47            48            49            50 
      1   0.478130D+00  0.307380D+00  0.948434D+00 -0.144555D+00 -0.402321D+00
      2   0.775990D-01  0.162194D+00  0.213389D+00  0.605792D-01  0.327225D+00
      3   0.207857D+00  0.197064D+00  0.694281D+00  0.215648D+00  0.204905D+00
                51 
      1  -0.120925D+01
      2   0.168905D+00
      3   0.885904D+00
 Hessian after L701:
                1             2             3             4             5 
      1  0.418129D+01
      2  0.143282D+00  0.173709D+02
      3  0.912321D+00 -0.124819D+01  0.132451D+02
      4  0.400684D+00 -0.607266D-01 -0.287050D+00  0.720588D+01
      5 -0.436168D-01 -0.213557D+00  0.135126D-01  0.558528D+00  0.139571D+02
      6 -0.238824D+00  0.177219D-01 -0.124480D+00  0.287889D+01 -0.224279D+01
      7 -0.138283D+01  0.931325D+00  0.312455D+01  0.141961D+00 -0.424673D-02
      8  0.906645D+00 -0.912957D+01  0.546108D+00  0.144582D-02 -0.664025D-01
      9  0.298392D+01  0.542363D+00 -0.734379D+01 -0.850940D-02 -0.987118D-03
     10 -0.112753D+00 -0.375410D+00  0.275233D+00  0.117929D+00 -0.416552D-01
     11 -0.273161D+00  0.127584D+00 -0.363501D+00 -0.190839D-01 -0.563209D-01
     12  0.222665D+00 -0.421280D+00  0.174124D+00 -0.195933D-01  0.583481D-03
     13 -0.120269D+00  0.387909D+00  0.699261D-01  0.125992D+00  0.587857D-01
     14  0.260540D+00  0.553172D+00  0.237529D+00  0.145027D-01 -0.626170D-01
     15  0.714347D-01  0.335839D+00 -0.824885D-01 -0.274154D-01 -0.746093D-02
     16 -0.310709D+01 -0.125262D+01 -0.441277D+01  0.317610D+00  0.730001D-01
     17 -0.120030D+01 -0.913733D+01  0.855023D+00  0.381371D-01  0.263456D+00
     18 -0.430184D+01  0.840842D+00 -0.599599D+01  0.391009D-01 -0.152445D+00
     19 -0.777535D-01  0.712205D-01 -0.347113D-01 -0.313838D+01 -0.112371D+01
     20  0.470633D-01  0.172151D+00 -0.936067D-01 -0.116602D+01 -0.818545D+01
     21 -0.764029D-02 -0.991205D-01 -0.220916D-02 -0.444685D+01  0.934249D+00
     22 -0.150843D+00 -0.602266D-03 -0.192734D+00  0.245078D-01  0.711766D-03
     23 -0.160932D-01  0.622772D-01 -0.262255D-02 -0.188378D-02 -0.617499D-02
     24 -0.244475D+00 -0.114551D-01  0.163950D+00 -0.202074D-01 -0.613817D-03
     25 -0.239661D-01  0.242975D-01 -0.358848D-01  0.792106D-04 -0.663590D-02
     26 -0.193220D-01  0.195336D-01 -0.383393D-01 -0.290832D-01 -0.225267D-02
     27  0.178824D-01 -0.298242D-01  0.238130D-02  0.119491D-01 -0.432214D-02
     28  0.629404D-01 -0.860162D-01  0.468434D-01  0.187146D-01 -0.627715D-02
     29 -0.918596D-01  0.214906D-01 -0.398616D-01 -0.148858D-01 -0.160123D-02
     30  0.215497D-01 -0.187726D-01 -0.355143D-01 -0.630795D-02  0.124992D-02
     31  0.440771D-01 -0.180533D-02  0.113514D+00  0.191715D-01 -0.201126D-02
     32 -0.324261D-02 -0.537392D-01 -0.159043D-02  0.237785D-02 -0.574120D-02
     33  0.121651D+00 -0.367040D-02  0.883640D-01  0.173569D-01 -0.643711D-03
     34 -0.845421D-02  0.396618D-01  0.818303D-01  0.167306D-01  0.685530D-02
     35  0.436911D-01 -0.246872D-01  0.667883D-01  0.585756D-02 -0.710219D-02
     36  0.955778D-01  0.782498D-01  0.102918D+00  0.244232D-01  0.672087D-02
     37 -0.451986D-01 -0.907490D-02  0.118911D-01  0.181466D-02  0.603148D-02
     38  0.600999D-01  0.564870D-01  0.843456D-01  0.320836D-01  0.294772D-02
     39  0.273379D-01  0.431070D-01 -0.218781D-01 -0.975263D-02 -0.531573D-02
     40  0.832344D-01  0.979640D-01  0.432605D-01  0.210663D-01  0.819363D-02
     41  0.906108D-01  0.225350D-01  0.331641D-01  0.974905D-02 -0.170268D-02
     42  0.203424D-01  0.174705D-01 -0.375372D-01 -0.560015D-02 -0.159357D-02
     43  0.109690D+00  0.863280D-01  0.328308D+00  0.365763D-01  0.183637D-01
     44  0.834322D-01  0.244849D+00 -0.630681D-01  0.273893D-01 -0.423643D-01
     45  0.307737D+00 -0.598743D-01 -0.861800D-01  0.678569D-01  0.159090D-01
     46  0.147691D+00  0.824921D-02 -0.285508D-01 -0.267600D-02  0.594905D-01
     47  0.290750D-01 -0.783190D-01  0.467199D-03  0.480962D-01  0.545834D-01
     48  0.468683D-01  0.489515D-02 -0.763292D-01  0.163586D+00 -0.377075D-01
     49 -0.455452D-03 -0.397781D-02 -0.159743D-01 -0.530766D+01  0.438190D+00
     50 -0.168415D-01 -0.137919D-01  0.138447D-01  0.553520D+00 -0.562680D+01
     51 -0.565080D-01  0.117023D-01  0.295901D-01  0.162812D+01  0.148165D+01
                6             7             8             9            10 
      6  0.708050D+01
      7 -0.300732D-01  0.150021D+02
      8 -0.260802D-02 -0.702485D+00  0.199378D+02
      9 -0.732142D-01 -0.242322D+01 -0.219146D+00  0.200396D+02
     10  0.196923D-01 -0.548509D+01 -0.102923D+01  0.790099D+00  0.138177D+02
     11 -0.137926D-02 -0.983256D+00 -0.346708D+01 -0.203641D+01  0.104960D+01
     12 -0.695240D-01  0.729154D+00 -0.205236D+01 -0.411974D+01 -0.802725D+00
     13  0.618218D-02 -0.602014D+01  0.879723D+00  0.312525D+00  0.576619D-01
     14 -0.264900D-02  0.835021D+00 -0.260089D+01  0.160567D+01  0.608093D-01
     15 -0.759393D-01  0.277567D+00  0.161174D+01 -0.555093D+01  0.134601D-01
     16  0.871707D-01  0.379257D+00  0.130002D-01 -0.593644D-01  0.470196D-01
     17 -0.142611D+00 -0.881995D-02  0.939506D-01 -0.293240D-01 -0.136929D+00
     18 -0.117952D+00 -0.186206D+00 -0.312088D-01 -0.262363D-01  0.104664D+00
     19 -0.423899D+01  0.237823D+00  0.352954D-01  0.345760D-01  0.225253D+00
     20  0.936877D+00  0.332896D-01 -0.941926D-01 -0.914354D-02 -0.695908D-01
     21 -0.478770D+01  0.110946D-01 -0.862156D-02 -0.133604D+00  0.683064D-01
     22 -0.437047D-02 -0.337631D+01 -0.118259D+00 -0.137340D+01  0.185842D+00
     23  0.165365D-03 -0.105963D+00 -0.451801D+01  0.137722D+00 -0.245750D-02
     24 -0.407928D-02 -0.126630D+01  0.140316D+00 -0.298379D+01 -0.417017D-01
     25 -0.234837D-03  0.106291D+00  0.246583D-01 -0.517338D-02 -0.250061D+01
     26 -0.643273D-02 -0.456380D-01  0.814343D-03  0.658426D-01  0.128348D+01
     27 -0.106353D-01  0.351960D-01  0.550158D-01  0.257674D-01 -0.778652D+00
     28  0.176181D-02  0.587289D-01  0.156684D-01 -0.346434D-01 -0.296702D+01
     29 -0.170222D-02  0.132691D-01 -0.181053D-02  0.480775D-01 -0.101097D+01
     30 -0.607283D-02 -0.454040D-01  0.717442D-01  0.587027D-01 -0.534386D+00
     31  0.836692D-02  0.303536D-01  0.693791D-01 -0.110449D+00 -0.334092D+01
     32  0.119786D-02  0.787079D-01  0.606924D-01  0.126279D+00  0.297629D+00
     33  0.466730D-03 -0.833778D-01  0.881696D-01 -0.357105D-01  0.911712D+00
     34  0.672776D-02  0.106682D+00 -0.444869D-01 -0.530815D-01 -0.240091D-01
     35  0.130164D-02 -0.230271D-01 -0.389329D-01 -0.183814D+00  0.318406D-01
     36  0.134322D-03 -0.232958D-01 -0.147720D+00  0.233289D-01  0.116009D-01
     37 -0.315215D-02  0.100277D+00  0.193976D-02  0.211714D-01 -0.239268D-01
     38 -0.619312D-03  0.827664D-01 -0.720773D-01 -0.149816D-01 -0.710749D-01
     39 -0.127470D-01  0.243599D-01 -0.165783D-01  0.108972D+00  0.134611D-01
     40  0.201039D-02  0.411623D-01 -0.424685D-01 -0.573559D-01 -0.194626D-01
     41  0.949547D-03 -0.663046D-01 -0.216439D-01 -0.571815D-01  0.495497D-01
     42 -0.568390D-02 -0.572493D-01 -0.610011D-01  0.399579D-01 -0.153301D-01
     43  0.388586D-01  0.157317D-01 -0.169851D-01 -0.316489D-01  0.223725D-02
     44  0.147564D-01 -0.381385D-01 -0.623912D-01  0.176490D-01 -0.254884D-01
     45 -0.137132D-01 -0.930951D-01  0.191030D-01 -0.279590D-01 -0.403477D-01
     46  0.201831D+00  0.348616D-01  0.780872D-02  0.220371D-01  0.170435D-01
     47 -0.394923D-01  0.106083D-01 -0.133399D-01  0.639608D-02  0.817381D-03
     48 -0.103400D+00  0.297629D-01  0.603992D-02  0.237566D-02  0.237219D-01
     49  0.126415D+01  0.915100D-02 -0.164979D-02 -0.748030D-02  0.313835D-02
     50  0.146731D+01 -0.710863D-02 -0.689788D-02  0.987652D-03 -0.109244D-01
     51 -0.167595D+01 -0.234644D-01  0.100772D-02 -0.375965D-02 -0.188089D-01
               11            12            13            14            15 
     11  0.131286D+02
     12  0.146499D+01  0.138867D+02
     13 -0.249438D-01  0.146093D-01  0.141509D+02
     14  0.637021D-01  0.955050D-01 -0.100645D+01  0.124520D+02
     15 -0.639933D-01  0.392247D-01 -0.340987D+00 -0.100198D+01  0.149130D+02
     16 -0.895934D-01  0.663541D-01  0.145512D+00  0.118915D+00  0.427773D-01
     17 -0.110672D+00 -0.510979D-01  0.180740D+00 -0.835667D-01  0.110213D-01
     18 -0.602047D-01 -0.189996D+00  0.103019D+00  0.368479D-01 -0.190104D+00
     19 -0.549759D-01  0.507419D-01  0.165277D+00  0.498312D-01  0.262387D-01
     20 -0.817976D-01 -0.141485D-01  0.735434D-01 -0.731052D-01  0.823363D-02
     21 -0.138388D-01 -0.909060D-01  0.419952D-01  0.953930D-02 -0.890032D-01
     22 -0.167749D-01 -0.168922D-01  0.176122D+00  0.960003D-02 -0.160768D-01
     23  0.338995D-01  0.169220D+00 -0.574503D-02 -0.397120D-01 -0.171336D+00
     24  0.185982D+00 -0.689826D-01 -0.403420D-01 -0.178742D+00 -0.104064D-01
     25  0.102125D+01 -0.600817D+00 -0.708940D-02  0.274738D-01 -0.133428D-01
     26 -0.341647D+01 -0.397037D+00  0.260903D-01  0.276723D-01 -0.204305D-01
     27 -0.414200D+00 -0.389060D+01 -0.683762D-02 -0.143953D-01 -0.172439D-01
     28 -0.101983D+01 -0.605741D+00 -0.268968D-01 -0.689378D-01 -0.413321D-02
     29 -0.275687D+01  0.679408D+00 -0.538374D-01  0.139185D+00  0.121830D-01
     30  0.604642D+00 -0.359477D+01 -0.828791D-02  0.181827D-01 -0.475043D-01
     31  0.394035D+00  0.966713D+00 -0.186090D-01 -0.426659D-01  0.385937D-01
     32 -0.367752D+01  0.584082D+00 -0.285686D-01  0.584748D-03 -0.343624D-01
     33  0.734773D+00 -0.199040D+01  0.398219D-01 -0.672501D-01  0.206649D-01
     34  0.176061D-01  0.380329D-02 -0.391139D+01 -0.230401D-01  0.463902D-01
     35  0.396024D-02 -0.725940D-02 -0.244011D-01 -0.398012D+01  0.157731D+00
     36  0.193171D-01 -0.380138D-02 -0.613540D-01 -0.202528D-01 -0.132581D+01
     37 -0.667652D-01  0.128563D-01 -0.288307D+01 -0.111580D+01  0.456628D+00
     38  0.134396D+00 -0.447222D-01 -0.139855D+01 -0.298626D+01 -0.539821D+00
     39 -0.380090D-01 -0.416999D-01  0.464912D+00 -0.448260D+00 -0.395381D+01
     40  0.663293D-01 -0.107586D-01 -0.195135D+01  0.859229D+00 -0.532519D+00
     41  0.104423D+00 -0.262728D-01  0.915150D+00 -0.331998D+01 -0.304400D+00
     42 -0.372195D-01 -0.381468D-01 -0.496295D+00 -0.268171D+00 -0.360064D+01
     43  0.235043D-02 -0.176926D-01  0.101024D+00  0.149551D-01 -0.426673D-01
     44 -0.174115D-01  0.168320D-01  0.107647D-01 -0.780489D-01  0.171421D-02
     45  0.157920D-01 -0.128316D-02 -0.962654D-01 -0.624111D-02 -0.282658D-01
     46  0.652203D-03  0.870933D-02  0.136727D-01  0.368438D-02  0.652718D-02
     47 -0.713252D-02 -0.421664D-03  0.121269D-01 -0.691924D-02  0.352605D-02
     48  0.348635D-02 -0.274264D-02  0.201700D-01  0.293409D-03 -0.364283D-02
     49 -0.344746D-02 -0.138707D-02  0.265392D-02  0.233268D-02 -0.247577D-02
     50 -0.526797D-02  0.398047D-02 -0.233339D-02 -0.512834D-02  0.179383D-02
     51 -0.227821D-03  0.253583D-02 -0.227915D-01  0.437276D-02  0.284859D-02
               16            17            18            19            20 
     16  0.825509D+01
     17 -0.822423D-01  0.271869D+02
     18  0.229945D+01 -0.292864D+01  0.188708D+02
     19 -0.147120D+01  0.122670D+01  0.196333D+01  0.809417D+01
     20  0.121788D+01 -0.141499D+02  0.157456D+01 -0.295959D+00  0.264049D+02
     21  0.192722D+01  0.156641D+01 -0.101577D+02  0.175154D+01 -0.304246D+01
     22  0.171083D+00 -0.189390D-01 -0.113731D+00  0.386602D-01 -0.502719D-03
     23 -0.152722D-01 -0.564971D-01  0.626276D-02 -0.183881D-02 -0.964111D-02
     24 -0.125339D+00  0.761174D-02 -0.457285D-05 -0.231278D-01  0.572443D-03
     25 -0.730666D-01 -0.233542D-01  0.177716D-01  0.365205D-01 -0.306886D-01
     26 -0.734136D-01  0.244291D-01 -0.620626D-01 -0.644537D-01  0.951770D-05
     27  0.437299D-01 -0.593213D-01 -0.422947D-01  0.477035D-01 -0.218381D-01
     28  0.330119D-01 -0.246544D-01 -0.163146D-02  0.213526D-01 -0.945837D-02
     29 -0.283554D-01  0.327620D-03  0.117576D-02 -0.163137D-01 -0.747927D-03
     30 -0.329512D-02  0.339344D-02 -0.147987D-01 -0.419916D-02  0.132694D-02
     31  0.196197D-01 -0.938851D-02  0.190555D-01  0.959218D-02 -0.249578D-02
     32 -0.287054D-02 -0.958647D-02  0.849731D-03  0.274607D-02 -0.554479D-02
     33  0.240789D-01 -0.658523D-02  0.155659D-02  0.172057D-01 -0.226306D-02
     34 -0.445994D-02  0.149111D-01  0.125207D-01  0.110920D-01  0.852368D-02
     35  0.740609D-02 -0.231606D-02  0.688580D-02  0.906240D-02 -0.492888D-02
     36  0.227541D-01  0.192997D-01  0.869736D-02  0.271331D-01  0.877082D-02
     37 -0.522997D-01  0.194808D-01  0.451704D-02  0.900922D-02  0.234638D-01
     38  0.667469D-01  0.582672D-01  0.186543D-02  0.569730D-01  0.187589D-01
     39 -0.466070D-02 -0.118659D-01 -0.552776D-01 -0.161164D-02 -0.175152D-02
     40  0.510964D-01  0.334634D-01 -0.387935D-02  0.226259D-01  0.873265D-02
     41  0.357796D-01 -0.202787D-02 -0.351581D-02  0.117426D-01 -0.200970D-02
     42 -0.429952D-02 -0.369425D-02 -0.197543D-01 -0.304333D-02 -0.403798D-03
     43 -0.456706D+01  0.113343D+00  0.312741D+00 -0.144473D+00 -0.124319D+00
     44  0.151734D+00 -0.432063D+01  0.897255D+00 -0.119807D+00  0.944718D-01
     45  0.429032D+00  0.903574D+00 -0.203306D+01 -0.264124D+00 -0.980858D-01
     46 -0.131151D+00 -0.152817D+00 -0.374172D+00 -0.420665D+01  0.271089D+00
     47 -0.142570D+00  0.235039D+00 -0.103564D+00  0.241234D+00 -0.418764D+01
     48 -0.348070D+00 -0.105978D+00  0.400175D-01  0.737754D+00  0.780024D+00
     49 -0.129760D-01  0.306712D-01  0.105290D+00  0.167079D+00  0.154492D-01
     50  0.247544D-02  0.102126D-01 -0.249118D-01 -0.277504D-01  0.104695D+00
     51  0.152285D-01 -0.272160D-01 -0.779677D-01 -0.864205D-01 -0.266650D-01
               21            22            23            24            25 
     21  0.174022D+02
     22 -0.628183D-02  0.289392D+01
     23  0.466449D-03  0.170132D+00  0.465258D+01
     24 -0.493476D-02  0.184861D+01 -0.152999D+00  0.271689D+01
     25  0.255820D-01  0.643410D-02  0.201372D-01 -0.355192D-01  0.274412D+01
     26 -0.241345D-01  0.313855D-01  0.661259D-02 -0.427859D-01 -0.962168D+00
     27 -0.129219D-01 -0.373316D-01 -0.302306D-01  0.325233D-01  0.659897D+00
     28  0.863143D-03  0.308412D-01  0.171185D-01 -0.115467D-01 -0.148666D+00
     29 -0.720727D-03  0.154973D-01 -0.484189D-01  0.639726D-01  0.256619D-01
     30 -0.592280D-02 -0.794817D-02  0.641658D-01 -0.157797D-01  0.104378D+00
     31  0.693274D-02 -0.234380D-01 -0.209213D-02  0.124456D-01 -0.125968D+00
     32  0.729624D-03 -0.442536D-03 -0.161085D-01 -0.199107D-01 -0.154635D+00
     33  0.142790D-03 -0.100838D-01 -0.184330D-01  0.800533D-01 -0.125504D+00
     34  0.907933D-02 -0.231744D-01 -0.824965D-02 -0.183892D-01 -0.537357D-02
     35  0.359910D-02 -0.190811D-01 -0.140443D-02  0.607179D-01  0.108428D-01
     36  0.253859D-02 -0.399477D-01  0.561570D-01  0.918598D-01  0.781966D-02
     37  0.127402D-02  0.872323D-02 -0.152947D-01 -0.136170D-01 -0.326614D-02
     38  0.230388D-02 -0.240578D-01  0.172148D-01  0.200117D-01  0.516256D-02
     39 -0.212139D-01 -0.745240D-02  0.100973D-01 -0.173859D-02 -0.821805D-03
     40 -0.107802D-03  0.355936D-01 -0.324949D-01 -0.179661D-01  0.425239D-02
     41  0.467100D-03 -0.260817D-01 -0.737402D-01 -0.756689D-01  0.336374D-02
     42 -0.539922D-02 -0.142013D-01 -0.701180D-01 -0.168106D-02 -0.199569D-02
     43 -0.270132D+00 -0.197482D-02  0.710455D-04  0.445046D-03 -0.105784D-01
     44 -0.927674D-01 -0.266507D-02 -0.138898D-02  0.267742D-02  0.165810D-01
     45 -0.546858D-01 -0.771617D-02  0.102283D-02  0.614490D-02  0.247416D-02
     46  0.835340D+00  0.405806D-02 -0.348752D-04 -0.292632D-02 -0.209022D-03
     47  0.784388D+00  0.206960D-02 -0.106431D-02 -0.129366D-02 -0.153007D-02
     48 -0.205474D+01  0.601485D-02 -0.778145D-04 -0.464295D-02 -0.151798D-03
     49  0.517748D-01 -0.385030D-04 -0.394063D-04 -0.478220D-04  0.109742D-02
     50 -0.204814D-01 -0.199006D-02 -0.415335D-03  0.160814D-02 -0.417530D-03
     51  0.160611D-01 -0.645990D-02  0.538004D-03  0.461818D-02  0.152358D-02
               26            27            28            29            30 
     26  0.317863D+01
     27  0.608063D+00  0.378065D+01
     28  0.329005D-01  0.130745D+00  0.278798D+01
     29  0.111167D+00 -0.861212D-02  0.115539D+01  0.253686D+01
     30 -0.939795D-02  0.367833D-01  0.454842D+00 -0.589173D+00  0.373237D+01
     31 -0.197545D+00 -0.128670D+00  0.128505D+00  0.126271D-01  0.322362D-01
[...]
   zy        -0.262891D+01     -0.389564D+00     -0.433449D+00
   zz         0.691567D+02      0.102480D+02      0.114024D+02

 ----------------------------------------------------------------------

 Test job not archived.
 1\1\GINC-C0235\Freq\RM062X\CC-pVTZ\C5H10O2\HARMS.N\26-Sep-2019\0\\#P G
 eom=AllCheck Guess=TCheck SCRF=Check Test GenChk RM062X/CC-pVTZ Freq\\
 Gaussian input prepared by ASE\\0,1\O,-0.0167921158,-1.3866641668,-0.2
 091758084\O,3.2633047274,-1.2809428123,1.3367859709\C,-0.6004417966,-0
 .3521655718,-1.0131822202\C,0.3939363701,0.168476715,-2.0353686705\C,-
 1.1930873741,0.7613044902,-0.1644695586\C,0.9938870073,-1.0017440807,0
 .629276888\C,2.2126706111,-1.5073123758,0.5018223528\H,-1.4091647189,-
 0.8710657791,-1.5280392205\H,1.2167447818,0.6863909622,-1.5416621437\H
 ,0.8049005213,-0.6543700455,-2.6190072387\H,-0.0951142079,0.868285868,
 -2.7129675621\H,-0.4122577943,1.3675473262,0.2963748646\H,-1.828847625
 6,0.3488210068,0.6184234686\H,-1.7959558145,1.4196601578,-0.7892390073
 \H,0.735943493,-0.3251899239,1.4413731761\H,2.4579270051,-2.1855185886
 ,-0.3033322812\H,2.9879234431,-0.6957016499,2.0486374884\\Version=EM64
 L-G16RevA.03\State=1-A\HF=-346.9397254\RMSD=4.828e-09\RMSF=4.251e-07\Z
 eroPoint=0.1470574\Thermal=0.1556059\Dipole=-0.3207364,0.7776926,0.056
 1142\DipoleDeriv=-1.0884518,0.295418,-0.3796275,0.0406848,-0.5298721,0
 .0438282,-0.4998618,0.2133856,-0.8138898,-1.0996727,0.1024311,-0.43697
 64,-0.2522923,-0.2945494,-0.0746346,-0.7624051,0.128628,-0.6885121,0.5
 857119,-0.217481,0.0802956,-0.3610481,0.6167526,-0.2732719,0.0994358,-
 0.1956951,0.6160991,-0.049791,-0.0437614,0.0967127,0.046722,-0.0182602
 ,0.0632615,0.0470361,0.0695208,-0.0770935,-0.0026738,0.0864967,0.03148
 57,0.1077289,-0.0777733,-0.0019731,0.0422019,-0.0721019,-0.0372741,0.4
 707327,-0.1476664,0.2356694,0.3089286,-0.1651298,0.4048743,0.491072,0.
 0582423,0.3647226,0.9743941,-0.1766675,0.4316514,0.1150488,0.0358574,0
 .1891949,0.6644772,0.0738534,0.3956963,-0.0929675,-0.0367632,-0.058308
 6,-0.0488311,-0.0383011,-0.0344794,-0.0658153,-0.0175853,-0.0333936,-0
 .0312963,-0.0561242,-0.0160652,-0.0648581,0.0371329,-0.0451691,-0.0603
 648,-0.0616435,0.0094734,0.0120547,0.0370872,0.0671501,0.0483755,-0.03
 60335,-0.0904876,0.0550187,-0.0495244,0.0119609,0.0279107,0.0685593,-0
 .0660128,0.0593551,-0.0091279,0.0941948,-0.0490123,0.0773943,-0.012946
 7,-0.04736,-0.0880725,-0.0600523,-0.0584682,0.0206216,-0.0500254,-0.02
 0102,-0.0522987,0.0194195,0.0124378,-0.0234437,0.0810931,-0.0502521,0.
 0273563,0.0411749,0.0968101,0.0114583,-0.0490587,0.0065279,0.0701011,-
 0.0492117,0.075836,-0.0019714,0.0528698,-0.075452,0.0776778,-0.0003025
 ,0.005553,0.042547,-0.0265241,-0.0488337,0.0866931,-0.1749018,-0.02215
 9,-0.1162654,-0.0370388,0.0659092,0.0147514,-0.0218955,0.0057569,0.098
 3173,-0.0947006,-0.0252321,-0.0845564,0.0322417,0.2509809,0.0725882,0.
 0906162,0.076147,0.2482877,-0.0497548,0.0843526,-0.0604898,0.2998962\P
 olar=78.2430083,-10.5480876,59.3347837,6.7773408,-0.0474501,66.4864515
 \Quadrupole=-2.1012209,-1.3353886,3.4366095,-0.1098555,1.0918155,1.920
 2157\PG=C01 [X(C5H10O2)]\NImag=0\\0.33679480,0.00035660,0.29282625,0.2
 0917297,-0.02932882,0.29741737,-0.01409668,0.00579806,-0.00856214,0.36
 960230,0.00412689,0.00801192,-0.00619399,-0.07783627,0.25518586,-0.013
 47152,-0.00653415,-0.00006935,0.05249632,0.28811666,0.47198831,-0.0844
 2102,0.01777834,-0.02691368,0.00235497,-0.00043079,0.00486005,0.571644
 03,0.03299234,-0.15466600,0.05134485,-0.00583279,-0.00052665,-0.003152
 62,0.07056741,0.50220012,-0.03390204,0.03901766,-0.10096233,0.00244222
 ,-0.00077010,0.00222940,0.04174317,0.05819828,0.51181776,0.01022326,0.
 01058072,-0.01605414,-0.00063796,-0.00051041,-0.00018442,-0.14574053,-
 0.03223169,0.05821210,0.54151868,-0.00783618,-0.01946255,0.03072782,0.
 00128422,-0.00004934,0.00105147,-0.02836346,-0.08807551,0.01845535,-0.
 02838108,0.57588562,0.00714431,0.02106143,-0.02465079,-0.00049024,-0.0
 0025625,-0.00054702,0.05109259,0.01794291,-0.12740346,0.04210093,0.024
 07249,0.53721070,-0.01024288,0.02170715,0.00253781,-0.00029069,-0.0000
 8957,-0.00024158,-0.09658482,0.02318356,0.02282911,-0.01085148,0.01623
 059,0.01921273,0.56367779,0.01997839,-0.02989384,-0.00382341,0.0006419
 2,-0.00005284,0.00045318,0.02636953,-0.13703876,-0.05333861,-0.0040061
 5,0.01077132,0.00271083,0.03044873,0.53003571,-0.01336791,0.02365472,0
 .00863828,-0.00083995,-0.00014076,-0.00055930,0.02754904,-0.05870454,-
 0.12697271,0.01221649,-0.01956113,-0.01675769,0.01851744,-0.04564582,0
 .55790106,-0.19330782,-0.03760065,-0.11474020,-0.03285599,0.00619317,-
 0.00653715,-0.03258760,0.00894267,-0.02568392,0.00515357,-0.00201508,0
 .00326450,0.00089499,-0.00067108,0.00171396,0.80186078,-0.05438784,-0.
 10353621,-0.05997439,-0.00771801,0.01132399,0.00431214,0.01723610,0.01
 549054,0.01081582,0.00176397,-0.00276275,0.00236149,0.00288491,-0.0010
 6245,0.00311377,-0.21010401,0.38410291,-0.10441162,-0.04586034,-0.1461
 6299,-0.03248101,0.01178614,0.00365628,-0.02650491,0.00464646,-0.02792
 942,0.00074555,-0.00075280,-0.00029830,0.00303991,0.00075891,0.0044535
 9,0.04437742,0.22612512,0.45906524,-0.03627641,0.00581585,-0.01017262,
 -0.24231020,-0.02309337,-0.13568371,-0.00052914,-0.00226131,0.00393009
 ,0.00045715,-0.00147141,0.00029218,-0.00008510,-0.00058920,-0.00000714
 ,-0.47112879,0.17906466,0.04819848,0.81650992,-0.01679774,0.00837524,0
 .00160794,0.00104000,-0.07288396,-0.04665869,-0.00052865,-0.00212272,0
 .00066805,0.00026072,0.00049020,0.00012063,-0.00003741,-0.00026623,-0.
 00006032,0.18246871,-0.15738651,-0.05710705,-0.21415328,0.39453114,-0.
 02510450,0.01373050,0.00235848,-0.09655194,-0.05963505,-0.17194417,-0.
 00663906,-0.00036512,-0.00115911,0.00045694,0.00028893,0.00092216,-0.0
 0006817,-0.00049983,-0.00014472,0.04411886,-0.05914492,-0.10780098,0.0
 3628814,0.26560980,0.51257666,-0.01531420,-0.00081537,-0.01486088,-0.0
 0073885,-0.00018277,-0.00024385,-0.19178961,-0.09497236,-0.08799345,-0
 .01702182,-0.01233721,-0.00806803,0.01078585,0.00758570,0.00740393,0.0
 0069633,0.00308920,0.00047851,0.00033584,-0.00025158,-0.00036643,0.212
 85808,0.02581179,0.00662437,0.02112871,0.00082938,0.00011165,0.0000781
 6,-0.10322659,-0.11264175,-0.06712410,-0.00860517,-0.00488937,-0.00463
 089,-0.01687641,-0.01360435,-0.01244033,0.00245144,-0.00273885,0.00191
 281,0.00002367,0.00052468,0.00077640,0.09742112,0.12742091,-0.02256763
 ,-0.00220778,-0.01744033,-0.00093740,-0.00020528,-0.00023312,-0.085409
 58,-0.05992375,-0.10427953,0.01926929,0.01192018,0.01075133,-0.0131228
 8,-0.01211099,-0.00922036,-0.00059608,0.00356642,0.00022408,0.00011217
 ,-0.00032756,-0.00052825,0.09943676,0.05988314,0.12231603,0.00096724,0
 .00078790,0.00002307,-0.00017461,-0.00006128,-0.00015460,-0.01997288,-
 0.01110636,-0.01140271,-0.19757057,-0.09545422,-0.09185202,0.00084014,
 -0.00046520,-0.00133470,0.00005348,0.00075445,-0.00074586,0.00069281,0
 .00029214,-0.00014142,-0.00172084,-0.00107222,0.00372463,0.21631276,0.
 00112832,0.00055989,0.00008110,-0.00020556,-0.00009684,-0.00020527,-0.
 01019596,-0.00695554,-0.00584590,-0.09489391,-0.10727845,-0.05957928,0
 .00138076,0.00028744,0.00015821,-0.00099686,0.00022508,-0.00022092,0.0
 0105158,-0.00007055,0.00013032,-0.00122818,0.00015754,0.00197371,0.106
 28716,0.11287069,-0.00145817,-0.00151407,0.00130586,0.00014525,0.00014
 965,0.00003650,0.01940713,0.01076710,0.01189306,-0.09291750,-0.0603661
 5,-0.10434665,-0.00024064,0.00100532,0.00170941,-0.00053486,0.00084642
 ,-0.00105617,-0.00031650,0.00027343,-0.00092093,0.00327277,0.00186662,
 -0.00287876,0.09987272,0.06430201,0.11181551,0.00115788,-0.00028482,-0
 .00234208,-0.00004360,-0.00001085,-0.00001917,-0.00954013,0.01932697,0
 .01133838,-0.08424642,0.07479338,0.05263944,-0.00239203,-0.00303896,0.
 00296019,0.00027877,-0.00003072,0.00056328,-0.00002491,0.00000483,0.00
 022319,0.00039594,0.00037375,-0.00069693,0.01044757,-0.01908379,-0.012
 83790,0.08981064,-0.00052088,0.00128630,-0.00112802,-0.00026558,-0.000
 03191,-0.00013814,-0.00458329,0.00910625,0.00779607,0.07680359,-0.2053
 0898,-0.11144975,-0.00111940,-0.00034967,0.00175607,0.00021121,0.00023
 854,0.00002857,0.00030747,-0.00003962,0.00001231,0.00061451,0.00067797
 ,-0.00053326,0.00600346,-0.01110757,-0.00639132,-0.08281851,0.21938400
 ,-0.00116723,-0.00040746,0.00231133,-0.00004023,0.00004775,0.00014310,
 0.00803514,-0.01838648,-0.01322004,0.05241517,-0.10966275,-0.12333962,
 0.00292357,0.00303812,-0.00269804,-0.00035165,-0.00001058,-0.00034494,
 0.00015040,-0.00019805,-0.00027950,-0.00043643,0.00041406,0.00081719,0
 .00609764,-0.01048421,-0.00807479,-0.06095270,0.12043248,0.13215194,-0
 .00116156,-0.00387882,0.00583466,0.00014300,0.00005922,0.00001516,0.01
 123373,-0.01270518,0.01182392,-0.10237627,0.07972462,-0.07634091,0.000
 16978,0.00035146,-0.00032900,-0.00160899,0.00005049,-0.00103982,0.0005
 1288,0.00008875,-0.00026220,0.00064659,0.00010728,-0.00107318,-0.01030
 083,0.01659321,-0.01367683,-0.00592269,0.00592797,-0.00752268,0.108630
 08,-0.00161971,-0.00075356,0.00381468,0.00024788,0.00010643,0.00024374
 ,0.00706684,-0.00816184,0.00469463,0.07859797,-0.15684542,0.10799402,0
 .00048941,0.00009957,-0.00039426,-0.00138813,0.00007707,-0.00125239,0.
 00019674,-0.00016294,-0.00044859,-0.00013665,-0.00002044,-0.00041654,-
 0.00662811,0.01118944,-0.01044823,0.00977645,-0.01447479,0.01583380,-0
 .08623880,0.16843364,0.00184297,0.00318949,-0.00473490,-0.00046856,-0.
 00003336,-0.00033529,-0.01383462,0.01113004,-0.01170370,-0.07480622,0.
 10714404,-0.15069794,-0.00053282,-0.00029694,0.00064231,0.00165485,0.0
 0081287,0.00135271,0.00039289,-0.00021035,0.00020261,0.00018680,-0.000
 03092,0.00080362,-0.00534343,0.00934256,-0.00931861,0.00810551,-0.0110
 9265,0.01245668,0.08212016,-0.11941763,0.16146878,0.00065279,-0.001392
 12,-0.00016714,0.00015019,0.00008706,0.00010692,0.01073107,0.00680430,
 0.00628263,0.00153377,0.00051138,-0.00003884,-0.18729922,-0.10707869,-
 0.07999025,-0.00094995,-0.00010392,-0.00209123,-0.00005929,0.00023698,
 0.00026938,-0.00014357,0.00236797,0.00196669,-0.00001632,-0.00008064,-
 0.00038024,0.00015705,-0.00000520,-0.00009485,-0.00001123,-0.00013065,
 -0.00005070,0.20203576,0.00076198,0.00120324,0.00118690,-0.00030752,-0
 .00004658,-0.00032159,-0.02050140,-0.01412600,-0.01213822,-0.00061891,
 0.00073403,0.00157244,-0.10628335,-0.12702266,-0.06101364,-0.00049589,
 -0.00036494,-0.00062758,0.00079289,0.00026887,0.00066719,0.00268071,-0
 .00271477,-0.00260144,0.00066652,0.00057592,-0.00032594,0.00013738,0.0
 0004746,0.00034727,0.00013244,-0.00003765,0.00005266,0.11542661,0.1373
 8903,0.00043087,0.00044131,0.00076619,0.00011602,0.00003756,-0.0000088
 1,-0.01554103,-0.00996912,-0.01066261,-0.00144912,0.00011056,0.0007776
 9,-0.07924207,-0.06096387,-0.09393246,-0.00030061,0.00056002,-0.000143
 88,0.00011944,0.00006202,0.00006423,0.00231735,-0.00293945,-0.00129275
 ,0.00077233,0.00007727,-0.00010708,0.00018664,0.00026930,0.00030053,-0
 .00005599,-0.00001080,-0.00014398,0.08901176,0.06945519,0.10101909,0.0
 0120213,-0.00092628,-0.00098120,0.00012829,0.00001545,0.00005109,-0.00
 892854,-0.00523761,0.00911839,-0.00026891,0.00316711,0.00139177,-0.139
 26298,-0.06206310,0.11186231,-0.00050041,0.00027084,0.00017892,-0.0000
 3454,-0.00011846,-0.00032331,0.00045723,0.00034970,-0.00038098,0.00048
 941,0.00008296,-0.00023649,-0.00023827,-0.00033322,0.00088343,0.000121
 64,-0.00024240,0.00007737,-0.01279703,-0.00786923,0.01711540,0.1480195
 4,-0.00209227,0.00213629,0.00042445,-0.00019598,0.00000680,-0.00018255
 ,0.01612661,0.01040723,-0.01885658,0.00176637,-0.00400481,-0.00211552,
 -0.06309449,-0.08806380,0.07574054,0.00059805,0.00031683,0.00053522,0.
 00011185,-0.00007284,0.00001829,-0.00058924,0.00089414,0.00065960,0.00
 017579,-0.00007749,0.00003638,0.00108294,0.00054811,-0.00108479,-0.000
 19785,-0.00000534,-0.00011278,-0.00823197,-0.00701114,0.01280097,0.066
 53221,0.09244525,-0.00170020,0.00049779,0.00194658,0.00003493,0.000021
 05,0.00004201,0.01025900,0.00966568,-0.01474589,0.00068244,-0.00405156
 ,-0.00127311,0.11220577,0.07356880,-0.18542559,0.00040749,-0.00006070,
 0.00047550,-0.00010699,-0.00004993,-0.00006180,-0.00042856,0.00019169,
 0.00012649,0.00013006,0.00006236,0.00007353,0.00113447,0.00041571,-0.0
 0053956,-0.00026272,-0.00014022,0.00037231,-0.00850419,-0.00556520,0.0
 1147428,-0.12490644,-0.08012735,0.20028020,-0.00071190,0.00222581,0.00
 083357,-0.00028871,-0.00001295,-0.00026819,-0.00761110,0.00454111,-0.0
 0895034,0.00009864,-0.00029804,-0.00040018,-0.12959705,0.09105376,-0.0
 8631821,0.00076030,0.00030416,0.00035585,0.00027344,0.00007566,0.00029
 376,0.00064515,-0.00018321,0.00019205,-0.00001406,0.00014397,-0.000029
 37,0.00022446,-0.00019822,0.00016003,-0.00013878,-0.00000751,0.0007634
 5,-0.01300841,0.01471514,-0.01289119,0.01205411,-0.01202451,0.01074729
 ,0.13736485,0.00470314,-0.00552989,-0.00211367,0.00040585,0.00008197,0
 .00025973,0.01140628,-0.01261049,0.01735292,-0.00041666,0.00051992,0.0
 0038014,0.09092784,-0.14314418,0.09358486,-0.00207221,-0.00063800,-0.0
 0238950,0.00015986,0.00014534,0.00018165,-0.00084767,0.00036880,0.0003
 2856,-0.00007679,-0.00002017,-0.00007114,-0.00031455,0.00002373,-0.000
 15372,0.00015398,0.00044253,-0.00040319,-0.01003744,0.01192563,-0.0109
 2625,0.00660119,-0.00745087,0.00570999,-0.10018818,0.15551466,0.002773
 87,-0.00490598,-0.00008044,0.00000636,0.00001216,-0.00006117,0.0102763
 9,-0.00933248,0.01119464,-0.00017960,0.00051232,-0.00007675,-0.0873877
 8,0.09532598,-0.13777931,-0.00072188,-0.00054252,-0.00134707,0.0003078
 3,0.00020880,0.00045801,-0.00055674,0.00053460,0.00086844,0.00004200,0
 .00003018,-0.00003064,-0.00022661,0.00000232,0.00021087,0.00049067,-0.
 00022676,-0.00030300,-0.00622162,0.00802596,-0.00816998,-0.01378445,0.
 01228078,-0.01256727,0.09514892,-0.10216220,0.14724221,0.00248428,-0.0
 1833879,-0.02647900,0.00239646,-0.00130329,0.00200373,0.00203164,-0.00
 287072,0.00087492,-0.00035192,0.00044273,-0.00019622,0.00021566,0.0015
 0212,-0.00008021,-0.07653700,0.05110882,0.05232428,-0.00206513,0.01818
 435,0.02155193,-0.00014212,0.00027966,-0.00000691,-0.00001909,0.000011
 79,0.00003018,-0.00010229,-0.00006216,0.00007538,0.00006923,0.00012174
 ,-0.00014501,-0.00090228,0.00082471,-0.00052104,-0.00044860,0.00002417
 ,0.00030552,-0.00006087,-0.00031233,0.00007713,0.07794608,-0.00562106,
 -0.00292535,-0.01268546,-0.00248223,-0.00250836,0.00246053,0.00071120,
 -0.00126334,0.00117870,-0.00034167,0.00027623,-0.00020414,0.00018824,-
 0.00072035,-0.00008987,0.05263483,-0.14464151,-0.12762270,0.00176785,-
 0.00153432,-0.01144668,-0.00013225,0.00005105,-0.00021923,-0.00008282,
 -0.00004185,0.00002462,-0.00007064,-0.00006298,0.00004070,0.00005778,0
 .00011987,-0.00014201,0.00167848,-0.00078191,0.00107257,-0.00014523,-0
 .00005748,-0.00017087,-0.00012348,0.00042398,0.00025560,-0.05247141,0.
 14918721,-0.00714920,-0.01427869,-0.01943944,0.00211754,0.00378510,0.0
 0170127,0.00217639,-0.00422729,0.00209745,-0.00037955,0.00033563,-0.00
 027772,-0.00033496,-0.00000476,0.00018592,0.05349040,-0.12982829,-0.19
 013312,-0.00296832,-0.00440396,-0.00124187,-0.00019316,0.00041790,-0.0
 0007546,0.00023183,0.00008340,-0.00013522,-0.00004096,0.00000223,0.000
 19724,0.00018640,0.00016491,-0.00011248,-0.00015088,0.00117898,0.00001
 877,-0.00011204,-0.00004462,-0.00014028,0.00030436,0.00037787,0.000401
 14,-0.04730945,0.15070169,0.20398868,0.00259366,-0.00206624,0.00132018
 ,0.00498819,-0.01968579,-0.02571469,-0.00030365,0.00040131,-0.00018665
 ,0.00003669,0.00006522,0.00021250,0.00002947,0.00016558,0.00002209,-0.
 00038957,0.01813479,0.02015846,-0.07439516,0.05351536,0.05714990,0.000
 00222,0.00001699,0.00000457,-0.00002096,-0.00002708,-0.00007110,0.0000
 5591,0.00001881,-0.00017089,-0.00002231,-0.00008975,-0.00000045,-0.000
 12672,-0.00014668,-0.00003153,0.00008012,0.00000526,0.00001099,-0.0000
 3776,-0.00009095,-0.00010068,-0.00389546,0.00322457,-0.00139630,0.0747
 2849,-0.00214189,-0.00291915,0.00446560,-0.00120590,-0.00129735,-0.004
 87563,0.00072882,0.00041826,-0.00006686,0.00009249,0.00008543,-0.00005
 237,-0.00004172,0.00001120,-0.00006097,0.00056711,-0.00038758,-0.01331
 913,0.05139392,-0.16277964,-0.14103155,0.00003592,-0.00011654,0.000128
 23,-0.00001629,-0.00023685,-0.00017418,0.00018503,0.00005412,0.0002473
 1,-0.00020833,0.00000816,0.00003200,-0.00005027,-0.00002374,-0.0000762
 6,-0.00005873,-0.00001887,0.00004057,-0.00003198,-0.00000643,-0.000006
 80,0.00332427,0.00451846,-0.00357139,-0.05254760,0.16010539,0.00072854
 ,0.00317323,-0.00203515,-0.00078709,-0.01444845,-0.01886342,-0.0001299
 5,-0.00027861,0.00015990,-0.00009193,0.00000723,0.00001249,-0.00009667
 ,-0.00003528,-0.00008662,-0.00102201,-0.00459837,0.00313203,0.05313760
 ,-0.13838318,-0.20518821,-0.00005081,0.00003994,-0.00004742,0.00008142
 ,0.00000085,0.00009824,-0.00006145,-0.00000924,-0.00009904,0.00006892,
 0.00002884,-0.00002935,0.00009738,0.00003400,0.00003236,0.00003486,-0.
 00001246,-0.00003054,0.00000886,0.00007958,0.00002717,-0.00145818,-0.0
 0339803,0.00319649,-0.04696389,0.15879191,0.21938138,-0.00054358,0.000
 25264,0.00155082,-0.08832613,0.11273552,0.12298561,0.00001357,0.000458
 35,-0.00047583,0.00004410,-0.00006257,0.00003550,-0.00000744,-0.000184
 81,0.00002193,0.00016791,-0.00231788,-0.00314619,0.00812664,-0.0242803
 9,-0.03089508,0.00004777,-0.00006916,0.00008542,0.00000674,0.00003225,
 -0.00002844,-0.00001790,0.00001943,-0.00000411,0.00001571,-0.00001534,
 0.00003780,0.00005338,0.00008460,-0.00003722,-0.00007320,0.00000306,-0
 .00000889,0.00004770,-0.00000134,0.00005617,-0.00061860,0.00120784,0.0
 0152790,-0.00332318,-0.00002485,-0.00349559,0.08438651,0.00115812,-0.0
 0133694,0.00046572,0.08580253,-0.19733481,-0.23490694,-0.00016099,0.00
 056617,-0.00003711,0.00013982,-0.00008557,0.00007180,0.00010117,0.0000
 1390,0.00010348,0.00127670,0.00174383,0.00335918,0.00088223,-0.0070161
 5,-0.00884364,0.00006612,-0.00010504,0.00008600,-0.00000415,0.00001931
 ,0.00001950,-0.00002789,0.00000905,-0.00001345,-0.00001821,-0.00001474
 ,0.00003618,-0.00000186,-0.00001479,-0.00000102,-0.00002521,0.00000800
 ,-0.00000781,0.00000847,-0.00004654,-0.00001192,-0.00046568,-0.0000393
 5,-0.00068870,-0.00089380,0.00258511,-0.00099196,-0.08783735,0.2010485
 5,0.00220648,0.00027117,0.00083163,0.08379992,-0.22227283,-0.28717521,
 -0.00042605,0.00064469,-0.00035340,-0.00003644,-0.00023163,-0.00000533
 ,0.00000123,-0.00014160,0.00004622,0.00146087,0.00164571,0.00285745,0.
 00632606,-0.02115158,-0.02731260,0.00010222,-0.00007832,0.00008880,-0.
 00000096,0.00009360,-0.00006326,0.00002673,0.00002732,0.00000665,0.000
 02343,-0.00001920,0.00008022,-0.00004484,0.00007303,0.00000842,0.00001
 137,0.00004043,-0.00000687,0.00004933,-0.00003563,0.00001317,-0.001047
 06,0.00024460,-0.00023137,-0.00424249,-0.00047048,0.00033970,-0.088209
 79,0.24136071,0.31087579\\-0.00000048,0.00000029,0.00000015,-0.0000001
 9,-0.00000090,0.,0.00000005,-0.00000004,0.00000034,0.00000014,-0.00000
 012,-0.00000008,0.00000066,0.00000081,-0.00000003,-0.00000045,0.,-0.00
 000006,-0.00000055,-0.00000062,0.00000016,-0.00000028,0.00000057,0.000
 00016,0.00000040,-0.00000047,-0.00000019,-0.00000022,-0.00000044,0.,0.
 00000042,-0.00000011,-0.00000024,0.00000050,0.00000030,-0.00000036,0.0
 0000024,0.00000105,0.,0.00000060,0.00000089,-0.00000022,0.00000007,0.0
 0000016,0.,-0.00000075,-0.00000083,0.00000027,-0.00000015,-0.00000055,
 0.00000011\\\@


    UPON JULIA'S CLOTHES

 WHENAS IN SILKS MY JULIA GOES,
 THEN, THEN, METHINKS, HOW SWEETLY FLOWS
 THAT LIQUEFACTION OF HER CLOTHES.

 NEXT, WHEN I CAST MINE EYES, AND SEE
 THAT BRAVE VIBRATION, EACH WAY FREE,
 O, HOW THAT GLITTERING TAKETH ME!
     -- ROBERT HERRICK, 1648
 Job cpu time:       0 days  3 hours 45 minutes  5.7 seconds.
 Elapsed time:       0 days  1 hours 52 minutes 36.5 seconds.
 File lengths (MBytes):  RWF=   1392 Int=      0 D2E=      0 Chk=     32 Scr=     32
 Normal termination of Gaussian 16 at Thu Sep 26 18:16:57 2019.
