 Entering Gaussian System, Link 0=g16
 Input=loose/species/COC=CO/conformers/COC=CO_22.com
 Output=loose/species/COC=CO/conformers/COC=CO_22.log
 Initial command:
 /shared/centos7/gaussian/g16/l1.exe "/scratch/harms.n/gauss_scrdir/Gau-38283.inp" -scrdir="/scratch/harms.n/gauss_scrdir/"
 Entering Link 1 = /shared/centos7/gaussian/g16/l1.exe PID=     38284.
  
 Copyright (c) 1988,1990,1992,1993,1995,1998,2003,2009,2016,
            Gaussian, Inc.  All Rights Reserved.
  
 This is part of the Gaussian(R) 16 program.  It is based on
 the Gaussian(R) 09 system (copyright 2009, Gaussian, Inc.),
 the Gaussian(R) 03 system (copyright 2003, Gaussian, Inc.),
 the Gaussian(R) 98 system (copyright 1998, Gaussian, Inc.),
 the Gaussian(R) 94 system (copyright 1995, Gaussian, Inc.),
 the Gaussian 92(TM) system (copyright 1992, Gaussian, Inc.),
 the Gaussian 90(TM) system (copyright 1990, Gaussian, Inc.),
 the Gaussian 88(TM) system (copyright 1988, Gaussian, Inc.),
 the Gaussian 86(TM) system (copyright 1986, Carnegie Mellon
 University), and the Gaussian 82(TM) system (copyright 1983,
 Carnegie Mellon University). Gaussian is a federally registered
 trademark of Gaussian, Inc.
  
 This software contains proprietary and confidential information,
 including trade secrets, belonging to Gaussian, Inc.
  
 This software is provided under written license and may be
 used, copied, transmitted, or stored only in accord with that
 written license.
  
 The following legend is applicable only to US Government
 contracts under FAR:
  
                    RESTRICTED RIGHTS LEGEND
  
 Use, reproduction and disclosure by the US Government is
 subject to restrictions as set forth in subparagraphs (a)
 and (c) of the Commercial Computer Software - Restricted
 Rights clause in FAR 52.227-19.
  
 Gaussian, Inc.
 340 Quinnipiac St., Bldg. 40, Wallingford CT 06492
  
  
 ---------------------------------------------------------------
 Warning -- This program may not be used in any manner that
 competes with the business of Gaussian, Inc. or will provide
 assistance to any competitor of Gaussian, Inc.  The licensee
 of this program is prohibited from giving any competitor of
 Gaussian, Inc. access to this program.  By using this program,
 the user acknowledges that Gaussian, Inc. is engaged in the
 business of creating and licensing software in the field of
 computational chemistry and represents and warrants to the
 licensee that it is not a competitor of Gaussian, Inc. and that
 it will not use this program in any manner prohibited above.
 ---------------------------------------------------------------
  

 Cite this work as:
 Gaussian 16, Revision A.03,
 M. J. Frisch, G. W. Trucks, H. B. Schlegel, G. E. Scuseria, 
 M. A. Robb, J. R. Cheeseman, G. Scalmani, V. Barone, 
 G. A. Petersson, H. Nakatsuji, X. Li, M. Caricato, A. V. Marenich, 
 J. Bloino, B. G. Janesko, R. Gomperts, B. Mennucci, H. P. Hratchian, 
 J. V. Ortiz, A. F. Izmaylov, J. L. Sonnenberg, D. Williams-Young, 
 F. Ding, F. Lipparini, F. Egidi, J. Goings, B. Peng, A. Petrone, 
 T. Henderson, D. Ranasinghe, V. G. Zakrzewski, J. Gao, N. Rega, 
 G. Zheng, W. Liang, M. Hada, M. Ehara, K. Toyota, R. Fukuda, 
 J. Hasegawa, M. Ishida, T. Nakajima, Y. Honda, O. Kitao, H. Nakai, 
 T. Vreven, K. Throssell, J. A. Montgomery, Jr., J. E. Peralta, 
 F. Ogliaro, M. J. Bearpark, J. J. Heyd, E. N. Brothers, K. N. Kudin, 
 V. N. Staroverov, T. A. Keith, R. Kobayashi, J. Normand, 
 K. Raghavachari, A. P. Rendell, J. C. Burant, S. S. Iyengar, 
 J. Tomasi, M. Cossi, J. M. Millam, M. Klene, C. Adamo, R. Cammi, 
 J. W. Ochterski, R. L. Martin, K. Morokuma, O. Farkas, 
 J. B. Foresman, and D. J. Fox, Gaussian, Inc., Wallingford CT, 2016.
 
 ******************************************
 Gaussian 16:  EM64L-G16RevA.03 25-Dec-2016
                24-Sep-2019 
 ******************************************
 %nprocshared=20
 Will use up to   20 processors via shared memory.
 %mem=5GB
 ----------------------------------------------------------------------
 #p m062x/cc-pVTZ opt=(calcfc,maxcycles=900,Tight) freq IOP(7/33=1,2/16
 =3) scf=(maxcycle=900)
 ----------------------------------------------------------------------
 1/6=900,7=10,10=4,18=20,19=15,26=3,38=1/1,3;
 2/9=110,12=2,16=3,17=6,18=5,40=1/2;
 3/5=16,6=1,11=2,25=1,30=1,71=2,74=-55,140=1/1,2,3;
 4//1;
 5/5=2,7=900,38=5/2;
 8/6=4,10=90,11=11/1;
 11/6=1,8=1,9=11,15=111,16=1/1,2,10;
 10/6=1,13=1/2;
 6/7=2,8=2,9=2,10=2,28=1/1;
 7/10=1,18=20,25=1,33=1/1,2,3,16;
 1/6=900,7=10,10=4,18=20,19=15,26=3/3(2);
 2/9=110,16=3/2;
 99//99;
 2/9=110,16=3/2;
 3/5=16,6=1,11=2,25=1,30=1,71=1,74=-55/1,2,3;
 4/5=5,16=3,69=1/1;
 5/5=2,7=900,38=5/2;
 7/33=1/1,2,3,16;
 1/6=900,7=10,18=20,19=15,26=3/3(-5);
 2/9=110,16=3/2;
 6/7=2,8=2,9=2,10=2,19=2,28=1/1;
 99/9=1/99;
 Leave Link    1 at Tue Sep 24 08:44:29 2019, MaxMem=   671088640 cpu:               4.1 elap:               2.1
 (Enter /shared/centos7/gaussian/g16/l101.exe)
 ------------------------------
 Gaussian input prepared by ASE
 ------------------------------
 Symbolic Z-matrix:
 Charge =  0 Multiplicity = 1
 O                     0.20171  -0.72319   1.10904 
 O                     0.45747   2.884     0.36653 
 C                    -1.18714  -0.89838   0.81962 
 C                     0.69205   0.56312   0.92318 
 C                    -0.01834   1.60785   0.56986 
 H                    -1.66716   0.05282   0.44919 
 H                    -1.31042  -1.70058   0.03733 
 H                    -1.69992  -1.223     1.72526 
 H                     1.75948   0.58591   1.13416 
 H                    -1.06515   1.54828   0.36126 
 H                     1.3468    2.96439   0.853 
 
 ITRead=  0  0  0  0  0  0  0  0  0  0  0
 MicOpt= -1 -1 -1 -1 -1 -1 -1 -1 -1 -1 -1
 NAtoms=     11 NQM=       11 NQMF=       0 NMMI=      0 NMMIF=      0
                NMic=       0 NMicF=      0.
                    Isotopes and Nuclear Properties:
 (Nuclear quadrupole moments (NQMom) in fm**2, nuclear magnetic moments (NMagM)
  in nuclear magnetons)

  Atom         1           2           3           4           5           6           7           8           9          10
 IAtWgt=          16          16          12          12          12           1           1           1           1           1
 AtmWgt=  15.9949146  15.9949146  12.0000000  12.0000000  12.0000000   1.0078250   1.0078250   1.0078250   1.0078250   1.0078250
 NucSpn=           0           0           0           0           0           1           1           1           1           1
 AtZEff=  -0.0000000  -0.0000000  -0.0000000  -0.0000000  -0.0000000  -0.0000000  -0.0000000  -0.0000000  -0.0000000  -0.0000000
 NQMom=    0.0000000   0.0000000   0.0000000   0.0000000   0.0000000   0.0000000   0.0000000   0.0000000   0.0000000   0.0000000
 NMagM=    0.0000000   0.0000000   0.0000000   0.0000000   0.0000000   2.7928460   2.7928460   2.7928460   2.7928460   2.7928460
 AtZNuc=   8.0000000   8.0000000   6.0000000   6.0000000   6.0000000   1.0000000   1.0000000   1.0000000   1.0000000   1.0000000

  Atom        11
 IAtWgt=           1
 AtmWgt=   1.0078250
 NucSpn=           1
 AtZEff=  -0.0000000
 NQMom=    0.0000000
 NMagM=    2.7928460
 AtZNuc=   1.0000000
 Leave Link  101 at Tue Sep 24 08:44:30 2019, MaxMem=   671088640 cpu:               2.4 elap:               1.2
 (Enter /shared/centos7/gaussian/g16/l103.exe)

 GradGradGradGradGradGradGradGradGradGradGradGradGradGradGradGradGradGrad
 Berny optimization.
 Initialization pass.
                           ----------------------------
                           !    Initial Parameters    !
                           ! (Angstroms and Degrees)  !
 --------------------------                            --------------------------
 ! Name  Definition              Value          Derivative Info.                !
 --------------------------------------------------------------------------------
 ! R1    R(1,3)                  1.4295         calculate D2E/DX2 analytically  !
 ! R2    R(1,4)                  1.3891         calculate D2E/DX2 analytically  !
 ! R3    R(2,5)                  1.3771         calculate D2E/DX2 analytically  !
 ! R4    R(2,11)                 1.0169         calculate D2E/DX2 analytically  !
 ! R5    R(3,6)                  1.128          calculate D2E/DX2 analytically  !
 ! R6    R(3,7)                  1.1272         calculate D2E/DX2 analytically  !
 ! R7    R(3,8)                  1.0902         calculate D2E/DX2 analytically  !
 ! R8    R(4,5)                  1.3119         calculate D2E/DX2 analytically  !
 ! R9    R(4,9)                  1.0883         calculate D2E/DX2 analytically  !
 ! R10   R(5,10)                 1.0691         calculate D2E/DX2 analytically  !
 ! A1    A(3,1,4)              115.4272         calculate D2E/DX2 analytically  !
 ! A2    A(5,2,11)             107.747          calculate D2E/DX2 analytically  !
 ! A3    A(1,3,6)              112.1228         calculate D2E/DX2 analytically  !
 ! A4    A(1,3,7)              109.5102         calculate D2E/DX2 analytically  !
 ! A5    A(1,3,8)              108.9834         calculate D2E/DX2 analytically  !
 ! A6    A(6,3,7)              109.0051         calculate D2E/DX2 analytically  !
 ! A7    A(6,3,8)              108.8892         calculate D2E/DX2 analytically  !
 ! A8    A(7,3,8)              108.2505         calculate D2E/DX2 analytically  !
 ! A9    A(1,4,5)              125.615          calculate D2E/DX2 analytically  !
 ! A10   A(1,4,9)              109.857          calculate D2E/DX2 analytically  !
 ! A11   A(5,4,9)              124.5177         calculate D2E/DX2 analytically  !
 ! A12   A(2,5,4)              126.205          calculate D2E/DX2 analytically  !
 ! A13   A(2,5,10)             111.172          calculate D2E/DX2 analytically  !
 ! A14   A(4,5,10)             122.5766         calculate D2E/DX2 analytically  !
 ! D1    D(4,1,3,6)              1.6846         calculate D2E/DX2 analytically  !
 ! D2    D(4,1,3,7)            122.8148         calculate D2E/DX2 analytically  !
 ! D3    D(4,1,3,8)           -118.94           calculate D2E/DX2 analytically  !
 ! D4    D(3,1,4,5)              3.1384         calculate D2E/DX2 analytically  !
 ! D5    D(3,1,4,9)           -177.995          calculate D2E/DX2 analytically  !
 ! D6    D(11,2,5,4)           -20.5647         calculate D2E/DX2 analytically  !
 ! D7    D(11,2,5,10)          161.8728         calculate D2E/DX2 analytically  !
 ! D8    D(1,4,5,2)           -179.157          calculate D2E/DX2 analytically  !
 ! D9    D(1,4,5,10)            -1.8545         calculate D2E/DX2 analytically  !
 ! D10   D(9,4,5,2)              2.1368         calculate D2E/DX2 analytically  !
 ! D11   D(9,4,5,10)           179.4393         calculate D2E/DX2 analytically  !
 --------------------------------------------------------------------------------
 Trust Radius=3.00D-01 FncErr=1.00D-07 GrdErr=1.00D-06 EigMax=2.50D+02 EigMin=1.00D-04
 Number of steps in this run=    100 maximum allowed number of steps=    100.
 GradGradGradGradGradGradGradGradGradGradGradGradGradGradGradGradGradGrad

 Leave Link  103 at Tue Sep 24 08:44:30 2019, MaxMem=   671088640 cpu:               1.4 elap:               0.7
 (Enter /shared/centos7/gaussian/g16/l202.exe)
                          Input orientation:                          
 ---------------------------------------------------------------------
 Center     Atomic      Atomic             Coordinates (Angstroms)
 Number     Number       Type             X           Y           Z
 ---------------------------------------------------------------------
      1          8           0        0.201710   -0.723195    1.109043
      2          8           0        0.457471    2.884005    0.366532
      3          6           0       -1.187143   -0.898384    0.819623
      4          6           0        0.692055    0.563117    0.923176
      5          6           0       -0.018343    1.607854    0.569859
      6          1           0       -1.667160    0.052821    0.449187
      7          1           0       -1.310415   -1.700575    0.037328
      8          1           0       -1.699918   -1.223001    1.725259
      9          1           0        1.759479    0.585909    1.134161
     10          1           0       -1.065152    1.548281    0.361258
     11          1           0        1.346800    2.964391    0.852997
 ---------------------------------------------------------------------
                    Distance matrix (angstroms):
                    1          2          3          4          5
     1  O    0.000000
     2  O    3.691697   0.000000
     3  C    1.429464   4.149278   0.000000
     4  C    1.389094   2.398208   2.382875   0.000000
     5  C    2.402692   1.377063   2.776635   1.311858   0.000000
     6  H    2.128446   3.540691   1.128020   2.459871   2.269645
     7  H    2.095320   4.924649   1.127250   3.149431   3.591482
     8  H    2.060513   4.834042   1.090179   3.091130   3.489467
     9  H    2.034951   2.750586   3.314308   1.088314   2.126842
    10  H    2.706237   2.025480   2.492218   2.091429   1.069052
    11  H    3.869764   1.016866   4.619849   2.489926   1.945244
                    6          7          8          9         10
     6  H    0.000000
     7  H    1.836108   0.000000
     8  H    1.804758   1.796914   0.000000
     9  H    3.534859   3.981872   3.948288   0.000000
    10  H    1.614480   3.274164   3.153320   3.082544   0.000000
    11  H    4.210019   5.430287   5.251436   2.430336   2.839839
                   11
    11  H    0.000000
 Stoichiometry    C3H6O2
 Framework group  C1[X(C3H6O2)]
 Deg. of freedom    27
 Full point group                 C1      NOp   1
 Largest Abelian subgroup         C1      NOp   1
 Largest concise Abelian subgroup C1      NOp   1
                         Standard orientation:                         
 ---------------------------------------------------------------------
 Center     Atomic      Atomic             Coordinates (Angstroms)
 Number     Number       Type             X           Y           Z
 ---------------------------------------------------------------------
      1          8           0        1.288369    0.689498    0.006613
      2          8           0       -2.267781   -0.300915   -0.032150
      3          6           0        1.869292   -0.616602    0.006335
      4          6           0       -0.099997    0.724753   -0.021339
      5          6           0       -0.891547   -0.320885    0.011244
      6          1           0        1.088413   -1.428836   -0.047830
      7          1           0        2.566457   -0.718363   -0.873606
      8          1           0        2.450716   -0.746316    0.919358
      9          1           0       -0.442979    1.757074   -0.054576
     10          1           0       -0.520490   -1.323202    0.034731
     11          1           0       -2.573311    0.627387    0.248782
 ---------------------------------------------------------------------
 Rotational constants (GHZ):          16.3466384           2.7560571           2.3967072
 Leave Link  202 at Tue Sep 24 08:44:32 2019, MaxMem=   671088640 cpu:               3.5 elap:               1.8
 (Enter /shared/centos7/gaussian/g16/l301.exe)
 Standard basis: CC-pVTZ (5D, 7F)
 Ernie: Thresh=  0.10000D-02 Tol=  0.10000D-05 Strict=F.
 Ernie:  15 primitive shells out of 178 were deleted.
 There are   265 symmetry adapted cartesian basis functions of A   symmetry.
 There are   234 symmetry adapted basis functions of A   symmetry.
   234 basis functions,   362 primitive gaussians,   265 cartesian basis functions
    20 alpha electrons       20 beta electrons
       nuclear repulsion energy       174.4995112000 Hartrees.
 IExCor= 4336 DFT=T Ex+Corr=M062X ExCW=0 ScaHFX=  0.540000
 ScaDFX=  1.000000  1.000000  1.000000  1.000000 ScalE2=  1.000000  1.000000
 IRadAn=      5 IRanWt=     -1 IRanGd=            0 ICorTp=0 IEmpDi=  4
 NAtoms=   11 NActive=   11 NUniq=   11 SFac= 1.00D+00 NAtFMM=   60 NAOKFM=F Big=F
 Integral buffers will be    131072 words long.
 Raffenetti 2 integral format.
 Two-electron integral symmetry is turned on.
 Leave Link  301 at Tue Sep 24 08:44:33 2019, MaxMem=   671088640 cpu:               2.1 elap:               1.1
 (Enter /shared/centos7/gaussian/g16/l302.exe)
 NPDir=0 NMtPBC=     1 NCelOv=     1 NCel=       1 NClECP=     1 NCelD=      1
         NCelK=      1 NCelE2=     1 NClLst=     1 CellRange=     0.0.
 One-electron integrals computed using PRISM.
 One-electron integral symmetry used in STVInt
 NBasis=   234 RedAO= T EigKep=  3.49D-04  NBF=   234
 NBsUse=   234 1.00D-06 EigRej= -1.00D+00 NBFU=   234
 Precomputing XC quadrature grid using
 IXCGrd= 4 IRadAn=           5 IRanWt=          -1 IRanGd=           0 AccXCQ= 0.00D+00.
 Generated NRdTot=       0 NPtTot=           0 NUsed=           0 NTot=          32
 NSgBfM=   265   265   265   265   265 MxSgAt=    11 MxSgA2=    11.
 Leave Link  302 at Tue Sep 24 08:45:21 2019, MaxMem=   671088640 cpu:              94.6 elap:              47.3
 (Enter /shared/centos7/gaussian/g16/l303.exe)
 DipDrv:  MaxL=1.
 Leave Link  303 at Tue Sep 24 08:45:25 2019, MaxMem=   671088640 cpu:               8.6 elap:               4.3
 (Enter /shared/centos7/gaussian/g16/l401.exe)
 ExpMin= 1.03D-01 ExpMax= 1.53D+04 ExpMxC= 5.22D+02 IAcc=3 IRadAn=         5 AccDes= 0.00D+00
 Harris functional with IExCor= 1009 and IRadAn=       5 diagonalized for initial guess.
 HarFok:  IExCor= 1009 AccDes= 0.00D+00 IRadAn=         5 IDoV= 1 UseB2=F ITyADJ=14
 ICtDFT=  3500011 ScaDFX=  1.000000  1.000000  1.000000  1.000000
 FoFCou: FMM=F IPFlag=           0 FMFlag=      100000 FMFlg1=           0
         NFxFlg=           0 DoJE=T BraDBF=F KetDBF=T FulRan=T
         wScrn=  0.000000 ICntrl=       500 IOpCl=  0 I1Cent=   200000004 NGrid=           0
         NMat0=    1 NMatS0=      1 NMatT0=    0 NMatD0=    1 NMtDS0=    0 NMtDT0=    0
 Petite list used in FoFCou.
 Harris En= -268.190580791336    
 JPrj=0 DoOrth=F DoCkMO=F.
 Leave Link  401 at Tue Sep 24 08:45:54 2019, MaxMem=   671088640 cpu:              57.3 elap:              28.7
 (Enter /shared/centos7/gaussian/g16/l502.exe)
 Keep R1 ints in memory in canonical form, NReq=399924305.
 FoFCou: FMM=F IPFlag=           0 FMFlag=           0 FMFlg1=           0
         NFxFlg=           0 DoJE=F BraDBF=F KetDBF=F FulRan=T
         wScrn=  0.000000 ICntrl=       600 IOpCl=  0 I1Cent=           0 NGrid=           0
         NMat0=    1 NMatS0=  27495 NMatT0=    0 NMatD0=    1 NMtDS0=    0 NMtDT0=    0
 Symmetry not used in FoFCou.
 Two-electron integral symmetry not used.
 Closed shell SCF:
 Using DIIS extrapolation, IDIIS=  1040.
 NGot=   671088640 LenX=   292939207 LenY=   292868541
 Requested convergence on RMS density matrix=1.00D-08 within 900 cycles.
 Requested convergence on MAX density matrix=1.00D-06.
 Requested convergence on             energy=1.00D-06.
 No special actions if energy rises.
 Integral accuracy reduced to 1.0D-05 until final iterations.

 Cycle   1  Pass 0  IDiag  1:
 E= -268.178526381027    
 DIIS: error= 2.23D-02 at cycle   1 NSaved=   1.
 NSaved= 1 IEnMin= 1 EnMin= -268.178526381027     IErMin= 1 ErrMin= 2.23D-02
 ErrMax= 2.23D-02  0.00D+00 EMaxC= 1.00D-01 BMatC= 1.72D-01 BMatP= 1.72D-01
 IDIUse=3 WtCom= 7.77D-01 WtEn= 2.23D-01
 Coeff-Com:  0.100D+01
 Coeff-En:   0.100D+01
 Coeff:      0.100D+01
 Gap=     0.347 Goal=   None    Shift=    0.000
 GapD=    0.347 DampG=1.000 DampE=0.500 DampFc=0.5000 IDamp=-1.
 Damping current iteration by 5.00D-01
 RMSDP=1.94D-03 MaxDP=6.19D-02              OVMax= 1.10D-01

 Cycle   2  Pass 0  IDiag  1:
 E= -268.243140809257     Delta-E=       -0.064614428229 Rises=F Damp=T
 DIIS: error= 5.56D-03 at cycle   2 NSaved=   2.
 NSaved= 2 IEnMin= 2 EnMin= -268.243140809257     IErMin= 2 ErrMin= 5.56D-03
 ErrMax= 5.56D-03  0.00D+00 EMaxC= 1.00D-01 BMatC= 1.66D-02 BMatP= 1.72D-01
 IDIUse=3 WtCom= 9.44D-01 WtEn= 5.56D-02
 Coeff-Com: -0.176D+00 0.118D+01
 Coeff-En:   0.000D+00 0.100D+01
 Coeff:     -0.167D+00 0.117D+01
 Gap=     0.328 Goal=   None    Shift=    0.000
 RMSDP=3.77D-04 MaxDP=1.08D-02 DE=-6.46D-02 OVMax= 4.88D-02

 Cycle   3  Pass 0  IDiag  1:
 E= -268.299581467448     Delta-E=       -0.056440658191 Rises=F Damp=F
 DIIS: error= 3.02D-03 at cycle   3 NSaved=   3.
 NSaved= 3 IEnMin= 3 EnMin= -268.299581467448     IErMin= 3 ErrMin= 3.02D-03
 ErrMax= 3.02D-03  0.00D+00 EMaxC= 1.00D-01 BMatC= 3.58D-03 BMatP= 1.66D-02
 IDIUse=3 WtCom= 9.70D-01 WtEn= 3.02D-02
 Coeff-Com: -0.115D+00 0.383D+00 0.732D+00
 Coeff-En:   0.000D+00 0.000D+00 0.100D+01
 Coeff:     -0.112D+00 0.372D+00 0.740D+00
 Gap=     0.329 Goal=   None    Shift=    0.000
 RMSDP=1.72D-04 MaxDP=5.79D-03 DE=-5.64D-02 OVMax= 1.85D-02

 Cycle   4  Pass 0  IDiag  1:
 E= -268.301258607496     Delta-E=       -0.001677140048 Rises=F Damp=F
 DIIS: error= 1.15D-03 at cycle   4 NSaved=   4.
 NSaved= 4 IEnMin= 4 EnMin= -268.301258607496     IErMin= 4 ErrMin= 1.15D-03
 ErrMax= 1.15D-03  0.00D+00 EMaxC= 1.00D-01 BMatC= 8.71D-04 BMatP= 3.58D-03
 IDIUse=3 WtCom= 9.88D-01 WtEn= 1.15D-02
 Coeff-Com: -0.384D-01 0.967D-01 0.379D+00 0.563D+00
 Coeff-En:   0.000D+00 0.000D+00 0.200D+00 0.800D+00
 Coeff:     -0.379D-01 0.956D-01 0.377D+00 0.566D+00
 Gap=     0.324 Goal=   None    Shift=    0.000
 RMSDP=7.66D-05 MaxDP=2.83D-03 DE=-1.68D-03 OVMax= 8.73D-03

 Cycle   5  Pass 0  IDiag  1:
 E= -268.301929463366     Delta-E=       -0.000670855870 Rises=F Damp=F
 DIIS: error= 2.06D-04 at cycle   5 NSaved=   5.
 NSaved= 5 IEnMin= 5 EnMin= -268.301929463366     IErMin= 5 ErrMin= 2.06D-04
 ErrMax= 2.06D-04  0.00D+00 EMaxC= 1.00D-01 BMatC= 1.66D-05 BMatP= 8.71D-04
 IDIUse=3 WtCom= 9.98D-01 WtEn= 2.06D-03
 Coeff-Com: -0.594D-02 0.117D-01 0.835D-01 0.192D+00 0.719D+00
 Coeff-En:   0.000D+00 0.000D+00 0.000D+00 0.000D+00 0.100D+01
 Coeff:     -0.592D-02 0.117D-01 0.833D-01 0.192D+00 0.719D+00
 Gap=     0.324 Goal=   None    Shift=    0.000
 RMSDP=1.38D-05 MaxDP=4.51D-04 DE=-6.71D-04 OVMax= 1.90D-03

 Cycle   6  Pass 0  IDiag  1:
 E= -268.301942025950     Delta-E=       -0.000012562584 Rises=F Damp=F
 DIIS: error= 8.20D-05 at cycle   6 NSaved=   6.
 NSaved= 6 IEnMin= 6 EnMin= -268.301942025950     IErMin= 6 ErrMin= 8.20D-05
 ErrMax= 8.20D-05  0.00D+00 EMaxC= 1.00D-01 BMatC= 3.02D-06 BMatP= 1.66D-05
 IDIUse=1 WtCom= 1.00D+00 WtEn= 0.00D+00
 Coeff-Com: -0.117D-02 0.112D-02 0.254D-01 0.764D-01 0.386D+00 0.512D+00
 Coeff:     -0.117D-02 0.112D-02 0.254D-01 0.764D-01 0.386D+00 0.512D+00
 Gap=     0.324 Goal=   None    Shift=    0.000
 RMSDP=4.51D-06 MaxDP=1.45D-04 DE=-1.26D-05 OVMax= 5.25D-04

 Initial convergence to 1.0D-05 achieved.  Increase integral accuracy.
 Cycle   7  Pass 1  IDiag  1:
 E= -268.301977043674     Delta-E=       -0.000035017724 Rises=F Damp=F
 DIIS: error= 1.91D-05 at cycle   1 NSaved=   1.
 NSaved= 1 IEnMin= 1 EnMin= -268.301977043674     IErMin= 1 ErrMin= 1.91D-05
 ErrMax= 1.91D-05  0.00D+00 EMaxC= 1.00D-01 BMatC= 2.66D-07 BMatP= 2.66D-07
 IDIUse=1 WtCom= 1.00D+00 WtEn= 0.00D+00
 Coeff-Com:  0.100D+01
 Coeff:      0.100D+01
 Gap=     0.324 Goal=   None    Shift=    0.000
 RMSDP=4.51D-06 MaxDP=1.45D-04 DE=-3.50D-05 OVMax= 2.18D-04

 Cycle   8  Pass 1  IDiag  1:
 E= -268.301977201712     Delta-E=       -0.000000158038 Rises=F Damp=F
 DIIS: error= 1.75D-05 at cycle   2 NSaved=   2.
 NSaved= 2 IEnMin= 2 EnMin= -268.301977201712     IErMin= 2 ErrMin= 1.75D-05
 ErrMax= 1.75D-05  0.00D+00 EMaxC= 1.00D-01 BMatC= 1.13D-07 BMatP= 2.66D-07
 IDIUse=1 WtCom= 1.00D+00 WtEn= 0.00D+00
 Coeff-Com:  0.343D+00 0.657D+00
 Coeff:      0.343D+00 0.657D+00
 Gap=     0.324 Goal=   None    Shift=    0.000
 RMSDP=1.29D-06 MaxDP=3.40D-05 DE=-1.58D-07 OVMax= 1.42D-04

 Cycle   9  Pass 1  IDiag  1:
 E= -268.301977257126     Delta-E=       -0.000000055414 Rises=F Damp=F
 DIIS: error= 1.18D-05 at cycle   3 NSaved=   3.
 NSaved= 3 IEnMin= 3 EnMin= -268.301977257126     IErMin= 3 ErrMin= 1.18D-05
 ErrMax= 1.18D-05  0.00D+00 EMaxC= 1.00D-01 BMatC= 3.75D-08 BMatP= 1.13D-07
 IDIUse=1 WtCom= 1.00D+00 WtEn= 0.00D+00
 Coeff-Com: -0.370D-01 0.361D+00 0.676D+00
 Coeff:     -0.370D-01 0.361D+00 0.676D+00
 Gap=     0.324 Goal=   None    Shift=    0.000
 RMSDP=5.83D-07 MaxDP=1.86D-05 DE=-5.54D-08 OVMax= 7.17D-05

 Cycle  10  Pass 1  IDiag  1:
 E= -268.301977286354     Delta-E=       -0.000000029228 Rises=F Damp=F
 DIIS: error= 1.56D-06 at cycle   4 NSaved=   4.
 NSaved= 4 IEnMin= 4 EnMin= -268.301977286354     IErMin= 4 ErrMin= 1.56D-06
 ErrMax= 1.56D-06  0.00D+00 EMaxC= 1.00D-01 BMatC= 6.26D-10 BMatP= 3.75D-08
 IDIUse=1 WtCom= 1.00D+00 WtEn= 0.00D+00
 Coeff-Com: -0.200D-01 0.809D-01 0.210D+00 0.729D+00
 Coeff:     -0.200D-01 0.809D-01 0.210D+00 0.729D+00
 Gap=     0.324 Goal=   None    Shift=    0.000
 RMSDP=1.00D-07 MaxDP=3.40D-06 DE=-2.92D-08 OVMax= 8.34D-06

 Cycle  11  Pass 1  IDiag  1:
 E= -268.301977286935     Delta-E=       -0.000000000581 Rises=F Damp=F
 DIIS: error= 5.70D-07 at cycle   5 NSaved=   5.
 NSaved= 5 IEnMin= 5 EnMin= -268.301977286935     IErMin= 5 ErrMin= 5.70D-07
 ErrMax= 5.70D-07  0.00D+00 EMaxC= 1.00D-01 BMatC= 1.02D-10 BMatP= 6.26D-10
 IDIUse=1 WtCom= 1.00D+00 WtEn= 0.00D+00
 Coeff-Com: -0.262D-02-0.259D-01-0.166D-01 0.262D+00 0.784D+00
 Coeff:     -0.262D-02-0.259D-01-0.166D-01 0.262D+00 0.784D+00
 Gap=     0.324 Goal=   None    Shift=    0.000
 RMSDP=4.25D-08 MaxDP=1.08D-06 DE=-5.81D-10 OVMax= 3.82D-06

 Cycle  12  Pass 1  IDiag  1:
 E= -268.301977287029     Delta-E=       -0.000000000094 Rises=F Damp=F
 DIIS: error= 2.35D-07 at cycle   6 NSaved=   6.
 NSaved= 6 IEnMin= 6 EnMin= -268.301977287029     IErMin= 6 ErrMin= 2.35D-07
 ErrMax= 2.35D-07  0.00D+00 EMaxC= 1.00D-01 BMatC= 2.04D-11 BMatP= 1.02D-10
 IDIUse=1 WtCom= 1.00D+00 WtEn= 0.00D+00
 Coeff-Com:  0.130D-02-0.225D-01-0.318D-01 0.379D-01 0.387D+00 0.628D+00
 Coeff:      0.130D-02-0.225D-01-0.318D-01 0.379D-01 0.387D+00 0.628D+00
 Gap=     0.324 Goal=   None    Shift=    0.000
 RMSDP=1.31D-08 MaxDP=4.50D-07 DE=-9.41D-11 OVMax= 1.14D-06

 Cycle  13  Pass 1  IDiag  1:
 E= -268.301977287045     Delta-E=       -0.000000000016 Rises=F Damp=F
 DIIS: error= 3.64D-08 at cycle   7 NSaved=   7.
 NSaved= 7 IEnMin= 7 EnMin= -268.301977287045     IErMin= 7 ErrMin= 3.64D-08
 ErrMax= 3.64D-08  0.00D+00 EMaxC= 1.00D-01 BMatC= 5.58D-13 BMatP= 2.04D-11
 IDIUse=1 WtCom= 1.00D+00 WtEn= 0.00D+00
 Coeff-Com:  0.656D-03-0.542D-02-0.886D-02-0.767D-02 0.690D-01 0.183D+00
 Coeff-Com:  0.770D+00
 Coeff:      0.656D-03-0.542D-02-0.886D-02-0.767D-02 0.690D-01 0.183D+00
 Coeff:      0.770D+00
 Gap=     0.324 Goal=   None    Shift=    0.000
 RMSDP=3.73D-09 MaxDP=1.04D-07 DE=-1.60D-11 OVMax= 2.20D-07

 SCF Done:  E(RM062X) =  -268.301977287     A.U. after   13 cycles
            NFock= 13  Conv=0.37D-08     -V/T= 2.0060
 KE= 2.666920550681D+02 PE=-9.772881746005D+02 EE= 2.677946310453D+02
 Leave Link  502 at Tue Sep 24 08:51:02 2019, MaxMem=   671088640 cpu:             609.6 elap:             308.4
 (Enter /shared/centos7/gaussian/g16/l801.exe)
 DoSCS=F DFT=T ScalE2(SS,OS)=  1.000000  1.000000
 Range of M.O.s used for correlation:     1   234
 NBasis=   234 NAE=    20 NBE=    20 NFC=     0 NFV=     0
 NROrb=    234 NOA=    20 NOB=    20 NVA=   214 NVB=   214

 **** Warning!!: The largest alpha MO coefficient is  0.11378715D+02

 Leave Link  801 at Tue Sep 24 08:51:03 2019, MaxMem=   671088640 cpu:               1.6 elap:               0.8
 (Enter /shared/centos7/gaussian/g16/l1101.exe)
 Using compressed storage, NAtomX=    11.
 Will process     12 centers per pass.
 Leave Link 1101 at Tue Sep 24 08:51:26 2019, MaxMem=   671088640 cpu:              45.5 elap:              22.8
 (Enter /shared/centos7/gaussian/g16/l1102.exe)
 Symmetrizing basis deriv contribution to polar:
 IMax=3 JMax=2 DiffMx= 0.00D+00
 Leave Link 1102 at Tue Sep 24 08:51:28 2019, MaxMem=   671088640 cpu:               5.4 elap:               2.7
 (Enter /shared/centos7/gaussian/g16/l1110.exe)
 Forming Gx(P) for the SCF density, NAtomX=    11.
 Integral derivatives from FoFJK, PRISM(SPDF).
 Do as many integral derivatives as possible in FoFJK.
 G2DrvN: MDV=     671087712.
 G2DrvN: will do    12 centers at a time, making    1 passes.
 Calling FoFCou, ICntrl=  3107 FMM=F I1Cent=   0 AccDes= 0.00D+00.
 FoFJK:  IHMeth= 1 ICntrl=    3107 DoSepK=F KAlg= 0 I1Cent=           0 FoldK=F
 IRaf=         0 NMat=       1 IRICut=       1 DoRegI=T DoRafI=F ISym2E= 0 IDoP0=0 IntGTp=1.
 FoFCou: FMM=F IPFlag=           0 FMFlag=      100000 FMFlg1=           0
         NFxFlg=           0 DoJE=F BraDBF=F KetDBF=F FulRan=T
         wScrn=  0.000000 ICntrl=      3107 IOpCl=  0 I1Cent=           0 NGrid=           0
         NMat0=    1 NMatS0=      1 NMatT0=    0 NMatD0=    1 NMtDS0=    0 NMtDT0=    0
 Symmetry not used in FoFCou.
 End of G2Drv F.D. properties file   721 does not exist.
 End of G2Drv F.D. properties file   722 does not exist.
 End of G2Drv F.D. properties file   788 does not exist.
 Leave Link 1110 at Tue Sep 24 08:56:23 2019, MaxMem=   671088640 cpu:             590.3 elap:             295.2
 (Enter /shared/centos7/gaussian/g16/l1002.exe)
 Minotr:  Closed shell wavefunction.
          IDoAtm=11111111111
          Direct CPHF calculation.
          Differentiating once with respect to nuclear coordinates.
          Requested convergence is 1.0D-08 RMS, and 1.0D-07 maximum.
          Secondary convergence is 1.0D-12 RMS, and 1.0D-12 maximum.
          NewPWx=T KeepS1=F KeepF1=F KeepIn=T MapXYZ=F SortEE=F KeepMc=T.
         3279 words used for storage of precomputed grid.
 Keep R1 ints in memory in canonical form, NReq=399865278.
 FoFCou: FMM=F IPFlag=           0 FMFlag=           0 FMFlg1=           0
         NFxFlg=           0 DoJE=F BraDBF=F KetDBF=F FulRan=T
         wScrn=  0.000000 ICntrl=       600 IOpCl=  0 I1Cent=           0 NGrid=           0
         NMat0=    1 NMatS0=  27495 NMatT0=    0 NMatD0=    1 NMtDS0=    0 NMtDT0=    0
 Symmetry not used in FoFCou.
 Two-electron integral symmetry not used.
          MDV=     671088640 using IRadAn=       1.
          Solving linear equations simultaneously, MaxMat=       0.
          There are    36 degrees of freedom in the 1st order CPHF.  IDoFFX=6 NUNeed=     0.
     30 vectors produced by pass  0 Test12= 1.19D-14 2.78D-09 XBig12= 6.53D-02 6.87D-02.
 AX will form    30 AO Fock derivatives at one time.
     30 vectors produced by pass  1 Test12= 1.19D-14 2.78D-09 XBig12= 7.95D-03 3.48D-02.
     30 vectors produced by pass  2 Test12= 1.19D-14 2.78D-09 XBig12= 2.44D-04 2.86D-03.
     30 vectors produced by pass  3 Test12= 1.19D-14 2.78D-09 XBig12= 3.22D-06 3.20D-04.
     30 vectors produced by pass  4 Test12= 1.19D-14 2.78D-09 XBig12= 1.99D-08 2.12D-05.
     30 vectors produced by pass  5 Test12= 1.19D-14 2.78D-09 XBig12= 9.55D-11 1.28D-06.
     20 vectors produced by pass  6 Test12= 1.19D-14 2.78D-09 XBig12= 4.81D-13 7.68D-08.
      5 vectors produced by pass  7 Test12= 1.19D-14 2.78D-09 XBig12= 1.92D-15 5.06D-09.
 InvSVY:  IOpt=1 It=  1 EMax= 1.33D-15
 Solved reduced A of dimension   205 with    30 vectors.
 End of Minotr F.D. properties file   721 does not exist.
 End of Minotr F.D. properties file   722 does not exist.
 End of Minotr F.D. properties file   788 does not exist.
 Leave Link 1002 at Tue Sep 24 09:03:47 2019, MaxMem=   671088640 cpu:             887.6 elap:             443.9
 (Enter /shared/centos7/gaussian/g16/l601.exe)
 Copying SCF densities to generalized density rwf, IOpCl= 0 IROHF=0.

 **********************************************************************

            Population analysis using the SCF density.

 **********************************************************************

 Orbital symmetries:
       Occupied  (A) (A) (A) (A) (A) (A) (A) (A) (A) (A) (A) (A)
                 (A) (A) (A) (A) (A) (A) (A) (A)
       Virtual   (A) (A) (A) (A) (A) (A) (A) (A) (A) (A) (A) (A)
                 (A) (A) (A) (A) (A) (A) (A) (A) (A) (A) (A) (A)
                 (A) (A) (A) (A) (A) (A) (A) (A) (A) (A) (A) (A)
                 (A) (A) (A) (A) (A) (A) (A) (A) (A) (A) (A) (A)
                 (A) (A) (A) (A) (A) (A) (A) (A) (A) (A) (A) (A)
                 (A) (A) (A) (A) (A) (A) (A) (A) (A) (A) (A) (A)
                 (A) (A) (A) (A) (A) (A) (A) (A) (A) (A) (A) (A)
                 (A) (A) (A) (A) (A) (A) (A) (A) (A) (A) (A) (A)
                 (A) (A) (A) (A) (A) (A) (A) (A) (A) (A) (A) (A)
                 (A) (A) (A) (A) (A) (A) (A) (A) (A) (A) (A) (A)
                 (A) (A) (A) (A) (A) (A) (A) (A) (A) (A) (A) (A)
                 (A) (A) (A) (A) (A) (A) (A) (A) (A) (A) (A) (A)
                 (A) (A) (A) (A) (A) (A) (A) (A) (A) (A) (A) (A)
                 (A) (A) (A) (A) (A) (A) (A) (A) (A) (A) (A) (A)
                 (A) (A) (A) (A) (A) (A) (A) (A) (A) (A) (A) (A)
                 (A) (A) (A) (A) (A) (A) (A) (A) (A) (A) (A) (A)
                 (A) (A) (A) (A) (A) (A) (A) (A) (A) (A) (A) (A)
                 (A) (A) (A) (A) (A) (A) (A) (A) (A) (A)
 The electronic state is 1-A.
 Alpha  occ. eigenvalues --  -19.65003 -19.64863 -10.59272 -10.58612 -10.58126
 Alpha  occ. eigenvalues --   -1.17519  -1.16082  -0.85309  -0.79202  -0.67877
 Alpha  occ. eigenvalues --   -0.59972  -0.59696  -0.53667  -0.49816  -0.48322
 Alpha  occ. eigenvalues --   -0.46948  -0.45544  -0.40574  -0.39302  -0.26918
 Alpha virt. eigenvalues --    0.05519   0.07825   0.08153   0.09762   0.13273
 Alpha virt. eigenvalues --    0.14663   0.15193   0.18836   0.25155   0.25811
 Alpha virt. eigenvalues --    0.28334   0.29389   0.32869   0.37132   0.37759
 Alpha virt. eigenvalues --    0.38437   0.40112   0.41600   0.42213   0.44837
 Alpha virt. eigenvalues --    0.46073   0.47395   0.48509   0.50770   0.52772
 Alpha virt. eigenvalues --    0.57742   0.58274   0.60482   0.61352   0.62431
 Alpha virt. eigenvalues --    0.65339   0.67442   0.67943   0.72388   0.73814
 Alpha virt. eigenvalues --    0.74952   0.80931   0.81609   0.83485   0.87914
 Alpha virt. eigenvalues --    0.90045   0.95792   0.97235   0.98871   1.01375
 Alpha virt. eigenvalues --    1.03394   1.06065   1.07119   1.09496   1.11284
 Alpha virt. eigenvalues --    1.12964   1.14162   1.18294   1.22318   1.23650
 Alpha virt. eigenvalues --    1.25384   1.28739   1.33546   1.35715   1.36600
 Alpha virt. eigenvalues --    1.37552   1.39549   1.42715   1.45020   1.47574
 Alpha virt. eigenvalues --    1.52961   1.55051   1.67719   1.74857   1.78438
 Alpha virt. eigenvalues --    1.82211   1.86027   1.94427   1.95684   1.98884
 Alpha virt. eigenvalues --    2.05762   2.09291   2.12758   2.18574   2.21608
 Alpha virt. eigenvalues --    2.24707   2.28259   2.29327   2.33501   2.37149
 Alpha virt. eigenvalues --    2.37720   2.46696   2.51268   2.52327   2.57087
 Alpha virt. eigenvalues --    2.61846   2.62067   2.69772   2.72694   2.76631
 Alpha virt. eigenvalues --    2.77875   2.80184   2.83143   2.83615   2.85321
 Alpha virt. eigenvalues --    2.88339   2.91454   2.93190   2.95185   2.97141
 Alpha virt. eigenvalues --    3.00159   3.03261   3.03505   3.06886   3.10860
 Alpha virt. eigenvalues --    3.12581   3.14133   3.16616   3.19429   3.21631
 Alpha virt. eigenvalues --    3.23504   3.26903   3.27926   3.29393   3.30353
 Alpha virt. eigenvalues --    3.31333   3.35190   3.37974   3.39247   3.41768
 Alpha virt. eigenvalues --    3.46235   3.48364   3.50883   3.53757   3.57336
 Alpha virt. eigenvalues --    3.58795   3.60266   3.65061   3.65652   3.69148
 Alpha virt. eigenvalues --    3.71620   3.73985   3.76194   3.81661   3.82827
 Alpha virt. eigenvalues --    3.84085   3.86701   3.88983   3.91498   3.92702
 Alpha virt. eigenvalues --    3.97533   4.00051   4.00602   4.03003   4.06040
 Alpha virt. eigenvalues --    4.09130   4.14720   4.21484   4.22777   4.24555
 Alpha virt. eigenvalues --    4.27123   4.31075   4.38352   4.47281   4.51895
 Alpha virt. eigenvalues --    4.52518   4.57212   4.57905   4.66145   4.72418
 Alpha virt. eigenvalues --    4.76289   4.80570   4.84692   4.87513   4.89456
 Alpha virt. eigenvalues --    4.92445   4.95037   4.97926   4.99415   5.03779
 Alpha virt. eigenvalues --    5.08236   5.15275   5.20615   5.23985   5.29246
 Alpha virt. eigenvalues --    5.34254   5.43852   5.48328   5.54203   5.58617
 Alpha virt. eigenvalues --    5.69163   5.71461   5.73678   5.82249   5.89251
 Alpha virt. eigenvalues --    5.97799   6.02460   6.17963   6.27920   6.29397
 Alpha virt. eigenvalues --    6.39914   6.51058   6.59029   6.64432   6.72298
 Alpha virt. eigenvalues --    6.73944   6.79787   6.83161   6.92752   7.01126
 Alpha virt. eigenvalues --    7.12434   7.21035   7.28584   7.34394  10.37923
 Alpha virt. eigenvalues --   10.86472  11.67281  12.88750  14.07692
          Condensed to atoms (all electrons):
               1          2          3          4          5          6
     1  O    7.848379   0.003004   0.283886   0.340744  -0.067358  -0.039099
     2  O    0.003004   7.804616   0.000184  -0.067728   0.335881  -0.000762
     3  C    0.283886   0.000184   4.713846  -0.049820  -0.024598   0.392474
     4  C    0.340744  -0.067728  -0.049820   4.962971   0.537685  -0.015121
     5  C   -0.067358   0.335881  -0.024598   0.537685   4.964204  -0.008881
     6  H   -0.039099  -0.000762   0.392474  -0.015121  -0.008881   0.695426
     7  H   -0.035102   0.000006   0.398544   0.002353   0.001360  -0.038812
     8  H   -0.036138   0.000004   0.406575   0.000015   0.002585  -0.048288
     9  H   -0.033562  -0.001800   0.006350   0.424341  -0.073727  -0.000315
    10  H   -0.001560  -0.032521  -0.010377  -0.069703   0.425089  -0.007788
    11  H    0.000250   0.324321  -0.000093  -0.007072  -0.050089  -0.000155
               7          8          9         10         11
     1  O   -0.035102  -0.036138  -0.033562  -0.001560   0.000250
     2  O    0.000006   0.000004  -0.001800  -0.032521   0.324321
     3  C    0.398544   0.406575   0.006350  -0.010377  -0.000093
     4  C    0.002353   0.000015   0.424341  -0.069703  -0.007072
     5  C    0.001360   0.002585  -0.073727   0.425089  -0.050089
     6  H   -0.038812  -0.048288  -0.000315  -0.007788  -0.000155
     7  H    0.617807  -0.045818  -0.000142   0.000310   0.000008
     8  H   -0.045818   0.611843  -0.000249   0.001345   0.000006
     9  H   -0.000142  -0.000249   0.528322   0.003001   0.003450
    10  H    0.000310   0.001345   0.003001   0.526291   0.006624
    11  H    0.000008   0.000006   0.003450   0.006624   0.458863
 Mulliken charges:
               1
     1  O   -0.263445
     2  O   -0.365205
     3  C   -0.116971
     4  C   -0.058664
     5  C   -0.042150
     6  H    0.071322
     7  H    0.099486
     8  H    0.108118
     9  H    0.144332
    10  H    0.159289
    11  H    0.263888
 Sum of Mulliken charges =  -0.00000
 Mulliken charges with hydrogens summed into heavy atoms:
               1
     1  O   -0.263445
     2  O   -0.101317
     3  C    0.161954
     4  C    0.085669
     5  C    0.117139
 APT charges:
               1
     1  O   -0.155650
     2  O   -0.509887
     3  C   -0.894439
     4  C   -0.409968
     5  C   -0.310005
     6  H    0.155694
     7  H    0.437926
     8  H    0.419697
     9  H    0.401056
    10  H    0.307319
    11  H    0.558257
 Sum of APT charges =  -0.00000
 APT charges with hydrogens summed into heavy atoms:
               1
     1  O   -0.155650
     2  O    0.048370
     3  C    0.118878
     4  C   -0.008912
     5  C   -0.002686
 Electronic spatial extent (au):  <R**2>=            501.7397
 Charge=             -0.0000 electrons
 Dipole moment (field-independent basis, Debye):
    X=              0.2244    Y=              0.0597    Z=              0.4375  Tot=              0.4953
 Quadrupole moment (field-independent basis, Debye-Ang):
   XX=            -30.1310   YY=            -28.1254   ZZ=            -32.0668
   XY=             -7.1316   XZ=             -1.2802   YZ=              0.2619
 Traceless Quadrupole moment (field-independent basis, Debye-Ang):
   XX=             -0.0233   YY=              1.9823   ZZ=             -1.9590
   XY=             -7.1316   XZ=             -1.2802   YZ=              0.2619
 Octapole moment (field-independent basis, Debye-Ang**2):
  XXX=              0.2514  YYY=              2.7731  ZZZ=              0.2944  XYY=             -5.5931
  XXY=              7.5895  XXZ=              3.4501  XZZ=              0.8268  YZZ=              0.1682
  YYZ=              0.0724  XYZ=             -1.0281
 Hexadecapole moment (field-independent basis, Debye-Ang**3):
 XXXX=           -448.3928 YYYY=           -104.9977 ZZZZ=            -39.2992 XXXY=            -36.1972
 XXXZ=            -10.1357 YYYX=              0.1153 YYYZ=              0.0191 ZZZX=             -0.0654
 ZZZY=              0.0970 XXYY=            -95.8841 XXZZ=            -82.2872 YYZZ=            -26.6282
 XXYZ=              2.6317 YYXZ=             -0.4054 ZZXY=             -0.0666
 N-N= 1.744995112000D+02 E-N=-9.772881640438D+02  KE= 2.666920550681D+02
  Exact polarizability:   0.000   0.000   0.000   0.000   0.000   0.000
 Approx polarizability:  61.332   5.866  56.617  -0.819   0.459  38.294
 No NMR shielding tensors so no spin-rotation constants.
 Leave Link  601 at Tue Sep 24 09:04:12 2019, MaxMem=   671088640 cpu:              49.0 elap:              24.5
 (Enter /shared/centos7/gaussian/g16/l701.exe)
 SCFChk:  SCF convergence  3.73D-09 required  1.00D-08
 ... and contract with generalized density number  0.
 Compute integral second derivatives.
 Entering OneElI...
 Calculate overlap and kinetic energy integrals
    NBasis = 265  MinDer = 2  MaxDer = 2
 Requested accuracy = 0.1000D-12
 PrmmSu-InSpLW:  IPartL=    0 NPrtUS=   20 NPrtUL=    1 DoSpLW=F IThBeg=    0 IThEnd=   19 NThAct=   20.
 PrsmSu:  NPrtUS=  20 ThrOK=T IAlg=1 NPAlg=1 LenDen=           0 ISkipM=0 DoSpLW=F IThBeg=    0 IThEnd=   19.
 Prism:   IPart=     0 DynPar=F LinDyn=F Incr=           1.
 PRISM was handed    33439745 working-precision words and  3729 shell-pairs
 PRISM was handed    33439745 working-precision words and  3729 shell-pairs
 PRISM was handed    33439745 working-precision words and  3729 shell-pairs
 PRISM was handed    33439745 working-precision words and  3729 shell-pairs
 PRISM was handed    33439745 working-precision words and  3729 shell-pairs
 PRISM was handed    33439745 working-precision words and  3729 shell-pairs
 PRISM was handed    33439745 working-precision words and  3729 shell-pairs
 PRISM was handed    33439745 working-precision words and  3729 shell-pairs
 IPart=  0 NShTot=         232 NBatch=          72 AvBLen=         3.2
 IPart=  8 NShTot=         182 NBatch=          28 AvBLen=         6.5
 PRISM was handed    33439745 working-precision words and  3729 shell-pairs
 PRISM was handed    33439745 working-precision words and  3729 shell-pairs
 PRISM was handed    33439745 working-precision words and  3729 shell-pairs
 PRISM was handed    33439745 working-precision words and  3729 shell-pairs
 PRISM was handed    33439745 working-precision words and  3729 shell-pairs
 PRISM was handed    33439745 working-precision words and  3729 shell-pairs
 PRISM was handed    33439745 working-precision words and  3729 shell-pairs
 PRISM was handed    33439745 working-precision words and  3729 shell-pairs
 IPart= 13 NShTot=         176 NBatch=          27 AvBLen=         6.5
 IPart=  3 NShTot=         209 NBatch=          49 AvBLen=         4.3
 PRISM was handed    33439745 working-precision words and  3729 shell-pairs
 IPart= 12 NShTot=         176 NBatch=          27 AvBLen=         6.5
 PRISM was handed    33439745 working-precision words and  3729 shell-pairs
 PRISM was handed    33439745 working-precision words and  3729 shell-pairs
 IPart= 10 NShTot=         177 NBatch=          27 AvBLen=         6.6
 IPart=  7 NShTot=         190 NBatch=          35 AvBLen=         5.4
 IPart=  5 NShTot=         198 NBatch=          42 AvBLen=         4.7
 PRISM was handed    33439745 working-precision words and  3729 shell-pairs
 IPart= 17 NShTot=         165 NBatch=          25 AvBLen=         6.6
 IPart= 16 NShTot=         166 NBatch=          25 AvBLen=         6.6
 IPart=  2 NShTot=         212 NBatch=          52 AvBLen=         4.1
 IPart= 19 NShTot=         163 NBatch=          25 AvBLen=         6.5
 IPart=  9 NShTot=         178 NBatch=          27 AvBLen=         6.6
 IPart= 18 NShTot=         164 NBatch=          25 AvBLen=         6.6
 IPart= 11 NShTot=         177 NBatch=          27 AvBLen=         6.6
 IPart= 14 NShTot=         172 NBatch=          27 AvBLen=         6.4
 IPart=  4 NShTot=         204 NBatch=          48 AvBLen=         4.3
 IPart= 15 NShTot=         169 NBatch=          26 AvBLen=         6.5
 IPart=  1 NShTot=         222 NBatch=          62 AvBLen=         3.6
 IPart=  6 NShTot=         197 NBatch=          41 AvBLen=         4.8
 PrSmSu:  NxtVal=             21.
 Entering OneElI...
 Calculate potential energy integrals
    NBasis = 265  MinDer = 2  MaxDer = 2
 Requested accuracy = 0.1000D-12
 PrmmSu-InSpLW:  IPartL=    0 NPrtUS=   20 NPrtUL=    1 DoSpLW=F IThBeg=    0 IThEnd=   19 NThAct=   20.
 PrsmSu:  NPrtUS=  20 ThrOK=T IAlg=1 NPAlg=1 LenDen=           0 ISkipM=0 DoSpLW=F IThBeg=    0 IThEnd=   19.
 Prism:   IPart=     0 DynPar=F LinDyn=F Incr=          19.
 PRISM was handed    33456144 working-precision words and  3522 shell-pairs
 PRISM was handed    33456144 working-precision words and  3522 shell-pairs
 PRISM was handed    33456144 working-precision words and  3522 shell-pairs
 PRISM was handed    33456144 working-precision words and  3522 shell-pairs
 PRISM was handed    33456144 working-precision words and  3522 shell-pairs
 PRISM was handed    33456144 working-precision words and  3522 shell-pairs
 PRISM was handed    33456144 working-precision words and  3522 shell-pairs
 PRISM was handed    33456144 working-precision words and  3522 shell-pairs
 PRISM was handed    33456144 working-precision words and  3522 shell-pairs
 PRISM was handed    33456144 working-precision words and  3522 shell-pairs
 PRISM was handed    33456144 working-precision words and  3522 shell-pairs
 PRISM was handed    33456144 working-precision words and  3522 shell-pairs
 PRISM was handed    33456144 working-precision words and  3522 shell-pairs
 PRISM was handed    33456144 working-precision words and  3522 shell-pairs
 PRISM was handed    33456144 working-precision words and  3522 shell-pairs
 PRISM was handed    33456144 working-precision words and  3522 shell-pairs
 PRISM was handed    33456144 working-precision words and  3522 shell-pairs
 PRISM was handed    33456144 working-precision words and  3522 shell-pairs
 PRISM was handed    33456144 working-precision words and  3522 shell-pairs
 PRISM was handed    33456144 working-precision words and  3522 shell-pairs
 IPart=  8 NShTot=        1892 NBatch=         172 AvBLen=        11.0
 IPart=  4 NShTot=        2101 NBatch=         191 AvBLen=        11.0
 IPart=  2 NShTot=        2244 NBatch=         204 AvBLen=        11.0
 IPart=  0 NShTot=        2431 NBatch=         221 AvBLen=        11.0
 IPart= 11 NShTot=        1815 NBatch=         165 AvBLen=        11.0
 IPart= 10 NShTot=        1870 NBatch=         170 AvBLen=        11.0
 IPart=  5 NShTot=        1980 NBatch=         180 AvBLen=        11.0
 IPart= 12 NShTot=        1815 NBatch=         165 AvBLen=        11.0
 IPart=  3 NShTot=        2134 NBatch=         194 AvBLen=        11.0
 IPart= 13 NShTot=        1815 NBatch=         165 AvBLen=        11.0
 IPart=  9 NShTot=        1881 NBatch=         171 AvBLen=        11.0
 IPart= 16 NShTot=        1760 NBatch=         160 AvBLen=        11.0
 IPart= 17 NShTot=        1760 NBatch=         160 AvBLen=        11.0
 IPart= 14 NShTot=        1804 NBatch=         164 AvBLen=        11.0
 IPart=  7 NShTot=        1903 NBatch=         173 AvBLen=        11.0
 IPart= 18 NShTot=        1749 NBatch=         159 AvBLen=        11.0
 IPart=  1 NShTot=        2332 NBatch=         212 AvBLen=        11.0
 IPart=  6 NShTot=        1947 NBatch=         177 AvBLen=        11.0
 IPart= 15 NShTot=        1760 NBatch=         160 AvBLen=        11.0
 IPart= 19 NShTot=        1749 NBatch=         159 AvBLen=        11.0
 PrSmSu:  NxtVal=            381.
 Polarizability after L701:
                1             2             3 
      1  0.000000D+00
      2  0.000000D+00  0.000000D+00
      3  0.000000D+00  0.000000D+00  0.000000D+00
 Dipole Derivatives after L701:
                 1             2             3             4             5 
      1  -0.646286D-01  0.101784D+00  0.129539D-01 -0.424882D+00  0.138221D+01
      2   0.195793D+00 -0.145254D+00  0.841665D-03  0.293057D+00 -0.670979D+00
      3   0.273285D-02 -0.376826D-02 -0.257067D+00  0.933486D-01 -0.132747D+00
                 6             7             8             9            10 
      1   0.385669D+00 -0.109833D+01  0.575629D+00 -0.311523D-01 -0.509865D+00
      2  -0.890730D-01  0.104772D+00 -0.804471D+00  0.122035D-01 -0.209797D-03
      3  -0.433800D+00  0.188415D-01 -0.412098D-02 -0.780514D+00 -0.427469D-01
                11            12            13            14            15 
      1  -0.701554D-01 -0.863998D-01 -0.313733D+00 -0.286571D+00  0.402527D-01
      2  -0.743582D+00  0.371264D-01 -0.102589D+00 -0.654197D+00 -0.299225D-01
      3   0.113903D-01  0.235412D-01 -0.262302D-01  0.786738D-01  0.379150D-01
                16            17            18            19            20 
      1  -0.645313D-01 -0.257676D+00  0.123887D-01  0.743017D+00 -0.152512D+00
      2   0.399660D+00  0.462655D+00 -0.668991D-03 -0.181780D+00  0.168165D+00
      3   0.123590D-01  0.227036D-01  0.689593D-01 -0.242483D+00  0.869723D-02
                21            22            23            24            25 
      1  -0.724562D+00  0.619397D+00 -0.180849D+00  0.734224D+00  0.216271D+00
      2   0.154961D+00 -0.158521D+00  0.187979D+00 -0.172798D+00 -0.204804D+00
      3   0.402596D+00  0.218405D+00 -0.214006D-01  0.451714D+00  0.590041D-02
                26            27            28            29            30 
      1  -0.184200D+00  0.427318D-02  0.994586D-01  0.220270D+00  0.171503D-01
      2   0.903370D+00 -0.246782D-01 -0.238189D+00  0.732436D+00  0.147072D-01
      3  -0.287516D-01  0.835273D-01  0.956653D-03 -0.484713D-01  0.900609D-01
                31            32            33 
      1   0.797827D+00 -0.114793D+01 -0.364798D+00
      2  -0.107191D+00  0.563876D+00  0.973008D-01
      3  -0.410840D-01  0.117794D+00  0.313067D+00
 Hessian after L701:
                1             2             3             4             5 
      1  0.359438D+01
      2  0.280579D+01  0.876839D+01
      3 -0.140362D+00 -0.338920D-01  0.145430D+02
      4  0.439866D+00  0.187477D+00  0.137475D-01  0.274119D+01
      5  0.224638D+00 -0.165427D+00  0.429785D-03  0.107336D+01  0.913644D+01
      6  0.181538D-01  0.343550D-02 -0.205792D+00  0.289454D+00 -0.124208D+01
      7 -0.530348D+01 -0.337552D+01 -0.195887D-01  0.204778D+00 -0.741351D-02
      8 -0.316511D+01 -0.533431D+00 -0.275027D-01 -0.182225D-02 -0.117887D+00
      9 -0.223754D-01 -0.852492D-02 -0.703858D+01  0.394588D-02 -0.317277D-02
     10  0.112603D+01 -0.521431D+00  0.282351D+00  0.602966D-01  0.364888D+00
     11 -0.707399D+00 -0.805695D+01  0.549402D-01  0.267763D+00  0.289159D-01
     12  0.220616D+00  0.394470D-01 -0.810057D+01 -0.134650D-01 -0.257224D-01
     13  0.721747D-01  0.356298D+00 -0.109718D+00  0.983822D+00 -0.700804D-01
     14  0.377774D+00  0.994674D-01 -0.115835D-01 -0.175314D+00 -0.770476D+01
     15 -0.567454D-01 -0.112553D-01  0.202134D+00  0.816505D-01  0.102651D+00
     16  0.178605D+00  0.211935D+00  0.106425D-01  0.323429D-03 -0.501541D-02
     17  0.140046D+00  0.625904D-02  0.494491D-01 -0.371810D-01 -0.163890D-01
     18  0.945475D-02  0.310490D-01  0.936492D-01  0.382835D-03  0.362704D-03
     19  0.358006D-01  0.104292D+00 -0.135422D+00  0.299513D-01  0.271574D-02
     20  0.118169D+00 -0.159511D+00  0.454787D-01 -0.431511D-02 -0.935807D-02
     21 -0.122006D+00  0.574362D-01  0.240299D+00 -0.169297D-01 -0.355209D-02
     22  0.305730D-01  0.112030D+00  0.126784D+00  0.280391D-01  0.208633D-02
     23  0.115483D+00 -0.177395D+00 -0.514208D-01 -0.552405D-02 -0.991655D-02
     24  0.119624D+00 -0.655779D-01  0.269777D+00  0.190732D-01  0.346436D-02
     25 -0.213658D+00  0.809791D-01 -0.627967D-02 -0.122548D-01  0.392087D-01
     26  0.309985D-01  0.159048D+00 -0.287107D-02  0.797698D-01  0.835024D-01
     27 -0.712611D-02 -0.969033D-03  0.597089D-01  0.231819D-02  0.145866D-03
     28 -0.159418D-01  0.368396D-01 -0.193741D-01 -0.198360D+00  0.894475D-01
     29  0.102079D+00  0.786541D-01 -0.259235D-01  0.430561D-01  0.120678D+00
     30 -0.481153D-02 -0.104168D-01 -0.473413D-01  0.321292D-01 -0.253875D-01
     31  0.556463D-01  0.131624D-02 -0.277965D-02 -0.427765D+01 -0.171383D+01
     32 -0.424639D-01 -0.191089D-01  0.289579D-02 -0.142727D+01 -0.134580D+01
     33 -0.144222D-01 -0.731787D-03 -0.162973D-01 -0.412307D+00  0.119286D+01
                6             7             8             9            10 
      6  0.127022D+02
      7  0.107851D-01  0.122937D+02
      8 -0.177718D-02  0.290524D+01  0.939361D+01
      9 -0.109721D+00  0.994359D-01 -0.154733D-01  0.153014D+02
     10 -0.473755D-01  0.268697D+00 -0.348124D+00 -0.266303D-01  0.703088D+01
     11 -0.376503D-01 -0.281624D+00  0.237100D-01  0.211795D-01 -0.278451D+01
     12  0.138386D+00 -0.371957D-01  0.284322D-01 -0.175312D+00 -0.303406D+00
     13  0.166388D+00  0.236556D+00  0.367382D-01 -0.234085D-01 -0.508538D+01
     14  0.132740D+00 -0.724501D-01 -0.184412D+00  0.721182D-02  0.422071D+01
     15 -0.768022D+01 -0.198547D-01  0.662239D-02 -0.177146D+00  0.863865D-01
     16 -0.465909D-02 -0.263249D+01  0.113370D+01  0.559841D-01 -0.325921D-01
     17  0.730397D-03  0.143625D+01 -0.200532D+01  0.770361D-01  0.228830D-01
     18 -0.228827D-01  0.659879D-01  0.740088D-01 -0.362683D+01  0.995469D-02
     19 -0.611653D-02 -0.232860D+01 -0.249840D+00 -0.116071D+01  0.757404D-01
     20  0.477516D-03 -0.277323D+00 -0.324005D+01  0.338246D+00 -0.537370D-01
     21 -0.620822D-02 -0.107973D+01  0.282751D+00 -0.203564D+01 -0.644661D-01
     22  0.995034D-02 -0.279471D+01 -0.247157D+00  0.106839D+01  0.385817D-01
     23 -0.120470D-02 -0.268860D+00 -0.342554D+01 -0.415090D+00 -0.433863D-01
     24 -0.346288D-02  0.973953D+00 -0.345475D+00 -0.206703D+01  0.566238D-01
     25  0.444509D-02  0.475652D-01 -0.940765D-01  0.128499D-02 -0.366560D+01
     26  0.676615D-02 -0.112187D+00  0.699988D-01 -0.180747D-02 -0.746645D+00
     27 -0.497416D-01  0.296117D-02 -0.305071D-02 -0.416665D-01  0.145067D-01
     28  0.594570D-01 -0.899122D-02  0.312338D-01  0.577094D-02  0.230105D+00
     29 -0.483980D-01  0.742345D-01  0.266770D-01 -0.174958D-02 -0.963064D-01
     30  0.547498D-01  0.932994D-02  0.648550D-03 -0.233733D-01  0.197851D-01
     31 -0.500483D+00  0.169825D-01 -0.787575D-03 -0.168848D-02 -0.467636D-01
     32  0.118696D+01 -0.203454D-01 -0.736149D-02  0.214459D-02 -0.143413D-01
     33 -0.481727D+01 -0.607954D-02  0.816290D-03 -0.606057D-02 -0.277292D-01
               11            12            13            14            15 
     11  0.135704D+02
     12  0.887015D-01  0.243326D+02
     13  0.438546D+01  0.103191D+00  0.712678D+01
     14 -0.364391D+01 -0.133167D+00 -0.335745D+01  0.134547D+02
     15 -0.120545D+00 -0.124780D+02 -0.173802D+00 -0.276102D-01  0.241228D+02
     16  0.674196D-01  0.126716D-01 -0.744496D-02 -0.123369D+00  0.317278D-01
     17 -0.212735D-01 -0.178442D-01 -0.178301D+00  0.925570D-01 -0.186263D-01
     18 -0.174496D-01  0.427981D-02  0.246795D-01 -0.743971D-02 -0.585278D-01
     19 -0.508952D-01 -0.492232D-01  0.694141D-01 -0.354931D-02 -0.107234D-01
     20 -0.132141D-01  0.171218D-01 -0.968314D-02 -0.222515D-01 -0.264449D-02
     21  0.273178D-01 -0.466454D-02 -0.292021D-01  0.707190D-03 -0.167374D-01
     22 -0.396324D-01  0.389856D-01  0.830984D-01 -0.152027D-01  0.187888D-01
     23 -0.640898D-02 -0.172022D-01 -0.219544D-01 -0.239162D-01 -0.840394D-03
     24 -0.288455D-01  0.153617D-02  0.377460D-01 -0.393681D-02 -0.164449D-01
     25 -0.768804D+00  0.175226D-01  0.223946D+00 -0.128331D+00  0.424380D-02
     26 -0.152120D+01 -0.819169D-01 -0.141473D+00 -0.342575D+00  0.326614D-01
     27 -0.751584D-01 -0.391038D+01  0.714394D-02  0.266922D-01  0.207708D+00
     28 -0.148415D+00  0.184101D-01 -0.384661D+01 -0.814901D+00 -0.163809D-01
     29 -0.351135D+00  0.104454D+00 -0.959161D+00 -0.177522D+01  0.574623D-01
     30  0.939540D-01  0.192140D+00 -0.142332D-01  0.313594D-01 -0.417687D+01
     31  0.606347D-01 -0.810659D-02  0.143644D+00  0.920864D-01  0.547088D-01
     32 -0.895947D-02 -0.230379D-02 -0.403921D-01  0.503600D-01 -0.178754D-01
     33 -0.644401D-02  0.675638D-04  0.112146D-01 -0.149737D-01  0.713394D-01
               16            17            18            19            20 
     16  0.268962D+01
     17 -0.109650D+01  0.179490D+01
     18 -0.529297D-01 -0.562242D-01  0.356844D+01
     19 -0.108171D+00 -0.121175D+00  0.139182D+00  0.205666D+01
     20 -0.932435D-01  0.679454D-01  0.703537D-01  0.325789D+00  0.323924D+01
     21  0.117514D+00  0.753611D-01  0.461462D-01  0.118997D+01 -0.462990D+00
     22 -0.102169D+00 -0.146195D+00 -0.196116D+00  0.155913D+00 -0.416622D-02
     23 -0.105140D+00  0.964203D-01 -0.941599D-01 -0.597960D-02  0.136570D+00
     24 -0.171089D+00 -0.111110D+00  0.230341D-01  0.402532D-01 -0.603594D-02
     25 -0.352130D-02 -0.356394D-02  0.187068D-03  0.275653D-02 -0.122959D-02
     26  0.522407D-02  0.938232D-02 -0.473051D-03 -0.861718D-02  0.279291D-02
     27 -0.203251D-03 -0.796571D-04 -0.210418D-02 -0.966446D-03  0.699550D-03
     28  0.202020D-01 -0.113944D-01 -0.742244D-03  0.613867D-02  0.123294D-02
     29  0.303938D-02 -0.307036D-01 -0.191034D-03  0.131430D-01 -0.317053D-02
     30 -0.192935D-03 -0.642202D-03 -0.241436D-01 -0.402808D-02 -0.120482D-02
     31 -0.235893D-02 -0.487160D-02 -0.409398D-04  0.440473D-02 -0.149292D-02
     32  0.194177D-02  0.621939D-02  0.163305D-03 -0.588266D-02  0.100768D-02
     33  0.534409D-03  0.194942D-02 -0.105704D-02 -0.222097D-02  0.497920D-03
               21            22            23            24            25 
     21  0.206774D+01
     22  0.140925D-01  0.253958D+01
     23  0.200902D-01  0.335268D+00  0.341251D+01
     24 -0.288227D+00 -0.108937D+01  0.559343D+00  0.208564D+01
     25 -0.356111D-02  0.149006D-02 -0.581735D-03  0.346765D-02  0.361411D+01
     26  0.641855D-02 -0.680156D-02  0.267943D-02 -0.670971D-02  0.871281D+00
     27 -0.117509D-02  0.111701D-02 -0.818688D-03 -0.654822D-03 -0.150655D-01
     28 -0.262518D-02  0.153012D-01  0.228343D-02  0.656630D-02 -0.142051D-01
     29 -0.763056D-02  0.153626D-01 -0.615990D-02  0.913886D-02 -0.628512D-02
     30 -0.239011D-02  0.860708D-02  0.995213D-03 -0.246734D-02 -0.450668D-03
     31 -0.305292D-02  0.429872D-02 -0.160777D-02  0.315188D-02  0.193642D-01
     32  0.409057D-02 -0.559192D-02  0.115508D-02 -0.425598D-02  0.114035D-01
     33  0.858436D-03 -0.122553D-02  0.307799D-03 -0.170273D-02 -0.579429D-02
               26            27            28            29            30 
     26  0.149419D+01
     27  0.567528D-01  0.375616D+01
     28 -0.732945D-02  0.108258D-03  0.377784D+01
     29  0.597703D-01 -0.243583D-02  0.884130D+00  0.182690D+01
     30  0.638939D-03 -0.361761D-02 -0.400996D-01 -0.966622D-01  0.405344D+01
     31  0.357805D-01 -0.479395D-02  0.345282D-01 -0.732931D-01 -0.603529D-02
     32 -0.175867D-01 -0.177812D-02 -0.631279D-01  0.537143D-01  0.671742D-02
     33 -0.945964D-02 -0.142365D-01 -0.110906D-01  0.119356D-01 -0.201289D-01
               31            32            33 
     31  0.404791D+01
     32  0.160607D+01  0.128636D+01
     33  0.469120D+00 -0.117676D+01  0.480449D+01
 Leave Link  701 at Tue Sep 24 09:04:32 2019, MaxMem=   671088640 cpu:              39.6 elap:              19.8
 (Enter /shared/centos7/gaussian/g16/l702.exe)
 L702 exits ... SP integral derivatives will be done elsewhere.
 Leave Link  702 at Tue Sep 24 09:04:32 2019, MaxMem=   671088640 cpu:               1.4 elap:               0.7
 (Enter /shared/centos7/gaussian/g16/l703.exe)
 Integral derivatives from FoFJK, PRISM(SPDF).
 Compute integral second derivatives, UseDBF=F ICtDFT=           0.
 ICntrl=    100147.
 Calling FoFJK, ICntrl=    100147 FMM=F ISym2X=0 I1Cent= 0 IOpClX= 0 NMat=1 NMatS=1 NMatT=0.
 FoFJK:  IHMeth= 1 ICntrl=  100147 DoSepK=F KAlg= 0 I1Cent=           0 FoldK=F
 IRaf=         0 NMat=       1 IRICut=       1 DoRegI=T DoRafI=F ISym2E= 0 IDoP0=0 IntGTp=1.
 FoFCou: FMM=F IPFlag=           0 FMFlag=      100000 FMFlg1=         800
         NFxFlg=           0 DoJE=F BraDBF=F KetDBF=F FulRan=T
         wScrn=  0.000000 ICntrl=    100147 IOpCl=  0 I1Cent=           0 NGrid=           0
         NMat0=    1 NMatS0=      1 NMatT0=    0 NMatD0=    1 NMtDS0=    0 NMtDT0=    0
 Symmetry not used in FoFCou.
 FoFCou:  KetSym=F NOpSet=  1 NOpAb=1 NOp=  1.
 FoFCou:  CnvScl= 1.00D+00 Thresh= 1.00D-08 IAcrcy=      12.
 PrismS was handed   670742223 working-precision words and  3628 shell-pairs
 FoFCou: LinMIO=F DoNuc=F BraDBF=F KetDBF=F HaveP=T PDBF=F HaveZ=T HaveW=F
         NIJTC =      10 NIJTAt=       0 NIJTCD=       0 NIJTT =      10
         IJTBeg=       1 IJTEnd=      10 KLTBeg=       1 KLTEnd=      10
         IPTBeg=       1 IPTEnd=      10 IPTBCv=       1 IPTECv=      10
         IZTBeg=       1 IZTEnd=      10 IZTBCv=       1 IZTECv=      10
         IWTBeg=      11 IWTEnd=      10 IWTBCv=      11 IWTECv=      10
         INTBeg=       1 INTEnd=       0 IFTBCv=       1 IFTECv=      10
 NCel replicated for PrismC:     1
 CoulSu-InSpLW:  IPartL=    0 NPrtUS=   20 NPrtUL=    1 DoSpLW=F IThBeg=    0 IThEnd=   19 NThAct=   20.
 CoulSu:  IncDef=  1024 NBBP=        6583006 NTPThr=   100 NPartT=   20 Incr=        1024 LDynOK=F GPUOK=T.
 CoulSu:  NPrtUS=  20 ThrOK=T IAlg=1 NPAlg=1 LenDen=           0 LWGrdD=           0 DoCopy=F ISkipM=0
          DoSpLW=F IThBeg=    0 IThEnd=   19.
 Enter PrismC:  IPart=  0 JobTyp=22 DoJE=F Cont=F.
 PrismC:  IPart=     0 DynPar=T LinDyn=F Incr=        1024 UseFst=F UseS4=T ISplat=2.
 PrismC was handed    33457030 working-precision words and  3628 shell-pairs
 Enter PrismC:  IPart=  4 JobTyp=22 DoJE=F Cont=F.
 PrismC:  IPart=     4 DynPar=T LinDyn=F Incr=        1024 UseFst=F UseS4=T ISplat=2.
 PrismC was handed    33457030 working-precision words and  3628 shell-pairs
 Enter PrismC:  IPart= 10 JobTyp=22 DoJE=F Cont=F.
 PrismC:  IPart=    10 DynPar=T LinDyn=F Incr=        1024 UseFst=F UseS4=T ISplat=2.
 PrismC was handed    33457030 working-precision words and  3628 shell-pairs
 Enter PrismC:  IPart=  9 JobTyp=22 DoJE=F Cont=F.
 PrismC:  IPart=     9 DynPar=T LinDyn=F Incr=        1024 UseFst=F UseS4=T ISplat=2.
 PrismC was handed    33457030 working-precision words and  3628 shell-pairs
 Enter PrismC:  IPart= 13 JobTyp=22 DoJE=F Cont=F.
 PrismC:  IPart=    13 DynPar=T LinDyn=F Incr=        1024 UseFst=F UseS4=T ISplat=2.
 PrismC was handed    33457030 working-precision words and  3628 shell-pairs
 Enter PrismC:  IPart=  2 JobTyp=22 DoJE=F Cont=F.
 PrismC:  IPart=     2 DynPar=T LinDyn=F Incr=        1024 UseFst=F UseS4=T ISplat=2.
 PrismC was handed    33457030 working-precision words and  3628 shell-pairs
 Enter PrismC:  IPart= 14 JobTyp=22 DoJE=F Cont=F.
 PrismC:  IPart=    14 DynPar=T LinDyn=F Incr=        1024 UseFst=F UseS4=T ISplat=2.
 PrismC was handed    33457030 working-precision words and  3628 shell-pairs
 Enter PrismC:  IPart= 16 JobTyp=22 DoJE=F Cont=F.
 PrismC:  IPart=    16 DynPar=T LinDyn=F Incr=        1024 UseFst=F UseS4=T ISplat=2.
 PrismC was handed    33457030 working-precision words and  3628 shell-pairs
 Enter PrismC:  IPart= 12 JobTyp=22 DoJE=F Cont=F.
 PrismC:  IPart=    12 DynPar=T LinDyn=F Incr=        1024 UseFst=F UseS4=T ISplat=2.
 PrismC was handed    33457030 working-precision words and  3628 shell-pairs
 Enter PrismC:  IPart= 15 JobTyp=22 DoJE=F Cont=F.
 PrismC:  IPart=    15 DynPar=T LinDyn=F Incr=        1024 UseFst=F UseS4=T ISplat=2.
 PrismC was handed    33457030 working-precision words and  3628 shell-pairs
 Enter PrismC:  IPart= 11 JobTyp=22 DoJE=F Cont=F.
 PrismC:  IPart=    11 DynPar=T LinDyn=F Incr=        1024 UseFst=F UseS4=T ISplat=2.
 PrismC was handed    33457030 working-precision words and  3628 shell-pairs
 Enter PrismC:  IPart=  7 JobTyp=22 DoJE=F Cont=F.
 PrismC:  IPart=     7 DynPar=T LinDyn=F Incr=        1024 UseFst=F UseS4=T ISplat=2.
 PrismC was handed    33457030 working-precision words and  3628 shell-pairs
 Enter PrismC:  IPart= 17 JobTyp=22 DoJE=F Cont=F.
 PrismC:  IPart=    17 DynPar=T LinDyn=F Incr=        1024 UseFst=F UseS4=T ISplat=2.
 PrismC was handed    33457030 working-precision words and  3628 shell-pairs
 Enter PrismC:  IPart= 19 JobTyp=22 DoJE=F Cont=F.
 PrismC:  IPart=    19 DynPar=T LinDyn=F Incr=        1024 UseFst=F UseS4=T ISplat=2.
 PrismC was handed    33457030 working-precision words and  3628 shell-pairs
 Enter PrismC:  IPart=  8 JobTyp=22 DoJE=F Cont=F.
 PrismC:  IPart=     8 DynPar=T LinDyn=F Incr=        1024 UseFst=F UseS4=T ISplat=2.
 PrismC was handed    33457030 working-precision words and  3628 shell-pairs
 Enter PrismC:  IPart=  5 JobTyp=22 DoJE=F Cont=F.
 PrismC:  IPart=     5 DynPar=T LinDyn=F Incr=        1024 UseFst=F UseS4=T ISplat=2.
 PrismC was handed    33457030 working-precision words and  3628 shell-pairs
 Enter PrismC:  IPart=  6 JobTyp=22 DoJE=F Cont=F.
 PrismC:  IPart=     6 DynPar=T LinDyn=F Incr=        1024 UseFst=F UseS4=T ISplat=2.
 PrismC was handed    33457030 working-precision words and  3628 shell-pairs
 Enter PrismC:  IPart=  3 JobTyp=22 DoJE=F Cont=F.
 PrismC:  IPart=     3 DynPar=T LinDyn=F Incr=        1024 UseFst=F UseS4=T ISplat=2.
 PrismC was handed    33457030 working-precision words and  3628 shell-pairs
 Enter PrismC:  IPart=  1 JobTyp=22 DoJE=F Cont=F.
 PrismC:  IPart=     1 DynPar=T LinDyn=F Incr=        1024 UseFst=F UseS4=T ISplat=2.
 PrismC was handed    33457030 working-precision words and  3628 shell-pairs
 Enter PrismC:  IPart= 18 JobTyp=22 DoJE=F Cont=F.
 PrismC:  IPart=    18 DynPar=T LinDyn=F Incr=        1024 UseFst=F UseS4=T ISplat=2.
 PrismC was handed    33457030 working-precision words and  3628 shell-pairs
 IPart= 11 NShTot=      258691 NShNF=      258691 NShFF=           0 MinMC=       7
           NShCPU=      258691 NBCPU=       10320 AvBCPU=        25.1
           NShGPU=           0 NBGPU=           0 AvBGPU=         0.0
 IPart=  2 NShTot=      248988 NShNF=      248988 NShFF=           0 MinMC=       7
           NShCPU=      248988 NBCPU=       10529 AvBCPU=        23.6
           NShGPU=           0 NBGPU=           0 AvBGPU=         0.0
 IPart= 14 NShTot=      190393 NShNF=      190393 NShFF=           0 MinMC=       7
           NShCPU=      190393 NBCPU=        7898 AvBCPU=        24.1
           NShGPU=           0 NBGPU=           0 AvBGPU=         0.0
 IPart=  3 NShTot=      258985 NShNF=      258985 NShFF=           0 MinMC=       7
           NShCPU=      258985 NBCPU=       10915 AvBCPU=        23.7
           NShGPU=           0 NBGPU=           0 AvBGPU=         0.0
 IPart= 16 NShTot=      197440 NShNF=      197440 NShFF=           0 MinMC=       7
           NShCPU=      197440 NBCPU=        8555 AvBCPU=        23.1
           NShGPU=           0 NBGPU=           0 AvBGPU=         0.0
 IPart= 15 NShTot=      184379 NShNF=      184379 NShFF=           0 MinMC=       7
           NShCPU=      184379 NBCPU=        8302 AvBCPU=        22.2
           NShGPU=           0 NBGPU=           0 AvBGPU=         0.0
 IPart=  8 NShTot=      246618 NShNF=      246618 NShFF=           0 MinMC=       7
           NShCPU=      246618 NBCPU=       10446 AvBCPU=        23.6
           NShGPU=           0 NBGPU=           0 AvBGPU=         0.0
 IPart=  7 NShTot=      194902 NShNF=      194902 NShFF=           0 MinMC=       7
           NShCPU=      194902 NBCPU=        8451 AvBCPU=        23.1
           NShGPU=           0 NBGPU=           0 AvBGPU=         0.0
 IPart=  0 NShTot=      194068 NShNF=      194068 NShFF=           0 MinMC=       7
           NShCPU=      194068 NBCPU=        8634 AvBCPU=        22.5
           NShGPU=           0 NBGPU=           0 AvBGPU=         0.0
 IPart= 19 NShTot=      262794 NShNF=      262794 NShFF=           0 MinMC=       7
           NShCPU=      262794 NBCPU=       10601 AvBCPU=        24.8
           NShGPU=           0 NBGPU=           0 AvBGPU=         0.0
 IPart=  9 NShTot=      248035 NShNF=      248035 NShFF=           0 MinMC=       7
           NShCPU=      248035 NBCPU=       10184 AvBCPU=        24.4
           NShGPU=           0 NBGPU=           0 AvBGPU=         0.0
 IPart= 10 NShTot=      264014 NShNF=      264014 NShFF=           0 MinMC=       7
           NShCPU=      264014 NBCPU=       11065 AvBCPU=        23.9
           NShGPU=           0 NBGPU=           0 AvBGPU=         0.0
 IPart= 13 NShTot=      254306 NShNF=      254306 NShFF=           0 MinMC=       7
           NShCPU=      254306 NBCPU=       10195 AvBCPU=        24.9
           NShGPU=           0 NBGPU=           0 AvBGPU=         0.0
 IPart=  4 NShTot=      255855 NShNF=      255855 NShFF=           0 MinMC=       7
           NShCPU=      255855 NBCPU=       10362 AvBCPU=        24.7
           NShGPU=           0 NBGPU=           0 AvBGPU=         0.0
 IPart=  5 NShTot=      204304 NShNF=      204304 NShFF=           0 MinMC=       7
           NShCPU=      204304 NBCPU=        8849 AvBCPU=        23.1
           NShGPU=           0 NBGPU=           0 AvBGPU=         0.0
 IPart= 17 NShTot=      205188 NShNF=      205188 NShFF=           0 MinMC=       7
           NShCPU=      205188 NBCPU=        8671 AvBCPU=        23.7
           NShGPU=           0 NBGPU=           0 AvBGPU=         0.0
 IPart=  1 NShTot=      188998 NShNF=      188998 NShFF=           0 MinMC=       7
           NShCPU=      188998 NBCPU=        8292 AvBCPU=        22.8
           NShGPU=           0 NBGPU=           0 AvBGPU=         0.0
 IPart= 12 NShTot=      195305 NShNF=      195305 NShFF=           0 MinMC=       7
           NShCPU=      195305 NBCPU=        8536 AvBCPU=        22.9
           NShGPU=           0 NBGPU=           0 AvBGPU=         0.0
 IPart=  6 NShTot=      197320 NShNF=      197320 NShFF=           0 MinMC=       7
           NShCPU=      197320 NBCPU=        8347 AvBCPU=        23.6
           NShGPU=           0 NBGPU=           0 AvBGPU=         0.0
 IPart= 18 NShTot=      213793 NShNF=      213793 NShFF=           0 MinMC=       7
           NShCPU=      213793 NBCPU=        8086 AvBCPU=        26.4
           NShGPU=           0 NBGPU=           0 AvBGPU=         0.0
 CoulSu:  NxtVal=        7019521 LenVP=       33457031 MinMC=       7.
 ReadGW:  IGet=0 IStart=           1 Next=           1 LGW=           0.
 Remaining memory in FofDFT      639.93 Mw
 CkSvGd:  ISavGI=        -1 IRadAn=       5 IRASav=       5 ISavGd=        -1.
 CalDSu-InSpLW:  IPartL=    0 NPrtUS=   20 NPrtUL=    1 DoSpLW=F IThBeg=    0 IThEnd=   19 NThAct=   20.
 CalDSu:  NPrtUS=  20 ThrOK=T IAlg=1 NPAlg=2 DoDPD=T LenP=       35245 LenD1P=             0 GPUOK=F
          ISkipM=0 DoSpLW=F IThBeg=    0 IThEnd=   19.
 IPart=  0 IRanGd=          0 ScrnBf=T ScrnGd=T RCrit=4.00D+00 DoMicB=T.
 IPart=  4        10941 of        11508 points in      12 batches and       45 microbatches, Max-NSigAt=      11 Max-NSgAt2=      11
 IPart=  7        12184 of        14146 points in      15 batches and       84 microbatches, Max-NSigAt=      11 Max-NSgAt2=      11
 IPart=  0        11482 of        12794 points in      13 batches and       67 microbatches, Max-NSigAt=      11 Max-NSgAt2=      11
 IPart=  5         9985 of        10688 points in      11 batches and       61 microbatches, Max-NSigAt=      11 Max-NSgAt2=      11
 IPart=  3        10813 of        11442 points in      11 batches and       63 microbatches, Max-NSigAt=      11 Max-NSgAt2=      11
 IPart= 17         9932 of        10468 points in      11 batches and       63 microbatches, Max-NSigAt=      11 Max-NSgAt2=      11
 IPart=  2        11043 of        11648 points in      11 batches and       62 microbatches, Max-NSigAt=      11 Max-NSgAt2=      11
 IPart=  1        10346 of        10742 points in      11 batches and       47 microbatches, Max-NSigAt=      11 Max-NSgAt2=      11
 IPart= 18         9701 of        10728 points in      12 batches and       75 microbatches, Max-NSigAt=      11 Max-NSgAt2=      11
 IPart= 11        11063 of        12638 points in      15 batches and       76 microbatches, Max-NSigAt=      11 Max-NSgAt2=      11
 IPart= 12        13284 of        15864 points in      18 batches and       80 microbatches, Max-NSigAt=      11 Max-NSgAt2=      11
 IPart= 19        10938 of        11654 points in      11 batches and       64 microbatches, Max-NSigAt=      11 Max-NSgAt2=      11
 IPart=  6        10761 of        11454 points in      11 batches and       73 microbatches, Max-NSigAt=      11 Max-NSgAt2=      11
 IPart= 15        11342 of        12314 points in      12 batches and       70 microbatches, Max-NSigAt=      11 Max-NSgAt2=      11
 IPart= 16        11397 of        11708 points in      11 batches and       41 microbatches, Max-NSigAt=      11 Max-NSgAt2=      11
 IPart= 13        12256 of        13748 points in      15 batches and       81 microbatches, Max-NSigAt=      11 Max-NSgAt2=      11
 IPart= 10        10802 of        11596 points in      12 batches and       64 microbatches, Max-NSigAt=      11 Max-NSgAt2=      11
 IPart=  9        11885 of        13346 points in      14 batches and       81 microbatches, Max-NSigAt=      11 Max-NSgAt2=      11
 IPart= 14        12697 of        14222 points in      15 batches and       68 microbatches, Max-NSigAt=      11 Max-NSgAt2=      11
 IPart=  8        12019 of        13692 points in      14 batches and       75 microbatches, Max-NSigAt=      11 Max-NSgAt2=      11
 Polarizability after L703:
                1             2             3 
      1  0.000000D+00
      2  0.000000D+00  0.000000D+00
      3  0.000000D+00  0.000000D+00  0.000000D+00
 Dipole Derivatives after L703:
                 1             2             3             4             5 
      1  -0.646286D-01  0.101784D+00  0.129539D-01 -0.424882D+00  0.138221D+01
      2   0.195793D+00 -0.145254D+00  0.841665D-03  0.293057D+00 -0.670979D+00
      3   0.273285D-02 -0.376826D-02 -0.257067D+00  0.933486D-01 -0.132747D+00
                 6             7             8             9            10 
      1   0.385669D+00 -0.109833D+01  0.575629D+00 -0.311523D-01 -0.509865D+00
      2  -0.890730D-01  0.104772D+00 -0.804471D+00  0.122035D-01 -0.209797D-03
      3  -0.433800D+00  0.188415D-01 -0.412098D-02 -0.780514D+00 -0.427469D-01
                11            12            13            14            15 
      1  -0.701554D-01 -0.863998D-01 -0.313733D+00 -0.286571D+00  0.402527D-01
      2  -0.743582D+00  0.371264D-01 -0.102589D+00 -0.654197D+00 -0.299225D-01
      3   0.113903D-01  0.235412D-01 -0.262302D-01  0.786738D-01  0.379150D-01
                16            17            18            19            20 
      1  -0.645313D-01 -0.257676D+00  0.123887D-01  0.743017D+00 -0.152512D+00
      2   0.399660D+00  0.462655D+00 -0.668991D-03 -0.181780D+00  0.168165D+00
      3   0.123590D-01  0.227036D-01  0.689593D-01 -0.242483D+00  0.869723D-02
                21            22            23            24            25 
      1  -0.724562D+00  0.619397D+00 -0.180849D+00  0.734224D+00  0.216271D+00
      2   0.154961D+00 -0.158521D+00  0.187979D+00 -0.172798D+00 -0.204804D+00
      3   0.402596D+00  0.218405D+00 -0.214006D-01  0.451714D+00  0.590041D-02
                26            27            28            29            30 
      1  -0.184200D+00  0.427318D-02  0.994586D-01  0.220270D+00  0.171503D-01
      2   0.903370D+00 -0.246782D-01 -0.238189D+00  0.732436D+00  0.147072D-01
      3  -0.287516D-01  0.835273D-01  0.956653D-03 -0.484713D-01  0.900609D-01
                31            32            33 
      1   0.797827D+00 -0.114793D+01 -0.364798D+00
      2  -0.107191D+00  0.563876D+00  0.973008D-01
      3  -0.410840D-01  0.117794D+00  0.313067D+00
 Hessian after L703:
                1             2             3             4             5 
      1  0.461493D+00
      2 -0.766776D-01  0.357275D+00
      3  0.746696D-02 -0.126763D-02  0.627450D-01
      4 -0.223948D-01  0.512722D-03 -0.184307D-02  0.461675D+00
      5 -0.137393D-02 -0.363849D-02  0.146021D-03 -0.683779D-01  0.393904D+00
      6 -0.341235D-02  0.102086D-02  0.110639D-01 -0.180262D-01  0.971119D-01
      7 -0.108092D+00  0.228211D-01 -0.127161D-02  0.395252D-02  0.206314D-02
      8  0.568971D-01 -0.198711D+00 -0.275648D-04 -0.735673D-02 -0.262310D-02
      9 -0.221281D-02  0.104856D-02 -0.592762D-01  0.542662D-03 -0.308704D-03
     10 -0.268485D+00  0.889008D-02 -0.477232D-02 -0.294017D-01 -0.355571D-01
     11 -0.271367D-01 -0.104367D+00 -0.128555D-02  0.126413D-02  0.108911D-01
     12 -0.582521D-02  0.135600D-02 -0.323494D-01 -0.204718D-03 -0.555290D-03
     13 -0.280613D-01 -0.295906D-01  0.359193D-02 -0.312225D+00  0.212873D-01
     14 -0.649328D-02  0.157118D-01  0.733252D-04 -0.218377D-01 -0.998465D-01
     15  0.195599D-02 -0.120370D-02  0.474843D-02 -0.116456D-01 -0.796083D-02
     16  0.111964D-01  0.146541D-01  0.782505D-03 -0.223257D-03  0.392843D-03
     17 -0.861690D-02 -0.361203D-01 -0.144161D-02  0.489386D-03  0.101741D-02
     18  0.444753D-03  0.117686D-04 -0.124470D-02  0.111372D-03  0.153661D-03
     19 -0.115683D-01  0.949834D-02  0.831392D-02 -0.811387D-03  0.304939D-03
     20  0.301827D-01 -0.139720D-01 -0.214542D-01  0.988162D-03  0.468591D-03
     21  0.856716D-04 -0.510465D-02  0.841191D-02  0.448908D-03  0.000000D+00
     22 -0.108584D-01  0.993562D-02 -0.105915D-01 -0.801692D-03  0.154072D-03
     23  0.294622D-01 -0.169706D-01  0.247253D-01  0.840785D-03  0.415033D-03
     24 -0.139231D-03  0.427280D-02  0.898998D-02 -0.467441D-03  0.432620D-05
     25 -0.229953D-01  0.363231D-01 -0.830165D-03  0.347031D-02 -0.222401D-03
     26  0.440483D-02  0.970689D-03 -0.491979D-04  0.404164D-03  0.248457D-02
     27 -0.574029D-03  0.503792D-03  0.167884D-02 -0.872370D-03  0.684941D-03
     28 -0.173197D-02  0.428171D-02 -0.740048D-04 -0.224972D-01  0.343154D-01
     29  0.162523D-02  0.383916D-03  0.129999D-03  0.342189D-02  0.308185D-02
     30  0.859255D-03 -0.264437D-03 -0.403286D-02  0.860992D-03 -0.643622D-04
     31  0.149735D-02 -0.648534D-03 -0.772646D-03 -0.807432D-01  0.470136D-01
     32 -0.227358D-02 -0.562259D-03  0.451145D-03  0.896511D-01 -0.306155D+00
     33  0.135100D-02 -0.373365D-03 -0.734862D-03  0.310955D-01 -0.892107D-01
                6             7             8             9            10 
      6  0.793956D-01
      7  0.546082D-03  0.550405D+00
      8 -0.977226D-03  0.184628D-01  0.449992D+00
      9  0.674799D-03  0.345655D-01 -0.751258D-02  0.548420D+00
     10  0.408068D-02 -0.234084D-01  0.263695D-01  0.165405D-03  0.651904D+00
     11 -0.804658D-03  0.440189D-01 -0.829774D-02  0.142064D-02  0.148681D+00
     12  0.309352D-02 -0.951224D-04  0.331870D-03 -0.626575D-02  0.388489D-02
     13  0.708899D-03 -0.530814D-02  0.447958D-03  0.112086D-03 -0.278906D+00
     14 -0.107661D-01 -0.576557D-02  0.232740D-02  0.342317D-03 -0.212007D+00
     15 -0.369420D-01 -0.248572D-03  0.213400D-03  0.119870D-02  0.228087D-02
     16 -0.163701D-03 -0.158207D+00 -0.103008D+00 -0.837109D-02  0.220659D-02
     17  0.363503D-03 -0.872104D-01 -0.145357D+00 -0.665226D-02 -0.926622D-02
     18 -0.326644D-03 -0.708072D-02 -0.600764D-02 -0.591329D-01  0.109405D-03
[...]
     Eigenvalues ---    0.04427   0.08806   0.08811   0.10931   0.13133
     Eigenvalues ---    0.13659   0.16237   0.17950   0.18678   0.20377
     Eigenvalues ---    0.22501   0.31079   0.33040   0.33499   0.35245
     Eigenvalues ---    0.36308   0.37434   0.40546   0.44209   0.51139
     Eigenvalues ---    0.54164   0.65553
 Angle between quadratic step and forces=  60.34 degrees.
 Linear search not attempted -- first point.
 Iteration  1 RMS(Cart)=  0.00001923 RMS(Int)=  0.00000000
 Iteration  2 RMS(Cart)=  0.00000000 RMS(Int)=  0.00000000
 ITry= 1 IFail=0 DXMaxC= 5.94D-05 DCOld= 1.00D+10 DXMaxT= 3.00D-01 DXLimC= 3.00D+00 Rises=F
 Variable       Old X    -DE/DX   Delta X   Delta X   Delta X     New X
                                 (Linear)    (Quad)   (Total)
    R1        2.65861   0.00000   0.00000  -0.00000  -0.00000   2.65861
    R2        2.56838   0.00000   0.00000   0.00001   0.00001   2.56838
    R3        2.58763  -0.00000   0.00000  -0.00001  -0.00001   2.58763
    R4        1.81657  -0.00000   0.00000  -0.00000  -0.00000   1.81657
    R5        2.06763   0.00000   0.00000   0.00000   0.00000   2.06763
    R6        2.05178  -0.00000   0.00000  -0.00000  -0.00000   2.05178
    R7        2.06763   0.00000   0.00000   0.00000   0.00000   2.06763
    R8        2.51126  -0.00000   0.00000  -0.00000  -0.00000   2.51125
    R9        2.04733   0.00000   0.00000   0.00000   0.00000   2.04733
   R10        2.03836   0.00000   0.00000   0.00000   0.00000   2.03836
    A1        2.01871   0.00000   0.00000   0.00000   0.00000   2.01872
    A2        1.91222  -0.00000   0.00000  -0.00000  -0.00000   1.91222
    A3        1.93529   0.00000   0.00000   0.00000   0.00000   1.93529
    A4        1.86506   0.00000   0.00000   0.00000   0.00000   1.86506
    A5        1.93529   0.00000   0.00000   0.00000   0.00000   1.93529
    A6        1.91339   0.00000   0.00000   0.00001   0.00001   1.91341
    A7        1.90114  -0.00000   0.00000  -0.00002  -0.00002   1.90113
    A8        1.91341  -0.00000   0.00000  -0.00000  -0.00000   1.91341
    A9        2.21964  -0.00000   0.00000  -0.00000  -0.00000   2.21963
   A10        1.94477   0.00000   0.00000   0.00000   0.00000   1.94478
   A11        2.11878  -0.00000   0.00000   0.00000   0.00000   2.11878
   A12        2.17287   0.00000   0.00000   0.00001   0.00001   2.17288
   A13        1.94815  -0.00000   0.00000  -0.00001  -0.00001   1.94814
   A14        2.16216  -0.00000   0.00000  -0.00000  -0.00000   2.16216
    D1        1.05716  -0.00000   0.00000  -0.00000  -0.00000   1.05716
    D2        3.14157   0.00000   0.00000   0.00002   0.00002   3.14159
    D3       -1.05717   0.00000   0.00000   0.00002   0.00002  -1.05716
    D4       -0.00001   0.00000   0.00000   0.00001   0.00001   0.00000
    D5        3.14158   0.00000   0.00000   0.00002   0.00002  -3.14159
    D6        0.00003  -0.00000   0.00000  -0.00003  -0.00003   0.00000
    D7       -3.14158   0.00000   0.00000  -0.00001  -0.00001  -3.14159
    D8       -3.14158  -0.00000   0.00000  -0.00001  -0.00001   3.14159
    D9        0.00003  -0.00000   0.00000  -0.00003  -0.00003   0.00000
   D10        0.00002  -0.00000   0.00000  -0.00002  -0.00002   0.00000
   D11       -3.14155  -0.00000   0.00000  -0.00004  -0.00004  -3.14159
         Item               Value     Threshold  Converged?
 Maximum Force            0.000003     0.000015     YES
 RMS     Force            0.000001     0.000010     YES
 Maximum Displacement     0.000059     0.000060     YES
 RMS     Displacement     0.000019     0.000040     YES
 Predicted change in Energy=-1.192685D-10
 Optimization completed.
    -- Stationary point found.
                           ----------------------------
                           !   Optimized Parameters   !
                           ! (Angstroms and Degrees)  !
 --------------------------                            --------------------------
 ! Name  Definition              Value          Derivative Info.                !
 --------------------------------------------------------------------------------
 ! R1    R(1,3)                  1.4069         -DE/DX =    0.0                 !
 ! R2    R(1,4)                  1.3591         -DE/DX =    0.0                 !
 ! R3    R(2,5)                  1.3693         -DE/DX =    0.0                 !
 ! R4    R(2,11)                 0.9613         -DE/DX =    0.0                 !
 ! R5    R(3,6)                  1.0941         -DE/DX =    0.0                 !
 ! R6    R(3,7)                  1.0858         -DE/DX =    0.0                 !
 ! R7    R(3,8)                  1.0941         -DE/DX =    0.0                 !
 ! R8    R(4,5)                  1.3289         -DE/DX =    0.0                 !
 ! R9    R(4,9)                  1.0834         -DE/DX =    0.0                 !
 ! R10   R(5,10)                 1.0787         -DE/DX =    0.0                 !
 ! A1    A(3,1,4)              115.6636         -DE/DX =    0.0                 !
 ! A2    A(5,2,11)             109.5623         -DE/DX =    0.0                 !
 ! A3    A(1,3,6)              110.884          -DE/DX =    0.0                 !
 ! A4    A(1,3,7)              106.8599         -DE/DX =    0.0                 !
 ! A5    A(1,3,8)              110.884          -DE/DX =    0.0                 !
 ! A6    A(6,3,7)              109.6292         -DE/DX =    0.0                 !
 ! A7    A(6,3,8)              108.9275         -DE/DX =    0.0                 !
 ! A8    A(7,3,8)              109.6303         -DE/DX =    0.0                 !
 ! A9    A(1,4,5)              127.1758         -DE/DX =    0.0                 !
 ! A10   A(1,4,9)              111.4273         -DE/DX =    0.0                 !
 ! A11   A(5,4,9)              121.3969         -DE/DX =    0.0                 !
 ! A12   A(2,5,4)              124.4964         -DE/DX =    0.0                 !
 ! A13   A(2,5,10)             111.6207         -DE/DX =    0.0                 !
 ! A14   A(4,5,10)             123.8829         -DE/DX =    0.0                 !
 ! D1    D(4,1,3,6)             60.5707         -DE/DX =    0.0                 !
 ! D2    D(4,1,3,7)            179.9988         -DE/DX =    0.0                 !
 ! D3    D(4,1,3,8)            -60.5717         -DE/DX =    0.0                 !
 ! D4    D(3,1,4,5)             -0.0006         -DE/DX =    0.0                 !
 ! D5    D(3,1,4,9)           -180.0009         -DE/DX =    0.0                 !
 ! D6    D(11,2,5,4)             0.0018         -DE/DX =    0.0                 !
 ! D7    D(11,2,5,10)         -179.9993         -DE/DX =    0.0                 !
 ! D8    D(1,4,5,2)            180.0007         -DE/DX =    0.0                 !
 ! D9    D(1,4,5,10)             0.002          -DE/DX =    0.0                 !
 ! D10   D(9,4,5,2)              0.001          -DE/DX =    0.0                 !
 ! D11   D(9,4,5,10)          -179.9977         -DE/DX =    0.0                 !
 --------------------------------------------------------------------------------
 GradGradGradGradGradGradGradGradGradGradGradGradGradGradGradGradGradGrad

 Leave Link  103 at Tue Sep 24 11:50:08 2019, MaxMem=   671088640 cpu:             105.6 elap:              53.2
 (Enter /shared/centos7/gaussian/g16/l9999.exe)

 ----------------------------------------------------------------------

 Electric dipole moment (input orientation):
 (Debye = 10**-18 statcoulomb cm , SI units = C m)
                  (au)            (Debye)         (10**-30 SI)
   Tot        0.167501D+00      0.425745D+00      0.142013D+01
   x         -0.568581D-02     -0.144519D-01     -0.482063D-01
   y         -0.167402D+00     -0.425494D+00     -0.141930D+01
   z          0.847417D-03      0.215392D-02      0.718470D-02

 Dipole polarizability, Alpha (input orientation).
 (esu units = cm**3 , SI units = C**2 m**2 J**-1)
 Alpha(0;0):
               (au)            (10**-24 esu)      (10**-40 SI)
   iso        0.437928D+02      0.648943D+01      0.722046D+01
   aniso      0.213475D+02      0.316337D+01      0.351973D+01
   xx         0.445581D+02      0.660283D+01      0.734664D+01
   yx         0.261398D+01      0.387352D+00      0.430987D+00
   yy         0.553907D+02      0.820806D+01      0.913270D+01
   zx         0.104792D+01      0.155286D+00      0.172779D+00
   zy         0.225204D-01      0.333718D-02      0.371312D-02
   zz         0.314296D+02      0.465738D+01      0.518204D+01

 ----------------------------------------------------------------------

 Dipole orientation:
     8          0.55738853          1.49946133          1.38935543
     8          0.62639423          1.50240181         -5.54079399
     6         -2.06298324          1.37635450          1.82144137
     6          1.27789745          1.53322542         -1.07565801
     6         -0.21469398          1.46299728         -3.09398596
     1         -2.86457001         -0.34571887          1.00472400
     1         -2.33073220          1.36380825          3.85563825
     1         -3.02250435          3.01563529          1.00463014
     1          3.31481877          1.62895759         -1.25825950
     1         -2.24866689          1.36746738         -3.00041762
     1          2.44087743          1.58760544         -5.55895019

 Electric dipole moment (dipole orientation):
 (Debye = 10**-18 statcoulomb cm , SI units = C m)
                  (au)            (Debye)         (10**-30 SI)
   Tot        0.167501D+00      0.425745D+00      0.142013D+01
   x          0.000000D+00      0.000000D+00      0.000000D+00
   y          0.000000D+00      0.000000D+00      0.000000D+00
   z          0.167501D+00      0.425745D+00      0.142013D+01

 Dipole polarizability, Alpha (dipole orientation).
 (esu units = cm**3 , SI units = C**2 m**2 J**-1)
 Alpha(0;0):
               (au)            (10**-24 esu)      (10**-40 SI)
   iso        0.437928D+02      0.648943D+01      0.722046D+01
   aniso      0.213475D+02      0.316337D+01      0.351973D+01
   xx         0.444501D+02      0.658682D+01      0.732883D+01
   yx         0.615674D+00      0.912335D-01      0.101511D+00
   yy         0.313739D+02      0.464914D+01      0.517287D+01
   zx        -0.223995D+01     -0.331927D+00     -0.369319D+00
   zy        -0.104157D+00     -0.154344D-01     -0.171731D-01
   zz         0.555544D+02      0.823232D+01      0.915969D+01

 ----------------------------------------------------------------------

 Test job not archived.
 1\1\GINC-C0312\Freq\RM062X\CC-pVTZ\C3H6O2\HARMS.N\24-Sep-2019\0\\#P Ge
 om=AllCheck Guess=TCheck SCRF=Check Test GenChk RM062X/CC-pVTZ Freq\\G
 aussian input prepared by ASE\\0,1\O,0.2428790194,-0.739814108,0.80674
 52165\O,0.4037863915,2.9240797197,0.7909864777\C,-1.1477348615,-0.9219
 28777,0.6957255917\C,0.6673944797,0.5510875782,0.8309449646\C,-0.08403
 5952,1.6449415045,0.7615890009\H,-1.5259998281,-0.4813323498,-0.231604
 8829\H,-1.3255750296,-1.9930039559,0.6897267254\H,-1.6695178929,-0.467
 4234077,1.5432620613\H,1.7456211505,0.6115902063,0.917674542\H,-1.1591
 085031,1.6314734406,0.6747810047\H,1.3616729788,2.9015515109,0.8685924
 899\\Version=EM64L-G16RevA.03\State=1-A\HF=-268.3193098\RMSD=4.418e-09
 \RMSF=1.293e-06\ZeroPoint=0.0911028\Thermal=0.0968973\Dipole=-0.005685
 8,-0.1674023,0.0008474\DipoleDeriv=-0.83272,-0.5689836,-0.0414193,-0.1
 910965,-1.295496,-0.0073642,-0.0443855,-0.0379295,-0.2685814,-0.320202
 8,-0.5359582,0.0072543,-0.1655815,-1.3132058,-0.0058802,0.0043454,-0.0
 358372,-0.3572545,0.7074114,0.3658081,0.0261592,0.038096,0.297965,0.00
 34756,0.0287321,0.0299801,0.3504711,0.2535391,0.4095246,0.029172,0.144
 7395,0.9845422,0.0028242,0.031256,0.0242343,-0.1445857,0.1277407,0.495
 3742,0.0189541,0.0752039,1.0071149,-0.0030512,0.0222504,0.0309364,-0.1
 532627,-0.022609,-0.0538913,-0.0107041,0.0604448,0.0328064,0.0969492,-
 0.0689646,0.0321888,-0.0985279,0.044199,-0.0279668,-0.002944,-0.064276
 1,-0.1093804,-0.0036871,-0.0026605,-0.0007541,0.0831261,-0.0371679,-0.
 0476078,0.0213237,0.0765423,0.0307742,-0.0877916,0.0777134,-0.0423139,
 -0.0819344,-0.0768673,-0.0708241,-0.0197582,-0.065627,0.0136468,-0.004
 0451,-0.0198013,-0.0044639,0.1727634,-0.0239791,-0.0515579,-0.0157646,
 -0.0140437,0.0596719,-0.0002213,-0.0160584,-0.0032566,0.1747371,0.1806
 558,0.0860828,-0.0122732,0.1055981,0.291561,0.0087917,-0.0124269,0.007
 2157,0.3230488\Polar=44.5581263,2.6139804,55.3907458,1.0479212,0.02252
 04,31.429585\Quadrupole=4.232138,-2.5832318,-1.6489063,3.868858,0.4478
 546,0.3198742\PG=C01 [X(C3H6O2)]\NImag=0\\0.46346734,0.11388313,0.4613
 5199,0.03048219,0.00618095,0.07787681,-0.00557467,-0.00638001,-0.00148
 094,0.64909171,-0.00779671,-0.02327999,-0.00034305,0.07045113,0.406686
 52,-0.00147002,-0.00022848,0.01324118,0.04985161,0.00270351,0.02954133
 ,-0.25134634,-0.03081216,-0.01489721,0.00150972,0.01121418,0.00003806,
 0.48940756,0.00864590,-0.08929142,0.00089646,-0.00034854,0.00078843,-0
 .00003479,-0.00077618,0.63768500,-0.01520687,-0.00229410,-0.06533758,0
 .00012884,0.00090037,-0.00004581,-0.00641058,-0.00059983,0.56823996,-0
 .12142953,-0.03847824,-0.00658520,0.01686516,-0.01812437,0.00134933,-0
 .03144478,-0.04806894,-0.00203654,0.76763553,-0.08410412,-0.31142611,-
 0.00464225,0.02028549,-0.03751486,0.00195061,-0.01819162,-0.01842251,-
 0.00133917,-0.12018861,0.79541609,-0.00622772,-0.00095251,-0.03675583,
 0.00104732,-0.00115566,0.00203637,-0.00227082,-0.00375505,-0.00175205,
 0.05386801,-0.01507437,0.11768918,0.01855122,-0.00583775,0.00136631,-0
 .13147577,-0.04575552,-0.00762380,0.00665041,-0.00374246,0.00058986,-0
 .28944317,0.18973056,-0.02083355,0.77920418,0.01886564,-0.03295742,0.0
 0180239,-0.09589450,-0.30001164,-0.00565408,-0.00211446,-0.00285762,-0
 .00015090,0.20515291,-0.39396703,0.01928886,-0.12655639,0.78612513,0.0
 0117286,-0.00019547,0.00231557,-0.00723013,-0.00160098,-0.03330114,0.0
 0057679,-0.00028243,-0.00023111,-0.02095415,0.01804121,-0.05207222,0.0
 5497391,-0.01553196,0.11613085,-0.03363958,0.00910183,-0.03403150,-0.0
 0038426,-0.00091424,0.00020231,-0.07093470,0.02869522,-0.06091907,0.00
 258018,0.00734774,-0.00033141,0.00161883,-0.00058244,0.00055700,0.0913
 0469,-0.00077046,0.00276274,-0.00550906,0.00003634,0.00094338,0.000400
 94,0.03197982,-0.09659994,0.09092462,-0.00107647,0.00389991,-0.0013170
 2,0.00182485,-0.00144117,-0.00026452,-0.03640152,0.09630500,-0.0089726
 1,-0.00230068,0.00383938,0.00028545,-0.00111603,0.00007177,-0.06595916
 ,0.08864070,-0.23927077,0.00144248,0.00125751,0.00065271,-0.00141685,0
 .00130155,-0.00065680,0.07918303,-0.09778124,0.25460511,-0.01854825,-0
 .04447089,-0.00114101,0.00038166,-0.00097385,0.00002779,-0.05034681,-0
 .02520379,0.00031350,-0.00557128,0.00174483,-0.00052970,-0.00109562,0.
 00121194,-0.00012650,0.00275486,0.00930590,0.00170047,0.06839177,-0.00
 506226,-0.00237831,-0.00039161,-0.00040281,-0.00037107,-0.00002862,-0.
 03963726,-0.32454789,-0.00107048,0.00011637,0.00245452,-0.00000354,0.0
 0054805,0.00028375,0.00004483,-0.00047820,-0.01029992,-0.00084191,0.04
 600056,0.34563788,-0.00144984,-0.00357838,-0.00021751,0.00002331,-0.00
 007480,0.00013494,0.00042652,0.00009644,-0.05174992,-0.00051676,0.0001
 2831,0.00076591,-0.00012131,0.00009857,0.00034096,0.00399660,0.0273479
 1,0.00197174,0.00134432,0.00138449,0.04741211,-0.03948270,0.00908605,0
 .02684663,-0.00029639,-0.00108409,-0.00024567,-0.09528817,0.04386864,0
 .08355931,0.00271432,0.00746522,0.00055084,0.00142546,-0.00037271,-0.0
 0021181,0.00692398,-0.00426193,-0.00685729,0.00365434,-0.00068324,-0.0
 0374745,0.12050315,-0.00156225,0.00289595,0.00538569,0.00009651,0.0009
 5316,-0.00040470,0.04755542,-0.09935161,-0.08650979,-0.00128969,0.0039
 0790,0.00107334,0.00178205,-0.00145545,0.00057000,-0.00605446,0.005692
 61,0.01134466,0.01353729,-0.01069765,-0.02530899,-0.05323333,0.0992924
 4,0.00194843,0.00383654,0.00954950,-0.00034552,0.00093992,-0.00002592,
 0.08854473,-0.08478959,-0.21216698,-0.00108822,-0.00011197,0.00051044,
 0.00172613,-0.00136493,-0.00044911,0.01148444,-0.01260000,-0.02099552,
 -0.00163936,0.00093968,0.00147079,-0.10006026,0.09275152,0.22241951,-0
 .01202993,-0.00776469,-0.00097350,0.00289418,-0.00043491,0.00071602,0.
 00362939,-0.00105384,0.00008091,-0.33458082,-0.00540108,-0.02408815,-0
 .01572702,-0.00483120,-0.00183656,-0.00024021,0.00008778,-0.00007697,-
 0.00058056,-0.00007128,-0.00007464,-0.00016775,0.00012715,0.00005755,0
 .35730215,-0.04084740,-0.00962445,-0.00322177,0.00133083,0.00350350,0.
 00003356,0.00083602,-0.00473451,0.00012609,0.00078513,-0.05349932,0.00
 019933,0.02401256,0.00439257,0.00196574,-0.00025006,0.00001470,-0.0002
 1165,-0.00152022,-0.00020701,-0.00011856,-0.00028872,0.00001395,0.0001
 6637,0.01507809,0.06494244,-0.00071377,-0.00054644,0.00070844,0.000702
 00,-0.00010904,-0.00585922,0.00006622,-0.00002661,0.00273598,-0.024137
 35,-0.00030110,-0.03816928,-0.00206286,-0.00036692,0.00728894,0.000505
 62,0.00024500,-0.00005908,-0.00006325,-0.00000141,0.00034428,-0.000519
 10,-0.00022932,-0.00013079,0.02697652,0.00088456,0.02446135,-0.0003231
 1,-0.00101750,0.00028614,-0.01208477,-0.00614982,-0.00106274,-0.000701
 48,-0.00203829,0.00003674,-0.01230843,-0.00166209,-0.00151095,-0.34840
 283,0.00661732,-0.02530994,-0.00001223,-0.00059381,0.00051169,0.000794
 71,-0.00037857,0.00011062,-0.00004372,-0.00084850,-0.00048868,-0.00011
 381,0.00186088,-0.00070717,0.37139003,-0.00252231,0.00152362,-0.000245
 42,-0.03863513,-0.00645425,-0.00305975,0.00075480,-0.00259816,0.000073
 75,0.02434853,0.00847857,0.00195360,0.01164974,-0.05389807,0.00108236,
 -0.00053135,-0.00121298,-0.00043111,0.00013588,0.00011338,0.00000591,-
 0.00058425,-0.00118272,0.00035816,0.00222368,-0.00415074,0.00027879,0.
 00571119,0.06488787,0.00029805,-0.00012402,-0.00373937,-0.00080782,-0.
 00043329,0.00159712,0.00001502,-0.00015191,-0.00095716,-0.00171594,-0.
 00014898,0.00640384,-0.02534835,0.00067518,-0.03803858,-0.00068468,-0.
 00157707,-0.00009950,0.00010655,-0.00003569,-0.00052748,0.00070508,0.0
 0147761,-0.00009810,-0.00071045,0.00024947,0.00839413,0.02816791,0.000
 12820,0.02470078,0.00035556,0.00269025,0.00012808,-0.52092657,-0.00043
 180,-0.04178289,-0.00113480,0.00002228,-0.00013610,0.00498283,0.002973
 68,0.00032613,-0.02130568,-0.00149612,-0.00161148,0.00002845,-0.000130
 51,0.00015976,0.00016518,0.00004863,0.00000864,0.00005749,-0.00011019,
 -0.00013925,-0.00038562,-0.00099710,-0.00004684,0.00180563,-0.00255079
 ,-0.00002537,0.53635754,0.00127083,0.00042341,0.00008766,0.04946068,-0
 .04524318,0.00432180,-0.00080856,-0.00006978,-0.00006055,-0.00317662,0
 .00067285,-0.00025698,-0.04765570,-0.00421304,-0.00382877,0.00006749,-
 0.00006432,0.00013820,0.00023235,0.00001232,0.00001911,0.00008836,-0.0
 0006858,-0.00012569,0.00204029,-0.00065113,0.00017249,-0.00150080,-0.0
 0550651,-0.00005950,-0.00001833,0.05470797,0.00013931,0.00020259,-0.00
 148059,-0.04217412,0.00028905,-0.00739061,-0.00012958,0.00000662,0.000
 53545,0.00037433,0.00024021,0.00069093,-0.00124950,-0.00009777,-0.0013
 2737,0.00003768,0.00013045,-0.00005905,0.00000719,0.00000425,0.0000541
 9,-0.00002028,-0.00015001,-0.00008382,-0.00007073,-0.00007313,0.000285
 25,-0.00003362,-0.00014449,0.00236430,0.04311932,-0.00040777,0.0064113
 1\\0.00000136,0.00000159,-0.00000043,0.00000131,0.00000185,-0.00000016
 ,-0.00000092,0.00000312,0.00000130,-0.00000043,-0.00000254,-0.00000012
 ,-0.00000347,-0.00000147,-0.00000138,0.00000039,-0.00000129,-0.0000006
 3,-0.00000036,-0.00000035,-0.00000115,0.00000058,-0.00000023,0.0000005
 5,-0.00000046,-0.00000061,0.00000086,0.00000021,-0.00000041,0.00000105
 ,0.00000178,0.00000033,0.00000012\\\@


 I LOVE THOSE WHO LONG FOR THE IMPOSSIBLE.

                                 -- GOETHE
 Job cpu time:       0 days  1 hours 10 minutes 39.0 seconds.
 Elapsed time:       0 days  0 hours 35 minutes 21.5 seconds.
 File lengths (MBytes):  RWF=   1312 Int=      0 D2E=      0 Chk=     32 Scr=     32
 Normal termination of Gaussian 16 at Tue Sep 24 11:50:09 2019.
