 Entering Gaussian System, Link 0=g16
 Input=loose/species/COC=CO/conformers/COC=CO_23.com
 Output=loose/species/COC=CO/conformers/COC=CO_23.log
 Initial command:
 /shared/centos7/gaussian/g16/l1.exe "/scratch/harms.n/gauss_scrdir/Gau-37644.inp" -scrdir="/scratch/harms.n/gauss_scrdir/"
 Entering Link 1 = /shared/centos7/gaussian/g16/l1.exe PID=     37645.
  
 Copyright (c) 1988,1990,1992,1993,1995,1998,2003,2009,2016,
            Gaussian, Inc.  All Rights Reserved.
  
 This is part of the Gaussian(R) 16 program.  It is based on
 the Gaussian(R) 09 system (copyright 2009, Gaussian, Inc.),
 the Gaussian(R) 03 system (copyright 2003, Gaussian, Inc.),
 the Gaussian(R) 98 system (copyright 1998, Gaussian, Inc.),
 the Gaussian(R) 94 system (copyright 1995, Gaussian, Inc.),
 the Gaussian 92(TM) system (copyright 1992, Gaussian, Inc.),
 the Gaussian 90(TM) system (copyright 1990, Gaussian, Inc.),
 the Gaussian 88(TM) system (copyright 1988, Gaussian, Inc.),
 the Gaussian 86(TM) system (copyright 1986, Carnegie Mellon
 University), and the Gaussian 82(TM) system (copyright 1983,
 Carnegie Mellon University). Gaussian is a federally registered
 trademark of Gaussian, Inc.
  
 This software contains proprietary and confidential information,
 including trade secrets, belonging to Gaussian, Inc.
  
 This software is provided under written license and may be
 used, copied, transmitted, or stored only in accord with that
 written license.
  
 The following legend is applicable only to US Government
 contracts under FAR:
  
                    RESTRICTED RIGHTS LEGEND
  
 Use, reproduction and disclosure by the US Government is
 subject to restrictions as set forth in subparagraphs (a)
 and (c) of the Commercial Computer Software - Restricted
 Rights clause in FAR 52.227-19.
  
 Gaussian, Inc.
 340 Quinnipiac St., Bldg. 40, Wallingford CT 06492
  
  
 ---------------------------------------------------------------
 Warning -- This program may not be used in any manner that
 competes with the business of Gaussian, Inc. or will provide
 assistance to any competitor of Gaussian, Inc.  The licensee
 of this program is prohibited from giving any competitor of
 Gaussian, Inc. access to this program.  By using this program,
 the user acknowledges that Gaussian, Inc. is engaged in the
 business of creating and licensing software in the field of
 computational chemistry and represents and warrants to the
 licensee that it is not a competitor of Gaussian, Inc. and that
 it will not use this program in any manner prohibited above.
 ---------------------------------------------------------------
  

 Cite this work as:
 Gaussian 16, Revision A.03,
 M. J. Frisch, G. W. Trucks, H. B. Schlegel, G. E. Scuseria, 
 M. A. Robb, J. R. Cheeseman, G. Scalmani, V. Barone, 
 G. A. Petersson, H. Nakatsuji, X. Li, M. Caricato, A. V. Marenich, 
 J. Bloino, B. G. Janesko, R. Gomperts, B. Mennucci, H. P. Hratchian, 
 J. V. Ortiz, A. F. Izmaylov, J. L. Sonnenberg, D. Williams-Young, 
 F. Ding, F. Lipparini, F. Egidi, J. Goings, B. Peng, A. Petrone, 
 T. Henderson, D. Ranasinghe, V. G. Zakrzewski, J. Gao, N. Rega, 
 G. Zheng, W. Liang, M. Hada, M. Ehara, K. Toyota, R. Fukuda, 
 J. Hasegawa, M. Ishida, T. Nakajima, Y. Honda, O. Kitao, H. Nakai, 
 T. Vreven, K. Throssell, J. A. Montgomery, Jr., J. E. Peralta, 
 F. Ogliaro, M. J. Bearpark, J. J. Heyd, E. N. Brothers, K. N. Kudin, 
 V. N. Staroverov, T. A. Keith, R. Kobayashi, J. Normand, 
 K. Raghavachari, A. P. Rendell, J. C. Burant, S. S. Iyengar, 
 J. Tomasi, M. Cossi, J. M. Millam, M. Klene, C. Adamo, R. Cammi, 
 J. W. Ochterski, R. L. Martin, K. Morokuma, O. Farkas, 
 J. B. Foresman, and D. J. Fox, Gaussian, Inc., Wallingford CT, 2016.
 
 ******************************************
 Gaussian 16:  EM64L-G16RevA.03 25-Dec-2016
                24-Sep-2019 
 ******************************************
 %nprocshared=20
 Will use up to   20 processors via shared memory.
 %mem=5GB
 ----------------------------------------------------------------------
 #p m062x/cc-pVTZ opt=(calcfc,maxcycles=900,Tight) freq IOP(7/33=1,2/16
 =3) scf=(maxcycle=900)
 ----------------------------------------------------------------------
 1/6=900,7=10,10=4,18=20,19=15,26=3,38=1/1,3;
 2/9=110,12=2,16=3,17=6,18=5,40=1/2;
 3/5=16,6=1,11=2,25=1,30=1,71=2,74=-55,140=1/1,2,3;
 4//1;
 5/5=2,7=900,38=5/2;
 8/6=4,10=90,11=11/1;
 11/6=1,8=1,9=11,15=111,16=1/1,2,10;
 10/6=1,13=1/2;
 6/7=2,8=2,9=2,10=2,28=1/1;
 7/10=1,18=20,25=1,33=1/1,2,3,16;
 1/6=900,7=10,10=4,18=20,19=15,26=3/3(2);
 2/9=110,16=3/2;
 99//99;
 2/9=110,16=3/2;
 3/5=16,6=1,11=2,25=1,30=1,71=1,74=-55/1,2,3;
 4/5=5,16=3,69=1/1;
 5/5=2,7=900,38=5/2;
 7/33=1/1,2,3,16;
 1/6=900,7=10,18=20,19=15,26=3/3(-5);
 2/9=110,16=3/2;
 6/7=2,8=2,9=2,10=2,19=2,28=1/1;
 99/9=1/99;
 Leave Link    1 at Tue Sep 24 14:18:39 2019, MaxMem=   671088640 cpu:               4.2 elap:               2.1
 (Enter /shared/centos7/gaussian/g16/l101.exe)
 ------------------------------
 Gaussian input prepared by ASE
 ------------------------------
 Symbolic Z-matrix:
 Charge =  0 Multiplicity = 1
 O                     0.24583  -0.79756   1.0398 
 O                     2.3521   -0.09721  -0.68775 
 C                    -1.16438  -0.8881    0.82422 
 C                     0.67685   0.51345   0.88154 
 C                     1.65752   0.82192   0.06661 
 H                    -1.58778   0.10141   0.48655 
 H                    -1.35922  -1.66971   0.03567 
 H                    -1.68116  -1.19436   1.73397 
 H                     0.20111   1.25997   1.51463 
 H                     2.01087   1.82425  -0.04892 
 H                     1.96201  -1.00941  -0.46476 
 
 ITRead=  0  0  0  0  0  0  0  0  0  0  0
 MicOpt= -1 -1 -1 -1 -1 -1 -1 -1 -1 -1 -1
 NAtoms=     11 NQM=       11 NQMF=       0 NMMI=      0 NMMIF=      0
                NMic=       0 NMicF=      0.
                    Isotopes and Nuclear Properties:
 (Nuclear quadrupole moments (NQMom) in fm**2, nuclear magnetic moments (NMagM)
  in nuclear magnetons)

  Atom         1           2           3           4           5           6           7           8           9          10
 IAtWgt=          16          16          12          12          12           1           1           1           1           1
 AtmWgt=  15.9949146  15.9949146  12.0000000  12.0000000  12.0000000   1.0078250   1.0078250   1.0078250   1.0078250   1.0078250
 NucSpn=           0           0           0           0           0           1           1           1           1           1
 AtZEff=  -0.0000000  -0.0000000  -0.0000000  -0.0000000  -0.0000000  -0.0000000  -0.0000000  -0.0000000  -0.0000000  -0.0000000
 NQMom=    0.0000000   0.0000000   0.0000000   0.0000000   0.0000000   0.0000000   0.0000000   0.0000000   0.0000000   0.0000000
 NMagM=    0.0000000   0.0000000   0.0000000   0.0000000   0.0000000   2.7928460   2.7928460   2.7928460   2.7928460   2.7928460
 AtZNuc=   8.0000000   8.0000000   6.0000000   6.0000000   6.0000000   1.0000000   1.0000000   1.0000000   1.0000000   1.0000000

  Atom        11
 IAtWgt=           1
 AtmWgt=   1.0078250
 NucSpn=           1
 AtZEff=  -0.0000000
 NQMom=    0.0000000
 NMagM=    2.7928460
 AtZNuc=   1.0000000
 Leave Link  101 at Tue Sep 24 14:18:40 2019, MaxMem=   671088640 cpu:               2.9 elap:               1.5
 (Enter /shared/centos7/gaussian/g16/l103.exe)

 GradGradGradGradGradGradGradGradGradGradGradGradGradGradGradGradGradGrad
 Berny optimization.
 Initialization pass.
                           ----------------------------
                           !    Initial Parameters    !
                           ! (Angstroms and Degrees)  !
 --------------------------                            --------------------------
 ! Name  Definition              Value          Derivative Info.                !
 --------------------------------------------------------------------------------
 ! R1    R(1,3)                  1.4295         calculate D2E/DX2 analytically  !
 ! R2    R(1,4)                  1.3891         calculate D2E/DX2 analytically  !
 ! R3    R(2,5)                  1.3771         calculate D2E/DX2 analytically  !
 ! R4    R(2,11)                 1.0169         calculate D2E/DX2 analytically  !
 ! R5    R(3,6)                  1.128          calculate D2E/DX2 analytically  !
 ! R6    R(3,7)                  1.1272         calculate D2E/DX2 analytically  !
 ! R7    R(3,8)                  1.0902         calculate D2E/DX2 analytically  !
 ! R8    R(4,5)                  1.3119         calculate D2E/DX2 analytically  !
 ! R9    R(4,9)                  1.0883         calculate D2E/DX2 analytically  !
 ! R10   R(5,10)                 1.0691         calculate D2E/DX2 analytically  !
 ! A1    A(3,1,4)              110.4081         calculate D2E/DX2 analytically  !
 ! A2    A(5,2,11)             106.5669         calculate D2E/DX2 analytically  !
 ! A3    A(1,3,6)              111.0927         calculate D2E/DX2 analytically  !
 ! A4    A(1,3,7)              108.6589         calculate D2E/DX2 analytically  !
 ! A5    A(1,3,8)              111.0749         calculate D2E/DX2 analytically  !
 ! A6    A(6,3,7)              109.5091         calculate D2E/DX2 analytically  !
 ! A7    A(6,3,8)              108.5607         calculate D2E/DX2 analytically  !
 ! A8    A(7,3,8)              107.8806         calculate D2E/DX2 analytically  !
 ! A9    A(1,4,5)              121.6445         calculate D2E/DX2 analytically  !
 ! A10   A(1,4,9)              116.4538         calculate D2E/DX2 analytically  !
 ! A11   A(5,4,9)              121.7927         calculate D2E/DX2 analytically  !
 ! A12   A(2,5,4)              124.084          calculate D2E/DX2 analytically  !
 ! A13   A(2,5,10)             113.5708         calculate D2E/DX2 analytically  !
 ! A14   A(4,5,10)             122.3222         calculate D2E/DX2 analytically  !
 ! D1    D(4,1,3,6)              5.0557         calculate D2E/DX2 analytically  !
 ! D2    D(4,1,3,7)            125.5895         calculate D2E/DX2 analytically  !
 ! D3    D(4,1,3,8)           -115.8929         calculate D2E/DX2 analytically  !
 ! D4    D(3,1,4,5)           -126.6019         calculate D2E/DX2 analytically  !
 ! D5    D(3,1,4,9)             57.1295         calculate D2E/DX2 analytically  !
 ! D6    D(11,2,5,4)            -0.9553         calculate D2E/DX2 analytically  !
 ! D7    D(11,2,5,10)          177.3313         calculate D2E/DX2 analytically  !
 ! D8    D(1,4,5,2)             -0.6084         calculate D2E/DX2 analytically  !
 ! D9    D(1,4,5,10)          -178.75           calculate D2E/DX2 analytically  !
 ! D10   D(9,4,5,2)            175.4609         calculate D2E/DX2 analytically  !
 ! D11   D(9,4,5,10)            -2.6807         calculate D2E/DX2 analytically  !
 --------------------------------------------------------------------------------
 Trust Radius=3.00D-01 FncErr=1.00D-07 GrdErr=1.00D-06 EigMax=2.50D+02 EigMin=1.00D-04
 Number of steps in this run=    100 maximum allowed number of steps=    100.
 GradGradGradGradGradGradGradGradGradGradGradGradGradGradGradGradGradGrad

 Leave Link  103 at Tue Sep 24 14:18:41 2019, MaxMem=   671088640 cpu:               1.6 elap:               0.8
 (Enter /shared/centos7/gaussian/g16/l202.exe)
                          Input orientation:                          
 ---------------------------------------------------------------------
 Center     Atomic      Atomic             Coordinates (Angstroms)
 Number     Number       Type             X           Y           Z
 ---------------------------------------------------------------------
      1          8           0        0.245832   -0.797563    1.039796
      2          8           0        2.352102   -0.097206   -0.687753
      3          6           0       -1.164380   -0.888102    0.824221
      4          6           0        0.676851    0.513452    0.881538
      5          6           0        1.657523    0.821921    0.066614
      6          1           0       -1.587782    0.101414    0.486551
      7          1           0       -1.359223   -1.669710    0.035668
      8          1           0       -1.681155   -1.194362    1.733967
      9          1           0        0.201110    1.259974    1.514628
     10          1           0        2.010870    1.824253   -0.048921
     11          1           0        1.962011   -1.009412   -0.464765
 ---------------------------------------------------------------------
                    Distance matrix (angstroms):
                    1          2          3          4          5
     1  O    0.000000
     2  O    2.812703   0.000000
     3  C    1.429464   3.908609   0.000000
     4  C    1.389094   2.375298   2.314685   0.000000
     5  C    2.358534   1.377063   3.385451   1.311858   0.000000
     6  H    2.115745   4.115959   1.128020   2.335455   3.350743
     7  H    2.084494   4.095124   1.127250   3.102788   3.912792
     8  H    2.086289   4.830697   1.090179   3.033720   4.241725
     9  H    2.112090   3.364400   2.637319   1.088314   2.099947
    10  H    3.342841   2.053424   4.266316   2.088914   1.069052
    11  H    2.292129   1.016866   3.383862   2.404846   1.931025
                    6          7          8          9         10
     6  H    0.000000
     7  H    1.841851   0.000000
     8  H    1.801055   1.792712   0.000000
     9  H    2.366292   3.633870   3.100773   0.000000
    10  H    4.025569   4.855148   5.091343   2.457302   0.000000
    11  H    3.839266   3.423014   4.259259   3.488393   2.864432
                   11
    11  H    0.000000
 Stoichiometry    C3H6O2
 Framework group  C1[X(C3H6O2)]
 Deg. of freedom    27
 Full point group                 C1      NOp   1
 Largest Abelian subgroup         C1      NOp   1
 Largest concise Abelian subgroup C1      NOp   1
                         Standard orientation:                         
 ---------------------------------------------------------------------
 Center     Atomic      Atomic             Coordinates (Angstroms)
 Number     Number       Type             X           Y           Z
 ---------------------------------------------------------------------
      1          8           0        0.835176   -0.240173   -0.520062
      2          8           0       -1.868735   -0.710795    0.095306
      3          6           0        2.003801   -0.223400    0.302981
      4          6           0       -0.033811    0.777758   -0.148224
      5          6           0       -1.290851    0.538320    0.140727
      6          1           0        1.913364    0.548321    1.120720
      7          1           0        2.136375   -1.244426    0.761918
      8          1           0        2.894587   -0.002693   -0.285474
      9          1           0        0.366768    1.789426   -0.170418
     10          1           0       -1.973772    1.315787    0.409123
     11          1           0       -1.143688   -1.354741   -0.210727
 ---------------------------------------------------------------------
 Rotational constants (GHZ):          13.6010551           3.0568146           2.7151125
 Leave Link  202 at Tue Sep 24 14:18:43 2019, MaxMem=   671088640 cpu:               2.8 elap:               1.4
 (Enter /shared/centos7/gaussian/g16/l301.exe)
 Standard basis: CC-pVTZ (5D, 7F)
 Ernie: Thresh=  0.10000D-02 Tol=  0.10000D-05 Strict=F.
 Ernie:  15 primitive shells out of 178 were deleted.
 There are   265 symmetry adapted cartesian basis functions of A   symmetry.
 There are   234 symmetry adapted basis functions of A   symmetry.
   234 basis functions,   362 primitive gaussians,   265 cartesian basis functions
    20 alpha electrons       20 beta electrons
       nuclear repulsion energy       176.4626119602 Hartrees.
 IExCor= 4336 DFT=T Ex+Corr=M062X ExCW=0 ScaHFX=  0.540000
 ScaDFX=  1.000000  1.000000  1.000000  1.000000 ScalE2=  1.000000  1.000000
 IRadAn=      5 IRanWt=     -1 IRanGd=            0 ICorTp=0 IEmpDi=  4
 NAtoms=   11 NActive=   11 NUniq=   11 SFac= 1.00D+00 NAtFMM=   60 NAOKFM=F Big=F
 Integral buffers will be    131072 words long.
 Raffenetti 2 integral format.
 Two-electron integral symmetry is turned on.
 Leave Link  301 at Tue Sep 24 14:18:44 2019, MaxMem=   671088640 cpu:               1.8 elap:               0.9
 (Enter /shared/centos7/gaussian/g16/l302.exe)
 NPDir=0 NMtPBC=     1 NCelOv=     1 NCel=       1 NClECP=     1 NCelD=      1
         NCelK=      1 NCelE2=     1 NClLst=     1 CellRange=     0.0.
 One-electron integrals computed using PRISM.
 One-electron integral symmetry used in STVInt
 NBasis=   234 RedAO= T EigKep=  3.28D-04  NBF=   234
 NBsUse=   234 1.00D-06 EigRej= -1.00D+00 NBFU=   234
 Precomputing XC quadrature grid using
 IXCGrd= 4 IRadAn=           5 IRanWt=          -1 IRanGd=           0 AccXCQ= 0.00D+00.
 Generated NRdTot=       0 NPtTot=           0 NUsed=           0 NTot=          32
 NSgBfM=   265   265   265   265   265 MxSgAt=    11 MxSgA2=    11.
 Leave Link  302 at Tue Sep 24 14:19:54 2019, MaxMem=   671088640 cpu:             140.6 elap:              70.3
 (Enter /shared/centos7/gaussian/g16/l303.exe)
 DipDrv:  MaxL=1.
 Leave Link  303 at Tue Sep 24 14:20:00 2019, MaxMem=   671088640 cpu:              12.6 elap:               6.3
 (Enter /shared/centos7/gaussian/g16/l401.exe)
 ExpMin= 1.03D-01 ExpMax= 1.53D+04 ExpMxC= 5.22D+02 IAcc=3 IRadAn=         5 AccDes= 0.00D+00
 Harris functional with IExCor= 1009 and IRadAn=       5 diagonalized for initial guess.
 HarFok:  IExCor= 1009 AccDes= 0.00D+00 IRadAn=         5 IDoV= 1 UseB2=F ITyADJ=14
 ICtDFT=  3500011 ScaDFX=  1.000000  1.000000  1.000000  1.000000
 FoFCou: FMM=F IPFlag=           0 FMFlag=      100000 FMFlg1=           0
         NFxFlg=           0 DoJE=T BraDBF=F KetDBF=T FulRan=T
         wScrn=  0.000000 ICntrl=       500 IOpCl=  0 I1Cent=   200000004 NGrid=           0
         NMat0=    1 NMatS0=      1 NMatT0=    0 NMatD0=    1 NMtDS0=    0 NMtDT0=    0
 Petite list used in FoFCou.
 Harris En= -268.199568966955    
 JPrj=0 DoOrth=F DoCkMO=F.
 Leave Link  401 at Tue Sep 24 14:20:29 2019, MaxMem=   671088640 cpu:              58.1 elap:              29.1
 (Enter /shared/centos7/gaussian/g16/l502.exe)
 Keep R1 ints in memory in canonical form, NReq=399924305.
 FoFCou: FMM=F IPFlag=           0 FMFlag=           0 FMFlg1=           0
         NFxFlg=           0 DoJE=F BraDBF=F KetDBF=F FulRan=T
         wScrn=  0.000000 ICntrl=       600 IOpCl=  0 I1Cent=           0 NGrid=           0
         NMat0=    1 NMatS0=  27495 NMatT0=    0 NMatD0=    1 NMtDS0=    0 NMtDT0=    0
 Symmetry not used in FoFCou.
 Two-electron integral symmetry not used.
 Closed shell SCF:
 Using DIIS extrapolation, IDIIS=  1040.
 NGot=   671088640 LenX=   292939207 LenY=   292868541
 Requested convergence on RMS density matrix=1.00D-08 within 900 cycles.
 Requested convergence on MAX density matrix=1.00D-06.
 Requested convergence on             energy=1.00D-06.
 No special actions if energy rises.
 Integral accuracy reduced to 1.0D-05 until final iterations.

 Cycle   1  Pass 0  IDiag  1:
 E= -268.193230375421    
 DIIS: error= 1.69D-02 at cycle   1 NSaved=   1.
 NSaved= 1 IEnMin= 1 EnMin= -268.193230375421     IErMin= 1 ErrMin= 1.69D-02
 ErrMax= 1.69D-02  0.00D+00 EMaxC= 1.00D-01 BMatC= 1.69D-01 BMatP= 1.69D-01
 IDIUse=3 WtCom= 8.31D-01 WtEn= 1.69D-01
 Coeff-Com:  0.100D+01
 Coeff-En:   0.100D+01
 Coeff:      0.100D+01
 Gap=     0.362 Goal=   None    Shift=    0.000
 GapD=    0.362 DampG=1.000 DampE=0.500 DampFc=0.5000 IDamp=-1.
 Damping current iteration by 5.00D-01
 RMSDP=2.03D-03 MaxDP=5.83D-02              OVMax= 1.14D-01

 Cycle   2  Pass 0  IDiag  1:
 E= -268.257106916551     Delta-E=       -0.063876541130 Rises=F Damp=T
 DIIS: error= 5.59D-03 at cycle   2 NSaved=   2.
 NSaved= 2 IEnMin= 2 EnMin= -268.257106916551     IErMin= 2 ErrMin= 5.59D-03
 ErrMax= 5.59D-03  0.00D+00 EMaxC= 1.00D-01 BMatC= 1.64D-02 BMatP= 1.69D-01
 IDIUse=3 WtCom= 9.44D-01 WtEn= 5.59D-02
 Coeff-Com: -0.186D+00 0.119D+01
 Coeff-En:   0.000D+00 0.100D+01
 Coeff:     -0.175D+00 0.118D+01
 Gap=     0.351 Goal=   None    Shift=    0.000
 RMSDP=4.11D-04 MaxDP=9.83D-03 DE=-6.39D-02 OVMax= 5.30D-02

 Cycle   3  Pass 0  IDiag  1:
 E= -268.312273181935     Delta-E=       -0.055166265384 Rises=F Damp=F
 DIIS: error= 3.25D-03 at cycle   3 NSaved=   3.
 NSaved= 3 IEnMin= 3 EnMin= -268.312273181935     IErMin= 3 ErrMin= 3.25D-03
 ErrMax= 3.25D-03  0.00D+00 EMaxC= 1.00D-01 BMatC= 3.71D-03 BMatP= 1.64D-02
 IDIUse=3 WtCom= 9.67D-01 WtEn= 3.25D-02
 Coeff-Com: -0.120D+00 0.398D+00 0.722D+00
 Coeff-En:   0.000D+00 0.000D+00 0.100D+01
 Coeff:     -0.116D+00 0.385D+00 0.731D+00
 Gap=     0.348 Goal=   None    Shift=    0.000
 RMSDP=1.78D-04 MaxDP=5.71D-03 DE=-5.52D-02 OVMax= 1.52D-02

 Cycle   4  Pass 0  IDiag  1:
 E= -268.314078473208     Delta-E=       -0.001805291273 Rises=F Damp=F
 DIIS: error= 1.40D-03 at cycle   4 NSaved=   4.
 NSaved= 4 IEnMin= 4 EnMin= -268.314078473208     IErMin= 4 ErrMin= 1.40D-03
 ErrMax= 1.40D-03  0.00D+00 EMaxC= 1.00D-01 BMatC= 8.45D-04 BMatP= 3.71D-03
 IDIUse=3 WtCom= 9.86D-01 WtEn= 1.40D-02
 Coeff-Com: -0.366D-01 0.916D-01 0.368D+00 0.577D+00
 Coeff-En:   0.000D+00 0.000D+00 0.178D+00 0.822D+00
 Coeff:     -0.361D-01 0.903D-01 0.365D+00 0.581D+00
 Gap=     0.344 Goal=   None    Shift=    0.000
 RMSDP=6.82D-05 MaxDP=2.09D-03 DE=-1.81D-03 OVMax= 7.11D-03

 Cycle   5  Pass 0  IDiag  1:
 E= -268.314704928516     Delta-E=       -0.000626455308 Rises=F Damp=F
 DIIS: error= 2.42D-04 at cycle   5 NSaved=   5.
 NSaved= 5 IEnMin= 5 EnMin= -268.314704928516     IErMin= 5 ErrMin= 2.42D-04
 ErrMax= 2.42D-04  0.00D+00 EMaxC= 1.00D-01 BMatC= 1.60D-05 BMatP= 8.45D-04
 IDIUse=3 WtCom= 9.98D-01 WtEn= 2.42D-03
 Coeff-Com: -0.618D-02 0.118D-01 0.882D-01 0.203D+00 0.703D+00
 Coeff-En:   0.000D+00 0.000D+00 0.000D+00 0.000D+00 0.100D+01
 Coeff:     -0.616D-02 0.117D-01 0.880D-01 0.203D+00 0.704D+00
 Gap=     0.344 Goal=   None    Shift=    0.000
 RMSDP=1.32D-05 MaxDP=4.16D-04 DE=-6.26D-04 OVMax= 1.53D-03

 Cycle   6  Pass 0  IDiag  1:
 E= -268.314717468202     Delta-E=       -0.000012539686 Rises=F Damp=F
 DIIS: error= 6.46D-05 at cycle   6 NSaved=   6.
 NSaved= 6 IEnMin= 6 EnMin= -268.314717468202     IErMin= 6 ErrMin= 6.46D-05
 ErrMax= 6.46D-05  0.00D+00 EMaxC= 1.00D-01 BMatC= 1.38D-06 BMatP= 1.60D-05
 IDIUse=1 WtCom= 1.00D+00 WtEn= 0.00D+00
 Coeff-Com: -0.117D-02 0.138D-02 0.237D-01 0.698D-01 0.303D+00 0.603D+00
 Coeff:     -0.117D-02 0.138D-02 0.237D-01 0.698D-01 0.303D+00 0.603D+00
 Gap=     0.344 Goal=   None    Shift=    0.000
 RMSDP=3.89D-06 MaxDP=1.46D-04 DE=-1.25D-05 OVMax= 5.79D-04

 Initial convergence to 1.0D-05 achieved.  Increase integral accuracy.
 Cycle   7  Pass 1  IDiag  1:
 E= -268.314722393956     Delta-E=       -0.000004925755 Rises=F Damp=F
 DIIS: error= 2.75D-05 at cycle   1 NSaved=   1.
 NSaved= 1 IEnMin= 1 EnMin= -268.314722393956     IErMin= 1 ErrMin= 2.75D-05
 ErrMax= 2.75D-05  0.00D+00 EMaxC= 1.00D-01 BMatC= 3.92D-07 BMatP= 3.92D-07
 IDIUse=1 WtCom= 1.00D+00 WtEn= 0.00D+00
 Coeff-Com:  0.100D+01
 Coeff:      0.100D+01
 Gap=     0.344 Goal=   None    Shift=    0.000
 RMSDP=3.89D-06 MaxDP=1.46D-04 DE=-4.93D-06 OVMax= 3.79D-04

 Cycle   8  Pass 1  IDiag  1:
 E= -268.314722452334     Delta-E=       -0.000000058378 Rises=F Damp=F
 DIIS: error= 3.66D-05 at cycle   2 NSaved=   2.
 NSaved= 2 IEnMin= 2 EnMin= -268.314722452334     IErMin= 1 ErrMin= 2.75D-05
 ErrMax= 3.66D-05  0.00D+00 EMaxC= 1.00D-01 BMatC= 3.07D-07 BMatP= 3.92D-07
 IDIUse=1 WtCom= 1.00D+00 WtEn= 0.00D+00
 Coeff-Com:  0.461D+00 0.539D+00
 Coeff:      0.461D+00 0.539D+00
 Gap=     0.344 Goal=   None    Shift=    0.000
 RMSDP=1.82D-06 MaxDP=6.48D-05 DE=-5.84D-08 OVMax= 2.71D-04

 Cycle   9  Pass 1  IDiag  1:
 E= -268.314722684766     Delta-E=       -0.000000232432 Rises=F Damp=F
 DIIS: error= 1.02D-05 at cycle   3 NSaved=   3.
 NSaved= 3 IEnMin= 3 EnMin= -268.314722684766     IErMin= 3 ErrMin= 1.02D-05
 ErrMax= 1.02D-05  0.00D+00 EMaxC= 1.00D-01 BMatC= 2.91D-08 BMatP= 3.07D-07
 IDIUse=1 WtCom= 1.00D+00 WtEn= 0.00D+00
 Coeff-Com: -0.301D-01 0.222D+00 0.808D+00
 Coeff:     -0.301D-01 0.222D+00 0.808D+00
 Gap=     0.344 Goal=   None    Shift=    0.000
 RMSDP=5.34D-07 MaxDP=1.32D-05 DE=-2.32D-07 OVMax= 6.15D-05

 Cycle  10  Pass 1  IDiag  1:
 E= -268.314722709121     Delta-E=       -0.000000024355 Rises=F Damp=F
 DIIS: error= 1.57D-06 at cycle   4 NSaved=   4.
 NSaved= 4 IEnMin= 4 EnMin= -268.314722709121     IErMin= 4 ErrMin= 1.57D-06
 ErrMax= 1.57D-06  0.00D+00 EMaxC= 1.00D-01 BMatC= 6.89D-10 BMatP= 2.91D-08
 IDIUse=1 WtCom= 1.00D+00 WtEn= 0.00D+00
 Coeff-Com: -0.188D-01 0.736D-01 0.299D+00 0.646D+00
 Coeff:     -0.188D-01 0.736D-01 0.299D+00 0.646D+00
 Gap=     0.344 Goal=   None    Shift=    0.000
 RMSDP=8.06D-08 MaxDP=2.52D-06 DE=-2.44D-08 OVMax= 9.43D-06

 Cycle  11  Pass 1  IDiag  1:
 E= -268.314722709685     Delta-E=       -0.000000000564 Rises=F Damp=F
 DIIS: error= 4.40D-07 at cycle   5 NSaved=   5.
 NSaved= 5 IEnMin= 5 EnMin= -268.314722709685     IErMin= 5 ErrMin= 4.40D-07
 ErrMax= 4.40D-07  0.00D+00 EMaxC= 1.00D-01 BMatC= 1.03D-10 BMatP= 6.89D-10
 IDIUse=1 WtCom= 1.00D+00 WtEn= 0.00D+00
 Coeff-Com: -0.155D-02-0.140D-01-0.387D-01 0.228D+00 0.826D+00
 Coeff:     -0.155D-02-0.140D-01-0.387D-01 0.228D+00 0.826D+00
 Gap=     0.344 Goal=   None    Shift=    0.000
 RMSDP=4.83D-08 MaxDP=1.01D-06 DE=-5.64D-10 OVMax= 4.54D-06

 Cycle  12  Pass 1  IDiag  1:
 E= -268.314722709792     Delta-E=       -0.000000000107 Rises=F Damp=F
 DIIS: error= 1.85D-07 at cycle   6 NSaved=   6.
 NSaved= 6 IEnMin= 6 EnMin= -268.314722709792     IErMin= 6 ErrMin= 1.85D-07
 ErrMax= 1.85D-07  0.00D+00 EMaxC= 1.00D-01 BMatC= 9.22D-12 BMatP= 1.03D-10
 IDIUse=1 WtCom= 1.00D+00 WtEn= 0.00D+00
 Coeff-Com:  0.163D-02-0.128D-01-0.468D-01 0.735D-02 0.291D+00 0.760D+00
 Coeff:      0.163D-02-0.128D-01-0.468D-01 0.735D-02 0.291D+00 0.760D+00
 Gap=     0.344 Goal=   None    Shift=    0.000
 RMSDP=1.72D-08 MaxDP=3.32D-07 DE=-1.07D-10 OVMax= 1.84D-06

 Cycle  13  Pass 1  IDiag  1:
 E= -268.314722709797     Delta-E=       -0.000000000005 Rises=F Damp=F
 DIIS: error= 3.36D-08 at cycle   7 NSaved=   7.
 NSaved= 7 IEnMin= 7 EnMin= -268.314722709797     IErMin= 7 ErrMin= 3.36D-08
 ErrMax= 3.36D-08  0.00D+00 EMaxC= 1.00D-01 BMatC= 8.13D-13 BMatP= 9.22D-12
 IDIUse=1 WtCom= 1.00D+00 WtEn= 0.00D+00
 Coeff-Com:  0.668D-03-0.349D-02-0.139D-01-0.151D-01 0.442D-01 0.258D+00
 Coeff-Com:  0.729D+00
 Coeff:      0.668D-03-0.349D-02-0.139D-01-0.151D-01 0.442D-01 0.258D+00
 Coeff:      0.729D+00
 Gap=     0.344 Goal=   None    Shift=    0.000
 RMSDP=4.61D-09 MaxDP=9.87D-08 DE=-4.55D-12 OVMax= 4.77D-07

 SCF Done:  E(RM062X) =  -268.314722710     A.U. after   13 cycles
            NFock= 13  Conv=0.46D-08     -V/T= 2.0061
 KE= 2.666814432294D+02 PE=-9.812395930625D+02 EE= 2.697808151631D+02
 Leave Link  502 at Tue Sep 24 14:26:42 2019, MaxMem=   671088640 cpu:             736.3 elap:             372.1
 (Enter /shared/centos7/gaussian/g16/l801.exe)
 DoSCS=F DFT=T ScalE2(SS,OS)=  1.000000  1.000000
 Range of M.O.s used for correlation:     1   234
 NBasis=   234 NAE=    20 NBE=    20 NFC=     0 NFV=     0
 NROrb=    234 NOA=    20 NOB=    20 NVA=   214 NVB=   214

 **** Warning!!: The largest alpha MO coefficient is  0.12381077D+02

 Leave Link  801 at Tue Sep 24 14:26:42 2019, MaxMem=   671088640 cpu:               1.5 elap:               0.7
 (Enter /shared/centos7/gaussian/g16/l1101.exe)
 Using compressed storage, NAtomX=    11.
 Will process     12 centers per pass.
 Leave Link 1101 at Tue Sep 24 14:27:07 2019, MaxMem=   671088640 cpu:              48.4 elap:              24.2
 (Enter /shared/centos7/gaussian/g16/l1102.exe)
 Symmetrizing basis deriv contribution to polar:
 IMax=3 JMax=2 DiffMx= 0.00D+00
 Leave Link 1102 at Tue Sep 24 14:27:09 2019, MaxMem=   671088640 cpu:               5.2 elap:               2.6
 (Enter /shared/centos7/gaussian/g16/l1110.exe)
 Forming Gx(P) for the SCF density, NAtomX=    11.
 Integral derivatives from FoFJK, PRISM(SPDF).
 Do as many integral derivatives as possible in FoFJK.
 G2DrvN: MDV=     671087712.
 G2DrvN: will do    12 centers at a time, making    1 passes.
 Calling FoFCou, ICntrl=  3107 FMM=F I1Cent=   0 AccDes= 0.00D+00.
 FoFJK:  IHMeth= 1 ICntrl=    3107 DoSepK=F KAlg= 0 I1Cent=           0 FoldK=F
 IRaf=         0 NMat=       1 IRICut=       1 DoRegI=T DoRafI=F ISym2E= 0 IDoP0=0 IntGTp=1.
 FoFCou: FMM=F IPFlag=           0 FMFlag=      100000 FMFlg1=           0
         NFxFlg=           0 DoJE=F BraDBF=F KetDBF=F FulRan=T
         wScrn=  0.000000 ICntrl=      3107 IOpCl=  0 I1Cent=           0 NGrid=           0
         NMat0=    1 NMatS0=      1 NMatT0=    0 NMatD0=    1 NMtDS0=    0 NMtDT0=    0
 Symmetry not used in FoFCou.
 End of G2Drv F.D. properties file   721 does not exist.
 End of G2Drv F.D. properties file   722 does not exist.
 End of G2Drv F.D. properties file   788 does not exist.
 Leave Link 1110 at Tue Sep 24 14:34:07 2019, MaxMem=   671088640 cpu:             835.8 elap:             418.0
 (Enter /shared/centos7/gaussian/g16/l1002.exe)
 Minotr:  Closed shell wavefunction.
          IDoAtm=11111111111
          Direct CPHF calculation.
          Differentiating once with respect to nuclear coordinates.
          Requested convergence is 1.0D-08 RMS, and 1.0D-07 maximum.
          Secondary convergence is 1.0D-12 RMS, and 1.0D-12 maximum.
          NewPWx=T KeepS1=F KeepF1=F KeepIn=T MapXYZ=F SortEE=F KeepMc=T.
         3265 words used for storage of precomputed grid.
 Keep R1 ints in memory in canonical form, NReq=399865264.
 FoFCou: FMM=F IPFlag=           0 FMFlag=           0 FMFlg1=           0
         NFxFlg=           0 DoJE=F BraDBF=F KetDBF=F FulRan=T
         wScrn=  0.000000 ICntrl=       600 IOpCl=  0 I1Cent=           0 NGrid=           0
         NMat0=    1 NMatS0=  27495 NMatT0=    0 NMatD0=    1 NMtDS0=    0 NMtDT0=    0
 Symmetry not used in FoFCou.
 Two-electron integral symmetry not used.
          MDV=     671088640 using IRadAn=       1.
          Solving linear equations simultaneously, MaxMat=       0.
          There are    36 degrees of freedom in the 1st order CPHF.  IDoFFX=6 NUNeed=     0.
     30 vectors produced by pass  0 Test12= 1.19D-14 2.78D-09 XBig12= 6.27D-02 6.47D-02.
 AX will form    30 AO Fock derivatives at one time.
     30 vectors produced by pass  1 Test12= 1.19D-14 2.78D-09 XBig12= 1.25D-02 2.66D-02.
     30 vectors produced by pass  2 Test12= 1.19D-14 2.78D-09 XBig12= 5.01D-04 5.15D-03.
     30 vectors produced by pass  3 Test12= 1.19D-14 2.78D-09 XBig12= 6.35D-06 2.90D-04.
     30 vectors produced by pass  4 Test12= 1.19D-14 2.78D-09 XBig12= 5.07D-08 3.30D-05.
     30 vectors produced by pass  5 Test12= 1.19D-14 2.78D-09 XBig12= 2.00D-10 2.60D-06.
     18 vectors produced by pass  6 Test12= 1.19D-14 2.78D-09 XBig12= 8.44D-13 1.50D-07.
      3 vectors produced by pass  7 Test12= 1.19D-14 2.78D-09 XBig12= 3.39D-15 6.15D-09.
 InvSVY:  IOpt=1 It=  1 EMax= 1.44D-15
 Solved reduced A of dimension   201 with    30 vectors.
 End of Minotr F.D. properties file   721 does not exist.
 End of Minotr F.D. properties file   722 does not exist.
 End of Minotr F.D. properties file   788 does not exist.
 Leave Link 1002 at Tue Sep 24 14:44:31 2019, MaxMem=   671088640 cpu:            1247.2 elap:             623.8
 (Enter /shared/centos7/gaussian/g16/l601.exe)
 Copying SCF densities to generalized density rwf, IOpCl= 0 IROHF=0.

 **********************************************************************

            Population analysis using the SCF density.

 **********************************************************************

 Orbital symmetries:
       Occupied  (A) (A) (A) (A) (A) (A) (A) (A) (A) (A) (A) (A)
                 (A) (A) (A) (A) (A) (A) (A) (A)
       Virtual   (A) (A) (A) (A) (A) (A) (A) (A) (A) (A) (A) (A)
                 (A) (A) (A) (A) (A) (A) (A) (A) (A) (A) (A) (A)
                 (A) (A) (A) (A) (A) (A) (A) (A) (A) (A) (A) (A)
                 (A) (A) (A) (A) (A) (A) (A) (A) (A) (A) (A) (A)
                 (A) (A) (A) (A) (A) (A) (A) (A) (A) (A) (A) (A)
                 (A) (A) (A) (A) (A) (A) (A) (A) (A) (A) (A) (A)
                 (A) (A) (A) (A) (A) (A) (A) (A) (A) (A) (A) (A)
                 (A) (A) (A) (A) (A) (A) (A) (A) (A) (A) (A) (A)
                 (A) (A) (A) (A) (A) (A) (A) (A) (A) (A) (A) (A)
                 (A) (A) (A) (A) (A) (A) (A) (A) (A) (A) (A) (A)
                 (A) (A) (A) (A) (A) (A) (A) (A) (A) (A) (A) (A)
                 (A) (A) (A) (A) (A) (A) (A) (A) (A) (A) (A) (A)
                 (A) (A) (A) (A) (A) (A) (A) (A) (A) (A) (A) (A)
                 (A) (A) (A) (A) (A) (A) (A) (A) (A) (A) (A) (A)
                 (A) (A) (A) (A) (A) (A) (A) (A) (A) (A) (A) (A)
                 (A) (A) (A) (A) (A) (A) (A) (A) (A) (A) (A) (A)
                 (A) (A) (A) (A) (A) (A) (A) (A) (A) (A) (A) (A)
                 (A) (A) (A) (A) (A) (A) (A) (A) (A) (A)
 The electronic state is 1-A.
 Alpha  occ. eigenvalues --  -19.65127 -19.64594 -10.59708 -10.58651 -10.57714
 Alpha  occ. eigenvalues --   -1.18389  -1.15350  -0.85790  -0.77786  -0.67679
 Alpha  occ. eigenvalues --   -0.60661  -0.58299  -0.54245  -0.50931  -0.49291
 Alpha  occ. eigenvalues --   -0.46404  -0.44224  -0.42111  -0.37239  -0.28062
 Alpha virt. eigenvalues --    0.06311   0.07525   0.08859   0.10387   0.13498
 Alpha virt. eigenvalues --    0.13582   0.14545   0.15857   0.20587   0.26169
 Alpha virt. eigenvalues --    0.29002   0.30495   0.33620   0.34285   0.37094
 Alpha virt. eigenvalues --    0.38413   0.41081   0.42071   0.45375   0.45509
 Alpha virt. eigenvalues --    0.46632   0.47495   0.48631   0.50044   0.52832
 Alpha virt. eigenvalues --    0.56078   0.56399   0.56678   0.57749   0.61225
 Alpha virt. eigenvalues --    0.65529   0.68088   0.69769   0.71484   0.75059
 Alpha virt. eigenvalues --    0.76053   0.79551   0.85001   0.86358   0.86604
 Alpha virt. eigenvalues --    0.90315   0.90868   0.97483   0.99909   1.01061
 Alpha virt. eigenvalues --    1.04715   1.05471   1.07109   1.09297   1.11585
 Alpha virt. eigenvalues --    1.13297   1.15342   1.19382   1.22759   1.23308
 Alpha virt. eigenvalues --    1.26948   1.27714   1.30230   1.33925   1.35230
 Alpha virt. eigenvalues --    1.36419   1.37340   1.38178   1.43304   1.49196
 Alpha virt. eigenvalues --    1.52393   1.53852   1.54611   1.60630   1.84534
 Alpha virt. eigenvalues --    1.85877   1.91527   1.98455   2.00326   2.03321
 Alpha virt. eigenvalues --    2.07224   2.08682   2.11419   2.12150   2.17937
 Alpha virt. eigenvalues --    2.20137   2.23493   2.27530   2.30167   2.35070
 Alpha virt. eigenvalues --    2.35726   2.40702   2.48189   2.53477   2.57587
 Alpha virt. eigenvalues --    2.62602   2.65542   2.71960   2.75920   2.77629
 Alpha virt. eigenvalues --    2.78525   2.80452   2.82258   2.84158   2.87246
 Alpha virt. eigenvalues --    2.90351   2.91843   2.93406   2.95346   2.98796
 Alpha virt. eigenvalues --    3.00624   3.02176   3.03973   3.06039   3.06961
 Alpha virt. eigenvalues --    3.08896   3.12308   3.14839   3.18830   3.20816
 Alpha virt. eigenvalues --    3.24777   3.26732   3.27458   3.28610   3.30471
 Alpha virt. eigenvalues --    3.31347   3.33800   3.34507   3.37281   3.41196
 Alpha virt. eigenvalues --    3.43860   3.47004   3.49915   3.51724   3.56307
 Alpha virt. eigenvalues --    3.57671   3.62818   3.64317   3.67146   3.69295
 Alpha virt. eigenvalues --    3.70560   3.72851   3.75276   3.78122   3.80454
 Alpha virt. eigenvalues --    3.80691   3.84226   3.88568   3.89692   3.92378
 Alpha virt. eigenvalues --    3.93928   3.97650   4.02463   4.05066   4.07888
 Alpha virt. eigenvalues --    4.09104   4.11391   4.13026   4.18993   4.23135
 Alpha virt. eigenvalues --    4.27946   4.31805   4.36269   4.41265   4.48462
 Alpha virt. eigenvalues --    4.51249   4.56476   4.59465   4.64795   4.70069
 Alpha virt. eigenvalues --    4.71924   4.74020   4.79678   4.84946   4.87456
 Alpha virt. eigenvalues --    4.94507   4.95226   4.97132   4.98427   5.03316
 Alpha virt. eigenvalues --    5.04809   5.06539   5.10685   5.18530   5.29322
 Alpha virt. eigenvalues --    5.35483   5.41199   5.48768   5.54912   5.57738
 Alpha virt. eigenvalues --    5.68917   5.71760   5.74008   5.81703   5.85871
 Alpha virt. eigenvalues --    5.96520   6.10202   6.15312   6.27471   6.32382
 Alpha virt. eigenvalues --    6.34794   6.48402   6.58795   6.68731   6.69108
 Alpha virt. eigenvalues --    6.75345   6.77582   6.80069   6.97586   7.04835
 Alpha virt. eigenvalues --    7.12947   7.21165   7.23225   7.32288   9.94909
 Alpha virt. eigenvalues --   10.80853  11.78135  12.80063  14.07162
          Condensed to atoms (all electrons):
               1          2          3          4          5          6
     1  O    7.913536  -0.004727   0.296747   0.316418  -0.076083  -0.046018
     2  O   -0.004727   7.791885   0.001361  -0.082580   0.365145  -0.000146
     3  C    0.296747   0.001361   4.756749  -0.109713  -0.004768   0.377419
     4  C    0.316418  -0.082580  -0.109713   5.041745   0.573803   0.009483
     5  C   -0.076083   0.365145  -0.004768   0.573803   4.833955  -0.000453
     6  H   -0.046018  -0.000146   0.377419   0.009483  -0.000453   0.657474
     7  H   -0.040710  -0.000064   0.384502   0.008148   0.004020  -0.028282
     8  H   -0.035769   0.000008   0.408920  -0.003746  -0.001588  -0.050097
     9  H   -0.049566   0.005170  -0.000571   0.396936  -0.071723   0.002425
    10  H    0.003813  -0.034216  -0.000105  -0.067785   0.417852  -0.000608
    11  H    0.022232   0.327523  -0.001278  -0.016346  -0.050261   0.000333
               7          8          9         10         11
     1  O   -0.040710  -0.035769  -0.049566   0.003813   0.022232
     2  O   -0.000064   0.000008   0.005170  -0.034216   0.327523
     3  C    0.384502   0.408920  -0.000571  -0.000105  -0.001278
     4  C    0.008148  -0.003746   0.396936  -0.067785  -0.016346
     5  C    0.004020  -0.001588  -0.071723   0.417852  -0.050261
     6  H   -0.028282  -0.050097   0.002425  -0.000608   0.000333
     7  H    0.625475  -0.047029  -0.001649   0.000019  -0.001055
     8  H   -0.047029   0.613856   0.003530   0.000049   0.000270
     9  H   -0.001649   0.003530   0.603928  -0.004057   0.001712
    10  H    0.000019   0.000049  -0.004057   0.523939   0.006321
    11  H   -0.001055   0.000270   0.001712   0.006321   0.431138
 Mulliken charges:
               1
     1  O   -0.299873
     2  O   -0.369358
     3  C   -0.109260
     4  C   -0.066361
     5  C    0.010103
     6  H    0.078472
     7  H    0.096624
     8  H    0.111597
     9  H    0.113865
    10  H    0.154778
    11  H    0.279413
 Sum of Mulliken charges =  -0.00000
 Mulliken charges with hydrogens summed into heavy atoms:
               1
     1  O   -0.299873
     2  O   -0.089945
     3  C    0.177433
     4  C    0.047504
     5  C    0.164881
 APT charges:
               1
     1  O   -0.217932
     2  O   -0.308269
     3  C   -0.937099
     4  C   -0.404743
     5  C   -0.368861
     6  H    0.246124
     7  H    0.344036
     8  H    0.473074
     9  H    0.350469
    10  H    0.489944
    11  H    0.333256
 Sum of APT charges =  -0.00000
 APT charges with hydrogens summed into heavy atoms:
               1
     1  O   -0.217932
     2  O    0.024987
     3  C    0.126136
     4  C   -0.054274
     5  C    0.121083
 Electronic spatial extent (au):  <R**2>=            472.4628
 Charge=             -0.0000 electrons
 Dipole moment (field-independent basis, Debye):
    X=              1.8860    Y=              0.6357    Z=              0.7374  Tot=              2.1224
 Quadrupole moment (field-independent basis, Debye-Ang):
   XX=            -30.4996   YY=            -27.0554   ZZ=            -32.5632
   XY=             -1.7758   XZ=              1.1939   YZ=              0.5795
 Traceless Quadrupole moment (field-independent basis, Debye-Ang):
   XX=             -0.4602   YY=              2.9840   ZZ=             -2.5238
   XY=             -1.7758   XZ=              1.1939   YZ=              0.5795
 Octapole moment (field-independent basis, Debye-Ang**2):
  XXX=             12.6485  YYY=             -6.2920  ZZZ=             -1.1434  XYY=             -2.5186
  XXY=              4.7869  XXZ=              0.8641  XZZ=             -0.4175  YZZ=             -2.0895
  YYZ=             -0.5159  XYZ=             -2.7539
 Hexadecapole moment (field-independent basis, Debye-Ang**3):
 XXXX=           -436.4357 YYYY=            -99.3291 ZZZZ=            -55.9592 XXXY=            -14.6027
 XXXZ=             -5.0402 YYYX=              5.8166 YYYZ=              1.8306 ZZZX=             -1.3653
 ZZZY=              1.1712 XXYY=            -88.0578 XXZZ=            -82.5935 YYZZ=            -28.7848
 XXYZ=              2.9220 YYXZ=              0.2502 ZZXY=              2.1070
 N-N= 1.764626119602D+02 E-N=-9.812395823447D+02  KE= 2.666814432294D+02
  Exact polarizability:   0.000   0.000   0.000   0.000   0.000   0.000
 Approx polarizability:  64.270   1.825  50.772  -3.541   0.996  40.474
 No NMR shielding tensors so no spin-rotation constants.
 Leave Link  601 at Tue Sep 24 14:44:54 2019, MaxMem=   671088640 cpu:              46.9 elap:              23.5
 (Enter /shared/centos7/gaussian/g16/l701.exe)
 SCFChk:  SCF convergence  4.61D-09 required  1.00D-08
 ... and contract with generalized density number  0.
 Compute integral second derivatives.
 Entering OneElI...
 Calculate overlap and kinetic energy integrals
    NBasis = 265  MinDer = 2  MaxDer = 2
 Requested accuracy = 0.1000D-12
 PrmmSu-InSpLW:  IPartL=    0 NPrtUS=   20 NPrtUL=    1 DoSpLW=F IThBeg=    0 IThEnd=   19 NThAct=   20.
 PrsmSu:  NPrtUS=  20 ThrOK=T IAlg=1 NPAlg=1 LenDen=           0 ISkipM=0 DoSpLW=F IThBeg=    0 IThEnd=   19.
 Prism:   IPart=     0 DynPar=F LinDyn=F Incr=           1.
 PRISM was handed    33439009 working-precision words and  3738 shell-pairs
 PRISM was handed    33439009 working-precision words and  3738 shell-pairs
 PRISM was handed    33439009 working-precision words and  3738 shell-pairs
 PRISM was handed    33439009 working-precision words and  3738 shell-pairs
 PRISM was handed    33439009 working-precision words and  3738 shell-pairs
 PRISM was handed    33439009 working-precision words and  3738 shell-pairs
 PRISM was handed    33439009 working-precision words and  3738 shell-pairs
 PRISM was handed    33439009 working-precision words and  3738 shell-pairs
 PRISM was handed    33439009 working-precision words and  3738 shell-pairs
 PRISM was handed    33439009 working-precision words and  3738 shell-pairs
 PRISM was handed    33439009 working-precision words and  3738 shell-pairs
 PRISM was handed    33439009 working-precision words and  3738 shell-pairs
 PRISM was handed    33439009 working-precision words and  3738 shell-pairs
 PRISM was handed    33439009 working-precision words and  3738 shell-pairs
 PRISM was handed    33439009 working-precision words and  3738 shell-pairs
 PRISM was handed    33439009 working-precision words and  3738 shell-pairs
 PRISM was handed    33439009 working-precision words and  3738 shell-pairs
 PRISM was handed    33439009 working-precision words and  3738 shell-pairs
 PRISM was handed    33439009 working-precision words and  3738 shell-pairs
 PRISM was handed    33439009 working-precision words and  3738 shell-pairs
 IPart=  8 NShTot=         181 NBatch=          29 AvBLen=         6.2
 IPart= 11 NShTot=         175 NBatch=          27 AvBLen=         6.5
 IPart= 19 NShTot=         163 NBatch=          25 AvBLen=         6.5
 IPart=  0 NShTot=         230 NBatch=          69 AvBLen=         3.3
 IPart= 17 NShTot=         169 NBatch=          26 AvBLen=         6.5
 IPart= 14 NShTot=         172 NBatch=          27 AvBLen=         6.4
 IPart=  9 NShTot=         180 NBatch=          28 AvBLen=         6.4
 IPart= 13 NShTot=         173 NBatch=          27 AvBLen=         6.4
 IPart=  4 NShTot=         208 NBatch=          49 AvBLen=         4.2
 IPart=  2 NShTot=         213 NBatch=          54 AvBLen=         3.9
 IPart= 15 NShTot=         171 NBatch=          26 AvBLen=         6.6
 IPart=  3 NShTot=         211 NBatch=          52 AvBLen=         4.1
 IPart= 12 NShTot=         174 NBatch=          27 AvBLen=         6.4
 IPart= 16 NShTot=         169 NBatch=          26 AvBLen=         6.5
 IPart= 10 NShTot=         178 NBatch=          28 AvBLen=         6.4
 IPart=  1 NShTot=         224 NBatch=          64 AvBLen=         3.5
 IPart=  5 NShTot=         199 NBatch=          43 AvBLen=         4.6
 IPart= 18 NShTot=         164 NBatch=          25 AvBLen=         6.6
 IPart=  7 NShTot=         189 NBatch=          35 AvBLen=         5.4
 IPart=  6 NShTot=         195 NBatch=          39 AvBLen=         5.0
 PrSmSu:  NxtVal=             21.
 Entering OneElI...
 Calculate potential energy integrals
    NBasis = 265  MinDer = 2  MaxDer = 2
 Requested accuracy = 0.1000D-12
 PrmmSu-InSpLW:  IPartL=    0 NPrtUS=   20 NPrtUL=    1 DoSpLW=F IThBeg=    0 IThEnd=   19 NThAct=   20.
 PrsmSu:  NPrtUS=  20 ThrOK=T IAlg=1 NPAlg=1 LenDen=           0 ISkipM=0 DoSpLW=F IThBeg=    0 IThEnd=   19.
 Prism:   IPart=     0 DynPar=F LinDyn=F Incr=          19.
 PRISM was handed    33456486 working-precision words and  3533 shell-pairs
 PRISM was handed    33456486 working-precision words and  3533 shell-pairs
 PRISM was handed    33456486 working-precision words and  3533 shell-pairs
 PRISM was handed    33456486 working-precision words and  3533 shell-pairs
 PRISM was handed    33456486 working-precision words and  3533 shell-pairs
 PRISM was handed    33456486 working-precision words and  3533 shell-pairs
 PRISM was handed    33456486 working-precision words and  3533 shell-pairs
 PRISM was handed    33456486 working-precision words and  3533 shell-pairs
 PRISM was handed    33456486 working-precision words and  3533 shell-pairs
 PRISM was handed    33456486 working-precision words and  3533 shell-pairs
 PRISM was handed    33456486 working-precision words and  3533 shell-pairs
 PRISM was handed    33456486 working-precision words and  3533 shell-pairs
 PRISM was handed    33456486 working-precision words and  3533 shell-pairs
 PRISM was handed    33456486 working-precision words and  3533 shell-pairs
 PRISM was handed    33456486 working-precision words and  3533 shell-pairs
 PRISM was handed    33456486 working-precision words and  3533 shell-pairs
 PRISM was handed    33456486 working-precision words and  3533 shell-pairs
 PRISM was handed    33456486 working-precision words and  3533 shell-pairs
 PRISM was handed    33456486 working-precision words and  3533 shell-pairs
 PRISM was handed    33456486 working-precision words and  3533 shell-pairs
 IPart= 16 NShTot=        1793 NBatch=         163 AvBLen=        11.0
 IPart= 18 NShTot=        1749 NBatch=         159 AvBLen=        11.0
 IPart= 17 NShTot=        1771 NBatch=         161 AvBLen=        11.0
 IPart=  2 NShTot=        2222 NBatch=         202 AvBLen=        11.0
 IPart=  5 NShTot=        1969 NBatch=         179 AvBLen=        11.0
 IPart= 10 NShTot=        1870 NBatch=         170 AvBLen=        11.0
 IPart=  1 NShTot=        2288 NBatch=         208 AvBLen=        11.0
 IPart=  8 NShTot=        1903 NBatch=         173 AvBLen=        11.0
 IPart=  7 NShTot=        1936 NBatch=         176 AvBLen=        11.0
 IPart=  6 NShTot=        1947 NBatch=         177 AvBLen=        11.0
 IPart=  0 NShTot=        2398 NBatch=         218 AvBLen=        11.0
 IPart= 12 NShTot=        1848 NBatch=         168 AvBLen=        11.0
 IPart= 14 NShTot=        1815 NBatch=         165 AvBLen=        11.0
 IPart=  4 NShTot=        2112 NBatch=         192 AvBLen=        11.0
 IPart= 13 NShTot=        1837 NBatch=         167 AvBLen=        11.0
 IPart= 19 NShTot=        1738 NBatch=         158 AvBLen=        11.0
 IPart=  9 NShTot=        1881 NBatch=         171 AvBLen=        11.0
 IPart= 15 NShTot=        1793 NBatch=         163 AvBLen=        11.0
 IPart=  3 NShTot=        2134 NBatch=         194 AvBLen=        11.0
 IPart= 11 NShTot=        1859 NBatch=         169 AvBLen=        11.0
 PrSmSu:  NxtVal=            381.
 Polarizability after L701:
                1             2             3 
      1  0.000000D+00
      2  0.000000D+00  0.000000D+00
      3  0.000000D+00  0.000000D+00  0.000000D+00
 Dipole Derivatives after L701:
                 1             2             3             4             5 
      1  -0.214632D+00 -0.350241D-01 -0.496890D-01  0.320979D+00  0.462843D-01
      2   0.216979D-01 -0.246944D+00  0.636684D-01  0.584346D+00 -0.802090D+00
      3  -0.701383D-01  0.118870D+00 -0.192219D+00  0.267804D-01 -0.149715D+00
                 6             7             8             9            10 
      1  -0.194536D+00 -0.135714D+01  0.433094D-01 -0.332225D+00 -0.386064D+00
      2  -0.242156D+00 -0.602156D-02 -0.735584D+00  0.401969D-01  0.874913D-01
      3  -0.443697D+00 -0.556787D-01  0.337092D-01 -0.718567D+00  0.206967D+00
                11            12            13            14            15 
      1  -0.159580D+00  0.183730D+00 -0.612913D+00  0.221486D+00  0.244920D+00
      2  -0.791841D+00 -0.186363D+00 -0.789393D-01 -0.510095D+00 -0.494052D-01
      3  -0.105050D+00 -0.363235D-01  0.205700D+00 -0.329580D-01  0.164259D-01
                16            17            18            19            20 
      1   0.114374D+00  0.428399D+00  0.433144D+00  0.261649D+00 -0.678639D+00
      2  -0.263151D-01  0.241523D+00  0.172646D+00 -0.354752D-01  0.574345D+00
      3  -0.776748D-02  0.310047D+00  0.382476D+00  0.547224D-01 -0.275926D+00
                21            22            23            24            25 
      1   0.305852D+00  0.106176D+01  0.208038D+00 -0.468996D+00  0.190386D+00
      2  -0.193293D+00 -0.182406D-02  0.101294D+00 -0.231698D-01  0.238126D+00
      3   0.196112D+00 -0.115512D+00 -0.430430D-01  0.256167D+00 -0.688935D-01
                26            27            28            29            30 
      1   0.153023D+00 -0.383138D-01  0.727055D+00 -0.639324D+00 -0.265330D+00
      2   0.793080D+00  0.412906D-01 -0.354311D+00  0.595840D+00  0.177794D+00
      3  -0.687018D-01  0.679413D-01 -0.119673D+00  0.140895D+00  0.146937D+00
                31            32            33 
      1  -0.105453D+00  0.412028D+00  0.181446D+00
      2  -0.428775D+00  0.780473D+00  0.198791D+00
      3  -0.565064D-01  0.718728D-01  0.324747D+00
 Hessian after L701:
                1             2             3             4             5 
      1  0.438841D+01
      2  0.384062D+01  0.107454D+02
      3 -0.145788D+01 -0.131052D+01  0.121667D+02
      4  0.768121D+00  0.185628D+00 -0.325451D+00  0.806719D+01
      5  0.857831D-01 -0.406184D+00 -0.207761D-01 -0.159350D+01  0.416702D+01
      6 -0.354882D+00 -0.470940D-01 -0.369469D+00  0.122672D+01 -0.135207D+01
      7 -0.143841D+01 -0.116045D+00  0.374700D+01  0.266484D+00  0.397310D-01
      8 -0.183268D+00 -0.696253D+01 -0.409639D-01  0.774985D-01 -0.133095D+00
      9  0.365171D+01  0.114329D-01 -0.472156D+01 -0.152563D-02 -0.247702D-02
     10 -0.423086D+01 -0.438438D+01 -0.125195D+01  0.458885D+00  0.200273D+00
     11 -0.445829D+01 -0.346164D+01  0.174045D+01  0.113880D+00 -0.218665D+00
     12 -0.115314D+01  0.161159D+01 -0.735374D+01  0.640912D-01 -0.801275D-01
     13  0.477568D+00  0.131010D+00 -0.785299D-01 -0.667046D+01  0.327635D+01
     14  0.235934D+00 -0.352528D+00 -0.982796D-01  0.356086D+01 -0.379613D+00
     15 -0.721350D-01 -0.811856D-01  0.974515D-01  0.998012D-01  0.490224D+00
     16 -0.665937D-01 -0.673586D-01 -0.155530D+00  0.277380D-01  0.113358D-01
     17 -0.422607D-01  0.188863D+00  0.871299D-01  0.354639D-01 -0.945845D-02
     18 -0.141797D+00  0.577270D-01  0.166198D+00  0.331227D-01  0.715353D-02
     19 -0.232343D+00  0.417102D-01 -0.155486D+00  0.353426D-01 -0.891361D-02
     20  0.334082D-01  0.267240D+00 -0.119410D+00 -0.371532D-01 -0.803087D-02
     21 -0.157280D+00 -0.910765D-01  0.885898D-01  0.207516D-01 -0.493428D-02
     22  0.552308D-01  0.990327D-01 -0.296819D+00  0.438474D-01  0.278466D-02
     23  0.926680D-01  0.687382D-01 -0.251640D-01  0.105494D-01 -0.981757D-02
     24 -0.289624D+00 -0.316282D-01  0.209075D-01 -0.122063D-01 -0.697013D-03
     25  0.748153D-01  0.241475D+00  0.589656D-01  0.432442D-01  0.102457D+00
     26  0.255066D+00 -0.327027D-01 -0.197431D+00  0.135726D+00  0.893670D-01
     27  0.457926D-01 -0.142015D+00  0.909189D-01 -0.339308D-02 -0.854353D-02
     28  0.101738D+00 -0.814154D-01 -0.364472D-01  0.115043D+00 -0.916226D-01
     29 -0.100723D+00  0.137149D-01  0.263911D-01 -0.587933D-01 -0.180511D+00
     30 -0.484387D-01  0.304565D-01 -0.203828D-01 -0.213298D-01 -0.306743D-01
     31  0.102332D+00  0.109728D+00 -0.478753D-01 -0.315544D+01 -0.202468D+01
     32  0.241064D+00 -0.683301D-01 -0.414251D-01 -0.243016D+01 -0.291101D+01
     33 -0.223188D-01 -0.768740D-02 -0.165579D+00 -0.108058D+01  0.100292D+01
                6             7             8             9            10 
      6  0.135952D+02
      7 -0.985375D-02  0.900896D+01
      8 -0.156623D-02  0.385696D+00  0.143223D+02
      9 -0.140262D+00 -0.328378D+01 -0.234934D-01  0.128926D+02
     10  0.115674D+00  0.248713D+00 -0.136250D+00  0.184122D+00  0.830544D+01
     11 -0.613788D-01 -0.120020D+00  0.286081D-01 -0.902189D-01  0.199862D+01
     12  0.238559D+00  0.209705D+00 -0.919520D-01  0.100606D+00  0.366970D+01
     13  0.415142D-01  0.223704D+00 -0.126325D+00  0.842838D-01 -0.113846D+01
     14  0.438440D+00 -0.883405D-01 -0.112697D+00 -0.261775D-01  0.148870D+01
     15 -0.825880D+01  0.893126D-01 -0.168511D-01 -0.117956D+00 -0.295016D+01
     16  0.128009D-01 -0.340751D+01  0.819849D-01  0.893263D-01  0.517808D-01
     17  0.702137D-02 -0.710338D-01 -0.231759D+01  0.118013D+01  0.203377D-01
     18 -0.925606D-02 -0.798491D-01  0.124985D+01 -0.203837D+01  0.628658D-01
     19  0.841752D-02 -0.322408D+01 -0.457785D+00  0.222411D+00  0.437084D-02
     20 -0.403000D-02 -0.330401D+00 -0.151750D+01 -0.857460D+00 -0.885222D-01
     21 -0.145028D-01  0.166519D+00 -0.882267D+00 -0.286300D+01  0.404580D-01
     22 -0.730344D-02 -0.168850D+01  0.404290D+00 -0.944068D+00  0.801919D-01
     23 -0.203656D-02  0.363948D+00 -0.335920D+01 -0.191426D+00 -0.643332D-02
     24 -0.608527D-02 -0.851915D+00 -0.189017D+00 -0.304416D+01 -0.220326D-01
     25 -0.144267D-01  0.940271D-03 -0.377654D-01 -0.179439D-02 -0.353395D+01
     26 -0.245321D-01 -0.706126D-01  0.495344D-01 -0.414989D-02  0.784445D+00
     27 -0.372563D-01  0.401914D-02 -0.906660D-02 -0.456665D-01  0.442292D-01
     28 -0.218363D-01  0.191075D-01 -0.129749D-01 -0.134533D-02 -0.260656D+00
     29 -0.517635D-01 -0.185127D-01 -0.596201D-03  0.327020D-02  0.127052D+00
     30  0.501428D-01 -0.201470D-02  0.870872D-03 -0.991629D-02  0.976176D-01
     31 -0.996819D+00 -0.940344D-02  0.490093D-02  0.660204D-03  0.145483D-01
     32  0.109901D+01  0.255917D-01  0.275611D-02  0.570153D-03 -0.383483D-02
     33 -0.504829D+01  0.108481D-01  0.445445D-02 -0.122995D-01  0.947515D-02
               11            12            13            14            15 
     11  0.136659D+02
     12 -0.155505D+01  0.224026D+02
     13  0.184358D+01 -0.296079D+01  0.983171D+01
     14 -0.856913D+01  0.356504D-01 -0.367515D+01  0.119471D+02
     15 -0.411265D-01 -0.116234D+02  0.315270D+01 -0.903343D+00  0.233159D+02
     16 -0.101391D-01  0.856826D-02  0.331360D-01 -0.708040D-02 -0.371052D-02
     17 -0.801125D-01  0.239509D-01  0.115314D-01 -0.187624D-01  0.331216D-02
     18  0.670236D-02 -0.776331D-01  0.189897D-01  0.168446D-02 -0.212877D-01
     19 -0.837265D-01  0.282088D-01  0.689236D-01 -0.427197D-01  0.992394D-02
     20  0.716131D-01 -0.482499D-01 -0.723492D-01  0.811351D-02 -0.660861D-02
     21 -0.527980D-01 -0.348721D-01  0.231139D-01 -0.849088D-02 -0.218559D-01
     22 -0.161211D-01 -0.150266D-01  0.932578D-02  0.501495D-02 -0.191856D-02
     23 -0.249858D-01  0.177473D-02  0.309796D-02 -0.734155D-02 -0.562063D-03
     24 -0.139690D-02 -0.118958D-01 -0.735084D-02 -0.106560D-03 -0.273518D-02
     25  0.712101D+00  0.605002D-01 -0.126997D+00 -0.334288D+00  0.123291D+00
     26 -0.147452D+01  0.143092D+00 -0.381200D+00 -0.458148D-01  0.123567D+00
     27  0.794733D-01 -0.382254D+01  0.131769D+00  0.106820D+00  0.174272D+00
     28  0.104400D+00  0.908872D-01 -0.282936D+01 -0.112406D+01 -0.440311D+00
     29  0.194603D+00 -0.172683D-01 -0.114603D+01 -0.253094D+01  0.491422D+00
     30 -0.199946D-01  0.146512D+00 -0.426250D+00  0.469304D+00 -0.363067D+01
     31 -0.842860D-01 -0.270310D-02  0.120907D+00 -0.188718D-01 -0.679562D-02
     32 -0.131657D+00 -0.234135D-01  0.135479D+00  0.616628D-01 -0.588497D-01
     33 -0.466319D-02  0.357931D-01  0.205476D-01 -0.155027D-01  0.890648D-01
               16            17            18            19            20 
     16  0.325312D+01
     17 -0.858202D-01  0.229466D+01
     18 -0.149936D+00 -0.113771D+01  0.203249D+01
     19  0.748228D-01  0.452885D-01  0.999826D-02  0.320967D+01
     20  0.157967D-01 -0.173705D+00 -0.504714D-01  0.620606D+00  0.140899D+01
     21  0.476409D-02 -0.578923D-01  0.865779D-01 -0.212193D+00  0.917390D+00
     22  0.302605D-01  0.923972D-01  0.226662D+00  0.751034D-01 -0.147081D+00
     23  0.802885D-01  0.120222D+00 -0.113434D+00 -0.121531D+00 -0.536189D-01
     24  0.175826D+00 -0.103027D+00 -0.136192D+00  0.914093D-01  0.166583D+00
     25  0.488441D-02 -0.110429D-01  0.165492D-01 -0.437319D-02  0.975070D-02
     26 -0.243974D-01 -0.642532D-02 -0.254258D-01  0.756003D-02 -0.334730D-02
     27  0.153587D-01 -0.643564D-02 -0.186075D-02 -0.240437D-02  0.362809D-02
     28 -0.335951D-02  0.414772D-02  0.244710D-02  0.345286D-02 -0.648423D-02
     29 -0.130626D-02 -0.334276D-02 -0.311384D-02 -0.389370D-02  0.528399D-02
     30 -0.102294D-02 -0.640862D-03 -0.167992D-02 -0.186029D-03  0.135127D-02
     31  0.172117D-02  0.991145D-03  0.947863D-03 -0.108872D-01  0.242951D-02
     32  0.669595D-02  0.564824D-02  0.703425D-02  0.340568D-02 -0.504122D-02
     33  0.355609D-02  0.416081D-02  0.101462D-02 -0.988424D-04 -0.272183D-02
               21            22            23            24            25 
     21  0.276915D+01
     22  0.120061D+00  0.135742D+01
     23  0.176403D+00 -0.401156D+00  0.325831D+01
     24 -0.956009D-02  0.920031D+00  0.153411D+00  0.320375D+01
     25 -0.409865D-02  0.265991D-01 -0.226601D-01 -0.241527D-02  0.355042D+01
     26  0.288073D-02 -0.433239D-01  0.777712D-02  0.608813D-02 -0.666289D+00
     27 -0.672390D-04 -0.142671D-02  0.588741D-03 -0.115806D-01 -0.244660D+00
     28  0.189558D-02  0.733884D-02 -0.404141D-03 -0.268015D-02 -0.317094D-01
     29 -0.199247D-02 -0.607627D-02 -0.993730D-03  0.178411D-02 -0.119099D-01
     30 -0.141055D-02 -0.241762D-02 -0.181285D-03 -0.151350D-04  0.642290D-02
     31 -0.399088D-02  0.317586D-02  0.163277D-02  0.956964D-03 -0.388131D-02
     32  0.277830D-02  0.102384D-01  0.919261D-03 -0.199301D-02  0.181716D-01
     33  0.947714D-03  0.222636D-02  0.626997D-03 -0.243360D-02  0.166647D-02
               26            27            28            29            30 
     26  0.138152D+01
     27 -0.281393D-01  0.366267D+01
     28 -0.545743D-02  0.105554D-01  0.288463D+01
     29  0.641416D-03  0.233635D-02  0.126233D+01  0.241690D+01
     30 -0.116496D-04 -0.179631D-02  0.407958D+00 -0.478598D+00  0.348207D+01
     31  0.848380D-02  0.159878D-03 -0.623259D-02 -0.421433D-01 -0.103382D-01
     32  0.339791D-01  0.135340D-02 -0.484663D-01  0.852415D-01  0.281181D-01
     33  0.406122D-02 -0.709373D-02 -0.111232D-01  0.275322D-01 -0.128544D-01
               31            32            33 
     31  0.294316D+01
     32  0.204181D+01  0.292583D+01
     33  0.106580D+01 -0.101318D+01  0.512173D+01
 Leave Link  701 at Tue Sep 24 14:45:13 2019, MaxMem=   671088640 cpu:              36.6 elap:              18.3
 (Enter /shared/centos7/gaussian/g16/l702.exe)
 L702 exits ... SP integral derivatives will be done elsewhere.
 Leave Link  702 at Tue Sep 24 14:45:14 2019, MaxMem=   671088640 cpu:               1.7 elap:               0.8
 (Enter /shared/centos7/gaussian/g16/l703.exe)
 Integral derivatives from FoFJK, PRISM(SPDF).
 Compute integral second derivatives, UseDBF=F ICtDFT=           0.
 ICntrl=    100147.
 Calling FoFJK, ICntrl=    100147 FMM=F ISym2X=0 I1Cent= 0 IOpClX= 0 NMat=1 NMatS=1 NMatT=0.
 FoFJK:  IHMeth= 1 ICntrl=  100147 DoSepK=F KAlg= 0 I1Cent=           0 FoldK=F
 IRaf=         0 NMat=       1 IRICut=       1 DoRegI=T DoRafI=F ISym2E= 0 IDoP0=0 IntGTp=1.
 FoFCou: FMM=F IPFlag=           0 FMFlag=      100000 FMFlg1=         800
         NFxFlg=           0 DoJE=F BraDBF=F KetDBF=F FulRan=T
         wScrn=  0.000000 ICntrl=    100147 IOpCl=  0 I1Cent=           0 NGrid=           0
         NMat0=    1 NMatS0=      1 NMatT0=    0 NMatD0=    1 NMtDS0=    0 NMtDT0=    0
 Symmetry not used in FoFCou.
 FoFCou:  KetSym=F NOpSet=  1 NOpAb=1 NOp=  1.
 FoFCou:  CnvScl= 1.00D+00 Thresh= 1.00D-08 IAcrcy=      12.
 PrismS was handed   670742119 working-precision words and  3650 shell-pairs
 FoFCou: LinMIO=F DoNuc=F BraDBF=F KetDBF=F HaveP=T PDBF=F HaveZ=T HaveW=F
         NIJTC =      10 NIJTAt=       0 NIJTCD=       0 NIJTT =      10
         IJTBeg=       1 IJTEnd=      10 KLTBeg=       1 KLTEnd=      10
         IPTBeg=       1 IPTEnd=      10 IPTBCv=       1 IPTECv=      10
         IZTBeg=       1 IZTEnd=      10 IZTBCv=       1 IZTECv=      10
         IWTBeg=      11 IWTEnd=      10 IWTBCv=      11 IWTECv=      10
         INTBeg=       1 INTEnd=       0 IFTBCv=       1 IFTECv=      10
 NCel replicated for PrismC:     1
 CoulSu-InSpLW:  IPartL=    0 NPrtUS=   20 NPrtUL=    1 DoSpLW=F IThBeg=    0 IThEnd=   19 NThAct=   20.
 CoulSu:  IncDef=  1024 NBBP=        6663075 NTPThr=   100 NPartT=   20 Incr=        1024 LDynOK=F GPUOK=T.
 CoulSu:  NPrtUS=  20 ThrOK=T IAlg=1 NPAlg=1 LenDen=           0 LWGrdD=           0 DoCopy=F ISkipM=0
          DoSpLW=F IThBeg=    0 IThEnd=   19.
 Enter PrismC:  IPart=  0 JobTyp=22 DoJE=F Cont=F.
 PrismC:  IPart=     0 DynPar=T LinDyn=F Incr=        1024 UseFst=F UseS4=T ISplat=2.
 PrismC was handed    33457123 working-precision words and  3650 shell-pairs
 Enter PrismC:  IPart=  1 JobTyp=22 DoJE=F Cont=F.
 PrismC:  IPart=     1 DynPar=T LinDyn=F Incr=        1024 UseFst=F UseS4=T ISplat=2.
 PrismC was handed    33457123 working-precision words and  3650 shell-pairs
 Enter PrismC:  IPart=  8 JobTyp=22 DoJE=F Cont=F.
 PrismC:  IPart=     8 DynPar=T LinDyn=F Incr=        1024 UseFst=F UseS4=T ISplat=2.
 PrismC was handed    33457123 working-precision words and  3650 shell-pairs
 Enter PrismC:  IPart= 19 JobTyp=22 DoJE=F Cont=F.
 PrismC:  IPart=    19 DynPar=T LinDyn=F Incr=        1024 UseFst=F UseS4=T ISplat=2.
 PrismC was handed    33457123 working-precision words and  3650 shell-pairs
 Enter PrismC:  IPart= 11 JobTyp=22 DoJE=F Cont=F.
 PrismC:  IPart=    11 DynPar=T LinDyn=F Incr=        1024 UseFst=F UseS4=T ISplat=2.
 PrismC was handed    33457123 working-precision words and  3650 shell-pairs
 Enter PrismC:  IPart=  6 JobTyp=22 DoJE=F Cont=F.
 PrismC:  IPart=     6 DynPar=T LinDyn=F Incr=        1024 UseFst=F UseS4=T ISplat=2.
 PrismC was handed    33457123 working-precision words and  3650 shell-pairs
 Enter PrismC:  IPart= 13 JobTyp=22 DoJE=F Cont=F.
 PrismC:  IPart=    13 DynPar=T LinDyn=F Incr=        1024 UseFst=F UseS4=T ISplat=2.
 PrismC was handed    33457123 working-precision words and  3650 shell-pairs
 Enter PrismC:  IPart=  7 JobTyp=22 DoJE=F Cont=F.
 PrismC:  IPart=     7 DynPar=T LinDyn=F Incr=        1024 UseFst=F UseS4=T ISplat=2.
 PrismC was handed    33457123 working-precision words and  3650 shell-pairs
 Enter PrismC:  IPart= 14 JobTyp=22 DoJE=F Cont=F.
 Enter PrismC:  IPart=  4 JobTyp=22 DoJE=F Cont=F.
 PrismC:  IPart=     4 DynPar=T LinDyn=F Incr=        1024 UseFst=F UseS4=T ISplat=2.
 PrismC was handed    33457123 working-precision words and  3650 shell-pairs
 PrismC:  IPart=    14 DynPar=T LinDyn=F Incr=        1024 UseFst=F UseS4=T ISplat=2.
 PrismC was handed    33457123 working-precision words and  3650 shell-pairs
 Enter PrismC:  IPart=  5 JobTyp=22 DoJE=F Cont=F.
 PrismC:  IPart=     5 DynPar=T LinDyn=F Incr=        1024 UseFst=F UseS4=T ISplat=2.
 PrismC was handed    33457123 working-precision words and  3650 shell-pairs
 Enter PrismC:  IPart=  2 JobTyp=22 DoJE=F Cont=F.
 PrismC:  IPart=     2 DynPar=T LinDyn=F Incr=        1024 UseFst=F UseS4=T ISplat=2.
 PrismC was handed    33457123 working-precision words and  3650 shell-pairs
 Enter PrismC:  IPart= 12 JobTyp=22 DoJE=F Cont=F.
 PrismC:  IPart=    12 DynPar=T LinDyn=F Incr=        1024 UseFst=F UseS4=T ISplat=2.
 PrismC was handed    33457123 working-precision words and  3650 shell-pairs
 Enter PrismC:  IPart=  9 JobTyp=22 DoJE=F Cont=F.
 PrismC:  IPart=     9 DynPar=T LinDyn=F Incr=        1024 UseFst=F UseS4=T ISplat=2.
 PrismC was handed    33457123 working-precision words and  3650 shell-pairs
 Enter PrismC:  IPart= 10 JobTyp=22 DoJE=F Cont=F.
 PrismC:  IPart=    10 DynPar=T LinDyn=F Incr=        1024 UseFst=F UseS4=T ISplat=2.
 PrismC was handed    33457123 working-precision words and  3650 shell-pairs
 Enter PrismC:  IPart= 18 JobTyp=22 DoJE=F Cont=F.
 PrismC:  IPart=    18 DynPar=T LinDyn=F Incr=        1024 UseFst=F UseS4=T ISplat=2.
 PrismC was handed    33457123 working-precision words and  3650 shell-pairs
 Enter PrismC:  IPart=  3 JobTyp=22 DoJE=F Cont=F.
 PrismC:  IPart=     3 DynPar=T LinDyn=F Incr=        1024 UseFst=F UseS4=T ISplat=2.
 PrismC was handed    33457123 working-precision words and  3650 shell-pairs
 Enter PrismC:  IPart= 17 JobTyp=22 DoJE=F Cont=F.
 PrismC:  IPart=    17 DynPar=T LinDyn=F Incr=        1024 UseFst=F UseS4=T ISplat=2.
 PrismC was handed    33457123 working-precision words and  3650 shell-pairs
 Enter PrismC:  IPart= 16 JobTyp=22 DoJE=F Cont=F.
 PrismC:  IPart=    16 DynPar=T LinDyn=F Incr=        1024 UseFst=F UseS4=T ISplat=2.
 PrismC was handed    33457123 working-precision words and  3650 shell-pairs
 Enter PrismC:  IPart= 15 JobTyp=22 DoJE=F Cont=F.
 PrismC:  IPart=    15 DynPar=T LinDyn=F Incr=        1024 UseFst=F UseS4=T ISplat=2.
 PrismC was handed    33457123 working-precision words and  3650 shell-pairs
 IPart= 16 NShTot=      230006 NShNF=      230006 NShFF=           0 MinMC=       7
           NShCPU=      230006 NBCPU=        9713 AvBCPU=        23.7
           NShGPU=           0 NBGPU=           0 AvBGPU=         0.0
 IPart=  2 NShTot=      211397 NShNF=      211397 NShFF=           0 MinMC=       7
           NShCPU=      211397 NBCPU=        8603 AvBCPU=        24.6
           NShGPU=           0 NBGPU=           0 AvBGPU=         0.0
 IPart=  7 NShTot=      202386 NShNF=      202386 NShFF=           0 MinMC=       7
           NShCPU=      202386 NBCPU=        9033 AvBCPU=        22.4
           NShGPU=           0 NBGPU=           0 AvBGPU=         0.0
 IPart= 11 NShTot=      212466 NShNF=      212466 NShFF=           0 MinMC=       7
           NShCPU=      212466 NBCPU=        8934 AvBCPU=        23.8
           NShGPU=           0 NBGPU=           0 AvBGPU=         0.0
 IPart= 19 NShTot=      225190 NShNF=      225190 NShFF=           0 MinMC=       7
           NShCPU=      225190 NBCPU=        9250 AvBCPU=        24.3
           NShGPU=           0 NBGPU=           0 AvBGPU=         0.0
 IPart= 13 NShTot=      236162 NShNF=      236162 NShFF=           0 MinMC=       7
           NShCPU=      236162 NBCPU=       10084 AvBCPU=        23.4
           NShGPU=           0 NBGPU=           0 AvBGPU=         0.0
 IPart=  0 NShTot=      231849 NShNF=      231849 NShFF=           0 MinMC=       7
           NShCPU=      231849 NBCPU=        9804 AvBCPU=        23.6
           NShGPU=           0 NBGPU=           0 AvBGPU=         0.0
 IPart= 14 NShTot=      188657 NShNF=      188657 NShFF=           0 MinMC=       7
           NShCPU=      188657 NBCPU=        8408 AvBCPU=        22.4
           NShGPU=           0 NBGPU=           0 AvBGPU=         0.0
 IPart=  3 NShTot=      214596 NShNF=      214596 NShFF=           0 MinMC=       7
           NShCPU=      214596 NBCPU=        8587 AvBCPU=        25.0
           NShGPU=           0 NBGPU=           0 AvBGPU=         0.0
 IPart=  5 NShTot=      215691 NShNF=      215691 NShFF=           0 MinMC=       7
           NShCPU=      215691 NBCPU=        8641 AvBCPU=        25.0
           NShGPU=           0 NBGPU=           0 AvBGPU=         0.0
 IPart=  1 NShTot=      233650 NShNF=      233650 NShFF=           0 MinMC=       7
           NShCPU=      233650 NBCPU=        9855 AvBCPU=        23.7
           NShGPU=           0 NBGPU=           0 AvBGPU=         0.0
 IPart=  8 NShTot=      231663 NShNF=      231663 NShFF=           0 MinMC=       7
           NShCPU=      231663 NBCPU=        9534 AvBCPU=        24.3
           NShGPU=           0 NBGPU=           0 AvBGPU=         0.0
 IPart= 12 NShTot=      205422 NShNF=      205422 NShFF=           0 MinMC=       7
           NShCPU=      205422 NBCPU=        8462 AvBCPU=        24.3
           NShGPU=           0 NBGPU=           0 AvBGPU=         0.0
 IPart= 15 NShTot=      240838 NShNF=      240838 NShFF=           0 MinMC=       7
           NShCPU=      240838 NBCPU=        9983 AvBCPU=        24.1
           NShGPU=           0 NBGPU=           0 AvBGPU=         0.0
 IPart=  4 NShTot=      227084 NShNF=      227084 NShFF=           0 MinMC=       7
           NShCPU=      227084 NBCPU=        9156 AvBCPU=        24.8
           NShGPU=           0 NBGPU=           0 AvBGPU=         0.0
 IPart=  6 NShTot=      210276 NShNF=      210276 NShFF=           0 MinMC=       7
           NShCPU=      210276 NBCPU=        8927 AvBCPU=        23.6
           NShGPU=           0 NBGPU=           0 AvBGPU=         0.0
 IPart=  9 NShTot=      210397 NShNF=      210397 NShFF=           0 MinMC=       7
           NShCPU=      210397 NBCPU=        9111 AvBCPU=        23.1
           NShGPU=           0 NBGPU=           0 AvBGPU=         0.0
 IPart= 10 NShTot=      231462 NShNF=      231462 NShFF=           0 MinMC=       7
           NShCPU=      231462 NBCPU=        9621 AvBCPU=        24.1
           NShGPU=           0 NBGPU=           0 AvBGPU=         0.0
 IPart= 17 NShTot=      217639 NShNF=      217639 NShFF=           0 MinMC=       7
           NShCPU=      217639 NBCPU=        9477 AvBCPU=        23.0
           NShGPU=           0 NBGPU=           0 AvBGPU=         0.0
 IPart= 18 NShTot=      221206 NShNF=      221206 NShFF=           0 MinMC=       7
           NShCPU=      221206 NBCPU=        9249 AvBCPU=        23.9
           NShGPU=           0 NBGPU=           0 AvBGPU=         0.0
 CoulSu:  NxtVal=        7111681 LenVP=       33457124 MinMC=       7.
 ReadGW:  IGet=0 IStart=           1 Next=           1 LGW=           0.
 Remaining memory in FofDFT      639.93 Mw
 CkSvGd:  ISavGI=        -1 IRadAn=       5 IRASav=       5 ISavGd=        -1.
 CalDSu-InSpLW:  IPartL=    0 NPrtUS=   20 NPrtUL=    1 DoSpLW=F IThBeg=    0 IThEnd=   19 NThAct=   20.
 CalDSu:  NPrtUS=  20 ThrOK=T IAlg=1 NPAlg=2 DoDPD=T LenP=       35245 LenD1P=             0 GPUOK=F
          ISkipM=0 DoSpLW=F IThBeg=    0 IThEnd=   19.
 IPart=  0 IRanGd=          0 ScrnBf=T ScrnGd=T RCrit=4.00D+00 DoMicB=T.
 IPart=  5         8927 of        10128 points in      11 batches and       61 microbatches, Max-NSigAt=      11 Max-NSgAt2=      11
 IPart= 10         9008 of         9716 points in       9 batches and       40 microbatches, Max-NSigAt=      11 Max-NSgAt2=      11
 IPart= 15        12405 of        13652 points in      14 batches and       94 microbatches, Max-NSigAt=      11 Max-NSgAt2=      11
 IPart=  2         9078 of         9768 points in      10 batches and       47 microbatches, Max-NSigAt=      11 Max-NSgAt2=      11
 IPart=  8         8565 of         9504 points in      11 batches and       53 microbatches, Max-NSigAt=      11 Max-NSgAt2=      11
 IPart= 11         8194 of         9070 points in       9 batches and       61 microbatches, Max-NSigAt=      11 Max-NSgAt2=      11
 IPart= 14        14224 of        15946 points in      17 batches and       93 microbatches, Max-NSigAt=      11 Max-NSgAt2=      11
 IPart=  3        13947 of        15346 points in      17 batches and       93 microbatches, Max-NSigAt=      11 Max-NSgAt2=      11
 IPart= 17        13902 of        15510 points in      17 batches and       74 microbatches, Max-NSigAt=      11 Max-NSgAt2=      11
 IPart= 16        13974 of        15306 points in      16 batches and       71 microbatches, Max-NSigAt=      11 Max-NSgAt2=      11
 IPart= 19         8358 of         9580 points in      11 batches and       80 microbatches, Max-NSigAt=      11 Max-NSgAt2=      11
 IPart=  9        15344 of        16088 points in      15 batches and       59 microbatches, Max-NSigAt=      11 Max-NSgAt2=      11
 IPart=  7        13574 of        15492 points in      18 batches and       81 microbatches, Max-NSigAt=      11 Max-NSgAt2=      11
 IPart=  6        10270 of        11884 points in      12 batches and       50 microbatches, Max-NSigAt=      11 Max-NSgAt2=      11
 IPart=  1         9268 of         9706 points in       9 batches and       48 microbatches, Max-NSigAt=      11 Max-NSgAt2=      11
 IPart=  4         8445 of         9056 points in       9 batches and       50 microbatches, Max-NSigAt=      11 Max-NSgAt2=      11
 IPart= 13         7761 of         8344 points in       9 batches and       57 microbatches, Max-NSigAt=      11 Max-NSgAt2=      11
 IPart= 12        12614 of        13516 points in      13 batches and       66 microbatches, Max-NSigAt=      11 Max-NSgAt2=      11
 IPart= 18        14552 of        15728 points in      16 batches and       83 microbatches, Max-NSigAt=      11 Max-NSgAt2=      11
 IPart=  0        12872 of        13362 points in      13 batches and       62 microbatches, Max-NSigAt=      11 Max-NSgAt2=      11
 Polarizability after L703:
                1             2             3 
      1  0.000000D+00
      2  0.000000D+00  0.000000D+00
      3  0.000000D+00  0.000000D+00  0.000000D+00
 Dipole Derivatives after L703:
                 1             2             3             4             5 
      1  -0.214632D+00 -0.350241D-01 -0.496890D-01  0.320979D+00  0.462843D-01
      2   0.216979D-01 -0.246944D+00  0.636684D-01  0.584346D+00 -0.802090D+00
      3  -0.701383D-01  0.118870D+00 -0.192219D+00  0.267804D-01 -0.149715D+00
                 6             7             8             9            10 
      1  -0.194536D+00 -0.135714D+01  0.433094D-01 -0.332225D+00 -0.386064D+00
      2  -0.242156D+00 -0.602156D-02 -0.735584D+00  0.401969D-01  0.874913D-01
      3  -0.443697D+00 -0.556787D-01  0.337092D-01 -0.718567D+00  0.206967D+00
                11            12            13            14            15 
      1  -0.159580D+00  0.183730D+00 -0.612913D+00  0.221486D+00  0.244920D+00
      2  -0.791841D+00 -0.186363D+00 -0.789393D-01 -0.510095D+00 -0.494052D-01
      3  -0.105050D+00 -0.363235D-01  0.205700D+00 -0.329580D-01  0.164259D-01
                16            17            18            19            20 
      1   0.114374D+00  0.428399D+00  0.433144D+00  0.261649D+00 -0.678639D+00
      2  -0.263151D-01  0.241523D+00  0.172646D+00 -0.354752D-01  0.574345D+00
      3  -0.776748D-02  0.310047D+00  0.382476D+00  0.547224D-01 -0.275926D+00
                21            22            23            24            25 
      1   0.305852D+00  0.106176D+01  0.208038D+00 -0.468996D+00  0.190386D+00
      2  -0.193293D+00 -0.182406D-02  0.101294D+00 -0.231698D-01  0.238126D+00
      3   0.196112D+00 -0.115512D+00 -0.430430D-01  0.256167D+00 -0.688935D-01
                26            27            28            29            30 
      1   0.153023D+00 -0.383138D-01  0.727055D+00 -0.639324D+00 -0.265330D+00
      2   0.793080D+00  0.412906D-01 -0.354311D+00  0.595840D+00  0.177794D+00
      3  -0.687018D-01  0.679413D-01 -0.119673D+00  0.140895D+00  0.146937D+00
                31            32            33 
      1  -0.105453D+00  0.412028D+00  0.181446D+00
      2  -0.428775D+00  0.780473D+00  0.198791D+00
      3  -0.565064D-01  0.718728D-01  0.324747D+00
 Hessian after L703:
                1             2             3             4             5 
      1  0.412852D+00
      2 -0.132539D+00  0.275743D+00
      3  0.775166D-01  0.849136D-01  0.199316D+00
      4  0.519779D-03 -0.194384D-03 -0.352321D-02  0.369484D+00
      5 -0.509348D-02  0.135289D-01  0.252427D-02 -0.161813D-01  0.472149D+00
      6 -0.205108D-02  0.239696D-02 -0.496779D-02 -0.881651D-01  0.725995D-01
      7 -0.167174D+00  0.108810D-01 -0.642988D-01  0.179681D-02  0.350687D-02
      8 -0.116197D-01 -0.752349D-01 -0.223032D-01 -0.268734D-03  0.229791D-02
      9 -0.851128D-01 -0.524941D-02 -0.120081D+00  0.122261D-02  0.581378D-03
     10 -0.153497D+00  0.743366D-01  0.152462D-01 -0.165304D-01 -0.197246D-01
     11  0.929166D-01 -0.187671D+00 -0.474791D-01 -0.549896D-01 -0.434000D-01
     12  0.415538D-01 -0.674071D-01 -0.724206D-01  0.144049D-04 -0.354583D-02
     13 -0.351573D-01  0.712631D-02  0.121417D-01 -0.145352D+00 -0.940505D-01
     14  0.512571D-01 -0.117731D-01 -0.110722D-01 -0.518155D-01 -0.255217D+00
     15  0.202809D-01 -0.658741D-02  0.355971D-02  0.177847D-01 -0.651671D-02
     16 -0.104808D-01 -0.165443D-01 -0.267623D-01  0.202820D-05  0.798596D-03
     17 -0.279644D-02  0.869935D-03 -0.160365D-03  0.123495D-04 -0.380846D-04
     18 -0.983280D-02 -0.100477D-01 -0.185687D-01  0.182562D-03  0.615272D-03
     19 -0.147875D-01  0.279881D-01 -0.176213D-01 -0.426451D-03 -0.163074D-02
     20  0.438758D-02  0.606455D-02  0.220432D-03  0.384471D-03  0.103900D-02
     21 -0.154235D-01  0.155891D-01 -0.884145D-02 -0.159865D-03 -0.495360D-03
     22 -0.318427D-01 -0.106595D-02  0.310981D-02 -0.397079D-03 -0.207955D-03
     23  0.872539D-03  0.408511D-02 -0.332389D-02 -0.248424D-04  0.132821D-03
     24 -0.256884D-01 -0.340906D-02  0.124861D-01 -0.173109D-03  0.255647D-03
     25  0.304166D-02  0.269822D-01  0.998283D-03 -0.418445D-02  0.169060D-03
     26  0.352357D-02 -0.270331D-01 -0.317049D-02  0.261527D-03  0.274196D-02
     27 -0.186057D-02 -0.137018D-01  0.146139D-02  0.382855D-02  0.336617D-03
     28 -0.400749D-02 -0.102948D-02  0.237477D-02  0.132747D-01 -0.142397D-01
     29 -0.293034D-02  0.738827D-03 -0.874892D-03  0.173076D-01 -0.279395D-01
     30  0.494294D-03  0.292376D-02  0.110025D-01 -0.751123D-03 -0.204432D-02
     31  0.533676D-03  0.405880D-02  0.818180D-03 -0.218187D+00  0.146654D+00
     32  0.202147D-02  0.681597D-03  0.725915D-03  0.105508D+00 -0.165295D+00
     33  0.123569D-03  0.579095D-03 -0.294666D-02  0.697396D-01 -0.643104D-01
                6             7             8             9            10 
      6  0.958374D-01
      7 -0.170496D-03  0.535168D+00
      8  0.136879D-02 -0.633279D-02  0.517970D+00
      9 -0.780126D-03 -0.632080D-01  0.293119D-03  0.495726D+00
     10  0.688935D-02 -0.481870D-01  0.283545D-01 -0.322264D-03  0.892418D+00
     11  0.479210D-02  0.161729D-01 -0.477462D-02  0.104862D-01  0.119462D+00
     12  0.135320D-01 -0.127884D-01  0.167974D-01  0.354622D-02 -0.153026D+00
     13  0.847423D-02  0.286100D-02  0.283707D-03  0.279541D-02 -0.568084D+00
     14 -0.193097D-01 -0.305173D-02 -0.485969D-02 -0.586516D-02 -0.100715D+00
     15 -0.540120D-01 -0.328909D-02 -0.111036D-02 -0.148506D-02  0.113558D+00
     16  0.813883D-04 -0.601456D-01  0.218925D-01  0.238536D-01  0.238571D-02
     17 -0.325409D-04  0.137479D-01 -0.150687D+00 -0.976926D-01  0.409067D-02
     18 -0.774357D-04  0.159812D-01 -0.909763D-01 -0.152878D+00  0.267885D-02
[...]
 ITU=  0
     Eigenvalues ---    0.00376   0.00514   0.01217   0.02056   0.03747
     Eigenvalues ---    0.04680   0.08686   0.08778   0.10705   0.12082
     Eigenvalues ---    0.13475   0.16484   0.18191   0.18736   0.19826
     Eigenvalues ---    0.22138   0.23301   0.33222   0.33591   0.35088
     Eigenvalues ---    0.36355   0.37354   0.39844   0.45086   0.45698
     Eigenvalues ---    0.53342   0.66236
 Angle between quadratic step and forces=  41.02 degrees.
 Linear search not attempted -- first point.
 Iteration  1 RMS(Cart)=  0.00000050 RMS(Int)=  0.00000000
 ITry= 1 IFail=0 DXMaxC= 1.03D-06 DCOld= 1.00D+10 DXMaxT= 3.00D-01 DXLimC= 3.00D+00 Rises=F
 Variable       Old X    -DE/DX   Delta X   Delta X   Delta X     New X
                                 (Linear)    (Quad)   (Total)
    R1        2.67120  -0.00000   0.00000  -0.00000  -0.00000   2.67120
    R2        2.59481   0.00000   0.00000   0.00000   0.00000   2.59481
    R3        2.56333  -0.00000   0.00000  -0.00000  -0.00000   2.56333
    R4        1.82347  -0.00000   0.00000  -0.00000  -0.00000   1.82347
    R5        2.06457   0.00000   0.00000   0.00000   0.00000   2.06457
    R6        2.05345   0.00000   0.00000   0.00000   0.00000   2.05345
    R7        2.06653  -0.00000   0.00000  -0.00000  -0.00000   2.06653
    R8        2.50502   0.00000   0.00000   0.00000   0.00000   2.50502
    R9        2.04478   0.00000   0.00000  -0.00000  -0.00000   2.04478
   R10        2.03835  -0.00000   0.00000   0.00000   0.00000   2.03835
    A1        1.98208  -0.00000   0.00000   0.00000   0.00000   1.98208
    A2        1.87243   0.00000   0.00000   0.00000   0.00000   1.87243
    A3        1.93727  -0.00000   0.00000  -0.00000  -0.00000   1.93727
    A4        1.87229   0.00000   0.00000   0.00000   0.00000   1.87229
    A5        1.93110  -0.00000   0.00000  -0.00000  -0.00000   1.93110
    A6        1.91450   0.00000   0.00000  -0.00000  -0.00000   1.91450
    A7        1.90277   0.00000   0.00000  -0.00000  -0.00000   1.90277
    A8        1.90554   0.00000   0.00000   0.00000   0.00000   1.90554
    A9        2.08155   0.00000   0.00000  -0.00000  -0.00000   2.08155
   A10        2.05343  -0.00000   0.00000  -0.00000  -0.00000   2.05343
   A11        2.14729  -0.00000   0.00000   0.00000   0.00000   2.14729
   A12        2.16215   0.00000   0.00000   0.00000   0.00000   2.16215
   A13        1.98815   0.00000   0.00000   0.00000   0.00000   1.98815
   A14        2.13269  -0.00000   0.00000  -0.00000  -0.00000   2.13269
    D1        1.08701  -0.00000   0.00000   0.00000   0.00000   1.08701
    D2       -3.10483  -0.00000   0.00000  -0.00000  -0.00000  -3.10483
    D3       -1.02788   0.00000   0.00000   0.00000   0.00000  -1.02788
    D4       -2.45356  -0.00000   0.00000  -0.00000  -0.00000  -2.45356
    D5        0.73254  -0.00000   0.00000  -0.00000  -0.00000   0.73254
    D6       -0.00098   0.00000   0.00000   0.00000   0.00000  -0.00098
    D7        3.11981  -0.00000   0.00000   0.00000   0.00000   3.11981
    D8        0.03797   0.00000   0.00000  -0.00000  -0.00000   0.03797
    D9       -3.08115   0.00000   0.00000   0.00000   0.00000  -3.08114
   D10        3.13254  -0.00000   0.00000   0.00000   0.00000   3.13254
   D11        0.01342   0.00000   0.00000   0.00000   0.00000   0.01342
         Item               Value     Threshold  Converged?
 Maximum Force            0.000000     0.000015     YES
 RMS     Force            0.000000     0.000010     YES
 Maximum Displacement     0.000001     0.000060     YES
 RMS     Displacement     0.000000     0.000040     YES
 Predicted change in Energy=-5.029681D-13
 Optimization completed.
    -- Stationary point found.
                           ----------------------------
                           !   Optimized Parameters   !
                           ! (Angstroms and Degrees)  !
 --------------------------                            --------------------------
 ! Name  Definition              Value          Derivative Info.                !
 --------------------------------------------------------------------------------
 ! R1    R(1,3)                  1.4135         -DE/DX =    0.0                 !
 ! R2    R(1,4)                  1.3731         -DE/DX =    0.0                 !
 ! R3    R(2,5)                  1.3565         -DE/DX =    0.0                 !
 ! R4    R(2,11)                 0.9649         -DE/DX =    0.0                 !
 ! R5    R(3,6)                  1.0925         -DE/DX =    0.0                 !
 ! R6    R(3,7)                  1.0866         -DE/DX =    0.0                 !
 ! R7    R(3,8)                  1.0936         -DE/DX =    0.0                 !
 ! R8    R(4,5)                  1.3256         -DE/DX =    0.0                 !
 ! R9    R(4,9)                  1.0821         -DE/DX =    0.0                 !
 ! R10   R(5,10)                 1.0786         -DE/DX =    0.0                 !
 ! A1    A(3,1,4)              113.5649         -DE/DX =    0.0                 !
 ! A2    A(5,2,11)             107.2822         -DE/DX =    0.0                 !
 ! A3    A(1,3,6)              110.9976         -DE/DX =    0.0                 !
 ! A4    A(1,3,7)              107.2744         -DE/DX =    0.0                 !
 ! A5    A(1,3,8)              110.6436         -DE/DX =    0.0                 !
 ! A6    A(6,3,7)              109.6929         -DE/DX =    0.0                 !
 ! A7    A(6,3,8)              109.021          -DE/DX =    0.0                 !
 ! A8    A(7,3,8)              109.1795         -DE/DX =    0.0                 !
 ! A9    A(1,4,5)              119.2639         -DE/DX =    0.0                 !
 ! A10   A(1,4,9)              117.6531         -DE/DX =    0.0                 !
 ! A11   A(5,4,9)              123.0307         -DE/DX =    0.0                 !
 ! A12   A(2,5,4)              123.8823         -DE/DX =    0.0                 !
 ! A13   A(2,5,10)             113.9126         -DE/DX =    0.0                 !
 ! A14   A(4,5,10)             122.194          -DE/DX =    0.0                 !
 ! D1    D(4,1,3,6)             62.2813         -DE/DX =    0.0                 !
 ! D2    D(4,1,3,7)           -177.8936         -DE/DX =    0.0                 !
 ! D3    D(4,1,3,8)            -58.8934         -DE/DX =    0.0                 !
 ! D4    D(3,1,4,5)           -140.5787         -DE/DX =    0.0                 !
 ! D5    D(3,1,4,9)             41.9714         -DE/DX =    0.0                 !
 ! D6    D(11,2,5,4)            -0.056          -DE/DX =    0.0                 !
 ! D7    D(11,2,5,10)          178.752          -DE/DX =    0.0                 !
 ! D8    D(1,4,5,2)              2.1756         -DE/DX =    0.0                 !
 ! D9    D(1,4,5,10)          -176.5366         -DE/DX =    0.0                 !
 ! D10   D(9,4,5,2)            179.4813         -DE/DX =    0.0                 !
 ! D11   D(9,4,5,10)             0.769          -DE/DX =    0.0                 !
 --------------------------------------------------------------------------------
 GradGradGradGradGradGradGradGradGradGradGradGradGradGradGradGradGradGrad

 Leave Link  103 at Tue Sep 24 16:52:07 2019, MaxMem=   671088640 cpu:             112.3 elap:              57.0
 (Enter /shared/centos7/gaussian/g16/l9999.exe)

 ----------------------------------------------------------------------

 Electric dipole moment (input orientation):
 (Debye = 10**-18 statcoulomb cm , SI units = C m)
                  (au)            (Debye)         (10**-30 SI)
   Tot        0.864540D+00      0.219744D+01      0.732988D+01
   x         -0.825393D+00     -0.209794D+01     -0.699797D+01
   y         -0.218881D-02     -0.556341D-02     -0.185575D-01
   z          0.257200D+00      0.653737D+00      0.218063D+01

 Dipole polarizability, Alpha (input orientation).
 (esu units = cm**3 , SI units = C**2 m**2 J**-1)
 Alpha(0;0):
               (au)            (10**-24 esu)      (10**-40 SI)
   iso        0.445369D+02      0.659968D+01      0.734314D+01
   aniso      0.248252D+02      0.367871D+01      0.409312D+01
   xx         0.521399D+02      0.772633D+01      0.859670D+01
   yx         0.828126D+01      0.122716D+01      0.136540D+01
   yy         0.418922D+02      0.620779D+01      0.690710D+01
   zx        -0.955894D+01     -0.141649D+01     -0.157606D+01
   zy         0.885681D+00      0.131244D+00      0.146029D+00
   zz         0.395785D+02      0.586493D+01      0.652561D+01

 ----------------------------------------------------------------------

 Dipole orientation:
     8          1.45430105         -1.57179622          0.04679161
     8         -0.05342780          0.11933930         -4.63913858
     6          0.72648311         -1.71910966          2.61270397
     6          2.01078286          0.83842342         -0.73693011
     6          1.29168169          1.58078826         -3.01879991
     1         -1.00179267         -0.64267117          2.95443188
     1          0.40358753         -3.70102325          3.04211870
     1          2.22467602         -0.99435488          3.83773380
     1          3.09704748          2.02098080          0.52905740
     1          1.77054135          3.41629786         -3.76477032
     1         -0.34773504         -1.47826671         -3.81084697

 Electric dipole moment (dipole orientation):
 (Debye = 10**-18 statcoulomb cm , SI units = C m)
                  (au)            (Debye)         (10**-30 SI)
   Tot        0.864540D+00      0.219744D+01      0.732988D+01
   x          0.000000D+00      0.000000D+00      0.000000D+00
   y          0.000000D+00      0.000000D+00      0.000000D+00
   z          0.864540D+00      0.219744D+01      0.732988D+01

 Dipole polarizability, Alpha (dipole orientation).
 (esu units = cm**3 , SI units = C**2 m**2 J**-1)
 Alpha(0;0):
               (au)            (10**-24 esu)      (10**-40 SI)
   iso        0.445369D+02      0.659968D+01      0.734314D+01
   aniso      0.248252D+02      0.367871D+01      0.409312D+01
   xx         0.352479D+02      0.522319D+01      0.581159D+01
   yx         0.330782D+01      0.490169D+00      0.545386D+00
   yy         0.418660D+02      0.620390D+01      0.690277D+01
   zx         0.430486D+01      0.637914D+00      0.709775D+00
   zy        -0.759783D+01     -0.112588D+01     -0.125271D+01
   zz         0.564968D+02      0.837196D+01      0.931506D+01

 ----------------------------------------------------------------------

 Test job not archived.
 1\1\GINC-C0312\Freq\RM062X\CC-pVTZ\C3H6O2\HARMS.N\24-Sep-2019\0\\#P Ge
 om=AllCheck Guess=TCheck SCRF=Check Test GenChk RM062X/CC-pVTZ Freq\\G
 aussian input prepared by ASE\\0,1\O,0.2068637175,-0.8332509844,0.7399
 958552\O,2.3352353224,0.0694192953,-0.7571711417\C,-1.2039115917,-0.91
 39257138,0.7760446345\C,0.6880442333,0.4426774287,0.9009870072\C,1.726
 9383484,0.8392840838,0.1794463887\H,-1.6497055186,-0.3430558894,-0.041
 8665914\H,-1.4697389563,-1.9629610339,0.6778602021\H,-1.5876659249,-0.
 5335220602,1.7267819017\H,0.218295298,1.0656897964,1.650673063\H,2.177
 3926384,1.8111164838,0.306394847\H,1.8720110968,-0.7768127957,-0.77760
 23385\\Version=EM64L-G16RevA.03\State=1-A\HF=-268.3241864\RMSD=3.495e-
 09\RMSF=9.016e-07\ZeroPoint=0.0911284\Thermal=0.0969967\Dipole=-0.8253
 927,-0.0021888,0.2571999\DipoleDeriv=-1.1307008,-0.3341904,0.1888954,-
 0.7073378,-0.9070209,0.1521808,0.0741767,-0.0648948,-0.3699986,-0.6343
 184,0.0825806,0.2852594,0.4839203,-0.4825017,-0.4756996,0.5200438,-0.1
 44757,-0.8135657,0.9863673,0.1969365,-0.071845,0.0329502,0.28408,-0.01
 14408,-0.047696,-0.0342801,0.3774408,0.028938,0.3281203,-0.0839694,0.6
 71043,0.657342,-0.0338795,-0.0110411,0.086709,-0.0680882,0.3973748,-0.
 0850544,-0.4495759,-0.3767064,0.2449401,0.4368494,-0.6383761,0.2559319
 ,0.539848,-0.0606256,-0.0308555,-0.0092753,0.1020961,0.0114117,0.07889
 88,-0.0912247,0.065243,-0.0681822,0.0024349,-0.0294122,0.010579,-0.084
 5312,-0.1012736,-0.0087224,-0.0046536,-0.0170491,0.0734418,-0.04053,-0
 .0309639,0.0160328,0.0539991,0.0332434,-0.0797026,0.0917801,-0.0514719
 ,-0.1175617,0.089443,0.0249572,0.0846904,-0.0657392,-0.0071305,-0.0471
 06,0.0884016,-0.0755816,0.0329013,0.0773287,-0.0593098,0.0277799,-0.03
 08096,-0.0047912,-0.0559381,0.0385286,-0.0478749,0.0958009,0.284288,-0
 .0628084,0.0014286,-0.0788845,0.2717007,0.0445601,-0.0199393,0.0280254
 ,0.3179635\Polar=52.1398655,8.2812618,41.8922262,-9.5589444,0.8856807,
 39.5785044\Quadrupole=-0.185224,1.4416272,-1.2564032,0.9736903,0.17955
 77,1.8557703\PG=C01 [X(C3H6O2)]\NImag=0\\0.46502395,0.11496822,0.41157
 461,-0.02244396,0.04484647,0.09460092,-0.00304918,-0.00029661,-0.00535
 343,0.28593049,0.00365656,0.01478777,0.00547672,0.14466624,0.57333482,
 -0.00175588,0.01131621,0.00056185,-0.15006420,0.14581899,0.24150404,-0
 .24985585,-0.01574427,0.00584670,0.00250376,-0.00297646,-0.00436154,0.
 48277713,0.02126181,-0.08364193,-0.00756873,0.00040061,0.00092000,-0.0
 0025995,0.00617280,0.62736933,0.01000754,-0.00590415,-0.06182332,-0.00
 030129,0.00342568,0.00037908,0.00504019,0.00582396,0.57261115,-0.11249
 675,-0.04921632,0.01297943,-0.01446179,0.00436543,0.03010338,-0.028241
 82,-0.04970683,-0.00484321,0.63235418,-0.08622237,-0.27851222,-0.03620
 946,0.03184572,-0.00670821,-0.03655603,-0.02058452,-0.01459803,0.00074
 703,0.14123420,0.56381201,0.01000159,-0.03411202,-0.05963245,0.0413228
 1,-0.01278517,-0.02914133,-0.00189610,0.00261625,-0.00317251,-0.363810
 13,0.10440354,0.47978735,-0.01228248,-0.01542602,0.01309559,-0.1350192
 9,0.06087712,0.10988711,0.00045795,-0.00008738,0.00160528,-0.36983883,
 -0.13359465,0.20997255,0.61746229,-0.05345989,-0.04568485,0.01865405,0
 .02422390,-0.17380293,-0.08908239,0.00844641,-0.00456489,-0.00301258,-
 0.10821755,-0.13180433,0.05423931,0.22185187,0.66921648,-0.00376938,-0
 .00989793,0.00807799,0.09315052,-0.12032825,-0.18683120,0.00236399,-0.
 00366223,-0.00118084,0.21774969,0.07367424,-0.21212575,-0.31992619,0.0
 9081460,0.45338963,-0.03650687,0.01489807,-0.02678121,-0.00030217,0.00
 049394,0.00036043,-0.08134506,0.04612455,-0.06827616,0.00366719,0.0062
 1747,-0.00013269,-0.00020568,-0.00156840,0.00052264,0.10427220,-0.0006
 6110,0.00429789,-0.00324644,0.00015285,-0.00072131,-0.00100215,0.05119
 250,-0.12751915,0.10466797,0.00059756,0.00202289,-0.00221387,-0.000384
 17,0.00107306,0.00156073,-0.05765714,0.12768447,-0.00259862,-0.0028487
 0,0.00798642,0.00009321,-0.00002849,0.00013098,-0.07281494,0.10402116,
 -0.20387053,0.00020630,0.00020980,0.00103744,-0.00033693,-0.00066201,-
 0.00044857,0.08241397,-0.11420162,0.21277524,-0.02034319,-0.04091013,-
 0.00439115,-0.00028801,0.00066067,0.00035655,-0.05872384,-0.04655554,-
 0.00477435,-0.00591506,0.00186747,0.00169376,-0.00002586,-0.00246516,-
 0.00132405,0.00446606,0.01107607,0.00260627,0.07716557,-0.00276431,0.0
 0077044,0.00020272,-0.00029993,0.00044022,0.00063462,-0.06064941,-0.31
 278928,-0.02480989,-0.00065466,0.00216407,0.00038170,0.00034020,-0.000
 18511,-0.00089357,-0.00250887,-0.01377645,-0.00263843,0.06744819,0.332
 06174,0.00083011,0.00131226,0.00073773,-0.00001703,-0.00011425,-0.0000
 2742,-0.00652843,-0.02456608,-0.05397805,0.00029567,-0.00044706,0.0005
 4745,-0.00030170,0.00010723,0.00040915,0.00585291,0.02431009,0.0038513
 2,0.00619952,0.02696285,0.04961046,-0.03471333,0.00884611,0.03246288,-
 0.00014354,-0.00072089,0.00009220,-0.07076049,0.02458944,0.06417534,0.
 00248280,0.00690995,0.00224196,-0.00058588,-0.00064434,-0.00000553,0.0
 0629734,-0.00466453,-0.00964413,0.00379178,-0.00114693,-0.00645818,0.0
 9274935,0.00002510,0.00226012,0.00172568,0.00015762,-0.00032444,-0.000
 05224,0.02847930,-0.08544725,-0.07969386,-0.00102893,0.00202974,0.0026
 7103,-0.00002251,0.00017706,0.00007220,-0.00547970,0.00694079,0.016097
 10,0.00957449,-0.00868405,-0.02801744,-0.03218195,0.08275154,0.0063853
 5,0.00128634,0.00609628,0.00008879,-0.00011642,0.00035061,0.06930247,-
 0.07965145,-0.25210913,-0.00114181,-0.00081734,0.00081335,-0.00004470,
 0.00068686,-0.00007706,0.00669712,-0.01001633,-0.02072553,-0.00050619,
 -0.00003795,-0.00116692,-0.08140090,0.08771804,0.26704486,0.00431287,-
 0.01050973,-0.00879903,0.00135174,-0.00536957,0.00519662,0.00362291,-0
 .00136817,-0.00285811,-0.10465133,0.06515453,0.10306593,-0.00479783,0.
 01832597,0.01401348,-0.00036572,-0.00001017,0.00004150,0.00003363,0.00
 021722,0.00007567,0.00050796,0.00063120,0.00089441,0.10178969,0.006094
 67,-0.02824631,-0.02283912,-0.00523149,0.00227892,-0.00000897,0.005414
 86,0.00088168,-0.00076654,0.06481986,-0.13827181,-0.11600070,-0.002597
 73,0.00875928,0.00771235,-0.00058956,0.00001891,0.00000664,-0.00032734
 ,0.00017483,0.00037487,-0.00103337,0.00031554,0.00094415,-0.06725837,0
 .15540137,-0.00159040,-0.00360059,0.00129721,0.00649575,-0.00164439,0.
 00514368,0.00087868,0.00067333,0.00138796,0.10473453,-0.11704462,-0.18
 255478,0.00204682,-0.00924973,-0.00835995,-0.00022505,-0.00015999,-0.0
 0059855,-0.00033271,0.00028838,0.00004089,-0.00068529,-0.00049771,-0.0
 0018439,-0.10909884,0.12920830,0.18605306,-0.00028884,-0.00398265,0.00
 582876,0.00903362,0.01860918,0.00306755,0.00142063,-0.00009221,0.00102
 567,-0.00248686,-0.01934488,-0.00725665,-0.10665725,-0.12484183,-0.003
 14569,-0.00003856,0.00020719,-0.00012567,-0.00016211,0.00005085,-0.000
 01907,-0.00030444,-0.00009336,-0.00001039,-0.00174956,0.00140382,-0.00
 171854,0.10171185,-0.00229049,0.00465108,-0.00192197,-0.00491793,-0.01
 912879,-0.00652360,-0.00026981,-0.00072893,-0.00014456,-0.00093962,-0.
 00443987,-0.00202129,-0.11993146,-0.28968753,-0.03046262,0.00001153,-0
 .00012406,0.00002847,-0.00018463,-0.00001236,0.00001382,0.00002064,0.0
 0004104,0.00005522,0.00058508,-0.00043993,0.00152445,0.12601071,0.3091
 2780,0.00716624,-0.00422978,0.00301839,-0.00950374,-0.02608286,-0.0040
 1639,0.00051468,0.00171372,0.00046397,0.00343205,0.01616380,0.00603159
 ,-0.00213840,-0.02787813,-0.04892188,0.00003592,0.00016753,-0.00004097
 ,0.00056141,0.00004797,-0.00005499,-0.00004214,-0.00006884,-0.00008716
 ,-0.00183630,0.00093807,-0.00214603,-0.00106843,0.04217495,0.04778191,
 0.00019966,-0.00262667,-0.00244458,-0.14555562,-0.22426221,0.00711777,
 -0.00185534,-0.00073907,-0.00080090,-0.00041173,0.00651708,0.00479697,
 0.01149285,0.01834902,0.00037051,0.00006126,0.00015094,0.00015903,0.00
 000103,-0.00003235,0.00007054,0.00067845,-0.00006126,-0.00026415,-0.00
 005435,-0.00069536,-0.00050497,-0.00047848,0.00190597,0.00287872,0.135
 92226,-0.00060819,-0.00225660,0.00088008,-0.19070099,-0.39107605,-0.02
 428449,0.00051862,0.00011846,-0.00033306,-0.00125313,0.00430577,0.0028
 2121,-0.01102528,-0.03349623,-0.00858952,0.00005813,0.00010297,0.00001
 608,-0.00018410,-0.00016406,0.00006371,0.00002586,-0.00006009,-0.00005
 112,-0.00039799,-0.00087248,0.00050257,0.00207318,0.00074155,-0.002946
 44,0.20149391,0.42265674,-0.00223259,0.00183189,-0.00092102,0.02408860
 ,0.00637842,-0.02805390,0.00165431,0.00086002,0.00129221,0.00029411,-0
 .00412392,-0.00159036,-0.01385945,-0.03461721,-0.00393151,-0.00046788,
 0.00013409,-0.00009726,-0.00008907,-0.00013840,0.00003039,-0.00073621,
 0.00004603,0.00004509,-0.00069531,0.00043097,-0.00007910,0.00342244,-0
 .00272287,-0.00202843,-0.01137895,0.03192099,0.03533388\\0.00000015,-0
 .00000024,-0.00000090,-0.00000051,0.00000091,-0.00000110,-0.00000053,0
 .00000022,-0.00000049,0.00000055,-0.00000077,0.00000039,0.00000001,-0.
 00000013,0.00000064,-0.00000035,0.00000135,0.00000109,-0.00000056,0.00
 000070,-0.00000138,0.00000052,-0.00000087,0.00000060,0.00000119,-0.000
 00151,0.00000160,0.00000068,-0.00000053,0.00000139,-0.00000114,0.00000
 085,-0.00000184\\\@


 THERE IS NO CURE FOR BIRTH AND DEATH SAVE TO ENJOY THE INTERVAL.

                               -- GEORGE SANTAYANA
 Job cpu time:       0 days  1 hours 12 minutes 46.5 seconds.
 Elapsed time:       0 days  0 hours 36 minutes 25.8 seconds.
 File lengths (MBytes):  RWF=   1312 Int=      0 D2E=      0 Chk=     32 Scr=     32
 Normal termination of Gaussian 16 at Tue Sep 24 16:52:08 2019.
