 Entering Gaussian System, Link 0=g16
 Input=loose/species/COC=CO/conformers/COC=CO_18.com
 Output=loose/species/COC=CO/conformers/COC=CO_18.log
 Initial command:
 /shared/centos7/gaussian/g16/l1.exe "/scratch/harms.n/gauss_scrdir/Gau-39700.inp" -scrdir="/scratch/harms.n/gauss_scrdir/"
 Entering Link 1 = /shared/centos7/gaussian/g16/l1.exe PID=     39701.
  
 Copyright (c) 1988,1990,1992,1993,1995,1998,2003,2009,2016,
            Gaussian, Inc.  All Rights Reserved.
  
 This is part of the Gaussian(R) 16 program.  It is based on
 the Gaussian(R) 09 system (copyright 2009, Gaussian, Inc.),
 the Gaussian(R) 03 system (copyright 2003, Gaussian, Inc.),
 the Gaussian(R) 98 system (copyright 1998, Gaussian, Inc.),
 the Gaussian(R) 94 system (copyright 1995, Gaussian, Inc.),
 the Gaussian 92(TM) system (copyright 1992, Gaussian, Inc.),
 the Gaussian 90(TM) system (copyright 1990, Gaussian, Inc.),
 the Gaussian 88(TM) system (copyright 1988, Gaussian, Inc.),
 the Gaussian 86(TM) system (copyright 1986, Carnegie Mellon
 University), and the Gaussian 82(TM) system (copyright 1983,
 Carnegie Mellon University). Gaussian is a federally registered
 trademark of Gaussian, Inc.
  
 This software contains proprietary and confidential information,
 including trade secrets, belonging to Gaussian, Inc.
  
 This software is provided under written license and may be
 used, copied, transmitted, or stored only in accord with that
 written license.
  
 The following legend is applicable only to US Government
 contracts under FAR:
  
                    RESTRICTED RIGHTS LEGEND
  
 Use, reproduction and disclosure by the US Government is
 subject to restrictions as set forth in subparagraphs (a)
 and (c) of the Commercial Computer Software - Restricted
 Rights clause in FAR 52.227-19.
  
 Gaussian, Inc.
 340 Quinnipiac St., Bldg. 40, Wallingford CT 06492
  
  
 ---------------------------------------------------------------
 Warning -- This program may not be used in any manner that
 competes with the business of Gaussian, Inc. or will provide
 assistance to any competitor of Gaussian, Inc.  The licensee
 of this program is prohibited from giving any competitor of
 Gaussian, Inc. access to this program.  By using this program,
 the user acknowledges that Gaussian, Inc. is engaged in the
 business of creating and licensing software in the field of
 computational chemistry and represents and warrants to the
 licensee that it is not a competitor of Gaussian, Inc. and that
 it will not use this program in any manner prohibited above.
 ---------------------------------------------------------------
  

 Cite this work as:
 Gaussian 16, Revision A.03,
 M. J. Frisch, G. W. Trucks, H. B. Schlegel, G. E. Scuseria, 
 M. A. Robb, J. R. Cheeseman, G. Scalmani, V. Barone, 
 G. A. Petersson, H. Nakatsuji, X. Li, M. Caricato, A. V. Marenich, 
 J. Bloino, B. G. Janesko, R. Gomperts, B. Mennucci, H. P. Hratchian, 
 J. V. Ortiz, A. F. Izmaylov, J. L. Sonnenberg, D. Williams-Young, 
 F. Ding, F. Lipparini, F. Egidi, J. Goings, B. Peng, A. Petrone, 
 T. Henderson, D. Ranasinghe, V. G. Zakrzewski, J. Gao, N. Rega, 
 G. Zheng, W. Liang, M. Hada, M. Ehara, K. Toyota, R. Fukuda, 
 J. Hasegawa, M. Ishida, T. Nakajima, Y. Honda, O. Kitao, H. Nakai, 
 T. Vreven, K. Throssell, J. A. Montgomery, Jr., J. E. Peralta, 
 F. Ogliaro, M. J. Bearpark, J. J. Heyd, E. N. Brothers, K. N. Kudin, 
 V. N. Staroverov, T. A. Keith, R. Kobayashi, J. Normand, 
 K. Raghavachari, A. P. Rendell, J. C. Burant, S. S. Iyengar, 
 J. Tomasi, M. Cossi, J. M. Millam, M. Klene, C. Adamo, R. Cammi, 
 J. W. Ochterski, R. L. Martin, K. Morokuma, O. Farkas, 
 J. B. Foresman, and D. J. Fox, Gaussian, Inc., Wallingford CT, 2016.
 
 ******************************************
 Gaussian 16:  EM64L-G16RevA.03 25-Dec-2016
                29-Sep-2019 
 ******************************************
 %nprocshared=20
 Will use up to   20 processors via shared memory.
 %mem=5GB
 ----------------------------------------------------------------------
 #p m062x/cc-pVTZ opt=(calcfc,maxcycles=900,Tight) freq IOP(7/33=1,2/16
 =3) scf=(maxcycle=900)
 ----------------------------------------------------------------------
 1/6=900,7=10,10=4,18=20,19=15,26=3,38=1/1,3;
 2/9=110,12=2,16=3,17=6,18=5,40=1/2;
 3/5=16,6=1,11=2,25=1,30=1,71=2,74=-55,140=1/1,2,3;
 4//1;
 5/5=2,7=900,38=5/2;
 8/6=4,10=90,11=11/1;
 11/6=1,8=1,9=11,15=111,16=1/1,2,10;
 10/6=1,13=1/2;
 6/7=2,8=2,9=2,10=2,28=1/1;
 7/10=1,18=20,25=1,33=1/1,2,3,16;
 1/6=900,7=10,10=4,18=20,19=15,26=3/3(2);
 2/9=110,16=3/2;
 99//99;
 2/9=110,16=3/2;
 3/5=16,6=1,11=2,25=1,30=1,71=1,74=-55/1,2,3;
 4/5=5,16=3,69=1/1;
 5/5=2,7=900,38=5/2;
 7/33=1/1,2,3,16;
 1/6=900,7=10,18=20,19=15,26=3/3(-5);
 2/9=110,16=3/2;
 6/7=2,8=2,9=2,10=2,19=2,28=1/1;
 99/9=1/99;
 Leave Link    1 at Sun Sep 29 01:50:43 2019, MaxMem=   671088640 cpu:               4.2 elap:               2.1
 (Enter /shared/centos7/gaussian/g16/l101.exe)
 ------------------------------
 Gaussian input prepared by ASE
 ------------------------------
 Symbolic Z-matrix:
 Charge =  0 Multiplicity = 1
 O                     0.21172  -0.73098   1.11254 
 O                     0.43556   2.87583   0.36198 
 C                    -1.18589  -0.91542   0.87587 
 C                     0.69139   0.55912   0.92507 
 C                    -0.02874   1.59587   0.56794 
 H                    -1.3304   -1.72259   0.10126 
 H                    -1.68562  -1.25861   1.82623 
 H                    -1.66601  -0.00083   0.52728 
 H                     1.75926   0.58781   1.13303 
 H                    -1.07448   1.51383   0.36161 
 H                     1.32634   2.96288   0.84462 
 
 ITRead=  0  0  0  0  0  0  0  0  0  0  0
 MicOpt= -1 -1 -1 -1 -1 -1 -1 -1 -1 -1 -1
 NAtoms=     11 NQM=       11 NQMF=       0 NMMI=      0 NMMIF=      0
                NMic=       0 NMicF=      0.
                    Isotopes and Nuclear Properties:
 (Nuclear quadrupole moments (NQMom) in fm**2, nuclear magnetic moments (NMagM)
  in nuclear magnetons)

  Atom         1           2           3           4           5           6           7           8           9          10
 IAtWgt=          16          16          12          12          12           1           1           1           1           1
 AtmWgt=  15.9949146  15.9949146  12.0000000  12.0000000  12.0000000   1.0078250   1.0078250   1.0078250   1.0078250   1.0078250
 NucSpn=           0           0           0           0           0           1           1           1           1           1
 AtZEff=  -0.0000000  -0.0000000  -0.0000000  -0.0000000  -0.0000000  -0.0000000  -0.0000000  -0.0000000  -0.0000000  -0.0000000
 NQMom=    0.0000000   0.0000000   0.0000000   0.0000000   0.0000000   0.0000000   0.0000000   0.0000000   0.0000000   0.0000000
 NMagM=    0.0000000   0.0000000   0.0000000   0.0000000   0.0000000   2.7928460   2.7928460   2.7928460   2.7928460   2.7928460
 AtZNuc=   8.0000000   8.0000000   6.0000000   6.0000000   6.0000000   1.0000000   1.0000000   1.0000000   1.0000000   1.0000000

  Atom        11
 IAtWgt=           1
 AtmWgt=   1.0078250
 NucSpn=           1
 AtZEff=  -0.0000000
 NQMom=    0.0000000
 NMagM=    2.7928460
 AtZNuc=   1.0000000
 Leave Link  101 at Sun Sep 29 01:50:45 2019, MaxMem=   671088640 cpu:               2.4 elap:               1.2
 (Enter /shared/centos7/gaussian/g16/l103.exe)

 GradGradGradGradGradGradGradGradGradGradGradGradGradGradGradGradGradGrad
 Berny optimization.
 Initialization pass.
                           ----------------------------
                           !    Initial Parameters    !
                           ! (Angstroms and Degrees)  !
 --------------------------                            --------------------------
 ! Name  Definition              Value          Derivative Info.                !
 --------------------------------------------------------------------------------
 ! R1    R(1,3)                  1.4295         calculate D2E/DX2 analytically  !
 ! R2    R(1,4)                  1.3891         calculate D2E/DX2 analytically  !
 ! R3    R(2,5)                  1.3771         calculate D2E/DX2 analytically  !
 ! R4    R(2,11)                 1.0169         calculate D2E/DX2 analytically  !
 ! R5    R(3,6)                  1.128          calculate D2E/DX2 analytically  !
 ! R6    R(3,7)                  1.1272         calculate D2E/DX2 analytically  !
 ! R7    R(3,8)                  1.0902         calculate D2E/DX2 analytically  !
 ! R8    R(4,5)                  1.3119         calculate D2E/DX2 analytically  !
 ! R9    R(4,9)                  1.0883         calculate D2E/DX2 analytically  !
 ! R10   R(5,10)                 1.0691         calculate D2E/DX2 analytically  !
 ! A1    A(3,1,4)              115.7915         calculate D2E/DX2 analytically  !
 ! A2    A(5,2,11)             107.6939         calculate D2E/DX2 analytically  !
 ! A3    A(1,3,6)              109.3463         calculate D2E/DX2 analytically  !
 ! A4    A(1,3,7)              109.4589         calculate D2E/DX2 analytically  !
 ! A5    A(1,3,8)              112.0419         calculate D2E/DX2 analytically  !
 ! A6    A(6,3,7)              107.7154         calculate D2E/DX2 analytically  !
 ! A7    A(6,3,8)              108.9248         calculate D2E/DX2 analytically  !
 ! A8    A(7,3,8)              109.2538         calculate D2E/DX2 analytically  !
 ! A9    A(1,4,5)              125.5322         calculate D2E/DX2 analytically  !
 ! A10   A(1,4,9)              109.7254         calculate D2E/DX2 analytically  !
 ! A11   A(5,4,9)              124.7373         calculate D2E/DX2 analytically  !
 ! A12   A(2,5,4)              126.1714         calculate D2E/DX2 analytically  !
 ! A13   A(2,5,10)             111.8558         calculate D2E/DX2 analytically  !
 ! A14   A(4,5,10)             121.9285         calculate D2E/DX2 analytically  !
 ! D1    D(4,1,3,6)            123.7517         calculate D2E/DX2 analytically  !
 ! D2    D(4,1,3,7)           -118.4679         calculate D2E/DX2 analytically  !
 ! D3    D(4,1,3,8)              2.8882         calculate D2E/DX2 analytically  !
 ! D4    D(3,1,4,5)              0.6533         calculate D2E/DX2 analytically  !
 ! D5    D(3,1,4,9)            179.8639         calculate D2E/DX2 analytically  !
 ! D6    D(11,2,5,4)           -20.1882         calculate D2E/DX2 analytically  !
 ! D7    D(11,2,5,10)          162.2092         calculate D2E/DX2 analytically  !
 ! D8    D(1,4,5,2)           -179.1175         calculate D2E/DX2 analytically  !
 ! D9    D(1,4,5,10)            -1.7395         calculate D2E/DX2 analytically  !
 ! D10   D(9,4,5,2)              1.7868         calculate D2E/DX2 analytically  !
 ! D11   D(9,4,5,10)           179.1649         calculate D2E/DX2 analytically  !
 --------------------------------------------------------------------------------
 Trust Radius=3.00D-01 FncErr=1.00D-07 GrdErr=1.00D-06 EigMax=2.50D+02 EigMin=1.00D-04
 Number of steps in this run=    100 maximum allowed number of steps=    100.
 GradGradGradGradGradGradGradGradGradGradGradGradGradGradGradGradGradGrad

 Leave Link  103 at Sun Sep 29 01:50:46 2019, MaxMem=   671088640 cpu:               1.5 elap:               0.9
 (Enter /shared/centos7/gaussian/g16/l202.exe)
                          Input orientation:                          
 ---------------------------------------------------------------------
 Center     Atomic      Atomic             Coordinates (Angstroms)
 Number     Number       Type             X           Y           Z
 ---------------------------------------------------------------------
      1          8           0        0.211725   -0.730981    1.112543
      2          8           0        0.435559    2.875834    0.361975
      3          6           0       -1.185893   -0.915416    0.875867
      4          6           0        0.691387    0.559120    0.925075
      5          6           0       -0.028737    1.595868    0.567938
      6          1           0       -1.330404   -1.722593    0.101264
      7          1           0       -1.685619   -1.258606    1.826228
      8          1           0       -1.666005   -0.000828    0.527283
      9          1           0        1.759263    0.587806    1.133031
     10          1           0       -1.074478    1.513832    0.361613
     11          1           0        1.326340    2.962876    0.844621
 ---------------------------------------------------------------------
                    Distance matrix (angstroms):
                    1          2          3          4          5
     1  O    0.000000
     2  O    3.690876   0.000000
     3  C    1.429464   4.155329   0.000000
     4  C    1.389094   2.397851   2.387647   0.000000
     5  C    2.401801   1.377063   2.782153   1.311858   0.000000
     6  H    2.093834   4.932760   1.128020   3.157930   3.595039
     7  H    2.094671   4.872066   1.127250   3.125119   3.532220
     8  H    2.097981   3.566382   1.090179   2.455419   2.287299
     9  H    2.033346   2.753505   3.316588   1.088314   2.128959
    10  H    2.693956   2.033533   2.485581   2.085004   1.069052
    11  H    3.867652   1.016866   4.620979   2.487505   1.944608
                    6          7          8          9         10
     6  H    0.000000
     7  H    1.821253   0.000000
     8  H    1.805158   1.808218   0.000000
     9  H    3.993562   3.969506   3.527873   0.000000
    10  H    3.256951   3.194527   1.634486   3.079399   0.000000
    11  H    5.437324   5.277914   4.223550   2.431370   2.845514
                   11
    11  H    0.000000
 Stoichiometry    C3H6O2
 Framework group  C1[X(C3H6O2)]
 Deg. of freedom    27
 Full point group                 C1      NOp   1
 Largest Abelian subgroup         C1      NOp   1
 Largest concise Abelian subgroup C1      NOp   1
                         Standard orientation:                         
 ---------------------------------------------------------------------
 Center     Atomic      Atomic             Coordinates (Angstroms)
 Number     Number       Type             X           Y           Z
 ---------------------------------------------------------------------
      1          8           0        1.284244    0.688467   -0.006205
      2          8           0       -2.270816   -0.303331   -0.027380
      3          6           0        1.872679   -0.614127    0.012780
      4          6           0       -0.104344    0.724281   -0.017307
      5          6           0       -0.894174   -0.323014    0.000395
      6          1           0        2.572216   -0.721004   -0.865660
      7          1           0        2.481757   -0.737371    0.953272
      8          1           0        1.121781   -1.403013   -0.035179
      9          1           0       -0.445049    1.757824   -0.028963
     10          1           0       -0.510295   -1.320764   -0.001863
     11          1           0       -2.572798    0.620396    0.271870
 ---------------------------------------------------------------------
 Rotational constants (GHZ):          16.3849688           2.7476171           2.3922961
 Leave Link  202 at Sun Sep 29 01:50:47 2019, MaxMem=   671088640 cpu:               3.6 elap:               1.8
 (Enter /shared/centos7/gaussian/g16/l301.exe)
 Standard basis: CC-pVTZ (5D, 7F)
 Ernie: Thresh=  0.10000D-02 Tol=  0.10000D-05 Strict=F.
 Ernie:  15 primitive shells out of 178 were deleted.
 There are   265 symmetry adapted cartesian basis functions of A   symmetry.
 There are   234 symmetry adapted basis functions of A   symmetry.
   234 basis functions,   362 primitive gaussians,   265 cartesian basis functions
    20 alpha electrons       20 beta electrons
       nuclear repulsion energy       174.4142664241 Hartrees.
 IExCor= 4336 DFT=T Ex+Corr=M062X ExCW=0 ScaHFX=  0.540000
 ScaDFX=  1.000000  1.000000  1.000000  1.000000 ScalE2=  1.000000  1.000000
 IRadAn=      5 IRanWt=     -1 IRanGd=            0 ICorTp=0 IEmpDi=  4
 NAtoms=   11 NActive=   11 NUniq=   11 SFac= 1.00D+00 NAtFMM=   60 NAOKFM=F Big=F
 Integral buffers will be    131072 words long.
 Raffenetti 2 integral format.
 Two-electron integral symmetry is turned on.
 Leave Link  301 at Sun Sep 29 01:50:49 2019, MaxMem=   671088640 cpu:               2.8 elap:               1.4
 (Enter /shared/centos7/gaussian/g16/l302.exe)
 NPDir=0 NMtPBC=     1 NCelOv=     1 NCel=       1 NClECP=     1 NCelD=      1
         NCelK=      1 NCelE2=     1 NClLst=     1 CellRange=     0.0.
 One-electron integrals computed using PRISM.
 One-electron integral symmetry used in STVInt
 NBasis=   234 RedAO= T EigKep=  3.51D-04  NBF=   234
 NBsUse=   234 1.00D-06 EigRej= -1.00D+00 NBFU=   234
 Precomputing XC quadrature grid using
 IXCGrd= 4 IRadAn=           5 IRanWt=          -1 IRanGd=           0 AccXCQ= 0.00D+00.
 Generated NRdTot=       0 NPtTot=           0 NUsed=           0 NTot=          32
 NSgBfM=   265   265   265   265   265 MxSgAt=    11 MxSgA2=    11.
 Leave Link  302 at Sun Sep 29 01:51:39 2019, MaxMem=   671088640 cpu:             100.1 elap:              50.1
 (Enter /shared/centos7/gaussian/g16/l303.exe)
 DipDrv:  MaxL=1.
 Leave Link  303 at Sun Sep 29 01:51:43 2019, MaxMem=   671088640 cpu:               8.4 elap:               4.2
 (Enter /shared/centos7/gaussian/g16/l401.exe)
 ExpMin= 1.03D-01 ExpMax= 1.53D+04 ExpMxC= 5.22D+02 IAcc=3 IRadAn=         5 AccDes= 0.00D+00
 Harris functional with IExCor= 1009 and IRadAn=       5 diagonalized for initial guess.
 HarFok:  IExCor= 1009 AccDes= 0.00D+00 IRadAn=         5 IDoV= 1 UseB2=F ITyADJ=14
 ICtDFT=  3500011 ScaDFX=  1.000000  1.000000  1.000000  1.000000
 FoFCou: FMM=F IPFlag=           0 FMFlag=      100000 FMFlg1=           0
         NFxFlg=           0 DoJE=T BraDBF=F KetDBF=T FulRan=T
         wScrn=  0.000000 ICntrl=       500 IOpCl=  0 I1Cent=   200000004 NGrid=           0
         NMat0=    1 NMatS0=      1 NMatT0=    0 NMatD0=    1 NMtDS0=    0 NMtDT0=    0
 Petite list used in FoFCou.
 Harris En= -268.191124432742    
 JPrj=0 DoOrth=F DoCkMO=F.
 Leave Link  401 at Sun Sep 29 01:52:07 2019, MaxMem=   671088640 cpu:              47.7 elap:              23.9
 (Enter /shared/centos7/gaussian/g16/l502.exe)
 Keep R1 ints in memory in canonical form, NReq=399924305.
 FoFCou: FMM=F IPFlag=           0 FMFlag=           0 FMFlg1=           0
         NFxFlg=           0 DoJE=F BraDBF=F KetDBF=F FulRan=T
         wScrn=  0.000000 ICntrl=       600 IOpCl=  0 I1Cent=           0 NGrid=           0
         NMat0=    1 NMatS0=  27495 NMatT0=    0 NMatD0=    1 NMtDS0=    0 NMtDT0=    0
 Symmetry not used in FoFCou.
 Two-electron integral symmetry not used.
 Closed shell SCF:
 Using DIIS extrapolation, IDIIS=  1040.
 NGot=   671088640 LenX=   292939207 LenY=   292868541
 Requested convergence on RMS density matrix=1.00D-08 within 900 cycles.
 Requested convergence on MAX density matrix=1.00D-06.
 Requested convergence on             energy=1.00D-06.
 No special actions if energy rises.
 Integral accuracy reduced to 1.0D-05 until final iterations.

 Cycle   1  Pass 0  IDiag  1:
 E= -268.179199980430    
 DIIS: error= 2.19D-02 at cycle   1 NSaved=   1.
 NSaved= 1 IEnMin= 1 EnMin= -268.179199980430     IErMin= 1 ErrMin= 2.19D-02
 ErrMax= 2.19D-02  0.00D+00 EMaxC= 1.00D-01 BMatC= 1.72D-01 BMatP= 1.72D-01
 IDIUse=3 WtCom= 7.81D-01 WtEn= 2.19D-01
 Coeff-Com:  0.100D+01
 Coeff-En:   0.100D+01
 Coeff:      0.100D+01
 Gap=     0.347 Goal=   None    Shift=    0.000
 GapD=    0.347 DampG=1.000 DampE=0.500 DampFc=0.5000 IDamp=-1.
 Damping current iteration by 5.00D-01
 RMSDP=1.92D-03 MaxDP=6.14D-02              OVMax= 1.11D-01

 Cycle   2  Pass 0  IDiag  1:
 E= -268.243806637502     Delta-E=       -0.064606657072 Rises=F Damp=T
 DIIS: error= 5.07D-03 at cycle   2 NSaved=   2.
 NSaved= 2 IEnMin= 2 EnMin= -268.243806637502     IErMin= 2 ErrMin= 5.07D-03
 ErrMax= 5.07D-03  0.00D+00 EMaxC= 1.00D-01 BMatC= 1.66D-02 BMatP= 1.72D-01
 IDIUse=3 WtCom= 9.49D-01 WtEn= 5.07D-02
 Coeff-Com: -0.177D+00 0.118D+01
 Coeff-En:   0.000D+00 0.100D+01
 Coeff:     -0.168D+00 0.117D+01
 Gap=     0.327 Goal=   None    Shift=    0.000
 RMSDP=3.77D-04 MaxDP=1.08D-02 DE=-6.46D-02 OVMax= 4.93D-02

 Cycle   3  Pass 0  IDiag  1:
 E= -268.300226412959     Delta-E=       -0.056419775457 Rises=F Damp=F
 DIIS: error= 3.06D-03 at cycle   3 NSaved=   3.
 NSaved= 3 IEnMin= 3 EnMin= -268.300226412959     IErMin= 3 ErrMin= 3.06D-03
 ErrMax= 3.06D-03  0.00D+00 EMaxC= 1.00D-01 BMatC= 3.59D-03 BMatP= 1.66D-02
 IDIUse=3 WtCom= 9.69D-01 WtEn= 3.06D-02
 Coeff-Com: -0.116D+00 0.384D+00 0.732D+00
 Coeff-En:   0.000D+00 0.000D+00 0.100D+01
 Coeff:     -0.112D+00 0.372D+00 0.740D+00
 Gap=     0.328 Goal=   None    Shift=    0.000
 RMSDP=1.72D-04 MaxDP=5.80D-03 DE=-5.64D-02 OVMax= 1.86D-02

 Cycle   4  Pass 0  IDiag  1:
 E= -268.301911833933     Delta-E=       -0.001685420974 Rises=F Damp=F
 DIIS: error= 1.19D-03 at cycle   4 NSaved=   4.
 NSaved= 4 IEnMin= 4 EnMin= -268.301911833933     IErMin= 4 ErrMin= 1.19D-03
 ErrMax= 1.19D-03  0.00D+00 EMaxC= 1.00D-01 BMatC= 8.74D-04 BMatP= 3.59D-03
 IDIUse=3 WtCom= 9.88D-01 WtEn= 1.19D-02
 Coeff-Com: -0.387D-01 0.973D-01 0.379D+00 0.562D+00
 Coeff-En:   0.000D+00 0.000D+00 0.199D+00 0.801D+00
 Coeff:     -0.382D-01 0.962D-01 0.377D+00 0.565D+00
 Gap=     0.323 Goal=   None    Shift=    0.000
 RMSDP=7.65D-05 MaxDP=2.85D-03 DE=-1.69D-03 OVMax= 8.79D-03

 Cycle   5  Pass 0  IDiag  1:
 E= -268.302585081460     Delta-E=       -0.000673247527 Rises=F Damp=F
 DIIS: error= 2.12D-04 at cycle   5 NSaved=   5.
 NSaved= 5 IEnMin= 5 EnMin= -268.302585081460     IErMin= 5 ErrMin= 2.12D-04
 ErrMax= 2.12D-04  0.00D+00 EMaxC= 1.00D-01 BMatC= 1.66D-05 BMatP= 8.74D-04
 IDIUse=3 WtCom= 9.98D-01 WtEn= 2.12D-03
 Coeff-Com: -0.600D-02 0.118D-01 0.835D-01 0.192D+00 0.719D+00
 Coeff-En:   0.000D+00 0.000D+00 0.000D+00 0.000D+00 0.100D+01
 Coeff:     -0.598D-02 0.118D-01 0.833D-01 0.191D+00 0.719D+00
 Gap=     0.324 Goal=   None    Shift=    0.000
 RMSDP=1.38D-05 MaxDP=4.47D-04 DE=-6.73D-04 OVMax= 1.88D-03

 Cycle   6  Pass 0  IDiag  1:
 E= -268.302597599732     Delta-E=       -0.000012518272 Rises=F Damp=F
 DIIS: error= 8.37D-05 at cycle   6 NSaved=   6.
 NSaved= 6 IEnMin= 6 EnMin= -268.302597599732     IErMin= 6 ErrMin= 8.37D-05
 ErrMax= 8.37D-05  0.00D+00 EMaxC= 1.00D-01 BMatC= 3.02D-06 BMatP= 1.66D-05
 IDIUse=1 WtCom= 1.00D+00 WtEn= 0.00D+00
 Coeff-Com: -0.120D-02 0.119D-02 0.255D-01 0.765D-01 0.386D+00 0.512D+00
 Coeff:     -0.120D-02 0.119D-02 0.255D-01 0.765D-01 0.386D+00 0.512D+00
 Gap=     0.324 Goal=   None    Shift=    0.000
 RMSDP=4.47D-06 MaxDP=1.44D-04 DE=-1.25D-05 OVMax= 5.23D-04

 Initial convergence to 1.0D-05 achieved.  Increase integral accuracy.
 Cycle   7  Pass 1  IDiag  1:
 E= -268.302635032027     Delta-E=       -0.000037432296 Rises=F Damp=F
 DIIS: error= 1.95D-05 at cycle   1 NSaved=   1.
 NSaved= 1 IEnMin= 1 EnMin= -268.302635032027     IErMin= 1 ErrMin= 1.95D-05
 ErrMax= 1.95D-05  0.00D+00 EMaxC= 1.00D-01 BMatC= 2.68D-07 BMatP= 2.68D-07
 IDIUse=1 WtCom= 1.00D+00 WtEn= 0.00D+00
 Coeff-Com:  0.100D+01
 Coeff:      0.100D+01
 Gap=     0.324 Goal=   None    Shift=    0.000
 RMSDP=4.47D-06 MaxDP=1.44D-04 DE=-3.74D-05 OVMax= 2.12D-04

 Cycle   8  Pass 1  IDiag  1:
 E= -268.302635200837     Delta-E=       -0.000000168810 Rises=F Damp=F
 DIIS: error= 1.74D-05 at cycle   2 NSaved=   2.
 NSaved= 2 IEnMin= 2 EnMin= -268.302635200837     IErMin= 2 ErrMin= 1.74D-05
 ErrMax= 1.74D-05  0.00D+00 EMaxC= 1.00D-01 BMatC= 1.08D-07 BMatP= 2.68D-07
 IDIUse=1 WtCom= 1.00D+00 WtEn= 0.00D+00
 Coeff-Com:  0.332D+00 0.668D+00
 Coeff:      0.332D+00 0.668D+00
 Gap=     0.324 Goal=   None    Shift=    0.000
 RMSDP=1.26D-06 MaxDP=3.40D-05 DE=-1.69D-07 OVMax= 1.37D-04

 Cycle   9  Pass 1  IDiag  1:
 E= -268.302635251146     Delta-E=       -0.000000050309 Rises=F Damp=F
 DIIS: error= 1.20D-05 at cycle   3 NSaved=   3.
 NSaved= 3 IEnMin= 3 EnMin= -268.302635251146     IErMin= 3 ErrMin= 1.20D-05
 ErrMax= 1.20D-05  0.00D+00 EMaxC= 1.00D-01 BMatC= 3.84D-08 BMatP= 1.08D-07
 IDIUse=1 WtCom= 1.00D+00 WtEn= 0.00D+00
 Coeff-Com: -0.382D-01 0.370D+00 0.669D+00
 Coeff:     -0.382D-01 0.370D+00 0.669D+00
 Gap=     0.324 Goal=   None    Shift=    0.000
 RMSDP=5.71D-07 MaxDP=1.89D-05 DE=-5.03D-08 OVMax= 7.24D-05

 Cycle  10  Pass 1  IDiag  1:
 E= -268.302635280972     Delta-E=       -0.000000029826 Rises=F Damp=F
 DIIS: error= 1.53D-06 at cycle   4 NSaved=   4.
 NSaved= 4 IEnMin= 4 EnMin= -268.302635280972     IErMin= 4 ErrMin= 1.53D-06
 ErrMax= 1.53D-06  0.00D+00 EMaxC= 1.00D-01 BMatC= 6.29D-10 BMatP= 3.84D-08
 IDIUse=1 WtCom= 1.00D+00 WtEn= 0.00D+00
 Coeff-Com: -0.192D-01 0.756D-01 0.199D+00 0.745D+00
 Coeff:     -0.192D-01 0.756D-01 0.199D+00 0.745D+00
 Gap=     0.324 Goal=   None    Shift=    0.000
 RMSDP=1.01D-07 MaxDP=3.61D-06 DE=-2.98D-08 OVMax= 8.33D-06

 Cycle  11  Pass 1  IDiag  1:
 E= -268.302635281570     Delta-E=       -0.000000000598 Rises=F Damp=F
 DIIS: error= 6.23D-07 at cycle   5 NSaved=   5.
 NSaved= 5 IEnMin= 5 EnMin= -268.302635281570     IErMin= 5 ErrMin= 6.23D-07
 ErrMax= 6.23D-07  0.00D+00 EMaxC= 1.00D-01 BMatC= 1.09D-10 BMatP= 6.29D-10
 IDIUse=1 WtCom= 1.00D+00 WtEn= 0.00D+00
 Coeff-Com: -0.237D-02-0.287D-01-0.182D-01 0.279D+00 0.770D+00
 Coeff:     -0.237D-02-0.287D-01-0.182D-01 0.279D+00 0.770D+00
 Gap=     0.324 Goal=   None    Shift=    0.000
 RMSDP=4.17D-08 MaxDP=1.14D-06 DE=-5.98D-10 OVMax= 3.89D-06

 Cycle  12  Pass 1  IDiag  1:
 E= -268.302635281658     Delta-E=       -0.000000000089 Rises=F Damp=F
 DIIS: error= 2.31D-07 at cycle   6 NSaved=   6.
 NSaved= 6 IEnMin= 6 EnMin= -268.302635281658     IErMin= 6 ErrMin= 2.31D-07
 ErrMax= 2.31D-07  0.00D+00 EMaxC= 1.00D-01 BMatC= 1.92D-11 BMatP= 1.09D-10
 IDIUse=1 WtCom= 1.00D+00 WtEn= 0.00D+00
 Coeff-Com:  0.115D-02-0.221D-01-0.294D-01 0.486D-01 0.374D+00 0.627D+00
 Coeff:      0.115D-02-0.221D-01-0.294D-01 0.486D-01 0.374D+00 0.627D+00
 Gap=     0.324 Goal=   None    Shift=    0.000
 RMSDP=1.24D-08 MaxDP=4.39D-07 DE=-8.87D-11 OVMax= 1.10D-06

 Cycle  13  Pass 1  IDiag  1:
 E= -268.302635281679     Delta-E=       -0.000000000021 Rises=F Damp=F
 DIIS: error= 4.26D-08 at cycle   7 NSaved=   7.
 NSaved= 7 IEnMin= 7 EnMin= -268.302635281679     IErMin= 7 ErrMin= 4.26D-08
 ErrMax= 4.26D-08  0.00D+00 EMaxC= 1.00D-01 BMatC= 6.11D-13 BMatP= 1.92D-11
 IDIUse=1 WtCom= 1.00D+00 WtEn= 0.00D+00
 Coeff-Com:  0.614D-03-0.504D-02-0.812D-02-0.828D-02 0.626D-01 0.189D+00
 Coeff-Com:  0.769D+00
 Coeff:      0.614D-03-0.504D-02-0.812D-02-0.828D-02 0.626D-01 0.189D+00
 Coeff:      0.769D+00
 Gap=     0.324 Goal=   None    Shift=    0.000
 RMSDP=3.62D-09 MaxDP=9.17D-08 DE=-2.08D-11 OVMax= 2.24D-07

 SCF Done:  E(RM062X) =  -268.302635282     A.U. after   13 cycles
            NFock= 13  Conv=0.36D-08     -V/T= 2.0061
 KE= 2.666860596337D+02 PE=-9.771093262367D+02 EE= 2.677063648973D+02
 Leave Link  502 at Sun Sep 29 01:57:03 2019, MaxMem=   671088640 cpu:             583.4 elap:             295.7
 (Enter /shared/centos7/gaussian/g16/l801.exe)
 DoSCS=F DFT=T ScalE2(SS,OS)=  1.000000  1.000000
 Range of M.O.s used for correlation:     1   234
 NBasis=   234 NAE=    20 NBE=    20 NFC=     0 NFV=     0
 NROrb=    234 NOA=    20 NOB=    20 NVA=   214 NVB=   214

 **** Warning!!: The largest alpha MO coefficient is  0.11390369D+02

 Leave Link  801 at Sun Sep 29 01:57:04 2019, MaxMem=   671088640 cpu:               1.9 elap:               0.9
 (Enter /shared/centos7/gaussian/g16/l1101.exe)
 Using compressed storage, NAtomX=    11.
 Will process     12 centers per pass.
 Leave Link 1101 at Sun Sep 29 01:57:27 2019, MaxMem=   671088640 cpu:              45.9 elap:              23.0
 (Enter /shared/centos7/gaussian/g16/l1102.exe)
 Symmetrizing basis deriv contribution to polar:
 IMax=3 JMax=2 DiffMx= 0.00D+00
 Leave Link 1102 at Sun Sep 29 01:57:31 2019, MaxMem=   671088640 cpu:               7.7 elap:               3.9
 (Enter /shared/centos7/gaussian/g16/l1110.exe)
 Forming Gx(P) for the SCF density, NAtomX=    11.
 Integral derivatives from FoFJK, PRISM(SPDF).
 Do as many integral derivatives as possible in FoFJK.
 G2DrvN: MDV=     671087712.
 G2DrvN: will do    12 centers at a time, making    1 passes.
 Calling FoFCou, ICntrl=  3107 FMM=F I1Cent=   0 AccDes= 0.00D+00.
 FoFJK:  IHMeth= 1 ICntrl=    3107 DoSepK=F KAlg= 0 I1Cent=           0 FoldK=F
 IRaf=         0 NMat=       1 IRICut=       1 DoRegI=T DoRafI=F ISym2E= 0 IDoP0=0 IntGTp=1.
 FoFCou: FMM=F IPFlag=           0 FMFlag=      100000 FMFlg1=           0
         NFxFlg=           0 DoJE=F BraDBF=F KetDBF=F FulRan=T
         wScrn=  0.000000 ICntrl=      3107 IOpCl=  0 I1Cent=           0 NGrid=           0
         NMat0=    1 NMatS0=      1 NMatT0=    0 NMatD0=    1 NMtDS0=    0 NMtDT0=    0
 Symmetry not used in FoFCou.
 End of G2Drv F.D. properties file   721 does not exist.
 End of G2Drv F.D. properties file   722 does not exist.
 End of G2Drv F.D. properties file   788 does not exist.
 Leave Link 1110 at Sun Sep 29 02:03:13 2019, MaxMem=   671088640 cpu:             684.5 elap:             342.6
 (Enter /shared/centos7/gaussian/g16/l1002.exe)
 Minotr:  Closed shell wavefunction.
          IDoAtm=11111111111
          Direct CPHF calculation.
          Differentiating once with respect to nuclear coordinates.
          Requested convergence is 1.0D-08 RMS, and 1.0D-07 maximum.
          Secondary convergence is 1.0D-12 RMS, and 1.0D-12 maximum.
          NewPWx=T KeepS1=F KeepF1=F KeepIn=T MapXYZ=F SortEE=F KeepMc=T.
         3279 words used for storage of precomputed grid.
 Keep R1 ints in memory in canonical form, NReq=399865278.
 FoFCou: FMM=F IPFlag=           0 FMFlag=           0 FMFlg1=           0
         NFxFlg=           0 DoJE=F BraDBF=F KetDBF=F FulRan=T
         wScrn=  0.000000 ICntrl=       600 IOpCl=  0 I1Cent=           0 NGrid=           0
         NMat0=    1 NMatS0=  27495 NMatT0=    0 NMatD0=    1 NMtDS0=    0 NMtDT0=    0
 Symmetry not used in FoFCou.
 Two-electron integral symmetry not used.
          MDV=     671088640 using IRadAn=       1.
          Solving linear equations simultaneously, MaxMat=       0.
          There are    36 degrees of freedom in the 1st order CPHF.  IDoFFX=6 NUNeed=     0.
     30 vectors produced by pass  0 Test12= 1.19D-14 2.78D-09 XBig12= 6.53D-02 6.95D-02.
 AX will form    30 AO Fock derivatives at one time.
     30 vectors produced by pass  1 Test12= 1.19D-14 2.78D-09 XBig12= 8.00D-03 3.62D-02.
     30 vectors produced by pass  2 Test12= 1.19D-14 2.78D-09 XBig12= 2.47D-04 2.91D-03.
     30 vectors produced by pass  3 Test12= 1.19D-14 2.78D-09 XBig12= 3.39D-06 3.43D-04.
     30 vectors produced by pass  4 Test12= 1.19D-14 2.78D-09 XBig12= 2.19D-08 2.19D-05.
     30 vectors produced by pass  5 Test12= 1.19D-14 2.78D-09 XBig12= 1.05D-10 1.35D-06.
     21 vectors produced by pass  6 Test12= 1.19D-14 2.78D-09 XBig12= 5.14D-13 9.41D-08.
      4 vectors produced by pass  7 Test12= 1.19D-14 2.78D-09 XBig12= 2.03D-15 5.90D-09.
 InvSVY:  IOpt=1 It=  1 EMax= 1.11D-15
 Solved reduced A of dimension   205 with    30 vectors.
 End of Minotr F.D. properties file   721 does not exist.
 End of Minotr F.D. properties file   722 does not exist.
 End of Minotr F.D. properties file   788 does not exist.
 Leave Link 1002 at Sun Sep 29 02:11:19 2019, MaxMem=   671088640 cpu:             971.1 elap:             485.6
 (Enter /shared/centos7/gaussian/g16/l601.exe)
 Copying SCF densities to generalized density rwf, IOpCl= 0 IROHF=0.

 **********************************************************************

            Population analysis using the SCF density.

 **********************************************************************

 Orbital symmetries:
       Occupied  (A) (A) (A) (A) (A) (A) (A) (A) (A) (A) (A) (A)
                 (A) (A) (A) (A) (A) (A) (A) (A)
       Virtual   (A) (A) (A) (A) (A) (A) (A) (A) (A) (A) (A) (A)
                 (A) (A) (A) (A) (A) (A) (A) (A) (A) (A) (A) (A)
                 (A) (A) (A) (A) (A) (A) (A) (A) (A) (A) (A) (A)
                 (A) (A) (A) (A) (A) (A) (A) (A) (A) (A) (A) (A)
                 (A) (A) (A) (A) (A) (A) (A) (A) (A) (A) (A) (A)
                 (A) (A) (A) (A) (A) (A) (A) (A) (A) (A) (A) (A)
                 (A) (A) (A) (A) (A) (A) (A) (A) (A) (A) (A) (A)
                 (A) (A) (A) (A) (A) (A) (A) (A) (A) (A) (A) (A)
                 (A) (A) (A) (A) (A) (A) (A) (A) (A) (A) (A) (A)
                 (A) (A) (A) (A) (A) (A) (A) (A) (A) (A) (A) (A)
                 (A) (A) (A) (A) (A) (A) (A) (A) (A) (A) (A) (A)
                 (A) (A) (A) (A) (A) (A) (A) (A) (A) (A) (A) (A)
                 (A) (A) (A) (A) (A) (A) (A) (A) (A) (A) (A) (A)
                 (A) (A) (A) (A) (A) (A) (A) (A) (A) (A) (A) (A)
                 (A) (A) (A) (A) (A) (A) (A) (A) (A) (A) (A) (A)
                 (A) (A) (A) (A) (A) (A) (A) (A) (A) (A) (A) (A)
                 (A) (A) (A) (A) (A) (A) (A) (A) (A) (A) (A) (A)
                 (A) (A) (A) (A) (A) (A) (A) (A) (A) (A)
 The electronic state is 1-A.
 Alpha  occ. eigenvalues --  -19.65035 -19.64842 -10.59335 -10.58607 -10.58143
 Alpha  occ. eigenvalues --   -1.17510  -1.16093  -0.85306  -0.79254  -0.67855
 Alpha  occ. eigenvalues --   -0.60118  -0.59725  -0.53354  -0.49914  -0.48379
 Alpha  occ. eigenvalues --   -0.46996  -0.45600  -0.40359  -0.39518  -0.26897
 Alpha virt. eigenvalues --    0.05497   0.07870   0.08115   0.09773   0.13289
 Alpha virt. eigenvalues --    0.14497   0.15179   0.19058   0.25217   0.26177
 Alpha virt. eigenvalues --    0.28123   0.29184   0.32777   0.37181   0.37654
 Alpha virt. eigenvalues --    0.38476   0.40021   0.41564   0.42242   0.45521
 Alpha virt. eigenvalues --    0.46058   0.47208   0.47615   0.50358   0.52753
 Alpha virt. eigenvalues --    0.57971   0.58353   0.60544   0.61449   0.62510
 Alpha virt. eigenvalues --    0.65355   0.67397   0.67957   0.72306   0.73942
 Alpha virt. eigenvalues --    0.74861   0.81143   0.81380   0.83410   0.88020
 Alpha virt. eigenvalues --    0.90143   0.95753   0.97393   0.98521   1.01402
 Alpha virt. eigenvalues --    1.03069   1.05923   1.06767   1.09405   1.11189
 Alpha virt. eigenvalues --    1.12748   1.14511   1.18295   1.22113   1.23537
 Alpha virt. eigenvalues --    1.25719   1.28474   1.33621   1.35761   1.36034
 Alpha virt. eigenvalues --    1.36697   1.39502   1.42961   1.44182   1.47577
 Alpha virt. eigenvalues --    1.52246   1.54913   1.68580   1.75239   1.79025
 Alpha virt. eigenvalues --    1.82250   1.85969   1.94204   1.95541   1.99522
 Alpha virt. eigenvalues --    2.05805   2.09494   2.12509   2.18744   2.20107
 Alpha virt. eigenvalues --    2.24888   2.28411   2.29377   2.33703   2.37062
 Alpha virt. eigenvalues --    2.38361   2.46727   2.51156   2.52392   2.56829
 Alpha virt. eigenvalues --    2.61734   2.62152   2.69841   2.72787   2.76520
 Alpha virt. eigenvalues --    2.77961   2.79913   2.82706   2.83327   2.85490
 Alpha virt. eigenvalues --    2.88542   2.91246   2.93456   2.94512   2.96873
 Alpha virt. eigenvalues --    3.01248   3.02020   3.03673   3.06936   3.10486
 Alpha virt. eigenvalues --    3.12646   3.14510   3.16859   3.19510   3.21983
 Alpha virt. eigenvalues --    3.23387   3.26572   3.28042   3.29794   3.30272
 Alpha virt. eigenvalues --    3.31127   3.35272   3.37352   3.38444   3.41354
 Alpha virt. eigenvalues --    3.45144   3.48289   3.51031   3.54727   3.57616
 Alpha virt. eigenvalues --    3.59155   3.59861   3.64705   3.65935   3.68098
 Alpha virt. eigenvalues --    3.71289   3.74000   3.76274   3.82003   3.83129
 Alpha virt. eigenvalues --    3.84015   3.86546   3.88325   3.91275   3.92576
 Alpha virt. eigenvalues --    3.97699   3.99224   4.00630   4.03024   4.04881
 Alpha virt. eigenvalues --    4.08848   4.14505   4.21468   4.22691   4.24760
 Alpha virt. eigenvalues --    4.26530   4.31546   4.38550   4.46719   4.52341
 Alpha virt. eigenvalues --    4.53113   4.55656   4.57354   4.66090   4.74524
 Alpha virt. eigenvalues --    4.75455   4.80047   4.83562   4.87024   4.88519
 Alpha virt. eigenvalues --    4.91271   4.95647   4.98013   4.98528   5.04426
 Alpha virt. eigenvalues --    5.09133   5.14307   5.21264   5.24017   5.29592
 Alpha virt. eigenvalues --    5.33922   5.43575   5.47554   5.53961   5.58257
 Alpha virt. eigenvalues --    5.69014   5.71862   5.74255   5.81680   5.88387
 Alpha virt. eigenvalues --    5.97716   6.02950   6.18389   6.27835   6.29169
 Alpha virt. eigenvalues --    6.39977   6.50866   6.58953   6.64211   6.72437
 Alpha virt. eigenvalues --    6.74017   6.79664   6.83186   6.92722   7.01171
 Alpha virt. eigenvalues --    7.12486   7.21456   7.28683   7.34576  10.37280
 Alpha virt. eigenvalues --   10.86509  11.67238  12.93542  14.07544
          Condensed to atoms (all electrons):
               1          2          3          4          5          6
     1  O    7.848028   0.003022   0.285282   0.340643  -0.067760  -0.034786
     2  O    0.003022   7.803673   0.000191  -0.068187   0.336174   0.000008
     3  C    0.285282   0.000191   4.708505  -0.048765  -0.023208   0.400114
     4  C    0.340643  -0.068187  -0.048765   4.958712   0.541537   0.002129
     5  C   -0.067760   0.336174  -0.023208   0.541537   4.958779   0.001385
     6  H   -0.034786   0.000008   0.400114   0.002129   0.001385   0.618009
     7  H   -0.035952   0.000001   0.403781   0.000247   0.002509  -0.044016
     8  H   -0.039896  -0.000851   0.391704  -0.014802  -0.006829  -0.042395
     9  H   -0.033664  -0.001824   0.006339   0.423743  -0.073088  -0.000187
    10  H   -0.001606  -0.031597  -0.009974  -0.069458   0.424581   0.000425
    11  H    0.000245   0.324314  -0.000071  -0.007326  -0.049758   0.000007
               7          8          9         10         11
     1  O   -0.035952  -0.039896  -0.033664  -0.001606   0.000245
     2  O    0.000001  -0.000851  -0.001824  -0.031597   0.324314
     3  C    0.403781   0.391704   0.006339  -0.009974  -0.000071
     4  C    0.000247  -0.014802   0.423743  -0.069458  -0.007326
     5  C    0.002509  -0.006829  -0.073088   0.424581  -0.049758
     6  H   -0.044016  -0.042395  -0.000187   0.000425   0.000007
     7  H    0.623410  -0.048494  -0.000192   0.001269   0.000005
     8  H   -0.048494   0.688628  -0.000353  -0.006560  -0.000132
     9  H   -0.000192  -0.000353   0.528331   0.003056   0.003382
    10  H    0.001269  -0.006560   0.003056   0.523669   0.006597
    11  H    0.000005  -0.000132   0.003382   0.006597   0.458340
 Mulliken charges:
               1
     1  O   -0.263556
     2  O   -0.364923
     3  C   -0.113896
     4  C   -0.058473
     5  C   -0.044323
     6  H    0.099308
     7  H    0.097432
     8  H    0.079981
     9  H    0.144456
    10  H    0.159598
    11  H    0.264397
 Sum of Mulliken charges =  -0.00000
 Mulliken charges with hydrogens summed into heavy atoms:
               1
     1  O   -0.263556
     2  O   -0.100526
     3  C    0.162825
     4  C    0.085983
     5  C    0.115275
 APT charges:
               1
     1  O   -0.158463
     2  O   -0.507584
     3  C   -0.899665
     4  C   -0.409942
     5  C   -0.310617
     6  H    0.435723
     7  H    0.419079
     8  H    0.168842
     9  H    0.401365
    10  H    0.303419
    11  H    0.557843
 Sum of APT charges =  -0.00000
 APT charges with hydrogens summed into heavy atoms:
               1
     1  O   -0.158463
     2  O    0.050259
     3  C    0.123979
     4  C   -0.008576
     5  C   -0.007199
 Electronic spatial extent (au):  <R**2>=            502.9310
 Charge=             -0.0000 electrons
 Dipole moment (field-independent basis, Debye):
    X=              0.2241    Y=              0.0473    Z=              0.4626  Tot=              0.5162
 Quadrupole moment (field-independent basis, Debye-Ang):
   XX=            -30.1725   YY=            -28.1468   ZZ=            -32.0448
   XY=             -7.1497   XZ=             -1.3491   YZ=              0.4092
 Traceless Quadrupole moment (field-independent basis, Debye-Ang):
   XX=             -0.0511   YY=              1.9746   ZZ=             -1.9234
   XY=             -7.1497   XZ=             -1.3491   YZ=              0.4092
 Octapole moment (field-independent basis, Debye-Ang**2):
  XXX=              0.1042  YYY=              2.7253  ZZZ=              0.2156  XYY=             -5.5172
  XXY=              7.5273  XXZ=              3.7020  XZZ=              0.7304  YZZ=              0.1575
  YYZ=              0.0446  XYZ=             -1.0979
 Hexadecapole moment (field-independent basis, Debye-Ang**3):
 XXXX=           -451.5024 YYYY=           -104.3205 ZZZZ=            -39.6924 XXXY=            -35.9965
 XXXZ=            -10.9851 YYYX=              0.0364 YYYZ=              0.3641 ZZZX=             -0.3734
 ZZZY=              0.2098 XXYY=            -96.3232 XXZZ=            -82.5021 YYZZ=            -26.5635
 XXYZ=              2.9740 YYXZ=             -0.5993 ZZXY=             -0.1144
 N-N= 1.744142664241D+02 E-N=-9.771093154390D+02  KE= 2.666860596337D+02
  Exact polarizability:   0.000   0.000   0.000   0.000   0.000   0.000
 Approx polarizability:  61.246   5.519  56.239  -0.504   0.596  38.712
 No NMR shielding tensors so no spin-rotation constants.
 Leave Link  601 at Sun Sep 29 02:11:46 2019, MaxMem=   671088640 cpu:              54.4 elap:              27.2
 (Enter /shared/centos7/gaussian/g16/l701.exe)
 SCFChk:  SCF convergence  3.62D-09 required  1.00D-08
 ... and contract with generalized density number  0.
 Compute integral second derivatives.
 Entering OneElI...
 Calculate overlap and kinetic energy integrals
    NBasis = 265  MinDer = 2  MaxDer = 2
 Requested accuracy = 0.1000D-12
 PrmmSu-InSpLW:  IPartL=    0 NPrtUS=   20 NPrtUL=    1 DoSpLW=F IThBeg=    0 IThEnd=   19 NThAct=   20.
 PrsmSu:  NPrtUS=  20 ThrOK=T IAlg=1 NPAlg=1 LenDen=           0 ISkipM=0 DoSpLW=F IThBeg=    0 IThEnd=   19.
 Prism:   IPart=     0 DynPar=F LinDyn=F Incr=           1.
 PRISM was handed    33439822 working-precision words and  3726 shell-pairs
 PRISM was handed    33439822 working-precision words and  3726 shell-pairs
 PRISM was handed    33439822 working-precision words and  3726 shell-pairs
 PRISM was handed    33439822 working-precision words and  3726 shell-pairs
 PRISM was handed    33439822 working-precision words and  3726 shell-pairs
 PRISM was handed    33439822 working-precision words and  3726 shell-pairs
 PRISM was handed    33439822 working-precision words and  3726 shell-pairs
 PRISM was handed    33439822 working-precision words and  3726 shell-pairs
 PRISM was handed    33439822 working-precision words and  3726 shell-pairs
 PRISM was handed    33439822 working-precision words and  3726 shell-pairs
 PRISM was handed    33439822 working-precision words and  3726 shell-pairs
 PRISM was handed    33439822 working-precision words and  3726 shell-pairs
 PRISM was handed    33439822 working-precision words and  3726 shell-pairs
 PRISM was handed    33439822 working-precision words and  3726 shell-pairs
 PRISM was handed    33439822 working-precision words and  3726 shell-pairs
 PRISM was handed    33439822 working-precision words and  3726 shell-pairs
 IPart=  0 NShTot=         229 NBatch=          69 AvBLen=         3.3
 IPart= 19 NShTot=         163 NBatch=          25 AvBLen=         6.5
 PRISM was handed    33439822 working-precision words and  3726 shell-pairs
 IPart= 12 NShTot=         176 NBatch=          27 AvBLen=         6.5
 PRISM was handed    33439822 working-precision words and  3726 shell-pairs
 IPart=  9 NShTot=         178 NBatch=          27 AvBLen=         6.6
 IPart=  6 NShTot=         197 NBatch=          41 AvBLen=         4.8
 IPart= 14 NShTot=         172 NBatch=          27 AvBLen=         6.4
 IPart=  3 NShTot=         210 NBatch=          50 AvBLen=         4.2
 PRISM was handed    33439822 working-precision words and  3726 shell-pairs
 IPart=  8 NShTot=         183 NBatch=          29 AvBLen=         6.3
 PRISM was handed    33439822 working-precision words and  3726 shell-pairs
 IPart=  5 NShTot=         198 NBatch=          42 AvBLen=         4.7
 IPart= 16 NShTot=         166 NBatch=          25 AvBLen=         6.6
 IPart= 18 NShTot=         163 NBatch=          25 AvBLen=         6.5
 IPart=  7 NShTot=         190 NBatch=          35 AvBLen=         5.4
 IPart=  2 NShTot=         212 NBatch=          52 AvBLen=         4.1
 IPart=  4 NShTot=         204 NBatch=          48 AvBLen=         4.3
 IPart= 17 NShTot=         165 NBatch=          25 AvBLen=         6.6
 IPart= 11 NShTot=         177 NBatch=          27 AvBLen=         6.6
 IPart= 15 NShTot=         168 NBatch=          26 AvBLen=         6.5
 IPart= 10 NShTot=         177 NBatch=          27 AvBLen=         6.6
 IPart= 13 NShTot=         176 NBatch=          27 AvBLen=         6.5
 IPart=  1 NShTot=         222 NBatch=          62 AvBLen=         3.6
 PrSmSu:  NxtVal=             21.
 Entering OneElI...
 Calculate potential energy integrals
    NBasis = 265  MinDer = 2  MaxDer = 2
 Requested accuracy = 0.1000D-12
 PrmmSu-InSpLW:  IPartL=    0 NPrtUS=   20 NPrtUL=    1 DoSpLW=F IThBeg=    0 IThEnd=   19 NThAct=   20.
 PrsmSu:  NPrtUS=  20 ThrOK=T IAlg=1 NPAlg=1 LenDen=           0 ISkipM=0 DoSpLW=F IThBeg=    0 IThEnd=   19.
 Prism:   IPart=     0 DynPar=F LinDyn=F Incr=          19.
 PRISM was handed    33456228 working-precision words and  3520 shell-pairs
 PRISM was handed    33456228 working-precision words and  3520 shell-pairs
 PRISM was handed    33456228 working-precision words and  3520 shell-pairs
 PRISM was handed    33456228 working-precision words and  3520 shell-pairs
 PRISM was handed    33456228 working-precision words and  3520 shell-pairs
 PRISM was handed    33456228 working-precision words and  3520 shell-pairs
 PRISM was handed    33456228 working-precision words and  3520 shell-pairs
 PRISM was handed    33456228 working-precision words and  3520 shell-pairs
 PRISM was handed    33456228 working-precision words and  3520 shell-pairs
 PRISM was handed    33456228 working-precision words and  3520 shell-pairs
 PRISM was handed    33456228 working-precision words and  3520 shell-pairs
 PRISM was handed    33456228 working-precision words and  3520 shell-pairs
 PRISM was handed    33456228 working-precision words and  3520 shell-pairs
 PRISM was handed    33456228 working-precision words and  3520 shell-pairs
 PRISM was handed    33456228 working-precision words and  3520 shell-pairs
 PRISM was handed    33456228 working-precision words and  3520 shell-pairs
 PRISM was handed    33456228 working-precision words and  3520 shell-pairs
 PRISM was handed    33456228 working-precision words and  3520 shell-pairs
 PRISM was handed    33456228 working-precision words and  3520 shell-pairs
 PRISM was handed    33456228 working-precision words and  3520 shell-pairs
 IPart=  0 NShTot=        2420 NBatch=         220 AvBLen=        11.0
 IPart=  4 NShTot=        2090 NBatch=         190 AvBLen=        11.0
 IPart=  6 NShTot=        1947 NBatch=         177 AvBLen=        11.0
 IPart=  3 NShTot=        2134 NBatch=         194 AvBLen=        11.0
 IPart=  8 NShTot=        1892 NBatch=         172 AvBLen=        11.0
 IPart= 14 NShTot=        1793 NBatch=         163 AvBLen=        11.0
 IPart= 19 NShTot=        1749 NBatch=         159 AvBLen=        11.0
 IPart= 18 NShTot=        1749 NBatch=         159 AvBLen=        11.0
 IPart= 11 NShTot=        1837 NBatch=         167 AvBLen=        11.0
 IPart= 16 NShTot=        1760 NBatch=         160 AvBLen=        11.0
 IPart= 12 NShTot=        1815 NBatch=         165 AvBLen=        11.0
 IPart=  5 NShTot=        1980 NBatch=         180 AvBLen=        11.0
 IPart=  7 NShTot=        1914 NBatch=         174 AvBLen=        11.0
 IPart= 17 NShTot=        1760 NBatch=         160 AvBLen=        11.0
 IPart=  2 NShTot=        2244 NBatch=         204 AvBLen=        11.0
 IPart= 13 NShTot=        1804 NBatch=         164 AvBLen=        11.0
 IPart=  9 NShTot=        1881 NBatch=         171 AvBLen=        11.0
 IPart=  1 NShTot=        2321 NBatch=         211 AvBLen=        11.0
 IPart= 10 NShTot=        1870 NBatch=         170 AvBLen=        11.0
 IPart= 15 NShTot=        1760 NBatch=         160 AvBLen=        11.0
 PrSmSu:  NxtVal=            381.
 Polarizability after L701:
                1             2             3 
      1  0.000000D+00
      2  0.000000D+00  0.000000D+00
      3  0.000000D+00  0.000000D+00  0.000000D+00
 Dipole Derivatives after L701:
                 1             2             3             4             5 
      1  -0.730577D-01  0.103485D+00  0.482635D-02 -0.414954D+00  0.137110D+01
      2   0.194642D+00 -0.145620D+00 -0.134681D-02  0.293783D+00 -0.667269D+00
      3  -0.746959D-03 -0.195419D-02 -0.256711D+00  0.982192D-01 -0.143319D+00
                 6             7             8             9            10 
      1   0.409048D+00 -0.113040D+01  0.565835D+00 -0.263051D-01 -0.511814D+00
      2  -0.953402D-01  0.117079D+00 -0.789026D+00  0.806920D-02  0.189712D-03
      3  -0.440529D+00  0.692198D-02 -0.279528D-02 -0.779572D+00 -0.333806D-01
                11            12            13            14            15 
      1  -0.672712D-01 -0.708597D-01 -0.313072D+00 -0.274781D+00  0.284860D-01
      2  -0.742503D+00  0.223560D-01 -0.852464D-01 -0.655680D+00 -0.377759D-01
      3  -0.181162D-02  0.244920D-01 -0.239156D-01  0.556453D-01  0.369012D-01
                16            17            18            19            20 
      1   0.736002D+00 -0.164980D+00 -0.735151D+00  0.634814D+00 -0.172526D+00
      2  -0.177084D+00  0.171556D+00  0.156663D+00 -0.163150D+00  0.176027D+00
      3  -0.237594D+00  0.110627D-01  0.399609D+00  0.227967D+00 -0.194530D-01
                21            22            23            24            25 
      1   0.754047D+00 -0.305549D-01 -0.248467D+00  0.314339D-02  0.216333D+00
      2  -0.174734D+00  0.375567D+00  0.460125D+00  0.630875D-02 -0.202162D+00
      3   0.446397D+00  0.936430D-02  0.153235D-01  0.769573D-01  0.308561D-02
                26            27            28            29            30 
      1  -0.185651D+00  0.179068D-02  0.924668D-01  0.214978D+00  0.184590D-01
      2   0.904789D+00 -0.107069D-01 -0.248561D+00  0.727904D+00  0.246986D-01
      3  -0.143109D-01  0.829747D-01 -0.466791D-02 -0.259683D-01  0.898846D-01
                31            32            33 
      1   0.794236D+00 -0.114172D+01 -0.387484D+00
      2  -0.105057D+00  0.559697D+00  0.101807D+00
      3  -0.452536D-01  0.127581D+00  0.319596D+00
 Hessian after L701:
                1             2             3             4             5 
      1  0.353431D+01
      2  0.286621D+01  0.879924D+01
      3 -0.837834D-01  0.589135D-01  0.145616D+02
      4  0.440423D+00  0.188005D+00  0.103056D-01  0.273730D+01
      5  0.224564D+00 -0.165623D+00 -0.141398D-02  0.106598D+01  0.917493D+01
      6  0.154205D-01  0.226535D-02 -0.206143D+00  0.405951D+00 -0.130509D+01
      7 -0.525056D+01 -0.342791D+01  0.323316D-01  0.204187D+00 -0.754758D-02
      8 -0.321871D+01 -0.585152D+00 -0.128224D+00 -0.244803D-02 -0.117021D+00
      9  0.302797D-01 -0.116963D+00 -0.704785D+01  0.466455D-02 -0.288023D-02
     10  0.114207D+01 -0.533691D+00  0.151855D+00  0.597168D-01  0.364554D+00
     11 -0.718199D+00 -0.805669D+01  0.419819D-01  0.267275D+00  0.325357D-01
     12  0.104594D+00  0.300908D-01 -0.810210D+01 -0.251903D-02 -0.298217D-01
     13  0.667872D-01  0.353349D+00 -0.783942D-01  0.993244D+00 -0.762557D-01
     14  0.372220D+00  0.977227D-01 -0.890283D-02 -0.183817D+00 -0.771149D+01
     15 -0.360403D-01 -0.858660D-02  0.204445D+00 -0.169398D-01  0.936198D-01
     16  0.389971D-01  0.102666D+00 -0.134395D+00  0.294295D-01  0.257921D-02
     17  0.113131D+00 -0.156987D+00  0.460471D-01 -0.466619D-02 -0.940964D-02
     18 -0.126201D+00  0.608384D-01  0.231787D+00 -0.170730D-01 -0.358420D-02
     19  0.252856D-01  0.111973D+00  0.121984D+00  0.281541D-01  0.223641D-02
     20  0.115937D+00 -0.166628D+00 -0.421673D-01 -0.506211D-02 -0.979192D-02
     21  0.113738D+00 -0.559994D-01  0.264898D+00  0.193860D-01  0.354006D-02
     22  0.180850D+00  0.220030D+00  0.715597D-02  0.376363D-03 -0.417395D-02
     23  0.153608D+00  0.153614D-01  0.469818D-01 -0.353534D-01 -0.160160D-01
     24  0.758133D-02  0.344778D-01  0.975161D-01  0.120982D-03  0.800529D-04
     25 -0.215217D+00  0.825917D-01 -0.827326D-02 -0.118487D-01  0.393542D-01
     26  0.324550D-01  0.158989D+00  0.325876D-02  0.796470D-01  0.833863D-01
     27 -0.731693D-02  0.241156D-02  0.601344D-01  0.337964D-02  0.242098D-02
     28 -0.181896D-01  0.353806D-01 -0.151871D-01 -0.193431D+00  0.813232D-01
     29  0.100916D+00  0.789255D-01 -0.198629D-01  0.369595D-01  0.121161D+00
     30 -0.240632D-02 -0.670095D-02 -0.482297D-01  0.327536D-01 -0.222504D-01
     31  0.552481D-01  0.140112D-02 -0.359935D-02 -0.428755D+01 -0.169262D+01
     32 -0.421255D-01 -0.191649D-01  0.338779D-02 -0.140652D+01 -0.138266D+01
     33 -0.158660D-01 -0.747142D-03 -0.160488D-01 -0.440029D+00  0.126538D+01
                6             7             8             9            10 
      6  0.126506D+02
      7  0.106072D-01  0.122745D+02
      8 -0.160214D-02  0.303080D+01  0.950456D+01
      9 -0.109226D+00 -0.353969D-01  0.713655D-01  0.152346D+02
     10 -0.253104D-01  0.263599D+00 -0.347812D+00 -0.167158D-01  0.704186D+01
     11 -0.371627D-01 -0.279462D+00  0.225398D-01  0.140017D-01 -0.276764D+01
     12  0.139446D+00 -0.279754D-01  0.201146D-01 -0.173791D+00 -0.175065D+00
     13  0.628837D-01  0.243631D+00  0.407035D-01 -0.147052D-01 -0.510479D+01
     14  0.117364D+00 -0.653514D-01 -0.189818D+00  0.470556D-02  0.420273D+01
     15 -0.767384D+01 -0.125083D-01  0.524512D-02 -0.179512D+00  0.751644D-01
     16 -0.593492D-02 -0.234026D+01 -0.257080D+00 -0.115997D+01  0.721543D-01
     17  0.418329D-03 -0.283995D+00 -0.323647D+01  0.352134D+00 -0.532137D-01
     18 -0.632273D-02 -0.107766D+01  0.293438D+00 -0.202663D+01 -0.635566D-01
     19  0.102527D-01 -0.255760D+01 -0.241258D+00  0.113053D+01  0.423510D-01
     20 -0.118151D-02 -0.265552D+00 -0.325180D+01 -0.404544D+00 -0.431700D-01
     21 -0.323893D-02  0.104039D+01 -0.336381D+00 -0.182062D+01  0.568716D-01
     22 -0.319878D-02 -0.289602D+01  0.105880D+01  0.575075D-01 -0.321784D-01
     23 -0.135834D-03  0.135628D+01 -0.223486D+01  0.816886D-01  0.220836D-01
     24 -0.221822D-01  0.662148D-01  0.752653D-01 -0.380471D+01  0.801081D-02
     25  0.567452D-02  0.475526D-01 -0.937634D-01  0.141921D-02 -0.366657D+01
     26  0.973309D-02 -0.111938D+00  0.699831D-01 -0.133755D-02 -0.739477D+00
     27 -0.494622D-01  0.183186D-02 -0.177824D-02 -0.415651D-01  0.508168D-03
     28  0.566808D-01 -0.623729D-02  0.318122D-01  0.412461D-02  0.230405D+00
     29 -0.414650D-01  0.748738D-01  0.252553D-01 -0.221116D-03 -0.913954D-01
     30  0.482841D-01  0.862460D-02  0.174202D-02 -0.246072D-01  0.145352D-01
     31 -0.533026D+00  0.172082D-01 -0.104360D-02 -0.173874D-02 -0.486194D-01
     32  0.125685D+01 -0.202023D-01 -0.722743D-02  0.205049D-02 -0.129712D-01
     33 -0.476788D+01 -0.646065D-02  0.814170D-03 -0.606193D-02 -0.262968D-01
               11            12            13            14            15 
     11  0.135791D+02
     12 -0.326338D-01  0.243427D+02
     13  0.437161D+01  0.905494D-01  0.708456D+01
     14 -0.366098D+01 -0.135446D-01 -0.329317D+01  0.135375D+02
     15 -0.378438D-02 -0.124919D+02 -0.685003D-01 -0.162812D+00  0.241320D+02
     16 -0.493431D-01 -0.479685D-01  0.695863D-01 -0.486244D-02 -0.111200D-01
     17 -0.120638D-01  0.172700D-01 -0.113147D-01 -0.218635D-01 -0.226899D-02
     18  0.271979D-01 -0.434664D-02 -0.298389D-01  0.111863D-02 -0.164063D-01
     19 -0.402592D-01  0.377463D-01  0.825546D-01 -0.137060D-01  0.180318D-01
     20 -0.732205D-02 -0.156444D-01 -0.199001D-01 -0.237405D-01 -0.535190D-03
     21 -0.279678D-01  0.682402D-04  0.382209D-01 -0.375166D-02 -0.164370D-01
     22  0.638872D-01  0.107646D-01  0.556622D-02 -0.127391D+00  0.248619D-01
     23 -0.190988D-01 -0.150945D-01 -0.181555D+00  0.819979D-01 -0.151350D-01
     24 -0.135262D-01  0.355102D-02  0.186710D-01 -0.613796D-02 -0.620711D-01
     25 -0.763215D+00  0.335738D-02  0.221984D+00 -0.128503D+00  0.664827D-03
     26 -0.151460D+01 -0.385721D-01 -0.141509D+00 -0.343437D+00  0.147416D-01
     27 -0.314619D-01 -0.390920D+01  0.277783D-02  0.106203D-01  0.207298D+00
     28 -0.146292D+00  0.126398D-01 -0.380752D+01 -0.850243D+00 -0.288862D-01
     29 -0.355300D+00  0.798385D-01 -0.100199D+01 -0.181481D+01  0.979199D-01
     30  0.706855D-01  0.194804D+00 -0.306831D-01  0.778985D-01 -0.417249D+01
     31  0.616442D-01 -0.612373D-02  0.144397D+00  0.920867D-01  0.552718D-01
     32 -0.811353D-02 -0.200252D-02 -0.399691D-01  0.488904D-01 -0.184045D-01
     33 -0.733012D-02  0.733668D-03  0.901896D-02 -0.165580D-01  0.689235D-01
               16            17            18            19            20 
     16  0.209335D+01
     17  0.345534D+00  0.322987D+01
     18  0.117764D+01 -0.482335D+00  0.204228D+01
     19  0.143820D+00 -0.341524D-02  0.852614D-02  0.231467D+01
     20 -0.463665D-02  0.124901D+00  0.149342D-01  0.322908D+00  0.323543D+01
     21  0.297449D-01 -0.829307D-02 -0.265701D+00 -0.113602D+01  0.541721D+00
     22 -0.120775D+00 -0.101102D+00  0.137539D+00 -0.998351D-01 -0.100142D+00
     23 -0.134399D+00  0.819352D-01  0.856060D-01 -0.140343D+00  0.100760D+00
     24  0.159316D+00  0.769477D-01  0.481199D-01 -0.199761D+00 -0.931251D-01
     25  0.221665D-02 -0.819401D-03 -0.342674D-02  0.204951D-02 -0.111308D-02
     26 -0.796219D-02  0.265514D-02  0.636320D-02 -0.758177D-02  0.290088D-02
     27 -0.929971D-03  0.668412D-03 -0.102446D-02  0.121139D-02 -0.856949D-03
     28  0.719941D-02  0.138070D-02 -0.290041D-02  0.141851D-01  0.226795D-02
     29  0.132341D-01 -0.363850D-02 -0.768167D-02  0.151337D-01 -0.579144D-02
     30 -0.410154D-02 -0.115040D-02 -0.271444D-02  0.885474D-02  0.107148D-02
     31  0.428858D-02 -0.151909D-02 -0.305185D-02  0.436672D-02 -0.153710D-02
     32 -0.572935D-02  0.106315D-02  0.410472D-02 -0.568695D-02  0.108104D-02
     33 -0.228559D-02  0.561828D-03  0.955883D-03 -0.135785D-02  0.327995D-03
               21            22            23            24            25 
     21  0.182994D+01
     22 -0.175722D+00  0.294630D+01
     23 -0.110809D+00 -0.102182D+01  0.200653D+01
     24  0.157037D-01 -0.604280D-01 -0.740293D-01  0.375179D+01
     25  0.370032D-02 -0.335739D-02 -0.313657D-02  0.582068D-04  0.361869D+01
     26 -0.704436D-02  0.504133D-02  0.861582D-02 -0.134786D-03  0.863842D+00
     27 -0.800579D-03 -0.102323D-03 -0.473288D-04 -0.202085D-02  0.298861D-02
     28  0.647322D-02  0.208776D-01 -0.104656D-01  0.389528D-03 -0.143001D-01
     29  0.932215D-02  0.550153D-02 -0.312941D-01 -0.157558D-03 -0.647527D-02
     30 -0.198603D-02  0.119915D-02 -0.105901D-02 -0.246745D-01 -0.429160D-03
     31  0.321455D-02 -0.181001D-02 -0.490220D-02 -0.173196D-03  0.188049D-01
     32 -0.433734D-02  0.136955D-02  0.606504D-02  0.340117D-03  0.112379D-01
     33 -0.182248D-02  0.423352D-03  0.203357D-02 -0.101592D-02 -0.573392D-02
               26            27            28            29            30 
     26  0.148873D+01
     27  0.210404D-01  0.375455D+01
     28 -0.792037D-02  0.843737D-04  0.373202D+01
     29  0.600609D-01 -0.122079D-02  0.925865D+00  0.187294D+01
     30  0.163779D-02 -0.377644D-02 -0.204721D-01 -0.130465D+00  0.405488D+01
     31  0.354031D-01 -0.443264D-02  0.349877D-01 -0.726256D-01 -0.787507D-02
     32 -0.172840D-01 -0.179650D-02 -0.631093D-01  0.524920D-01  0.858996D-02
     33 -0.968605D-02 -0.141353D-01 -0.129465D-01  0.139930D-01 -0.194930D-01
               31            32            33 
     31  0.405868D+01
     32  0.158371D+01  0.132486D+01
     33  0.501534D+00 -0.124879D+01  0.475584D+01
 Leave Link  701 at Sun Sep 29 02:12:09 2019, MaxMem=   671088640 cpu:              44.9 elap:              22.5
 (Enter /shared/centos7/gaussian/g16/l702.exe)
 L702 exits ... SP integral derivatives will be done elsewhere.
 Leave Link  702 at Sun Sep 29 02:12:09 2019, MaxMem=   671088640 cpu:               1.6 elap:               0.8
 (Enter /shared/centos7/gaussian/g16/l703.exe)
 Integral derivatives from FoFJK, PRISM(SPDF).
 Compute integral second derivatives, UseDBF=F ICtDFT=           0.
 ICntrl=    100147.
 Calling FoFJK, ICntrl=    100147 FMM=F ISym2X=0 I1Cent= 0 IOpClX= 0 NMat=1 NMatS=1 NMatT=0.
 FoFJK:  IHMeth= 1 ICntrl=  100147 DoSepK=F KAlg= 0 I1Cent=           0 FoldK=F
 IRaf=         0 NMat=       1 IRICut=       1 DoRegI=T DoRafI=F ISym2E= 0 IDoP0=0 IntGTp=1.
 FoFCou: FMM=F IPFlag=           0 FMFlag=      100000 FMFlg1=         800
         NFxFlg=           0 DoJE=F BraDBF=F KetDBF=F FulRan=T
         wScrn=  0.000000 ICntrl=    100147 IOpCl=  0 I1Cent=           0 NGrid=           0
         NMat0=    1 NMatS0=      1 NMatT0=    0 NMatD0=    1 NMtDS0=    0 NMtDT0=    0
 Symmetry not used in FoFCou.
 FoFCou:  KetSym=F NOpSet=  1 NOpAb=1 NOp=  1.
 FoFCou:  CnvScl= 1.00D+00 Thresh= 1.00D-08 IAcrcy=      12.
 PrismS was handed   670742334 working-precision words and  3627 shell-pairs
 FoFCou: LinMIO=F DoNuc=F BraDBF=F KetDBF=F HaveP=T PDBF=F HaveZ=T HaveW=F
         NIJTC =      10 NIJTAt=       0 NIJTCD=       0 NIJTT =      10
         IJTBeg=       1 IJTEnd=      10 KLTBeg=       1 KLTEnd=      10
         IPTBeg=       1 IPTEnd=      10 IPTBCv=       1 IPTECv=      10
         IZTBeg=       1 IZTEnd=      10 IZTBCv=       1 IZTECv=      10
         IWTBeg=      11 IWTEnd=      10 IWTBCv=      11 IWTECv=      10
         INTBeg=       1 INTEnd=       0 IFTBCv=       1 IFTECv=      10
 NCel replicated for PrismC:     1
 CoulSu-InSpLW:  IPartL=    0 NPrtUS=   20 NPrtUL=    1 DoSpLW=F IThBeg=    0 IThEnd=   19 NThAct=   20.
 CoulSu:  IncDef=  1024 NBBP=        6579378 NTPThr=   100 NPartT=   20 Incr=        1024 LDynOK=F GPUOK=T.
 CoulSu:  NPrtUS=  20 ThrOK=T IAlg=1 NPAlg=1 LenDen=           0 LWGrdD=           0 DoCopy=F ISkipM=0
          DoSpLW=F IThBeg=    0 IThEnd=   19.
 Enter PrismC:  IPart=  0 JobTyp=22 DoJE=F Cont=F.
 PrismC:  IPart=     0 DynPar=T LinDyn=F Incr=        1024 UseFst=F UseS4=T ISplat=2.
 PrismC was handed    33457089 working-precision words and  3627 shell-pairs
 Enter PrismC:  IPart= 12 JobTyp=22 DoJE=F Cont=F.
 PrismC:  IPart=    12 DynPar=T LinDyn=F Incr=        1024 UseFst=F UseS4=T ISplat=2.
 PrismC was handed    33457089 working-precision words and  3627 shell-pairs
 Enter PrismC:  IPart=  1 JobTyp=22 DoJE=F Cont=F.
 Enter PrismC:  IPart=  4 JobTyp=22 DoJE=F Cont=F.
 Enter PrismC:  IPart=  7 JobTyp=22 DoJE=F Cont=F.
 PrismC:  IPart=     7 DynPar=T LinDyn=F Incr=        1024 UseFst=F UseS4=T ISplat=2.
 PrismC was handed    33457089 working-precision words and  3627 shell-pairs
 PrismC:  IPart=     1 DynPar=T LinDyn=F Incr=        1024 UseFst=F UseS4=T ISplat=2.
 PrismC was handed    33457089 working-precision words and  3627 shell-pairs
 PrismC:  IPart=     4 DynPar=T LinDyn=F Incr=        1024 UseFst=F UseS4=T ISplat=2.
 PrismC was handed    33457089 working-precision words and  3627 shell-pairs
 Enter PrismC:  IPart=  9 JobTyp=22 DoJE=F Cont=F.
 PrismC:  IPart=     9 DynPar=T LinDyn=F Incr=        1024 UseFst=F UseS4=T ISplat=2.
 PrismC was handed    33457089 working-precision words and  3627 shell-pairs
 Enter PrismC:  IPart= 19 JobTyp=22 DoJE=F Cont=F.
 PrismC:  IPart=    19 DynPar=T LinDyn=F Incr=        1024 UseFst=F UseS4=T ISplat=2.
 PrismC was handed    33457089 working-precision words and  3627 shell-pairs
 Enter PrismC:  IPart= 17 JobTyp=22 DoJE=F Cont=F.
 PrismC:  IPart=    17 DynPar=T LinDyn=F Incr=        1024 UseFst=F UseS4=T ISplat=2.
 PrismC was handed    33457089 working-precision words and  3627 shell-pairs
 Enter PrismC:  IPart=  3 JobTyp=22 DoJE=F Cont=F.
 PrismC:  IPart=     3 DynPar=T LinDyn=F Incr=        1024 UseFst=F UseS4=T ISplat=2.
 PrismC was handed    33457089 working-precision words and  3627 shell-pairs
 Enter PrismC:  IPart=  8 JobTyp=22 DoJE=F Cont=F.
 PrismC:  IPart=     8 DynPar=T LinDyn=F Incr=        1024 UseFst=F UseS4=T ISplat=2.
 PrismC was handed    33457089 working-precision words and  3627 shell-pairs
 Enter PrismC:  IPart= 14 JobTyp=22 DoJE=F Cont=F.
 PrismC:  IPart=    14 DynPar=T LinDyn=F Incr=        1024 UseFst=F UseS4=T ISplat=2.
 PrismC was handed    33457089 working-precision words and  3627 shell-pairs
 Enter PrismC:  IPart= 13 JobTyp=22 DoJE=F Cont=F.
 PrismC:  IPart=    13 DynPar=T LinDyn=F Incr=        1024 UseFst=F UseS4=T ISplat=2.
 PrismC was handed    33457089 working-precision words and  3627 shell-pairs
 Enter PrismC:  IPart= 18 JobTyp=22 DoJE=F Cont=F.
 PrismC:  IPart=    18 DynPar=T LinDyn=F Incr=        1024 UseFst=F UseS4=T ISplat=2.
 PrismC was handed    33457089 working-precision words and  3627 shell-pairs
 Enter PrismC:  IPart= 10 JobTyp=22 DoJE=F Cont=F.
 PrismC:  IPart=    10 DynPar=T LinDyn=F Incr=        1024 UseFst=F UseS4=T ISplat=2.
 PrismC was handed    33457089 working-precision words and  3627 shell-pairs
 Enter PrismC:  IPart= 16 JobTyp=22 DoJE=F Cont=F.
 PrismC:  IPart=    16 DynPar=T LinDyn=F Incr=        1024 UseFst=F UseS4=T ISplat=2.
 PrismC was handed    33457089 working-precision words and  3627 shell-pairs
 Enter PrismC:  IPart= 11 JobTyp=22 DoJE=F Cont=F.
 PrismC:  IPart=    11 DynPar=T LinDyn=F Incr=        1024 UseFst=F UseS4=T ISplat=2.
 PrismC was handed    33457089 working-precision words and  3627 shell-pairs
 Enter PrismC:  IPart=  2 JobTyp=22 DoJE=F Cont=F.
 PrismC:  IPart=     2 DynPar=T LinDyn=F Incr=        1024 UseFst=F UseS4=T ISplat=2.
 PrismC was handed    33457089 working-precision words and  3627 shell-pairs
 Enter PrismC:  IPart= 15 JobTyp=22 DoJE=F Cont=F.
 PrismC:  IPart=    15 DynPar=T LinDyn=F Incr=        1024 UseFst=F UseS4=T ISplat=2.
 PrismC was handed    33457089 working-precision words and  3627 shell-pairs
 Enter PrismC:  IPart=  6 JobTyp=22 DoJE=F Cont=F.
 PrismC:  IPart=     6 DynPar=T LinDyn=F Incr=        1024 UseFst=F UseS4=T ISplat=2.
 PrismC was handed    33457089 working-precision words and  3627 shell-pairs
 Enter PrismC:  IPart=  5 JobTyp=22 DoJE=F Cont=F.
 PrismC:  IPart=     5 DynPar=T LinDyn=F Incr=        1024 UseFst=F UseS4=T ISplat=2.
 PrismC was handed    33457089 working-precision words and  3627 shell-pairs
 IPart=  6 NShTot=      211778 NShNF=      211778 NShFF=           0 MinMC=       7
           NShCPU=      211778 NBCPU=        8096 AvBCPU=        26.2
           NShGPU=           0 NBGPU=           0 AvBGPU=         0.0
 IPart=  8 NShTot=      241485 NShNF=      241485 NShFF=           0 MinMC=       7
           NShCPU=      241485 NBCPU=        9954 AvBCPU=        24.3
           NShGPU=           0 NBGPU=           0 AvBGPU=         0.0
 IPart=  3 NShTot=      208916 NShNF=      208916 NShFF=           0 MinMC=       7
           NShCPU=      208916 NBCPU=        9268 AvBCPU=        22.5
           NShGPU=           0 NBGPU=           0 AvBGPU=         0.0
 IPart= 10 NShTot=      225450 NShNF=      225450 NShFF=           0 MinMC=       7
           NShCPU=      225450 NBCPU=        9802 AvBCPU=        23.0
           NShGPU=           0 NBGPU=           0 AvBGPU=         0.0
 IPart=  4 NShTot=      205984 NShNF=      205984 NShFF=           0 MinMC=       7
           NShCPU=      205984 NBCPU=        8796 AvBCPU=        23.4
           NShGPU=           0 NBGPU=           0 AvBGPU=         0.0
 IPart=  7 NShTot=      215112 NShNF=      215112 NShFF=           0 MinMC=       7
           NShCPU=      215112 NBCPU=        8453 AvBCPU=        25.4
           NShGPU=           0 NBGPU=           0 AvBGPU=         0.0
 IPart= 19 NShTot=      209629 NShNF=      209629 NShFF=           0 MinMC=       7
           NShCPU=      209629 NBCPU=        9226 AvBCPU=        22.7
           NShGPU=           0 NBGPU=           0 AvBGPU=         0.0
 IPart= 18 NShTot=      238439 NShNF=      238439 NShFF=           0 MinMC=       7
           NShCPU=      238439 NBCPU=        9947 AvBCPU=        24.0
           NShGPU=           0 NBGPU=           0 AvBGPU=         0.0
 IPart= 15 NShTot=      221494 NShNF=      221494 NShFF=           0 MinMC=       7
           NShCPU=      221494 NBCPU=        8899 AvBCPU=        24.9
           NShGPU=           0 NBGPU=           0 AvBGPU=         0.0
 IPart=  9 NShTot=      218319 NShNF=      218319 NShFF=           0 MinMC=       7
           NShCPU=      218319 NBCPU=        8933 AvBCPU=        24.4
           NShGPU=           0 NBGPU=           0 AvBGPU=         0.0
 IPart= 16 NShTot=      226284 NShNF=      226284 NShFF=           0 MinMC=       7
           NShCPU=      226284 NBCPU=        9939 AvBCPU=        22.8
           NShGPU=           0 NBGPU=           0 AvBGPU=         0.0
 IPart= 11 NShTot=      241673 NShNF=      241673 NShFF=           0 MinMC=       7
           NShCPU=      241673 NBCPU=        9826 AvBCPU=        24.6
           NShGPU=           0 NBGPU=           0 AvBGPU=         0.0
 IPart= 14 NShTot=      216208 NShNF=      216208 NShFF=           0 MinMC=       7
           NShCPU=      216208 NBCPU=        9094 AvBCPU=        23.8
           NShGPU=           0 NBGPU=           0 AvBGPU=         0.0
 IPart=  2 NShTot=      236979 NShNF=      236979 NShFF=           0 MinMC=       7
           NShCPU=      236979 NBCPU=        9855 AvBCPU=        24.0
           NShGPU=           0 NBGPU=           0 AvBGPU=         0.0
 IPart= 12 NShTot=      229214 NShNF=      229214 NShFF=           0 MinMC=       7
           NShCPU=      229214 NBCPU=       10034 AvBCPU=        22.8
           NShGPU=           0 NBGPU=           0 AvBGPU=         0.0
 IPart= 17 NShTot=      208740 NShNF=      208740 NShFF=           0 MinMC=       7
           NShCPU=      208740 NBCPU=        8744 AvBCPU=        23.9
           NShGPU=           0 NBGPU=           0 AvBGPU=         0.0
 IPart=  0 NShTot=      228395 NShNF=      228395 NShFF=           0 MinMC=       7
           NShCPU=      228395 NBCPU=        9741 AvBCPU=        23.4
           NShGPU=           0 NBGPU=           0 AvBGPU=         0.0
 IPart=  5 NShTot=      216849 NShNF=      216849 NShFF=           0 MinMC=       7
           NShCPU=      216849 NBCPU=        8994 AvBCPU=        24.1
           NShGPU=           0 NBGPU=           0 AvBGPU=         0.0
 IPart=  1 NShTot=      226050 NShNF=      226050 NShFF=           0 MinMC=       7
           NShCPU=      226050 NBCPU=        9732 AvBCPU=        23.2
           NShGPU=           0 NBGPU=           0 AvBGPU=         0.0
 IPart= 13 NShTot=      227867 NShNF=      227867 NShFF=           0 MinMC=       7
           NShCPU=      227867 NBCPU=        9593 AvBCPU=        23.8
           NShGPU=           0 NBGPU=           0 AvBGPU=         0.0
 CoulSu:  NxtVal=        7016449 LenVP=       33457090 MinMC=       7.
 ReadGW:  IGet=0 IStart=           1 Next=           1 LGW=           0.
 Remaining memory in FofDFT      639.93 Mw
 CkSvGd:  ISavGI=        -1 IRadAn=       5 IRASav=       5 ISavGd=        -1.
 CalDSu-InSpLW:  IPartL=    0 NPrtUS=   20 NPrtUL=    1 DoSpLW=F IThBeg=    0 IThEnd=   19 NThAct=   20.
 CalDSu:  NPrtUS=  20 ThrOK=T IAlg=1 NPAlg=2 DoDPD=T LenP=       35245 LenD1P=             0 GPUOK=F
          ISkipM=0 DoSpLW=F IThBeg=    0 IThEnd=   19.
 IPart=  0 IRanGd=          0 ScrnBf=T ScrnGd=T RCrit=4.00D+00 DoMicB=T.
 IPart= 14        11573 of        13464 points in      15 batches and       78 microbatches, Max-NSigAt=      11 Max-NSgAt2=      11
 IPart= 13        11380 of        12108 points in      12 batches and       58 microbatches, Max-NSigAt=      11 Max-NSgAt2=      11
 IPart=  0        11228 of        11906 points in      12 batches and       52 microbatches, Max-NSigAt=      11 Max-NSgAt2=      11
 IPart= 19        12007 of        14002 points in      16 batches and       90 microbatches, Max-NSigAt=      11 Max-NSgAt2=      11
 IPart=  3        12585 of        14154 points in      14 batches and       56 microbatches, Max-NSigAt=      11 Max-NSgAt2=      11
 IPart= 12        11077 of        11638 points in      11 batches and       56 microbatches, Max-NSigAt=      11 Max-NSgAt2=      11
 IPart= 11        11927 of        12962 points in      14 batches and       52 microbatches, Max-NSigAt=      11 Max-NSgAt2=      11
 IPart=  8        12061 of        13196 points in      13 batches and       69 microbatches, Max-NSigAt=      11 Max-NSgAt2=      11
 IPart= 18        13234 of        15114 points in      17 batches and       93 microbatches, Max-NSigAt=      11 Max-NSgAt2=      11
 IPart=  2        10773 of        11314 points in      11 batches and       67 microbatches, Max-NSigAt=      11 Max-NSgAt2=      11
 IPart= 15        10466 of        11442 points in      12 batches and       61 microbatches, Max-NSigAt=      11 Max-NSgAt2=      11
 IPart= 10        10037 of        10732 points in      11 batches and       68 microbatches, Max-NSigAt=      11 Max-NSgAt2=      11
 IPart=  5        12062 of        13268 points in      14 batches and       68 microbatches, Max-NSigAt=      11 Max-NSgAt2=      11
 IPart= 17         9714 of        10472 points in      11 batches and       77 microbatches, Max-NSigAt=      11 Max-NSgAt2=      11
 IPart=  9         9500 of        10402 points in      11 batches and       68 microbatches, Max-NSigAt=      11 Max-NSgAt2=      11
 IPart=  6        11093 of        12610 points in      14 batches and       78 microbatches, Max-NSigAt=      11 Max-NSgAt2=      11
 IPart=  4        10723 of        11908 points in      12 batches and       62 microbatches, Max-NSigAt=      11 Max-NSgAt2=      11
 IPart= 16        11130 of        11834 points in      11 batches and       66 microbatches, Max-NSigAt=      11 Max-NSgAt2=      11
 IPart=  7        11536 of        12610 points in      13 batches and       75 microbatches, Max-NSigAt=      11 Max-NSgAt2=      11
 IPart=  1        10799 of        11264 points in      11 batches and       58 microbatches, Max-NSigAt=      11 Max-NSgAt2=      11
 Polarizability after L703:
                1             2             3 
      1  0.000000D+00
      2  0.000000D+00  0.000000D+00
      3  0.000000D+00  0.000000D+00  0.000000D+00
 Dipole Derivatives after L703:
                 1             2             3             4             5 
      1  -0.730577D-01  0.103485D+00  0.482635D-02 -0.414954D+00  0.137110D+01
      2   0.194642D+00 -0.145620D+00 -0.134681D-02  0.293783D+00 -0.667269D+00
      3  -0.746959D-03 -0.195419D-02 -0.256711D+00  0.982192D-01 -0.143319D+00
                 6             7             8             9            10 
      1   0.409048D+00 -0.113040D+01  0.565835D+00 -0.263051D-01 -0.511814D+00
      2  -0.953402D-01  0.117079D+00 -0.789026D+00  0.806920D-02  0.189712D-03
      3  -0.440529D+00  0.692198D-02 -0.279528D-02 -0.779572D+00 -0.333806D-01
                11            12            13            14            15 
      1  -0.672712D-01 -0.708597D-01 -0.313072D+00 -0.274781D+00  0.284860D-01
      2  -0.742503D+00  0.223560D-01 -0.852464D-01 -0.655680D+00 -0.377759D-01
      3  -0.181162D-02  0.244920D-01 -0.239156D-01  0.556453D-01  0.369012D-01
                16            17            18            19            20 
      1   0.736002D+00 -0.164980D+00 -0.735151D+00  0.634814D+00 -0.172526D+00
      2  -0.177084D+00  0.171556D+00  0.156663D+00 -0.163150D+00  0.176027D+00
      3  -0.237594D+00  0.110627D-01  0.399609D+00  0.227967D+00 -0.194530D-01
                21            22            23            24            25 
      1   0.754047D+00 -0.305549D-01 -0.248467D+00  0.314339D-02  0.216333D+00
      2  -0.174734D+00  0.375567D+00  0.460125D+00  0.630875D-02 -0.202162D+00
      3   0.446397D+00  0.936430D-02  0.153235D-01  0.769573D-01  0.308561D-02
                26            27            28            29            30 
      1  -0.185651D+00  0.179068D-02  0.924668D-01  0.214978D+00  0.184590D-01
      2   0.904789D+00 -0.107069D-01 -0.248561D+00  0.727904D+00  0.246986D-01
      3  -0.143109D-01  0.829747D-01 -0.466791D-02 -0.259683D-01  0.898846D-01
                31            32            33 
      1   0.794236D+00 -0.114172D+01 -0.387484D+00
      2  -0.105057D+00  0.559697D+00  0.101807D+00
      3  -0.452536D-01  0.127581D+00  0.319596D+00
 Hessian after L703:
                1             2             3             4             5 
      1  0.462136D+00
      2 -0.756958D-01  0.357212D+00
      3  0.479359D-02 -0.479476D-02  0.617877D-01
      4 -0.226175D-01  0.618058D-03 -0.109597D-02  0.460918D+00
      5 -0.126916D-02 -0.366483D-02 -0.290665D-03 -0.660757D-01  0.390588D+00
      6 -0.286036D-02  0.768413D-03  0.112655D-01 -0.231118D-01  0.103118D+00
      7 -0.108037D+00  0.195982D-01 -0.107039D-02  0.413425D-02  0.189828D-02
      8  0.575534D-01 -0.198798D+00  0.253693D-02 -0.745914D-02 -0.248360D-02
      9 -0.176116D-02  0.183078D-02 -0.584766D-01  0.485090D-03 -0.163988D-03
     10 -0.268680D+00  0.923658D-02 -0.294878D-02 -0.292624D-01 -0.356574D-01
     11 -0.271141D-01 -0.104634D+00 -0.410050D-03  0.125368D-02  0.109687D-01
     12 -0.319497D-02  0.167333D-02 -0.319486D-01 -0.251908D-03  0.684679D-04
     13 -0.281081D-01 -0.302570D-01  0.270315D-02 -0.312656D+00  0.207649D-01
     14 -0.630141D-02  0.155446D-01  0.817677D-03 -0.226122D-01 -0.998269D-01
     15  0.210515D-02 -0.774862D-03  0.456496D-02 -0.881348D-02 -0.955715D-02
     16 -0.120108D-01  0.965342D-02  0.816656D-02 -0.814462D-03  0.257098D-03
     17  0.303052D-01 -0.138923D-01 -0.211508D-01  0.959420D-03  0.422150D-03
     18 -0.238857D-03 -0.456223D-02  0.856596D-02  0.409171D-03 -0.187179D-04
     19 -0.110046D-01  0.100446D-01 -0.998924D-02 -0.872611D-03  0.148657D-03
     20  0.281012D-01 -0.153272D-01  0.236109D-01  0.910324D-03  0.396983D-03
     21 -0.121814D-02  0.572893D-02  0.837865D-02 -0.589284D-03  0.178922D-04
     22  0.115777D-01  0.170070D-01  0.861370D-03 -0.227486D-03  0.463676D-03
     23 -0.932381D-02 -0.371071D-01 -0.102072D-02  0.472940D-03  0.960788D-03
     24  0.701677D-03  0.469145D-03 -0.868845D-03  0.805806D-04  0.117205D-03
     25 -0.231754D-01  0.363590D-01 -0.569774D-03  0.347598D-02 -0.186957D-03
     26  0.445283D-02  0.867571D-03  0.878112D-05  0.411917D-03  0.245000D-02
     27 -0.225198D-03  0.211650D-03  0.170707D-02 -0.100558D-02  0.875199D-03
     28 -0.158532D-02  0.407945D-02 -0.866251D-04 -0.217927D-01  0.337813D-01
     29  0.163378D-02  0.390873D-03  0.163656D-03  0.310706D-02  0.353190D-02
     30  0.659590D-03 -0.227965D-03 -0.421906D-02  0.120673D-02 -0.450538D-03
     31  0.150476D-02 -0.643435D-03 -0.763887D-03 -0.802842D-01  0.458752D-01
     32 -0.234215D-02 -0.590983D-03  0.529057D-03  0.884136D-01 -0.303343D+00
     33  0.123869D-02 -0.322426D-03 -0.756716D-03  0.326864D-01 -0.937156D-01
                6             7             8             9            10 
      6  0.831969D-01
      7  0.483005D-03  0.565364D+00
      8 -0.889150D-03  0.642681D-01  0.490375D+00
      9  0.619826D-03  0.297658D-02  0.376383D-02  0.491366D+00
     10  0.338788D-02 -0.237762D-01  0.255836D-01  0.484401D-03  0.651099D+00
     11 -0.782911D-03  0.438200D-01 -0.805122D-02  0.473803D-03  0.149165D+00
     12  0.300330D-02 -0.345286D-03 -0.243457D-03 -0.638202D-02  0.249255D-02
     13  0.419632D-02 -0.465542D-02  0.329557D-03  0.338899D-04 -0.278588D+00
     14 -0.116766D-01 -0.530287D-02  0.245363D-02 -0.409427D-04 -0.212497D+00
     15 -0.371105D-01 -0.223640D-03  0.454309D-03  0.114080D-02 -0.468772D-04
     16  0.152948D-03 -0.127046D+00  0.217561D-02  0.911461D-01  0.146117D-02
     17  0.490188D-03 -0.150609D-02 -0.528749D-01 -0.338379D-02 -0.402559D-02
     18  0.560490D-04  0.955376D-01 -0.717116D-02 -0.180561D+00 -0.237228D-02
[...]
     Eigenvalues ---    0.13659   0.16237   0.17950   0.18678   0.20377
     Eigenvalues ---    0.22501   0.31079   0.33039   0.33499   0.35244
     Eigenvalues ---    0.36308   0.37434   0.40546   0.44209   0.51139
     Eigenvalues ---    0.54165   0.65553
 Angle between quadratic step and forces=  59.02 degrees.
 Linear search not attempted -- first point.
 Iteration  1 RMS(Cart)=  0.00001226 RMS(Int)=  0.00000000
 Iteration  2 RMS(Cart)=  0.00000000 RMS(Int)=  0.00000000
 ITry= 1 IFail=0 DXMaxC= 3.92D-05 DCOld= 1.00D+10 DXMaxT= 3.00D-01 DXLimC= 3.00D+00 Rises=F
 Variable       Old X    -DE/DX   Delta X   Delta X   Delta X     New X
                                 (Linear)    (Quad)   (Total)
    R1        2.65861   0.00000   0.00000  -0.00000  -0.00000   2.65861
    R2        2.56838   0.00000   0.00000   0.00000   0.00000   2.56838
    R3        2.58763  -0.00000   0.00000  -0.00001  -0.00001   2.58763
    R4        1.81657  -0.00000   0.00000  -0.00000  -0.00000   1.81657
    R5        2.05178  -0.00000   0.00000  -0.00000  -0.00000   2.05178
    R6        2.06763  -0.00000   0.00000   0.00000   0.00000   2.06763
    R7        2.06764  -0.00000   0.00000  -0.00000  -0.00000   2.06763
    R8        2.51125  -0.00000   0.00000  -0.00000  -0.00000   2.51125
    R9        2.04733   0.00000   0.00000   0.00000   0.00000   2.04733
   R10        2.03836   0.00000   0.00000   0.00000   0.00000   2.03836
    A1        2.01871   0.00000   0.00000   0.00001   0.00001   2.01872
    A2        1.91222  -0.00000   0.00000  -0.00000  -0.00000   1.91222
    A3        1.86506  -0.00000   0.00000  -0.00000  -0.00000   1.86506
    A4        1.93529   0.00000   0.00000   0.00000   0.00000   1.93529
    A5        1.93529   0.00000   0.00000   0.00000   0.00000   1.93529
    A6        1.91341  -0.00000   0.00000  -0.00000  -0.00000   1.91341
    A7        1.91340   0.00000   0.00000   0.00001   0.00001   1.91341
    A8        1.90114  -0.00000   0.00000  -0.00001  -0.00001   1.90113
    A9        2.21964  -0.00000   0.00000  -0.00000  -0.00000   2.21963
   A10        1.94477   0.00000   0.00000   0.00000   0.00000   1.94478
   A11        2.11878  -0.00000   0.00000  -0.00000  -0.00000   2.11878
   A12        2.17287   0.00000   0.00000   0.00001   0.00001   2.17288
   A13        1.94815  -0.00000   0.00000  -0.00001  -0.00001   1.94814
   A14        2.16216  -0.00000   0.00000  -0.00000  -0.00000   2.16216
    D1        3.14158   0.00000   0.00000   0.00001   0.00001   3.14159
    D2       -1.05717   0.00000   0.00000   0.00001   0.00001  -1.05716
    D3        1.05716  -0.00000   0.00000  -0.00000  -0.00000   1.05716
    D4       -0.00001   0.00000   0.00000   0.00001   0.00001   0.00000
    D5        3.14158   0.00000   0.00000   0.00001   0.00001  -3.14159
    D6        0.00002  -0.00000   0.00000  -0.00002  -0.00002  -0.00000
    D7       -3.14158  -0.00000   0.00000  -0.00001  -0.00001   3.14159
    D8       -3.14158  -0.00000   0.00000  -0.00001  -0.00001   3.14159
    D9        0.00002  -0.00000   0.00000  -0.00002  -0.00002  -0.00000
   D10        0.00001  -0.00000   0.00000  -0.00001  -0.00001  -0.00000
   D11       -3.14157  -0.00000   0.00000  -0.00002  -0.00002   3.14159
         Item               Value     Threshold  Converged?
 Maximum Force            0.000003     0.000015     YES
 RMS     Force            0.000001     0.000010     YES
 Maximum Displacement     0.000039     0.000060     YES
 RMS     Displacement     0.000012     0.000040     YES
 Predicted change in Energy=-5.948884D-11
 Optimization completed.
    -- Stationary point found.
                           ----------------------------
                           !   Optimized Parameters   !
                           ! (Angstroms and Degrees)  !
 --------------------------                            --------------------------
 ! Name  Definition              Value          Derivative Info.                !
 --------------------------------------------------------------------------------
 ! R1    R(1,3)                  1.4069         -DE/DX =    0.0                 !
 ! R2    R(1,4)                  1.3591         -DE/DX =    0.0                 !
 ! R3    R(2,5)                  1.3693         -DE/DX =    0.0                 !
 ! R4    R(2,11)                 0.9613         -DE/DX =    0.0                 !
 ! R5    R(3,6)                  1.0858         -DE/DX =    0.0                 !
 ! R6    R(3,7)                  1.0941         -DE/DX =    0.0                 !
 ! R7    R(3,8)                  1.0941         -DE/DX =    0.0                 !
 ! R8    R(4,5)                  1.3289         -DE/DX =    0.0                 !
 ! R9    R(4,9)                  1.0834         -DE/DX =    0.0                 !
 ! R10   R(5,10)                 1.0787         -DE/DX =    0.0                 !
 ! A1    A(3,1,4)              115.6636         -DE/DX =    0.0                 !
 ! A2    A(5,2,11)             109.5623         -DE/DX =    0.0                 !
 ! A3    A(1,3,6)              106.86           -DE/DX =    0.0                 !
 ! A4    A(1,3,7)              110.884          -DE/DX =    0.0                 !
 ! A5    A(1,3,8)              110.8839         -DE/DX =    0.0                 !
 ! A6    A(6,3,7)              109.6302         -DE/DX =    0.0                 !
 ! A7    A(6,3,8)              109.6296         -DE/DX =    0.0                 !
 ! A8    A(7,3,8)              108.9272         -DE/DX =    0.0                 !
 ! A9    A(1,4,5)              127.1758         -DE/DX =    0.0                 !
 ! A10   A(1,4,9)              111.4272         -DE/DX =    0.0                 !
 ! A11   A(5,4,9)              121.397          -DE/DX =    0.0                 !
 ! A12   A(2,5,4)              124.4965         -DE/DX =    0.0                 !
 ! A13   A(2,5,10)             111.6206         -DE/DX =    0.0                 !
 ! A14   A(4,5,10)             123.8829         -DE/DX =    0.0                 !
 ! D1    D(4,1,3,6)            179.9994         -DE/DX =    0.0                 !
 ! D2    D(4,1,3,7)            -60.5712         -DE/DX =    0.0                 !
 ! D3    D(4,1,3,8)             60.5707         -DE/DX =    0.0                 !
 ! D4    D(3,1,4,5)             -0.0003         -DE/DX =    0.0                 !
 ! D5    D(3,1,4,9)           -180.0006         -DE/DX =    0.0                 !
 ! D6    D(11,2,5,4)             0.001          -DE/DX =    0.0                 !
 ! D7    D(11,2,5,10)          180.0006         -DE/DX =    0.0                 !
 ! D8    D(1,4,5,2)            180.0005         -DE/DX =    0.0                 !
 ! D9    D(1,4,5,10)             0.0009         -DE/DX =    0.0                 !
 ! D10   D(9,4,5,2)              0.0008         -DE/DX =    0.0                 !
 ! D11   D(9,4,5,10)           180.0012         -DE/DX =    0.0                 !
 --------------------------------------------------------------------------------
 GradGradGradGradGradGradGradGradGradGradGradGradGradGradGradGradGradGrad

 Leave Link  103 at Sun Sep 29 04:47:56 2019, MaxMem=   671088640 cpu:             123.0 elap:              62.1
 (Enter /shared/centos7/gaussian/g16/l9999.exe)

 ----------------------------------------------------------------------

 Electric dipole moment (input orientation):
 (Debye = 10**-18 statcoulomb cm , SI units = C m)
                  (au)            (Debye)         (10**-30 SI)
   Tot        0.167496D+00      0.425733D+00      0.142009D+01
   x         -0.466495D-02     -0.118571D-01     -0.395511D-01
   y         -0.167412D+00     -0.425518D+00     -0.141938D+01
   z          0.255839D-02      0.650277D-02      0.216909D-01

 Dipole polarizability, Alpha (input orientation).
 (esu units = cm**3 , SI units = C**2 m**2 J**-1)
 Alpha(0;0):
               (au)            (10**-24 esu)      (10**-40 SI)
   iso        0.437928D+02      0.648943D+01      0.722046D+01
   aniso      0.213475D+02      0.316337D+01      0.351973D+01
   xx         0.445639D+02      0.660368D+01      0.734759D+01
   yx         0.255660D+01      0.378849D+00      0.421526D+00
   yy         0.554189D+02      0.821224D+01      0.913735D+01
   zx         0.761020D+00      0.112772D+00      0.125475D+00
   zy        -0.253826D+00     -0.376131D-01     -0.418502D-01
   zz         0.313957D+02      0.465236D+01      0.517645D+01

 ----------------------------------------------------------------------

 Dipole orientation:
     8          0.54778367          1.54258827          1.43572746
     8          0.61693196          1.54469914         -5.49442405
     6         -2.07402658          1.45508285          1.86776723
     6          1.26872628          1.56659388         -1.02927771
     6         -0.22464895          1.51668501         -3.04762872
     1         -2.34196023          1.44616600          3.90196011
     1         -3.01118016          3.10725056          1.05094978
     1         -2.89891793         -0.25593611          1.05101222
     1          3.30676395          1.63463906         -1.21184062
     1         -2.25973123          1.44877123         -2.95409248
     1          2.43240371          1.60526708         -5.51255157

 Electric dipole moment (dipole orientation):
 (Debye = 10**-18 statcoulomb cm , SI units = C m)
                  (au)            (Debye)         (10**-30 SI)
   Tot        0.167496D+00      0.425733D+00      0.142009D+01
   x          0.000000D+00      0.000000D+00      0.000000D+00
   y          0.000000D+00      0.000000D+00      0.000000D+00
   z          0.167496D+00      0.425733D+00      0.142009D+01

 Dipole polarizability, Alpha (dipole orientation).
 (esu units = cm**3 , SI units = C**2 m**2 J**-1)
 Alpha(0;0):
               (au)            (10**-24 esu)      (10**-40 SI)
   iso        0.437928D+02      0.648943D+01      0.722046D+01
   aniso      0.213475D+02      0.316337D+01      0.351973D+01
   xx         0.444645D+02      0.658896D+01      0.733120D+01
   yx         0.437874D+00      0.648862D-01      0.721956D-01
   yy         0.313596D+02      0.464702D+01      0.517051D+01
   zx        -0.224133D+01     -0.332131D+00     -0.369546D+00
   zy        -0.741184D-01     -0.109832D-01     -0.122205D-01
   zz         0.555544D+02      0.823231D+01      0.915968D+01

 ----------------------------------------------------------------------

 Test job not archived.
 1\1\GINC-C0218\Freq\RM062X\CC-pVTZ\C3H6O2\HARMS.N\29-Sep-2019\0\\#P Ge
 om=AllCheck Guess=TCheck SCRF=Check Test GenChk RM062X/CC-pVTZ Freq\\G
 aussian input prepared by ASE\\0,1\O,0.2461116579,-0.7542266048,0.8355
 686519\O,0.3847823374,2.910215698,0.781689178\C,-1.1453284265,-0.94543
 94219,0.7541376219\C,0.6633078799,0.539283233,0.8389666664\C,-0.095877
 6119,1.6280535602,0.7742458451\H,-1.3168553343,-2.0175329479,0.7619145
 48\H,-1.6528029313,-0.4857970041,1.6075718619\H,-1.5446458485,-0.51600
 25543,-0.1695967572\H,1.7426703653,0.6068500484,0.9035177296\H,-1.1723
 671789,1.6075320905,0.709088258\H,1.3441430049,2.8939767286,0.84033434
 08\\Version=EM64L-G16RevA.03\State=1-A\HF=-268.3193098\RMSD=1.795e-09\
 RMSF=1.082e-06\ZeroPoint=0.0911027\Thermal=0.0968972\Dipole=-0.0046649
 ,-0.1674118,0.0025584\DipoleDeriv=-0.8296802,-0.5671035,-0.0247073,-0.
 1887279,-1.3002151,0.0061127,-0.0311405,-0.0169188,-0.2668976,-0.31582
 63,-0.5305204,0.0115808,-0.159664,-1.3175414,0.0066073,0.0052738,-0.01
 59648,-0.357295,0.7059345,0.3689337,0.0154873,0.0407961,0.3006437,0.00
 32936,0.021067,0.0232672,0.3492702,0.2512996,0.405729,0.0173392,0.1406
 021,0.987876,-0.0107377,0.021851,0.005396,-0.1456855,0.1250699,0.49072
 73,0.0086864,0.0700117,1.0105479,-0.0155629,0.0158398,0.0100446,-0.154
 0237,0.0446483,-0.0270764,-0.0018935,-0.0634319,-0.1099329,-0.0005753,
 -0.001276,0.0016357,0.0832299,-0.0353653,-0.0486353,0.0213889,0.075111
 7,0.0296778,-0.090261,0.0763138,-0.0419793,-0.0826428,-0.0242813,-0.05
 36987,-0.0122482,0.0613503,0.0340713,0.0944017,-0.0712333,0.0315874,-0
 .098122,-0.0767375,-0.071576,-0.0140639,-0.0663719,0.0127856,-0.001292
 1,-0.0141539,-0.0016077,0.1734962,-0.0241391,-0.0522234,-0.0112918,-0.
 0146602,0.0592654,0.0010938,-0.0119309,-0.0011923,0.1753034,0.1790775,
 0.0854438,-0.010278,0.1049839,0.2928218,0.0069197,-0.0106107,0.0057319
 ,0.3233668\Polar=44.5638726,2.5565999,55.4189441,0.7610201,-0.2538256,
 31.3956647\Quadrupole=4.2011324,-2.5319577,-1.6691747,3.9179511,0.2914
 23,0.2528563\PG=C01 [X(C3H6O2)]\NImag=0\\0.46316737,0.11420410,0.46275
 108,0.02165422,0.00036543,0.07677244,-0.00554192,-0.00628749,-0.001043
 35,0.64998433,-0.00770610,-0.02336350,0.00015538,0.07229819,0.40753201
 ,-0.00101933,0.00024174,0.01329209,0.03676338,-0.00209698,0.02780518,-
 0.25173388,-0.03192690,-0.01087484,0.00144738,0.01123340,-0.00009994,0
 .48919709,0.00758241,-0.08943801,0.00089173,-0.00034432,0.00085953,-0.
 00003643,-0.00172025,0.63765199,-0.01154651,-0.00151269,-0.06480281,0.
 00009696,0.00066830,-0.00005462,-0.00481411,-0.00127290,0.56847808,-0.
 12092516,-0.03739497,-0.00451692,0.01689216,-0.01780796,0.00121287,-0.
 03112208,-0.04822155,-0.00097706,0.77096698,-0.08308001,-0.31215294,-0
 .00036548,0.02065165,-0.03748911,0.00192758,-0.01830550,-0.01885369,-0
 .00082080,-0.12021975,0.79367424,-0.00374042,0.00241499,-0.03652877,0.
 00055853,-0.00041312,0.00198371,-0.00148563,-0.00264140,-0.00164339,0.
 04207876,-0.01888772,0.11609689,0.01851548,-0.00552293,0.00108562,-0.1
 3089202,-0.04481974,-0.00521083,0.00670565,-0.00368576,0.00048785,-0.2
 9254965,0.19049734,-0.01798711,0.78265087,0.01921251,-0.03286148,0.001
 76611,-0.09502366,-0.30087139,-0.00122177,-0.00205563,-0.00289501,-0.0
 0008074,0.20593964,-0.39129249,0.01833371,-0.12645914,0.78430759,0.000
 66516,0.00026050,0.00225524,-0.00435707,0.00183264,-0.03302568,0.00046
 004,-0.00017986,-0.00024894,-0.01824946,0.01739376,-0.05164243,0.04298
 938,-0.01913812,0.11450565,-0.01829574,-0.04463371,-0.00034704,0.00039
 079,-0.00097034,0.00003222,-0.04995540,-0.02355353,0.00051151,-0.00560
 047,0.00169505,-0.00041894,-0.00111047,0.00120436,-0.00010945,0.067897
 47,-0.00517404,-0.00270336,-0.00027106,-0.00039855,-0.00037995,-0.0000
 1554,-0.03800565,-0.32489628,0.00232748,0.00006445,0.00246599,-0.00002
 428,0.00053959,0.00029525,0.00003379,0.04436742,0.34615816,-0.00101773
 ,-0.00267262,-0.00014483,0.00002250,-0.00005034,0.00013469,0.00075713,
 0.00320698,-0.05179215,-0.00039113,0.00007506,0.00078362,-0.00009815,0
 .00007427,0.00034430,0.00049878,-0.00237780,0.04738503,-0.03893323,0.0
 0917549,0.02769424,-0.00030219,-0.00107483,-0.00022737,-0.09242706,0.0
 4298627,0.08127337,0.00266578,0.00745852,0.00042946,0.00144649,-0.0003
 8494,-0.00024935,0.00347168,-0.00061440,-0.00363038,0.11716436,-0.0016
 7658,0.00302922,0.00563825,0.00007761,0.00095246,-0.00041718,0.0466852
 8,-0.10047732,-0.08805238,-0.00128617,0.00395248,0.00106919,0.00182650
 ,-0.00145472,0.00054215,0.01309752,-0.01085740,-0.02547764,-0.05220221
 ,0.10046877,0.00290937,0.00372835,0.00886676,-0.00034638,0.00095011,-0
 .00001940,0.08621298,-0.08622921,-0.21390146,-0.00111819,-0.00030037,0
 .00051441,0.00167890,-0.00133781,-0.00047088,-0.00181137,0.00106163,0.
 00181307,-0.09801222,0.09440897,0.22458144,-0.03453007,0.00851414,-0.0
 3331596,-0.00036897,-0.00094214,0.00021781,-0.07391702,0.02997438,-0.0
 6505208,0.00256414,0.00735956,-0.00043271,0.00159310,-0.00053332,0.000
 51882,0.00281183,-0.00038020,0.00382033,0.00706684,-0.00571348,0.01105
 508,0.09498684,-0.00118091,0.00273205,-0.00567254,0.00003936,0.0009313
 1,0.00039310,0.03325577,-0.09453637,0.08852729,-0.00109717,0.00393527,
 -0.00132894,0.00182322,-0.00142385,-0.00029034,0.00994360,-0.00999093,
 0.02729280,-0.00457539,0.00561869,-0.01270149,-0.03756016,0.09402052,-
 0.00818204,-0.00251223,0.00476054,0.00030055,-0.00110407,0.00006856,-0
 .07011028,0.08627924,-0.23834909,0.00140744,0.00108754,0.00063331,-0.0
 0148715,0.00131164,-0.00064842,0.00159285,-0.00070926,0.00160606,-0.00
 744112,0.01116418,-0.02106471,0.08331621,-0.09504049,0.25320453,-0.011
 76775,-0.00779319,-0.00063007,0.00291365,-0.00043533,0.00054490,0.0036
 3295,-0.00100357,0.00007195,-0.33538749,-0.00726189,-0.01808647,-0.015
 90955,-0.00497184,-0.00133738,-0.00057342,-0.00007401,-0.00005490,-0.0
 0017596,0.00012196,0.00005629,-0.00023061,0.00009050,-0.00007316,0.358
 05544,-0.04091884,-0.00994106,-0.00230848,0.00133264,0.00350715,-0.000
 07921,0.00088876,-0.00473387,0.00018095,-0.00106767,-0.05353754,0.0002
 2958,0.02390942,0.00451828,0.00150506,-0.00152484,-0.00021733,-0.00008
 316,-0.00029139,0.00001236,0.00017117,-0.00025085,0.00001409,-0.000207
 83,0.01703579,0.06514276,-0.00006675,-0.00029234,0.00076278,0.00051475
 ,-0.00018670,-0.00588235,0.00003987,0.00006586,0.00273172,-0.01819228,
 -0.00014747,-0.03732437,-0.00182833,-0.00025289,0.00734590,-0.00003022
 ,0.00000513,0.00034746,-0.00051404,-0.00023618,-0.00012099,0.00051000,
 0.00024545,-0.00006807,0.02014804,0.00030816,0.02350772,-0.00029158,-0
 .00102852,0.00022879,-0.01184849,-0.00619658,-0.00071650,-0.00069293,-
 0.00202915,0.00005067,-0.01250038,-0.00180082,-0.00112818,-0.34938976,
 0.00468177,-0.01915123,0.00079995,-0.00037429,0.00008770,-0.00003113,-
 0.00081667,-0.00048430,-0.00000880,-0.00061303,0.00051837,-0.00016330,
 0.00188409,-0.00055635,0.37229778,-0.00253525,0.00149905,-0.00024378,-
 0.03872407,-0.00674649,-0.00221342,0.00076758,-0.00260613,0.00007464,0
 .02424351,0.00862609,0.00144001,0.00972075,-0.05378650,0.00089421,0.00
 014083,0.00011166,-0.00000244,-0.00056346,-0.00117317,0.00037701,-0.00
 053908,-0.00123871,-0.00040650,0.00224735,-0.00412081,0.00035061,0.007
 75121,0.06496597,0.00025448,-0.00015217,-0.00374639,-0.00016334,-0.000
 23397,0.00165309,0.00000320,-0.00009547,-0.00095774,-0.00157141,-0.000
 14479,0.00644829,-0.01923654,0.00058743,-0.03716445,0.00007893,-0.0000
 3379,-0.00053100,0.00070038,0.00150865,-0.00012029,-0.00067189,-0.0015
 5809,-0.00007717,-0.00056275,0.00032850,0.00841371,0.02115901,-0.00025
 190,0.02371622,0.00033647,0.00269398,0.00006532,-0.52267472,-0.0035785
 6,-0.03149722,-0.00113470,0.00001507,-0.00010255,0.00499617,0.00300585
 ,0.00021271,-0.02106013,-0.00160976,-0.00117945,0.00016376,0.00004967,
 0.00000586,0.00005441,-0.00011377,-0.00014016,0.00003270,-0.00012580,0
 .00015833,-0.00039396,-0.00099710,-0.00002469,0.00182864,-0.00250936,0
 .00000994,0.53785137,0.00127271,0.00044895,0.00004443,0.04637865,-0.04
 493200,0.00351811,-0.00081686,-0.00007483,-0.00003916,-0.00315238,0.00
 067170,-0.00019203,-0.04782925,-0.00453568,-0.00285379,0.00023363,0.00
 001418,0.00001489,0.00008636,-0.00007137,-0.00012836,0.00007115,-0.000
 06208,0.00013776,0.00204422,-0.00064404,0.00014038,-0.00145801,-0.0055
 3094,0.00004560,0.00316978,0.05471613,0.00008955,0.00013103,-0.0014870
 4,-0.03234652,0.00047876,-0.00595526,-0.00008841,0.00001146,0.00054041
 ,0.00031737,0.00018268,0.00067874,-0.00039363,-0.00004185,-0.00125029,
 0.00000273,0.00000369,0.00005374,-0.00002298,-0.00014800,-0.00007795,0
 .00003439,0.00013323,-0.00006554,-0.00007644,-0.00004473,0.00028650,-0
 .00000798,-0.00001846,0.00236573,0.03249192,-0.00068782,0.00491095\\0.
 00000133,0.00000019,-0.00000033,0.00000160,0.00000186,-0.00000019,-0.0
 0000047,0.00000220,0.00000164,-0.00000064,-0.00000015,-0.00000029,-0.0
 0000332,-0.00000202,-0.00000037,-0.00000053,-0.00000085,-0.00000058,0.
 00000031,-0.00000012,0.00000044,0.,-0.00000018,-0.00000139,-0.00000027
 ,-0.00000079,0.00000055,0.00000083,-0.00000037,0.00000050,0.00000117,0
 .00000023,0.00000003\\\@


 ALTHOUGH J.J. COULD DIAGNOSE THE FAULTS OF AN
 APPARATUS WITH UNCANNY ACCURACY, IT WAS JUST AS
 WELL NOT TO LET HIM HANDLE IT.
   -- GEORGE THOMPSON, ABOUT HIS FATHER
 Job cpu time:       0 days  0 hours 59 minutes 53.4 seconds.
 Elapsed time:       0 days  0 hours 29 minutes 58.6 seconds.
 File lengths (MBytes):  RWF=   1312 Int=      0 D2E=      0 Chk=     32 Scr=     32
 Normal termination of Gaussian 16 at Sun Sep 29 04:47:57 2019.
