 Entering Gaussian System, Link 0=g16
 Input=loose/species/COC=CO/conformers/COC=CO_40.com
 Output=loose/species/COC=CO/conformers/COC=CO_40.log
 Initial command:
 /shared/centos7/gaussian/g16/l1.exe "/scratch/harms.n/gauss_scrdir/Gau-22423.inp" -scrdir="/scratch/harms.n/gauss_scrdir/"
 Entering Link 1 = /shared/centos7/gaussian/g16/l1.exe PID=     22424.
  
 Copyright (c) 1988,1990,1992,1993,1995,1998,2003,2009,2016,
            Gaussian, Inc.  All Rights Reserved.
  
 This is part of the Gaussian(R) 16 program.  It is based on
 the Gaussian(R) 09 system (copyright 2009, Gaussian, Inc.),
 the Gaussian(R) 03 system (copyright 2003, Gaussian, Inc.),
 the Gaussian(R) 98 system (copyright 1998, Gaussian, Inc.),
 the Gaussian(R) 94 system (copyright 1995, Gaussian, Inc.),
 the Gaussian 92(TM) system (copyright 1992, Gaussian, Inc.),
 the Gaussian 90(TM) system (copyright 1990, Gaussian, Inc.),
 the Gaussian 88(TM) system (copyright 1988, Gaussian, Inc.),
 the Gaussian 86(TM) system (copyright 1986, Carnegie Mellon
 University), and the Gaussian 82(TM) system (copyright 1983,
 Carnegie Mellon University). Gaussian is a federally registered
 trademark of Gaussian, Inc.
  
 This software contains proprietary and confidential information,
 including trade secrets, belonging to Gaussian, Inc.
  
 This software is provided under written license and may be
 used, copied, transmitted, or stored only in accord with that
 written license.
  
 The following legend is applicable only to US Government
 contracts under FAR:
  
                    RESTRICTED RIGHTS LEGEND
  
 Use, reproduction and disclosure by the US Government is
 subject to restrictions as set forth in subparagraphs (a)
 and (c) of the Commercial Computer Software - Restricted
 Rights clause in FAR 52.227-19.
  
 Gaussian, Inc.
 340 Quinnipiac St., Bldg. 40, Wallingford CT 06492
  
  
 ---------------------------------------------------------------
 Warning -- This program may not be used in any manner that
 competes with the business of Gaussian, Inc. or will provide
 assistance to any competitor of Gaussian, Inc.  The licensee
 of this program is prohibited from giving any competitor of
 Gaussian, Inc. access to this program.  By using this program,
 the user acknowledges that Gaussian, Inc. is engaged in the
 business of creating and licensing software in the field of
 computational chemistry and represents and warrants to the
 licensee that it is not a competitor of Gaussian, Inc. and that
 it will not use this program in any manner prohibited above.
 ---------------------------------------------------------------
  

 Cite this work as:
 Gaussian 16, Revision A.03,
 M. J. Frisch, G. W. Trucks, H. B. Schlegel, G. E. Scuseria, 
 M. A. Robb, J. R. Cheeseman, G. Scalmani, V. Barone, 
 G. A. Petersson, H. Nakatsuji, X. Li, M. Caricato, A. V. Marenich, 
 J. Bloino, B. G. Janesko, R. Gomperts, B. Mennucci, H. P. Hratchian, 
 J. V. Ortiz, A. F. Izmaylov, J. L. Sonnenberg, D. Williams-Young, 
 F. Ding, F. Lipparini, F. Egidi, J. Goings, B. Peng, A. Petrone, 
 T. Henderson, D. Ranasinghe, V. G. Zakrzewski, J. Gao, N. Rega, 
 G. Zheng, W. Liang, M. Hada, M. Ehara, K. Toyota, R. Fukuda, 
 J. Hasegawa, M. Ishida, T. Nakajima, Y. Honda, O. Kitao, H. Nakai, 
 T. Vreven, K. Throssell, J. A. Montgomery, Jr., J. E. Peralta, 
 F. Ogliaro, M. J. Bearpark, J. J. Heyd, E. N. Brothers, K. N. Kudin, 
 V. N. Staroverov, T. A. Keith, R. Kobayashi, J. Normand, 
 K. Raghavachari, A. P. Rendell, J. C. Burant, S. S. Iyengar, 
 J. Tomasi, M. Cossi, J. M. Millam, M. Klene, C. Adamo, R. Cammi, 
 J. W. Ochterski, R. L. Martin, K. Morokuma, O. Farkas, 
 J. B. Foresman, and D. J. Fox, Gaussian, Inc., Wallingford CT, 2016.
 
 ******************************************
 Gaussian 16:  EM64L-G16RevA.03 25-Dec-2016
                24-Sep-2019 
 ******************************************
 %nprocshared=20
 Will use up to   20 processors via shared memory.
 %mem=5GB
 ----------------------------------------------------------------------
 #p m062x/cc-pVTZ opt=(calcfc,maxcycles=900,Tight) freq IOP(7/33=1,2/16
 =3) scf=(maxcycle=900)
 ----------------------------------------------------------------------
 1/6=900,7=10,10=4,18=20,19=15,26=3,38=1/1,3;
 2/9=110,12=2,16=3,17=6,18=5,40=1/2;
 3/5=16,6=1,11=2,25=1,30=1,71=2,74=-55,140=1/1,2,3;
 4//1;
 5/5=2,7=900,38=5/2;
 8/6=4,10=90,11=11/1;
 11/6=1,8=1,9=11,15=111,16=1/1,2,10;
 10/6=1,13=1/2;
 6/7=2,8=2,9=2,10=2,28=1/1;
 7/10=1,18=20,25=1,33=1/1,2,3,16;
 1/6=900,7=10,10=4,18=20,19=15,26=3/3(2);
 2/9=110,16=3/2;
 99//99;
 2/9=110,16=3/2;
 3/5=16,6=1,11=2,25=1,30=1,71=1,74=-55/1,2,3;
 4/5=5,16=3,69=1/1;
 5/5=2,7=900,38=5/2;
 7/33=1/1,2,3,16;
 1/6=900,7=10,18=20,19=15,26=3/3(-5);
 2/9=110,16=3/2;
 6/7=2,8=2,9=2,10=2,19=2,28=1/1;
 99/9=1/99;
 Leave Link    1 at Tue Sep 24 13:08:00 2019, MaxMem=   671088640 cpu:               4.1 elap:               2.1
 (Enter /shared/centos7/gaussian/g16/l101.exe)
 ------------------------------
 Gaussian input prepared by ASE
 ------------------------------
 Symbolic Z-matrix:
 Charge =  0 Multiplicity = 1
 O                     0.2189   -0.73841   1.09441 
 O                     0.74295   2.87792   1.47481 
 C                    -1.1779   -0.89636   0.83484 
 C                     0.68743   0.55388   0.89429 
 C                     0.294     1.58279   1.60669 
 H                    -1.41608  -0.68681  -0.24765 
 H                    -1.45151  -1.96648   1.05992 
 H                    -1.78603  -0.24476   1.4626 
 H                     1.49736   0.59158   0.16833 
 H                    -0.48156   1.52293   2.34003 
 H                     1.64033   2.84723   0.99753 
 
 ITRead=  0  0  0  0  0  0  0  0  0  0  0
 MicOpt= -1 -1 -1 -1 -1 -1 -1 -1 -1 -1 -1
 NAtoms=     11 NQM=       11 NQMF=       0 NMMI=      0 NMMIF=      0
                NMic=       0 NMicF=      0.
                    Isotopes and Nuclear Properties:
 (Nuclear quadrupole moments (NQMom) in fm**2, nuclear magnetic moments (NMagM)
  in nuclear magnetons)

  Atom         1           2           3           4           5           6           7           8           9          10
 IAtWgt=          16          16          12          12          12           1           1           1           1           1
 AtmWgt=  15.9949146  15.9949146  12.0000000  12.0000000  12.0000000   1.0078250   1.0078250   1.0078250   1.0078250   1.0078250
 NucSpn=           0           0           0           0           0           1           1           1           1           1
 AtZEff=  -0.0000000  -0.0000000  -0.0000000  -0.0000000  -0.0000000  -0.0000000  -0.0000000  -0.0000000  -0.0000000  -0.0000000
 NQMom=    0.0000000   0.0000000   0.0000000   0.0000000   0.0000000   0.0000000   0.0000000   0.0000000   0.0000000   0.0000000
 NMagM=    0.0000000   0.0000000   0.0000000   0.0000000   0.0000000   2.7928460   2.7928460   2.7928460   2.7928460   2.7928460
 AtZNuc=   8.0000000   8.0000000   6.0000000   6.0000000   6.0000000   1.0000000   1.0000000   1.0000000   1.0000000   1.0000000

  Atom        11
 IAtWgt=           1
 AtmWgt=   1.0078250
 NucSpn=           1
 AtZEff=  -0.0000000
 NQMom=    0.0000000
 NMagM=    2.7928460
 AtZNuc=   1.0000000
 Leave Link  101 at Tue Sep 24 13:08:01 2019, MaxMem=   671088640 cpu:               2.2 elap:               1.1
 (Enter /shared/centos7/gaussian/g16/l103.exe)

 GradGradGradGradGradGradGradGradGradGradGradGradGradGradGradGradGradGrad
 Berny optimization.
 Initialization pass.
                           ----------------------------
                           !    Initial Parameters    !
                           ! (Angstroms and Degrees)  !
 --------------------------                            --------------------------
 ! Name  Definition              Value          Derivative Info.                !
 --------------------------------------------------------------------------------
 ! R1    R(1,3)                  1.4295         calculate D2E/DX2 analytically  !
 ! R2    R(1,4)                  1.3891         calculate D2E/DX2 analytically  !
 ! R3    R(2,5)                  1.3771         calculate D2E/DX2 analytically  !
 ! R4    R(2,11)                 1.0169         calculate D2E/DX2 analytically  !
 ! R5    R(3,6)                  1.128          calculate D2E/DX2 analytically  !
 ! R6    R(3,7)                  1.1272         calculate D2E/DX2 analytically  !
 ! R7    R(3,8)                  1.0902         calculate D2E/DX2 analytically  !
 ! R8    R(4,5)                  1.3119         calculate D2E/DX2 analytically  !
 ! R9    R(4,9)                  1.0883         calculate D2E/DX2 analytically  !
 ! R10   R(5,10)                 1.0691         calculate D2E/DX2 analytically  !
 ! A1    A(3,1,4)              113.9672         calculate D2E/DX2 analytically  !
 ! A2    A(5,2,11)             107.7148         calculate D2E/DX2 analytically  !
 ! A3    A(1,3,6)              111.1041         calculate D2E/DX2 analytically  !
 ! A4    A(1,3,7)              107.8072         calculate D2E/DX2 analytically  !
 ! A5    A(1,3,8)              111.992          calculate D2E/DX2 analytically  !
 ! A6    A(6,3,7)              108.4643         calculate D2E/DX2 analytically  !
 ! A7    A(6,3,8)              108.8911         calculate D2E/DX2 analytically  !
 ! A8    A(7,3,8)              108.4832         calculate D2E/DX2 analytically  !
 ! A9    A(1,4,5)              123.3856         calculate D2E/DX2 analytically  !
 ! A10   A(1,4,9)              112.2928         calculate D2E/DX2 analytically  !
 ! A11   A(5,4,9)              123.9356         calculate D2E/DX2 analytically  !
 ! A12   A(2,5,4)              126.006          calculate D2E/DX2 analytically  !
 ! A13   A(2,5,10)             110.7863         calculate D2E/DX2 analytically  !
 ! A14   A(4,5,10)             123.1041         calculate D2E/DX2 analytically  !
 ! D1    D(4,1,3,6)             63.0683         calculate D2E/DX2 analytically  !
 ! D2    D(4,1,3,7)           -178.2114         calculate D2E/DX2 analytically  !
 ! D3    D(4,1,3,8)            -58.9475         calculate D2E/DX2 analytically  !
 ! D4    D(3,1,4,5)             64.2647         calculate D2E/DX2 analytically  !
 ! D5    D(3,1,4,9)           -122.6228         calculate D2E/DX2 analytically  !
 ! D6    D(11,2,5,4)           -20.4378         calculate D2E/DX2 analytically  !
 ! D7    D(11,2,5,10)          163.188          calculate D2E/DX2 analytically  !
 ! D8    D(1,4,5,2)            178.4852         calculate D2E/DX2 analytically  !
 ! D9    D(1,4,5,10)            -5.5622         calculate D2E/DX2 analytically  !
 ! D10   D(9,4,5,2)              6.1707         calculate D2E/DX2 analytically  !
 ! D11   D(9,4,5,10)          -177.8766         calculate D2E/DX2 analytically  !
 --------------------------------------------------------------------------------
 Trust Radius=3.00D-01 FncErr=1.00D-07 GrdErr=1.00D-06 EigMax=2.50D+02 EigMin=1.00D-04
 Number of steps in this run=    100 maximum allowed number of steps=    100.
 GradGradGradGradGradGradGradGradGradGradGradGradGradGradGradGradGradGrad

 Leave Link  103 at Tue Sep 24 13:08:02 2019, MaxMem=   671088640 cpu:               1.5 elap:               0.8
 (Enter /shared/centos7/gaussian/g16/l202.exe)
                          Input orientation:                          
 ---------------------------------------------------------------------
 Center     Atomic      Atomic             Coordinates (Angstroms)
 Number     Number       Type             X           Y           Z
 ---------------------------------------------------------------------
      1          8           0        0.218901   -0.738413    1.094412
      2          8           0        0.742952    2.877920    1.474807
      3          6           0       -1.177896   -0.896356    0.834838
      4          6           0        0.687430    0.553878    0.894288
      5          6           0        0.294004    1.582794    1.606692
      6          1           0       -1.416083   -0.686807   -0.247652
      7          1           0       -1.451512   -1.966480    1.059919
      8          1           0       -1.786030   -0.244760    1.462601
      9          1           0        1.497359    0.591577    0.168325
     10          1           0       -0.481564    1.522926    2.340030
     11          1           0        1.640327    2.847234    0.997531
 ---------------------------------------------------------------------
                    Distance matrix (angstroms):
                    1          2          3          4          5
     1  O    0.000000
     2  O    3.673853   0.000000
     3  C    1.429464   4.283034   0.000000
     4  C    1.389094   2.396093   2.363504   0.000000
     5  C    2.378249   1.377063   2.984699   1.311858   0.000000
     6  H    2.115886   4.509499   1.128020   2.695940   3.393240
     7  H    2.073552   5.334418   1.127250   3.309790   3.992884
     8  H    2.097381   4.018337   1.090179   2.660603   2.772590
     9  H    2.064210   2.739232   3.132917   1.088314   2.121197
    10  H    2.675045   2.020905   2.933156   2.096609   1.069052
    11  H    3.858328   1.016866   4.688636   2.485589   1.944858
                    6          7          8          9         10
     6  H    0.000000
     7  H    1.829907   0.000000
     8  H    1.804780   1.799548   0.000000
     9  H    3.208652   4.004301   3.627017   0.000000
    10  H    3.528788   3.841280   2.365635   3.082183   0.000000
    11  H    4.835449   5.721468   4.638603   2.407491   2.838752
                   11
    11  H    0.000000
 Stoichiometry    C3H6O2
 Framework group  C1[X(C3H6O2)]
 Deg. of freedom    27
 Full point group                 C1      NOp   1
 Largest Abelian subgroup         C1      NOp   1
 Largest concise Abelian subgroup C1      NOp   1
                         Standard orientation:                         
 ---------------------------------------------------------------------
 Center     Atomic      Atomic             Coordinates (Angstroms)
 Number     Number       Type             X           Y           Z
 ---------------------------------------------------------------------
      1          8           0       -1.242471    0.586196   -0.314779
      2          8           0        2.302343   -0.279338    0.112230
      3          6           0       -1.972509   -0.525796    0.208562
      4          6           0        0.085651    0.630078    0.089880
      5          6           0        0.969367   -0.283986   -0.233393
      6          1           0       -2.033979   -0.477939    1.333889
      7          1           0       -3.018705   -0.478374   -0.208472
      8          1           0       -1.528084   -1.478393   -0.080464
      9          1           0        0.331981    1.560609    0.597681
     10          1           0        0.717486   -1.178702   -0.761515
     11          1           0        2.557270    0.676161    0.348976
 ---------------------------------------------------------------------
 Rotational constants (GHZ):          17.7545111           2.5736602           2.3699330
 Leave Link  202 at Tue Sep 24 13:08:04 2019, MaxMem=   671088640 cpu:               3.6 elap:               1.8
 (Enter /shared/centos7/gaussian/g16/l301.exe)
 Standard basis: CC-pVTZ (5D, 7F)
 Ernie: Thresh=  0.10000D-02 Tol=  0.10000D-05 Strict=F.
 Ernie:  15 primitive shells out of 178 were deleted.
 There are   265 symmetry adapted cartesian basis functions of A   symmetry.
 There are   234 symmetry adapted basis functions of A   symmetry.
   234 basis functions,   362 primitive gaussians,   265 cartesian basis functions
    20 alpha electrons       20 beta electrons
       nuclear repulsion energy       173.3325129108 Hartrees.
 IExCor= 4336 DFT=T Ex+Corr=M062X ExCW=0 ScaHFX=  0.540000
 ScaDFX=  1.000000  1.000000  1.000000  1.000000 ScalE2=  1.000000  1.000000
 IRadAn=      5 IRanWt=     -1 IRanGd=            0 ICorTp=0 IEmpDi=  4
 NAtoms=   11 NActive=   11 NUniq=   11 SFac= 1.00D+00 NAtFMM=   60 NAOKFM=F Big=F
 Integral buffers will be    131072 words long.
 Raffenetti 2 integral format.
 Two-electron integral symmetry is turned on.
 Leave Link  301 at Tue Sep 24 13:08:05 2019, MaxMem=   671088640 cpu:               2.9 elap:               1.5
 (Enter /shared/centos7/gaussian/g16/l302.exe)
 NPDir=0 NMtPBC=     1 NCelOv=     1 NCel=       1 NClECP=     1 NCelD=      1
         NCelK=      1 NCelE2=     1 NClLst=     1 CellRange=     0.0.
 One-electron integrals computed using PRISM.
 One-electron integral symmetry used in STVInt
 NBasis=   234 RedAO= T EigKep=  3.60D-04  NBF=   234
 NBsUse=   234 1.00D-06 EigRej= -1.00D+00 NBFU=   234
 Precomputing XC quadrature grid using
 IXCGrd= 4 IRadAn=           5 IRanWt=          -1 IRanGd=           0 AccXCQ= 0.00D+00.
 Generated NRdTot=       0 NPtTot=           0 NUsed=           0 NTot=          32
 NSgBfM=   265   265   265   265   265 MxSgAt=    11 MxSgA2=    11.
 Leave Link  302 at Tue Sep 24 13:08:59 2019, MaxMem=   671088640 cpu:             107.3 elap:              53.7
 (Enter /shared/centos7/gaussian/g16/l303.exe)
 DipDrv:  MaxL=1.
 Leave Link  303 at Tue Sep 24 13:09:05 2019, MaxMem=   671088640 cpu:              11.1 elap:               5.5
 (Enter /shared/centos7/gaussian/g16/l401.exe)
 ExpMin= 1.03D-01 ExpMax= 1.53D+04 ExpMxC= 5.22D+02 IAcc=3 IRadAn=         5 AccDes= 0.00D+00
 Harris functional with IExCor= 1009 and IRadAn=       5 diagonalized for initial guess.
 HarFok:  IExCor= 1009 AccDes= 0.00D+00 IRadAn=         5 IDoV= 1 UseB2=F ITyADJ=14
 ICtDFT=  3500011 ScaDFX=  1.000000  1.000000  1.000000  1.000000
 FoFCou: FMM=F IPFlag=           0 FMFlag=      100000 FMFlg1=           0
         NFxFlg=           0 DoJE=T BraDBF=F KetDBF=T FulRan=T
         wScrn=  0.000000 ICntrl=       500 IOpCl=  0 I1Cent=   200000004 NGrid=           0
         NMat0=    1 NMatS0=      1 NMatT0=    0 NMatD0=    1 NMtDS0=    0 NMtDT0=    0
 Petite list used in FoFCou.
 Harris En= -268.195487422503    
 JPrj=0 DoOrth=F DoCkMO=F.
 Leave Link  401 at Tue Sep 24 13:09:28 2019, MaxMem=   671088640 cpu:              46.2 elap:              23.1
 (Enter /shared/centos7/gaussian/g16/l502.exe)
 Keep R1 ints in memory in canonical form, NReq=399924305.
 FoFCou: FMM=F IPFlag=           0 FMFlag=           0 FMFlg1=           0
         NFxFlg=           0 DoJE=F BraDBF=F KetDBF=F FulRan=T
         wScrn=  0.000000 ICntrl=       600 IOpCl=  0 I1Cent=           0 NGrid=           0
         NMat0=    1 NMatS0=  27495 NMatT0=    0 NMatD0=    1 NMtDS0=    0 NMtDT0=    0
 Symmetry not used in FoFCou.
 Two-electron integral symmetry not used.
 Closed shell SCF:
 Using DIIS extrapolation, IDIIS=  1040.
 NGot=   671088640 LenX=   292939207 LenY=   292868541
 Requested convergence on RMS density matrix=1.00D-08 within 900 cycles.
 Requested convergence on MAX density matrix=1.00D-06.
 Requested convergence on             energy=1.00D-06.
 No special actions if energy rises.
 Integral accuracy reduced to 1.0D-05 until final iterations.

 Cycle   1  Pass 0  IDiag  1:
 E= -268.183737399359    
 DIIS: error= 1.88D-02 at cycle   1 NSaved=   1.
 NSaved= 1 IEnMin= 1 EnMin= -268.183737399359     IErMin= 1 ErrMin= 1.88D-02
 ErrMax= 1.88D-02  0.00D+00 EMaxC= 1.00D-01 BMatC= 1.71D-01 BMatP= 1.71D-01
 IDIUse=3 WtCom= 8.12D-01 WtEn= 1.88D-01
 Coeff-Com:  0.100D+01
 Coeff-En:   0.100D+01
 Coeff:      0.100D+01
 Gap=     0.348 Goal=   None    Shift=    0.000
 GapD=    0.348 DampG=1.000 DampE=0.500 DampFc=0.5000 IDamp=-1.
 Damping current iteration by 5.00D-01
 RMSDP=2.33D-03 MaxDP=9.71D-02              OVMax= 1.10D-01

 Cycle   2  Pass 0  IDiag  1:
 E= -268.248730528613     Delta-E=       -0.064993129254 Rises=F Damp=T
 DIIS: error= 5.84D-03 at cycle   2 NSaved=   2.
 NSaved= 2 IEnMin= 2 EnMin= -268.248730528613     IErMin= 2 ErrMin= 5.84D-03
 ErrMax= 5.84D-03  0.00D+00 EMaxC= 1.00D-01 BMatC= 1.63D-02 BMatP= 1.71D-01
 IDIUse=3 WtCom= 9.42D-01 WtEn= 5.84D-02
 Coeff-Com: -0.175D+00 0.118D+01
 Coeff-En:   0.000D+00 0.100D+01
 Coeff:     -0.165D+00 0.117D+01
 Gap=     0.342 Goal=   None    Shift=    0.000
 RMSDP=4.11D-04 MaxDP=8.44D-03 DE=-6.50D-02 OVMax= 5.07D-02

 Cycle   3  Pass 0  IDiag  1:
 E= -268.305677071689     Delta-E=       -0.056946543076 Rises=F Damp=F
 DIIS: error= 2.41D-03 at cycle   3 NSaved=   3.
 NSaved= 3 IEnMin= 3 EnMin= -268.305677071689     IErMin= 3 ErrMin= 2.41D-03
 ErrMax= 2.41D-03  0.00D+00 EMaxC= 1.00D-01 BMatC= 3.24D-03 BMatP= 1.63D-02
 IDIUse=3 WtCom= 9.76D-01 WtEn= 2.41D-02
 Coeff-Com: -0.112D+00 0.368D+00 0.744D+00
 Coeff-En:   0.000D+00 0.000D+00 0.100D+01
 Coeff:     -0.109D+00 0.359D+00 0.751D+00
 Gap=     0.342 Goal=   None    Shift=    0.000
 RMSDP=1.66D-04 MaxDP=4.79D-03 DE=-5.69D-02 OVMax= 1.15D-02

 Cycle   4  Pass 0  IDiag  1:
 E= -268.307198443968     Delta-E=       -0.001521372279 Rises=F Damp=F
 DIIS: error= 1.22D-03 at cycle   4 NSaved=   4.
 NSaved= 4 IEnMin= 4 EnMin= -268.307198443968     IErMin= 4 ErrMin= 1.22D-03
 ErrMax= 1.22D-03  0.00D+00 EMaxC= 1.00D-01 BMatC= 7.55D-04 BMatP= 3.24D-03
 IDIUse=3 WtCom= 9.88D-01 WtEn= 1.22D-02
 Coeff-Com: -0.369D-01 0.924D-01 0.376D+00 0.569D+00
 Coeff-En:   0.000D+00 0.000D+00 0.177D+00 0.823D+00
 Coeff:     -0.364D-01 0.913D-01 0.373D+00 0.572D+00
 Gap=     0.338 Goal=   None    Shift=    0.000
 RMSDP=6.40D-05 MaxDP=1.76D-03 DE=-1.52D-03 OVMax= 6.26D-03

 Cycle   5  Pass 0  IDiag  1:
 E= -268.307758497796     Delta-E=       -0.000560053829 Rises=F Damp=F
 DIIS: error= 1.91D-04 at cycle   5 NSaved=   5.
 NSaved= 5 IEnMin= 5 EnMin= -268.307758497796     IErMin= 5 ErrMin= 1.91D-04
 ErrMax= 1.91D-04  0.00D+00 EMaxC= 1.00D-01 BMatC= 1.34D-05 BMatP= 7.55D-04
 IDIUse=3 WtCom= 9.98D-01 WtEn= 1.91D-03
 Coeff-Com: -0.535D-02 0.101D-01 0.785D-01 0.186D+00 0.730D+00
 Coeff-En:   0.000D+00 0.000D+00 0.000D+00 0.000D+00 0.100D+01
 Coeff:     -0.534D-02 0.101D-01 0.783D-01 0.186D+00 0.731D+00
 Gap=     0.338 Goal=   None    Shift=    0.000
 RMSDP=1.35D-05 MaxDP=3.82D-04 DE=-5.60D-04 OVMax= 1.32D-03

 Cycle   6  Pass 0  IDiag  1:
 E= -268.307768733974     Delta-E=       -0.000010236178 Rises=F Damp=F
 DIIS: error= 4.88D-05 at cycle   6 NSaved=   6.
 NSaved= 6 IEnMin= 6 EnMin= -268.307768733974     IErMin= 6 ErrMin= 4.88D-05
 ErrMax= 4.88D-05  0.00D+00 EMaxC= 1.00D-01 BMatC= 1.38D-06 BMatP= 1.34D-05
 IDIUse=1 WtCom= 1.00D+00 WtEn= 0.00D+00
 Coeff-Com: -0.839D-03 0.700D-03 0.203D-01 0.646D-01 0.322D+00 0.594D+00
 Coeff:     -0.839D-03 0.700D-03 0.203D-01 0.646D-01 0.322D+00 0.594D+00
 Gap=     0.338 Goal=   None    Shift=    0.000
 RMSDP=4.12D-06 MaxDP=1.27D-04 DE=-1.02D-05 OVMax= 5.96D-04

 Initial convergence to 1.0D-05 achieved.  Increase integral accuracy.
 Cycle   7  Pass 1  IDiag  1:
 E= -268.307785293123     Delta-E=       -0.000016559148 Rises=F Damp=F
 DIIS: error= 1.88D-05 at cycle   1 NSaved=   1.
 NSaved= 1 IEnMin= 1 EnMin= -268.307785293123     IErMin= 1 ErrMin= 1.88D-05
 ErrMax= 1.88D-05  0.00D+00 EMaxC= 1.00D-01 BMatC= 3.51D-07 BMatP= 3.51D-07
 IDIUse=1 WtCom= 1.00D+00 WtEn= 0.00D+00
 Coeff-Com:  0.100D+01
 Coeff:      0.100D+01
 Gap=     0.338 Goal=   None    Shift=    0.000
 RMSDP=4.12D-06 MaxDP=1.27D-04 DE=-1.66D-05 OVMax= 3.43D-04

 Cycle   8  Pass 1  IDiag  1:
 E= -268.307785310913     Delta-E=       -0.000000017790 Rises=F Damp=F
 DIIS: error= 2.16D-05 at cycle   2 NSaved=   2.
 NSaved= 2 IEnMin= 2 EnMin= -268.307785310913     IErMin= 1 ErrMin= 1.88D-05
 ErrMax= 2.16D-05  0.00D+00 EMaxC= 1.00D-01 BMatC= 3.44D-07 BMatP= 3.51D-07
 IDIUse=1 WtCom= 1.00D+00 WtEn= 0.00D+00
 Coeff-Com:  0.497D+00 0.503D+00
 Coeff:      0.497D+00 0.503D+00
 Gap=     0.338 Goal=   None    Shift=    0.000
 RMSDP=1.99D-06 MaxDP=5.17D-05 DE=-1.78D-08 OVMax= 2.63D-04

 Cycle   9  Pass 1  IDiag  1:
 E= -268.307785575676     Delta-E=       -0.000000264763 Rises=F Damp=F
 DIIS: error= 5.33D-06 at cycle   3 NSaved=   3.
 NSaved= 3 IEnMin= 3 EnMin= -268.307785575676     IErMin= 3 ErrMin= 5.33D-06
 ErrMax= 5.33D-06  0.00D+00 EMaxC= 1.00D-01 BMatC= 1.93D-08 BMatP= 3.44D-07
 IDIUse=1 WtCom= 1.00D+00 WtEn= 0.00D+00
 Coeff-Com: -0.415D-01 0.170D+00 0.871D+00
 Coeff:     -0.415D-01 0.170D+00 0.871D+00
 Gap=     0.338 Goal=   None    Shift=    0.000
 RMSDP=5.54D-07 MaxDP=1.71D-05 DE=-2.65D-07 OVMax= 4.25D-05

 Cycle  10  Pass 1  IDiag  1:
 E= -268.307785592211     Delta-E=       -0.000000016535 Rises=F Damp=F
 DIIS: error= 9.22D-07 at cycle   4 NSaved=   4.
 NSaved= 4 IEnMin= 4 EnMin= -268.307785592211     IErMin= 4 ErrMin= 9.22D-07
 ErrMax= 9.22D-07  0.00D+00 EMaxC= 1.00D-01 BMatC= 4.03D-10 BMatP= 1.93D-08
 IDIUse=1 WtCom= 1.00D+00 WtEn= 0.00D+00
 Coeff-Com: -0.208D-01 0.434D-01 0.259D+00 0.718D+00
 Coeff:     -0.208D-01 0.434D-01 0.259D+00 0.718D+00
 Gap=     0.338 Goal=   None    Shift=    0.000
 RMSDP=7.28D-08 MaxDP=2.31D-06 DE=-1.65D-08 OVMax= 6.65D-06

 Cycle  11  Pass 1  IDiag  1:
 E= -268.307785592565     Delta-E=       -0.000000000353 Rises=F Damp=F
 DIIS: error= 4.54D-07 at cycle   5 NSaved=   5.
 NSaved= 5 IEnMin= 5 EnMin= -268.307785592565     IErMin= 5 ErrMin= 4.54D-07
 ErrMax= 4.54D-07  0.00D+00 EMaxC= 1.00D-01 BMatC= 1.04D-10 BMatP= 4.03D-10
 IDIUse=1 WtCom= 1.00D+00 WtEn= 0.00D+00
 Coeff-Com: -0.183D-02-0.112D-01-0.429D-01 0.303D+00 0.753D+00
 Coeff:     -0.183D-02-0.112D-01-0.429D-01 0.303D+00 0.753D+00
 Gap=     0.338 Goal=   None    Shift=    0.000
 RMSDP=4.12D-08 MaxDP=1.13D-06 DE=-3.53D-10 OVMax= 3.65D-06

 Cycle  12  Pass 1  IDiag  1:
 E= -268.307785592659     Delta-E=       -0.000000000094 Rises=F Damp=F
 DIIS: error= 1.13D-07 at cycle   6 NSaved=   6.
 NSaved= 6 IEnMin= 6 EnMin= -268.307785592659     IErMin= 6 ErrMin= 1.13D-07
 ErrMax= 1.13D-07  0.00D+00 EMaxC= 1.00D-01 BMatC= 7.35D-12 BMatP= 1.04D-10
 IDIUse=1 WtCom= 1.00D+00 WtEn= 0.00D+00
 Coeff-Com:  0.195D-02-0.809D-02-0.444D-01 0.119D-01 0.245D+00 0.794D+00
 Coeff:      0.195D-02-0.809D-02-0.444D-01 0.119D-01 0.245D+00 0.794D+00
 Gap=     0.338 Goal=   None    Shift=    0.000
 RMSDP=1.35D-08 MaxDP=3.23D-07 DE=-9.44D-11 OVMax= 1.34D-06

 Cycle  13  Pass 1  IDiag  1:
 E= -268.307785592671     Delta-E=       -0.000000000012 Rises=F Damp=F
 DIIS: error= 3.62D-08 at cycle   7 NSaved=   7.
 NSaved= 7 IEnMin= 7 EnMin= -268.307785592671     IErMin= 7 ErrMin= 3.62D-08
 ErrMax= 3.62D-08  0.00D+00 EMaxC= 1.00D-01 BMatC= 5.52D-13 BMatP= 7.35D-12
 IDIUse=1 WtCom= 1.00D+00 WtEn= 0.00D+00
 Coeff-Com:  0.694D-03-0.181D-02-0.119D-01-0.160D-01 0.328D-01 0.245D+00
 Coeff-Com:  0.751D+00
 Coeff:      0.694D-03-0.181D-02-0.119D-01-0.160D-01 0.328D-01 0.245D+00
 Coeff:      0.751D+00
 Gap=     0.338 Goal=   None    Shift=    0.000
 RMSDP=3.73D-09 MaxDP=8.15D-08 DE=-1.19D-11 OVMax= 3.09D-07

 SCF Done:  E(RM062X) =  -268.307785593     A.U. after   13 cycles
            NFock= 13  Conv=0.37D-08     -V/T= 2.0061
 KE= 2.666719392083D+02 PE=-9.749831193979D+02 EE= 2.666708816862D+02
 Leave Link  502 at Tue Sep 24 13:14:01 2019, MaxMem=   671088640 cpu:             539.9 elap:             273.6
 (Enter /shared/centos7/gaussian/g16/l801.exe)
 DoSCS=F DFT=T ScalE2(SS,OS)=  1.000000  1.000000
 Range of M.O.s used for correlation:     1   234
 NBasis=   234 NAE=    20 NBE=    20 NFC=     0 NFV=     0
 NROrb=    234 NOA=    20 NOB=    20 NVA=   214 NVB=   214

 **** Warning!!: The largest alpha MO coefficient is  0.11374321D+02

 Leave Link  801 at Tue Sep 24 13:14:02 2019, MaxMem=   671088640 cpu:               1.6 elap:               0.8
 (Enter /shared/centos7/gaussian/g16/l1101.exe)
 Using compressed storage, NAtomX=    11.
 Will process     12 centers per pass.
 Leave Link 1101 at Tue Sep 24 13:14:23 2019, MaxMem=   671088640 cpu:              41.2 elap:              20.6
 (Enter /shared/centos7/gaussian/g16/l1102.exe)
 Symmetrizing basis deriv contribution to polar:
 IMax=3 JMax=2 DiffMx= 0.00D+00
 Leave Link 1102 at Tue Sep 24 13:14:25 2019, MaxMem=   671088640 cpu:               5.2 elap:               2.6
 (Enter /shared/centos7/gaussian/g16/l1110.exe)
 Forming Gx(P) for the SCF density, NAtomX=    11.
 Integral derivatives from FoFJK, PRISM(SPDF).
 Do as many integral derivatives as possible in FoFJK.
 G2DrvN: MDV=     671087712.
 G2DrvN: will do    12 centers at a time, making    1 passes.
 Calling FoFCou, ICntrl=  3107 FMM=F I1Cent=   0 AccDes= 0.00D+00.
 FoFJK:  IHMeth= 1 ICntrl=    3107 DoSepK=F KAlg= 0 I1Cent=           0 FoldK=F
 IRaf=         0 NMat=       1 IRICut=       1 DoRegI=T DoRafI=F ISym2E= 0 IDoP0=0 IntGTp=1.
 FoFCou: FMM=F IPFlag=           0 FMFlag=      100000 FMFlg1=           0
         NFxFlg=           0 DoJE=F BraDBF=F KetDBF=F FulRan=T
         wScrn=  0.000000 ICntrl=      3107 IOpCl=  0 I1Cent=           0 NGrid=           0
         NMat0=    1 NMatS0=      1 NMatT0=    0 NMatD0=    1 NMtDS0=    0 NMtDT0=    0
 Symmetry not used in FoFCou.
 End of G2Drv F.D. properties file   721 does not exist.
 End of G2Drv F.D. properties file   722 does not exist.
 End of G2Drv F.D. properties file   788 does not exist.
 Leave Link 1110 at Tue Sep 24 13:19:31 2019, MaxMem=   671088640 cpu:             610.5 elap:             305.3
 (Enter /shared/centos7/gaussian/g16/l1002.exe)
 Minotr:  Closed shell wavefunction.
          IDoAtm=11111111111
          Direct CPHF calculation.
          Differentiating once with respect to nuclear coordinates.
          Requested convergence is 1.0D-08 RMS, and 1.0D-07 maximum.
          Secondary convergence is 1.0D-12 RMS, and 1.0D-12 maximum.
          NewPWx=T KeepS1=F KeepF1=F KeepIn=T MapXYZ=F SortEE=F KeepMc=T.
         3293 words used for storage of precomputed grid.
 Keep R1 ints in memory in canonical form, NReq=399865292.
 FoFCou: FMM=F IPFlag=           0 FMFlag=           0 FMFlg1=           0
         NFxFlg=           0 DoJE=F BraDBF=F KetDBF=F FulRan=T
         wScrn=  0.000000 ICntrl=       600 IOpCl=  0 I1Cent=           0 NGrid=           0
         NMat0=    1 NMatS0=  27495 NMatT0=    0 NMatD0=    1 NMtDS0=    0 NMtDT0=    0
 Symmetry not used in FoFCou.
 Two-electron integral symmetry not used.
          MDV=     671088640 using IRadAn=       1.
          Solving linear equations simultaneously, MaxMat=       0.
          There are    36 degrees of freedom in the 1st order CPHF.  IDoFFX=6 NUNeed=     0.
     30 vectors produced by pass  0 Test12= 1.19D-14 2.78D-09 XBig12= 6.80D-02 6.58D-02.
 AX will form    30 AO Fock derivatives at one time.
     30 vectors produced by pass  1 Test12= 1.19D-14 2.78D-09 XBig12= 6.23D-03 2.22D-02.
     30 vectors produced by pass  2 Test12= 1.19D-14 2.78D-09 XBig12= 2.12D-04 3.06D-03.
     30 vectors produced by pass  3 Test12= 1.19D-14 2.78D-09 XBig12= 2.93D-06 2.81D-04.
     30 vectors produced by pass  4 Test12= 1.19D-14 2.78D-09 XBig12= 1.85D-08 2.06D-05.
     30 vectors produced by pass  5 Test12= 1.19D-14 2.78D-09 XBig12= 9.96D-11 1.38D-06.
     20 vectors produced by pass  6 Test12= 1.19D-14 2.78D-09 XBig12= 5.21D-13 8.59D-08.
      4 vectors produced by pass  7 Test12= 1.19D-14 2.78D-09 XBig12= 2.04D-15 5.55D-09.
 InvSVY:  IOpt=1 It=  1 EMax= 1.44D-15
 Solved reduced A of dimension   204 with    30 vectors.
 End of Minotr F.D. properties file   721 does not exist.
 End of Minotr F.D. properties file   722 does not exist.
 End of Minotr F.D. properties file   788 does not exist.
 Leave Link 1002 at Tue Sep 24 13:26:55 2019, MaxMem=   671088640 cpu:             888.5 elap:             444.3
 (Enter /shared/centos7/gaussian/g16/l601.exe)
 Copying SCF densities to generalized density rwf, IOpCl= 0 IROHF=0.

 **********************************************************************

            Population analysis using the SCF density.

 **********************************************************************

 Orbital symmetries:
       Occupied  (A) (A) (A) (A) (A) (A) (A) (A) (A) (A) (A) (A)
                 (A) (A) (A) (A) (A) (A) (A) (A)
       Virtual   (A) (A) (A) (A) (A) (A) (A) (A) (A) (A) (A) (A)
                 (A) (A) (A) (A) (A) (A) (A) (A) (A) (A) (A) (A)
                 (A) (A) (A) (A) (A) (A) (A) (A) (A) (A) (A) (A)
                 (A) (A) (A) (A) (A) (A) (A) (A) (A) (A) (A) (A)
                 (A) (A) (A) (A) (A) (A) (A) (A) (A) (A) (A) (A)
                 (A) (A) (A) (A) (A) (A) (A) (A) (A) (A) (A) (A)
                 (A) (A) (A) (A) (A) (A) (A) (A) (A) (A) (A) (A)
                 (A) (A) (A) (A) (A) (A) (A) (A) (A) (A) (A) (A)
                 (A) (A) (A) (A) (A) (A) (A) (A) (A) (A) (A) (A)
                 (A) (A) (A) (A) (A) (A) (A) (A) (A) (A) (A) (A)
                 (A) (A) (A) (A) (A) (A) (A) (A) (A) (A) (A) (A)
                 (A) (A) (A) (A) (A) (A) (A) (A) (A) (A) (A) (A)
                 (A) (A) (A) (A) (A) (A) (A) (A) (A) (A) (A) (A)
                 (A) (A) (A) (A) (A) (A) (A) (A) (A) (A) (A) (A)
                 (A) (A) (A) (A) (A) (A) (A) (A) (A) (A) (A) (A)
                 (A) (A) (A) (A) (A) (A) (A) (A) (A) (A) (A) (A)
                 (A) (A) (A) (A) (A) (A) (A) (A) (A) (A) (A) (A)
                 (A) (A) (A) (A) (A) (A) (A) (A) (A) (A)
 The electronic state is 1-A.
 Alpha  occ. eigenvalues --  -19.65635 -19.63997 -10.59141 -10.59071 -10.58046
 Alpha  occ. eigenvalues --   -1.17345  -1.16276  -0.85490  -0.77850  -0.68607
 Alpha  occ. eigenvalues --   -0.59894  -0.58645  -0.52938  -0.51099  -0.49070
 Alpha  occ. eigenvalues --   -0.47357  -0.44878  -0.41409  -0.35925  -0.28399
 Alpha virt. eigenvalues --    0.05417   0.06523   0.08197   0.10202   0.12797
 Alpha virt. eigenvalues --    0.14294   0.14864   0.17834   0.24678   0.25899
 Alpha virt. eigenvalues --    0.28310   0.29869   0.32231   0.33815   0.38470
 Alpha virt. eigenvalues --    0.39436   0.40440   0.41676   0.43958   0.44981
 Alpha virt. eigenvalues --    0.45351   0.47608   0.48538   0.50714   0.53438
 Alpha virt. eigenvalues --    0.54235   0.56572   0.59392   0.60944   0.62952
 Alpha virt. eigenvalues --    0.64915   0.65923   0.69252   0.71895   0.73970
 Alpha virt. eigenvalues --    0.76794   0.77831   0.84840   0.85239   0.87749
 Alpha virt. eigenvalues --    0.89922   0.93834   0.98355   0.99433   1.01108
 Alpha virt. eigenvalues --    1.03476   1.03732   1.08169   1.09252   1.12011
 Alpha virt. eigenvalues --    1.13989   1.14731   1.15869   1.18376   1.20854
 Alpha virt. eigenvalues --    1.27577   1.30047   1.31675   1.31981   1.32726
 Alpha virt. eigenvalues --    1.34751   1.38847   1.39696   1.44461   1.46409
 Alpha virt. eigenvalues --    1.50378   1.51631   1.57536   1.74479   1.76349
 Alpha virt. eigenvalues --    1.84375   1.87223   1.92343   1.95828   1.98876
 Alpha virt. eigenvalues --    2.03212   2.07297   2.13614   2.16914   2.21698
 Alpha virt. eigenvalues --    2.22116   2.28788   2.29987   2.32020   2.33471
 Alpha virt. eigenvalues --    2.37305   2.44086   2.49292   2.52481   2.54538
 Alpha virt. eigenvalues --    2.60148   2.62783   2.65882   2.74262   2.74985
 Alpha virt. eigenvalues --    2.77402   2.80466   2.82924   2.84509   2.86820
 Alpha virt. eigenvalues --    2.87150   2.88618   2.91344   2.93271   2.96515
 Alpha virt. eigenvalues --    2.99366   3.00499   3.02516   3.05387   3.07323
 Alpha virt. eigenvalues --    3.10769   3.13988   3.14592   3.18961   3.23260
 Alpha virt. eigenvalues --    3.24034   3.27663   3.30038   3.30473   3.31571
 Alpha virt. eigenvalues --    3.32405   3.33976   3.35891   3.38406   3.41026
 Alpha virt. eigenvalues --    3.44911   3.46404   3.48771   3.53041   3.54358
 Alpha virt. eigenvalues --    3.57012   3.60602   3.61769   3.66251   3.69229
 Alpha virt. eigenvalues --    3.70427   3.72932   3.75016   3.78757   3.80991
 Alpha virt. eigenvalues --    3.83622   3.84183   3.88097   3.89511   3.91697
 Alpha virt. eigenvalues --    3.94795   3.99593   4.00265   4.01685   4.02193
 Alpha virt. eigenvalues --    4.07244   4.11865   4.14167   4.15766   4.20058
 Alpha virt. eigenvalues --    4.25814   4.30213   4.36783   4.40853   4.46138
 Alpha virt. eigenvalues --    4.52208   4.58350   4.58913   4.63902   4.70787
 Alpha virt. eigenvalues --    4.72959   4.74651   4.80992   4.83846   4.87917
 Alpha virt. eigenvalues --    4.88825   4.94081   4.96155   4.97786   5.02118
 Alpha virt. eigenvalues --    5.08169   5.12906   5.14568   5.21114   5.24109
 Alpha virt. eigenvalues --    5.33543   5.39512   5.49186   5.50162   5.56291
 Alpha virt. eigenvalues --    5.65728   5.72717   5.73026   5.81883   5.88361
 Alpha virt. eigenvalues --    5.99578   6.14617   6.18724   6.27514   6.29712
 Alpha virt. eigenvalues --    6.40591   6.47793   6.58402   6.67385   6.71837
 Alpha virt. eigenvalues --    6.73102   6.77862   6.79752   6.95456   7.00661
 Alpha virt. eigenvalues --    7.11248   7.23488   7.26982   7.28279  10.23408
 Alpha virt. eigenvalues --   10.76570  11.64622  12.77119  13.95126
          Condensed to atoms (all electrons):
               1          2          3          4          5          6
     1  O    7.865196   0.003066   0.307545   0.328936  -0.062604  -0.048905
     2  O    0.003066   7.790236   0.000073  -0.064273   0.339015   0.000012
     3  C    0.307545   0.000073   4.711334  -0.068508  -0.006222   0.390548
     4  C    0.328936  -0.064273  -0.068508   5.062597   0.460068   0.006216
     5  C   -0.062604   0.339015  -0.006222   0.460068   5.000777  -0.006454
     6  H   -0.048905   0.000012   0.390548   0.006216  -0.006454   0.669623
     7  H   -0.028304   0.000007   0.394027   0.007381   0.000063  -0.029667
     8  H   -0.045949  -0.000558   0.393957  -0.022254   0.015610  -0.071038
     9  H   -0.043002  -0.000571   0.004915   0.436301  -0.095493   0.005112
    10  H    0.000823  -0.033261   0.001319  -0.068229   0.413916   0.000944
    11  H    0.000119   0.323205   0.000077  -0.007084  -0.050980   0.000068
               7          8          9         10         11
     1  O   -0.028304  -0.045949  -0.043002   0.000823   0.000119
     2  O    0.000007  -0.000558  -0.000571  -0.033261   0.323205
     3  C    0.394027   0.393957   0.004915   0.001319   0.000077
     4  C    0.007381  -0.022254   0.436301  -0.068229  -0.007084
     5  C    0.000063   0.015610  -0.095493   0.413916  -0.050980
     6  H   -0.029667  -0.071038   0.005112   0.000944   0.000068
     7  H    0.590773  -0.039124  -0.000407  -0.000400   0.000002
     8  H   -0.039124   0.683011  -0.002014  -0.001598  -0.000080
     9  H   -0.000407  -0.002014   0.555657   0.004034   0.004981
    10  H   -0.000400  -0.001598   0.004034   0.509659   0.007108
    11  H    0.000002  -0.000080   0.004981   0.007108   0.456191
 Mulliken charges:
               1
     1  O   -0.276921
     2  O   -0.356951
     3  C   -0.129065
     4  C   -0.071153
     5  C   -0.007696
     6  H    0.083542
     7  H    0.105648
     8  H    0.090035
     9  H    0.130486
    10  H    0.165685
    11  H    0.266391
 Sum of Mulliken charges =  -0.00000
 Mulliken charges with hydrogens summed into heavy atoms:
               1
     1  O   -0.276921
     2  O   -0.090560
     3  C    0.150160
     4  C    0.059333
     5  C    0.157988
 APT charges:
               1
     1  O   -0.189130
     2  O   -0.483024
     3  C   -0.904139
     4  C   -0.395764
     5  C   -0.301711
     6  H    0.294393
     7  H    0.512413
     8  H    0.227875
     9  H    0.361682
    10  H    0.328034
    11  H    0.549372
 Sum of APT charges =  -0.00000
 APT charges with hydrogens summed into heavy atoms:
               1
     1  O   -0.189130
     2  O    0.066347
     3  C    0.130542
     4  C   -0.034082
     5  C    0.026323
 Electronic spatial extent (au):  <R**2>=            516.1016
 Charge=             -0.0000 electrons
 Dipole moment (field-independent basis, Debye):
    X=             -0.1176    Y=              0.1441    Z=              0.7994  Tot=              0.8207
 Quadrupole moment (field-independent basis, Debye-Ang):
   XX=            -29.6971   YY=            -28.7822   ZZ=            -31.5818
   XY=              6.3529   XZ=             -0.2431   YZ=              2.4612
 Traceless Quadrupole moment (field-independent basis, Debye-Ang):
   XX=              0.3233   YY=              1.2381   ZZ=             -1.5614
   XY=              6.3529   XZ=             -0.2431   YZ=              2.4612
 Octapole moment (field-independent basis, Debye-Ang**2):
  XXX=             -2.8652  YYY=              1.6091  ZZZ=              0.0268  XYY=              5.4662
  XXY=              8.1422  XXZ=              3.3490  XZZ=              1.3545  YZZ=              0.0430
  YYZ=              0.2970  XYZ=              1.8216
 Hexadecapole moment (field-independent basis, Debye-Ang**3):
 XXXX=           -471.2746 YYYY=            -90.9819 ZZZZ=            -51.0558 XXXY=             34.9668
 XXXZ=             13.5067 YYYX=             -0.4595 YYYZ=              4.1517 ZZZX=              1.3622
 ZZZY=              0.9484 XXYY=            -96.1477 XXZZ=            -91.8024 YYZZ=            -24.0397
 XXYZ=              5.2182 YYXZ=              1.3727 ZZXY=             -0.4815
 N-N= 1.733325129108D+02 E-N=-9.749831121553D+02  KE= 2.666719392083D+02
  Exact polarizability:   0.000   0.000   0.000   0.000   0.000   0.000
 Approx polarizability:  61.704  -5.138  52.832  -0.858   4.355  41.787
 No NMR shielding tensors so no spin-rotation constants.
 Leave Link  601 at Tue Sep 24 13:27:15 2019, MaxMem=   671088640 cpu:              39.9 elap:              20.0
 (Enter /shared/centos7/gaussian/g16/l701.exe)
 SCFChk:  SCF convergence  3.73D-09 required  1.00D-08
 ... and contract with generalized density number  0.
 Compute integral second derivatives.
 Entering OneElI...
 Calculate overlap and kinetic energy integrals
    NBasis = 265  MinDer = 2  MaxDer = 2
 Requested accuracy = 0.1000D-12
 PrmmSu-InSpLW:  IPartL=    0 NPrtUS=   20 NPrtUL=    1 DoSpLW=F IThBeg=    0 IThEnd=   19 NThAct=   20.
 PrsmSu:  NPrtUS=  20 ThrOK=T IAlg=1 NPAlg=1 LenDen=           0 ISkipM=0 DoSpLW=F IThBeg=    0 IThEnd=   19.
 Prism:   IPart=     0 DynPar=F LinDyn=F Incr=           1.
 PRISM was handed    33440067 working-precision words and  3719 shell-pairs
 PRISM was handed    33440067 working-precision words and  3719 shell-pairs
 PRISM was handed    33440067 working-precision words and  3719 shell-pairs
 PRISM was handed    33440067 working-precision words and  3719 shell-pairs
 PRISM was handed    33440067 working-precision words and  3719 shell-pairs
 PRISM was handed    33440067 working-precision words and  3719 shell-pairs
 PRISM was handed    33440067 working-precision words and  3719 shell-pairs
 PRISM was handed    33440067 working-precision words and  3719 shell-pairs
 PRISM was handed    33440067 working-precision words and  3719 shell-pairs
 PRISM was handed    33440067 working-precision words and  3719 shell-pairs
 PRISM was handed    33440067 working-precision words and  3719 shell-pairs
 IPart=  0 NShTot=         229 NBatch=          68 AvBLen=         3.4
 IPart= 18 NShTot=         164 NBatch=          25 AvBLen=         6.6
 IPart= 19 NShTot=         164 NBatch=          25 AvBLen=         6.6
 IPart=  7 NShTot=         190 NBatch=          34 AvBLen=         5.6
 PRISM was handed    33440067 working-precision words and  3719 shell-pairs
 PRISM was handed    33440067 working-precision words and  3719 shell-pairs
 PRISM was handed    33440067 working-precision words and  3719 shell-pairs
 PRISM was handed    33440067 working-precision words and  3719 shell-pairs
 PRISM was handed    33440067 working-precision words and  3719 shell-pairs
 PRISM was handed    33440067 working-precision words and  3719 shell-pairs
 PRISM was handed    33440067 working-precision words and  3719 shell-pairs
 PRISM was handed    33440067 working-precision words and  3719 shell-pairs
 IPart=  8 NShTot=         182 NBatch=          29 AvBLen=         6.3
 PRISM was handed    33440067 working-precision words and  3719 shell-pairs
 IPart= 17 NShTot=         165 NBatch=          25 AvBLen=         6.6
 IPart= 16 NShTot=         166 NBatch=          26 AvBLen=         6.4
 IPart=  2 NShTot=         210 NBatch=          51 AvBLen=         4.1
 IPart= 11 NShTot=         178 NBatch=          28 AvBLen=         6.4
 IPart=  1 NShTot=         220 NBatch=          61 AvBLen=         3.6
 IPart= 10 NShTot=         180 NBatch=          28 AvBLen=         6.4
 IPart= 15 NShTot=         169 NBatch=          26 AvBLen=         6.5
 IPart=  5 NShTot=         197 NBatch=          41 AvBLen=         4.8
 IPart=  6 NShTot=         192 NBatch=          36 AvBLen=         5.3
 IPart=  3 NShTot=         207 NBatch=          48 AvBLen=         4.3
 IPart=  4 NShTot=         202 NBatch=          46 AvBLen=         4.4
 IPart= 14 NShTot=         173 NBatch=          27 AvBLen=         6.4
 IPart= 13 NShTot=         174 NBatch=          28 AvBLen=         6.2
 IPart=  9 NShTot=         182 NBatch=          29 AvBLen=         6.3
 IPart= 12 NShTot=         175 NBatch=          28 AvBLen=         6.3
 PrSmSu:  NxtVal=             21.
 Entering OneElI...
 Calculate potential energy integrals
    NBasis = 265  MinDer = 2  MaxDer = 2
 Requested accuracy = 0.1000D-12
 PrmmSu-InSpLW:  IPartL=    0 NPrtUS=   20 NPrtUL=    1 DoSpLW=F IThBeg=    0 IThEnd=   19 NThAct=   20.
 PrsmSu:  NPrtUS=  20 ThrOK=T IAlg=1 NPAlg=1 LenDen=           0 ISkipM=0 DoSpLW=F IThBeg=    0 IThEnd=   19.
 Prism:   IPart=     0 DynPar=F LinDyn=F Incr=          19.
 PRISM was handed    33456691 working-precision words and  3509 shell-pairs
 PRISM was handed    33456691 working-precision words and  3509 shell-pairs
 PRISM was handed    33456691 working-precision words and  3509 shell-pairs
 PRISM was handed    33456691 working-precision words and  3509 shell-pairs
 PRISM was handed    33456691 working-precision words and  3509 shell-pairs
 PRISM was handed    33456691 working-precision words and  3509 shell-pairs
 PRISM was handed    33456691 working-precision words and  3509 shell-pairs
 PRISM was handed    33456691 working-precision words and  3509 shell-pairs
 PRISM was handed    33456691 working-precision words and  3509 shell-pairs
 PRISM was handed    33456691 working-precision words and  3509 shell-pairs
 PRISM was handed    33456691 working-precision words and  3509 shell-pairs
 PRISM was handed    33456691 working-precision words and  3509 shell-pairs
 PRISM was handed    33456691 working-precision words and  3509 shell-pairs
 PRISM was handed    33456691 working-precision words and  3509 shell-pairs
 PRISM was handed    33456691 working-precision words and  3509 shell-pairs
 PRISM was handed    33456691 working-precision words and  3509 shell-pairs
 PRISM was handed    33456691 working-precision words and  3509 shell-pairs
 PRISM was handed    33456691 working-precision words and  3509 shell-pairs
 PRISM was handed    33456691 working-precision words and  3509 shell-pairs
 PRISM was handed    33456691 working-precision words and  3509 shell-pairs
 IPart=  2 NShTot=        2255 NBatch=         205 AvBLen=        11.0
 IPart=  7 NShTot=        1903 NBatch=         173 AvBLen=        11.0
 IPart= 16 NShTot=        1749 NBatch=         159 AvBLen=        11.0
 IPart= 17 NShTot=        1738 NBatch=         158 AvBLen=        11.0
 IPart=  0 NShTot=        2409 NBatch=         219 AvBLen=        11.0
 IPart=  9 NShTot=        1881 NBatch=         171 AvBLen=        11.0
 IPart= 11 NShTot=        1826 NBatch=         166 AvBLen=        11.0
 IPart=  4 NShTot=        2101 NBatch=         191 AvBLen=        11.0
 IPart=  1 NShTot=        2332 NBatch=         212 AvBLen=        11.0
 IPart=  6 NShTot=        1925 NBatch=         175 AvBLen=        11.0
 IPart=  8 NShTot=        1903 NBatch=         173 AvBLen=        11.0
 IPart=  3 NShTot=        2178 NBatch=         198 AvBLen=        11.0
 IPart=  5 NShTot=        1969 NBatch=         179 AvBLen=        11.0
 IPart= 10 NShTot=        1859 NBatch=         169 AvBLen=        11.0
 IPart= 12 NShTot=        1782 NBatch=         162 AvBLen=        11.0
 IPart= 18 NShTot=        1738 NBatch=         158 AvBLen=        11.0
 IPart= 14 NShTot=        1771 NBatch=         161 AvBLen=        11.0
 IPart= 15 NShTot=        1760 NBatch=         160 AvBLen=        11.0
 IPart= 13 NShTot=        1782 NBatch=         162 AvBLen=        11.0
 IPart= 19 NShTot=        1738 NBatch=         158 AvBLen=        11.0
 PrSmSu:  NxtVal=            381.
 Polarizability after L701:
                1             2             3 
      1  0.000000D+00
      2  0.000000D+00  0.000000D+00
      3  0.000000D+00  0.000000D+00  0.000000D+00
 Dipole Derivatives after L701:
                 1             2             3             4             5 
      1  -0.174116D+00 -0.108095D+00  0.535721D-01 -0.301381D+00 -0.137641D+01
      2  -0.151506D+00 -0.181850D+00 -0.553311D-01 -0.280620D+00 -0.712416D+00
      3   0.704268D-01 -0.460652D-01 -0.211424D+00 -0.536586D-01 -0.166023D+00
                 6             7             8             9            10 
      1  -0.290468D+00 -0.111727D+01 -0.451215D+00  0.189755D+00 -0.439556D+00
      2  -0.116479D+00 -0.597259D-01 -0.804848D+00 -0.911341D-02  0.625725D-01
      3  -0.435276D+00  0.533349D-01  0.160007D-02 -0.790303D+00 -0.177314D+00
                11            12            13            14            15 
      1   0.202705D+00 -0.186816D+00 -0.343768D+00  0.270936D+00  0.171117D+00
      2  -0.571848D+00 -0.316415D+00  0.122509D+00 -0.487503D+00 -0.208799D+00
      3  -0.326060D+00 -0.175888D+00 -0.802386D-01 -0.279023D+00 -0.738626D-01
                16            17            18            19            20 
      1   0.128433D+00  0.506249D-01 -0.670163D+00  0.126429D+01 -0.252082D-02
      2   0.339838D-01  0.154753D+00 -0.114966D+00  0.162942D+00  0.129318D+00
      3  -0.348867D-01  0.271086D-01  0.599993D+00  0.975718D-01 -0.257889D-01
                21            22            23            24            25 
      1   0.463323D+00 -0.319604D-01  0.402150D+00  0.361666D-01  0.177056D+00
      2   0.454909D-01 -0.217560D+00  0.559163D+00  0.114074D+00  0.111025D+00
      3   0.143631D+00 -0.692806D-01  0.412121D-01  0.156422D+00  0.499046D-01
                26            27            28            29            30 
      1   0.109676D+00  0.595964D-01  0.107299D+00 -0.276890D+00 -0.130477D+00
      2   0.718188D+00  0.315621D+00  0.113883D+00  0.597373D+00  0.273743D+00
      3   0.277423D+00  0.189802D+00  0.792824D-01  0.337813D+00  0.279429D+00
                31            32            33 
      1   0.730971D+00  0.117904D+01  0.304393D+00
      2   0.102497D+00  0.599669D+00  0.721740D-01
      3   0.648576D-01  0.157803D+00  0.317475D+00
 Hessian after L701:
                1             2             3             4             5 
      1  0.337409D+01
      2 -0.295694D+01  0.104510D+02
      3 -0.812006D+00  0.184802D+01  0.132954D+02
      4  0.452440D+00 -0.166260D+00  0.905646D-01  0.323395D+01
      5 -0.199692D+00 -0.178068D+00 -0.327863D-01 -0.924400D+00  0.891457D+01
      6  0.855931D-01 -0.311495D-01 -0.198362D+00 -0.234063D+01 -0.999907D+00
      7 -0.452151D+01  0.357541D+01 -0.144524D+01  0.188037D+00  0.359526D-02
      8  0.339671D+01 -0.237327D+01 -0.229257D+01  0.350167D-02 -0.107599D+00
      9 -0.136788D+01 -0.228141D+01 -0.625918D+01 -0.170738D-02 -0.324468D-02
     10  0.421896D+00  0.650630D+00  0.249889D+01  0.162413D+00 -0.295948D+00
     11  0.846584D+00 -0.807258D+01 -0.188798D+00 -0.241666D+00  0.406332D-02
     12  0.234210D+01 -0.162128D+00 -0.736132D+01 -0.166274D+00 -0.928548D-01
     13  0.181063D+00 -0.465420D+00 -0.455630D+00  0.525102D+00  0.625943D-01
     14 -0.494417D+00  0.113058D+00  0.484031D-01  0.227243D+00 -0.766857D+01
     15 -0.335205D+00  0.333524D-01 -0.112662D-01  0.212116D+01 -0.752293D-02
     16  0.359787D-01 -0.171753D+00  0.356649D-01  0.260346D-01 -0.688948D-03
     17 -0.128161D+00 -0.159041D+00  0.157296D+00  0.128333D-02 -0.118085D-01
     18  0.161392D-01  0.174422D+00  0.355259D+00 -0.296838D-01  0.477496D-02
     19  0.159255D+00 -0.503466D-01  0.629443D-01  0.300871D-01 -0.586677D-02
     20 -0.900187D-01 -0.962483D-01  0.296958D-01  0.862573D-03 -0.695685D-02
     21  0.102614D+00  0.508511D-01  0.156071D-01  0.723538D-02 -0.236433D-02
     22  0.784994D-01 -0.259497D+00  0.637224D-01  0.893347D-02  0.532229D-02
     23 -0.212374D+00  0.107063D+00  0.317214D+00  0.293978D-01 -0.111941D-01
     24  0.323891D-01  0.278962D+00  0.657786D-01  0.918728D-02  0.126967D-02
     25 -0.239819D+00 -0.976656D-01 -0.455296D-01  0.669027D-02 -0.609473D-01
     26 -0.860290D-01  0.172671D+00  0.794898D-01 -0.101639D+00  0.681516D-01
     27 -0.575145D-01  0.528831D-01  0.162109D+00 -0.336418D-01  0.472047D-01
     28  0.935007D-02 -0.599165D-01 -0.744849D-02 -0.183887D+00 -0.106316D+00
     29 -0.118662D+00  0.522154D-01  0.276949D-01 -0.600799D-01  0.906322D-01
     30 -0.285503D-01  0.353781D-01 -0.518618D-01 -0.647255D-01  0.108580D-01
     31  0.487505D-01  0.175896D-02  0.140660D-01 -0.444980D+01  0.152235D+01
     32  0.429957D-01 -0.168294D-01  0.634784D-02  0.123176D+01 -0.109322D+01
     33  0.223202D-01  0.827345D-03 -0.122111D-01  0.408519D+00  0.107457D+01
                6             7             8             9            10 
      6  0.125337D+02
      7 -0.963167D-02  0.117738D+02
      8  0.413583D-03 -0.314046D+01  0.108087D+02
      9 -0.103413D+00  0.136386D+01  0.187378D+01  0.141107D+02
     10 -0.277835D+00  0.211332D+00  0.255902D+00 -0.100210D+00  0.706658D+01
     11 -0.652533D-01  0.211701D+00 -0.124593D-01 -0.480066D-01  0.322935D+01
     12  0.512461D-01 -0.838584D-01 -0.476095D-01 -0.969076D-01 -0.198602D+01
     13  0.217458D+01  0.281211D+00  0.413070D-01 -0.104167D+00 -0.432860D+01
     14 -0.114059D-01  0.600885D-01 -0.206550D+00 -0.280099D-01 -0.454319D+01
     15 -0.742698D+01 -0.885072D-01 -0.126648D-01 -0.162896D+00 -0.412740D+00
     16 -0.123383D-01 -0.334701D+01 -0.122986D-02 -0.376765D+00  0.741887D-01
     17 -0.523694D-03 -0.277592D-02 -0.335423D+01 -0.139568D+00  0.257447D-01
     18 -0.110376D-02 -0.226934D+00 -0.534218D-01 -0.914355D+00 -0.105373D+00
     19  0.395991D-03 -0.126975D+01  0.165153D-01  0.748649D+00  0.156719D+00
     20 -0.932509D-03  0.823073D-01 -0.324914D+01  0.265211D-01  0.532439D-01
     21 -0.715890D-02  0.685003D+00 -0.269301D-04 -0.299483D+01  0.418048D-01
     22  0.659523D-03 -0.341057D+01 -0.623395D+00 -0.151411D+00 -0.872748D-01
     23 -0.494557D-03 -0.851118D+00 -0.153997D+01  0.546179D+00 -0.825235D-01
     24 -0.145972D-01 -0.181756D+00  0.482449D+00 -0.351426D+01 -0.267016D-02
     25 -0.208865D-01  0.379793D-01  0.749526D-01  0.148367D-01 -0.380599D+01
     26  0.437894D-01  0.996620D-01  0.524028D-01  0.277635D-01  0.533570D+00
     27 -0.391901D-01  0.303324D-01  0.291904D-01 -0.400479D-01  0.277204D+00
     28 -0.669108D-01  0.376453D-01 -0.274102D-01 -0.278561D-01  0.175196D+00
     29  0.384901D-01 -0.601837D-01 -0.124101D-01  0.236911D-01  0.150509D+00
     30  0.702084D-01 -0.483210D-01  0.211989D-01 -0.181911D-01  0.972180D-01
     31  0.467000D+00  0.188394D-01  0.361144D-02  0.264862D-02 -0.464500D-01
     32  0.102697D+01  0.217822D-01 -0.543107D-02  0.231133D-02  0.227115D-01
     33 -0.486434D+01  0.505667D-02 -0.731967D-03 -0.666120D-02 -0.302718D-01
               11            12            13            14            15 
     11  0.153955D+02
     12 -0.309671D+01  0.216761D+02
     13 -0.470170D+01 -0.418250D+00  0.670642D+01
     14 -0.516053D+01  0.255566D+01  0.407660D+01  0.153053D+02
     15  0.256645D+01 -0.109329D+02 -0.166733D+01 -0.329918D+01  0.218802D+02
     16  0.212701D-01 -0.629187D-01 -0.302140D-01 -0.196728D-01  0.249849D-01
     17 -0.603193D-01 -0.780829D-02 -0.216167D-01 -0.512153D-02  0.121096D-01
     18 -0.216635D-01  0.125302D-01  0.495174D-02  0.118606D-01 -0.153679D-01
     19  0.526500D-01  0.409728D-01  0.501991D-01 -0.600307D-02  0.991034D-02
     20 -0.316383D-01  0.128873D-01 -0.924597D-03 -0.147185D-01 -0.837336D-03
     21  0.129548D-01 -0.372534D-01  0.110212D-01 -0.140634D-02 -0.107101D-01
     22 -0.897655D-01 -0.136488D-01  0.133356D+00  0.154088D+00 -0.708976D-02
     23  0.122710D-01 -0.857287D-02  0.217018D+00  0.346005D-01 -0.786412D-02
     24  0.825955D-02  0.297500D-01  0.400139D-02 -0.542069D-02 -0.837520D-01
     25  0.542246D+00  0.284429D+00  0.254620D+00  0.176206D+00  0.100529D+00
     26 -0.190412D+01  0.107985D+01  0.201503D+00 -0.251954D+00 -0.301705D+00
     27  0.106855D+01 -0.339038D+01  0.115982D+00 -0.280684D+00  0.118570D+00
     28  0.181128D+00  0.108711D+00 -0.391157D+01  0.469690D+00  0.251613D+00
     29 -0.159370D+00 -0.236001D+00  0.557840D+00 -0.219590D+01  0.101802D+01
     30 -0.224822D+00  0.608264D-01  0.302873D+00  0.103575D+01 -0.343833D+01
     31 -0.517898D-01 -0.452380D-01  0.138409D+00 -0.100640D+00  0.267556D-02
     32 -0.107777D-01  0.328494D-02  0.327987D-01  0.504208D-01 -0.157024D-03
     33 -0.109651D-01 -0.117301D-01  0.319619D-01 -0.255716D-01  0.834003D-01
               16            17            18            19            20 
     16  0.300362D+01
     17  0.170112D-01  0.345786D+01
     18  0.370078D+00  0.235284D+00  0.841981D+00
     19  0.221717D-01  0.103932D-02 -0.118199D+00  0.962348D+00
     20 -0.685548D-02  0.757326D-01 -0.838053D-02 -0.191814D+00  0.331144D+01
     21 -0.119483D+00  0.528419D-02 -0.100974D+00 -0.728887D+00 -0.821854D-01
     22  0.175958D+00  0.733905D-01  0.123734D+00 -0.115285D+00  0.154303D+00
     23  0.121604D+00  0.409925D-01 -0.323552D+00  0.177849D+00  0.117201D-01
     24  0.160194D+00 -0.258586D+00 -0.170306D+00 -0.172327D-01  0.221314D-01
     25  0.283767D-01  0.349928D-01 -0.202720D-01  0.765546D-03 -0.167642D-02
     26  0.438133D-01  0.190003D-01 -0.248371D-01  0.779847D-02  0.209789D-03
     27 -0.780866D-02 -0.629331D-02 -0.144558D-01  0.358198D-02  0.198130D-03
     28  0.687538D-02 -0.218390D-02 -0.995803D-02 -0.130486D-02 -0.141223D-03
     29 -0.764670D-02 -0.321104D-02  0.115029D-01 -0.883682D-02 -0.556313D-03
     30 -0.116163D-01  0.268005D-02  0.879828D-02 -0.416037D-02  0.661998D-03
     31  0.402383D-02  0.127561D-02 -0.448346D-02  0.479236D-02  0.713677D-03
     32  0.414776D-02  0.148654D-03 -0.598878D-02  0.701585D-02  0.156412D-03
     33  0.853467D-05  0.125382D-03 -0.200537D-02  0.202545D-02  0.240009D-03
               21            22            23            24            25 
     21  0.302344D+01
     22 -0.283929D-02  0.321397D+01
     23  0.133043D-01  0.600061D+00  0.135806D+01
     24  0.113612D+00 -0.151293D-02 -0.529685D+00  0.357656D+01
     25  0.182920D-02 -0.562075D-02 -0.101876D-01 -0.124878D-02  0.370650D+01
     26  0.325914D-02 -0.135202D-01 -0.764020D-02 -0.810173D-03 -0.646421D+00
     27  0.251161D-03 -0.487860D-02 -0.223709D-02  0.256570D-02 -0.307787D+00
     28  0.380534D-03  0.801707D-02  0.609717D-02 -0.233109D-02 -0.168619D-01
     29 -0.168034D-02 -0.172496D-02 -0.118342D-01 -0.258670D-03 -0.340266D-03
     30 -0.199430D-02 -0.686232D-02 -0.597164D-02 -0.495258D-02 -0.274256D-02
     31  0.132135D-02  0.155556D-04  0.417525D-02  0.980229D-03  0.333665D-01
     32  0.200984D-02  0.737437D-03  0.593188D-02  0.168947D-02 -0.111588D-01
     33  0.794333D-05  0.125842D-03  0.168046D-02 -0.394924D-03 -0.315649D-02
               26            27            28            29            30 
     26  0.182166D+01
     27 -0.936627D+00  0.321121D+01
     28 -0.134250D-02 -0.321734D-02  0.385508D+01
     29  0.540663D-01  0.295039D-01 -0.514021D+00  0.213884D+01
     30  0.305583D-01  0.893281D-02 -0.268967D+00 -0.946965D+00  0.336728D+01
     31 -0.373951D-01 -0.122522D-01  0.214551D-01  0.631473D-01  0.358545D-01
     32 -0.244516D-01 -0.169161D-02  0.544165D-01  0.475248D-01  0.406694D-01
     33 -0.725937D-03 -0.195629D-01  0.259843D-01  0.359975D-01 -0.716228D-03
               31            32            33 
     31  0.422660D+01
     32 -0.140720D+01  0.104652D+01
     33 -0.462573D+00 -0.107545D+01  0.483421D+01
 Leave Link  701 at Tue Sep 24 13:27:34 2019, MaxMem=   671088640 cpu:              37.6 elap:              18.8
 (Enter /shared/centos7/gaussian/g16/l702.exe)
 L702 exits ... SP integral derivatives will be done elsewhere.
 Leave Link  702 at Tue Sep 24 13:27:35 2019, MaxMem=   671088640 cpu:               1.3 elap:               0.7
 (Enter /shared/centos7/gaussian/g16/l703.exe)
 Integral derivatives from FoFJK, PRISM(SPDF).
 Compute integral second derivatives, UseDBF=F ICtDFT=           0.
 ICntrl=    100147.
 Calling FoFJK, ICntrl=    100147 FMM=F ISym2X=0 I1Cent= 0 IOpClX= 0 NMat=1 NMatS=1 NMatT=0.
 FoFJK:  IHMeth= 1 ICntrl=  100147 DoSepK=F KAlg= 0 I1Cent=           0 FoldK=F
 IRaf=         0 NMat=       1 IRICut=       1 DoRegI=T DoRafI=F ISym2E= 0 IDoP0=0 IntGTp=1.
 FoFCou: FMM=F IPFlag=           0 FMFlag=      100000 FMFlg1=         800
         NFxFlg=           0 DoJE=F BraDBF=F KetDBF=F FulRan=T
         wScrn=  0.000000 ICntrl=    100147 IOpCl=  0 I1Cent=           0 NGrid=           0
         NMat0=    1 NMatS0=      1 NMatT0=    0 NMatD0=    1 NMtDS0=    0 NMtDT0=    0
 Symmetry not used in FoFCou.
 FoFCou:  KetSym=F NOpSet=  1 NOpAb=1 NOp=  1.
 FoFCou:  CnvScl= 1.00D+00 Thresh= 1.00D-08 IAcrcy=      12.
 PrismS was handed   670742985 working-precision words and  3606 shell-pairs
 FoFCou: LinMIO=F DoNuc=F BraDBF=F KetDBF=F HaveP=T PDBF=F HaveZ=T HaveW=F
         NIJTC =      10 NIJTAt=       0 NIJTCD=       0 NIJTT =      10
         IJTBeg=       1 IJTEnd=      10 KLTBeg=       1 KLTEnd=      10
         IPTBeg=       1 IPTEnd=      10 IPTBCv=       1 IPTECv=      10
         IZTBeg=       1 IZTEnd=      10 IZTBCv=       1 IZTECv=      10
         IWTBeg=      11 IWTEnd=      10 IWTBCv=      11 IWTECv=      10
         INTBeg=       1 INTEnd=       0 IFTBCv=       1 IFTECv=      10
 NCel replicated for PrismC:     1
 CoulSu-InSpLW:  IPartL=    0 NPrtUS=   20 NPrtUL=    1 DoSpLW=F IThBeg=    0 IThEnd=   19 NThAct=   20.
 CoulSu:  IncDef=  1024 NBBP=        6503421 NTPThr=   100 NPartT=   20 Incr=        1024 LDynOK=F GPUOK=T.
 CoulSu:  NPrtUS=  20 ThrOK=T IAlg=1 NPAlg=1 LenDen=           0 LWGrdD=           0 DoCopy=F ISkipM=0
          DoSpLW=F IThBeg=    0 IThEnd=   19.
 Enter PrismC:  IPart=  0 JobTyp=22 DoJE=F Cont=F.
 PrismC:  IPart=     0 DynPar=T LinDyn=F Incr=        1024 UseFst=F UseS4=T ISplat=2.
 PrismC was handed    33457328 working-precision words and  3606 shell-pairs
 Enter PrismC:  IPart=  1 JobTyp=22 DoJE=F Cont=F.
 PrismC:  IPart=     1 DynPar=T LinDyn=F Incr=        1024 UseFst=F UseS4=T ISplat=2.
 PrismC was handed    33457328 working-precision words and  3606 shell-pairs
 Enter PrismC:  IPart= 16 JobTyp=22 DoJE=F Cont=F.
 PrismC:  IPart=    16 DynPar=T LinDyn=F Incr=        1024 UseFst=F UseS4=T ISplat=2.
 PrismC was handed    33457328 working-precision words and  3606 shell-pairs
 Enter PrismC:  IPart= 10 JobTyp=22 DoJE=F Cont=F.
 PrismC:  IPart=    10 DynPar=T LinDyn=F Incr=        1024 UseFst=F UseS4=T ISplat=2.
 PrismC was handed    33457328 working-precision words and  3606 shell-pairs
 Enter PrismC:  IPart= 12 JobTyp=22 DoJE=F Cont=F.
 PrismC:  IPart=    12 DynPar=T LinDyn=F Incr=        1024 UseFst=F UseS4=T ISplat=2.
 PrismC was handed    33457328 working-precision words and  3606 shell-pairs
 Enter PrismC:  IPart=  3 JobTyp=22 DoJE=F Cont=F.
 PrismC:  IPart=     3 DynPar=T LinDyn=F Incr=        1024 UseFst=F UseS4=T ISplat=2.
 PrismC was handed    33457328 working-precision words and  3606 shell-pairs
 Enter PrismC:  IPart= 13 JobTyp=22 DoJE=F Cont=F.
 PrismC:  IPart=    13 DynPar=T LinDyn=F Incr=        1024 UseFst=F UseS4=T ISplat=2.
 PrismC was handed    33457328 working-precision words and  3606 shell-pairs
 Enter PrismC:  IPart= 11 JobTyp=22 DoJE=F Cont=F.
 PrismC:  IPart=    11 DynPar=T LinDyn=F Incr=        1024 UseFst=F UseS4=T ISplat=2.
 PrismC was handed    33457328 working-precision words and  3606 shell-pairs
 Enter PrismC:  IPart=  2 JobTyp=22 DoJE=F Cont=F.
 PrismC:  IPart=     2 DynPar=T LinDyn=F Incr=        1024 UseFst=F UseS4=T ISplat=2.
 PrismC was handed    33457328 working-precision words and  3606 shell-pairs
 Enter PrismC:  IPart=  5 JobTyp=22 DoJE=F Cont=F.
 Enter PrismC:  IPart= 17 JobTyp=22 DoJE=F Cont=F.
 PrismC:  IPart=     5 DynPar=T LinDyn=F Incr=        1024 UseFst=F UseS4=T ISplat=2.
 PrismC:  IPart=    17 DynPar=T LinDyn=F Incr=        1024 UseFst=F UseS4=T ISplat=2.
 PrismC was handed    33457328 working-precision words and  3606 shell-pairs
 PrismC was handed    33457328 working-precision words and  3606 shell-pairs
 Enter PrismC:  IPart= 19 JobTyp=22 DoJE=F Cont=F.
 PrismC:  IPart=    19 DynPar=T LinDyn=F Incr=        1024 UseFst=F UseS4=T ISplat=2.
 PrismC was handed    33457328 working-precision words and  3606 shell-pairs
 Enter PrismC:  IPart= 14 JobTyp=22 DoJE=F Cont=F.
 PrismC:  IPart=    14 DynPar=T LinDyn=F Incr=        1024 UseFst=F UseS4=T ISplat=2.
 PrismC was handed    33457328 working-precision words and  3606 shell-pairs
 Enter PrismC:  IPart= 18 JobTyp=22 DoJE=F Cont=F.
 PrismC:  IPart=    18 DynPar=T LinDyn=F Incr=        1024 UseFst=F UseS4=T ISplat=2.
 PrismC was handed    33457328 working-precision words and  3606 shell-pairs
 Enter PrismC:  IPart=  7 JobTyp=22 DoJE=F Cont=F.
 Enter PrismC:  IPart=  9 JobTyp=22 DoJE=F Cont=F.
 PrismC:  IPart=     7 DynPar=T LinDyn=F Incr=        1024 UseFst=F UseS4=T ISplat=2.
 PrismC was handed    33457328 working-precision words and  3606 shell-pairs
 PrismC:  IPart=     9 DynPar=T LinDyn=F Incr=        1024 UseFst=F UseS4=T ISplat=2.
 PrismC was handed    33457328 working-precision words and  3606 shell-pairs
 Enter PrismC:  IPart= 15 JobTyp=22 DoJE=F Cont=F.
 PrismC:  IPart=    15 DynPar=T LinDyn=F Incr=        1024 UseFst=F UseS4=T ISplat=2.
 PrismC was handed    33457328 working-precision words and  3606 shell-pairs
 Enter PrismC:  IPart=  6 JobTyp=22 DoJE=F Cont=F.
 PrismC:  IPart=     6 DynPar=T LinDyn=F Incr=        1024 UseFst=F UseS4=T ISplat=2.
 PrismC was handed    33457328 working-precision words and  3606 shell-pairs
 Enter PrismC:  IPart=  4 JobTyp=22 DoJE=F Cont=F.
 PrismC:  IPart=     4 DynPar=T LinDyn=F Incr=        1024 UseFst=F UseS4=T ISplat=2.
 PrismC was handed    33457328 working-precision words and  3606 shell-pairs
 Enter PrismC:  IPart=  8 JobTyp=22 DoJE=F Cont=F.
 PrismC:  IPart=     8 DynPar=T LinDyn=F Incr=        1024 UseFst=F UseS4=T ISplat=2.
 PrismC was handed    33457328 working-precision words and  3606 shell-pairs
 IPart= 14 NShTot=      215221 NShNF=      215221 NShFF=           0 MinMC=       7
           NShCPU=      215221 NBCPU=        8715 AvBCPU=        24.7
           NShGPU=           0 NBGPU=           0 AvBGPU=         0.0
 IPart= 19 NShTot=      219588 NShNF=      219588 NShFF=           0 MinMC=       7
           NShCPU=      219588 NBCPU=        8621 AvBCPU=        25.5
           NShGPU=           0 NBGPU=           0 AvBGPU=         0.0
 IPart=  1 NShTot=      210822 NShNF=      210822 NShFF=           0 MinMC=       7
           NShCPU=      210822 NBCPU=        9189 AvBCPU=        22.9
           NShGPU=           0 NBGPU=           0 AvBGPU=         0.0
 IPart=  3 NShTot=      213592 NShNF=      213592 NShFF=           0 MinMC=       7
           NShCPU=      213592 NBCPU=        9116 AvBCPU=        23.4
           NShGPU=           0 NBGPU=           0 AvBGPU=         0.0
 IPart= 16 NShTot=      216644 NShNF=      216644 NShFF=           0 MinMC=       7
           NShCPU=      216644 NBCPU=        9711 AvBCPU=        22.3
           NShGPU=           0 NBGPU=           0 AvBGPU=         0.0
 IPart=  5 NShTot=      217718 NShNF=      217718 NShFF=           0 MinMC=       7
           NShCPU=      217718 NBCPU=        9084 AvBCPU=        24.0
           NShGPU=           0 NBGPU=           0 AvBGPU=         0.0
 IPart=  2 NShTot=      220841 NShNF=      220841 NShFF=           0 MinMC=       7
           NShCPU=      220841 NBCPU=        9451 AvBCPU=        23.4
           NShGPU=           0 NBGPU=           0 AvBGPU=         0.0
 IPart=  7 NShTot=      227566 NShNF=      227566 NShFF=           0 MinMC=       7
           NShCPU=      227566 NBCPU=        9421 AvBCPU=        24.2
           NShGPU=           0 NBGPU=           0 AvBGPU=         0.0
 IPart=  6 NShTot=      216209 NShNF=      216209 NShFF=           0 MinMC=       7
           NShCPU=      216209 NBCPU=        8475 AvBCPU=        25.5
           NShGPU=           0 NBGPU=           0 AvBGPU=         0.0
 IPart= 18 NShTot=      213110 NShNF=      213110 NShFF=           0 MinMC=       7
           NShCPU=      213110 NBCPU=        9314 AvBCPU=        22.9
           NShGPU=           0 NBGPU=           0 AvBGPU=         0.0
 IPart=  9 NShTot=      215308 NShNF=      215308 NShFF=           0 MinMC=       7
           NShCPU=      215308 NBCPU=        9262 AvBCPU=        23.2
           NShGPU=           0 NBGPU=           0 AvBGPU=         0.0
 IPart= 13 NShTot=      209963 NShNF=      209963 NShFF=           0 MinMC=       7
           NShCPU=      209963 NBCPU=        8735 AvBCPU=        24.0
           NShGPU=           0 NBGPU=           0 AvBGPU=         0.0
 IPart= 17 NShTot=      220179 NShNF=      220179 NShFF=           0 MinMC=       7
           NShCPU=      220179 NBCPU=        9247 AvBCPU=        23.8
           NShGPU=           0 NBGPU=           0 AvBGPU=         0.0
 IPart= 12 NShTot=      216757 NShNF=      216757 NShFF=           0 MinMC=       7
           NShCPU=      216757 NBCPU=        9141 AvBCPU=        23.7
           NShGPU=           0 NBGPU=           0 AvBGPU=         0.0
 IPart= 15 NShTot=      221414 NShNF=      221414 NShFF=           0 MinMC=       7
           NShCPU=      221414 NBCPU=        9152 AvBCPU=        24.2
           NShGPU=           0 NBGPU=           0 AvBGPU=         0.0
 IPart=  4 NShTot=      210665 NShNF=      210665 NShFF=           0 MinMC=       7
           NShCPU=      210665 NBCPU=        8967 AvBCPU=        23.5
           NShGPU=           0 NBGPU=           0 AvBGPU=         0.0
 IPart= 11 NShTot=      217721 NShNF=      217721 NShFF=           0 MinMC=       7
           NShCPU=      217721 NBCPU=        9056 AvBCPU=        24.0
           NShGPU=           0 NBGPU=           0 AvBGPU=         0.0
 IPart=  0 NShTot=      206153 NShNF=      206153 NShFF=           0 MinMC=       7
           NShCPU=      206153 NBCPU=        8599 AvBCPU=        24.0
           NShGPU=           0 NBGPU=           0 AvBGPU=         0.0
 IPart= 10 NShTot=      223942 NShNF=      223942 NShFF=           0 MinMC=       7
           NShCPU=      223942 NBCPU=        8907 AvBCPU=        25.1
           NShGPU=           0 NBGPU=           0 AvBGPU=         0.0
 IPart=  8 NShTot=      213695 NShNF=      213695 NShFF=           0 MinMC=       7
           NShCPU=      213695 NBCPU=        9077 AvBCPU=        23.5
           NShGPU=           0 NBGPU=           0 AvBGPU=         0.0
 CoulSu:  NxtVal=        6937601 LenVP=       33457329 MinMC=       7.
 ReadGW:  IGet=0 IStart=           1 Next=           1 LGW=           0.
 Remaining memory in FofDFT      639.93 Mw
 CkSvGd:  ISavGI=        -1 IRadAn=       5 IRASav=       5 ISavGd=        -1.
 CalDSu-InSpLW:  IPartL=    0 NPrtUS=   20 NPrtUL=    1 DoSpLW=F IThBeg=    0 IThEnd=   19 NThAct=   20.
 CalDSu:  NPrtUS=  20 ThrOK=T IAlg=1 NPAlg=2 DoDPD=T LenP=       35245 LenD1P=             0 GPUOK=F
          ISkipM=0 DoSpLW=F IThBeg=    0 IThEnd=   19.
 IPart=  0 IRanGd=          0 ScrnBf=T ScrnGd=T RCrit=4.00D+00 DoMicB=T.
 IPart= 15        11268 of        12914 points in      15 batches and       89 microbatches, Max-NSigAt=      11 Max-NSgAt2=      11
 IPart= 14        10321 of        11076 points in      11 batches and       60 microbatches, Max-NSigAt=      11 Max-NSgAt2=      11
 IPart=  3        11767 of        13196 points in      14 batches and       63 microbatches, Max-NSigAt=      11 Max-NSgAt2=      11
 IPart= 18        12280 of        13814 points in      15 batches and       64 microbatches, Max-NSigAt=      11 Max-NSgAt2=      11
 IPart=  7        10115 of        10732 points in      11 batches and       65 microbatches, Max-NSigAt=      11 Max-NSgAt2=      11
 IPart= 11        10875 of        11638 points in      12 batches and       72 microbatches, Max-NSigAt=      11 Max-NSgAt2=      11
 IPart=  0        10193 of        10906 points in      11 batches and       63 microbatches, Max-NSigAt=      11 Max-NSgAt2=      11
 IPart=  5        11632 of        12530 points in      13 batches and       63 microbatches, Max-NSigAt=      11 Max-NSgAt2=      11
 IPart= 10        11316 of        12104 points in      13 batches and       53 microbatches, Max-NSigAt=      11 Max-NSgAt2=      11
 IPart=  2        10813 of        11462 points in      11 batches and       60 microbatches, Max-NSigAt=      11 Max-NSgAt2=      11
 IPart=  9         9994 of        10674 points in      11 batches and       70 microbatches, Max-NSigAt=      11 Max-NSgAt2=      11
 IPart=  8        14023 of        16142 points in      18 batches and       73 microbatches, Max-NSigAt=      11 Max-NSgAt2=      11
 IPart= 19        10399 of        11032 points in      11 batches and       66 microbatches, Max-NSigAt=      11 Max-NSgAt2=      11
 IPart= 17        12126 of        13542 points in      14 batches and       79 microbatches, Max-NSigAt=      11 Max-NSgAt2=      11
 IPart=  4        11896 of        13100 points in      13 batches and       63 microbatches, Max-NSigAt=      11 Max-NSgAt2=      11
 IPart= 16        10296 of        10738 points in      11 batches and       55 microbatches, Max-NSigAt=      11 Max-NSgAt2=      11
 IPart=  1        12231 of        13618 points in      14 batches and       64 microbatches, Max-NSigAt=      11 Max-NSgAt2=      11
 IPart= 12        11970 of        13212 points in      13 batches and       57 microbatches, Max-NSigAt=      11 Max-NSgAt2=      11
 IPart= 13        10989 of        12842 points in      14 batches and       94 microbatches, Max-NSigAt=      11 Max-NSgAt2=      11
 IPart=  6        10740 of        11430 points in      11 batches and       65 microbatches, Max-NSigAt=      11 Max-NSgAt2=      11
 Polarizability after L703:
                1             2             3 
      1  0.000000D+00
      2  0.000000D+00  0.000000D+00
      3  0.000000D+00  0.000000D+00  0.000000D+00
 Dipole Derivatives after L703:
                 1             2             3             4             5 
      1  -0.174116D+00 -0.108095D+00  0.535721D-01 -0.301381D+00 -0.137641D+01
      2  -0.151506D+00 -0.181850D+00 -0.553311D-01 -0.280620D+00 -0.712416D+00
      3   0.704268D-01 -0.460652D-01 -0.211424D+00 -0.536586D-01 -0.166023D+00
                 6             7             8             9            10 
      1  -0.290468D+00 -0.111727D+01 -0.451215D+00  0.189755D+00 -0.439556D+00
      2  -0.116479D+00 -0.597259D-01 -0.804848D+00 -0.911341D-02  0.625725D-01
      3  -0.435276D+00  0.533349D-01  0.160007D-02 -0.790303D+00 -0.177314D+00
                11            12            13            14            15 
      1   0.202705D+00 -0.186816D+00 -0.343768D+00  0.270936D+00  0.171117D+00
      2  -0.571848D+00 -0.316415D+00  0.122509D+00 -0.487503D+00 -0.208799D+00
      3  -0.326060D+00 -0.175888D+00 -0.802386D-01 -0.279023D+00 -0.738626D-01
                16            17            18            19            20 
      1   0.128433D+00  0.506249D-01 -0.670163D+00  0.126429D+01 -0.252082D-02
      2   0.339838D-01  0.154753D+00 -0.114966D+00  0.162942D+00  0.129318D+00
      3  -0.348867D-01  0.271086D-01  0.599993D+00  0.975718D-01 -0.257889D-01
                21            22            23            24            25 
      1   0.463323D+00 -0.319604D-01  0.402150D+00  0.361666D-01  0.177056D+00
      2   0.454909D-01 -0.217560D+00  0.559163D+00  0.114074D+00  0.111025D+00
      3   0.143631D+00 -0.692806D-01  0.412121D-01  0.156422D+00  0.499046D-01
                26            27            28            29            30 
      1   0.109676D+00  0.595964D-01  0.107299D+00 -0.276890D+00 -0.130477D+00
      2   0.718188D+00  0.315621D+00  0.113883D+00  0.597373D+00  0.273743D+00
      3   0.277423D+00  0.189802D+00  0.792824D-01  0.337813D+00  0.279429D+00
                31            32            33 
      1   0.730971D+00  0.117904D+01  0.304393D+00
      2   0.102497D+00  0.599669D+00  0.721740D-01
      3   0.648576D-01  0.157803D+00  0.317475D+00
 Hessian after L703:
                1             2             3             4             5 
      1  0.451922D+00
      2  0.952864D-01  0.279099D+00
      3  0.441397D-01 -0.914023D-01  0.143422D+00
      4 -0.142098D-01  0.868938D-04 -0.585141D-02  0.428176D+00
      5  0.520550D-02  0.100341D-02 -0.531861D-02  0.503382D-01  0.411654D+00
      6 -0.580690D-02 -0.825635D-02  0.633175D-02  0.922226D-01  0.852085D-01
      7 -0.104502D+00 -0.343696D-01  0.104112D-01  0.354137D-02  0.481263D-03
      8 -0.614578D-01 -0.162974D+00  0.579292D-01  0.745427D-02 -0.200124D-02
      9  0.291099D-01  0.622308D-01 -0.853679D-01 -0.138493D-02  0.485943D-03
     10 -0.252682D+00 -0.176820D-01 -0.549276D-01 -0.410802D-01  0.246215D-01
     11  0.121877D-01 -0.856690D-01  0.560396D-02  0.566220D-03  0.106867D-01
     12 -0.691333D-01 -0.238147D-02 -0.685378D-01 -0.625207D-02  0.963557D-02
     13 -0.397503D-01  0.234424D-01  0.893547D-02 -0.287290D+00 -0.138865D-01
     14  0.658353D-03  0.953865D-02  0.775865D-02  0.253007D-01 -0.101721D+00
     15 -0.969544D-02  0.121995D-01  0.579883D-02 -0.547252D-01 -0.253297D-01
     16 -0.582265D-02 -0.859654D-02  0.200579D-01  0.460119D-04  0.724465D-04
     17 -0.110286D-01 -0.764426D-02  0.322075D-01 -0.605589D-03  0.306486D-03
     18  0.817661D-02  0.121223D-01 -0.973012D-02  0.104988D-02 -0.542973D-04
     19 -0.190035D-01 -0.399721D-02 -0.462990D-02 -0.109691D-02  0.157741D-03
     20 -0.312684D-01 -0.271320D-02 -0.852408D-02 -0.690711D-03  0.531870D-03
     21  0.145960D-01  0.463229D-03  0.527794D-02 -0.197808D-04 -0.132703D-03
     22  0.481020D-02 -0.240633D-01 -0.179007D-02  0.245324D-03  0.259442D-04
     23 -0.347715D-02 -0.338994D-01  0.102318D-02 -0.879727D-03  0.617415D-03
     24 -0.429907D-02  0.180549D-01  0.552713D-02  0.528255D-04  0.191299D-04
     25 -0.233093D-01 -0.289064D-01 -0.163338D-01  0.346867D-02 -0.161437D-03
     26 -0.544229D-02  0.331860D-02 -0.173261D-02 -0.293248D-03  0.153505D-02
     27 -0.104991D-01 -0.628835D-02  0.255708D-02  0.744666D-03  0.269893D-02
     28  0.860573D-03 -0.223364D-02  0.506426D-03 -0.184071D-01 -0.319501D-01
     29 -0.162924D-02  0.457932D-03  0.308415D-02 -0.350373D-02  0.251866D-02
     30  0.194874D-02  0.222004D-02 -0.517224D-02 -0.533039D-02 -0.763658D-02
     31  0.168697D-02  0.103299D-02 -0.517853D-03 -0.733929D-01 -0.349045D-01
     32  0.965482D-03 -0.518047D-03 -0.629049D-03 -0.777733D-01 -0.325131D+00
     33  0.146289D-02  0.103772D-02 -0.106589D-03 -0.205062D-01 -0.595762D-01
                6             7             8             9            10 
      6  0.947468D-01
      7 -0.894074D-03  0.526140D+00
      8  0.266995D-02 -0.530559D-01  0.523220D+00
      9  0.454477D-04  0.151407D-01  0.325659D-01  0.493193D+00
     10  0.909191D-02 -0.433868D-01 -0.193046D-01 -0.397316D-02  0.681065D+00
     11  0.360895D-02 -0.319845D-01 -0.605174D-02 -0.117279D-01 -0.183811D+00
     12  0.107421D-01  0.960181D-02 -0.915457D-02  0.417727D-03  0.129315D-01
     13 -0.612387D-01 -0.987402D-03  0.275117D-02 -0.365142D-03 -0.304720D+00
     14 -0.120170D-01 -0.384633D-02  0.182089D-02 -0.141817D-02  0.230066D+00
     15 -0.633626D-01  0.345119D-03  0.168637D-02  0.128405D-02  0.664431D-01
     16 -0.114671D-04 -0.574743D-01  0.349409D-02  0.689574D-03  0.421389D-02
     17 -0.198602D-03  0.181002D-02 -0.578813D-01 -0.234314D-01  0.469922D-02
     18  0.420167D-03  0.517697D-02 -0.208996D-01 -0.245552D+00 -0.280003D-02
[...]
     Eigenvalues ---    0.04506   0.08689   0.08753   0.10040   0.12730
     Eigenvalues ---    0.13604   0.15635   0.17816   0.18082   0.18948
     Eigenvalues ---    0.21695   0.23493   0.32983   0.33422   0.34683
     Eigenvalues ---    0.35055   0.36978   0.39795   0.43896   0.46229
     Eigenvalues ---    0.54047   0.65356
 Angle between quadratic step and forces=  76.85 degrees.
 Linear search not attempted -- first point.
 Iteration  1 RMS(Cart)=  0.00001198 RMS(Int)=  0.00000000
 Iteration  2 RMS(Cart)=  0.00000000 RMS(Int)=  0.00000000
 ITry= 1 IFail=0 DXMaxC= 3.27D-05 DCOld= 1.00D+10 DXMaxT= 3.00D-01 DXLimC= 3.00D+00 Rises=F
 Variable       Old X    -DE/DX   Delta X   Delta X   Delta X     New X
                                 (Linear)    (Quad)   (Total)
    R1        2.66968   0.00000   0.00000  -0.00000  -0.00000   2.66967
    R2        2.58409   0.00000   0.00000   0.00000   0.00000   2.58409
    R3        2.57255  -0.00000   0.00000  -0.00000  -0.00000   2.57255
    R4        1.81729  -0.00000   0.00000  -0.00000  -0.00000   1.81729
    R5        2.06849  -0.00000   0.00000  -0.00000  -0.00000   2.06849
    R6        2.05367  -0.00000   0.00000  -0.00000  -0.00000   2.05367
    R7        2.06548  -0.00000   0.00000  -0.00000  -0.00000   2.06548
    R8        2.50349   0.00000   0.00000   0.00000   0.00000   2.50350
    R9        2.05854  -0.00000   0.00000  -0.00000  -0.00000   2.05853
   R10        2.04186   0.00000   0.00000   0.00000   0.00000   2.04186
    A1        1.97247   0.00000   0.00000   0.00000   0.00000   1.97247
    A2        1.91328  -0.00000   0.00000   0.00000   0.00000   1.91328
    A3        1.93549   0.00000   0.00000   0.00000   0.00000   1.93549
    A4        1.87134   0.00000   0.00000   0.00000   0.00000   1.87134
    A5        1.93602   0.00000   0.00000   0.00000   0.00000   1.93602
    A6        1.90571  -0.00000   0.00000  -0.00000  -0.00000   1.90571
    A7        1.90058  -0.00000   0.00000  -0.00000  -0.00000   1.90058
    A8        1.91438  -0.00000   0.00000  -0.00000  -0.00000   1.91438
    A9        2.11248   0.00000   0.00000   0.00000   0.00000   2.11248
   A10        2.03047  -0.00000   0.00000  -0.00000  -0.00000   2.03047
   A11        2.13941  -0.00000   0.00000  -0.00000  -0.00000   2.13941
   A12        2.19770   0.00000   0.00000  -0.00000  -0.00000   2.19770
   A13        1.96888  -0.00000   0.00000   0.00000   0.00000   1.96888
   A14        2.11635   0.00000   0.00000   0.00000   0.00000   2.11635
    D1        1.00893   0.00000   0.00000   0.00001   0.00001   1.00893
    D2        3.08798   0.00000   0.00000   0.00001   0.00001   3.08799
    D3       -1.10532   0.00000   0.00000   0.00001   0.00001  -1.10531
    D4        2.27481   0.00000   0.00000   0.00002   0.00002   2.27483
    D5       -0.90918   0.00000   0.00000   0.00002   0.00002  -0.90917
    D6       -0.00002   0.00000   0.00000   0.00001   0.00001  -0.00002
    D7        3.11727   0.00000   0.00000   0.00001   0.00001   3.11727
    D8        3.06125  -0.00000   0.00000  -0.00000  -0.00000   3.06125
    D9       -0.05414  -0.00000   0.00000  -0.00000  -0.00000  -0.05414
   D10       -0.03525   0.00000   0.00000   0.00000   0.00000  -0.03525
   D11        3.13255   0.00000   0.00000   0.00000   0.00000   3.13255
         Item               Value     Threshold  Converged?
 Maximum Force            0.000001     0.000015     YES
 RMS     Force            0.000000     0.000010     YES
 Maximum Displacement     0.000033     0.000060     YES
 RMS     Displacement     0.000012     0.000040     YES
 Predicted change in Energy=-3.804620D-12
 Optimization completed.
    -- Stationary point found.
                           ----------------------------
                           !   Optimized Parameters   !
                           ! (Angstroms and Degrees)  !
 --------------------------                            --------------------------
 ! Name  Definition              Value          Derivative Info.                !
 --------------------------------------------------------------------------------
 ! R1    R(1,3)                  1.4127         -DE/DX =    0.0                 !
 ! R2    R(1,4)                  1.3674         -DE/DX =    0.0                 !
 ! R3    R(2,5)                  1.3613         -DE/DX =    0.0                 !
 ! R4    R(2,11)                 0.9617         -DE/DX =    0.0                 !
 ! R5    R(3,6)                  1.0946         -DE/DX =    0.0                 !
 ! R6    R(3,7)                  1.0868         -DE/DX =    0.0                 !
 ! R7    R(3,8)                  1.093          -DE/DX =    0.0                 !
 ! R8    R(4,5)                  1.3248         -DE/DX =    0.0                 !
 ! R9    R(4,9)                  1.0893         -DE/DX =    0.0                 !
 ! R10   R(5,10)                 1.0805         -DE/DX =    0.0                 !
 ! A1    A(3,1,4)              113.014          -DE/DX =    0.0                 !
 ! A2    A(5,2,11)             109.6227         -DE/DX =    0.0                 !
 ! A3    A(1,3,6)              110.8952         -DE/DX =    0.0                 !
 ! A4    A(1,3,7)              107.2199         -DE/DX =    0.0                 !
 ! A5    A(1,3,8)              110.9258         -DE/DX =    0.0                 !
 ! A6    A(6,3,7)              109.189          -DE/DX =    0.0                 !
 ! A7    A(6,3,8)              108.8952         -DE/DX =    0.0                 !
 ! A8    A(7,3,8)              109.686          -DE/DX =    0.0                 !
 ! A9    A(1,4,5)              121.0364         -DE/DX =    0.0                 !
 ! A10   A(1,4,9)              116.3376         -DE/DX =    0.0                 !
 ! A11   A(5,4,9)              122.5791         -DE/DX =    0.0                 !
 ! A12   A(2,5,4)              125.9188         -DE/DX =    0.0                 !
 ! A13   A(2,5,10)             112.8087         -DE/DX =    0.0                 !
 ! A14   A(4,5,10)             121.2577         -DE/DX =    0.0                 !
 ! D1    D(4,1,3,6)             57.8073         -DE/DX =    0.0                 !
 ! D2    D(4,1,3,7)            176.9282         -DE/DX =    0.0                 !
 ! D3    D(4,1,3,8)            -63.3301         -DE/DX =    0.0                 !
 ! D4    D(3,1,4,5)            130.3369         -DE/DX =    0.0                 !
 ! D5    D(3,1,4,9)            -52.0924         -DE/DX =    0.0                 !
 ! D6    D(11,2,5,4)            -0.0013         -DE/DX =    0.0                 !
 ! D7    D(11,2,5,10)          178.6061         -DE/DX =    0.0                 !
 ! D8    D(1,4,5,2)            175.3966         -DE/DX =    0.0                 !
 ! D9    D(1,4,5,10)            -3.1017         -DE/DX =    0.0                 !
 ! D10   D(9,4,5,2)             -2.0197         -DE/DX =    0.0                 !
 ! D11   D(9,4,5,10)           179.482          -DE/DX =    0.0                 !
 --------------------------------------------------------------------------------
 GradGradGradGradGradGradGradGradGradGradGradGradGradGradGradGradGradGrad

 Leave Link  103 at Tue Sep 24 15:16:40 2019, MaxMem=   671088640 cpu:             108.0 elap:              54.1
 (Enter /shared/centos7/gaussian/g16/l9999.exe)

 ----------------------------------------------------------------------

 Electric dipole moment (input orientation):
 (Debye = 10**-18 statcoulomb cm , SI units = C m)
                  (au)            (Debye)         (10**-30 SI)
   Tot        0.850853D+00      0.216265D+01      0.721384D+01
   x         -0.234706D+00     -0.596564D+00     -0.198992D+01
   y         -0.127755D+00     -0.324721D+00     -0.108315D+01
   z         -0.807801D+00     -0.205323D+01     -0.684882D+01

 Dipole polarizability, Alpha (input orientation).
 (esu units = cm**3 , SI units = C**2 m**2 J**-1)
 Alpha(0;0):
               (au)            (10**-24 esu)      (10**-40 SI)
   iso        0.451719D+02      0.669379D+01      0.744785D+01
   aniso      0.264872D+02      0.392500D+01      0.436715D+01
   xx         0.385858D+02      0.571783D+01      0.636194D+01
   yx         0.108985D+02      0.161500D+01      0.179693D+01
   yy         0.538337D+02      0.797734D+01      0.887598D+01
   zx         0.602108D+00      0.892232D-01      0.992742D-01
   zy         0.730482D+01      0.108246D+01      0.120440D+01
   zz         0.430963D+02      0.638621D+01      0.710561D+01

 ----------------------------------------------------------------------

 Dipole orientation:
     8         -1.00791962          1.40482944         -2.45174194
     8          1.11819007         -4.85174953         -4.27998799
     6         -2.44507782          2.00804444         -0.28428427
     6          0.12944245         -0.91037994         -2.29762211
     6         -0.06610362         -2.57113105         -4.16072501
     1         -1.26894205          1.96332321          1.41669910
     1         -3.17654605          3.90863309         -0.54939555
     1         -4.01383713          0.68544678         -0.04774584
     1          1.25205901         -1.26584469         -0.60914843
     1         -1.20392714         -2.18282235         -5.81110914
     1          2.13509180         -5.08986766         -2.79279163

 Electric dipole moment (dipole orientation):
 (Debye = 10**-18 statcoulomb cm , SI units = C m)
                  (au)            (Debye)         (10**-30 SI)
   Tot        0.850853D+00      0.216265D+01      0.721384D+01
   x          0.000000D+00      0.000000D+00      0.000000D+00
   y          0.000000D+00      0.000000D+00      0.000000D+00
   z          0.850853D+00      0.216265D+01      0.721384D+01

 Dipole polarizability, Alpha (dipole orientation).
 (esu units = cm**3 , SI units = C**2 m**2 J**-1)
 Alpha(0;0):
               (au)            (10**-24 esu)      (10**-40 SI)
   iso        0.451719D+02      0.669379D+01      0.744785D+01
   aniso      0.264872D+02      0.392500D+01      0.436715D+01
   xx         0.382573D+02      0.566915D+01      0.630778D+01
   yx        -0.817176D+01     -0.121093D+01     -0.134734D+01
   yy         0.509626D+02      0.755188D+01      0.840260D+01
   zx        -0.332383D+00     -0.492541D-01     -0.548026D-01
   zy         0.112101D+02      0.166116D+01      0.184829D+01
   zz         0.462959D+02      0.686035D+01      0.763317D+01

 ----------------------------------------------------------------------

 Test job not archived.
 1\1\GINC-C0280\Freq\RM062X\CC-pVTZ\C3H6O2\HARMS.N\24-Sep-2019\0\\#P Ge
 om=AllCheck Guess=TCheck SCRF=Check Test GenChk RM062X/CC-pVTZ Freq\\G
 aussian input prepared by ASE\\0,1\O,-0.1388665625,-0.5286694979,1.490
 5091351\O,1.1388353113,2.8652395351,1.6015491068\C,-1.1792998252,-1.00
 02436129,0.659289619\C,0.3909786296,0.6572842823,1.0630991371\C,0.5448
 29047,1.6761846614,1.8957134519\H,-0.8300094228,-1.1252280158,-0.37052
 40927\H,-1.4911992668,-1.9650716977,1.0502685784\H,-2.0264461117,-0.30
 96055466,0.6643606272\H,0.7113856577,0.696432247,0.022692367\H,0.21149
 81933,1.6170019873,2.9218134074\H,1.4361844292,2.8601896678,0.68701968
 66\\Version=EM64L-G16RevA.03\State=1-A\HF=-268.3171465\RMSD=1.894e-09\
 RMSF=2.021e-06\ZeroPoint=0.0903548\Thermal=0.0964586\Dipole=-0.2347065
 ,-0.1277549,-0.8078013\DipoleDeriv=-0.7213302,-0.4963882,-0.1978596,-0
 .481547,-1.1879351,-0.2541704,-0.0542358,0.0567291,-0.5164869,-0.58034
 04,-0.5012222,-0.0868134,-0.4106751,-1.2427916,-0.1138677,0.1151749,0.
 350391,-0.237768,0.6529802,0.2374414,0.1857609,0.119451,0.4336491,0.12
 97715,0.2559211,0.2968766,0.5183871,0.0067076,0.3592977,-0.0820247,0.3
 735347,0.7001878,0.1306352,-0.3742019,-0.4113506,0.083955,0.1547437,0.
 5324747,-0.0138298,0.4474978,1.0152824,0.1616308,-0.1331592,-0.2160657
 ,0.1656623,-0.0268869,-0.0125434,0.0979574,-0.0104411,0.0432024,0.0000
 011,0.0020833,-0.0756271,-0.1515018,0.0296389,-0.0608295,-0.0171289,-0
 .082174,-0.0969468,0.0247463,0.0090662,0.0592909,0.0345514,-0.1081349,
 0.0067339,-0.0310729,0.1442623,-0.0264487,0.009677,-0.0153392,-0.06927
 16,0.0167746,0.1247571,-0.0330582,0.0812077,-0.0782725,-0.0089347,-0.0
 194972,0.1192907,0.06781,-0.0801992,0.1350805,-0.0518642,0.0467646,-0.
 0477979,0.0645447,0.0123072,0.0628673,0.0231807,0.0075062,0.3327843,0.
 0199579,0.0170388,0.0261618,0.3061904,-0.0812339,0.0125326,-0.0819633,
 0.1591192\Polar=38.5858302,10.8985474,53.8337366,0.6021078,7.30482,43.
 0962579\Quadrupole=0.239688,-1.6960218,1.4563338,1.8540763,-1.4824686,
 -0.7467288\PG=C01 [X(C3H6O2)]\NImag=0\\0.29500699,0.19241915,0.4056393
 8,0.09788231,-0.04098685,0.27577903,0.00618572,-0.01620917,0.00305244,
 0.15432624,-0.01137986,-0.01417555,-0.00575659,0.14926134,0.36543900,0
 .00317984,-0.00050910,-0.00040097,-0.19131103,-0.02628792,0.57799660,-
 0.16028562,-0.05213868,-0.07537149,0.00347717,0.00359745,0.00022310,0.
 52586631,-0.03070320,-0.08859641,-0.00975333,0.00327224,0.00067222,-0.
 00086487,-0.00819384,0.60677854,-0.09114018,-0.03413427,-0.14513551,0.
 00274889,0.00622093,-0.00102577,-0.04568464,-0.03949370,0.54493105,-0.
 08662357,-0.07750799,0.01500191,-0.00098690,-0.02089407,-0.01126898,-0
 .02388067,-0.03712155,0.00609660,0.22801265,-0.10177074,-0.25200413,0.
 05481829,-0.00791318,-0.03463031,-0.01781046,-0.02197166,-0.03401458,-
 0.00236353,0.18818127,0.70994279,0.03260235,0.07936170,-0.11675688,-0.
 00038309,0.00814715,0.01792489,-0.00581254,-0.02212605,0.00847501,-0.0
 8036136,0.19139793,0.71953602,-0.00195705,-0.01009506,-0.01204628,-0.0
 9694240,-0.10230883,0.04757898,-0.00049300,-0.00500910,-0.00100469,-0.
 07040437,-0.05787988,-0.01135096,0.24154269,-0.00951122,-0.03680104,-0
 .01721642,-0.11779369,-0.27431796,0.05278237,0.00224468,-0.00071901,-0
 .00033475,-0.05190793,-0.35131252,-0.22551195,0.18931011,0.71540741,0.
 00128037,0.01115080,0.01786161,0.02850411,0.01143160,-0.11547859,-0.00
 023007,0.00335836,-0.00105852,-0.01147696,-0.22682011,-0.32084877,-0.1
 2401630,0.18017408,0.76828618,0.00271448,-0.00999913,-0.03435683,-0.00
 031434,-0.00008552,-0.00007010,-0.08525877,0.00970964,0.09054030,0.002
 87822,0.00383038,-0.00372768,-0.00021207,-0.00047385,0.00024573,0.0893
 1051,-0.00343933,-0.00290037,-0.01398535,-0.00018886,-0.00002086,-0.00
 000537,0.00980415,-0.05560024,-0.02107315,0.00229677,0.00266120,-0.003
 56628,-0.00001124,-0.00048525,0.00032198,-0.00706209,0.05198494,-0.009
 18882,-0.00954354,-0.02613040,-0.00034566,-0.00068057,0.00006042,0.085
 20812,-0.02302653,-0.26450134,0.00210767,0.00442008,0.00013713,-0.0002
 1373,-0.00047049,0.00046263,-0.08394171,0.03091360,0.29826757,-0.01427
 129,-0.02925307,0.00687029,0.00000216,-0.00104742,0.00000852,-0.067806
 41,-0.05667065,0.02594903,-0.00206775,-0.00119781,-0.00410552,-0.00055
 418,-0.00039991,0.00055155,-0.00237194,-0.01010107,0.00525576,0.077957
 18,-0.00755952,-0.01164633,0.00130712,-0.00021489,-0.00103325,0.000170
 64,-0.06518417,-0.26543296,0.09118181,-0.00117378,0.00113591,-0.003218
 30,-0.00030721,0.00091005,0.00054713,0.00226171,0.00546304,-0.00127007
 ,0.07724835,0.28653320,-0.01161756,-0.02444593,0.00724193,0.00014592,-
 0.00064109,-0.00006593,0.03280996,0.10025199,-0.09184396,-0.00214701,-
 0.00111495,-0.00233256,-0.00055175,-0.00040575,0.00085498,0.00686448,0
 .02654681,-0.00917727,-0.02495596,-0.09734197,0.09388855,-0.03219356,0
 .00618800,-0.01185125,-0.00052101,-0.00079318,0.00011701,-0.19318432,0
 .12402422,0.00944266,0.00287391,0.00531605,-0.00081564,0.00050613,-0.0
 0085898,-0.00017560,-0.00702849,0.00880652,0.00184084,0.00921955,-0.00
 525300,0.00000320,0.22098831,-0.01490781,0.00974601,-0.00097808,0.0007
 1010,0.00078922,-0.00007663,0.12955594,-0.16534850,-0.00412423,-0.0009
 2933,0.00462888,0.00072780,0.00049404,-0.00074640,-0.00066763,0.001359
 91,-0.00121758,0.00085300,0.02120105,-0.01591547,-0.00266335,-0.137324
 20,0.16825243,-0.02781390,0.00972515,-0.00270725,-0.00043143,-0.000615
 09,0.00010813,0.01141084,-0.00698715,-0.05180252,0.00171073,0.00298408
 ,-0.00048183,0.00063837,-0.00004103,-0.00015698,0.02308752,-0.02000766
 ,0.00044043,-0.00959874,0.00856869,0.00116568,0.00107821,0.00689857,0.
 05369187,-0.00350885,-0.00779988,0.01211731,-0.00251893,0.00395699,-0.
 00271098,0.00215921,0.00134373,0.00334488,-0.06015673,-0.00641140,0.07
 612289,0.00611777,-0.00240119,-0.00102449,0.00018874,-0.00011998,-0.00
 069724,-0.00003326,0.00015560,-0.00042520,-0.00056019,0.00003746,-0.00
 005471,0.05163584,-0.01709152,-0.01084215,0.03176303,0.00308341,0.0019
 4791,0.00035796,0.00301037,0.00237624,0.00486778,-0.00590859,-0.053479
 69,-0.00549118,0.00626702,0.00502727,-0.02265379,0.00054570,0.00015987
 ,-0.00154677,0.00007905,-0.00009874,-0.00030037,-0.00024616,-0.0002668
 7,-0.00061861,0.01430621,0.05788171,0.00741881,0.00948054,-0.00972829,
 -0.00167542,0.00095554,0.00180510,-0.00261627,-0.00100703,0.00125708,0
 .07454439,-0.00626199,-0.29616518,0.00883407,0.00476977,-0.01477953,0.
 00119736,0.00075309,0.00044796,0.00020579,0.00016114,0.00040547,0.0004
 4369,0.00002368,-0.00015665,-0.08875026,-0.00418092,0.31799002,-0.0049
 9584,0.00286524,-0.00064912,-0.00540938,-0.00496850,0.01624141,-0.0003
 2260,-0.00035417,-0.00009923,0.00999922,-0.00087306,-0.00173149,-0.069
 19290,-0.00647244,0.08398067,0.00007726,0.00004077,-0.00008371,-0.0000
 8674,-0.00002063,-0.00012441,-0.00006823,-0.00017887,-0.00010745,0.006
 64351,-0.00350061,0.00084022,0.06180223,0.00260670,0.00124972,0.001317
 52,-0.01324668,-0.00547387,0.03309650,-0.00011572,-0.00016254,-0.00032
 760,0.00548494,0.00684514,-0.02193875,-0.00472102,-0.05269930,-0.00030
 965,-0.00006069,0.00002040,0.00030084,0.00002532,0.00000492,0.00007760
 ,0.00006259,0.00010006,0.00006987,-0.00345817,-0.00238007,-0.00295723,
 0.01674183,0.05680161,-0.00174717,0.00195846,0.00130694,0.00362209,0.0
 0422988,-0.00416866,-0.00021345,-0.00043205,-0.00004354,0.00838424,0.0
 0366744,-0.01391703,0.08720896,0.00405044,-0.32159131,0.00017591,0.000
 15066,0.00008282,-0.00007524,0.00000312,-0.00004425,0.00000601,-0.0000
 9264,-0.00004246,0.00136172,-0.00308017,-0.00049710,-0.09883662,-0.010
 60906,0.33665643,-0.00007141,0.00153057,-0.00064929,-0.05729833,-0.015
 33840,0.13801224,-0.00027131,-0.00029733,-0.00019361,0.00035600,0.0006
 9001,-0.00043696,-0.00841064,-0.00173559,0.02236098,0.00001640,-0.0000
 2564,0.00005849,0.00001267,0.00004754,-0.00000168,-0.00003211,-0.00001
 829,0.00008057,0.00003288,-0.00054487,-0.00044238,0.00155347,-0.003319
 08,0.00011356,0.06411238,0.00133734,0.00033087,-0.00052933,-0.00076062
 ,-0.03919655,-0.04085311,-0.00060852,0.00004725,-0.00041929,-0.0005197
 4,0.00022729,0.00221794,-0.01573884,-0.00426325,0.04346725,-0.00002606
 ,-0.00006515,0.00005045,0.00011616,0.00007963,0.00003700,0.00007815,-0
 .00002178,0.00002318,0.00039062,-0.00032548,-0.00173659,-0.00327957,-0
 .00430606,0.00015393,0.01901108,0.04749322,-0.00085605,-0.00205697,-0.
 00133021,0.15607318,0.00299617,-0.47675522,0.00027644,0.00008038,0.000
 74802,-0.00259123,-0.00291678,0.00442920,0.00492333,0.00220373,-0.0135
 5172,-0.00001497,-0.00004833,-0.00008996,-0.00010549,-0.00010929,-0.00
 009264,-0.00008912,0.00009952,-0.00005842,0.00071609,0.00088305,-0.000
 57889,0.00056974,0.00127996,0.00225815,-0.15890192,-0.00241143,0.48502
 169\\-0.00000166,0.00000118,0.00000151,-0.00000053,0.00000079,0.000000
 13,0.00000068,0.00000018,-0.00000110,0.,-0.00000045,0.00000167,-0.0000
 0262,0.00000022,0.00000020,0.00000398,-0.00000198,0.00000021,-0.000001
 14,0.00000034,-0.00000039,0.00000089,0.00000025,-0.00000491,0.00000350
 ,-0.00000206,0.00000232,-0.00000550,0.00000283,-0.00000079,0.00000239,
 -0.00000129,0.00000114\\\@


 ABSOLUTISM, OBSOLETISM -- IF IT WORKS, IT'S OUT OF DATE

                          -- STAFFORD BEER
 Job cpu time:       0 days  0 hours 49 minutes 56.1 seconds.
 Elapsed time:       0 days  0 hours 24 minutes 58.8 seconds.
 File lengths (MBytes):  RWF=   1312 Int=      0 D2E=      0 Chk=     32 Scr=     32
 Normal termination of Gaussian 16 at Tue Sep 24 15:16:41 2019.
