 Entering Gaussian System, Link 0=g16
 Input=loose/species/COC=CO/conformers/COC=CO_43.com
 Output=loose/species/COC=CO/conformers/COC=CO_43.log
 Initial command:
 /shared/centos7/gaussian/g16/l1.exe "/scratch/harms.n/gauss_scrdir/Gau-22777.inp" -scrdir="/scratch/harms.n/gauss_scrdir/"
 Entering Link 1 = /shared/centos7/gaussian/g16/l1.exe PID=     22778.
  
 Copyright (c) 1988,1990,1992,1993,1995,1998,2003,2009,2016,
            Gaussian, Inc.  All Rights Reserved.
  
 This is part of the Gaussian(R) 16 program.  It is based on
 the Gaussian(R) 09 system (copyright 2009, Gaussian, Inc.),
 the Gaussian(R) 03 system (copyright 2003, Gaussian, Inc.),
 the Gaussian(R) 98 system (copyright 1998, Gaussian, Inc.),
 the Gaussian(R) 94 system (copyright 1995, Gaussian, Inc.),
 the Gaussian 92(TM) system (copyright 1992, Gaussian, Inc.),
 the Gaussian 90(TM) system (copyright 1990, Gaussian, Inc.),
 the Gaussian 88(TM) system (copyright 1988, Gaussian, Inc.),
 the Gaussian 86(TM) system (copyright 1986, Carnegie Mellon
 University), and the Gaussian 82(TM) system (copyright 1983,
 Carnegie Mellon University). Gaussian is a federally registered
 trademark of Gaussian, Inc.
  
 This software contains proprietary and confidential information,
 including trade secrets, belonging to Gaussian, Inc.
  
 This software is provided under written license and may be
 used, copied, transmitted, or stored only in accord with that
 written license.
  
 The following legend is applicable only to US Government
 contracts under FAR:
  
                    RESTRICTED RIGHTS LEGEND
  
 Use, reproduction and disclosure by the US Government is
 subject to restrictions as set forth in subparagraphs (a)
 and (c) of the Commercial Computer Software - Restricted
 Rights clause in FAR 52.227-19.
  
 Gaussian, Inc.
 340 Quinnipiac St., Bldg. 40, Wallingford CT 06492
  
  
 ---------------------------------------------------------------
 Warning -- This program may not be used in any manner that
 competes with the business of Gaussian, Inc. or will provide
 assistance to any competitor of Gaussian, Inc.  The licensee
 of this program is prohibited from giving any competitor of
 Gaussian, Inc. access to this program.  By using this program,
 the user acknowledges that Gaussian, Inc. is engaged in the
 business of creating and licensing software in the field of
 computational chemistry and represents and warrants to the
 licensee that it is not a competitor of Gaussian, Inc. and that
 it will not use this program in any manner prohibited above.
 ---------------------------------------------------------------
  

 Cite this work as:
 Gaussian 16, Revision A.03,
 M. J. Frisch, G. W. Trucks, H. B. Schlegel, G. E. Scuseria, 
 M. A. Robb, J. R. Cheeseman, G. Scalmani, V. Barone, 
 G. A. Petersson, H. Nakatsuji, X. Li, M. Caricato, A. V. Marenich, 
 J. Bloino, B. G. Janesko, R. Gomperts, B. Mennucci, H. P. Hratchian, 
 J. V. Ortiz, A. F. Izmaylov, J. L. Sonnenberg, D. Williams-Young, 
 F. Ding, F. Lipparini, F. Egidi, J. Goings, B. Peng, A. Petrone, 
 T. Henderson, D. Ranasinghe, V. G. Zakrzewski, J. Gao, N. Rega, 
 G. Zheng, W. Liang, M. Hada, M. Ehara, K. Toyota, R. Fukuda, 
 J. Hasegawa, M. Ishida, T. Nakajima, Y. Honda, O. Kitao, H. Nakai, 
 T. Vreven, K. Throssell, J. A. Montgomery, Jr., J. E. Peralta, 
 F. Ogliaro, M. J. Bearpark, J. J. Heyd, E. N. Brothers, K. N. Kudin, 
 V. N. Staroverov, T. A. Keith, R. Kobayashi, J. Normand, 
 K. Raghavachari, A. P. Rendell, J. C. Burant, S. S. Iyengar, 
 J. Tomasi, M. Cossi, J. M. Millam, M. Klene, C. Adamo, R. Cammi, 
 J. W. Ochterski, R. L. Martin, K. Morokuma, O. Farkas, 
 J. B. Foresman, and D. J. Fox, Gaussian, Inc., Wallingford CT, 2016.
 
 ******************************************
 Gaussian 16:  EM64L-G16RevA.03 25-Dec-2016
                24-Sep-2019 
 ******************************************
 %nprocshared=20
 Will use up to   20 processors via shared memory.
 %mem=5GB
 ----------------------------------------------------------------------
 #p m062x/cc-pVTZ opt=(calcfc,maxcycles=900,Tight) freq IOP(7/33=1,2/16
 =3) scf=(maxcycle=900)
 ----------------------------------------------------------------------
 1/6=900,7=10,10=4,18=20,19=15,26=3,38=1/1,3;
 2/9=110,12=2,16=3,17=6,18=5,40=1/2;
 3/5=16,6=1,11=2,25=1,30=1,71=2,74=-55,140=1/1,2,3;
 4//1;
 5/5=2,7=900,38=5/2;
 8/6=4,10=90,11=11/1;
 11/6=1,8=1,9=11,15=111,16=1/1,2,10;
 10/6=1,13=1/2;
 6/7=2,8=2,9=2,10=2,28=1/1;
 7/10=1,18=20,25=1,33=1/1,2,3,16;
 1/6=900,7=10,10=4,18=20,19=15,26=3/3(2);
 2/9=110,16=3/2;
 99//99;
 2/9=110,16=3/2;
 3/5=16,6=1,11=2,25=1,30=1,71=1,74=-55/1,2,3;
 4/5=5,16=3,69=1/1;
 5/5=2,7=900,38=5/2;
 7/33=1/1,2,3,16;
 1/6=900,7=10,18=20,19=15,26=3/3(-5);
 2/9=110,16=3/2;
 6/7=2,8=2,9=2,10=2,19=2,28=1/1;
 99/9=1/99;
 Leave Link    1 at Tue Sep 24 16:13:24 2019, MaxMem=   671088640 cpu:               4.4 elap:               2.2
 (Enter /shared/centos7/gaussian/g16/l101.exe)
 ------------------------------
 Gaussian input prepared by ASE
 ------------------------------
 Symbolic Z-matrix:
 Charge =  0 Multiplicity = 1
 O                     0.18679  -0.79241   1.03303 
 O                    -1.31455   1.92036   0.21354 
 C                    -1.2064   -1.08777   0.91002 
 C                     0.5861    0.5331    0.91824 
 C                    -0.0183    1.65086   0.59223 
 H                    -1.81536  -0.17363   0.65319 
 H                    -1.33084  -1.84056   0.08025 
 H                    -1.58345  -1.51623   1.83887 
 H                     1.65212   0.59587   1.12822 
 H                     0.56135   2.54815   0.63408 
 H                    -1.66693   1.11235  -0.29337 
 
 ITRead=  0  0  0  0  0  0  0  0  0  0  0
 MicOpt= -1 -1 -1 -1 -1 -1 -1 -1 -1 -1 -1
 NAtoms=     11 NQM=       11 NQMF=       0 NMMI=      0 NMMIF=      0
                NMic=       0 NMicF=      0.
                    Isotopes and Nuclear Properties:
 (Nuclear quadrupole moments (NQMom) in fm**2, nuclear magnetic moments (NMagM)
  in nuclear magnetons)

  Atom         1           2           3           4           5           6           7           8           9          10
 IAtWgt=          16          16          12          12          12           1           1           1           1           1
 AtmWgt=  15.9949146  15.9949146  12.0000000  12.0000000  12.0000000   1.0078250   1.0078250   1.0078250   1.0078250   1.0078250
 NucSpn=           0           0           0           0           0           1           1           1           1           1
 AtZEff=  -0.0000000  -0.0000000  -0.0000000  -0.0000000  -0.0000000  -0.0000000  -0.0000000  -0.0000000  -0.0000000  -0.0000000
 NQMom=    0.0000000   0.0000000   0.0000000   0.0000000   0.0000000   0.0000000   0.0000000   0.0000000   0.0000000   0.0000000
 NMagM=    0.0000000   0.0000000   0.0000000   0.0000000   0.0000000   2.7928460   2.7928460   2.7928460   2.7928460   2.7928460
 AtZNuc=   8.0000000   8.0000000   6.0000000   6.0000000   6.0000000   1.0000000   1.0000000   1.0000000   1.0000000   1.0000000

  Atom        11
 IAtWgt=           1
 AtmWgt=   1.0078250
 NucSpn=           1
 AtZEff=  -0.0000000
 NQMom=    0.0000000
 NMagM=    2.7928460
 AtZNuc=   1.0000000
 Leave Link  101 at Tue Sep 24 16:13:25 2019, MaxMem=   671088640 cpu:               2.7 elap:               1.4
 (Enter /shared/centos7/gaussian/g16/l103.exe)

 GradGradGradGradGradGradGradGradGradGradGradGradGradGradGradGradGradGrad
 Berny optimization.
 Initialization pass.
                           ----------------------------
                           !    Initial Parameters    !
                           ! (Angstroms and Degrees)  !
 --------------------------                            --------------------------
 ! Name  Definition              Value          Derivative Info.                !
 --------------------------------------------------------------------------------
 ! R1    R(1,3)                  1.4295         calculate D2E/DX2 analytically  !
 ! R2    R(1,4)                  1.3891         calculate D2E/DX2 analytically  !
 ! R3    R(2,5)                  1.3771         calculate D2E/DX2 analytically  !
 ! R4    R(2,11)                 1.0169         calculate D2E/DX2 analytically  !
 ! R5    R(3,6)                  1.128          calculate D2E/DX2 analytically  !
 ! R6    R(3,7)                  1.1272         calculate D2E/DX2 analytically  !
 ! R7    R(3,8)                  1.0902         calculate D2E/DX2 analytically  !
 ! R8    R(4,5)                  1.3119         calculate D2E/DX2 analytically  !
 ! R9    R(4,9)                  1.0883         calculate D2E/DX2 analytically  !
 ! R10   R(5,10)                 1.0691         calculate D2E/DX2 analytically  !
 ! A1    A(3,1,4)              118.0484         calculate D2E/DX2 analytically  !
 ! A2    A(5,2,11)             107.925          calculate D2E/DX2 analytically  !
 ! A3    A(1,3,6)              112.228          calculate D2E/DX2 analytically  !
 ! A4    A(1,3,7)              107.9939         calculate D2E/DX2 analytically  !
 ! A5    A(1,3,8)              110.1803         calculate D2E/DX2 analytically  !
 ! A6    A(6,3,7)              108.3            calculate D2E/DX2 analytically  !
 ! A7    A(6,3,8)              109.0126         calculate D2E/DX2 analytically  !
 ! A8    A(7,3,8)              109.0579         calculate D2E/DX2 analytically  !
 ! A9    A(1,4,5)              134.5184         calculate D2E/DX2 analytically  !
 ! A10   A(1,4,9)              108.7027         calculate D2E/DX2 analytically  !
 ! A11   A(5,4,9)              116.7494         calculate D2E/DX2 analytically  !
 ! A12   A(2,5,4)              131.9728         calculate D2E/DX2 analytically  !
 ! A13   A(2,5,10)             110.9091         calculate D2E/DX2 analytically  !
 ! A14   A(4,5,10)             117.1044         calculate D2E/DX2 analytically  !
 ! D1    D(4,1,3,6)              4.1669         calculate D2E/DX2 analytically  !
 ! D2    D(4,1,3,7)            123.4667         calculate D2E/DX2 analytically  !
 ! D3    D(4,1,3,8)           -117.5112         calculate D2E/DX2 analytically  !
 ! D4    D(3,1,4,5)             -7.391          calculate D2E/DX2 analytically  !
 ! D5    D(3,1,4,9)            174.7219         calculate D2E/DX2 analytically  !
 ! D6    D(11,2,5,4)           -32.0836         calculate D2E/DX2 analytically  !
 ! D7    D(11,2,5,10)          149.334          calculate D2E/DX2 analytically  !
 ! D8    D(1,4,5,2)             -1.0693         calculate D2E/DX2 analytically  !
 ! D9    D(1,4,5,10)           177.4431         calculate D2E/DX2 analytically  !
 ! D10   D(9,4,5,2)            176.6894         calculate D2E/DX2 analytically  !
 ! D11   D(9,4,5,10)            -4.7982         calculate D2E/DX2 analytically  !
 --------------------------------------------------------------------------------
 Trust Radius=3.00D-01 FncErr=1.00D-07 GrdErr=1.00D-06 EigMax=2.50D+02 EigMin=1.00D-04
 Number of steps in this run=    100 maximum allowed number of steps=    100.
 GradGradGradGradGradGradGradGradGradGradGradGradGradGradGradGradGradGrad

 Leave Link  103 at Tue Sep 24 16:13:26 2019, MaxMem=   671088640 cpu:               1.7 elap:               0.8
 (Enter /shared/centos7/gaussian/g16/l202.exe)
                          Input orientation:                          
 ---------------------------------------------------------------------
 Center     Atomic      Atomic             Coordinates (Angstroms)
 Number     Number       Type             X           Y           Z
 ---------------------------------------------------------------------
      1          8           0        0.186794   -0.792408    1.033031
      2          8           0       -1.314551    1.920365    0.213538
      3          6           0       -1.206403   -1.087769    0.910024
      4          6           0        0.586099    0.533096    0.918236
      5          6           0       -0.018303    1.650859    0.592234
      6          1           0       -1.815357   -0.173635    0.653192
      7          1           0       -1.330839   -1.840556    0.080254
      8          1           0       -1.583451   -1.516230    1.838865
      9          1           0        1.652117    0.595865    1.128221
     10          1           0        0.561346    2.548148    0.634081
     11          1           0       -1.666929    1.112352   -0.293375
 ---------------------------------------------------------------------
                    Distance matrix (angstroms):
                    1          2          3          4          5
     1  O    0.000000
     2  O    3.206983   0.000000
     3  C    1.429464   3.089605   0.000000
     4  C    1.389094   2.456335   2.416679   0.000000
     5  C    2.491168   1.377063   3.002108   1.311858   0.000000
     6  H    2.129734   2.197484   1.128020   2.517282   2.561619
     7  H    2.075960   3.763317   1.127250   3.164031   3.764950
     8  H    2.075345   3.811060   1.090179   3.123179   3.746228
     9  H    2.020776   3.375213   3.324661   1.088314   2.047095
    10  H    3.385079   2.022365   4.052280   2.035139   1.069052
    11  H    2.970479   1.016866   2.549664   2.622913   1.947372
                    6          7          8          9         10
     6  H    0.000000
     7  H    1.828016   0.000000
     8  H    1.806146   1.806022   0.000000
     9  H    3.583457   3.991543   3.928723   0.000000
    10  H    3.613473   4.811217   4.750877   2.290276   0.000000
    11  H    1.603677   2.995366   3.385684   3.647432   2.808361
                   11
    11  H    0.000000
 Stoichiometry    C3H6O2
 Framework group  C1[X(C3H6O2)]
 Deg. of freedom    27
 Full point group                 C1      NOp   1
 Largest Abelian subgroup         C1      NOp   1
 Largest concise Abelian subgroup C1      NOp   1
                         Standard orientation:                         
 ---------------------------------------------------------------------
 Center     Atomic      Atomic             Coordinates (Angstroms)
 Number     Number       Type             X           Y           Z
 ---------------------------------------------------------------------
      1          8           0        1.248206    0.597109   -0.066287
      2          8           0       -1.593565   -0.886887    0.016376
      3          6           0        1.494547   -0.804732    0.066092
      4          6           0       -0.067612    1.037862   -0.003494
      5          6           0       -1.235963    0.442749    0.038563
      6          1           0        0.539591   -1.401152    0.135175
      7          1           0        2.060134   -1.146664   -0.847082
      8          1           0        2.099077   -0.998298    0.952414
      9          1           0       -0.072643    2.125927   -0.026213
     10          1           0       -2.098341    1.068349    0.126891
     11          1           0       -0.910790   -1.385212   -0.548873
 ---------------------------------------------------------------------
 Rotational constants (GHZ):           9.2214781           3.9590736           2.8354618
 Leave Link  202 at Tue Sep 24 16:13:28 2019, MaxMem=   671088640 cpu:               4.2 elap:               2.1
 (Enter /shared/centos7/gaussian/g16/l301.exe)
 Standard basis: CC-pVTZ (5D, 7F)
 Ernie: Thresh=  0.10000D-02 Tol=  0.10000D-05 Strict=F.
 Ernie:  15 primitive shells out of 178 were deleted.
 There are   265 symmetry adapted cartesian basis functions of A   symmetry.
 There are   234 symmetry adapted basis functions of A   symmetry.
   234 basis functions,   362 primitive gaussians,   265 cartesian basis functions
    20 alpha electrons       20 beta electrons
       nuclear repulsion energy       177.5445357554 Hartrees.
 IExCor= 4336 DFT=T Ex+Corr=M062X ExCW=0 ScaHFX=  0.540000
 ScaDFX=  1.000000  1.000000  1.000000  1.000000 ScalE2=  1.000000  1.000000
 IRadAn=      5 IRanWt=     -1 IRanGd=            0 ICorTp=0 IEmpDi=  4
 NAtoms=   11 NActive=   11 NUniq=   11 SFac= 1.00D+00 NAtFMM=   60 NAOKFM=F Big=F
 Integral buffers will be    131072 words long.
 Raffenetti 2 integral format.
 Two-electron integral symmetry is turned on.
 Leave Link  301 at Tue Sep 24 16:13:29 2019, MaxMem=   671088640 cpu:               1.8 elap:               0.9
 (Enter /shared/centos7/gaussian/g16/l302.exe)
 NPDir=0 NMtPBC=     1 NCelOv=     1 NCel=       1 NClECP=     1 NCelD=      1
         NCelK=      1 NCelE2=     1 NClLst=     1 CellRange=     0.0.
 One-electron integrals computed using PRISM.
 One-electron integral symmetry used in STVInt
 NBasis=   234 RedAO= T EigKep=  3.84D-04  NBF=   234
 NBsUse=   234 1.00D-06 EigRej= -1.00D+00 NBFU=   234
 Precomputing XC quadrature grid using
 IXCGrd= 4 IRadAn=           5 IRanWt=          -1 IRanGd=           0 AccXCQ= 0.00D+00.
 Generated NRdTot=       0 NPtTot=           0 NUsed=           0 NTot=          32
 NSgBfM=   265   265   265   265   265 MxSgAt=    11 MxSgA2=    11.
 Leave Link  302 at Tue Sep 24 16:14:26 2019, MaxMem=   671088640 cpu:             112.3 elap:              56.2
 (Enter /shared/centos7/gaussian/g16/l303.exe)
 DipDrv:  MaxL=1.
 Leave Link  303 at Tue Sep 24 16:14:30 2019, MaxMem=   671088640 cpu:               8.6 elap:               4.3
 (Enter /shared/centos7/gaussian/g16/l401.exe)
 ExpMin= 1.03D-01 ExpMax= 1.53D+04 ExpMxC= 5.22D+02 IAcc=3 IRadAn=         5 AccDes= 0.00D+00
 Harris functional with IExCor= 1009 and IRadAn=       5 diagonalized for initial guess.
 HarFok:  IExCor= 1009 AccDes= 0.00D+00 IRadAn=         5 IDoV= 1 UseB2=F ITyADJ=14
 ICtDFT=  3500011 ScaDFX=  1.000000  1.000000  1.000000  1.000000
 FoFCou: FMM=F IPFlag=           0 FMFlag=      100000 FMFlg1=           0
         NFxFlg=           0 DoJE=T BraDBF=F KetDBF=T FulRan=T
         wScrn=  0.000000 ICntrl=       500 IOpCl=  0 I1Cent=   200000004 NGrid=           0
         NMat0=    1 NMatS0=      1 NMatT0=    0 NMatD0=    1 NMtDS0=    0 NMtDT0=    0
 Petite list used in FoFCou.
 Harris En= -268.188157190467    
 JPrj=0 DoOrth=F DoCkMO=F.
 Leave Link  401 at Tue Sep 24 16:14:59 2019, MaxMem=   671088640 cpu:              58.3 elap:              29.2
 (Enter /shared/centos7/gaussian/g16/l502.exe)
 Keep R1 ints in memory in canonical form, NReq=399924305.
 FoFCou: FMM=F IPFlag=           0 FMFlag=           0 FMFlg1=           0
         NFxFlg=           0 DoJE=F BraDBF=F KetDBF=F FulRan=T
         wScrn=  0.000000 ICntrl=       600 IOpCl=  0 I1Cent=           0 NGrid=           0
         NMat0=    1 NMatS0=  27495 NMatT0=    0 NMatD0=    1 NMtDS0=    0 NMtDT0=    0
 Symmetry not used in FoFCou.
 Two-electron integral symmetry not used.
 Closed shell SCF:
 Using DIIS extrapolation, IDIIS=  1040.
 NGot=   671088640 LenX=   292939207 LenY=   292868541
 Requested convergence on RMS density matrix=1.00D-08 within 900 cycles.
 Requested convergence on MAX density matrix=1.00D-06.
 Requested convergence on             energy=1.00D-06.
 No special actions if energy rises.
 Integral accuracy reduced to 1.0D-05 until final iterations.

 Cycle   1  Pass 0  IDiag  1:
 E= -268.177916494314    
 DIIS: error= 1.52D-02 at cycle   1 NSaved=   1.
 NSaved= 1 IEnMin= 1 EnMin= -268.177916494314     IErMin= 1 ErrMin= 1.52D-02
 ErrMax= 1.52D-02  0.00D+00 EMaxC= 1.00D-01 BMatC= 1.71D-01 BMatP= 1.71D-01
 IDIUse=3 WtCom= 8.48D-01 WtEn= 1.52D-01
 Coeff-Com:  0.100D+01
 Coeff-En:   0.100D+01
 Coeff:      0.100D+01
 Gap=     0.357 Goal=   None    Shift=    0.000
 GapD=    0.357 DampG=1.000 DampE=0.500 DampFc=0.5000 IDamp=-1.
 Damping current iteration by 5.00D-01
 RMSDP=2.04D-03 MaxDP=7.06D-02              OVMax= 1.11D-01

 Cycle   2  Pass 0  IDiag  1:
 E= -268.242360397351     Delta-E=       -0.064443903037 Rises=F Damp=T
 DIIS: error= 5.87D-03 at cycle   2 NSaved=   2.
 NSaved= 2 IEnMin= 2 EnMin= -268.242360397351     IErMin= 2 ErrMin= 5.87D-03
 ErrMax= 5.87D-03  0.00D+00 EMaxC= 1.00D-01 BMatC= 1.66D-02 BMatP= 1.71D-01
 IDIUse=3 WtCom= 9.41D-01 WtEn= 5.87D-02
 Coeff-Com: -0.191D+00 0.119D+01
 Coeff-En:   0.000D+00 0.100D+01
 Coeff:     -0.180D+00 0.118D+01
 Gap=     0.327 Goal=   None    Shift=    0.000
 RMSDP=4.10D-04 MaxDP=1.08D-02 DE=-6.44D-02 OVMax= 5.12D-02

 Cycle   3  Pass 0  IDiag  1:
 E= -268.297659356479     Delta-E=       -0.055298959128 Rises=F Damp=F
 DIIS: error= 2.62D-03 at cycle   3 NSaved=   3.
 NSaved= 3 IEnMin= 3 EnMin= -268.297659356479     IErMin= 3 ErrMin= 2.62D-03
 ErrMax= 2.62D-03  0.00D+00 EMaxC= 1.00D-01 BMatC= 3.91D-03 BMatP= 1.66D-02
 IDIUse=3 WtCom= 9.74D-01 WtEn= 2.62D-02
 Coeff-Com: -0.122D+00 0.410D+00 0.711D+00
 Coeff-En:   0.000D+00 0.000D+00 0.100D+01
 Coeff:     -0.118D+00 0.399D+00 0.719D+00
 Gap=     0.327 Goal=   None    Shift=    0.000
 RMSDP=2.18D-04 MaxDP=6.64D-03 DE=-5.53D-02 OVMax= 1.87D-02

 Cycle   4  Pass 0  IDiag  1:
 E= -268.299617366293     Delta-E=       -0.001958009815 Rises=F Damp=F
 DIIS: error= 1.26D-03 at cycle   4 NSaved=   4.
 NSaved= 4 IEnMin= 4 EnMin= -268.299617366293     IErMin= 4 ErrMin= 1.26D-03
 ErrMax= 1.26D-03  0.00D+00 EMaxC= 1.00D-01 BMatC= 8.58D-04 BMatP= 3.91D-03
 IDIUse=3 WtCom= 9.87D-01 WtEn= 1.26D-02
 Coeff-Com: -0.365D-01 0.915D-01 0.361D+00 0.584D+00
 Coeff-En:   0.000D+00 0.000D+00 0.176D+00 0.824D+00
 Coeff:     -0.361D-01 0.903D-01 0.359D+00 0.587D+00
 Gap=     0.322 Goal=   None    Shift=    0.000
 RMSDP=8.39D-05 MaxDP=2.63D-03 DE=-1.96D-03 OVMax= 8.30D-03

 Cycle   5  Pass 0  IDiag  1:
 E= -268.300271841404     Delta-E=       -0.000654475111 Rises=F Damp=F
 DIIS: error= 2.28D-04 at cycle   5 NSaved=   5.
 NSaved= 5 IEnMin= 5 EnMin= -268.300271841404     IErMin= 5 ErrMin= 2.28D-04
 ErrMax= 2.28D-04  0.00D+00 EMaxC= 1.00D-01 BMatC= 2.05D-05 BMatP= 8.58D-04
 IDIUse=3 WtCom= 9.98D-01 WtEn= 2.28D-03
 Coeff-Com: -0.701D-02 0.135D-01 0.954D-01 0.222D+00 0.676D+00
 Coeff-En:   0.000D+00 0.000D+00 0.000D+00 0.000D+00 0.100D+01
 Coeff:     -0.699D-02 0.135D-01 0.952D-01 0.222D+00 0.677D+00
 Gap=     0.323 Goal=   None    Shift=    0.000
 RMSDP=1.45D-05 MaxDP=4.53D-04 DE=-6.54D-04 OVMax= 1.80D-03

 Cycle   6  Pass 0  IDiag  1:
 E= -268.300288715659     Delta-E=       -0.000016874255 Rises=F Damp=F
 DIIS: error= 6.51D-05 at cycle   6 NSaved=   6.
 NSaved= 6 IEnMin= 6 EnMin= -268.300288715659     IErMin= 6 ErrMin= 6.51D-05
 ErrMax= 6.51D-05  0.00D+00 EMaxC= 1.00D-01 BMatC= 1.77D-06 BMatP= 2.05D-05
 IDIUse=1 WtCom= 1.00D+00 WtEn= 0.00D+00
 Coeff-Com: -0.155D-02 0.205D-02 0.273D-01 0.785D-01 0.306D+00 0.588D+00
 Coeff:     -0.155D-02 0.205D-02 0.273D-01 0.785D-01 0.306D+00 0.588D+00
 Gap=     0.323 Goal=   None    Shift=    0.000
 RMSDP=4.34D-06 MaxDP=1.28D-04 DE=-1.69D-05 OVMax= 4.65D-04

 Initial convergence to 1.0D-05 achieved.  Increase integral accuracy.
 Cycle   7  Pass 1  IDiag  1:
 E= -268.300316384766     Delta-E=       -0.000027669108 Rises=F Damp=F
 DIIS: error= 2.11D-05 at cycle   1 NSaved=   1.
 NSaved= 1 IEnMin= 1 EnMin= -268.300316384766     IErMin= 1 ErrMin= 2.11D-05
 ErrMax= 2.11D-05  0.00D+00 EMaxC= 1.00D-01 BMatC= 3.92D-07 BMatP= 3.92D-07
 IDIUse=1 WtCom= 1.00D+00 WtEn= 0.00D+00
 Coeff-Com:  0.100D+01
 Coeff:      0.100D+01
 Gap=     0.323 Goal=   None    Shift=    0.000
 RMSDP=4.34D-06 MaxDP=1.28D-04 DE=-2.77D-05 OVMax= 3.82D-04

 Cycle   8  Pass 1  IDiag  1:
 E= -268.300316421024     Delta-E=       -0.000000036258 Rises=F Damp=F
 DIIS: error= 2.63D-05 at cycle   2 NSaved=   2.
 NSaved= 2 IEnMin= 2 EnMin= -268.300316421024     IErMin= 1 ErrMin= 2.11D-05
 ErrMax= 2.63D-05  0.00D+00 EMaxC= 1.00D-01 BMatC= 3.93D-07 BMatP= 3.92D-07
 IDIUse=1 WtCom= 1.00D+00 WtEn= 0.00D+00
 Coeff-Com:  0.501D+00 0.499D+00
 Coeff:      0.501D+00 0.499D+00
 Gap=     0.323 Goal=   None    Shift=    0.000
 RMSDP=1.95D-06 MaxDP=5.79D-05 DE=-3.63D-08 OVMax= 2.29D-04

 Cycle   9  Pass 1  IDiag  1:
 E= -268.300316698220     Delta-E=       -0.000000277196 Rises=F Damp=F
 DIIS: error= 7.09D-06 at cycle   3 NSaved=   3.
 NSaved= 3 IEnMin= 3 EnMin= -268.300316698220     IErMin= 3 ErrMin= 7.09D-06
 ErrMax= 7.09D-06  0.00D+00 EMaxC= 1.00D-01 BMatC= 2.03D-08 BMatP= 3.92D-07
 IDIUse=1 WtCom= 1.00D+00 WtEn= 0.00D+00
 Coeff-Com: -0.291D-01 0.166D+00 0.863D+00
 Coeff:     -0.291D-01 0.166D+00 0.863D+00
 Gap=     0.323 Goal=   None    Shift=    0.000
 RMSDP=5.11D-07 MaxDP=1.43D-05 DE=-2.77D-07 OVMax= 6.19D-05

 Cycle  10  Pass 1  IDiag  1:
 E= -268.300316715500     Delta-E=       -0.000000017280 Rises=F Damp=F
 DIIS: error= 1.51D-06 at cycle   4 NSaved=   4.
 NSaved= 4 IEnMin= 4 EnMin= -268.300316715500     IErMin= 4 ErrMin= 1.51D-06
 ErrMax= 1.51D-06  0.00D+00 EMaxC= 1.00D-01 BMatC= 9.09D-10 BMatP= 2.03D-08
 IDIUse=1 WtCom= 1.00D+00 WtEn= 0.00D+00
 Coeff-Com: -0.218D-01 0.427D-01 0.312D+00 0.667D+00
 Coeff:     -0.218D-01 0.427D-01 0.312D+00 0.667D+00
 Gap=     0.323 Goal=   None    Shift=    0.000
 RMSDP=1.10D-07 MaxDP=2.57D-06 DE=-1.73D-08 OVMax= 7.90D-06

 Cycle  11  Pass 1  IDiag  1:
 E= -268.300316716251     Delta-E=       -0.000000000751 Rises=F Damp=F
 DIIS: error= 5.39D-07 at cycle   5 NSaved=   5.
 NSaved= 5 IEnMin= 5 EnMin= -268.300316716251     IErMin= 5 ErrMin= 5.39D-07
 ErrMax= 5.39D-07  0.00D+00 EMaxC= 1.00D-01 BMatC= 1.32D-10 BMatP= 9.09D-10
 IDIUse=1 WtCom= 1.00D+00 WtEn= 0.00D+00
 Coeff-Com: -0.476D-02-0.943D-02 0.291D-02 0.244D+00 0.767D+00
 Coeff:     -0.476D-02-0.943D-02 0.291D-02 0.244D+00 0.767D+00
 Gap=     0.323 Goal=   None    Shift=    0.000
 RMSDP=5.18D-08 MaxDP=1.80D-06 DE=-7.51D-10 OVMax= 4.05D-06

 Cycle  12  Pass 1  IDiag  1:
 E= -268.300316716365     Delta-E=       -0.000000000114 Rises=F Damp=F
 DIIS: error= 2.16D-07 at cycle   6 NSaved=   6.
 NSaved= 6 IEnMin= 6 EnMin= -268.300316716365     IErMin= 6 ErrMin= 2.16D-07
 ErrMax= 2.16D-07  0.00D+00 EMaxC= 1.00D-01 BMatC= 2.36D-11 BMatP= 1.32D-10
 IDIUse=1 WtCom= 1.00D+00 WtEn= 0.00D+00
 Coeff-Com:  0.169D-02-0.119D-01-0.497D-01-0.706D-02 0.352D+00 0.715D+00
 Coeff:      0.169D-02-0.119D-01-0.497D-01-0.706D-02 0.352D+00 0.715D+00
 Gap=     0.323 Goal=   None    Shift=    0.000
 RMSDP=2.37D-08 MaxDP=7.09D-07 DE=-1.14D-10 OVMax= 1.80D-06

 Cycle  13  Pass 1  IDiag  1:
 E= -268.300316716395     Delta-E=       -0.000000000030 Rises=F Damp=F
 DIIS: error= 3.97D-08 at cycle   7 NSaved=   7.
 NSaved= 7 IEnMin= 7 EnMin= -268.300316716395     IErMin= 7 ErrMin= 3.97D-08
 ErrMax= 3.97D-08  0.00D+00 EMaxC= 1.00D-01 BMatC= 8.05D-13 BMatP= 2.36D-11
 IDIUse=1 WtCom= 1.00D+00 WtEn= 0.00D+00
 Coeff-Com:  0.792D-03-0.324D-02-0.151D-01-0.165D-01 0.685D-01 0.214D+00
 Coeff-Com:  0.752D+00
 Coeff:      0.792D-03-0.324D-02-0.151D-01-0.165D-01 0.685D-01 0.214D+00
 Coeff:      0.752D+00
 Gap=     0.323 Goal=   None    Shift=    0.000
 RMSDP=4.33D-09 MaxDP=9.92D-08 DE=-3.02D-11 OVMax= 4.38D-07

 SCF Done:  E(RM062X) =  -268.300316716     A.U. after   13 cycles
            NFock= 13  Conv=0.43D-08     -V/T= 2.0061
 KE= 2.666740430774D+02 PE=-9.832118899017D+02 EE= 2.706929943526D+02
 Leave Link  502 at Tue Sep 24 16:20:56 2019, MaxMem=   671088640 cpu:             705.3 elap:             356.9
 (Enter /shared/centos7/gaussian/g16/l801.exe)
 DoSCS=F DFT=T ScalE2(SS,OS)=  1.000000  1.000000
 Range of M.O.s used for correlation:     1   234
 NBasis=   234 NAE=    20 NBE=    20 NFC=     0 NFV=     0
 NROrb=    234 NOA=    20 NOB=    20 NVA=   214 NVB=   214

 **** Warning!!: The largest alpha MO coefficient is  0.11483403D+02

 Leave Link  801 at Tue Sep 24 16:20:57 2019, MaxMem=   671088640 cpu:               2.6 elap:               1.4
 (Enter /shared/centos7/gaussian/g16/l1101.exe)
 Using compressed storage, NAtomX=    11.
 Will process     12 centers per pass.
 Leave Link 1101 at Tue Sep 24 16:21:23 2019, MaxMem=   671088640 cpu:              51.5 elap:              25.8
 (Enter /shared/centos7/gaussian/g16/l1102.exe)
 Symmetrizing basis deriv contribution to polar:
 IMax=3 JMax=2 DiffMx= 0.00D+00
 Leave Link 1102 at Tue Sep 24 16:21:26 2019, MaxMem=   671088640 cpu:               5.3 elap:               2.7
 (Enter /shared/centos7/gaussian/g16/l1110.exe)
 Forming Gx(P) for the SCF density, NAtomX=    11.
 Integral derivatives from FoFJK, PRISM(SPDF).
 Do as many integral derivatives as possible in FoFJK.
 G2DrvN: MDV=     671087712.
 G2DrvN: will do    12 centers at a time, making    1 passes.
 Calling FoFCou, ICntrl=  3107 FMM=F I1Cent=   0 AccDes= 0.00D+00.
 FoFJK:  IHMeth= 1 ICntrl=    3107 DoSepK=F KAlg= 0 I1Cent=           0 FoldK=F
 IRaf=         0 NMat=       1 IRICut=       1 DoRegI=T DoRafI=F ISym2E= 0 IDoP0=0 IntGTp=1.
 FoFCou: FMM=F IPFlag=           0 FMFlag=      100000 FMFlg1=           0
         NFxFlg=           0 DoJE=F BraDBF=F KetDBF=F FulRan=T
         wScrn=  0.000000 ICntrl=      3107 IOpCl=  0 I1Cent=           0 NGrid=           0
         NMat0=    1 NMatS0=      1 NMatT0=    0 NMatD0=    1 NMtDS0=    0 NMtDT0=    0
 Symmetry not used in FoFCou.
 End of G2Drv F.D. properties file   721 does not exist.
 End of G2Drv F.D. properties file   722 does not exist.
 End of G2Drv F.D. properties file   788 does not exist.
 Leave Link 1110 at Tue Sep 24 16:28:54 2019, MaxMem=   671088640 cpu:             895.9 elap:             448.1
 (Enter /shared/centos7/gaussian/g16/l1002.exe)
 Minotr:  Closed shell wavefunction.
          IDoAtm=11111111111
          Direct CPHF calculation.
          Differentiating once with respect to nuclear coordinates.
          Requested convergence is 1.0D-08 RMS, and 1.0D-07 maximum.
          Secondary convergence is 1.0D-12 RMS, and 1.0D-12 maximum.
          NewPWx=T KeepS1=F KeepF1=F KeepIn=T MapXYZ=F SortEE=F KeepMc=T.
         3265 words used for storage of precomputed grid.
 Keep R1 ints in memory in canonical form, NReq=399865264.
 FoFCou: FMM=F IPFlag=           0 FMFlag=           0 FMFlg1=           0
         NFxFlg=           0 DoJE=F BraDBF=F KetDBF=F FulRan=T
         wScrn=  0.000000 ICntrl=       600 IOpCl=  0 I1Cent=           0 NGrid=           0
         NMat0=    1 NMatS0=  27495 NMatT0=    0 NMatD0=    1 NMtDS0=    0 NMtDT0=    0
 Symmetry not used in FoFCou.
 Two-electron integral symmetry not used.
          MDV=     671088640 using IRadAn=       1.
          Solving linear equations simultaneously, MaxMat=       0.
          There are    36 degrees of freedom in the 1st order CPHF.  IDoFFX=6 NUNeed=     0.
     30 vectors produced by pass  0 Test12= 1.19D-14 2.78D-09 XBig12= 6.01D-02 8.61D-02.
 AX will form    30 AO Fock derivatives at one time.
     30 vectors produced by pass  1 Test12= 1.19D-14 2.78D-09 XBig12= 1.01D-02 3.38D-02.
     30 vectors produced by pass  2 Test12= 1.19D-14 2.78D-09 XBig12= 3.21D-04 4.37D-03.
     30 vectors produced by pass  3 Test12= 1.19D-14 2.78D-09 XBig12= 3.27D-06 2.86D-04.
     30 vectors produced by pass  4 Test12= 1.19D-14 2.78D-09 XBig12= 2.28D-08 2.53D-05.
     30 vectors produced by pass  5 Test12= 1.19D-14 2.78D-09 XBig12= 1.09D-10 1.58D-06.
     18 vectors produced by pass  6 Test12= 1.19D-14 2.78D-09 XBig12= 4.75D-13 1.48D-07.
      5 vectors produced by pass  7 Test12= 1.19D-14 2.78D-09 XBig12= 1.73D-15 5.65D-09.
 InvSVY:  IOpt=1 It=  1 EMax= 1.78D-15
 Solved reduced A of dimension   203 with    30 vectors.
 End of Minotr F.D. properties file   721 does not exist.
 End of Minotr F.D. properties file   722 does not exist.
 End of Minotr F.D. properties file   788 does not exist.
 Leave Link 1002 at Tue Sep 24 16:39:55 2019, MaxMem=   671088640 cpu:            1321.9 elap:             661.2
 (Enter /shared/centos7/gaussian/g16/l601.exe)
 Copying SCF densities to generalized density rwf, IOpCl= 0 IROHF=0.

 **********************************************************************

            Population analysis using the SCF density.

 **********************************************************************

 Orbital symmetries:
       Occupied  (A) (A) (A) (A) (A) (A) (A) (A) (A) (A) (A) (A)
                 (A) (A) (A) (A) (A) (A) (A) (A)
       Virtual   (A) (A) (A) (A) (A) (A) (A) (A) (A) (A) (A) (A)
                 (A) (A) (A) (A) (A) (A) (A) (A) (A) (A) (A) (A)
                 (A) (A) (A) (A) (A) (A) (A) (A) (A) (A) (A) (A)
                 (A) (A) (A) (A) (A) (A) (A) (A) (A) (A) (A) (A)
                 (A) (A) (A) (A) (A) (A) (A) (A) (A) (A) (A) (A)
                 (A) (A) (A) (A) (A) (A) (A) (A) (A) (A) (A) (A)
                 (A) (A) (A) (A) (A) (A) (A) (A) (A) (A) (A) (A)
                 (A) (A) (A) (A) (A) (A) (A) (A) (A) (A) (A) (A)
                 (A) (A) (A) (A) (A) (A) (A) (A) (A) (A) (A) (A)
                 (A) (A) (A) (A) (A) (A) (A) (A) (A) (A) (A) (A)
                 (A) (A) (A) (A) (A) (A) (A) (A) (A) (A) (A) (A)
                 (A) (A) (A) (A) (A) (A) (A) (A) (A) (A) (A) (A)
                 (A) (A) (A) (A) (A) (A) (A) (A) (A) (A) (A) (A)
                 (A) (A) (A) (A) (A) (A) (A) (A) (A) (A) (A) (A)
                 (A) (A) (A) (A) (A) (A) (A) (A) (A) (A) (A) (A)
                 (A) (A) (A) (A) (A) (A) (A) (A) (A) (A) (A) (A)
                 (A) (A) (A) (A) (A) (A) (A) (A) (A) (A) (A) (A)
                 (A) (A) (A) (A) (A) (A) (A) (A) (A) (A)
 The electronic state is 1-A.
 Alpha  occ. eigenvalues --  -19.65492 -19.65311 -10.60329 -10.58731 -10.58252
 Alpha  occ. eigenvalues --   -1.18123  -1.16185  -0.86416  -0.79170  -0.68607
 Alpha  occ. eigenvalues --   -0.59986  -0.58852  -0.54329  -0.51156  -0.49883
 Alpha  occ. eigenvalues --   -0.46066  -0.45425  -0.41424  -0.38674  -0.27552
 Alpha virt. eigenvalues --    0.04734   0.08564   0.09104   0.10510   0.12706
 Alpha virt. eigenvalues --    0.13790   0.14507   0.16910   0.22636   0.26575
 Alpha virt. eigenvalues --    0.28321   0.31307   0.34073   0.34423   0.35603
 Alpha virt. eigenvalues --    0.36688   0.38541   0.39798   0.43163   0.44423
 Alpha virt. eigenvalues --    0.46168   0.47896   0.48342   0.49574   0.52481
 Alpha virt. eigenvalues --    0.54919   0.57304   0.58029   0.58653   0.62711
 Alpha virt. eigenvalues --    0.65570   0.69923   0.71369   0.72302   0.78397
 Alpha virt. eigenvalues --    0.79099   0.81360   0.83465   0.85372   0.87919
 Alpha virt. eigenvalues --    0.90440   0.92246   0.95126   0.98857   1.02465
 Alpha virt. eigenvalues --    1.03805   1.03992   1.07634   1.10685   1.12404
 Alpha virt. eigenvalues --    1.14149   1.16050   1.19568   1.21506   1.22876
 Alpha virt. eigenvalues --    1.25982   1.26846   1.31215   1.32981   1.36537
 Alpha virt. eigenvalues --    1.37433   1.39907   1.42197   1.44098   1.49058
 Alpha virt. eigenvalues --    1.52108   1.54323   1.57599   1.71252   1.78177
 Alpha virt. eigenvalues --    1.86561   1.93193   1.97690   1.99403   2.02439
 Alpha virt. eigenvalues --    2.05586   2.09273   2.13019   2.13728   2.18377
 Alpha virt. eigenvalues --    2.23484   2.25934   2.27199   2.28677   2.31596
 Alpha virt. eigenvalues --    2.38105   2.42517   2.48891   2.53911   2.58303
 Alpha virt. eigenvalues --    2.59985   2.65270   2.68666   2.71269   2.74472
 Alpha virt. eigenvalues --    2.77504   2.78601   2.80729   2.83807   2.89189
 Alpha virt. eigenvalues --    2.91940   2.94143   2.95209   2.96393   2.98381
 Alpha virt. eigenvalues --    3.01001   3.01907   3.03956   3.05112   3.09858
 Alpha virt. eigenvalues --    3.11635   3.13137   3.16308   3.16964   3.22354
 Alpha virt. eigenvalues --    3.23174   3.24761   3.27291   3.28184   3.30258
 Alpha virt. eigenvalues --    3.33592   3.35106   3.36322   3.38599   3.41560
 Alpha virt. eigenvalues --    3.44351   3.48465   3.50925   3.53177   3.58029
 Alpha virt. eigenvalues --    3.61398   3.62355   3.67278   3.68513   3.69251
 Alpha virt. eigenvalues --    3.72156   3.77067   3.78128   3.80644   3.81968
 Alpha virt. eigenvalues --    3.83483   3.88507   3.90201   3.91516   3.92621
 Alpha virt. eigenvalues --    3.97506   4.00511   4.02720   4.04711   4.08617
 Alpha virt. eigenvalues --    4.11573   4.13067   4.16489   4.20357   4.25879
 Alpha virt. eigenvalues --    4.32239   4.34256   4.37765   4.39781   4.46916
 Alpha virt. eigenvalues --    4.51887   4.55709   4.58148   4.69508   4.70975
 Alpha virt. eigenvalues --    4.74172   4.74597   4.81090   4.85883   4.87671
 Alpha virt. eigenvalues --    4.90777   4.92122   4.96355   4.98467   5.02849
 Alpha virt. eigenvalues --    5.05841   5.06912   5.15311   5.18572   5.31961
 Alpha virt. eigenvalues --    5.36192   5.43904   5.46340   5.53657   5.58904
 Alpha virt. eigenvalues --    5.67731   5.70058   5.77004   5.79915   5.89857
 Alpha virt. eigenvalues --    5.98394   6.07605   6.17731   6.29151   6.36158
 Alpha virt. eigenvalues --    6.38820   6.53004   6.60453   6.61549   6.69153
 Alpha virt. eigenvalues --    6.75944   6.81906   6.86744   6.94008   6.97913
 Alpha virt. eigenvalues --    7.12938   7.18016   7.29843   7.35439   9.85361
 Alpha virt. eigenvalues --   10.72825  12.01911  12.89326  14.00768
          Condensed to atoms (all electrons):
               1          2          3          4          5          6
     1  O    7.819631   0.003088   0.288039   0.348661  -0.061473  -0.037055
     2  O    0.003088   7.799659  -0.013093  -0.066572   0.330142   0.008917
     3  C    0.288039  -0.013093   4.740189  -0.045825  -0.017977   0.364500
     4  C    0.348661  -0.066572  -0.045825   4.999307   0.507019  -0.023372
     5  C   -0.061473   0.330142  -0.017977   0.507019   4.987024   0.013752
     6  H   -0.037055   0.008917   0.364500  -0.023372   0.013752   0.718245
     7  H   -0.040462   0.000065   0.388183   0.000275   0.001912  -0.037437
     8  H   -0.039104   0.000031   0.403992   0.005015   0.000038  -0.046937
     9  H   -0.035832   0.003925   0.006939   0.411647  -0.068268  -0.000419
    10  H    0.004081  -0.043838  -0.000395  -0.075396   0.417839  -0.000213
    11  H    0.002029   0.327385   0.003717  -0.012261  -0.043697  -0.014100
               7          8          9         10         11
     1  O   -0.040462  -0.039104  -0.035832   0.004081   0.002029
     2  O    0.000065   0.000031   0.003925  -0.043838   0.327385
     3  C    0.388183   0.403992   0.006939  -0.000395   0.003717
     4  C    0.000275   0.005015   0.411647  -0.075396  -0.012261
     5  C    0.001912   0.000038  -0.068268   0.417839  -0.043697
     6  H   -0.037437  -0.046937  -0.000419  -0.000213  -0.014100
     7  H    0.638723  -0.048217  -0.000470   0.000084  -0.001329
     8  H   -0.048217   0.608265   0.000043   0.000020   0.001558
     9  H   -0.000470   0.000043   0.539182  -0.006786  -0.000224
    10  H    0.000084   0.000020  -0.006786   0.550776   0.005031
    11  H   -0.001329   0.001558  -0.000224   0.005031   0.464645
 Mulliken charges:
               1
     1  O   -0.251604
     2  O   -0.349709
     3  C   -0.118268
     4  C   -0.048499
     5  C   -0.066312
     6  H    0.054120
     7  H    0.098673
     8  H    0.115296
     9  H    0.150262
    10  H    0.148796
    11  H    0.267246
 Sum of Mulliken charges =  -0.00000
 Mulliken charges with hydrogens summed into heavy atoms:
               1
     1  O   -0.251604
     2  O   -0.082464
     3  C    0.149821
     4  C    0.101763
     5  C    0.082485
 APT charges:
               1
     1  O   -0.161337
     2  O   -0.351625
     3  C   -0.814798
     4  C   -0.441084
     5  C   -0.453327
     6  H    0.139870
     7  H    0.381733
     8  H    0.417516
     9  H    0.458148
    10  H    0.473407
    11  H    0.351496
 Sum of APT charges =  -0.00000
 APT charges with hydrogens summed into heavy atoms:
               1
     1  O   -0.161337
     2  O   -0.000130
     3  C    0.124321
     4  C    0.017065
     5  C    0.020081
 Electronic spatial extent (au):  <R**2>=            440.0217
 Charge=             -0.0000 electrons
 Dipole moment (field-independent basis, Debye):
    X=              0.7863    Y=             -0.9196    Z=             -0.5790  Tot=              1.3413
 Quadrupole moment (field-independent basis, Debye-Ang):
   XX=            -32.8161   YY=            -27.5121   ZZ=            -31.4473
   XY=             -4.7987   XZ=              0.8272   YZ=              1.5056
 Traceless Quadrupole moment (field-independent basis, Debye-Ang):
   XX=             -2.2243   YY=              3.0797   ZZ=             -0.8555
   XY=             -4.7987   XZ=              0.8272   YZ=              1.5056
 Octapole moment (field-independent basis, Debye-Ang**2):
  XXX=              3.9782  YYY=             -0.5777  ZZZ=             -0.8088  XYY=             -0.4655
  XXY=              0.8378  XXZ=              0.9784  XZZ=              1.8269  YZZ=             -3.4406
  YYZ=             -2.3242  XYZ=             -1.5607
 Hexadecapole moment (field-independent basis, Debye-Ang**3):
 XXXX=           -341.0159 YYYY=           -158.7735 ZZZZ=            -39.9494 XXXY=            -15.0584
 XXXZ=             -0.3928 YYYX=              7.4357 YYYZ=              3.4039 ZZZX=              0.7461
 ZZZY=              0.9878 XXYY=            -88.4069 XXZZ=            -61.6879 YYZZ=            -36.7439
 XXYZ=              1.6715 YYXZ=              1.7874 ZZXY=              2.3968
 N-N= 1.775445357554D+02 E-N=-9.832118777226D+02  KE= 2.666740430774D+02
  Exact polarizability:   0.000   0.000   0.000   0.000   0.000   0.000
 Approx polarizability:  63.852   4.362  53.046  -1.559   0.939  39.407
 No NMR shielding tensors so no spin-rotation constants.
 Leave Link  601 at Tue Sep 24 16:40:17 2019, MaxMem=   671088640 cpu:              43.8 elap:              21.9
 (Enter /shared/centos7/gaussian/g16/l701.exe)
 SCFChk:  SCF convergence  4.33D-09 required  1.00D-08
 ... and contract with generalized density number  0.
 Compute integral second derivatives.
 Entering OneElI...
 Calculate overlap and kinetic energy integrals
    NBasis = 265  MinDer = 2  MaxDer = 2
 Requested accuracy = 0.1000D-12
 PrmmSu-InSpLW:  IPartL=    0 NPrtUS=   20 NPrtUL=    1 DoSpLW=F IThBeg=    0 IThEnd=   19 NThAct=   20.
 PrsmSu:  NPrtUS=  20 ThrOK=T IAlg=1 NPAlg=1 LenDen=           0 ISkipM=0 DoSpLW=F IThBeg=    0 IThEnd=   19.
 Prism:   IPart=     0 DynPar=F LinDyn=F Incr=           1.
 PRISM was handed    33438195 working-precision words and  3740 shell-pairs
 PRISM was handed    33438195 working-precision words and  3740 shell-pairs
 PRISM was handed    33438195 working-precision words and  3740 shell-pairs
 PRISM was handed    33438195 working-precision words and  3740 shell-pairs
 PRISM was handed    33438195 working-precision words and  3740 shell-pairs
 PRISM was handed    33438195 working-precision words and  3740 shell-pairs
 PRISM was handed    33438195 working-precision words and  3740 shell-pairs
 PRISM was handed    33438195 working-precision words and  3740 shell-pairs
 PRISM was handed    33438195 working-precision words and  3740 shell-pairs
 PRISM was handed    33438195 working-precision words and  3740 shell-pairs
 PRISM was handed    33438195 working-precision words and  3740 shell-pairs
 PRISM was handed    33438195 working-precision words and  3740 shell-pairs
 PRISM was handed    33438195 working-precision words and  3740 shell-pairs
 PRISM was handed    33438195 working-precision words and  3740 shell-pairs
 IPart= 10 NShTot=         176 NBatch=          27 AvBLen=         6.5
 PRISM was handed    33438195 working-precision words and  3740 shell-pairs
 PRISM was handed    33438195 working-precision words and  3740 shell-pairs
 PRISM was handed    33438195 working-precision words and  3740 shell-pairs
 PRISM was handed    33438195 working-precision words and  3740 shell-pairs
 IPart=  7 NShTot=         190 NBatch=          34 AvBLen=         5.6
 PRISM was handed    33438195 working-precision words and  3740 shell-pairs
 PRISM was handed    33438195 working-precision words and  3740 shell-pairs
 IPart= 14 NShTot=         171 NBatch=          27 AvBLen=         6.3
 IPart=  9 NShTot=         183 NBatch=          29 AvBLen=         6.3
 IPart= 18 NShTot=         167 NBatch=          26 AvBLen=         6.4
 IPart=  5 NShTot=         197 NBatch=          41 AvBLen=         4.8
 IPart=  0 NShTot=         229 NBatch=          67 AvBLen=         3.4
 IPart=  8 NShTot=         184 NBatch=          30 AvBLen=         6.1
 IPart=  1 NShTot=         224 NBatch=          63 AvBLen=         3.6
 IPart= 15 NShTot=         170 NBatch=          26 AvBLen=         6.5
 IPart= 12 NShTot=         174 NBatch=          27 AvBLen=         6.4
 IPart= 13 NShTot=         172 NBatch=          27 AvBLen=         6.4
 IPart= 17 NShTot=         168 NBatch=          26 AvBLen=         6.5
 IPart=  4 NShTot=         207 NBatch=          48 AvBLen=         4.3
 IPart=  2 NShTot=         212 NBatch=          52 AvBLen=         4.1
 IPart= 11 NShTot=         176 NBatch=          27 AvBLen=         6.5
 IPart= 16 NShTot=         169 NBatch=          26 AvBLen=         6.5
 IPart= 19 NShTot=         166 NBatch=          25 AvBLen=         6.6
 IPart=  3 NShTot=         210 NBatch=          51 AvBLen=         4.1
 IPart=  6 NShTot=         195 NBatch=          39 AvBLen=         5.0
 PrSmSu:  NxtVal=             21.
 Entering OneElI...
 Calculate potential energy integrals
    NBasis = 265  MinDer = 2  MaxDer = 2
 Requested accuracy = 0.1000D-12
 PrmmSu-InSpLW:  IPartL=    0 NPrtUS=   20 NPrtUL=    1 DoSpLW=F IThBeg=    0 IThEnd=   19 NThAct=   20.
 PrsmSu:  NPrtUS=  20 ThrOK=T IAlg=1 NPAlg=1 LenDen=           0 ISkipM=0 DoSpLW=F IThBeg=    0 IThEnd=   19.
 Prism:   IPart=     0 DynPar=F LinDyn=F Incr=          19.
 PRISM was handed    33454774 working-precision words and  3591 shell-pairs
 PRISM was handed    33454774 working-precision words and  3591 shell-pairs
 PRISM was handed    33454774 working-precision words and  3591 shell-pairs
 PRISM was handed    33454774 working-precision words and  3591 shell-pairs
 PRISM was handed    33454774 working-precision words and  3591 shell-pairs
 PRISM was handed    33454774 working-precision words and  3591 shell-pairs
 PRISM was handed    33454774 working-precision words and  3591 shell-pairs
 PRISM was handed    33454774 working-precision words and  3591 shell-pairs
 PRISM was handed    33454774 working-precision words and  3591 shell-pairs
 PRISM was handed    33454774 working-precision words and  3591 shell-pairs
 PRISM was handed    33454774 working-precision words and  3591 shell-pairs
 PRISM was handed    33454774 working-precision words and  3591 shell-pairs
 PRISM was handed    33454774 working-precision words and  3591 shell-pairs
 PRISM was handed    33454774 working-precision words and  3591 shell-pairs
 PRISM was handed    33454774 working-precision words and  3591 shell-pairs
 PRISM was handed    33454774 working-precision words and  3591 shell-pairs
 PRISM was handed    33454774 working-precision words and  3591 shell-pairs
 PRISM was handed    33454774 working-precision words and  3591 shell-pairs
 PRISM was handed    33454774 working-precision words and  3591 shell-pairs
 PRISM was handed    33454774 working-precision words and  3591 shell-pairs
 IPart=  8 NShTot=        1958 NBatch=         178 AvBLen=        11.0
 IPart=  9 NShTot=        1925 NBatch=         175 AvBLen=        11.0
 IPart=  1 NShTot=        2354 NBatch=         214 AvBLen=        11.0
 IPart= 18 NShTot=        1793 NBatch=         163 AvBLen=        11.0
 IPart=  7 NShTot=        1958 NBatch=         178 AvBLen=        11.0
 IPart=  5 NShTot=        2024 NBatch=         184 AvBLen=        11.0
 IPart= 14 NShTot=        1848 NBatch=         168 AvBLen=        11.0
 IPart= 10 NShTot=        1892 NBatch=         172 AvBLen=        11.0
 IPart= 12 NShTot=        1859 NBatch=         169 AvBLen=        11.0
 IPart= 15 NShTot=        1826 NBatch=         166 AvBLen=        11.0
 IPart= 17 NShTot=        1804 NBatch=         164 AvBLen=        11.0
 IPart= 19 NShTot=        1782 NBatch=         162 AvBLen=        11.0
 IPart= 13 NShTot=        1848 NBatch=         168 AvBLen=        11.0
 IPart= 16 NShTot=        1804 NBatch=         164 AvBLen=        11.0
 IPart=  6 NShTot=        1969 NBatch=         179 AvBLen=        11.0
 IPart=  2 NShTot=        2244 NBatch=         204 AvBLen=        11.0
 IPart=  0 NShTot=        2442 NBatch=         222 AvBLen=        11.0
 IPart=  4 NShTot=        2123 NBatch=         193 AvBLen=        11.0
 IPart=  3 NShTot=        2167 NBatch=         197 AvBLen=        11.0
 IPart= 11 NShTot=        1881 NBatch=         171 AvBLen=        11.0
 PrSmSu:  NxtVal=            381.
 Polarizability after L701:
                1             2             3 
      1  0.000000D+00
      2  0.000000D+00  0.000000D+00
      3  0.000000D+00  0.000000D+00  0.000000D+00
 Dipole Derivatives after L701:
                 1             2             3             4             5 
      1  -0.380461D-01  0.140624D-01 -0.462295D-01  0.161207D+00 -0.299178D-01
      2   0.191513D+00 -0.187573D+00  0.214486D-02  0.524151D+00 -0.643817D+00
      3  -0.536469D-01  0.148417D-01 -0.258391D+00  0.183670D+00 -0.268704D+00
                 6             7             8             9            10 
      1  -0.255728D+00 -0.823966D+00  0.525729D+00  0.182049D-01 -0.557667D+00
      2  -0.419545D+00  0.739119D-01 -0.845929D+00 -0.322586D-01  0.225055D-01
      3  -0.572266D+00 -0.361297D-01  0.233434D-03 -0.774501D+00  0.599763D-01
                11            12            13            14            15 
      1  -0.116889D+00  0.116327D+00 -0.795906D+00  0.376540D+00  0.620122D-01
      2  -0.798489D+00 -0.516732D-01  0.488682D-01 -0.592597D+00  0.975258D-01
      3  -0.154911D-02  0.329048D-01  0.228462D-01  0.659807D-01  0.285230D-01
                16            17            18            19            20 
      1   0.175707D-01 -0.112990D+00  0.229186D-01  0.459322D+00 -0.268954D+00
      2   0.387175D+00  0.343504D+00  0.188948D-01 -0.194488D+00  0.276970D+00
      3   0.239516D-03 -0.232516D-01  0.585364D-01 -0.180085D+00  0.712860D-01
                21            22            23            24            25 
      1  -0.632325D+00  0.568640D+00 -0.179754D+00  0.633451D+00  0.205317D+00
      2   0.295745D+00 -0.210401D+00  0.237841D+00 -0.251443D+00 -0.289401D-01
      3   0.408907D+00  0.239623D+00 -0.468316D-01  0.446068D+00  0.460163D-02
                26            27            28            29            30 
      1  -0.740855D-02  0.352548D-02  0.883567D+00 -0.500449D+00 -0.115173D+00
      2   0.107820D+01 -0.613727D-01 -0.331142D+00  0.444295D+00  0.767463D-01
      3   0.474742D-03  0.909306D-01 -0.220101D-01  0.410907D-01  0.923599D-01
                31            32            33 
      1  -0.800389D-01  0.300031D+00  0.193017D+00
      2  -0.483153D+00  0.687598D+00  0.325235D+00
      3  -0.219085D+00  0.146429D+00  0.446928D+00
 Hessian after L701:
                1             2             3             4             5 
      1  0.532007D+01
      2  0.372543D+01  0.722325D+01
      3  0.161977D+00  0.566749D+00  0.149697D+02
      4  0.523404D+00  0.450406D+00 -0.281522D-01  0.921818D+01
      5  0.387303D+00 -0.841391D-01 -0.232080D-01 -0.110910D+01  0.428931D+01
      6 -0.636598D-01 -0.476489D-01 -0.341090D+00  0.182167D+01 -0.170017D+01
      7 -0.658707D+01 -0.193834D+01  0.152464D+00  0.437610D+00 -0.537171D-01
      8 -0.170335D+01  0.535437D+00 -0.784706D+00  0.113143D+00 -0.242253D+00
      9  0.139077D+00 -0.772129D+00 -0.713641D+01  0.710234D-01 -0.121735D-01
     10 -0.587131D-01 -0.293583D+01 -0.394862D+00  0.377393D+00  0.368162D+00
     11 -0.312681D+01 -0.708752D+01  0.361648D-01  0.298811D+00 -0.771729D-01
     12 -0.320834D+00  0.328800D-01 -0.830500D+01  0.104114D+00  0.548207D-02
     13  0.363281D+00  0.195697D+00  0.122313D+00 -0.747298D+01  0.199176D+01
     14  0.304544D+00 -0.141280D+00  0.104227D-01  0.221453D+01  0.144687D+00
     15  0.664796D-01  0.208483D-01  0.143144D+00 -0.624239D-01  0.371465D+00
     16  0.252240D+00  0.163521D+00  0.705921D-02 -0.152409D-01  0.174326D-02
     17  0.887783D-01 -0.607072D-01  0.911600D-01 -0.693921D-01 -0.104721D+00
     18  0.127756D-01  0.745057D-01  0.757563D-01 -0.109037D+00  0.118243D-01
     19  0.890696D-01  0.754213D-01 -0.121842D+00  0.553646D-01 -0.571223D-02
     20  0.668751D-01 -0.236852D+00  0.127348D+00 -0.172665D-01 -0.164911D-01
     21 -0.110532D+00  0.134946D+00  0.290196D+00 -0.444542D-01  0.361393D-02
     22  0.858471D-01  0.887930D-01  0.121497D+00  0.591999D-01 -0.451559D-02
     23  0.895861D-01 -0.256879D+00 -0.482145D-01 -0.139920D-01 -0.167541D-01
     24  0.984504D-01 -0.453380D-01  0.311530D+00  0.459768D-01 -0.385230D-02
     25 -0.130455D+00  0.173509D+00 -0.108449D-01 -0.154071D-01  0.565895D-01
     26  0.127061D+00  0.928195D-01  0.187917D-01  0.958671D-01  0.133191D+00
     27  0.840207D-03 -0.226611D-03  0.629435D-01 -0.236265D-02 -0.666275D-02
     28  0.155610D+00 -0.371365D-01 -0.265017D-02  0.201203D+00 -0.417664D-01
     29 -0.631865D-01 -0.308016D-01  0.211565D-02 -0.335591D-01 -0.260751D+00
     30 -0.178805D-01  0.426029D-02 -0.319072D-01  0.738738D-02 -0.779669D-01
     31 -0.132834D-01  0.385324D-01 -0.696028D-02 -0.336873D+01 -0.159075D+01
     32  0.103767D+00  0.466773D-01  0.337660D-02 -0.192945D+01 -0.376490D+01
     33  0.333067D-01  0.311536D-01 -0.388091D-01 -0.180374D+01  0.143165D+01
                6             7             8             9            10 
      6  0.124251D+02
      7  0.346198D-01  0.134968D+02
      8 -0.215396D-01  0.176033D+01  0.856285D+01
      9 -0.233442D+00 -0.263574D+00  0.572097D+00  0.154635D+02
     10  0.107538D+00  0.668984D-01 -0.369286D+00  0.298158D-01  0.539942D+01
     11  0.437788D-01 -0.288429D+00  0.225441D+00  0.114522D-01 -0.406342D+00
     12  0.124535D+00  0.186970D-01  0.335153D-01 -0.131147D+00  0.877091D+00
     13 -0.127097D+00  0.174103D+00 -0.953914D-01 -0.115658D-01 -0.167392D+01
     14  0.273391D+00 -0.103769D+00 -0.124589D+00  0.137400D-01  0.342956D+01
     15 -0.774006D+01 -0.197874D-01  0.213783D-01 -0.128519D+00 -0.635614D+00
     16 -0.139520D+00 -0.199520D+01  0.116308D+01 -0.791312D-01  0.158708D-01
     17  0.430434D-01  0.148425D+01 -0.267175D+01 -0.801142D-01  0.226380D-01
     18 -0.135916D+00 -0.108961D+00 -0.853503D-01 -0.368098D+01  0.145530D-01
     19 -0.316937D-01 -0.279820D+01 -0.463718D+00 -0.947680D+00  0.223237D-01
     20  0.380677D-02 -0.457109D+00 -0.299434D+01  0.783491D+00 -0.552816D-01
     21 -0.308188D-02 -0.851381D+00  0.700695D+00 -0.189507D+01 -0.361941D-01
     22  0.214980D-01 -0.282565D+01 -0.326404D+00  0.104966D+01  0.461478D-01
     23 -0.124177D-02 -0.355623D+00 -0.339167D+01 -0.523165D+00 -0.734216D-01
     24 -0.103123D-01  0.976907D+00 -0.448184D+00 -0.216785D+01  0.552713D-01
     25  0.179515D-02 -0.736310D-02 -0.739539D-01  0.323765D-02 -0.380124D+01
     26 -0.438985D-02 -0.916670D-01  0.135510D+00 -0.481234D-02 -0.463216D-01
     27 -0.321377D-01  0.359165D-02 -0.483344D-02 -0.432378D-01 -0.102649D-01
     28  0.246586D-01  0.238377D-01 -0.110743D-01  0.651396D-03 -0.406727D+00
     29 -0.108077D+00 -0.209884D-01 -0.664947D-02  0.690182D-03  0.510108D-01
     30  0.861784D-01 -0.302997D-02  0.535913D-03 -0.118538D-01 -0.340582D-01
     31 -0.164981D+01  0.142695D-01  0.662244D-02  0.848038D-02  0.125401D-01
     32  0.151905D+01  0.650650D-01 -0.279997D-01  0.109238D-01  0.151158D-01
     33 -0.413973D+01  0.604546D-01  0.163923D-01 -0.349626D-01  0.267246D-01
               11            12            13            14            15 
     11  0.149540D+02
     12  0.289434D+00  0.240709D+02
     13  0.372119D+01 -0.669429D+00  0.107319D+02
     14 -0.682908D+01 -0.166728D+00 -0.423622D+01  0.987058D+01
     15 -0.220090D+00 -0.121958D+02  0.867049D+00 -0.236581D+00  0.236520D+02
     16  0.666676D-01  0.186379D-01 -0.502938D-02 -0.122941D+00  0.461442D-01
     17 -0.659202D-01 -0.816605D-01 -0.175437D+00  0.100524D+00 -0.458787D-01
     18 -0.498273D-01  0.327012D-01  0.357659D-01 -0.309614D-01 -0.854176D-01
     19 -0.486787D-01 -0.178038D-01  0.513393D-01 -0.289616D-01 -0.711605D-02
     20  0.223089D-01  0.113690D-01 -0.387115D-01 -0.708786D-02  0.296297D-02
     21  0.304609D-01 -0.118948D-01 -0.241620D-01  0.525976D-02 -0.149472D-01
     22 -0.748500D-01  0.375658D-01  0.373029D-01 -0.190315D-01 -0.222745D-02
     23  0.197218D-01 -0.211038D-01 -0.230069D-01 -0.961798D-02  0.256159D-02
     24 -0.427639D-01 -0.155488D-01  0.150402D-01 -0.236169D-03 -0.157289D-01
     25 -0.104015D+00 -0.924461D-02  0.258820D-01 -0.259618D+00 -0.118357D-01
     26 -0.130788D+01 -0.144847D+00 -0.285850D+00 -0.155195D+00 -0.199632D-01
     27 -0.124644D+00 -0.381366D+01 -0.177390D-01 -0.151068D-01  0.170145D+00
     28  0.178951D-01 -0.484031D-01 -0.229178D+01 -0.114806D+01 -0.226392D+00
     29  0.247777D+00  0.924726D-02 -0.116186D+01 -0.297274D+01  0.155312D+00
     30 -0.246281D-02  0.201182D+00 -0.211779D+00  0.145698D+00 -0.383813D+01
     31 -0.554349D-01  0.960914D-02  0.599332D-01 -0.300332D-01 -0.142771D-01
     32 -0.101693D+00  0.324116D-01  0.107823D+00  0.123791D+00 -0.520157D-01
     33  0.284977D-01  0.436901D-01  0.216028D-01  0.110192D-02  0.532970D-01
               16            17            18            19            20 
     16  0.208768D+01
     17 -0.119715D+01  0.254627D+01
     18  0.123714D+00  0.862785D-01  0.372407D+01
     19 -0.155408D+00 -0.634808D-01  0.201975D+00  0.257831D+01
     20 -0.337866D-01  0.126289D+00  0.348264D-01  0.547303D+00  0.295759D+01
     21  0.175401D+00  0.505044D-01  0.834242D-02  0.911590D+00 -0.906275D+00
     22 -0.163694D+00 -0.935481D-01 -0.178272D+00  0.165231D+00 -0.109722D-01
     23 -0.564691D-01  0.130144D+00 -0.453174D-01 -0.873927D-02  0.146304D+00
     24 -0.162032D+00 -0.603170D-01  0.613092D-01  0.903822D-02 -0.574763D-01
     25 -0.192888D-02 -0.520285D-03  0.862330D-04 -0.920467D-03  0.201831D-02
     26  0.797168D-02  0.519650D-02 -0.173770D-03 -0.305260D-02  0.180959D-02
     27 -0.540408D-03 -0.811755D-03 -0.174270D-02  0.252153D-03 -0.606883D-03
     28 -0.499271D-02 -0.481781D-02 -0.137172D-03  0.628615D-02 -0.445072D-02
     29  0.323430D-02  0.320396D-02  0.483888D-03 -0.470149D-02  0.206253D-02
     30  0.903945D-03  0.114970D-02 -0.217202D-02 -0.194989D-02  0.140304D-02
     31 -0.142950D-01  0.868075D-02  0.753890D-02 -0.133970D-01  0.138154D-02
     32  0.413132D-02 -0.853606D-02  0.371135D-02  0.431979D-02 -0.159610D-02
     33  0.936313D-02 -0.335374D-02  0.404349D-02  0.522947D-02 -0.849820D-03
               21            22            23            24            25 
     21  0.192990D+01
     22 -0.172720D-01  0.257701D+01
     23 -0.243603D-01  0.444082D+00  0.337735D+01
     24 -0.299705D+00 -0.105263D+01  0.662793D+00  0.213362D+01
     25 -0.129883D-02  0.114405D-02 -0.217726D-02  0.260519D-02  0.396687D+01
     26  0.619982D-02 -0.940285D-02  0.646963D-02 -0.850514D-02  0.232364D+00
     27 -0.994387D-03  0.202491D-02 -0.186678D-02 -0.691293D-03  0.235381D-01
     28 -0.509067D-02  0.635693D-02 -0.323928D-02  0.478406D-02 -0.346291D-01
     29  0.341464D-02 -0.469660D-02  0.148386D-02 -0.321089D-02 -0.250959D-01
     30  0.400062D-04  0.354170D-03 -0.226466D-03 -0.136244D-02  0.154813D-02
     31  0.339395D-02  0.111048D-01  0.300093D-02  0.659096D-02 -0.195817D-02
     32 -0.445881D-02  0.105465D-01 -0.655871D-02  0.709042D-02  0.899473D-03
     33 -0.278707D-02  0.177983D-01  0.141468D-03  0.473157D-02  0.413556D-03
               26            27            28            29            30 
     26  0.107925D+01
     27  0.151218D+00  0.365596D+01
     28 -0.185869D-01  0.440139D-03  0.233411D+01
     29 -0.279182D-02  0.212636D-02  0.130659D+01  0.295646D+01
     30 -0.134069D-02  0.454595D-02  0.271113D+00 -0.933892D-01  0.360480D+01
     31 -0.838223D-02  0.219787D-03  0.107257D-01 -0.467552D-01 -0.126088D-01
     32  0.116133D-01  0.141471D-02 -0.553569D-01  0.627437D-01  0.223393D-01
     33  0.782185D-02 -0.113231D-02 -0.189742D-01  0.312866D-01 -0.113195D-01
               31            32            33 
     31  0.330309D+01
     32  0.167314D+01  0.366646D+01
     33  0.164782D+01 -0.154384D+01  0.412298D+01
 Leave Link  701 at Tue Sep 24 16:40:41 2019, MaxMem=   671088640 cpu:              48.4 elap:              24.2
 (Enter /shared/centos7/gaussian/g16/l702.exe)
 L702 exits ... SP integral derivatives will be done elsewhere.
 Leave Link  702 at Tue Sep 24 16:40:42 2019, MaxMem=   671088640 cpu:               1.7 elap:               0.9
 (Enter /shared/centos7/gaussian/g16/l703.exe)
 Integral derivatives from FoFJK, PRISM(SPDF).
 Compute integral second derivatives, UseDBF=F ICtDFT=           0.
 ICntrl=    100147.
 Calling FoFJK, ICntrl=    100147 FMM=F ISym2X=0 I1Cent= 0 IOpClX= 0 NMat=1 NMatS=1 NMatT=0.
 FoFJK:  IHMeth= 1 ICntrl=  100147 DoSepK=F KAlg= 0 I1Cent=           0 FoldK=F
 IRaf=         0 NMat=       1 IRICut=       1 DoRegI=T DoRafI=F ISym2E= 0 IDoP0=0 IntGTp=1.
 FoFCou: FMM=F IPFlag=           0 FMFlag=      100000 FMFlg1=         800
         NFxFlg=           0 DoJE=F BraDBF=F KetDBF=F FulRan=T
         wScrn=  0.000000 ICntrl=    100147 IOpCl=  0 I1Cent=           0 NGrid=           0
         NMat0=    1 NMatS0=      1 NMatT0=    0 NMatD0=    1 NMtDS0=    0 NMtDT0=    0
 Symmetry not used in FoFCou.
 FoFCou:  KetSym=F NOpSet=  1 NOpAb=1 NOp=  1.
 FoFCou:  CnvScl= 1.00D+00 Thresh= 1.00D-08 IAcrcy=      12.
 PrismS was handed   670739735 working-precision words and  3688 shell-pairs
 FoFCou: LinMIO=F DoNuc=F BraDBF=F KetDBF=F HaveP=T PDBF=F HaveZ=T HaveW=F
         NIJTC =      10 NIJTAt=       0 NIJTCD=       0 NIJTT =      10
         IJTBeg=       1 IJTEnd=      10 KLTBeg=       1 KLTEnd=      10
         IPTBeg=       1 IPTEnd=      10 IPTBCv=       1 IPTECv=      10
         IZTBeg=       1 IZTEnd=      10 IZTBCv=       1 IZTECv=      10
         IWTBeg=      11 IWTEnd=      10 IWTBCv=      11 IWTECv=      10
         INTBeg=       1 INTEnd=       0 IFTBCv=       1 IFTECv=      10
 NCel replicated for PrismC:     1
 CoulSu-InSpLW:  IPartL=    0 NPrtUS=   20 NPrtUL=    1 DoSpLW=F IThBeg=    0 IThEnd=   19 NThAct=   20.
 CoulSu:  IncDef=  1024 NBBP=        6802516 NTPThr=   100 NPartT=   20 Incr=        1024 LDynOK=F GPUOK=T.
 CoulSu:  NPrtUS=  20 ThrOK=T IAlg=1 NPAlg=1 LenDen=           0 LWGrdD=           0 DoCopy=F ISkipM=0
          DoSpLW=F IThBeg=    0 IThEnd=   19.
 Enter PrismC:  IPart=  0 JobTyp=22 DoJE=F Cont=F.
 PrismC:  IPart=     0 DynPar=T LinDyn=F Incr=        1024 UseFst=F UseS4=T ISplat=2.
 PrismC was handed    33455976 working-precision words and  3688 shell-pairs
 Enter PrismC:  IPart= 16 JobTyp=22 DoJE=F Cont=F.
 PrismC:  IPart=    16 DynPar=T LinDyn=F Incr=        1024 UseFst=F UseS4=T ISplat=2.
 PrismC was handed    33455976 working-precision words and  3688 shell-pairs
 Enter PrismC:  IPart=  2 JobTyp=22 DoJE=F Cont=F.
 PrismC:  IPart=     2 DynPar=T LinDyn=F Incr=        1024 UseFst=F UseS4=T ISplat=2.
 PrismC was handed    33455976 working-precision words and  3688 shell-pairs
 Enter PrismC:  IPart= 17 JobTyp=22 DoJE=F Cont=F.
 PrismC:  IPart=    17 DynPar=T LinDyn=F Incr=        1024 UseFst=F UseS4=T ISplat=2.
 PrismC was handed    33455976 working-precision words and  3688 shell-pairs
 Enter PrismC:  IPart=  5 JobTyp=22 DoJE=F Cont=F.
 Enter PrismC:  IPart=  9 JobTyp=22 DoJE=F Cont=F.
 PrismC:  IPart=     5 DynPar=T LinDyn=F Incr=        1024 UseFst=F UseS4=T ISplat=2.
 PrismC was handed    33455976 working-precision words and  3688 shell-pairs
 PrismC:  IPart=     9 DynPar=T LinDyn=F Incr=        1024 UseFst=F UseS4=T ISplat=2.
 PrismC was handed    33455976 working-precision words and  3688 shell-pairs
 Enter PrismC:  IPart= 19 JobTyp=22 DoJE=F Cont=F.
 PrismC:  IPart=    19 DynPar=T LinDyn=F Incr=        1024 UseFst=F UseS4=T ISplat=2.
 PrismC was handed    33455976 working-precision words and  3688 shell-pairs
 Enter PrismC:  IPart= 11 JobTyp=22 DoJE=F Cont=F.
 PrismC:  IPart=    11 DynPar=T LinDyn=F Incr=        1024 UseFst=F UseS4=T ISplat=2.
 PrismC was handed    33455976 working-precision words and  3688 shell-pairs
 Enter PrismC:  IPart= 12 JobTyp=22 DoJE=F Cont=F.
 PrismC:  IPart=    12 DynPar=T LinDyn=F Incr=        1024 UseFst=F UseS4=T ISplat=2.
 PrismC was handed    33455976 working-precision words and  3688 shell-pairs
 Enter PrismC:  IPart=  1 JobTyp=22 DoJE=F Cont=F.
 PrismC:  IPart=     1 DynPar=T LinDyn=F Incr=        1024 UseFst=F UseS4=T ISplat=2.
 PrismC was handed    33455976 working-precision words and  3688 shell-pairs
 Enter PrismC:  IPart=  6 JobTyp=22 DoJE=F Cont=F.
 Enter PrismC:  IPart=  4 JobTyp=22 DoJE=F Cont=F.
 PrismC:  IPart=     6 DynPar=T LinDyn=F Incr=        1024 UseFst=F UseS4=T ISplat=2.
 PrismC was handed    33455976 working-precision words and  3688 shell-pairs
 PrismC:  IPart=     4 DynPar=T LinDyn=F Incr=        1024 UseFst=F UseS4=T ISplat=2.
 PrismC was handed    33455976 working-precision words and  3688 shell-pairs
 Enter PrismC:  IPart= 18 JobTyp=22 DoJE=F Cont=F.
 PrismC:  IPart=    18 DynPar=T LinDyn=F Incr=        1024 UseFst=F UseS4=T ISplat=2.
 PrismC was handed    33455976 working-precision words and  3688 shell-pairs
 Enter PrismC:  IPart= 15 JobTyp=22 DoJE=F Cont=F.
 PrismC:  IPart=    15 DynPar=T LinDyn=F Incr=        1024 UseFst=F UseS4=T ISplat=2.
 PrismC was handed    33455976 working-precision words and  3688 shell-pairs
 Enter PrismC:  IPart=  7 JobTyp=22 DoJE=F Cont=F.
 PrismC:  IPart=     7 DynPar=T LinDyn=F Incr=        1024 UseFst=F UseS4=T ISplat=2.
 PrismC was handed    33455976 working-precision words and  3688 shell-pairs
 Enter PrismC:  IPart= 14 JobTyp=22 DoJE=F Cont=F.
 PrismC:  IPart=    14 DynPar=T LinDyn=F Incr=        1024 UseFst=F UseS4=T ISplat=2.
 PrismC was handed    33455976 working-precision words and  3688 shell-pairs
 Enter PrismC:  IPart= 13 JobTyp=22 DoJE=F Cont=F.
 PrismC:  IPart=    13 DynPar=T LinDyn=F Incr=        1024 UseFst=F UseS4=T ISplat=2.
 PrismC was handed    33455976 working-precision words and  3688 shell-pairs
 Enter PrismC:  IPart=  3 JobTyp=22 DoJE=F Cont=F.
 PrismC:  IPart=     3 DynPar=T LinDyn=F Incr=        1024 UseFst=F UseS4=T ISplat=2.
 PrismC was handed    33455976 working-precision words and  3688 shell-pairs
 Enter PrismC:  IPart= 10 JobTyp=22 DoJE=F Cont=F.
 PrismC:  IPart=    10 DynPar=T LinDyn=F Incr=        1024 UseFst=F UseS4=T ISplat=2.
 PrismC was handed    33455976 working-precision words and  3688 shell-pairs
 Enter PrismC:  IPart=  8 JobTyp=22 DoJE=F Cont=F.
 PrismC:  IPart=     8 DynPar=T LinDyn=F Incr=        1024 UseFst=F UseS4=T ISplat=2.
 PrismC was handed    33455976 working-precision words and  3688 shell-pairs
 IPart=  4 NShTot=      237508 NShNF=      237508 NShFF=           0 MinMC=       7
           NShCPU=      237508 NBCPU=        9655 AvBCPU=        24.6
           NShGPU=           0 NBGPU=           0 AvBGPU=         0.0
 IPart=  9 NShTot=      230412 NShNF=      230412 NShFF=           0 MinMC=       7
           NShCPU=      230412 NBCPU=        9546 AvBCPU=        24.1
           NShGPU=           0 NBGPU=           0 AvBGPU=         0.0
 IPart= 16 NShTot=      253395 NShNF=      253395 NShFF=           0 MinMC=       7
           NShCPU=      253395 NBCPU=        9737 AvBCPU=        26.0
           NShGPU=           0 NBGPU=           0 AvBGPU=         0.0
 IPart=  8 NShTot=      237617 NShNF=      237617 NShFF=           0 MinMC=       7
           NShCPU=      237617 NBCPU=        9784 AvBCPU=        24.3
           NShGPU=           0 NBGPU=           0 AvBGPU=         0.0
 IPart=  2 NShTot=      243689 NShNF=      243689 NShFF=           0 MinMC=       7
           NShCPU=      243689 NBCPU=        9879 AvBCPU=        24.7
           NShGPU=           0 NBGPU=           0 AvBGPU=         0.0
 IPart=  3 NShTot=      250402 NShNF=      250402 NShFF=           0 MinMC=       7
           NShCPU=      250402 NBCPU=       10034 AvBCPU=        25.0
           NShGPU=           0 NBGPU=           0 AvBGPU=         0.0
 IPart= 18 NShTot=      213150 NShNF=      213150 NShFF=           0 MinMC=       7
           NShCPU=      213150 NBCPU=        9462 AvBCPU=        22.5
           NShGPU=           0 NBGPU=           0 AvBGPU=         0.0
 IPart= 10 NShTot=      250014 NShNF=      250014 NShFF=           0 MinMC=       7
           NShCPU=      250014 NBCPU=       10362 AvBCPU=        24.1
           NShGPU=           0 NBGPU=           0 AvBGPU=         0.0
 IPart=  1 NShTot=      220699 NShNF=      220699 NShFF=           0 MinMC=       7
           NShCPU=      220699 NBCPU=        9476 AvBCPU=        23.3
           NShGPU=           0 NBGPU=           0 AvBGPU=         0.0
 IPart= 11 NShTot=      226607 NShNF=      226607 NShFF=           0 MinMC=       7
           NShCPU=      226607 NBCPU=        9791 AvBCPU=        23.1
           NShGPU=           0 NBGPU=           0 AvBGPU=         0.0
 IPart= 13 NShTot=      233725 NShNF=      233725 NShFF=           0 MinMC=       7
           NShCPU=      233725 NBCPU=        9919 AvBCPU=        23.6
           NShGPU=           0 NBGPU=           0 AvBGPU=         0.0
 IPart= 19 NShTot=      214483 NShNF=      214483 NShFF=           0 MinMC=       7
           NShCPU=      214483 NBCPU=        9332 AvBCPU=        23.0
           NShGPU=           0 NBGPU=           0 AvBGPU=         0.0
 IPart=  5 NShTot=      240236 NShNF=      240236 NShFF=           0 MinMC=       7
           NShCPU=      240236 NBCPU=        9966 AvBCPU=        24.1
           NShGPU=           0 NBGPU=           0 AvBGPU=         0.0
 IPart=  7 NShTot=      212882 NShNF=      212882 NShFF=           0 MinMC=       7
           NShCPU=      212882 NBCPU=        8847 AvBCPU=        24.1
           NShGPU=           0 NBGPU=           0 AvBGPU=         0.0
 IPart=  0 NShTot=      236902 NShNF=      236902 NShFF=           0 MinMC=       7
           NShCPU=      236902 NBCPU=       10609 AvBCPU=        22.3
           NShGPU=           0 NBGPU=           0 AvBGPU=         0.0
 IPart= 15 NShTot=      248088 NShNF=      248088 NShFF=           0 MinMC=       7
           NShCPU=      248088 NBCPU=       10592 AvBCPU=        23.4
           NShGPU=           0 NBGPU=           0 AvBGPU=         0.0
 IPart= 12 NShTot=      223679 NShNF=      223679 NShFF=           0 MinMC=       7
           NShCPU=      223679 NBCPU=        9437 AvBCPU=        23.7
           NShGPU=           0 NBGPU=           0 AvBGPU=         0.0
 IPart= 14 NShTot=      237476 NShNF=      237476 NShFF=           0 MinMC=       7
           NShCPU=      237476 NBCPU=        9987 AvBCPU=        23.8
           NShGPU=           0 NBGPU=           0 AvBGPU=         0.0
 IPart= 17 NShTot=      242602 NShNF=      242602 NShFF=           0 MinMC=       7
           NShCPU=      242602 NBCPU=       10630 AvBCPU=        22.8
           NShGPU=           0 NBGPU=           0 AvBGPU=         0.0
 IPart=  6 NShTot=      218877 NShNF=      218877 NShFF=           0 MinMC=       7
           NShCPU=      218877 NBCPU=        9208 AvBCPU=        23.8
           NShGPU=           0 NBGPU=           0 AvBGPU=         0.0
 CoulSu:  NxtVal=        7258113 LenVP=       33455977 MinMC=       7.
 ReadGW:  IGet=0 IStart=           1 Next=           1 LGW=           0.
 Remaining memory in FofDFT      639.93 Mw
 CkSvGd:  ISavGI=        -1 IRadAn=       5 IRASav=       5 ISavGd=        -1.
 CalDSu-InSpLW:  IPartL=    0 NPrtUS=   20 NPrtUL=    1 DoSpLW=F IThBeg=    0 IThEnd=   19 NThAct=   20.
 CalDSu:  NPrtUS=  20 ThrOK=T IAlg=1 NPAlg=2 DoDPD=T LenP=       35245 LenD1P=             0 GPUOK=F
          ISkipM=0 DoSpLW=F IThBeg=    0 IThEnd=   19.
 IPart=  0 IRanGd=          0 ScrnBf=T ScrnGd=T RCrit=4.00D+00 DoMicB=T.
 IPart= 11        12659 of        14182 points in      15 batches and       60 microbatches, Max-NSigAt=      11 Max-NSgAt2=      11
 IPart= 18        11170 of        13062 points in      14 batches and       69 microbatches, Max-NSigAt=      11 Max-NSgAt2=      11
 IPart=  7         9742 of        11308 points in      13 batches and       89 microbatches, Max-NSigAt=      11 Max-NSgAt2=      11
 IPart= 13        10615 of        11888 points in      13 batches and       81 microbatches, Max-NSigAt=      11 Max-NSgAt2=      11
 IPart=  9        10881 of        12164 points in      13 batches and       80 microbatches, Max-NSigAt=      11 Max-NSgAt2=      11
 IPart=  6        11332 of        11834 points in      11 batches and       52 microbatches, Max-NSigAt=      11 Max-NSgAt2=      11
 IPart= 12         9485 of        10496 points in      11 batches and       80 microbatches, Max-NSigAt=      11 Max-NSgAt2=      11
 IPart= 14        12552 of        14242 points in      15 batches and       80 microbatches, Max-NSigAt=      11 Max-NSgAt2=      11
 IPart= 15        10597 of        11500 points in      12 batches and       77 microbatches, Max-NSigAt=      11 Max-NSgAt2=      11
 IPart=  3        12304 of        13340 points in      14 batches and       56 microbatches, Max-NSigAt=      11 Max-NSgAt2=      11
 IPart= 17        11388 of        11968 points in      11 batches and       53 microbatches, Max-NSigAt=      11 Max-NSgAt2=      11
 IPart= 19         9992 of        10676 points in      11 batches and       62 microbatches, Max-NSigAt=      11 Max-NSgAt2=      11
 IPart=  5        10624 of        11252 points in      11 batches and       58 microbatches, Max-NSigAt=      11 Max-NSgAt2=      11
 IPart=  2        10556 of        10990 points in      11 batches and       57 microbatches, Max-NSigAt=      11 Max-NSgAt2=      11
 IPart=  8        10588 of        11304 points in      12 batches and       66 microbatches, Max-NSigAt=      11 Max-NSgAt2=      11
 IPart=  1        12072 of        13338 points in      13 batches and       68 microbatches, Max-NSigAt=      11 Max-NSgAt2=      11
 IPart=  4        11632 of        12720 points in      14 batches and       54 microbatches, Max-NSigAt=      11 Max-NSgAt2=      11
 IPart= 10        13620 of        15720 points in      18 batches and       74 microbatches, Max-NSigAt=      11 Max-NSgAt2=      11
 IPart= 16        12277 of        12854 points in      12 batches and       53 microbatches, Max-NSigAt=      11 Max-NSgAt2=      11
 IPart=  0        10560 of        11260 points in      11 batches and       66 microbatches, Max-NSigAt=      11 Max-NSgAt2=      11
 Polarizability after L703:
                1             2             3 
      1  0.000000D+00
      2  0.000000D+00  0.000000D+00
      3  0.000000D+00  0.000000D+00  0.000000D+00
 Dipole Derivatives after L703:
                 1             2             3             4             5 
      1  -0.380461D-01  0.140624D-01 -0.462295D-01  0.161207D+00 -0.299178D-01
      2   0.191513D+00 -0.187573D+00  0.214486D-02  0.524151D+00 -0.643817D+00
      3  -0.536469D-01  0.148417D-01 -0.258391D+00  0.183670D+00 -0.268704D+00
                 6             7             8             9            10 
      1  -0.255728D+00 -0.823966D+00  0.525729D+00  0.182049D-01 -0.557667D+00
      2  -0.419545D+00  0.739119D-01 -0.845929D+00 -0.322586D-01  0.225055D-01
      3  -0.572266D+00 -0.361297D-01  0.233434D-03 -0.774501D+00  0.599763D-01
                11            12            13            14            15 
      1  -0.116889D+00  0.116327D+00 -0.795906D+00  0.376540D+00  0.620122D-01
      2  -0.798489D+00 -0.516732D-01  0.488682D-01 -0.592597D+00  0.975258D-01
      3  -0.154911D-02  0.329048D-01  0.228462D-01  0.659807D-01  0.285230D-01
                16            17            18            19            20 
      1   0.175707D-01 -0.112990D+00  0.229186D-01  0.459322D+00 -0.268954D+00
      2   0.387175D+00  0.343504D+00  0.188948D-01 -0.194488D+00  0.276970D+00
      3   0.239516D-03 -0.232516D-01  0.585364D-01 -0.180085D+00  0.712860D-01
                21            22            23            24            25 
      1  -0.632325D+00  0.568640D+00 -0.179754D+00  0.633451D+00  0.205317D+00
      2   0.295745D+00 -0.210401D+00  0.237841D+00 -0.251443D+00 -0.289401D-01
      3   0.408907D+00  0.239623D+00 -0.468316D-01  0.446068D+00  0.460163D-02
                26            27            28            29            30 
      1  -0.740855D-02  0.352548D-02  0.883567D+00 -0.500449D+00 -0.115173D+00
      2   0.107820D+01 -0.613727D-01 -0.331142D+00  0.444295D+00  0.767463D-01
      3   0.474742D-03  0.909306D-01 -0.220101D-01  0.410907D-01  0.923599D-01
                31            32            33 
      1  -0.800389D-01  0.300031D+00  0.193017D+00
      2  -0.483153D+00  0.687598D+00  0.325235D+00
      3  -0.219085D+00  0.146429D+00  0.446928D+00
 Hessian after L703:
                1             2             3             4             5 
      1  0.398568D+00
      2 -0.113688D+00  0.412845D+00
      3 -0.140463D-01 -0.260311D-01  0.617090D-01
      4  0.696033D-02 -0.203826D-03  0.795303D-03  0.291666D+00
      5 -0.203672D-01  0.163841D-01  0.412799D-02 -0.103673D-01  0.472977D+00
      6  0.269352D-02 -0.261761D-02 -0.540799D-02 -0.143545D+00  0.986169D-01
      7 -0.933459D-01 -0.128410D-02  0.231577D-02  0.409264D-04 -0.163107D-02
      8  0.307337D-01 -0.216835D+00  0.137989D-01  0.929172D-02 -0.116106D-01
      9 -0.224518D-02  0.192649D-01 -0.573359D-01 -0.189058D-02  0.422471D-03
     10 -0.259065D+00  0.610136D-01  0.107581D-01  0.348823D-02  0.111369D-01
     11  0.233081D-01 -0.116866D+00  0.470515D-02 -0.388031D-01 -0.422735D-01
     12  0.153534D-01 -0.157895D-03 -0.368627D-01 -0.100034D-02 -0.390563D-02
     13 -0.412346D-01 -0.840461D-02  0.110428D-02 -0.108553D+00 -0.736996D-01
     14  0.441019D-01  0.954435D-03 -0.418304D-02 -0.433806D-01 -0.294719D+00
     15  0.247523D-02  0.191298D-02  0.853487D-02  0.193602D-01  0.197510D-02
     16  0.875353D-02  0.701445D-02 -0.799568D-03 -0.124998D-01  0.909406D-03
     17 -0.218696D-01 -0.339321D-01  0.329513D-02 -0.279332D-02  0.347307D-02
     18  0.187593D-02  0.197899D-02  0.314791D-03 -0.172106D-02  0.640200D-03
     19 -0.258566D-02  0.786658D-02  0.335043D-02 -0.195266D-02  0.443045D-03
     20  0.262430D-01 -0.268405D-01 -0.218724D-01 -0.922348D-03  0.221216D-02
     21 -0.213553D-02 -0.226604D-02  0.107316D-01  0.988156D-04  0.243262D-03
     22 -0.147243D-02  0.627581D-02 -0.363378D-02 -0.117568D-02  0.176651D-03
     23  0.273338D-01 -0.217117D-01  0.263517D-01 -0.952651D-03  0.221997D-02
     24 -0.194571D-03  0.624751D-02  0.662724D-02  0.524320D-03 -0.731676D-03
     25 -0.113628D-01  0.396626D-01 -0.118616D-02 -0.388454D-02 -0.169726D-02
     26  0.799498D-02 -0.130543D-01  0.704248D-03 -0.184106D-02  0.224966D-02
     27  0.184714D-03 -0.211144D-02  0.202706D-02  0.350856D-03 -0.904128D-03
     28 -0.119364D-02 -0.302596D-02  0.108974D-02  0.120095D-01 -0.669750D-02
     29 -0.350323D-02  0.515843D-03 -0.630580D-03  0.228762D-01 -0.337402D-01
     30 -0.113334D-02  0.986393D-03  0.108743D-01  0.488555D-03 -0.347063D-02
     31 -0.402114D-02  0.477315D-02  0.252228D-03 -0.186099D+00  0.101794D+00
     32 -0.287775D-03 -0.145988D-02 -0.266024D-03  0.670963D-01 -0.117172D+00
     33 -0.282793D-02  0.279339D-02 -0.121237D-02  0.126539D+00 -0.970138D-01
                6             7             8             9            10 
      6  0.160201D+00
      7 -0.170649D-02  0.550225D+00
      8  0.232913D-02 -0.270337D-04  0.445823D+00
      9 -0.213365D-03  0.372975D-01 -0.852563D-02  0.547151D+00
     10 -0.246193D-02 -0.479893D-02  0.157583D-01 -0.960052D-03  0.824986D+00
     11  0.201691D-02  0.408947D-01 -0.280784D-01 -0.200468D-02  0.167630D+00
     12  0.814918D-02 -0.418876D-02 -0.324654D-03 -0.779819D-02 -0.351184D-01
     13  0.139451D-01  0.829968D-03 -0.544223D-02  0.211360D-03 -0.505994D+00
     14 -0.240366D-01 -0.105266D-02  0.203659D-01 -0.134878D-02 -0.217928D+00
     15 -0.481012D-01 -0.944784D-04  0.459110D-03  0.680279D-03  0.230655D-01
     16 -0.823230D-04 -0.203905D+00 -0.873165D-01  0.803536D-02  0.337945D-02
     17 -0.564769D-03 -0.725463D-01 -0.100229D+00  0.433091D-02 -0.674350D-02
     18  0.388084D-03  0.101711D-01  0.768811D-02 -0.601561D-01  0.110660D-03
[...]
     Eigenvalues ---    0.13475   0.16484   0.18191   0.18736   0.19826
     Eigenvalues ---    0.22138   0.23301   0.33222   0.33591   0.35088
     Eigenvalues ---    0.36355   0.37354   0.39844   0.45086   0.45698
     Eigenvalues ---    0.53342   0.66236
 Angle between quadratic step and forces=  78.10 degrees.
 Linear search not attempted -- first point.
 Iteration  1 RMS(Cart)=  0.00000830 RMS(Int)=  0.00000000
 Iteration  2 RMS(Cart)=  0.00000000 RMS(Int)=  0.00000000
 ITry= 1 IFail=0 DXMaxC= 2.25D-05 DCOld= 1.00D+10 DXMaxT= 3.00D-01 DXLimC= 3.00D+00 Rises=F
 Variable       Old X    -DE/DX   Delta X   Delta X   Delta X     New X
                                 (Linear)    (Quad)   (Total)
    R1        2.67120   0.00000   0.00000  -0.00000  -0.00000   2.67120
    R2        2.59481   0.00000   0.00000   0.00000   0.00000   2.59481
    R3        2.56333  -0.00000   0.00000  -0.00000  -0.00000   2.56333
    R4        1.82347  -0.00000   0.00000  -0.00000  -0.00000   1.82347
    R5        2.06653   0.00000   0.00000   0.00000   0.00000   2.06653
    R6        2.06457   0.00000   0.00000   0.00000   0.00000   2.06457
    R7        2.05345   0.00000   0.00000  -0.00000  -0.00000   2.05345
    R8        2.50502   0.00000   0.00000   0.00000   0.00000   2.50502
    R9        2.04478   0.00000   0.00000  -0.00000  -0.00000   2.04478
   R10        2.03835  -0.00000   0.00000  -0.00000  -0.00000   2.03835
    A1        1.98208   0.00000   0.00000   0.00000   0.00000   1.98208
    A2        1.87243  -0.00000   0.00000  -0.00000  -0.00000   1.87243
    A3        1.93109   0.00000   0.00000   0.00000   0.00000   1.93110
    A4        1.93727   0.00000   0.00000   0.00000   0.00000   1.93727
    A5        1.87229  -0.00000   0.00000  -0.00000  -0.00000   1.87229
    A6        1.90277  -0.00000   0.00000   0.00000   0.00000   1.90277
    A7        1.90554   0.00000   0.00000   0.00000   0.00000   1.90554
    A8        1.91450  -0.00000   0.00000  -0.00000  -0.00000   1.91450
    A9        2.08155   0.00000   0.00000   0.00000   0.00000   2.08155
   A10        2.05343  -0.00000   0.00000  -0.00000  -0.00000   2.05343
   A11        2.14729  -0.00000   0.00000   0.00000   0.00000   2.14729
   A12        2.16215  -0.00000   0.00000  -0.00000  -0.00000   2.16215
   A13        1.98815   0.00000   0.00000   0.00000   0.00000   1.98815
   A14        2.13269  -0.00000   0.00000  -0.00000  -0.00000   2.13269
    D1       -1.02789  -0.00000   0.00000  -0.00000  -0.00000  -1.02789
    D2        1.08701   0.00000   0.00000  -0.00000  -0.00000   1.08701
    D3       -3.10483  -0.00000   0.00000  -0.00000  -0.00000  -3.10483
    D4       -2.45356  -0.00000   0.00000  -0.00002  -0.00002  -2.45357
    D5        0.73254  -0.00000   0.00000  -0.00002  -0.00002   0.73253
    D6       -0.00098   0.00000   0.00000   0.00000   0.00000  -0.00097
    D7        3.11981   0.00000   0.00000   0.00000   0.00000   3.11981
    D8        0.03797   0.00000   0.00000   0.00000   0.00000   0.03797
    D9       -3.08114   0.00000   0.00000  -0.00000  -0.00000  -3.08114
   D10        3.13254   0.00000   0.00000   0.00000   0.00000   3.13254
   D11        0.01342  -0.00000   0.00000  -0.00000  -0.00000   0.01342
         Item               Value     Threshold  Converged?
 Maximum Force            0.000000     0.000015     YES
 RMS     Force            0.000000     0.000010     YES
 Maximum Displacement     0.000022     0.000060     YES
 RMS     Displacement     0.000008     0.000040     YES
 Predicted change in Energy=-1.689125D-12
 Optimization completed.
    -- Stationary point found.
                           ----------------------------
                           !   Optimized Parameters   !
                           ! (Angstroms and Degrees)  !
 --------------------------                            --------------------------
 ! Name  Definition              Value          Derivative Info.                !
 --------------------------------------------------------------------------------
 ! R1    R(1,3)                  1.4135         -DE/DX =    0.0                 !
 ! R2    R(1,4)                  1.3731         -DE/DX =    0.0                 !
 ! R3    R(2,5)                  1.3565         -DE/DX =    0.0                 !
 ! R4    R(2,11)                 0.9649         -DE/DX =    0.0                 !
 ! R5    R(3,6)                  1.0936         -DE/DX =    0.0                 !
 ! R6    R(3,7)                  1.0925         -DE/DX =    0.0                 !
 ! R7    R(3,8)                  1.0866         -DE/DX =    0.0                 !
 ! R8    R(4,5)                  1.3256         -DE/DX =    0.0                 !
 ! R9    R(4,9)                  1.0821         -DE/DX =    0.0                 !
 ! R10   R(5,10)                 1.0786         -DE/DX =    0.0                 !
 ! A1    A(3,1,4)              113.5649         -DE/DX =    0.0                 !
 ! A2    A(5,2,11)             107.2822         -DE/DX =    0.0                 !
 ! A3    A(1,3,6)              110.6436         -DE/DX =    0.0                 !
 ! A4    A(1,3,7)              110.9976         -DE/DX =    0.0                 !
 ! A5    A(1,3,8)              107.2745         -DE/DX =    0.0                 !
 ! A6    A(6,3,7)              109.021          -DE/DX =    0.0                 !
 ! A7    A(6,3,8)              109.1795         -DE/DX =    0.0                 !
 ! A8    A(7,3,8)              109.6929         -DE/DX =    0.0                 !
 ! A9    A(1,4,5)              119.2639         -DE/DX =    0.0                 !
 ! A10   A(1,4,9)              117.6531         -DE/DX =    0.0                 !
 ! A11   A(5,4,9)              123.0307         -DE/DX =    0.0                 !
 ! A12   A(2,5,4)              123.8823         -DE/DX =    0.0                 !
 ! A13   A(2,5,10)             113.9126         -DE/DX =    0.0                 !
 ! A14   A(4,5,10)             122.194          -DE/DX =    0.0                 !
 ! D1    D(4,1,3,6)            -58.8935         -DE/DX =    0.0                 !
 ! D2    D(4,1,3,7)             62.2811         -DE/DX =    0.0                 !
 ! D3    D(4,1,3,8)           -177.8937         -DE/DX =    0.0                 !
 ! D4    D(3,1,4,5)           -140.5786         -DE/DX =    0.0                 !
 ! D5    D(3,1,4,9)             41.9716         -DE/DX =    0.0                 !
 ! D6    D(11,2,5,4)            -0.0561         -DE/DX =    0.0                 !
 ! D7    D(11,2,5,10)          178.7518         -DE/DX =    0.0                 !
 ! D8    D(1,4,5,2)              2.1756         -DE/DX =    0.0                 !
 ! D9    D(1,4,5,10)          -176.5366         -DE/DX =    0.0                 !
 ! D10   D(9,4,5,2)            179.4812         -DE/DX =    0.0                 !
 ! D11   D(9,4,5,10)             0.7691         -DE/DX =    0.0                 !
 --------------------------------------------------------------------------------
 GradGradGradGradGradGradGradGradGradGradGradGradGradGradGradGradGradGrad

 Leave Link  103 at Tue Sep 24 23:24:29 2019, MaxMem=   671088640 cpu:             107.9 elap:              54.7
 (Enter /shared/centos7/gaussian/g16/l9999.exe)

 ----------------------------------------------------------------------

 Electric dipole moment (input orientation):
 (Debye = 10**-18 statcoulomb cm , SI units = C m)
                  (au)            (Debye)         (10**-30 SI)
   Tot        0.864535D+00      0.219743D+01      0.732984D+01
   x         -0.273139D+00     -0.694249D+00     -0.231577D+01
   y         -0.486275D+00     -0.123599D+01     -0.412281D+01
   z          0.660571D+00      0.167900D+01      0.560055D+01

 Dipole polarizability, Alpha (input orientation).
 (esu units = cm**3 , SI units = C**2 m**2 J**-1)
 Alpha(0;0):
               (au)            (10**-24 esu)      (10**-40 SI)
   iso        0.445369D+02      0.659968D+01      0.734314D+01
   aniso      0.248251D+02      0.367871D+01      0.409311D+01
   xx         0.347481D+02      0.514914D+01      0.572919D+01
   yx         0.616118D+01      0.912992D+00      0.101584D+01
   yy         0.530691D+02      0.786403D+01      0.874992D+01
   zx         0.924118D+00      0.136940D+00      0.152366D+00
   zy        -0.902862D+01     -0.133790D+01     -0.148862D+01
   zz         0.457934D+02      0.678588D+01      0.755031D+01

 ----------------------------------------------------------------------

 Dipole orientation:
     8         -0.33819946         -0.14822780          1.36442664
     8         -1.66486672          1.68838594         -3.32150302
     6         -1.07727565         -0.22024837          3.93033810
     6          0.46212123          2.19235218          0.58070443
     6         -0.17719847          3.00443872         -1.70116497
     1          0.48724695          0.34730836          5.15536727
     1         -2.68625948          1.02748290          4.27206348
     1         -1.60139102         -2.15868756          4.35975594
     1          1.66375293          3.25748094          1.84668996
     1          0.48706935          4.78127555         -2.44713617
     1         -2.12119114          0.12930463         -2.49321398

 Electric dipole moment (dipole orientation):
 (Debye = 10**-18 statcoulomb cm , SI units = C m)
                  (au)            (Debye)         (10**-30 SI)
   Tot        0.864535D+00      0.219743D+01      0.732984D+01
   x          0.000000D+00      0.000000D+00      0.000000D+00
   y          0.000000D+00      0.000000D+00      0.000000D+00
   z          0.864535D+00      0.219743D+01      0.732984D+01

 Dipole polarizability, Alpha (dipole orientation).
 (esu units = cm**3 , SI units = C**2 m**2 J**-1)
 Alpha(0;0):
               (au)            (10**-24 esu)      (10**-40 SI)
   iso        0.445369D+02      0.659968D+01      0.734314D+01
   aniso      0.248251D+02      0.367871D+01      0.409311D+01
   xx         0.359910D+02      0.533332D+01      0.593412D+01
   yx         0.391249D+01      0.579771D+00      0.645082D+00
   yy         0.411228D+02      0.609377D+01      0.678024D+01
   zx         0.350437D+01      0.519294D+00      0.577792D+00
   zy        -0.799864D+01     -0.118528D+01     -0.131880D+01
   zz         0.564968D+02      0.837195D+01      0.931506D+01

 ----------------------------------------------------------------------

 Test job not archived.
 1\1\GINC-C0277\Freq\RM062X\CC-pVTZ\C3H6O2\HARMS.N\24-Sep-2019\0\\#P Ge
 om=AllCheck Guess=TCheck SCRF=Check Test GenChk RM062X/CC-pVTZ Freq\\G
 aussian input prepared by ASE\\0,1\O,-0.389053323,-0.4524592094,0.4510
 1893\O,-0.3658512985,1.8106027025,-1.1187907103\C,-1.1831728896,-1.208
 071255,1.343497655\C,0.0167536202,0.7546026277,0.9646024439\C,0.035791
 1557,1.8205399515,0.1767991893\H,-0.6371717155,-1.4096210207,2.2693138
 651\H,-2.1100784016,-0.682157501,1.584049619\H,-1.4132903973,-2.149760
 2304,0.8525311233\H,0.3482156136,0.7762894573,1.9944084139\H,0.3974156
 692,2.7787989971,0.5151045227\H,-0.6490335113,0.9113227928,-1.32423292
 95\\Version=EM64L-G16RevA.03\State=1-A\HF=-268.3241864\RMSD=5.832e-09\
 RMSF=9.045e-07\ZeroPoint=0.0911284\Thermal=0.0969967\Dipole=-0.2731387
 ,-0.4862747,0.6605707\DipoleDeriv=-0.5022012,-0.4185949,0.1563832,-0.3
 857858,-1.3678182,0.3935247,0.04075,-0.0366764,-0.5377008,-0.3699251,0
 .137406,-0.3049931,-0.0273089,-0.2972155,-0.1030022,-0.1374872,0.41712
 45,-1.2632448,0.5279369,0.237276,-0.1754028,0.1602731,0.5786893,-0.222
 0547,-0.2008653,-0.3684065,0.5412604,-0.0829003,0.2470602,0.1001156,0.
 2876861,0.8166937,0.0012473,0.2180584,0.3503818,-0.1156045,-0.0257847,
 -0.0692171,0.360982,0.0222216,0.1226837,-0.0497787,0.1959297,-0.393049
 9,1.0852677,-0.0397634,0.0050814,-0.1090933,-0.0177743,0.0260581,0.014
 2503,-0.0324877,0.1000552,-0.1111427,-0.1139694,-0.0037948,0.0635159,0
 .1164463,-0.0100792,-0.0325687,0.049242,0.0670137,0.0066533,0.0524384,
 -0.0480874,0.0144792,-0.0597808,-0.0950861,-0.0230613,-0.0126285,-0.07
 27392,0.0172511,0.134792,-0.0040781,-0.0726796,-0.0306156,0.0094338,0.
 0411614,-0.0869369,-0.049077,-0.0290121,0.1215599,-0.0547018,-0.048740
 6,-0.0528065,0.0086354,-0.0394683,-0.0342103,-0.011574,0.0381424,0.297
 8168,-0.0283496,0.0154338,-0.0125551,0.208005,0.0197501,0.0006359,-0.0
 030523,0.36813\Polar=34.7480901,6.1611768,53.0691309,0.9241176,-9.0286
 217,45.7933778\Quadrupole=-0.739938,0.4260219,0.3139161,2.0019561,0.75
 98697,1.1272792\PG=C01 [X(C3H6O2)]\NImag=0\\0.19867343,0.18196146,0.45
 895492,-0.07537080,0.00428257,0.31357237,-0.00411042,0.00659661,0.0061
 0421,0.11253083,0.00252909,0.00685282,0.00410217,0.14634433,0.54949329
 ,0.00755206,0.01073759,0.00955805,0.13999439,0.06738509,0.43874507,-0.
 11838155,-0.06131169,0.06002603,-0.00111167,0.00218693,-0.00124332,0.5
 4668567,-0.04731693,-0.11625261,0.03490100,-0.00101723,0.00011501,-0.0
 0331484,-0.01772733,0.58751573,0.07521269,0.06593401,-0.16068773,0.001
 41709,0.00159736,0.00479951,0.03780345,0.05614083,0.54855604,-0.066143
 04,-0.05816053,-0.01437739,0.00980793,0.00771301,-0.02372562,-0.014738
 85,-0.02845236,-0.00664519,0.18536734,-0.07531379,-0.25165348,-0.05778
 618,-0.00142919,0.00483431,-0.00486913,-0.01761204,-0.04353645,-0.0025
 2881,0.10795119,0.74133454,-0.03041672,-0.08661700,-0.13284545,-0.0167
 1341,0.03137095,-0.06495368,0.00477286,0.02221797,0.01226286,0.1328126
 4,-0.18769689,0.74925216,0.00570776,-0.02321523,0.00330187,-0.07237091
 ,-0.02143414,-0.07525464,0.00126179,-0.00139097,-0.00317884,-0.0629755
 9,-0.01579634,-0.00868733,0.20416803,-0.01261854,-0.06239980,0.0159577
 6,-0.00849644,-0.10889764,0.03027804,0.00263083,0.00142404,-0.00613851
 ,-0.02106946,-0.39545060,0.20955697,0.14798991,0.85930408,-0.00957329,
 -0.03166750,0.00680266,-0.08625994,-0.01779876,-0.31438504,0.00065787,
 0.00041346,-0.00797363,-0.00308911,0.24154216,-0.25534257,0.13841257,-
 0.13099729,0.67659648,0.01056235,-0.01039674,0.02484716,0.00027005,-0.
 00053671,-0.00013429,-0.12655472,0.02371944,-0.11816739,0.00188140,0.0
 0230156,0.00256400,-0.00027538,-0.00001342,0.00032258,0.12996502,0.001
 08187,-0.00959309,0.02272191,-0.00007641,-0.00040598,-0.00040935,0.022
 51282,-0.05882153,0.02984236,0.00281618,0.00358511,0.00399847,-0.00009
 778,-0.00048871,-0.00001139,-0.02123466,0.05987046,0.00098347,0.015184
 88,-0.02732616,0.00019353,0.00026635,0.00001856,-0.11271894,0.03304846
 ,-0.22294085,-0.00120115,-0.00449877,-0.00014065,0.00020763,0.00085214
 ,0.00027820,0.11839819,-0.04582494,0.25271045,-0.02112529,-0.00299806,
 0.01474563,0.00020042,0.00005854,0.00037699,-0.23001065,0.10931546,0.0
 3834644,0.00195817,0.00390682,0.00109340,-0.00027581,-0.00134368,-0.00
 063447,-0.01290413,0.01035076,0.00240219,0.25506921,-0.02488563,0.0073
 2516,0.00945598,-0.00058256,-0.00006446,-0.00048542,0.11481562,-0.1223
 2589,-0.02881908,-0.00054178,0.00547463,0.00021428,0.00117833,-0.00043
 585,0.00118120,0.00328551,-0.00155990,-0.00211070,-0.11653442,0.123320
 00,0.02878057,-0.00283205,-0.01042250,-0.00042326,-0.00019501,-0.00102
 847,0.03672003,-0.02510332,-0.06039747,-0.00171518,-0.00293130,-0.0007
 0528,0.00014365,0.00084077,0.00113048,-0.02307248,0.01372383,0.0069766
 6,-0.05370500,0.02415771,0.06634198,-0.00802637,-0.02314751,-0.0070642
 7,0.00004178,0.00008581,0.00037642,-0.06048879,-0.03994449,-0.02324839
 ,-0.00071583,-0.00145218,0.00320194,-0.00050119,-0.00106844,-0.0008325
 3,-0.00269586,-0.01485441,-0.00869888,0.00796681,0.02317021,0.01286856
 ,0.06432691,-0.00887463,-0.02090411,-0.00448688,0.00034072,0.00015850,
 0.00099364,-0.04574882,-0.25012312,-0.10998124,-0.00128110,0.00027179,
 0.00436497,-0.00099639,-0.00042091,-0.00175699,0.00187788,0.00722038,0
 .00224342,-0.00281113,-0.01154281,-0.00812143,0.05726135,0.27577061,0.
 00963464,0.02715206,0.01009557,0.00010689,-0.00022517,-0.00007549,-0.0
 2959106,-0.12128844,-0.11487868,0.00161045,0.00182715,-0.00275950,0.00
 046937,0.00110949,0.00112029,-0.00371540,-0.02282485,-0.01058369,-0.00
 209753,-0.00339969,-0.00188303,0.02339389,0.11698462,0.11873949,-0.002
 48982,-0.00527939,-0.00793437,0.00942772,-0.00315363,-0.00320639,0.001
 20117,0.00132452,-0.00224067,-0.05697300,-0.00430800,-0.09012193,0.000
 43135,0.00153934,0.00324013,0.00015021,-0.00027804,0.00031955,-0.00060
 399,-0.00014143,-0.00004145,-0.00008559,0.00014544,0.00041101,0.053292
 51,-0.01424618,-0.01000775,-0.03159208,-0.00278405,-0.00318013,0.00403
 255,0.00139423,0.00349564,-0.00507691,-0.00476719,-0.05504066,0.006780
 17,0.00977460,0.00753108,0.02205782,0.00080759,-0.00001168,0.00125755,
 -0.00014986,-0.00030235,0.00052340,0.00018468,-0.00005678,0.00032907,0
 .00898158,0.05891322,-0.00569401,-0.00684601,-0.01013861,-0.00132369,0
 .00319569,0.00252677,0.00240000,0.00128750,0.00119573,-0.08838640,0.00
 590658,-0.31346416,-0.00541170,-0.00488729,-0.01236097,-0.00083136,-0.
 00094290,0.00050058,-0.00037434,-0.00004547,-0.00003902,-0.00006309,-0
 .00016538,0.00039173,0.09822357,0.00266424,0.33103826,0.00809041,-0.00
 394928,-0.00433171,-0.00253361,-0.00892748,-0.00512488,0.00151540,0.00
 135015,0.00043605,0.00131582,0.00190712,0.00052983,-0.07024385,-0.0924
 7102,-0.03363083,-0.00018590,-0.00016497,0.00003703,-0.00008401,0.0002
 4764,0.00009690,0.00016570,0.00024853,-0.00022276,-0.00371037,0.001009
 14,0.00127417,0.06417302,-0.00242596,0.00044797,0.00494163,0.00012962,
 0.00449588,-0.00210231,0.00035147,-0.00091905,-0.00080385,-0.00756845,
 -0.01391665,-0.01220311,-0.09242860,-0.29747009,-0.07572507,-0.0000110
 7,-0.00006958,0.00011522,-0.00003130,-0.00004900,-0.00003111,-0.000227
 57,-0.00020984,0.00028257,0.00107420,-0.00026452,0.00036981,0.10084663
 ,0.30574349,-0.00156463,0.00497396,-0.00115775,-0.01390491,-0.03268025
 ,-0.01607396,-0.00093058,0.00013468,0.00055932,0.00670220,0.01340584,0
 .01170566,-0.03238417,-0.07022506,-0.07755272,0.00010990,0.00013518,-0
 .00009509,0.00009384,-0.00010801,-0.00007058,0.00014939,0.00011401,-0.
 00018531,0.00118157,-0.00063778,-0.00036064,0.04280242,0.08377217,0.08
 870521,-0.00275745,-0.00009964,0.00005365,-0.05215212,-0.12486574,-0.0
 3961071,0.00062222,0.00013974,0.00026476,0.00121565,-0.00015515,0.0009
 6472,-0.00492620,-0.01507908,-0.00861297,-0.00021304,-0.00005535,0.000
 07738,-0.00019072,-0.00001149,0.00034765,0.00001245,-0.00016185,0.0000
 0051,-0.00064019,-0.00020454,0.00018686,0.00149739,0.00029103,-0.00225
 504,0.05753201,0.00010924,-0.00277003,-0.00249785,-0.13902540,-0.45340
 160,-0.10224586,-0.00149201,-0.00057177,-0.00016618,0.00336049,0.00409
 747,0.00801323,-0.00358339,-0.00269560,-0.00723764,0.00020062,0.000274
 52,-0.00053360,0.00023686,0.00016047,-0.00003148,-0.00000745,-0.000163
 70,0.00005318,0.00009541,-0.00107607,-0.00053676,-0.00009646,0.0022114
 0,0.00111527,0.14020208,0.45393492,0.00045603,-0.00030251,0.00254954,-
 0.02919088,-0.05701842,-0.05913134,0.00210366,0.00156272,-0.00049510,-
 0.00198524,-0.00237065,-0.00300939,-0.01761839,-0.04634701,-0.01831318
 ,-0.00032092,-0.00040831,0.00060198,-0.00024716,-0.00004080,0.00009723
 ,-0.00008304,-0.00018875,0.00001861,0.00016897,-0.00033803,0.00071032,
 -0.00186622,0.00138405,-0.00547414,0.04858320,0.10406770,0.08244547\\-
 0.00000073,0.00000030,-0.00000044,-0.00000117,0.00000107,0.00000040,-0
 .00000023,0.00000026,0.00000019,0.00000055,-0.00000078,-0.00000051,0.0
 0000043,-0.00000043,0.00000024,0.00000074,-0.00000060,-0.00000072,0.00
 000049,0.00000077,0.00000157,-0.00000149,0.00000054,0.00000007,0.00000
 204,-0.00000117,-0.00000095,0.00000157,-0.00000057,-0.00000014,-0.0000
 0219,0.00000063,0.00000029\\\@


 REFRAIN FROM ILLUSIONS, INSIST ON WORK AND NOT WORDS,
 PATIENTLY SEEK DIVINE AND SCIENTIFIC TRUTH.
 LAST WORDS OF MARIA MENDELEEVA TO HER SON DMITRI, C. 1850
 Job cpu time:       0 days  1 hours 13 minutes 11.0 seconds.
 Elapsed time:       0 days  0 hours 36 minutes 37.2 seconds.
 File lengths (MBytes):  RWF=   1312 Int=      0 D2E=      0 Chk=     32 Scr=     32
 Normal termination of Gaussian 16 at Tue Sep 24 23:24:30 2019.
