 Entering Gaussian System, Link 0=g16
 Input=loose/species/COC=CO/conformers/COC=CO_0.com
 Output=loose/species/COC=CO/conformers/COC=CO_0.log
 Initial command:
 /shared/centos7/gaussian/g16/l1.exe "/scratch/harms.n/gauss_scrdir/Gau-10897.inp" -scrdir="/scratch/harms.n/gauss_scrdir/"
 Entering Link 1 = /shared/centos7/gaussian/g16/l1.exe PID=     10898.
  
 Copyright (c) 1988,1990,1992,1993,1995,1998,2003,2009,2016,
            Gaussian, Inc.  All Rights Reserved.
  
 This is part of the Gaussian(R) 16 program.  It is based on
 the Gaussian(R) 09 system (copyright 2009, Gaussian, Inc.),
 the Gaussian(R) 03 system (copyright 2003, Gaussian, Inc.),
 the Gaussian(R) 98 system (copyright 1998, Gaussian, Inc.),
 the Gaussian(R) 94 system (copyright 1995, Gaussian, Inc.),
 the Gaussian 92(TM) system (copyright 1992, Gaussian, Inc.),
 the Gaussian 90(TM) system (copyright 1990, Gaussian, Inc.),
 the Gaussian 88(TM) system (copyright 1988, Gaussian, Inc.),
 the Gaussian 86(TM) system (copyright 1986, Carnegie Mellon
 University), and the Gaussian 82(TM) system (copyright 1983,
 Carnegie Mellon University). Gaussian is a federally registered
 trademark of Gaussian, Inc.
  
 This software contains proprietary and confidential information,
 including trade secrets, belonging to Gaussian, Inc.
  
 This software is provided under written license and may be
 used, copied, transmitted, or stored only in accord with that
 written license.
  
 The following legend is applicable only to US Government
 contracts under FAR:
  
                    RESTRICTED RIGHTS LEGEND
  
 Use, reproduction and disclosure by the US Government is
 subject to restrictions as set forth in subparagraphs (a)
 and (c) of the Commercial Computer Software - Restricted
 Rights clause in FAR 52.227-19.
  
 Gaussian, Inc.
 340 Quinnipiac St., Bldg. 40, Wallingford CT 06492
  
  
 ---------------------------------------------------------------
 Warning -- This program may not be used in any manner that
 competes with the business of Gaussian, Inc. or will provide
 assistance to any competitor of Gaussian, Inc.  The licensee
 of this program is prohibited from giving any competitor of
 Gaussian, Inc. access to this program.  By using this program,
 the user acknowledges that Gaussian, Inc. is engaged in the
 business of creating and licensing software in the field of
 computational chemistry and represents and warrants to the
 licensee that it is not a competitor of Gaussian, Inc. and that
 it will not use this program in any manner prohibited above.
 ---------------------------------------------------------------
  

 Cite this work as:
 Gaussian 16, Revision A.03,
 M. J. Frisch, G. W. Trucks, H. B. Schlegel, G. E. Scuseria, 
 M. A. Robb, J. R. Cheeseman, G. Scalmani, V. Barone, 
 G. A. Petersson, H. Nakatsuji, X. Li, M. Caricato, A. V. Marenich, 
 J. Bloino, B. G. Janesko, R. Gomperts, B. Mennucci, H. P. Hratchian, 
 J. V. Ortiz, A. F. Izmaylov, J. L. Sonnenberg, D. Williams-Young, 
 F. Ding, F. Lipparini, F. Egidi, J. Goings, B. Peng, A. Petrone, 
 T. Henderson, D. Ranasinghe, V. G. Zakrzewski, J. Gao, N. Rega, 
 G. Zheng, W. Liang, M. Hada, M. Ehara, K. Toyota, R. Fukuda, 
 J. Hasegawa, M. Ishida, T. Nakajima, Y. Honda, O. Kitao, H. Nakai, 
 T. Vreven, K. Throssell, J. A. Montgomery, Jr., J. E. Peralta, 
 F. Ogliaro, M. J. Bearpark, J. J. Heyd, E. N. Brothers, K. N. Kudin, 
 V. N. Staroverov, T. A. Keith, R. Kobayashi, J. Normand, 
 K. Raghavachari, A. P. Rendell, J. C. Burant, S. S. Iyengar, 
 J. Tomasi, M. Cossi, J. M. Millam, M. Klene, C. Adamo, R. Cammi, 
 J. W. Ochterski, R. L. Martin, K. Morokuma, O. Farkas, 
 J. B. Foresman, and D. J. Fox, Gaussian, Inc., Wallingford CT, 2016.
 
 ******************************************
 Gaussian 16:  EM64L-G16RevA.03 25-Dec-2016
                24-Sep-2019 
 ******************************************
 %nprocshared=20
 Will use up to   20 processors via shared memory.
 %mem=5GB
 ----------------------------------------------------------------------
 #p m062x/cc-pVTZ opt=(calcfc,maxcycles=900,Tight) freq IOP(7/33=1,2/16
 =3) scf=(maxcycle=900)
 ----------------------------------------------------------------------
 1/6=900,7=10,10=4,18=20,19=15,26=3,38=1/1,3;
 2/9=110,12=2,16=3,17=6,18=5,40=1/2;
 3/5=16,6=1,11=2,25=1,30=1,71=2,74=-55,140=1/1,2,3;
 4//1;
 5/5=2,7=900,38=5/2;
 8/6=4,10=90,11=11/1;
 11/6=1,8=1,9=11,15=111,16=1/1,2,10;
 10/6=1,13=1/2;
 6/7=2,8=2,9=2,10=2,28=1/1;
 7/10=1,18=20,25=1,33=1/1,2,3,16;
 1/6=900,7=10,10=4,18=20,19=15,26=3/3(2);
 2/9=110,16=3/2;
 99//99;
 2/9=110,16=3/2;
 3/5=16,6=1,11=2,25=1,30=1,71=1,74=-55/1,2,3;
 4/5=5,16=3,69=1/1;
 5/5=2,7=900,38=5/2;
 7/33=1/1,2,3,16;
 1/6=900,7=10,18=20,19=15,26=3/3(-5);
 2/9=110,16=3/2;
 6/7=2,8=2,9=2,10=2,19=2,28=1/1;
 99/9=1/99;
 Leave Link    1 at Tue Sep 24 08:44:28 2019, MaxMem=   671088640 cpu:               4.0 elap:               2.0
 (Enter /shared/centos7/gaussian/g16/l101.exe)
 ------------------------------
 Gaussian input prepared by ASE
 ------------------------------
 Symbolic Z-matrix:
 Charge =  0 Multiplicity = 1
 O                     0.23277  -0.7951    1.15414 
 O                     2.93369  -0.02304   1.57732 
 C                    -1.17152  -0.87543   0.89945 
 C                     0.69483   0.49709   0.93891 
 C                     1.95242   0.82585   1.11602 
 H                    -1.50715  -1.92977   1.11887 
 H                    -1.7408   -0.16879   1.56824 
 H                    -1.40661  -0.63576  -0.13775 
 H                    -0.0549    1.22534   0.63562 
 H                     2.29585   1.823     0.94104 
 H                     2.47325  -0.89677   1.81943 
 
 ITRead=  0  0  0  0  0  0  0  0  0  0  0
 MicOpt= -1 -1 -1 -1 -1 -1 -1 -1 -1 -1 -1
 NAtoms=     11 NQM=       11 NQMF=       0 NMMI=      0 NMMIF=      0
                NMic=       0 NMicF=      0.
                    Isotopes and Nuclear Properties:
 (Nuclear quadrupole moments (NQMom) in fm**2, nuclear magnetic moments (NMagM)
  in nuclear magnetons)

  Atom         1           2           3           4           5           6           7           8           9          10
 IAtWgt=          16          16          12          12          12           1           1           1           1           1
 AtmWgt=  15.9949146  15.9949146  12.0000000  12.0000000  12.0000000   1.0078250   1.0078250   1.0078250   1.0078250   1.0078250
 NucSpn=           0           0           0           0           0           1           1           1           1           1
 AtZEff=  -0.0000000  -0.0000000  -0.0000000  -0.0000000  -0.0000000  -0.0000000  -0.0000000  -0.0000000  -0.0000000  -0.0000000
 NQMom=    0.0000000   0.0000000   0.0000000   0.0000000   0.0000000   0.0000000   0.0000000   0.0000000   0.0000000   0.0000000
 NMagM=    0.0000000   0.0000000   0.0000000   0.0000000   0.0000000   2.7928460   2.7928460   2.7928460   2.7928460   2.7928460
 AtZNuc=   8.0000000   8.0000000   6.0000000   6.0000000   6.0000000   1.0000000   1.0000000   1.0000000   1.0000000   1.0000000

  Atom        11
 IAtWgt=           1
 AtmWgt=   1.0078250
 NucSpn=           1
 AtZEff=  -0.0000000
 NQMom=    0.0000000
 NMagM=    2.7928460
 AtZNuc=   1.0000000
 Leave Link  101 at Tue Sep 24 08:44:31 2019, MaxMem=   671088640 cpu:               5.7 elap:               2.9
 (Enter /shared/centos7/gaussian/g16/l103.exe)

 GradGradGradGradGradGradGradGradGradGradGradGradGradGradGradGradGradGrad
 Berny optimization.
 Initialization pass.
                           ----------------------------
                           !    Initial Parameters    !
                           ! (Angstroms and Degrees)  !
 --------------------------                            --------------------------
 ! Name  Definition              Value          Derivative Info.                !
 --------------------------------------------------------------------------------
 ! R1    R(1,3)                  1.4295         calculate D2E/DX2 analytically  !
 ! R2    R(1,4)                  1.3891         calculate D2E/DX2 analytically  !
 ! R3    R(2,5)                  1.3771         calculate D2E/DX2 analytically  !
 ! R4    R(2,11)                 1.0169         calculate D2E/DX2 analytically  !
 ! R5    R(3,6)                  1.128          calculate D2E/DX2 analytically  !
 ! R6    R(3,7)                  1.1272         calculate D2E/DX2 analytically  !
 ! R7    R(3,8)                  1.0902         calculate D2E/DX2 analytically  !
 ! R8    R(4,5)                  1.3119         calculate D2E/DX2 analytically  !
 ! R9    R(4,9)                  1.0883         calculate D2E/DX2 analytically  !
 ! R10   R(5,10)                 1.0691         calculate D2E/DX2 analytically  !
 ! A1    A(3,1,4)              110.5756         calculate D2E/DX2 analytically  !
 ! A2    A(5,2,11)             106.665          calculate D2E/DX2 analytically  !
 ! A3    A(1,3,6)              108.0693         calculate D2E/DX2 analytically  !
 ! A4    A(1,3,7)              110.8053         calculate D2E/DX2 analytically  !
 ! A5    A(1,3,8)              111.6542         calculate D2E/DX2 analytically  !
 ! A6    A(6,3,7)              108.6783         calculate D2E/DX2 analytically  !
 ! A7    A(6,3,8)              109.05           calculate D2E/DX2 analytically  !
 ! A8    A(7,3,8)              108.5261         calculate D2E/DX2 analytically  !
 ! A9    A(1,4,5)              122.0781         calculate D2E/DX2 analytically  !
 ! A10   A(1,4,9)              115.881          calculate D2E/DX2 analytically  !
 ! A11   A(5,4,9)              122.0275         calculate D2E/DX2 analytically  !
 ! A12   A(2,5,4)              125.0188         calculate D2E/DX2 analytically  !
 ! A13   A(2,5,10)             113.6347         calculate D2E/DX2 analytically  !
 ! A14   A(4,5,10)             121.3059         calculate D2E/DX2 analytically  !
 ! D1    D(4,1,3,6)           -178.1737         calculate D2E/DX2 analytically  !
 ! D2    D(4,1,3,7)            -59.2048         calculate D2E/DX2 analytically  !
 ! D3    D(4,1,3,8)             61.8974         calculate D2E/DX2 analytically  !
 ! D4    D(3,1,4,5)            179.5215         calculate D2E/DX2 analytically  !
 ! D5    D(3,1,4,9)              0.8319         calculate D2E/DX2 analytically  !
 ! D6    D(11,2,5,4)            -4.7998         calculate D2E/DX2 analytically  !
 ! D7    D(11,2,5,10)          172.8981         calculate D2E/DX2 analytically  !
 ! D8    D(1,4,5,2)             -2.8408         calculate D2E/DX2 analytically  !
 ! D9    D(1,4,5,10)           179.6277         calculate D2E/DX2 analytically  !
 ! D10   D(9,4,5,2)            175.7685         calculate D2E/DX2 analytically  !
 ! D11   D(9,4,5,10)            -1.763          calculate D2E/DX2 analytically  !
 --------------------------------------------------------------------------------
 Trust Radius=3.00D-01 FncErr=1.00D-07 GrdErr=1.00D-06 EigMax=2.50D+02 EigMin=1.00D-04
 Number of steps in this run=    100 maximum allowed number of steps=    100.
 GradGradGradGradGradGradGradGradGradGradGradGradGradGradGradGradGradGrad

 Leave Link  103 at Tue Sep 24 08:44:31 2019, MaxMem=   671088640 cpu:               1.3 elap:               0.7
 (Enter /shared/centos7/gaussian/g16/l202.exe)
                          Input orientation:                          
 ---------------------------------------------------------------------
 Center     Atomic      Atomic             Coordinates (Angstroms)
 Number     Number       Type             X           Y           Z
 ---------------------------------------------------------------------
      1          8           0        0.232774   -0.795104    1.154139
      2          8           0        2.933688   -0.023042    1.577324
      3          6           0       -1.171522   -0.875431    0.899451
      4          6           0        0.694832    0.497089    0.938907
      5          6           0        1.952418    0.825846    1.116023
      6          1           0       -1.507152   -1.929773    1.118872
      7          1           0       -1.740804   -0.168794    1.568237
      8          1           0       -1.406612   -0.635756   -0.137746
      9          1           0       -0.054902    1.225337    0.635623
     10          1           0        2.295846    1.822998    0.941042
     11          1           0        2.473252   -0.896770    1.819426
 ---------------------------------------------------------------------
                    Distance matrix (angstroms):
                    1          2          3          4          5
     1  O    0.000000
     2  O    2.840792   0.000000
     3  C    1.429464   4.247214   0.000000
     4  C    1.389094   2.385495   2.317034   0.000000
     5  C    2.363494   1.377063   3.563740   1.311858   0.000000
     6  H    2.077513   4.854571   1.128020   3.281887   4.422903
     7  H    2.111575   4.676772   1.127250   2.602264   3.851453
     8  H    2.093310   4.706920   1.090179   2.618891   3.871860
     9  H    2.105658   3.372969   2.393673   1.088314   2.102310
    10  H    3.340080   2.054157   4.393847   2.078770   1.069052
    11  H    2.339377   1.016866   3.759148   2.425064   1.932214
                    6          7          8          9         10
     6  H    0.000000
     7  H    1.832367   0.000000
     8  H    1.806565   1.800032   0.000000
     9  H    3.506748   2.378158   2.426703   0.000000
    10  H    5.345812   4.544794   4.573560   2.444687   0.000000
    11  H    4.171509   4.283843   4.353390   3.506607   2.863594
                   11
    11  H    0.000000
 Stoichiometry    C3H6O2
 Framework group  C1[X(C3H6O2)]
 Deg. of freedom    27
 Full point group                 C1      NOp   1
 Largest Abelian subgroup         C1      NOp   1
 Largest concise Abelian subgroup C1      NOp   1
                         Standard orientation:                         
 ---------------------------------------------------------------------
 Center     Atomic      Atomic             Coordinates (Angstroms)
 Number     Number       Type             X           Y           Z
 ---------------------------------------------------------------------
      1          8           0       -0.796751   -0.470293   -0.027504
      2          8           0        2.041286   -0.591623    0.002904
      3          6           0       -2.177643   -0.102273    0.005142
      4          6           0        0.010446    0.659881   -0.000646
      5          6           0        1.319887    0.581250   -0.013080
      6          1           0       -2.791727   -1.048430    0.015960
      7          1           0       -2.412061    0.490895    0.934600
      8          1           0       -2.456073    0.492710   -0.864894
      9          1           0       -0.509960    1.614161    0.053735
     10          1           0        1.929280    1.459478    0.001991
     11          1           0        1.368116   -1.346633    0.106908
 ---------------------------------------------------------------------
 Rotational constants (GHZ):          17.8195686           2.7819799           2.4450199
 Leave Link  202 at Tue Sep 24 08:44:33 2019, MaxMem=   671088640 cpu:               3.7 elap:               1.9
 (Enter /shared/centos7/gaussian/g16/l301.exe)
 Standard basis: CC-pVTZ (5D, 7F)
 Ernie: Thresh=  0.10000D-02 Tol=  0.10000D-05 Strict=F.
 Ernie:  15 primitive shells out of 178 were deleted.
 There are   265 symmetry adapted cartesian basis functions of A   symmetry.
 There are   234 symmetry adapted basis functions of A   symmetry.
   234 basis functions,   362 primitive gaussians,   265 cartesian basis functions
    20 alpha electrons       20 beta electrons
       nuclear repulsion energy       174.9947622978 Hartrees.
 IExCor= 4336 DFT=T Ex+Corr=M062X ExCW=0 ScaHFX=  0.540000
 ScaDFX=  1.000000  1.000000  1.000000  1.000000 ScalE2=  1.000000  1.000000
 IRadAn=      5 IRanWt=     -1 IRanGd=            0 ICorTp=0 IEmpDi=  4
 NAtoms=   11 NActive=   11 NUniq=   11 SFac= 1.00D+00 NAtFMM=   60 NAOKFM=F Big=F
 Integral buffers will be    131072 words long.
 Raffenetti 2 integral format.
 Two-electron integral symmetry is turned on.
 Leave Link  301 at Tue Sep 24 08:44:35 2019, MaxMem=   671088640 cpu:               2.7 elap:               1.4
 (Enter /shared/centos7/gaussian/g16/l302.exe)
 NPDir=0 NMtPBC=     1 NCelOv=     1 NCel=       1 NClECP=     1 NCelD=      1
         NCelK=      1 NCelE2=     1 NClLst=     1 CellRange=     0.0.
 One-electron integrals computed using PRISM.
 One-electron integral symmetry used in STVInt
 NBasis=   234 RedAO= T EigKep=  2.69D-04  NBF=   234
 NBsUse=   234 1.00D-06 EigRej= -1.00D+00 NBFU=   234
 Precomputing XC quadrature grid using
 IXCGrd= 4 IRadAn=           5 IRanWt=          -1 IRanGd=           0 AccXCQ= 0.00D+00.
 Generated NRdTot=       0 NPtTot=           0 NUsed=           0 NTot=          32
 NSgBfM=   265   265   265   265   265 MxSgAt=    11 MxSgA2=    11.
 Leave Link  302 at Tue Sep 24 08:45:23 2019, MaxMem=   671088640 cpu:              96.1 elap:              48.1
 (Enter /shared/centos7/gaussian/g16/l303.exe)
 DipDrv:  MaxL=1.
 Leave Link  303 at Tue Sep 24 08:45:28 2019, MaxMem=   671088640 cpu:              10.8 elap:               5.4
 (Enter /shared/centos7/gaussian/g16/l401.exe)
 ExpMin= 1.03D-01 ExpMax= 1.53D+04 ExpMxC= 5.22D+02 IAcc=3 IRadAn=         5 AccDes= 0.00D+00
 Harris functional with IExCor= 1009 and IRadAn=       5 diagonalized for initial guess.
 HarFok:  IExCor= 1009 AccDes= 0.00D+00 IRadAn=         5 IDoV= 1 UseB2=F ITyADJ=14
 ICtDFT=  3500011 ScaDFX=  1.000000  1.000000  1.000000  1.000000
 FoFCou: FMM=F IPFlag=           0 FMFlag=      100000 FMFlg1=           0
         NFxFlg=           0 DoJE=T BraDBF=F KetDBF=T FulRan=T
         wScrn=  0.000000 ICntrl=       500 IOpCl=  0 I1Cent=   200000004 NGrid=           0
         NMat0=    1 NMatS0=      1 NMatT0=    0 NMatD0=    1 NMtDS0=    0 NMtDT0=    0
 Petite list used in FoFCou.
 Harris En= -268.202158904945    
 JPrj=0 DoOrth=F DoCkMO=F.
 Leave Link  401 at Tue Sep 24 08:45:52 2019, MaxMem=   671088640 cpu:              48.1 elap:              24.1
 (Enter /shared/centos7/gaussian/g16/l502.exe)
 Keep R1 ints in memory in canonical form, NReq=399924305.
 FoFCou: FMM=F IPFlag=           0 FMFlag=           0 FMFlg1=           0
         NFxFlg=           0 DoJE=F BraDBF=F KetDBF=F FulRan=T
         wScrn=  0.000000 ICntrl=       600 IOpCl=  0 I1Cent=           0 NGrid=           0
         NMat0=    1 NMatS0=  27495 NMatT0=    0 NMatD0=    1 NMtDS0=    0 NMtDT0=    0
 Symmetry not used in FoFCou.
 Two-electron integral symmetry not used.
 Closed shell SCF:
 Using DIIS extrapolation, IDIIS=  1040.
 NGot=   671088640 LenX=   292939207 LenY=   292868541
 Requested convergence on RMS density matrix=1.00D-08 within 900 cycles.
 Requested convergence on MAX density matrix=1.00D-06.
 Requested convergence on             energy=1.00D-06.
 No special actions if energy rises.
 Integral accuracy reduced to 1.0D-05 until final iterations.

 Cycle   1  Pass 0  IDiag  1:
 E= -268.194150891235    
 DIIS: error= 2.15D-02 at cycle   1 NSaved=   1.
 NSaved= 1 IEnMin= 1 EnMin= -268.194150891235     IErMin= 1 ErrMin= 2.15D-02
 ErrMax= 2.15D-02  0.00D+00 EMaxC= 1.00D-01 BMatC= 1.70D-01 BMatP= 1.70D-01
 IDIUse=3 WtCom= 7.85D-01 WtEn= 2.15D-01
 Coeff-Com:  0.100D+01
 Coeff-En:   0.100D+01
 Coeff:      0.100D+01
 Gap=     0.354 Goal=   None    Shift=    0.000
 GapD=    0.354 DampG=1.000 DampE=0.500 DampFc=0.5000 IDamp=-1.
 Damping current iteration by 5.00D-01
 RMSDP=2.04D-03 MaxDP=6.12D-02              OVMax= 1.23D-01

 Cycle   2  Pass 0  IDiag  1:
 E= -268.258827493818     Delta-E=       -0.064676602582 Rises=F Damp=T
 DIIS: error= 4.51D-03 at cycle   2 NSaved=   2.
 NSaved= 2 IEnMin= 2 EnMin= -268.258827493818     IErMin= 2 ErrMin= 4.51D-03
 ErrMax= 4.51D-03  0.00D+00 EMaxC= 1.00D-01 BMatC= 1.64D-02 BMatP= 1.70D-01
 IDIUse=3 WtCom= 9.55D-01 WtEn= 4.51D-02
 Coeff-Com: -0.182D+00 0.118D+01
 Coeff-En:   0.000D+00 0.100D+01
 Coeff:     -0.174D+00 0.117D+01
 Gap=     0.346 Goal=   None    Shift=    0.000
 RMSDP=4.27D-04 MaxDP=9.13D-03 DE=-6.47D-02 OVMax= 5.85D-02

 Cycle   3  Pass 0  IDiag  1:
 E= -268.314634448688     Delta-E=       -0.055806954871 Rises=F Damp=F
 DIIS: error= 3.45D-03 at cycle   3 NSaved=   3.
 NSaved= 3 IEnMin= 3 EnMin= -268.314634448688     IErMin= 3 ErrMin= 3.45D-03
 ErrMax= 3.45D-03  0.00D+00 EMaxC= 1.00D-01 BMatC= 3.99D-03 BMatP= 1.64D-02
 IDIUse=3 WtCom= 9.66D-01 WtEn= 3.45D-02
 Coeff-Com: -0.120D+00 0.407D+00 0.713D+00
 Coeff-En:   0.000D+00 0.000D+00 0.100D+01
 Coeff:     -0.116D+00 0.393D+00 0.723D+00
 Gap=     0.340 Goal=   None    Shift=    0.000
 RMSDP=1.98D-04 MaxDP=6.45D-03 DE=-5.58D-02 OVMax= 2.04D-02

 Cycle   4  Pass 0  IDiag  1:
 E= -268.316578502133     Delta-E=       -0.001944053445 Rises=F Damp=F
 DIIS: error= 1.56D-03 at cycle   4 NSaved=   4.
 NSaved= 4 IEnMin= 4 EnMin= -268.316578502133     IErMin= 4 ErrMin= 1.56D-03
 ErrMax= 1.56D-03  0.00D+00 EMaxC= 1.00D-01 BMatC= 9.52D-04 BMatP= 3.99D-03
 IDIUse=3 WtCom= 9.84D-01 WtEn= 1.56D-02
 Coeff-Com: -0.371D-01 0.920D-01 0.370D+00 0.575D+00
 Coeff-En:   0.000D+00 0.000D+00 0.196D+00 0.804D+00
 Coeff:     -0.365D-01 0.906D-01 0.368D+00 0.578D+00
 Gap=     0.335 Goal=   None    Shift=    0.000
 RMSDP=7.80D-05 MaxDP=2.78D-03 DE=-1.94D-03 OVMax= 8.42D-03

 Cycle   5  Pass 0  IDiag  1:
 E= -268.317305639717     Delta-E=       -0.000727137584 Rises=F Damp=F
 DIIS: error= 2.84D-04 at cycle   5 NSaved=   5.
 NSaved= 5 IEnMin= 5 EnMin= -268.317305639717     IErMin= 5 ErrMin= 2.84D-04
 ErrMax= 2.84D-04  0.00D+00 EMaxC= 1.00D-01 BMatC= 1.48D-05 BMatP= 9.52D-04
 IDIUse=3 WtCom= 9.97D-01 WtEn= 2.84D-03
 Coeff-Com: -0.573D-02 0.107D-01 0.837D-01 0.191D+00 0.720D+00
 Coeff-En:   0.000D+00 0.000D+00 0.000D+00 0.000D+00 0.100D+01
 Coeff:     -0.571D-02 0.107D-01 0.835D-01 0.191D+00 0.721D+00
 Gap=     0.336 Goal=   None    Shift=    0.000
 RMSDP=1.35D-05 MaxDP=4.71D-04 DE=-7.27D-04 OVMax= 1.77D-03

 Cycle   6  Pass 0  IDiag  1:
 E= -268.317317699429     Delta-E=       -0.000012059712 Rises=F Damp=F
 DIIS: error= 6.86D-05 at cycle   6 NSaved=   6.
 NSaved= 6 IEnMin= 6 EnMin= -268.317317699429     IErMin= 6 ErrMin= 6.86D-05
 ErrMax= 6.86D-05  0.00D+00 EMaxC= 1.00D-01 BMatC= 1.86D-06 BMatP= 1.48D-05
 IDIUse=1 WtCom= 1.00D+00 WtEn= 0.00D+00
 Coeff-Com: -0.114D-02 0.111D-02 0.246D-01 0.708D-01 0.347D+00 0.557D+00
 Coeff:     -0.114D-02 0.111D-02 0.246D-01 0.708D-01 0.347D+00 0.557D+00
 Gap=     0.336 Goal=   None    Shift=    0.000
 RMSDP=3.90D-06 MaxDP=1.40D-04 DE=-1.21D-05 OVMax= 4.91D-04

 Initial convergence to 1.0D-05 achieved.  Increase integral accuracy.
 Cycle   7  Pass 1  IDiag  1:
 E= -268.317302063291     Delta-E=        0.000015636137 Rises=F Damp=F
 DIIS: error= 2.14D-05 at cycle   1 NSaved=   1.
 NSaved= 1 IEnMin= 1 EnMin= -268.317302063291     IErMin= 1 ErrMin= 2.14D-05
 ErrMax= 2.14D-05  0.00D+00 EMaxC= 1.00D-01 BMatC= 2.90D-07 BMatP= 2.90D-07
 IDIUse=1 WtCom= 1.00D+00 WtEn= 0.00D+00
 Coeff-Com:  0.100D+01
 Coeff:      0.100D+01
 Gap=     0.336 Goal=   None    Shift=    0.000
 RMSDP=3.90D-06 MaxDP=1.40D-04 DE= 1.56D-05 OVMax= 3.05D-04

 Cycle   8  Pass 1  IDiag  1:
 E= -268.317302138977     Delta-E=       -0.000000075685 Rises=F Damp=F
 DIIS: error= 2.35D-05 at cycle   2 NSaved=   2.
 NSaved= 2 IEnMin= 2 EnMin= -268.317302138977     IErMin= 1 ErrMin= 2.14D-05
 ErrMax= 2.35D-05  0.00D+00 EMaxC= 1.00D-01 BMatC= 2.20D-07 BMatP= 2.90D-07
 IDIUse=1 WtCom= 1.00D+00 WtEn= 0.00D+00
 Coeff-Com:  0.455D+00 0.545D+00
 Coeff:      0.455D+00 0.545D+00
 Gap=     0.336 Goal=   None    Shift=    0.000
 RMSDP=1.45D-06 MaxDP=4.90D-05 DE=-7.57D-08 OVMax= 1.97D-04

 Cycle   9  Pass 1  IDiag  1:
 E= -268.317302289168     Delta-E=       -0.000000150191 Rises=F Damp=F
 DIIS: error= 8.97D-06 at cycle   3 NSaved=   3.
 NSaved= 3 IEnMin= 3 EnMin= -268.317302289168     IErMin= 3 ErrMin= 8.97D-06
 ErrMax= 8.97D-06  0.00D+00 EMaxC= 1.00D-01 BMatC= 2.18D-08 BMatP= 2.20D-07
 IDIUse=1 WtCom= 1.00D+00 WtEn= 0.00D+00
 Coeff-Com: -0.341D-01 0.223D+00 0.811D+00
 Coeff:     -0.341D-01 0.223D+00 0.811D+00
 Gap=     0.336 Goal=   None    Shift=    0.000
 RMSDP=5.52D-07 MaxDP=1.47D-05 DE=-1.50D-07 OVMax= 6.06D-05

 Cycle  10  Pass 1  IDiag  1:
 E= -268.317302307625     Delta-E=       -0.000000018457 Rises=F Damp=F
 DIIS: error= 1.59D-06 at cycle   4 NSaved=   4.
 NSaved= 4 IEnMin= 4 EnMin= -268.317302307625     IErMin= 4 ErrMin= 1.59D-06
 ErrMax= 1.59D-06  0.00D+00 EMaxC= 1.00D-01 BMatC= 5.75D-10 BMatP= 2.18D-08
 IDIUse=1 WtCom= 1.00D+00 WtEn= 0.00D+00
 Coeff-Com: -0.205D-01 0.513D-01 0.260D+00 0.709D+00
 Coeff:     -0.205D-01 0.513D-01 0.260D+00 0.709D+00
 Gap=     0.336 Goal=   None    Shift=    0.000
 RMSDP=7.86D-08 MaxDP=2.49D-06 DE=-1.85D-08 OVMax= 9.20D-06

 Cycle  11  Pass 1  IDiag  1:
 E= -268.317302308097     Delta-E=       -0.000000000472 Rises=F Damp=F
 DIIS: error= 7.43D-07 at cycle   5 NSaved=   5.
 NSaved= 5 IEnMin= 5 EnMin= -268.317302308097     IErMin= 5 ErrMin= 7.43D-07
 ErrMax= 7.43D-07  0.00D+00 EMaxC= 1.00D-01 BMatC= 1.25D-10 BMatP= 5.75D-10
 IDIUse=1 WtCom= 1.00D+00 WtEn= 0.00D+00
 Coeff-Com: -0.404D-02-0.152D-01-0.118D-01 0.300D+00 0.731D+00
 Coeff:     -0.404D-02-0.152D-01-0.118D-01 0.300D+00 0.731D+00
 Gap=     0.336 Goal=   None    Shift=    0.000
 RMSDP=4.12D-08 MaxDP=1.22D-06 DE=-4.72D-10 OVMax= 2.60D-06

 Cycle  12  Pass 1  IDiag  1:
 E= -268.317302308206     Delta-E=       -0.000000000109 Rises=F Damp=F
 DIIS: error= 2.09D-07 at cycle   6 NSaved=   6.
 NSaved= 6 IEnMin= 6 EnMin= -268.317302308206     IErMin= 6 ErrMin= 2.09D-07
 ErrMax= 2.09D-07  0.00D+00 EMaxC= 1.00D-01 BMatC= 1.11D-11 BMatP= 1.25D-10
 IDIUse=1 WtCom= 1.00D+00 WtEn= 0.00D+00
 Coeff-Com:  0.168D-02-0.133D-01-0.416D-01 0.135D-01 0.278D+00 0.762D+00
 Coeff:      0.168D-02-0.133D-01-0.416D-01 0.135D-01 0.278D+00 0.762D+00
 Gap=     0.336 Goal=   None    Shift=    0.000
 RMSDP=1.32D-08 MaxDP=4.32D-07 DE=-1.09D-10 OVMax= 1.68D-06

 Cycle  13  Pass 1  IDiag  1:
 E= -268.317302308207     Delta-E=       -0.000000000001 Rises=F Damp=F
 DIIS: error= 4.21D-08 at cycle   7 NSaved=   7.
 NSaved= 7 IEnMin= 7 EnMin= -268.317302308207     IErMin= 7 ErrMin= 4.21D-08
 ErrMax= 4.21D-08  0.00D+00 EMaxC= 1.00D-01 BMatC= 7.84D-13 BMatP= 1.11D-11
 IDIUse=1 WtCom= 1.00D+00 WtEn= 0.00D+00
 Coeff-Com:  0.866D-03-0.462D-02-0.160D-01-0.875D-02 0.722D-01 0.297D+00
 Coeff-Com:  0.659D+00
 Coeff:      0.866D-03-0.462D-02-0.160D-01-0.875D-02 0.722D-01 0.297D+00
 Coeff:      0.659D+00
 Gap=     0.336 Goal=   None    Shift=    0.000
 RMSDP=3.21D-09 MaxDP=1.11D-07 DE=-6.82D-13 OVMax= 3.33D-07

 SCF Done:  E(RM062X) =  -268.317302308     A.U. after   13 cycles
            NFock= 13  Conv=0.32D-08     -V/T= 2.0062
 KE= 2.666592358646D+02 PE=-9.782694137535D+02 EE= 2.682981132829D+02
 Leave Link  502 at Tue Sep 24 08:50:54 2019, MaxMem=   671088640 cpu:             597.6 elap:             302.1
 (Enter /shared/centos7/gaussian/g16/l801.exe)
 DoSCS=F DFT=T ScalE2(SS,OS)=  1.000000  1.000000
 Range of M.O.s used for correlation:     1   234
 NBasis=   234 NAE=    20 NBE=    20 NFC=     0 NFV=     0
 NROrb=    234 NOA=    20 NOB=    20 NVA=   214 NVB=   214

 **** Warning!!: The largest alpha MO coefficient is  0.13662890D+02

 Leave Link  801 at Tue Sep 24 08:50:55 2019, MaxMem=   671088640 cpu:               1.5 elap:               0.7
 (Enter /shared/centos7/gaussian/g16/l1101.exe)
 Using compressed storage, NAtomX=    11.
 Will process     12 centers per pass.
 Leave Link 1101 at Tue Sep 24 08:51:16 2019, MaxMem=   671088640 cpu:              41.3 elap:              20.7
 (Enter /shared/centos7/gaussian/g16/l1102.exe)
 Symmetrizing basis deriv contribution to polar:
 IMax=3 JMax=2 DiffMx= 0.00D+00
 Leave Link 1102 at Tue Sep 24 08:51:18 2019, MaxMem=   671088640 cpu:               4.7 elap:               2.4
 (Enter /shared/centos7/gaussian/g16/l1110.exe)
 Forming Gx(P) for the SCF density, NAtomX=    11.
 Integral derivatives from FoFJK, PRISM(SPDF).
 Do as many integral derivatives as possible in FoFJK.
 G2DrvN: MDV=     671087712.
 G2DrvN: will do    12 centers at a time, making    1 passes.
 Calling FoFCou, ICntrl=  3107 FMM=F I1Cent=   0 AccDes= 0.00D+00.
 FoFJK:  IHMeth= 1 ICntrl=    3107 DoSepK=F KAlg= 0 I1Cent=           0 FoldK=F
 IRaf=         0 NMat=       1 IRICut=       1 DoRegI=T DoRafI=F ISym2E= 0 IDoP0=0 IntGTp=1.
 FoFCou: FMM=F IPFlag=           0 FMFlag=      100000 FMFlg1=           0
         NFxFlg=           0 DoJE=F BraDBF=F KetDBF=F FulRan=T
         wScrn=  0.000000 ICntrl=      3107 IOpCl=  0 I1Cent=           0 NGrid=           0
         NMat0=    1 NMatS0=      1 NMatT0=    0 NMatD0=    1 NMtDS0=    0 NMtDT0=    0
 Symmetry not used in FoFCou.
 End of G2Drv F.D. properties file   721 does not exist.
 End of G2Drv F.D. properties file   722 does not exist.
 End of G2Drv F.D. properties file   788 does not exist.
 Leave Link 1110 at Tue Sep 24 08:56:34 2019, MaxMem=   671088640 cpu:             630.5 elap:             315.3
 (Enter /shared/centos7/gaussian/g16/l1002.exe)
 Minotr:  Closed shell wavefunction.
          IDoAtm=11111111111
          Direct CPHF calculation.
          Differentiating once with respect to nuclear coordinates.
          Requested convergence is 1.0D-08 RMS, and 1.0D-07 maximum.
          Secondary convergence is 1.0D-12 RMS, and 1.0D-12 maximum.
          NewPWx=T KeepS1=F KeepF1=F KeepIn=T MapXYZ=F SortEE=F KeepMc=T.
         3279 words used for storage of precomputed grid.
 Keep R1 ints in memory in canonical form, NReq=399865278.
 FoFCou: FMM=F IPFlag=           0 FMFlag=           0 FMFlg1=           0
         NFxFlg=           0 DoJE=F BraDBF=F KetDBF=F FulRan=T
         wScrn=  0.000000 ICntrl=       600 IOpCl=  0 I1Cent=           0 NGrid=           0
         NMat0=    1 NMatS0=  27495 NMatT0=    0 NMatD0=    1 NMtDS0=    0 NMtDT0=    0
 Symmetry not used in FoFCou.
 Two-electron integral symmetry not used.
          MDV=     671088640 using IRadAn=       1.
          Solving linear equations simultaneously, MaxMat=       0.
          There are    36 degrees of freedom in the 1st order CPHF.  IDoFFX=6 NUNeed=     0.
     30 vectors produced by pass  0 Test12= 1.19D-14 2.78D-09 XBig12= 6.66D-02 1.05D-01.
 AX will form    30 AO Fock derivatives at one time.
     30 vectors produced by pass  1 Test12= 1.19D-14 2.78D-09 XBig12= 1.42D-02 3.14D-02.
     30 vectors produced by pass  2 Test12= 1.19D-14 2.78D-09 XBig12= 5.50D-04 5.06D-03.
     30 vectors produced by pass  3 Test12= 1.19D-14 2.78D-09 XBig12= 7.12D-06 3.52D-04.
     30 vectors produced by pass  4 Test12= 1.19D-14 2.78D-09 XBig12= 5.75D-08 3.66D-05.
     30 vectors produced by pass  5 Test12= 1.19D-14 2.78D-09 XBig12= 2.26D-10 2.03D-06.
     19 vectors produced by pass  6 Test12= 1.19D-14 2.78D-09 XBig12= 8.94D-13 1.72D-07.
      4 vectors produced by pass  7 Test12= 1.19D-14 2.78D-09 XBig12= 3.66D-15 1.01D-08.
 InvSVY:  IOpt=1 It=  1 EMax= 1.22D-15
 Solved reduced A of dimension   203 with    30 vectors.
 End of Minotr F.D. properties file   721 does not exist.
 End of Minotr F.D. properties file   722 does not exist.
 End of Minotr F.D. properties file   788 does not exist.
 Leave Link 1002 at Tue Sep 24 09:03:40 2019, MaxMem=   671088640 cpu:             853.1 elap:             426.6
 (Enter /shared/centos7/gaussian/g16/l601.exe)
 Copying SCF densities to generalized density rwf, IOpCl= 0 IROHF=0.

 **********************************************************************

            Population analysis using the SCF density.

 **********************************************************************

 Orbital symmetries:
       Occupied  (A) (A) (A) (A) (A) (A) (A) (A) (A) (A) (A) (A)
                 (A) (A) (A) (A) (A) (A) (A) (A)
       Virtual   (A) (A) (A) (A) (A) (A) (A) (A) (A) (A) (A) (A)
                 (A) (A) (A) (A) (A) (A) (A) (A) (A) (A) (A) (A)
                 (A) (A) (A) (A) (A) (A) (A) (A) (A) (A) (A) (A)
                 (A) (A) (A) (A) (A) (A) (A) (A) (A) (A) (A) (A)
                 (A) (A) (A) (A) (A) (A) (A) (A) (A) (A) (A) (A)
                 (A) (A) (A) (A) (A) (A) (A) (A) (A) (A) (A) (A)
                 (A) (A) (A) (A) (A) (A) (A) (A) (A) (A) (A) (A)
                 (A) (A) (A) (A) (A) (A) (A) (A) (A) (A) (A) (A)
                 (A) (A) (A) (A) (A) (A) (A) (A) (A) (A) (A) (A)
                 (A) (A) (A) (A) (A) (A) (A) (A) (A) (A) (A) (A)
                 (A) (A) (A) (A) (A) (A) (A) (A) (A) (A) (A) (A)
                 (A) (A) (A) (A) (A) (A) (A) (A) (A) (A) (A) (A)
                 (A) (A) (A) (A) (A) (A) (A) (A) (A) (A) (A) (A)
                 (A) (A) (A) (A) (A) (A) (A) (A) (A) (A) (A) (A)
                 (A) (A) (A) (A) (A) (A) (A) (A) (A) (A) (A) (A)
                 (A) (A) (A) (A) (A) (A) (A) (A) (A) (A) (A) (A)
                 (A) (A) (A) (A) (A) (A) (A) (A) (A) (A) (A) (A)
                 (A) (A) (A) (A) (A) (A) (A) (A) (A) (A)
 The electronic state is 1-A.
 Alpha  occ. eigenvalues --  -19.65516 -19.64454 -10.60109 -10.58164 -10.57849
 Alpha  occ. eigenvalues --   -1.18457  -1.15290  -0.85882  -0.77872  -0.67754
 Alpha  occ. eigenvalues --   -0.60642  -0.58459  -0.54422  -0.50475  -0.48797
 Alpha  occ. eigenvalues --   -0.46603  -0.43445  -0.42025  -0.40128  -0.26883
 Alpha virt. eigenvalues --    0.06694   0.07770   0.08199   0.09772   0.13179
 Alpha virt. eigenvalues --    0.14524   0.15284   0.15528   0.20822   0.29139
 Alpha virt. eigenvalues --    0.30804   0.31768   0.33640   0.34871   0.35247
 Alpha virt. eigenvalues --    0.37925   0.41407   0.42376   0.43306   0.44896
 Alpha virt. eigenvalues --    0.46577   0.47413   0.48503   0.49304   0.52899
 Alpha virt. eigenvalues --    0.54351   0.54652   0.55987   0.60198   0.62709
 Alpha virt. eigenvalues --    0.64294   0.69799   0.71139   0.74070   0.74482
 Alpha virt. eigenvalues --    0.76641   0.81549   0.82500   0.83473   0.85313
 Alpha virt. eigenvalues --    0.88973   0.91224   0.92371   0.99485   1.00841
 Alpha virt. eigenvalues --    1.01596   1.04922   1.07083   1.09913   1.10997
 Alpha virt. eigenvalues --    1.12401   1.17397   1.19599   1.22137   1.24120
 Alpha virt. eigenvalues --    1.27828   1.29531   1.30354   1.32641   1.33413
 Alpha virt. eigenvalues --    1.35010   1.38588   1.39751   1.44371   1.48437
 Alpha virt. eigenvalues --    1.51600   1.53875   1.61222   1.71405   1.79309
 Alpha virt. eigenvalues --    1.85973   1.92229   1.94204   1.99162   2.02229
 Alpha virt. eigenvalues --    2.04446   2.10012   2.12265   2.14074   2.18351
 Alpha virt. eigenvalues --    2.19639   2.23612   2.24515   2.33432   2.34634
 Alpha virt. eigenvalues --    2.39318   2.44459   2.48157   2.54102   2.54564
 Alpha virt. eigenvalues --    2.63400   2.64660   2.72025   2.74741   2.77081
 Alpha virt. eigenvalues --    2.78232   2.80330   2.81019   2.83985   2.87359
 Alpha virt. eigenvalues --    2.89387   2.91418   2.94822   2.98418   2.99481
 Alpha virt. eigenvalues --    3.00793   3.01086   3.02478   3.08271   3.08981
 Alpha virt. eigenvalues --    3.12249   3.13351   3.13934   3.19757   3.20732
 Alpha virt. eigenvalues --    3.22527   3.23998   3.27155   3.27845   3.29760
 Alpha virt. eigenvalues --    3.31490   3.33219   3.34494   3.37393   3.38107
 Alpha virt. eigenvalues --    3.42215   3.43355   3.44957   3.50119   3.54994
 Alpha virt. eigenvalues --    3.58435   3.62458   3.66141   3.68005   3.68288
 Alpha virt. eigenvalues --    3.71798   3.73727   3.77004   3.78150   3.81358
 Alpha virt. eigenvalues --    3.82262   3.83573   3.86439   3.90359   3.94166
 Alpha virt. eigenvalues --    3.97283   4.00530   4.01503   4.03048   4.05561
 Alpha virt. eigenvalues --    4.09792   4.12535   4.17039   4.20541   4.26371
 Alpha virt. eigenvalues --    4.27270   4.28612   4.35263   4.43899   4.47902
 Alpha virt. eigenvalues --    4.51205   4.54229   4.59002   4.60964   4.69710
 Alpha virt. eigenvalues --    4.70015   4.75828   4.84252   4.84945   4.89260
 Alpha virt. eigenvalues --    4.91924   4.96068   4.97666   4.97778   5.02170
 Alpha virt. eigenvalues --    5.03275   5.09330   5.17316   5.20247   5.26930
 Alpha virt. eigenvalues --    5.38728   5.43242   5.47618   5.52378   5.66934
 Alpha virt. eigenvalues --    5.69940   5.71400   5.75488   5.78527   5.88829
 Alpha virt. eigenvalues --    5.92171   5.94171   6.16054   6.27322   6.32841
 Alpha virt. eigenvalues --    6.38631   6.50183   6.58820   6.67998   6.70016
 Alpha virt. eigenvalues --    6.76775   6.78915   6.80929   6.86873   7.02130
 Alpha virt. eigenvalues --    7.12808   7.24365   7.27590   7.38031  10.06389
 Alpha virt. eigenvalues --   10.79905  11.79189  12.89067  14.18126
          Condensed to atoms (all electrons):
               1          2          3          4          5          6
     1  O    7.891421  -0.000835   0.307493   0.322251  -0.075992  -0.028008
     2  O   -0.000835   7.791052  -0.000137  -0.084881   0.364034   0.000002
     3  C    0.307493  -0.000137   4.715472  -0.071227   0.000113   0.392877
     4  C    0.322251  -0.084881  -0.071227   5.009070   0.557724   0.008486
     5  C   -0.075992   0.364034   0.000113   0.557724   4.851459   0.000508
     6  H   -0.028008   0.000002   0.392877   0.008486   0.000508   0.577458
     7  H   -0.047594  -0.000076   0.397216  -0.009400   0.000403  -0.028791
     8  H   -0.045740  -0.000055   0.394713  -0.005123  -0.000295  -0.032558
     9  H   -0.055648   0.005238  -0.003021   0.380750  -0.052194  -0.000414
    10  H    0.002974  -0.035390  -0.000525  -0.077601   0.436251   0.000030
    11  H    0.015834   0.326185  -0.000689  -0.022404  -0.040743  -0.000107
               7          8          9         10         11
     1  O   -0.047594  -0.045740  -0.055648   0.002974   0.015834
     2  O   -0.000076  -0.000055   0.005238  -0.035390   0.326185
     3  C    0.397216   0.394713  -0.003021  -0.000525  -0.000689
     4  C   -0.009400  -0.005123   0.380750  -0.077601  -0.022404
     5  C    0.000403  -0.000295  -0.052194   0.436251  -0.040743
     6  H   -0.028791  -0.032558  -0.000414   0.000030  -0.000107
     7  H    0.680637  -0.080233   0.003307  -0.000016  -0.000025
     8  H   -0.080233   0.666818   0.002498  -0.000114   0.000189
     9  H    0.003307   0.002498   0.614710  -0.006207   0.001406
    10  H   -0.000016  -0.000114  -0.006207   0.525922   0.006119
    11  H   -0.000025   0.000189   0.001406   0.006119   0.434865
 Mulliken charges:
               1
     1  O   -0.286157
     2  O   -0.365138
     3  C   -0.132285
     4  C   -0.007645
     5  C   -0.041267
     6  H    0.110517
     7  H    0.084571
     8  H    0.099900
     9  H    0.109575
    10  H    0.148557
    11  H    0.279371
 Sum of Mulliken charges =  -0.00000
 Mulliken charges with hydrogens summed into heavy atoms:
               1
     1  O   -0.286157
     2  O   -0.085767
     3  C    0.162704
     4  C    0.101930
     5  C    0.107290
 APT charges:
               1
     1  O   -0.221070
     2  O   -0.304476
     3  C   -0.991059
     4  C   -0.315877
     5  C   -0.430538
     6  H    0.462551
     7  H    0.311656
     8  H    0.341227
     9  H    0.322058
    10  H    0.487867
    11  H    0.337660
 Sum of APT charges =  -0.00000
 APT charges with hydrogens summed into heavy atoms:
               1
     1  O   -0.221070
     2  O    0.033185
     3  C    0.124376
     4  C    0.006181
     5  C    0.057329
 Electronic spatial extent (au):  <R**2>=            501.7623
 Charge=             -0.0000 electrons
 Dipole moment (field-independent basis, Debye):
    X=             -2.3396    Y=              0.7824    Z=              0.2193  Tot=              2.4766
 Quadrupole moment (field-independent basis, Debye-Ang):
   XX=            -30.1267   YY=            -27.0569   ZZ=            -32.3626
   XY=              0.9007   XZ=              0.1863   YZ=             -0.2511
 Traceless Quadrupole moment (field-independent basis, Debye-Ang):
   XX=             -0.2780   YY=              2.7918   ZZ=             -2.5138
   XY=              0.9007   XZ=              0.1863   YZ=             -0.2511
 Octapole moment (field-independent basis, Debye-Ang**2):
  XXX=            -17.5539  YYY=             -6.8866  ZZZ=             -0.0194  XYY=              4.6002
  XXY=              2.8611  XXZ=             -0.0532  XZZ=             -0.4788  YZZ=             -2.2864
  YYZ=              0.6253  XYZ=             -0.3882
 Hexadecapole moment (field-independent basis, Debye-Ang**3):
 XXXX=           -504.5760 YYYY=            -92.6408 ZZZZ=            -39.8529 XXXY=             19.1056
 XXXZ=              0.9639 YYYX=             -5.0725 YYYZ=             -0.4424 ZZZX=              0.3777
 ZZZY=             -0.0524 XXYY=            -90.0352 XXZZ=            -90.8635 YYZZ=            -25.9155
 XXYZ=             -0.7290 YYXZ=              0.7297 ZZXY=             -3.1469
 N-N= 1.749947622978D+02 E-N=-9.782694037212D+02  KE= 2.666592358646D+02
  Exact polarizability:   0.000   0.000   0.000   0.000   0.000   0.000
 Approx polarizability:  67.557  -0.849  50.013  -0.461   0.096  38.685
 No NMR shielding tensors so no spin-rotation constants.
 Leave Link  601 at Tue Sep 24 09:04:04 2019, MaxMem=   671088640 cpu:              48.4 elap:              24.2
 (Enter /shared/centos7/gaussian/g16/l701.exe)
 SCFChk:  SCF convergence  3.21D-09 required  1.00D-08
 ... and contract with generalized density number  0.
 Compute integral second derivatives.
 Entering OneElI...
 Calculate overlap and kinetic energy integrals
    NBasis = 265  MinDer = 2  MaxDer = 2
 Requested accuracy = 0.1000D-12
 PrmmSu-InSpLW:  IPartL=    0 NPrtUS=   20 NPrtUL=    1 DoSpLW=F IThBeg=    0 IThEnd=   19 NThAct=   20.
 PrsmSu:  NPrtUS=  20 ThrOK=T IAlg=1 NPAlg=1 LenDen=           0 ISkipM=0 DoSpLW=F IThBeg=    0 IThEnd=   19.
 Prism:   IPart=     0 DynPar=F LinDyn=F Incr=           1.
 PRISM was handed    33439793 working-precision words and  3732 shell-pairs
 PRISM was handed    33439793 working-precision words and  3732 shell-pairs
 PRISM was handed    33439793 working-precision words and  3732 shell-pairs
 PRISM was handed    33439793 working-precision words and  3732 shell-pairs
 PRISM was handed    33439793 working-precision words and  3732 shell-pairs
 PRISM was handed    33439793 working-precision words and  3732 shell-pairs
 PRISM was handed    33439793 working-precision words and  3732 shell-pairs
 IPart=  4 NShTot=         204 NBatch=          48 AvBLen=         4.3
 PRISM was handed    33439793 working-precision words and  3732 shell-pairs
 PRISM was handed    33439793 working-precision words and  3732 shell-pairs
 IPart=  0 NShTot=         228 NBatch=          68 AvBLen=         3.4
 PRISM was handed    33439793 working-precision words and  3732 shell-pairs
 IPart= 17 NShTot=         167 NBatch=          25 AvBLen=         6.7
 PRISM was handed    33439793 working-precision words and  3732 shell-pairs
 PRISM was handed    33439793 working-precision words and  3732 shell-pairs
 PRISM was handed    33439793 working-precision words and  3732 shell-pairs
 PRISM was handed    33439793 working-precision words and  3732 shell-pairs
 IPart= 14 NShTot=         172 NBatch=          26 AvBLen=         6.6
 PRISM was handed    33439793 working-precision words and  3732 shell-pairs
 PRISM was handed    33439793 working-precision words and  3732 shell-pairs
 PRISM was handed    33439793 working-precision words and  3732 shell-pairs
 IPart=  2 NShTot=         214 NBatch=          54 AvBLen=         4.0
 PRISM was handed    33439793 working-precision words and  3732 shell-pairs
 IPart= 18 NShTot=         165 NBatch=          25 AvBLen=         6.6
 IPart= 11 NShTot=         176 NBatch=          26 AvBLen=         6.8
 PRISM was handed    33439793 working-precision words and  3732 shell-pairs
 PRISM was handed    33439793 working-precision words and  3732 shell-pairs
 IPart= 15 NShTot=         171 NBatch=          25 AvBLen=         6.8
 IPart= 19 NShTot=         162 NBatch=          25 AvBLen=         6.5
 IPart= 10 NShTot=         177 NBatch=          27 AvBLen=         6.6
 IPart=  1 NShTot=         226 NBatch=          66 AvBLen=         3.4
 IPart=  8 NShTot=         181 NBatch=          28 AvBLen=         6.5
 IPart= 12 NShTot=         176 NBatch=          26 AvBLen=         6.8
 IPart=  6 NShTot=         193 NBatch=          38 AvBLen=         5.1
 IPart=  5 NShTot=         197 NBatch=          41 AvBLen=         4.8
 IPart=  7 NShTot=         190 NBatch=          36 AvBLen=         5.3
 IPart=  3 NShTot=         212 NBatch=          52 AvBLen=         4.1
 IPart= 16 NShTot=         168 NBatch=          25 AvBLen=         6.7
 IPart=  9 NShTot=         179 NBatch=          27 AvBLen=         6.6
 IPart= 13 NShTot=         174 NBatch=          26 AvBLen=         6.7
 PrSmSu:  NxtVal=             21.
 Entering OneElI...
 Calculate potential energy integrals
    NBasis = 265  MinDer = 2  MaxDer = 2
 Requested accuracy = 0.1000D-12
 PrmmSu-InSpLW:  IPartL=    0 NPrtUS=   20 NPrtUL=    1 DoSpLW=F IThBeg=    0 IThEnd=   19 NThAct=   20.
 PrsmSu:  NPrtUS=  20 ThrOK=T IAlg=1 NPAlg=1 LenDen=           0 ISkipM=0 DoSpLW=F IThBeg=    0 IThEnd=   19.
 Prism:   IPart=     0 DynPar=F LinDyn=F Incr=          19.
 PRISM was handed    33456876 working-precision words and  3491 shell-pairs
 PRISM was handed    33456876 working-precision words and  3491 shell-pairs
 PRISM was handed    33456876 working-precision words and  3491 shell-pairs
 PRISM was handed    33456876 working-precision words and  3491 shell-pairs
 PRISM was handed    33456876 working-precision words and  3491 shell-pairs
 PRISM was handed    33456876 working-precision words and  3491 shell-pairs
 PRISM was handed    33456876 working-precision words and  3491 shell-pairs
 PRISM was handed    33456876 working-precision words and  3491 shell-pairs
 PRISM was handed    33456876 working-precision words and  3491 shell-pairs
 PRISM was handed    33456876 working-precision words and  3491 shell-pairs
 PRISM was handed    33456876 working-precision words and  3491 shell-pairs
 PRISM was handed    33456876 working-precision words and  3491 shell-pairs
 PRISM was handed    33456876 working-precision words and  3491 shell-pairs
 PRISM was handed    33456876 working-precision words and  3491 shell-pairs
 PRISM was handed    33456876 working-precision words and  3491 shell-pairs
 PRISM was handed    33456876 working-precision words and  3491 shell-pairs
 PRISM was handed    33456876 working-precision words and  3491 shell-pairs
 PRISM was handed    33456876 working-precision words and  3491 shell-pairs
 PRISM was handed    33456876 working-precision words and  3491 shell-pairs
 PRISM was handed    33456876 working-precision words and  3491 shell-pairs
 IPart=  8 NShTot=        1881 NBatch=         171 AvBLen=        11.0
 IPart=  9 NShTot=        1859 NBatch=         169 AvBLen=        11.0
 IPart= 17 NShTot=        1749 NBatch=         159 AvBLen=        11.0
 IPart= 18 NShTot=        1727 NBatch=         157 AvBLen=        11.0
 IPart= 16 NShTot=        1771 NBatch=         161 AvBLen=        11.0
 IPart=  0 NShTot=        2321 NBatch=         211 AvBLen=        11.0
 IPart=  4 NShTot=        2079 NBatch=         189 AvBLen=        11.0
 IPart=  3 NShTot=        2112 NBatch=         192 AvBLen=        11.0
 IPart= 12 NShTot=        1848 NBatch=         168 AvBLen=        11.0
 IPart=  1 NShTot=        2266 NBatch=         206 AvBLen=        11.0
 IPart=  2 NShTot=        2211 NBatch=         201 AvBLen=        11.0
 IPart=  6 NShTot=        1903 NBatch=         173 AvBLen=        11.0
 IPart=  5 NShTot=        1925 NBatch=         175 AvBLen=        11.0
 IPart= 13 NShTot=        1837 NBatch=         167 AvBLen=        11.0
 IPart= 15 NShTot=        1793 NBatch=         163 AvBLen=        11.0
 IPart= 10 NShTot=        1848 NBatch=         168 AvBLen=        11.0
 IPart= 19 NShTot=        1716 NBatch=         156 AvBLen=        11.0
 IPart=  7 NShTot=        1892 NBatch=         172 AvBLen=        11.0
 IPart= 11 NShTot=        1848 NBatch=         168 AvBLen=        11.0
 IPart= 14 NShTot=        1815 NBatch=         165 AvBLen=        11.0
 PrSmSu:  NxtVal=            381.
 Polarizability after L701:
                1             2             3 
      1  0.000000D+00
      2  0.000000D+00  0.000000D+00
      3  0.000000D+00  0.000000D+00  0.000000D+00
 Dipole Derivatives after L701:
                 1             2             3             4             5 
      1  -0.255205D+00  0.199511D-01 -0.893411D-02  0.419257D+00  0.150562D+00
      2  -0.563478D-01 -0.137444D+00  0.653526D-02 -0.519344D+00 -0.920082D+00
      3  -0.129624D-01  0.110210D-01 -0.270561D+00  0.219658D-01  0.717156D-01
                 6             7             8             9            10 
      1  -0.488088D-01 -0.142492D+01  0.124286D+00  0.538713D-01 -0.326904D+00
      2   0.833070D-01  0.414951D-01 -0.751728D+00 -0.432254D-02 -0.135828D+00
      3  -0.412602D+00  0.735838D-03  0.364456D-03 -0.796531D+00  0.271090D-01
                11            12            13            14            15 
      1   0.106964D+00  0.294494D-01 -0.713107D+00 -0.305667D+00 -0.426581D-01
      2  -0.688110D+00 -0.202578D-01  0.656537D-01 -0.625320D+00 -0.284514D-01
      3  -0.355481D-01  0.673828D-01 -0.189845D-01 -0.273907D-01  0.468126D-01
                16            17            18            19            20 
      1   0.780026D+00  0.916209D+00 -0.112863D-02  0.333646D+00 -0.474354D+00
      2   0.240191D+00  0.513092D+00 -0.415615D-02 -0.523227D-01  0.181368D+00
      3  -0.377507D-02 -0.832497D-02  0.945355D-01 -0.544300D-01  0.195971D+00
                21            22            23            24            25 
      1  -0.541989D+00  0.410154D+00 -0.493544D+00  0.502094D+00  0.234813D+00
      2   0.134886D+00 -0.649975D-01  0.199506D+00 -0.132113D+00 -0.265759D+00
      3   0.419955D+00  0.720586D-01 -0.193130D+00  0.414021D+00 -0.828511D-02
                26            27            28            29            30 
      1  -0.189346D+00 -0.134605D-01  0.669100D+00  0.713383D+00 -0.399925D-03
      2   0.683407D+00  0.420086D-01  0.363270D+00  0.706764D+00 -0.734094D-02
      3   0.204429D-01  0.479554D-01  0.118990D-01  0.290813D-02  0.877368D-01
                31            32            33 
      1  -0.126861D+00 -0.568446D+00  0.719649D-01
      2   0.383988D+00  0.838548D+00 -0.700957D-01
      3  -0.353312D-01 -0.380289D-01  0.301294D+00
 Hessian after L701:
                1             2             3             4             5 
      1  0.282562D+01
      2 -0.272210D+01  0.946033D+01
      3  0.533617D-02 -0.143198D+00  0.149253D+02
      4  0.930484D+00 -0.239414D-01  0.151953D-01  0.733544D+01
      5  0.702132D-01 -0.420801D+00  0.445091D-02  0.179678D+01  0.430949D+01
      6  0.267404D-02  0.454287D-02 -0.474373D+00  0.221273D+00  0.572250D+00
      7  0.782378D+00 -0.193033D+01 -0.183316D+00  0.193750D+00 -0.206493D-01
      8 -0.175568D+01 -0.644804D+01  0.601316D-01 -0.442338D-01 -0.102924D+00
      9 -0.171114D+00  0.591807D-01 -0.739002D+01  0.102891D-02  0.969430D-03
     10 -0.464561D+01  0.445628D+01  0.752138D-01  0.588543D+00 -0.167078D+00
     11  0.448479D+01 -0.235241D+01  0.122765D+00 -0.106437D+00 -0.231126D+00
     12  0.816190D-01  0.125411D+00 -0.802437D+01  0.212273D-01  0.733240D-02
     13  0.250236D+00 -0.178388D-01  0.402252D-01 -0.583471D+01 -0.379545D+01
     14 -0.163037D+00 -0.344646D+00 -0.163920D-02 -0.406327D+01 -0.128914D+01
     15  0.261791D-01 -0.356324D-02  0.163389D+00  0.843383D-01 -0.210550D+00
     16 -0.932613D-01  0.118843D+00 -0.822398D-02  0.384218D-01  0.854815D-02
     17  0.180623D+00  0.145287D+00 -0.745927D-02  0.249683D-01 -0.368041D-02
     18 -0.403646D-02 -0.448457D-02  0.154870D-01 -0.106152D-03  0.604610D-04
     19 -0.220091D+00  0.150682D+00 -0.112748D+00  0.250715D-01 -0.568004D-02
     20  0.102595D+00  0.807808D-01  0.131543D+00 -0.209990D-01 -0.104860D-01
     21 -0.814052D-01  0.101645D+00  0.388283D+00 -0.243139D-01  0.184040D-02
     22 -0.226698D+00  0.128176D+00  0.168865D+00  0.272126D-01 -0.571906D-02
     23  0.849145D-01  0.929160D-01 -0.159708D+00 -0.208710D-01 -0.102349D-01
     24  0.126571D+00 -0.130766D+00  0.380023D+00  0.222383D-01 -0.164311D-02
     25  0.190387D+00 -0.180535D+00 -0.623241D-02  0.749638D-01 -0.104320D+00
     26 -0.193712D+00 -0.164249D+00 -0.826549D-02 -0.136857D+00  0.569404D-01
     27 -0.675135D-02 -0.455644D-02  0.182849D+00 -0.597783D-02  0.482888D-02
     28  0.825733D-01  0.870044D-01  0.610436D-02  0.988047D-01  0.121702D+00
     29  0.102680D+00  0.327597D-01  0.388027D-02  0.835248D-01 -0.162987D+00
     30  0.138544D-02 -0.852060D-04 -0.321524D-01 -0.791847D-03  0.215561D-01
     31  0.123985D+00 -0.662399D-01 -0.420088D-03 -0.347798D+01  0.210165D+01
     32 -0.191277D+00 -0.819250D-01 -0.250109D-02  0.251134D+01 -0.213506D+01
     33  0.195425D-01 -0.412558D-02 -0.134398D+00 -0.334112D+00 -0.401095D+00
                6             7             8             9            10 
      6  0.138934D+02
      7 -0.232118D-02  0.724624D+01
      8  0.130611D-02  0.137568D+01  0.140260D+02
      9 -0.104910D+00  0.126050D+00 -0.103691D+00  0.148855D+02
     10  0.255939D-01  0.244772D+00  0.168198D+00  0.506789D-02  0.721709D+01
     11 -0.317752D-02  0.214813D+00 -0.837608D-01  0.331372D-04 -0.296679D+01
     12  0.272431D+00  0.457386D-02  0.766105D-04 -0.602892D-01  0.134520D+00
     13  0.505987D-01  0.295371D+00  0.117628D+00  0.607508D-03 -0.272203D-01
     14 -0.195223D+00  0.896324D-01 -0.127815D+00 -0.175718D-02 -0.482784D+00
     15 -0.817890D+01 -0.161813D-02 -0.175335D-02 -0.118634D+00 -0.155755D+00
     16 -0.714331D-03 -0.243141D+01  0.111650D+01 -0.107857D-01  0.881140D-01
     17 -0.474734D-03  0.100336D+01 -0.186091D+01 -0.125294D-01  0.111293D+00
     18 -0.101788D-01 -0.100176D-01 -0.113584D-01 -0.324786D+01 -0.132190D-03
     19 -0.711555D-02 -0.313142D+01 -0.463518D+00 -0.701773D+00  0.367049D-01
     20  0.423282D-02 -0.356194D+00 -0.264929D+01  0.103566D+01 -0.177549D-01
     21 -0.497363D-02 -0.542395D+00  0.102763D+01 -0.176323D+01  0.411650D-02
     22  0.623678D-02 -0.319514D+01 -0.534137D+00  0.749481D+00  0.578638D-01
     23 -0.324183D-02 -0.424920D+00 -0.276339D+01 -0.979555D+00 -0.131786D-01
     24 -0.567650D-02  0.604214D+00 -0.973687D+00 -0.213238D+01  0.329622D-02
     25 -0.372822D-02 -0.817795D-02  0.149757D-01  0.589007D-03 -0.336640D+01
     26  0.400183D-02  0.546153D-01  0.783004D-02  0.197931D-02 -0.927504D+00
     27 -0.375125D-01  0.245650D-02  0.282967D-02 -0.495311D-01 -0.673514D-01
     28  0.136152D-02  0.119285D-01  0.913840D-02  0.986338D-03 -0.214580D+00
     29  0.299264D-01  0.157125D-01  0.143269D-02  0.613523D-03 -0.197975D+00
     30  0.571657D-01 -0.930172D-04 -0.296039D-03 -0.777647D-02 -0.326811D-01
     31 -0.293859D+00 -0.828726D-02 -0.454325D-02 -0.137900D-03  0.207218D-01
     32 -0.414143D+00 -0.217189D-01  0.891520D-03 -0.898093D-03  0.372969D-01
     33 -0.540644D+01  0.246567D-02 -0.118473D-02 -0.108909D-01  0.811142D-02
               11            12            13            14            15 
     11  0.129856D+02
     12 -0.350915D+00  0.237715D+02
     13 -0.818128D+00 -0.149557D+00  0.834437D+01
     14 -0.865743D+01  0.943600D-01  0.315795D+01  0.125005D+02
     15  0.105967D+00 -0.123033D+02  0.396080D-01  0.112770D+00  0.241556D+02
     16  0.119303D+00  0.722107D-03  0.388493D-01  0.112240D-01 -0.609064D-03
     17  0.402617D-01 -0.214897D-03  0.324569D-01 -0.110934D-02 -0.617865D-03
     18 -0.793447D-03 -0.464251D-01 -0.194669D-03 -0.737350D-04 -0.104248D-01
     19 -0.119854D-01  0.447821D-01  0.441919D-01 -0.227886D-02  0.461665D-02
     20 -0.178809D-01  0.109999D-01 -0.110560D-01 -0.130861D-01  0.199989D-02
     21  0.130827D-01 -0.284532D-01 -0.184290D-01  0.384830D-02 -0.151932D-01
     22 -0.158041D-02 -0.368841D-01  0.368134D-01 -0.191119D-03 -0.897361D-02
     23 -0.257665D-01 -0.877026D-02 -0.892385D-02 -0.109273D-01 -0.101069D-02
     24 -0.942385D-02 -0.336413D-01  0.122728D-01 -0.299026D-02 -0.144992D-01
     25 -0.853602D+00 -0.667989D-01 -0.227794D+00  0.254415D+00  0.141130D-01
     26 -0.167947D+01  0.144732D+00  0.284623D+00  0.332977D-01 -0.745026D-02
     27  0.135203D+00 -0.379268D+01  0.129556D-01 -0.655754D-02  0.141544D+00
     28 -0.178890D+00 -0.376928D-01 -0.300829D+01  0.119294D+01  0.205217D-02
     29  0.168259D+00 -0.183119D-01  0.121907D+01 -0.219196D+01  0.675271D-02
     30 -0.106787D-01  0.185747D+00  0.431227D-02  0.739830D-02 -0.388341D+01
     31  0.118517D+00  0.348818D-02  0.881891D-01  0.539764D-02 -0.395117D-02
     32 -0.146227D+00 -0.469996D-02 -0.160336D+00  0.102335D+00 -0.254410D-02
     33 -0.206273D-02  0.594502D-01  0.760047D-02 -0.101358D-01  0.638180D-01
               16            17            18            19            20 
     16  0.219694D+01
     17 -0.129234D+01  0.187996D+01
     18  0.144126D-01 -0.174123D-02  0.326827D+01
     19  0.723749D-01 -0.303804D-01 -0.320665D-01  0.288748D+01
     20 -0.409823D-01 -0.912326D-01 -0.119349D+00  0.342633D+00  0.244132D+01
     21 -0.360207D-01 -0.103366D+00  0.142786D-01  0.786238D+00 -0.104153D+01
     22  0.912175D-01 -0.315334D-01  0.320600D-01  0.263310D+00 -0.122615D-01
     23 -0.468345D-01 -0.115751D+00  0.137599D+00 -0.113637D-01  0.266911D+00
     24  0.400755D-01  0.125317D+00  0.210989D-01  0.333568D-01 -0.182900D-01
     25 -0.355052D-02 -0.229922D-02  0.383752D-04  0.187058D-01  0.150782D-01
     26  0.649242D-02  0.814004D-02  0.198113D-03  0.328630D-01 -0.776884D-02
     27  0.376435D-03  0.540774D-03 -0.228911D-02 -0.142072D-01 -0.502366D-02
     28  0.463041D-02  0.535118D-02  0.337430D-04  0.445388D-02 -0.155053D-02
     29  0.587344D-02  0.473225D-02 -0.576411D-05  0.419090D-02 -0.305259D-02
     30 -0.155041D-03 -0.132873D-03 -0.974962D-03 -0.131252D-02 -0.525798D-04
     31 -0.232183D-02 -0.150096D-02  0.887622D-05 -0.779803D-03  0.491008D-03
     32 -0.662751D-02 -0.569905D-02 -0.514742D-04 -0.516264D-02  0.378430D-02
     33  0.922227D-03  0.678115D-03 -0.987985D-03  0.229056D-03 -0.183816D-03
               21            22            23            24            25 
     21  0.189785D+01
     22 -0.678365D-01  0.292702D+01
     23  0.159701D-01  0.432845D+00  0.257195D+01
     24 -0.476501D+00 -0.857730D+00  0.996345D+00  0.226993D+01
     25 -0.167077D-01  0.131201D-01  0.112641D-01  0.122216D-01  0.336108D+01
     26 -0.200462D-01  0.276000D-01 -0.680494D-02  0.166133D-01  0.858089D+00
     27 -0.101949D-01  0.122962D-01  0.352097D-02 -0.729161D-02  0.649913D-01
     28 -0.414917D-02  0.315289D-02 -0.193820D-02  0.340897D-02 -0.514465D-01
     29 -0.387757D-02  0.395995D-02 -0.295586D-02  0.339408D-02  0.648616D-02
     30 -0.690417D-03  0.715466D-03  0.134982D-03 -0.799984D-03  0.415098D-03
     31  0.902453D-03  0.212755D-02 -0.994567D-03  0.746125D-04 -0.892616D-03
     32  0.480740D-02 -0.715831D-02  0.405143D-02 -0.486901D-02 -0.195525D-01
     33 -0.117627D-02  0.176950D-02 -0.128480D-02 -0.262176D-03  0.109887D-02
               26            27            28            29            30 
     26  0.171675D+01
     27 -0.130624D+00  0.357630D+01
     28  0.314218D-02  0.811879D-03  0.308200D+01
     29  0.846815D-02 -0.255978D-03 -0.127638D+01  0.204724D+01
     30  0.726405D-03  0.524942D-02  0.289742D-01 -0.151911D-01  0.369732D+01
     31 -0.935082D-02  0.399742D-03 -0.132235D-01  0.328564D-01 -0.768896D-03
     32  0.268688D-01  0.938939D-04  0.394811D-01  0.980687D-01 -0.337928D-02
     33 -0.186560D-02 -0.645043D-02 -0.189116D-02 -0.692468D-02 -0.196767D-01
               31            32            33 
     31  0.326846D+01
     32 -0.217628D+01  0.213291D+01
     33  0.294263D+00  0.428185D+00  0.545702D+01
 Leave Link  701 at Tue Sep 24 09:04:27 2019, MaxMem=   671088640 cpu:              45.3 elap:              22.6
 (Enter /shared/centos7/gaussian/g16/l702.exe)
 L702 exits ... SP integral derivatives will be done elsewhere.
 Leave Link  702 at Tue Sep 24 09:04:28 2019, MaxMem=   671088640 cpu:               1.3 elap:               0.7
 (Enter /shared/centos7/gaussian/g16/l703.exe)
 Integral derivatives from FoFJK, PRISM(SPDF).
 Compute integral second derivatives, UseDBF=F ICtDFT=           0.
 ICntrl=    100147.
 Calling FoFJK, ICntrl=    100147 FMM=F ISym2X=0 I1Cent= 0 IOpClX= 0 NMat=1 NMatS=1 NMatT=0.
 FoFJK:  IHMeth= 1 ICntrl=  100147 DoSepK=F KAlg= 0 I1Cent=           0 FoldK=F
 IRaf=         0 NMat=       1 IRICut=       1 DoRegI=T DoRafI=F ISym2E= 0 IDoP0=0 IntGTp=1.
 FoFCou: FMM=F IPFlag=           0 FMFlag=      100000 FMFlg1=         800
         NFxFlg=           0 DoJE=F BraDBF=F KetDBF=F FulRan=T
         wScrn=  0.000000 ICntrl=    100147 IOpCl=  0 I1Cent=           0 NGrid=           0
         NMat0=    1 NMatS0=      1 NMatT0=    0 NMatD0=    1 NMtDS0=    0 NMtDT0=    0
 Symmetry not used in FoFCou.
 FoFCou:  KetSym=F NOpSet=  1 NOpAb=1 NOp=  1.
 FoFCou:  CnvScl= 1.00D+00 Thresh= 1.00D-08 IAcrcy=      12.
 PrismS was handed   670744505 working-precision words and  3614 shell-pairs
 FoFCou: LinMIO=F DoNuc=F BraDBF=F KetDBF=F HaveP=T PDBF=F HaveZ=T HaveW=F
         NIJTC =      10 NIJTAt=       0 NIJTCD=       0 NIJTT =      10
         IJTBeg=       1 IJTEnd=      10 KLTBeg=       1 KLTEnd=      10
         IPTBeg=       1 IPTEnd=      10 IPTBCv=       1 IPTECv=      10
         IZTBeg=       1 IZTEnd=      10 IZTBCv=       1 IZTECv=      10
         IWTBeg=      11 IWTEnd=      10 IWTBCv=      11 IWTECv=      10
         INTBeg=       1 INTEnd=       0 IFTBCv=       1 IFTECv=      10
 NCel replicated for PrismC:     1
 CoulSu-InSpLW:  IPartL=    0 NPrtUS=   20 NPrtUL=    1 DoSpLW=F IThBeg=    0 IThEnd=   19 NThAct=   20.
 CoulSu:  IncDef=  1024 NBBP=        6532305 NTPThr=   100 NPartT=   20 Incr=        1024 LDynOK=F GPUOK=T.
 CoulSu:  NPrtUS=  20 ThrOK=T IAlg=1 NPAlg=1 LenDen=           0 LWGrdD=           0 DoCopy=F ISkipM=0
          DoSpLW=F IThBeg=    0 IThEnd=   19.
 Enter PrismC:  IPart=  0 JobTyp=22 DoJE=F Cont=F.
 Enter PrismC:  IPart=  8 JobTyp=22 DoJE=F Cont=F.
 PrismC:  IPart=     8 DynPar=T LinDyn=F Incr=        1024 UseFst=F UseS4=T ISplat=2.
 PrismC was handed    33458285 working-precision words and  3614 shell-pairs
 PrismC:  IPart=     0 DynPar=T LinDyn=F Incr=        1024 UseFst=F UseS4=T ISplat=2.
 PrismC was handed    33458285 working-precision words and  3614 shell-pairs
 Enter PrismC:  IPart= 12 JobTyp=22 DoJE=F Cont=F.
 PrismC:  IPart=    12 DynPar=T LinDyn=F Incr=        1024 UseFst=F UseS4=T ISplat=2.
 PrismC was handed    33458285 working-precision words and  3614 shell-pairs
 Enter PrismC:  IPart= 16 JobTyp=22 DoJE=F Cont=F.
 PrismC:  IPart=    16 DynPar=T LinDyn=F Incr=        1024 UseFst=F UseS4=T ISplat=2.
 PrismC was handed    33458285 working-precision words and  3614 shell-pairs
 Enter PrismC:  IPart= 15 JobTyp=22 DoJE=F Cont=F.
 PrismC:  IPart=    15 DynPar=T LinDyn=F Incr=        1024 UseFst=F UseS4=T ISplat=2.
 PrismC was handed    33458285 working-precision words and  3614 shell-pairs
 Enter PrismC:  IPart=  3 JobTyp=22 DoJE=F Cont=F.
 PrismC:  IPart=     3 DynPar=T LinDyn=F Incr=        1024 UseFst=F UseS4=T ISplat=2.
 PrismC was handed    33458285 working-precision words and  3614 shell-pairs
 Enter PrismC:  IPart=  7 JobTyp=22 DoJE=F Cont=F.
 Enter PrismC:  IPart=  6 JobTyp=22 DoJE=F Cont=F.
 PrismC:  IPart=     6 DynPar=T LinDyn=F Incr=        1024 UseFst=F UseS4=T ISplat=2.
 PrismC was handed    33458285 working-precision words and  3614 shell-pairs
 PrismC:  IPart=     7 DynPar=T LinDyn=F Incr=        1024 UseFst=F UseS4=T ISplat=2.
 PrismC was handed    33458285 working-precision words and  3614 shell-pairs
 Enter PrismC:  IPart= 17 JobTyp=22 DoJE=F Cont=F.
 Enter PrismC:  IPart= 14 JobTyp=22 DoJE=F Cont=F.
 PrismC:  IPart=    14 DynPar=T LinDyn=F Incr=        1024 UseFst=F UseS4=T ISplat=2.
 PrismC was handed    33458285 working-precision words and  3614 shell-pairs
 PrismC:  IPart=    17 DynPar=T LinDyn=F Incr=        1024 UseFst=F UseS4=T ISplat=2.
 PrismC was handed    33458285 working-precision words and  3614 shell-pairs
 Enter PrismC:  IPart=  4 JobTyp=22 DoJE=F Cont=F.
 Enter PrismC:  IPart= 18 JobTyp=22 DoJE=F Cont=F.
 Enter PrismC:  IPart=  9 JobTyp=22 DoJE=F Cont=F.
 PrismC:  IPart=    18 DynPar=T LinDyn=F Incr=        1024 UseFst=F UseS4=T ISplat=2.
 PrismC was handed    33458285 working-precision words and  3614 shell-pairs
 PrismC:  IPart=     9 DynPar=T LinDyn=F Incr=        1024 UseFst=F UseS4=T ISplat=2.
 PrismC was handed    33458285 working-precision words and  3614 shell-pairs
 PrismC:  IPart=     4 DynPar=T LinDyn=F Incr=        1024 UseFst=F UseS4=T ISplat=2.
 PrismC was handed    33458285 working-precision words and  3614 shell-pairs
 Enter PrismC:  IPart= 19 JobTyp=22 DoJE=F Cont=F.
 PrismC:  IPart=    19 DynPar=T LinDyn=F Incr=        1024 UseFst=F UseS4=T ISplat=2.
 PrismC was handed    33458285 working-precision words and  3614 shell-pairs
 Enter PrismC:  IPart= 13 JobTyp=22 DoJE=F Cont=F.
 PrismC:  IPart=    13 DynPar=T LinDyn=F Incr=        1024 UseFst=F UseS4=T ISplat=2.
 PrismC was handed    33458285 working-precision words and  3614 shell-pairs
 Enter PrismC:  IPart=  2 JobTyp=22 DoJE=F Cont=F.
 PrismC:  IPart=     2 DynPar=T LinDyn=F Incr=        1024 UseFst=F UseS4=T ISplat=2.
 PrismC was handed    33458285 working-precision words and  3614 shell-pairs
 Enter PrismC:  IPart= 10 JobTyp=22 DoJE=F Cont=F.
 PrismC:  IPart=    10 DynPar=T LinDyn=F Incr=        1024 UseFst=F UseS4=T ISplat=2.
 PrismC was handed    33458285 working-precision words and  3614 shell-pairs
 Enter PrismC:  IPart=  1 JobTyp=22 DoJE=F Cont=F.
 PrismC:  IPart=     1 DynPar=T LinDyn=F Incr=        1024 UseFst=F UseS4=T ISplat=2.
 PrismC was handed    33458285 working-precision words and  3614 shell-pairs
 Enter PrismC:  IPart=  5 JobTyp=22 DoJE=F Cont=F.
 PrismC:  IPart=     5 DynPar=T LinDyn=F Incr=        1024 UseFst=F UseS4=T ISplat=2.
 PrismC was handed    33458285 working-precision words and  3614 shell-pairs
 Enter PrismC:  IPart= 11 JobTyp=22 DoJE=F Cont=F.
 PrismC:  IPart=    11 DynPar=T LinDyn=F Incr=        1024 UseFst=F UseS4=T ISplat=2.
 PrismC was handed    33458285 working-precision words and  3614 shell-pairs
 IPart= 18 NShTot=      215650 NShNF=      215650 NShFF=           0 MinMC=       7
           NShCPU=      215650 NBCPU=        9065 AvBCPU=        23.8
           NShGPU=           0 NBGPU=           0 AvBGPU=         0.0
 IPart= 15 NShTot=      220326 NShNF=      220326 NShFF=           0 MinMC=       7
           NShCPU=      220326 NBCPU=        9502 AvBCPU=        23.2
           NShGPU=           0 NBGPU=           0 AvBGPU=         0.0
 IPart= 11 NShTot=      205394 NShNF=      205394 NShFF=           0 MinMC=       7
           NShCPU=      205394 NBCPU=        8861 AvBCPU=        23.2
           NShGPU=           0 NBGPU=           0 AvBGPU=         0.0
 IPart=  6 NShTot=      214615 NShNF=      214615 NShFF=           0 MinMC=       7
           NShCPU=      214615 NBCPU=        9262 AvBCPU=        23.2
           NShGPU=           0 NBGPU=           0 AvBGPU=         0.0
 IPart= 17 NShTot=      211837 NShNF=      211837 NShFF=           0 MinMC=       7
           NShCPU=      211837 NBCPU=        8999 AvBCPU=        23.5
           NShGPU=           0 NBGPU=           0 AvBGPU=         0.0
 IPart=  2 NShTot=      209505 NShNF=      209505 NShFF=           0 MinMC=       7
           NShCPU=      209505 NBCPU=        9178 AvBCPU=        22.8
           NShGPU=           0 NBGPU=           0 AvBGPU=         0.0
 IPart=  4 NShTot=      218045 NShNF=      218045 NShFF=           0 MinMC=       7
           NShCPU=      218045 NBCPU=        9319 AvBCPU=        23.4
           NShGPU=           0 NBGPU=           0 AvBGPU=         0.0
 IPart= 13 NShTot=      211948 NShNF=      211948 NShFF=           0 MinMC=       7
           NShCPU=      211948 NBCPU=        8960 AvBCPU=        23.7
           NShGPU=           0 NBGPU=           0 AvBGPU=         0.0
 IPart= 14 NShTot=      213513 NShNF=      213513 NShFF=           0 MinMC=       7
           NShCPU=      213513 NBCPU=        8834 AvBCPU=        24.2
           NShGPU=           0 NBGPU=           0 AvBGPU=         0.0
 IPart= 16 NShTot=      210857 NShNF=      210857 NShFF=           0 MinMC=       7
           NShCPU=      210857 NBCPU=        8763 AvBCPU=        24.1
           NShGPU=           0 NBGPU=           0 AvBGPU=         0.0
 IPart=  9 NShTot=      226127 NShNF=      226127 NShFF=           0 MinMC=       7
           NShCPU=      226127 NBCPU=        8699 AvBCPU=        26.0
           NShGPU=           0 NBGPU=           0 AvBGPU=         0.0
 IPart=  0 NShTot=      213386 NShNF=      213386 NShFF=           0 MinMC=       7
           NShCPU=      213386 NBCPU=        9255 AvBCPU=        23.1
           NShGPU=           0 NBGPU=           0 AvBGPU=         0.0
 IPart= 19 NShTot=      216024 NShNF=      216024 NShFF=           0 MinMC=       7
           NShCPU=      216024 NBCPU=        8761 AvBCPU=        24.7
           NShGPU=           0 NBGPU=           0 AvBGPU=         0.0
 IPart=  7 NShTot=      222541 NShNF=      222541 NShFF=           0 MinMC=       7
           NShCPU=      222541 NBCPU=        9097 AvBCPU=        24.5
           NShGPU=           0 NBGPU=           0 AvBGPU=         0.0
 IPart=  8 NShTot=      215890 NShNF=      215890 NShFF=           0 MinMC=       7
           NShCPU=      215890 NBCPU=        8929 AvBCPU=        24.2
           NShGPU=           0 NBGPU=           0 AvBGPU=         0.0
 IPart=  5 NShTot=      221522 NShNF=      221522 NShFF=           0 MinMC=       7
           NShCPU=      221522 NBCPU=        9282 AvBCPU=        23.9
           NShGPU=           0 NBGPU=           0 AvBGPU=         0.0
 IPart=  1 NShTot=      226536 NShNF=      226536 NShFF=           0 MinMC=       7
           NShCPU=      226536 NBCPU=        9311 AvBCPU=        24.3
           NShGPU=           0 NBGPU=           0 AvBGPU=         0.0
 IPart= 12 NShTot=      212258 NShNF=      212258 NShFF=           0 MinMC=       7
           NShCPU=      212258 NBCPU=        8949 AvBCPU=        23.7
           NShGPU=           0 NBGPU=           0 AvBGPU=         0.0
 IPart=  3 NShTot=      201877 NShNF=      201877 NShFF=           0 MinMC=       7
           NShCPU=      201877 NBCPU=        8478 AvBCPU=        23.8
           NShGPU=           0 NBGPU=           0 AvBGPU=         0.0
 IPart= 10 NShTot=      205569 NShNF=      205569 NShFF=           0 MinMC=       7
           NShCPU=      205569 NBCPU=        8592 AvBCPU=        23.9
           NShGPU=           0 NBGPU=           0 AvBGPU=         0.0
 CoulSu:  NxtVal=        6975489 LenVP=       33458286 MinMC=       7.
 ReadGW:  IGet=0 IStart=           1 Next=           1 LGW=           0.
 Remaining memory in FofDFT      639.93 Mw
 CkSvGd:  ISavGI=        -1 IRadAn=       5 IRASav=       5 ISavGd=        -1.
 CalDSu-InSpLW:  IPartL=    0 NPrtUS=   20 NPrtUL=    1 DoSpLW=F IThBeg=    0 IThEnd=   19 NThAct=   20.
 CalDSu:  NPrtUS=  20 ThrOK=T IAlg=1 NPAlg=2 DoDPD=T LenP=       35245 LenD1P=             0 GPUOK=F
          ISkipM=0 DoSpLW=F IThBeg=    0 IThEnd=   19.
 IPart=  0 IRanGd=          0 ScrnBf=T ScrnGd=T RCrit=4.00D+00 DoMicB=T.
 IPart= 14         8181 of         8876 points in       9 batches and       43 microbatches, Max-NSigAt=      11 Max-NSgAt2=      11
 IPart= 16         8246 of         9520 points in      10 batches and       50 microbatches, Max-NSigAt=      11 Max-NSgAt2=      11
 IPart= 11        16561 of        18216 points in      19 batches and      106 microbatches, Max-NSigAt=      11 Max-NSgAt2=      11
 IPart=  0        16428 of        17400 points in      17 batches and       80 microbatches, Max-NSigAt=      11 Max-NSgAt2=      11
 IPart= 18        16056 of        18448 points in      21 batches and      118 microbatches, Max-NSigAt=      11 Max-NSgAt2=      11
 IPart= 19        16595 of        18274 points in      18 batches and       93 microbatches, Max-NSigAt=      11 Max-NSgAt2=      11
 IPart= 13        17271 of        19740 points in      22 batches and       99 microbatches, Max-NSigAt=      11 Max-NSgAt2=      11
 IPart= 15        15684 of        16760 points in      17 batches and       92 microbatches, Max-NSigAt=      11 Max-NSgAt2=      11
 IPart=  8        15389 of        16462 points in      17 batches and       96 microbatches, Max-NSigAt=      11 Max-NSgAt2=      11
 IPart=  2         8967 of         9912 points in      10 batches and       47 microbatches, Max-NSigAt=      11 Max-NSgAt2=      11
 IPart= 17         8005 of         8386 points in       8 batches and       41 microbatches, Max-NSigAt=      11 Max-NSgAt2=      11
 IPart=  7         8019 of         8344 points in       9 batches and       42 microbatches, Max-NSigAt=      11 Max-NSgAt2=      11
 IPart=  9         9445 of        10692 points in      12 batches and       58 microbatches, Max-NSigAt=      11 Max-NSgAt2=      11
 IPart= 10         8629 of         8916 points in       8 batches and       40 microbatches, Max-NSigAt=      11 Max-NSgAt2=      11
 IPart=  1         8685 of         9470 points in       9 batches and       45 microbatches, Max-NSigAt=      11 Max-NSgAt2=      11
 IPart=  3         7913 of         8602 points in       9 batches and       54 microbatches, Max-NSigAt=      11 Max-NSgAt2=      11
 IPart=  6         9944 of        10766 points in      11 batches and       36 microbatches, Max-NSigAt=      11 Max-NSgAt2=      11
 IPart=  4         8580 of         9216 points in       9 batches and       52 microbatches, Max-NSigAt=      11 Max-NSgAt2=      11
 IPart= 12         8221 of         8876 points in       9 batches and       64 microbatches, Max-NSigAt=      11 Max-NSgAt2=      11
 IPart=  5         8354 of         9524 points in      11 batches and       78 microbatches, Max-NSigAt=      11 Max-NSgAt2=      11
 Polarizability after L703:
                1             2             3 
      1  0.000000D+00
      2  0.000000D+00  0.000000D+00
      3  0.000000D+00  0.000000D+00  0.000000D+00
 Dipole Derivatives after L703:
                 1             2             3             4             5 
      1  -0.255205D+00  0.199511D-01 -0.893411D-02  0.419257D+00  0.150562D+00
      2  -0.563478D-01 -0.137444D+00  0.653526D-02 -0.519344D+00 -0.920082D+00
      3  -0.129624D-01  0.110210D-01 -0.270561D+00  0.219658D-01  0.717156D-01
                 6             7             8             9            10 
      1  -0.488088D-01 -0.142492D+01  0.124286D+00  0.538713D-01 -0.326904D+00
      2   0.833070D-01  0.414951D-01 -0.751728D+00 -0.432254D-02 -0.135828D+00
      3  -0.412602D+00  0.735838D-03  0.364456D-03 -0.796531D+00  0.271090D-01
                11            12            13            14            15 
      1   0.106964D+00  0.294494D-01 -0.713107D+00 -0.305667D+00 -0.426581D-01
      2  -0.688110D+00 -0.202578D-01  0.656537D-01 -0.625320D+00 -0.284514D-01
      3  -0.355481D-01  0.673828D-01 -0.189845D-01 -0.273907D-01  0.468126D-01
                16            17            18            19            20 
      1   0.780026D+00  0.916209D+00 -0.112863D-02  0.333646D+00 -0.474354D+00
      2   0.240191D+00  0.513092D+00 -0.415615D-02 -0.523227D-01  0.181368D+00
      3  -0.377507D-02 -0.832497D-02  0.945355D-01 -0.544300D-01  0.195971D+00
                21            22            23            24            25 
      1  -0.541989D+00  0.410154D+00 -0.493544D+00  0.502094D+00  0.234813D+00
      2   0.134886D+00 -0.649975D-01  0.199506D+00 -0.132113D+00 -0.265759D+00
      3   0.419955D+00  0.720586D-01 -0.193130D+00  0.414021D+00 -0.828511D-02
                26            27            28            29            30 
      1  -0.189346D+00 -0.134605D-01  0.669100D+00  0.713383D+00 -0.399925D-03
      2   0.683407D+00  0.420086D-01  0.363270D+00  0.706764D+00 -0.734094D-02
      3   0.204429D-01  0.479554D-01  0.118990D-01  0.290813D-02  0.877368D-01
                31            32            33 
      1  -0.126861D+00 -0.568446D+00  0.719649D-01
      2   0.383988D+00  0.838548D+00 -0.700957D-01
      3  -0.353312D-01 -0.380289D-01  0.301294D+00
 Hessian after L703:
                1             2             3             4             5 
      1  0.476958D+00
      2  0.539342D-01  0.349618D+00
      3 -0.404754D-02  0.868252D-02  0.711769D-01
      4  0.103429D-02 -0.478006D-02  0.612075D-03  0.380258D+00
      5  0.794099D-02  0.193860D-01 -0.116104D-03  0.188446D-01  0.495127D+00
      6  0.187189D-03  0.508838D-03 -0.702841D-02 -0.247806D-01 -0.285876D-01
      7 -0.207332D+00  0.235775D-01  0.311193D-02  0.350326D-02 -0.586411D-02
      8  0.670507D-01 -0.102091D+00 -0.186767D-02  0.393680D-04  0.242940D-02
      9  0.240340D-02 -0.683240D-03 -0.591188D-01 -0.235092D-03 -0.811646D-04
     10 -0.157666D+00 -0.540852D-01 -0.135370D-03 -0.241103D-01  0.172248D-01
     11 -0.957435D-01 -0.222971D+00 -0.436918D-02  0.587390D-01 -0.369902D-01
     12 -0.175087D-02 -0.569072D-02 -0.386873D-01 -0.231417D-03  0.819303D-03
     13 -0.312144D-01 -0.805931D-02  0.511144D-04 -0.166962D+00  0.109518D+00
     14 -0.618928D-01 -0.192223D-01  0.181524D-03  0.620658D-01 -0.243048D+00
     15 -0.147808D-03  0.313764D-03  0.108472D-01  0.326425D-02  0.323605D-03
     16 -0.269526D-01 -0.283521D-01  0.703750D-04 -0.146292D-03  0.645927D-03
     17  0.633206D-02  0.108098D-01 -0.125335D-03 -0.396675D-03  0.360553D-03
     18  0.790706D-03  0.622925D-03  0.318387D-03 -0.258137D-04  0.107720D-04
     19 -0.263984D-01  0.198822D-01  0.275041D-01 -0.608528D-04 -0.273671D-03
     20  0.969704D-02 -0.382294D-02 -0.693167D-02  0.306188D-03 -0.741292D-03
     21  0.597206D-02  0.368870D-04  0.593211D-02 -0.797411D-04 -0.295878D-03
     22 -0.280778D-01  0.211059D-01 -0.263447D-01 -0.111588D-03 -0.349300D-03
     23  0.928626D-02 -0.340655D-02  0.564150D-02  0.347349D-03 -0.735600D-03
     24 -0.250233D-02 -0.202892D-02  0.838628D-02  0.127438D-03  0.215152D-03
     25  0.339068D-02 -0.230496D-01 -0.876609D-03 -0.465479D-02 -0.135088D-02
     26  0.200736D-02 -0.293073D-01 -0.118140D-02 -0.157380D-02  0.235184D-02
     27 -0.122086D-03 -0.452008D-03  0.508000D-03 -0.157077D-03  0.135126D-03
     28 -0.426490D-02  0.355127D-02  0.281166D-03  0.140100D-01  0.192823D-01
     29  0.242795D-02  0.158327D-02 -0.605880D-04 -0.127000D-01 -0.289211D-01
     30 -0.420789D-03 -0.894428D-03  0.885575D-02 -0.271206D-03  0.946514D-03
     31  0.524051D-03 -0.372477D-02 -0.226555D-03 -0.202759D+00 -0.165618D+00
     32 -0.104024D-02 -0.575833D-03  0.146412D-03 -0.120892D+00 -0.209219D+00
     33 -0.361932D-03 -0.415612D-03 -0.119010D-02  0.217771D-01  0.266303D-01
                6             7             8             9            10 
      6  0.609370D-01
      7 -0.280562D-04  0.471296D+00
      8  0.269385D-04  0.260761D-01  0.548161D+00
      9 -0.551262D-03  0.187603D-01 -0.355289D-01  0.542649D+00
     10  0.667929D-03 -0.478643D-01 -0.417525D-01 -0.232099D-03  0.970010D+00
     11 -0.631105D-03 -0.134497D-01  0.339960D-02  0.908429D-03 -0.827552D-01
     12  0.127683D-01  0.739547D-03  0.775523D-03 -0.470037D-02 -0.125013D-01
     13 -0.458884D-03 -0.319550D-03 -0.991690D-03 -0.961555D-04 -0.608569D+00
     14  0.618960D-02  0.804609D-02 -0.929312D-02 -0.384466D-03  0.432881D-01
     15 -0.456965D-01 -0.220839D-03 -0.539059D-04  0.447847D-03  0.436880D-02
     16  0.484326D-05 -0.103366D+00 -0.779457D-01  0.106291D-02 -0.489529D-02
     17 -0.696113D-05 -0.907923D-01 -0.206002D+00  0.261329D-02  0.193638D-02
     18 -0.137778D-03  0.125557D-03  0.156876D-02 -0.586418D-01 -0.981109D-04
[...]
     Eigenvalues ---    0.13475   0.16484   0.18191   0.18736   0.19826
     Eigenvalues ---    0.22138   0.23301   0.33222   0.33591   0.35088
     Eigenvalues ---    0.36355   0.37354   0.39844   0.45086   0.45698
     Eigenvalues ---    0.53342   0.66236
 Angle between quadratic step and forces=  60.59 degrees.
 Linear search not attempted -- first point.
 Iteration  1 RMS(Cart)=  0.00000717 RMS(Int)=  0.00000000
 Iteration  2 RMS(Cart)=  0.00000000 RMS(Int)=  0.00000000
 ITry= 1 IFail=0 DXMaxC= 2.80D-05 DCOld= 1.00D+10 DXMaxT= 3.00D-01 DXLimC= 3.00D+00 Rises=F
 Variable       Old X    -DE/DX   Delta X   Delta X   Delta X     New X
                                 (Linear)    (Quad)   (Total)
    R1        2.67120  -0.00000   0.00000  -0.00000  -0.00000   2.67120
    R2        2.59481   0.00000   0.00000  -0.00000  -0.00000   2.59481
    R3        2.56333   0.00000   0.00000   0.00000   0.00000   2.56333
    R4        1.82347  -0.00000   0.00000  -0.00000  -0.00000   1.82347
    R5        2.05345  -0.00000   0.00000  -0.00000  -0.00000   2.05345
    R6        2.06653  -0.00000   0.00000  -0.00000  -0.00000   2.06653
    R7        2.06457   0.00000   0.00000   0.00000   0.00000   2.06457
    R8        2.50502   0.00000   0.00000   0.00000   0.00000   2.50502
    R9        2.04478  -0.00000   0.00000  -0.00000  -0.00000   2.04478
   R10        2.03835   0.00000   0.00000   0.00000   0.00000   2.03835
    A1        1.98208   0.00000   0.00000   0.00000   0.00000   1.98208
    A2        1.87243  -0.00000   0.00000  -0.00000  -0.00000   1.87243
    A3        1.87229  -0.00000   0.00000  -0.00000  -0.00000   1.87229
    A4        1.93110  -0.00000   0.00000  -0.00000  -0.00000   1.93110
    A5        1.93727   0.00000   0.00000   0.00000   0.00000   1.93727
    A6        1.90554   0.00000   0.00000   0.00000   0.00000   1.90554
    A7        1.91450   0.00000   0.00000   0.00000   0.00000   1.91450
    A8        1.90278  -0.00000   0.00000  -0.00000  -0.00000   1.90277
    A9        2.08155  -0.00000   0.00000  -0.00000  -0.00000   2.08155
   A10        2.05343   0.00000   0.00000   0.00000   0.00000   2.05343
   A11        2.14729   0.00000   0.00000   0.00000   0.00000   2.14729
   A12        2.16215  -0.00000   0.00000  -0.00000  -0.00000   2.16215
   A13        1.98815  -0.00000   0.00000  -0.00000  -0.00000   1.98815
   A14        2.13269   0.00000   0.00000   0.00000   0.00000   2.13269
    D1       -3.10483   0.00000   0.00000   0.00000   0.00000  -3.10483
    D2       -1.02789   0.00000   0.00000   0.00000   0.00000  -1.02788
    D3        1.08701  -0.00000   0.00000   0.00000   0.00000   1.08701
    D4       -2.45358   0.00000   0.00000   0.00000   0.00000  -2.45357
    D5        0.73253   0.00000   0.00000   0.00000   0.00000   0.73253
    D6       -0.00099   0.00000   0.00000   0.00002   0.00002  -0.00097
    D7        3.11980   0.00000   0.00000   0.00002   0.00002   3.11981
    D8        0.03797   0.00000   0.00000   0.00000   0.00000   0.03797
    D9       -3.08115   0.00000   0.00000   0.00000   0.00000  -3.08114
   D10        3.13254   0.00000   0.00000   0.00000   0.00000   3.13254
   D11        0.01342   0.00000   0.00000   0.00001   0.00001   0.01342
         Item               Value     Threshold  Converged?
 Maximum Force            0.000001     0.000015     YES
 RMS     Force            0.000000     0.000010     YES
 Maximum Displacement     0.000028     0.000060     YES
 RMS     Displacement     0.000007     0.000040     YES
 Predicted change in Energy=-7.121207D-12
 Optimization completed.
    -- Stationary point found.
                           ----------------------------
                           !   Optimized Parameters   !
                           ! (Angstroms and Degrees)  !
 --------------------------                            --------------------------
 ! Name  Definition              Value          Derivative Info.                !
 --------------------------------------------------------------------------------
 ! R1    R(1,3)                  1.4135         -DE/DX =    0.0                 !
 ! R2    R(1,4)                  1.3731         -DE/DX =    0.0                 !
 ! R3    R(2,5)                  1.3565         -DE/DX =    0.0                 !
 ! R4    R(2,11)                 0.9649         -DE/DX =    0.0                 !
 ! R5    R(3,6)                  1.0866         -DE/DX =    0.0                 !
 ! R6    R(3,7)                  1.0936         -DE/DX =    0.0                 !
 ! R7    R(3,8)                  1.0925         -DE/DX =    0.0                 !
 ! R8    R(4,5)                  1.3256         -DE/DX =    0.0                 !
 ! R9    R(4,9)                  1.0821         -DE/DX =    0.0                 !
 ! R10   R(5,10)                 1.0786         -DE/DX =    0.0                 !
 ! A1    A(3,1,4)              113.5649         -DE/DX =    0.0                 !
 ! A2    A(5,2,11)             107.2823         -DE/DX =    0.0                 !
 ! A3    A(1,3,6)              107.2744         -DE/DX =    0.0                 !
 ! A4    A(1,3,7)              110.6436         -DE/DX =    0.0                 !
 ! A5    A(1,3,8)              110.9976         -DE/DX =    0.0                 !
 ! A6    A(6,3,7)              109.1795         -DE/DX =    0.0                 !
 ! A7    A(6,3,8)              109.6929         -DE/DX =    0.0                 !
 ! A8    A(7,3,8)              109.021          -DE/DX =    0.0                 !
 ! A9    A(1,4,5)              119.264          -DE/DX =    0.0                 !
 ! A10   A(1,4,9)              117.6531         -DE/DX =    0.0                 !
 ! A11   A(5,4,9)              123.0306         -DE/DX =    0.0                 !
 ! A12   A(2,5,4)              123.8823         -DE/DX =    0.0                 !
 ! A13   A(2,5,10)             113.9126         -DE/DX =    0.0                 !
 ! A14   A(4,5,10)             122.194          -DE/DX =    0.0                 !
 ! D1    D(4,1,3,6)           -177.8938         -DE/DX =    0.0                 !
 ! D2    D(4,1,3,7)            -58.8936         -DE/DX =    0.0                 !
 ! D3    D(4,1,3,8)             62.2812         -DE/DX =    0.0                 !
 ! D4    D(3,1,4,5)           -140.5796         -DE/DX =    0.0                 !
 ! D5    D(3,1,4,9)             41.9707         -DE/DX =    0.0                 !
 ! D6    D(11,2,5,4)            -0.0568         -DE/DX =    0.0                 !
 ! D7    D(11,2,5,10)          178.7512         -DE/DX =    0.0                 !
 ! D8    D(1,4,5,2)              2.1756         -DE/DX =    0.0                 !
 ! D9    D(1,4,5,10)          -176.5367         -DE/DX =    0.0                 !
 ! D10   D(9,4,5,2)            179.4811         -DE/DX =    0.0                 !
 ! D11   D(9,4,5,10)             0.7688         -DE/DX =    0.0                 !
 --------------------------------------------------------------------------------
 GradGradGradGradGradGradGradGradGradGradGradGradGradGradGradGradGradGrad

 Leave Link  103 at Tue Sep 24 10:44:16 2019, MaxMem=   671088640 cpu:             110.1 elap:              55.5
 (Enter /shared/centos7/gaussian/g16/l9999.exe)

 ----------------------------------------------------------------------

 Electric dipole moment (input orientation):
 (Debye = 10**-18 statcoulomb cm , SI units = C m)
                  (au)            (Debye)         (10**-30 SI)
   Tot        0.864542D+00      0.219745D+01      0.732989D+01
   x         -0.815472D+00     -0.207272D+01     -0.691386D+01
   y         -0.402528D-01     -0.102312D+00     -0.341278D+00
   z         -0.284284D+00     -0.722579D+00     -0.241026D+01

 Dipole polarizability, Alpha (input orientation).
 (esu units = cm**3 , SI units = C**2 m**2 J**-1)
 Alpha(0;0):
               (au)            (10**-24 esu)      (10**-40 SI)
   iso        0.445369D+02      0.659969D+01      0.734314D+01
   aniso      0.248253D+02      0.367873D+01      0.409313D+01
   xx         0.586810D+02      0.869563D+01      0.967519D+01
   yx         0.477910D+01      0.708189D+00      0.787966D+00
   yy         0.430396D+02      0.637781D+01      0.709627D+01
   zx         0.579851D+00      0.859251D-01      0.956046D-01
   zy        -0.106575D+01     -0.157928D+00     -0.175718D+00
   zz         0.318901D+02      0.472563D+01      0.525797D+01

 ----------------------------------------------------------------------

 Dipole orientation:
     8         -2.72721918          1.18753499         -1.09654930
     8         -0.52507544          0.65519807         -5.78252315
     6         -2.21262663          1.72290657          1.46936086
     6         -1.81294072         -1.11092306         -1.88027970
     6         -0.79919154         -1.31202312         -4.16216751
     1         -3.07518111          3.53625752          1.89878548
     1         -3.03195377          0.27426826          2.69439397
     1         -0.17892496          1.82152300          1.81107702
     1         -2.03298094         -2.70151113         -0.61428259
     1         -0.14820013         -3.09376641         -4.90813916
     1         -1.19241697          2.13628923         -4.95424062

 Electric dipole moment (dipole orientation):
 (Debye = 10**-18 statcoulomb cm , SI units = C m)
                  (au)            (Debye)         (10**-30 SI)
   Tot        0.864542D+00      0.219745D+01      0.732989D+01
   x          0.000000D+00      0.000000D+00      0.000000D+00
   y          0.000000D+00      0.000000D+00      0.000000D+00
   z          0.864542D+00      0.219745D+01      0.732989D+01

 Dipole polarizability, Alpha (dipole orientation).
 (esu units = cm**3 , SI units = C**2 m**2 J**-1)
 Alpha(0;0):
               (au)            (10**-24 esu)      (10**-40 SI)
   iso        0.445369D+02      0.659969D+01      0.734314D+01
   aniso      0.248253D+02      0.367873D+01      0.409313D+01
   xx         0.342956D+02      0.508208D+01      0.565458D+01
   yx        -0.193259D+01     -0.286380D+00     -0.318641D+00
   yy         0.428180D+02      0.634497D+01      0.705973D+01
   zx        -0.786367D+01     -0.116528D+01     -0.129654D+01
   zy         0.379690D+01      0.562643D+00      0.626024D+00
   zz         0.564971D+02      0.837201D+01      0.931511D+01

 ----------------------------------------------------------------------

 Test job not archived.
 1\1\GINC-C0316\Freq\RM062X\CC-pVTZ\C3H6O2\HARMS.N\24-Sep-2019\0\\#P Ge
 om=AllCheck Guess=TCheck SCRF=Check Test GenChk RM062X/CC-pVTZ Freq\\G
 aussian input prepared by ASE\\0,1\O,0.0911913587,-0.5526776694,1.5813
 366949\O,2.8059389358,-0.1944954495,1.28443354\C,-1.0902119343,-0.9077
 414204,0.8911845504\C,0.6020670755,0.6649496851,1.2047267548\C,1.91481
 15113,0.8096860636,1.0908330733\H,-1.4236777746,-1.8612550426,1.291676
 5616\H,-1.870289309,-0.1582591569,1.0512880198\H,-0.9034168166,-1.0038
 286667,-0.1809529973\H,-0.0961418458,1.4779357468,1.055075452\H,2.3698
 358447,1.7580001467,0.8518014584\H,2.301712504,-0.9857128775,1.5098958
 907\\Version=EM64L-G16RevA.03\State=1-A\HF=-268.3241864\RMSD=6.581e-09
 \RMSF=9.134e-07\ZeroPoint=0.0911284\Thermal=0.0969967\Dipole=-0.815471
 8,-0.0402528,-0.2842845\DipoleDeriv=-1.1544254,-0.3307799,-0.1211304,-
 0.7433875,-0.8639499,0.0388745,0.0424616,0.0890783,-0.3893501,-0.91916
 34,0.2335134,-0.056287,0.7938456,-0.6705524,0.0726609,-0.1644483,0.079
 7281,-0.3406743,0.8672806,0.2139631,0.1521162,0.11459,0.352528,0.08570
 76,0.2677685,0.1545998,0.4280854,0.1871632,0.2721978,-0.1349055,0.5902
 346,0.5902165,-0.1347056,-0.2939135,-0.239728,-0.1591788,0.8063758,-0.
 3330414,0.064488,-0.718654,0.4379042,-0.1509676,0.1154106,-0.1046413,-
 0.0621217,0.0061988,-0.0456899,-0.0079249,-0.0928827,-0.0729712,0.0406
 765,0.0123869,0.067129,0.0413751,-0.0963639,0.0270732,-0.0052961,0.138
 1906,-0.058278,-0.0264144,0.001876,-0.0632245,0.0297922,-0.019108,-0.0
 195848,0.0708669,0.0077698,0.0477821,0.0015338,-0.0657809,-0.0702831,-
 0.1460706,-0.0034997,0.0757503,-0.002045,0.0067164,-0.0307392,0.032597
 7,0.0576816,0.0593863,0.1494531,0.0482468,-0.0321493,0.00783,-0.004072
 9,-0.0237011,0.0414927,-0.0011999,0.030402,0.1437926,0.2772952,-0.0612
 525,0.0322877,-0.0923497,0.2917611,-0.0014561,0.0277574,-0.0024467,0.3
 048971\Polar=58.6810013,4.7790955,43.0395653,0.5798514,-1.0657497,31.8
 901042\Quadrupole=-0.7169487,2.5691662,-1.8522176,0.6154979,0.6631073,
 -0.4224571\PG=C01 [X(C3H6O2)]\NImag=0\\0.39126253,0.16369299,0.3909873
 9,0.10290992,-0.06937345,0.18895030,0.00069211,-0.00560576,-0.00043235
 ,0.42795338,0.00204106,0.01672537,-0.00755130,0.04964282,0.60087999,-0
 .00103633,-0.00559264,-0.00511694,-0.03556537,-0.14384338,0.07193697,-
 0.19216425,-0.04267286,-0.07372529,0.00328382,-0.00496699,0.00128671,0
 .51059496,-0.01659181,-0.08802570,0.00090586,0.00143272,0.00121530,-0.
 00135557,-0.00506127,0.61200217,-0.09135763,-0.01905500,-0.11513144,0.
 00184823,-0.00090453,-0.00069622,-0.04336201,-0.03081095,0.56015754,-0
 .12258138,-0.05680516,0.00186863,-0.04189121,0.02050946,-0.00002857,-0
 .02670370,-0.04219834,0.01063537,0.93183224,-0.08018182,-0.25507233,0.
 06159389,0.05667793,-0.02090053,0.00707561,-0.02156134,-0.02343809,-0.
 00196323,-0.02174254,0.59486424,0.01962052,0.08442227,-0.07298811,-0.0
 1156978,0.00925944,0.01248051,-0.00362582,-0.01716283,0.00412919,-0.02
 403828,-0.11792161,0.14925846,-0.02106609,-0.01017059,0.00507360,-0.21
 381982,0.13551692,-0.02541735,-0.00026310,0.00189503,0.00043776,-0.552
 42691,-0.06826953,0.04549211,0.90074917,-0.05866018,-0.03450722,0.0143
 2581,0.08650302,-0.22945721,0.04024717,0.00723801,-0.00428931,0.006017
 74,-0.03771038,-0.10141814,0.01138973,0.07240296,0.68066479,0.01901926
 ,0.01506073,0.00568413,-0.01154423,0.03799865,-0.05237693,-0.00356167,
 0.00060655,-0.00073548,0.03331833,0.01178170,-0.05992439,-0.05900107,-
 0.13608755,0.15865548,-0.01756858,-0.03319958,0.00768480,-0.00034094,0
 .00070709,-0.00028298,-0.06872404,-0.06000806,0.02797830,-0.00442407,0
 .00121396,-0.00325863,0.00063129,-0.00244285,0.00042176,0.08287616,-0.
 00610489,-0.00772350,0.00081486,-0.00050234,0.00059727,-0.00006655,-0.
 06956646,-0.26259299,0.09159503,-0.00158993,0.00170021,-0.00137963,0.0
 0041168,-0.00091772,-0.00006345,0.08087339,0.28154591,-0.00961008,-0.0
 2040677,0.00645710,0.00011730,-0.00007915,-0.00013155,0.03436463,0.099
 93919,-0.09417259,-0.00279226,-0.00041870,-0.00047971,-0.00054113,-0.0
 0098074,0.00048463,-0.02761415,-0.09912643,0.09441416,-0.03775331,0.01
 145922,-0.00670142,-0.00013660,-0.00056325,0.00017596,-0.16646573,0.12
 028727,0.03241638,0.00206724,0.00669066,-0.00123892,-0.00054267,-0.000
 77590,0.00029161,0.00876208,-0.00590254,-0.00166349,0.19592900,-0.0092
 2238,0.00932422,0.00257911,-0.00005873,-0.00025887,0.00046270,0.125657
 37,-0.18171741,-0.03058230,-0.00202285,0.00367301,-0.00014059,-0.00008
 487,0.00027612,-0.00030411,0.01917578,-0.01762793,-0.00651243,-0.13561
 073,0.18727138,-0.02258460,0.01141261,0.00207214,-0.00030167,-0.000078
 80,0.00027807,0.03434899,-0.03355671,-0.06013228,0.00123733,0.00200155
 ,-0.00041441,-0.00022119,-0.00014420,-0.00021931,-0.00902154,0.0093039
 7,0.00280665,-0.02604088,0.03433188,0.05934399,-0.00579274,-0.00960146
 ,-0.04005014,-0.00020419,0.00021120,-0.00028472,-0.06274510,0.00497405
 ,0.06090071,0.00386388,0.00429411,-0.00208659,-0.00067364,-0.00007695,
 0.00097168,-0.00089067,0.00228733,0.00784117,-0.00265740,0.00084477,0.
 02177975,0.06933251,-0.00504752,-0.00034297,-0.01083539,0.00037103,-0.
 00072689,-0.00006344,0.00513424,-0.05601126,-0.01724710,0.00233182,0.0
 0211419,-0.00178915,-0.00103804,0.00061887,0.00031229,-0.00571001,0.00
 477938,0.02770480,0.00598436,-0.00110072,-0.02295518,-0.00245687,0.050
 93138,-0.01210491,-0.00579858,-0.01808696,-0.00052322,0.00096288,0.000
 03857,0.05458611,-0.01985557,-0.29397781,0.00077977,0.00326123,0.00074
 945,0.00011315,-0.00201603,0.00047354,0.00360974,-0.00126845,-0.009347
 81,0.00248811,0.00051876,-0.00372926,-0.04912817,0.02496273,0.32446762
 ,0.00904219,-0.01423460,0.00217473,-0.00401246,-0.00245384,0.00079254,
 0.00430076,-0.00213604,0.00058706,-0.18544312,0.14011176,-0.02392558,-
 0.01059120,0.02566974,-0.00465232,0.00008104,0.00012657,0.00012167,0.0
 0009826,0.00136150,0.00045838,-0.00041044,0.00021334,0.00003409,0.1868
 8981,0.01048897,-0.03135617,0.00615759,-0.00250050,0.00194773,0.002470
 32,0.00496712,0.00160073,0.00228625,0.14030472,-0.20590432,0.03408209,
 -0.00322868,0.00685347,-0.00163369,-0.00049042,0.00037133,-0.00022803,
 -0.00134857,0.00032374,-0.00013248,-0.00038656,-0.00038766,-0.00051714
 ,-0.14734678,0.22708053,-0.00552780,0.01137432,-0.00032253,0.00211636,
 0.00084956,0.01083902,-0.00051212,-0.00093635,-0.00000895,-0.02217266,
 0.03314567,-0.03413073,0.00114173,-0.00180971,-0.00066089,0.00011669,0
 .00007213,-0.00020302,0.00043684,-0.00011891,0.00021712,0.00017974,-0.
 00028603,-0.00014726,0.02414944,-0.04141234,0.02927438,-0.00529901,0.0
 0041793,-0.00071736,0.01194522,0.02591905,-0.00665787,0.00017494,-0.00
 043227,0.00144589,-0.00215234,-0.02665759,0.00655831,-0.11853108,-0.11
 914142,0.03240200,-0.00039437,-0.00008481,-0.00025214,-0.00021223,-0.0
 0004596,-0.00007073,0.00001037,-0.00000856,-0.00010426,-0.00018440,0.0
 0039811,-0.00044913,0.11738118,0.00098867,0.00164884,0.00171623,-0.006
 32752,-0.02599568,0.00674833,0.00016370,0.00056940,0.00023147,0.000611
 79,0.00116038,-0.00026587,-0.11414738,-0.27604042,0.06118649,0.0001227
 4,0.00003759,0.00003861,-0.00006076,-0.00004075,-0.00002885,0.00003878
 ,0.00002079,-0.00002860,-0.00048926,-0.00001881,-0.00099698,0.11530933
 ,0.29988884,-0.00007992,-0.00132455,0.01103076,0.00067285,0.00600927,-
 0.00006102,0.00072639,0.00192645,0.00041138,0.00087292,0.00251913,0.00
 009668,0.02990683,0.06038675,-0.05069523,0.00033642,0.00010258,0.00012
 730,-0.00013233,-0.00018817,-0.00009759,0.00010348,0.00016718,-0.00023
 476,0.00004133,-0.00099833,-0.00413229,-0.03139981,-0.06899199,0.04135
 169,0.00122854,-0.00328014,0.00191488,-0.18346932,-0.22656352,0.067017
 99,-0.00128853,-0.00216127,-0.00153005,-0.00214064,0.00942441,-0.00192
 735,0.01653405,0.02699394,-0.00766534,-0.00000791,0.00005200,0.0000284
 8,0.00091138,0.00000610,0.00041615,0.00016741,0.00022620,0.00024959,0.
 00022956,-0.00085741,0.00052091,-0.00273827,0.00378991,-0.00104818,0.1
 7057373,-0.00140309,-0.00165792,-0.00033321,-0.17963268,-0.34402648,0.
 09391744,0.00066849,0.00068716,0.00043261,-0.00168859,0.00322139,-0.00
 049386,-0.01328750,-0.04178324,0.01114239,-0.00024204,-0.00016955,0.00
 006966,-0.00015975,-0.00012279,-0.00015379,-0.00012840,0.00010490,-0.0
 0022121,-0.00082239,-0.00051058,0.00011864,0.00432618,-0.00123018,0.00
 039168,0.19236977,0.38548728,0.00075157,-0.00071894,-0.00254845,0.0551
 8187,0.09737736,-0.03719048,-0.00052593,0.00029994,0.00015664,0.000319
 44,-0.00107524,0.00122305,0.00301556,0.00867102,-0.00068556,0.00002958
 ,0.00001594,0.00004482,-0.00003185,-0.00004596,-0.00012511,-0.00022692
 ,0.00002929,-0.00020530,0.00021867,-0.00007424,-0.00072487,-0.00075490
 ,0.00039116,0.00220307,-0.05797708,-0.10487033,0.03785218\\0.00000048,
 -0.00000085,-0.00000045,-0.00000014,0.00000009,-0.00000169,0.00000034,
 0.00000017,-0.00000070,0.00000018,-0.00000029,0.00000083,0.00000019,0.
 00000024,0.00000049,0.00000020,-0.00000088,-0.00000139,-0.00000047,0.0
 0000010,0.00000125,-0.00000054,0.00000157,-0.00000051,-0.00000026,-0.0
 0000006,0.00000263,-0.00000042,0.00000042,0.00000153,0.00000044,-0.000
 00052,-0.00000200\\\@


 THERE ARE TWO THINGS THAT EVERYBODY THINKS THEY CAN DO BETTER THAN
 ANYONE ELSE - PUNCH THE FIRE, AND EDIT A DAILY PAPER.
 -- UNCLE ESEK, "CENTURY MAGAZINE", 1885
 Job cpu time:       0 days  1 hours 11 minutes 42.8 seconds.
 Elapsed time:       0 days  0 hours 35 minutes 52.8 seconds.
 File lengths (MBytes):  RWF=   1312 Int=      0 D2E=      0 Chk=     32 Scr=     32
 Normal termination of Gaussian 16 at Tue Sep 24 10:44:17 2019.
