 Entering Gaussian System, Link 0=g16
 Input=loose/species/COC=CO/conformers/COC=CO_33.com
 Output=loose/species/COC=CO/conformers/COC=CO_33.log
 Initial command:
 /shared/centos7/gaussian/g16/l1.exe "/scratch/harms.n/gauss_scrdir/Gau-37129.inp" -scrdir="/scratch/harms.n/gauss_scrdir/"
 Entering Link 1 = /shared/centos7/gaussian/g16/l1.exe PID=     37130.
  
 Copyright (c) 1988,1990,1992,1993,1995,1998,2003,2009,2016,
            Gaussian, Inc.  All Rights Reserved.
  
 This is part of the Gaussian(R) 16 program.  It is based on
 the Gaussian(R) 09 system (copyright 2009, Gaussian, Inc.),
 the Gaussian(R) 03 system (copyright 2003, Gaussian, Inc.),
 the Gaussian(R) 98 system (copyright 1998, Gaussian, Inc.),
 the Gaussian(R) 94 system (copyright 1995, Gaussian, Inc.),
 the Gaussian 92(TM) system (copyright 1992, Gaussian, Inc.),
 the Gaussian 90(TM) system (copyright 1990, Gaussian, Inc.),
 the Gaussian 88(TM) system (copyright 1988, Gaussian, Inc.),
 the Gaussian 86(TM) system (copyright 1986, Carnegie Mellon
 University), and the Gaussian 82(TM) system (copyright 1983,
 Carnegie Mellon University). Gaussian is a federally registered
 trademark of Gaussian, Inc.
  
 This software contains proprietary and confidential information,
 including trade secrets, belonging to Gaussian, Inc.
  
 This software is provided under written license and may be
 used, copied, transmitted, or stored only in accord with that
 written license.
  
 The following legend is applicable only to US Government
 contracts under FAR:
  
                    RESTRICTED RIGHTS LEGEND
  
 Use, reproduction and disclosure by the US Government is
 subject to restrictions as set forth in subparagraphs (a)
 and (c) of the Commercial Computer Software - Restricted
 Rights clause in FAR 52.227-19.
  
 Gaussian, Inc.
 340 Quinnipiac St., Bldg. 40, Wallingford CT 06492
  
  
 ---------------------------------------------------------------
 Warning -- This program may not be used in any manner that
 competes with the business of Gaussian, Inc. or will provide
 assistance to any competitor of Gaussian, Inc.  The licensee
 of this program is prohibited from giving any competitor of
 Gaussian, Inc. access to this program.  By using this program,
 the user acknowledges that Gaussian, Inc. is engaged in the
 business of creating and licensing software in the field of
 computational chemistry and represents and warrants to the
 licensee that it is not a competitor of Gaussian, Inc. and that
 it will not use this program in any manner prohibited above.
 ---------------------------------------------------------------
  

 Cite this work as:
 Gaussian 16, Revision A.03,
 M. J. Frisch, G. W. Trucks, H. B. Schlegel, G. E. Scuseria, 
 M. A. Robb, J. R. Cheeseman, G. Scalmani, V. Barone, 
 G. A. Petersson, H. Nakatsuji, X. Li, M. Caricato, A. V. Marenich, 
 J. Bloino, B. G. Janesko, R. Gomperts, B. Mennucci, H. P. Hratchian, 
 J. V. Ortiz, A. F. Izmaylov, J. L. Sonnenberg, D. Williams-Young, 
 F. Ding, F. Lipparini, F. Egidi, J. Goings, B. Peng, A. Petrone, 
 T. Henderson, D. Ranasinghe, V. G. Zakrzewski, J. Gao, N. Rega, 
 G. Zheng, W. Liang, M. Hada, M. Ehara, K. Toyota, R. Fukuda, 
 J. Hasegawa, M. Ishida, T. Nakajima, Y. Honda, O. Kitao, H. Nakai, 
 T. Vreven, K. Throssell, J. A. Montgomery, Jr., J. E. Peralta, 
 F. Ogliaro, M. J. Bearpark, J. J. Heyd, E. N. Brothers, K. N. Kudin, 
 V. N. Staroverov, T. A. Keith, R. Kobayashi, J. Normand, 
 K. Raghavachari, A. P. Rendell, J. C. Burant, S. S. Iyengar, 
 J. Tomasi, M. Cossi, J. M. Millam, M. Klene, C. Adamo, R. Cammi, 
 J. W. Ochterski, R. L. Martin, K. Morokuma, O. Farkas, 
 J. B. Foresman, and D. J. Fox, Gaussian, Inc., Wallingford CT, 2016.
 
 ******************************************
 Gaussian 16:  EM64L-G16RevA.03 25-Dec-2016
                29-Sep-2019 
 ******************************************
 %nprocshared=20
 Will use up to   20 processors via shared memory.
 %mem=5GB
 ----------------------------------------------------------------------
 #p m062x/cc-pVTZ opt=(calcfc,maxcycles=900,Tight) freq IOP(7/33=1,2/16
 =3) scf=(maxcycle=900)
 ----------------------------------------------------------------------
 1/6=900,7=10,10=4,18=20,19=15,26=3,38=1/1,3;
 2/9=110,12=2,16=3,17=6,18=5,40=1/2;
 3/5=16,6=1,11=2,25=1,30=1,71=2,74=-55,140=1/1,2,3;
 4//1;
 5/5=2,7=900,38=5/2;
 8/6=4,10=90,11=11/1;
 11/6=1,8=1,9=11,15=111,16=1/1,2,10;
 10/6=1,13=1/2;
 6/7=2,8=2,9=2,10=2,28=1/1;
 7/10=1,18=20,25=1,33=1/1,2,3,16;
 1/6=900,7=10,10=4,18=20,19=15,26=3/3(2);
 2/9=110,16=3/2;
 99//99;
 2/9=110,16=3/2;
 3/5=16,6=1,11=2,25=1,30=1,71=1,74=-55/1,2,3;
 4/5=5,16=3,69=1/1;
 5/5=2,7=900,38=5/2;
 7/33=1/1,2,3,16;
 1/6=900,7=10,18=20,19=15,26=3/3(-5);
 2/9=110,16=3/2;
 6/7=2,8=2,9=2,10=2,19=2,28=1/1;
 99/9=1/99;
 Leave Link    1 at Sun Sep 29 01:50:43 2019, MaxMem=   671088640 cpu:               4.1 elap:               2.1
 (Enter /shared/centos7/gaussian/g16/l101.exe)
 ------------------------------
 Gaussian input prepared by ASE
 ------------------------------
 Symbolic Z-matrix:
 Charge =  0 Multiplicity = 1
 O                     0.19764  -0.77131   1.14496 
 O                     0.07306   0.71479  -1.39991 
 C                    -1.19813  -0.91958   0.87437 
 C                     0.66237   0.51776   0.91713 
 C                     0.63958   1.16016  -0.22645 
 H                    -1.34923  -1.71876   0.09276 
 H                    -1.71062  -1.25492   1.82072 
 H                    -1.65496   0.00811   0.52913 
 H                     1.15079   0.96111   1.78276 
 H                     1.02652   2.1524   -0.31924 
 H                     0.00716  -0.29782  -1.33431 
 
 ITRead=  0  0  0  0  0  0  0  0  0  0  0
 MicOpt= -1 -1 -1 -1 -1 -1 -1 -1 -1 -1 -1
 NAtoms=     11 NQM=       11 NQMF=       0 NMMI=      0 NMMIF=      0
                NMic=       0 NMicF=      0.
                    Isotopes and Nuclear Properties:
 (Nuclear quadrupole moments (NQMom) in fm**2, nuclear magnetic moments (NMagM)
  in nuclear magnetons)

  Atom         1           2           3           4           5           6           7           8           9          10
 IAtWgt=          16          16          12          12          12           1           1           1           1           1
 AtmWgt=  15.9949146  15.9949146  12.0000000  12.0000000  12.0000000   1.0078250   1.0078250   1.0078250   1.0078250   1.0078250
 NucSpn=           0           0           0           0           0           1           1           1           1           1
 AtZEff=  -0.0000000  -0.0000000  -0.0000000  -0.0000000  -0.0000000  -0.0000000  -0.0000000  -0.0000000  -0.0000000  -0.0000000
 NQMom=    0.0000000   0.0000000   0.0000000   0.0000000   0.0000000   0.0000000   0.0000000   0.0000000   0.0000000   0.0000000
 NMagM=    0.0000000   0.0000000   0.0000000   0.0000000   0.0000000   2.7928460   2.7928460   2.7928460   2.7928460   2.7928460
 AtZNuc=   8.0000000   8.0000000   6.0000000   6.0000000   6.0000000   1.0000000   1.0000000   1.0000000   1.0000000   1.0000000

  Atom        11
 IAtWgt=           1
 AtmWgt=   1.0078250
 NucSpn=           1
 AtZEff=  -0.0000000
 NQMom=    0.0000000
 NMagM=    2.7928460
 AtZNuc=   1.0000000
 Leave Link  101 at Sun Sep 29 01:50:45 2019, MaxMem=   671088640 cpu:               2.3 elap:               1.2
 (Enter /shared/centos7/gaussian/g16/l103.exe)

 GradGradGradGradGradGradGradGradGradGradGradGradGradGradGradGradGradGrad
 Berny optimization.
 Initialization pass.
                           ----------------------------
                           !    Initial Parameters    !
                           ! (Angstroms and Degrees)  !
 --------------------------                            --------------------------
 ! Name  Definition              Value          Derivative Info.                !
 --------------------------------------------------------------------------------
 ! R1    R(1,3)                  1.4295         calculate D2E/DX2 analytically  !
 ! R2    R(1,4)                  1.3891         calculate D2E/DX2 analytically  !
 ! R3    R(2,5)                  1.3771         calculate D2E/DX2 analytically  !
 ! R4    R(2,11)                 1.0169         calculate D2E/DX2 analytically  !
 ! R5    R(3,6)                  1.128          calculate D2E/DX2 analytically  !
 ! R6    R(3,7)                  1.1272         calculate D2E/DX2 analytically  !
 ! R7    R(3,8)                  1.0902         calculate D2E/DX2 analytically  !
 ! R8    R(4,5)                  1.3119         calculate D2E/DX2 analytically  !
 ! R9    R(4,9)                  1.0883         calculate D2E/DX2 analytically  !
 ! R10   R(5,10)                 1.0691         calculate D2E/DX2 analytically  !
 ! A1    A(3,1,4)              113.0714         calculate D2E/DX2 analytically  !
 ! A2    A(5,2,11)             107.0832         calculate D2E/DX2 analytically  !
 ! A3    A(1,3,6)              109.5993         calculate D2E/DX2 analytically  !
 ! A4    A(1,3,7)              108.4128         calculate D2E/DX2 analytically  !
 ! A5    A(1,3,8)              112.3861         calculate D2E/DX2 analytically  !
 ! A6    A(6,3,7)              108.0618         calculate D2E/DX2 analytically  !
 ! A7    A(6,3,8)              109.1068         calculate D2E/DX2 analytically  !
 ! A8    A(7,3,8)              109.1775         calculate D2E/DX2 analytically  !
 ! A9    A(1,4,5)              126.2696         calculate D2E/DX2 analytically  !
 ! A10   A(1,4,9)              113.4364         calculate D2E/DX2 analytically  !
 ! A11   A(5,4,9)              120.1107         calculate D2E/DX2 analytically  !
 ! A12   A(2,5,4)              126.2712         calculate D2E/DX2 analytically  !
 ! A13   A(2,5,10)             112.0321         calculate D2E/DX2 analytically  !
 ! A14   A(4,5,10)             121.5926         calculate D2E/DX2 analytically  !
 ! D1    D(4,1,3,6)            121.8365         calculate D2E/DX2 analytically  !
 ! D2    D(4,1,3,7)           -120.4272         calculate D2E/DX2 analytically  !
 ! D3    D(4,1,3,8)              0.3404         calculate D2E/DX2 analytically  !
 ! D4    D(3,1,4,5)            -60.699          calculate D2E/DX2 analytically  !
 ! D5    D(3,1,4,9)            124.257          calculate D2E/DX2 analytically  !
 ! D6    D(11,2,5,4)           -21.6009         calculate D2E/DX2 analytically  !
 ! D7    D(11,2,5,10)          162.0861         calculate D2E/DX2 analytically  !
 ! D8    D(1,4,5,2)              4.5153         calculate D2E/DX2 analytically  !
 ! D9    D(1,4,5,10)          -179.4976         calculate D2E/DX2 analytically  !
 ! D10   D(9,4,5,2)            179.258          calculate D2E/DX2 analytically  !
 ! D11   D(9,4,5,10)            -4.7549         calculate D2E/DX2 analytically  !
 --------------------------------------------------------------------------------
 Trust Radius=3.00D-01 FncErr=1.00D-07 GrdErr=1.00D-06 EigMax=2.50D+02 EigMin=1.00D-04
 Number of steps in this run=    100 maximum allowed number of steps=    100.
 GradGradGradGradGradGradGradGradGradGradGradGradGradGradGradGradGradGrad

 Leave Link  103 at Sun Sep 29 01:50:45 2019, MaxMem=   671088640 cpu:               1.5 elap:               0.8
 (Enter /shared/centos7/gaussian/g16/l202.exe)
                          Input orientation:                          
 ---------------------------------------------------------------------
 Center     Atomic      Atomic             Coordinates (Angstroms)
 Number     Number       Type             X           Y           Z
 ---------------------------------------------------------------------
      1          8           0        0.197639   -0.771309    1.144957
      2          8           0        0.073058    0.714788   -1.399906
      3          6           0       -1.198128   -0.919576    0.874367
      4          6           0        0.662370    0.517762    0.917131
      5          6           0        0.639578    1.160161   -0.226449
      6          1           0       -1.349226   -1.718760    0.092763
      7          1           0       -1.710619   -1.254921    1.820723
      8          1           0       -1.654958    0.008114    0.529133
      9          1           0        1.150789    0.961110    1.782763
     10          1           0        1.026523    2.152399   -0.319240
     11          1           0        0.007158   -0.297817   -1.334312
 ---------------------------------------------------------------------
                    Distance matrix (angstroms):
                    1          2          3          4          5
     1  O    0.000000
     2  O    2.949632   0.000000
     3  C    1.429464   3.075610   0.000000
     4  C    1.389094   2.398910   2.351430   0.000000
     5  C    2.409697   1.377063   2.985677   1.311858   0.000000
     6  H    2.097037   3.189531   1.128020   3.118995   3.513605
     7  H    2.081343   4.175369   1.127250   3.096766   3.942963
     8  H    2.102107   2.684514   1.090179   2.404224   2.676380
     9  H    2.077635   3.369207   3.143178   1.088314   2.082760
    10  H    3.373276   2.035598   3.976280   2.081648   1.069052
    11  H    2.531255   1.016866   2.591826   2.482633   1.937270
                    6          7          8          9         10
     6  H    0.000000
     7  H    1.825266   0.000000
     8  H    1.807203   1.807363   0.000000
     9  H    4.035823   3.619376   3.217453   0.000000
    10  H    4.560679   4.866335   3.536670   2.419303   0.000000
    11  H    2.428044   3.717667   2.515681   3.550907   2.841309
                   11
    11  H    0.000000
 Stoichiometry    C3H6O2
 Framework group  C1[X(C3H6O2)]
 Deg. of freedom    27
 Full point group                 C1      NOp   1
 Largest Abelian subgroup         C1      NOp   1
 Largest concise Abelian subgroup C1      NOp   1
                         Standard orientation:                         
 ---------------------------------------------------------------------
 Center     Atomic      Atomic             Coordinates (Angstroms)
 Number     Number       Type             X           Y           Z
 ---------------------------------------------------------------------
      1          8           0        1.076942    0.474047   -0.461911
      2          8           0       -1.500554   -0.914960   -0.104830
      3          6           0        1.539728   -0.656000    0.281183
      4          6           0       -0.092454    1.020955    0.050913
      5          6           0       -1.247028    0.409977    0.171884
      6          1           0        1.610624   -1.552973   -0.399144
      7          1           0        2.573657   -0.428395    0.668324
      8          1           0        0.887566   -0.895904    1.121195
      9          1           0       -0.007685    2.079880    0.287387
     10          1           0       -2.104741    0.907434    0.571556
     11          1           0       -0.772002   -1.232333   -0.739261
 ---------------------------------------------------------------------
 Rotational constants (GHZ):           9.3405466           4.0440918           3.0867354
 Leave Link  202 at Sun Sep 29 01:50:47 2019, MaxMem=   671088640 cpu:               3.9 elap:               2.0
 (Enter /shared/centos7/gaussian/g16/l301.exe)
 Standard basis: CC-pVTZ (5D, 7F)
 Ernie: Thresh=  0.10000D-02 Tol=  0.10000D-05 Strict=F.
 Ernie:  15 primitive shells out of 178 were deleted.
 There are   265 symmetry adapted cartesian basis functions of A   symmetry.
 There are   234 symmetry adapted basis functions of A   symmetry.
   234 basis functions,   362 primitive gaussians,   265 cartesian basis functions
    20 alpha electrons       20 beta electrons
       nuclear repulsion energy       179.3312408115 Hartrees.
 IExCor= 4336 DFT=T Ex+Corr=M062X ExCW=0 ScaHFX=  0.540000
 ScaDFX=  1.000000  1.000000  1.000000  1.000000 ScalE2=  1.000000  1.000000
 IRadAn=      5 IRanWt=     -1 IRanGd=            0 ICorTp=0 IEmpDi=  4
 NAtoms=   11 NActive=   11 NUniq=   11 SFac= 1.00D+00 NAtFMM=   60 NAOKFM=F Big=F
 Integral buffers will be    131072 words long.
 Raffenetti 2 integral format.
 Two-electron integral symmetry is turned on.
 Leave Link  301 at Sun Sep 29 01:50:49 2019, MaxMem=   671088640 cpu:               2.5 elap:               1.3
 (Enter /shared/centos7/gaussian/g16/l302.exe)
 NPDir=0 NMtPBC=     1 NCelOv=     1 NCel=       1 NClECP=     1 NCelD=      1
         NCelK=      1 NCelE2=     1 NClLst=     1 CellRange=     0.0.
 One-electron integrals computed using PRISM.
 One-electron integral symmetry used in STVInt
 NBasis=   234 RedAO= T EigKep=  3.73D-04  NBF=   234
 NBsUse=   234 1.00D-06 EigRej= -1.00D+00 NBFU=   234
 Precomputing XC quadrature grid using
 IXCGrd= 4 IRadAn=           5 IRanWt=          -1 IRanGd=           0 AccXCQ= 0.00D+00.
 Generated NRdTot=       0 NPtTot=           0 NUsed=           0 NTot=          32
 NSgBfM=   265   265   265   265   265 MxSgAt=    11 MxSgA2=    11.
 Leave Link  302 at Sun Sep 29 01:51:37 2019, MaxMem=   671088640 cpu:              95.7 elap:              47.9
 (Enter /shared/centos7/gaussian/g16/l303.exe)
 DipDrv:  MaxL=1.
 Leave Link  303 at Sun Sep 29 01:51:42 2019, MaxMem=   671088640 cpu:              10.7 elap:               5.4
 (Enter /shared/centos7/gaussian/g16/l401.exe)
 ExpMin= 1.03D-01 ExpMax= 1.53D+04 ExpMxC= 5.22D+02 IAcc=3 IRadAn=         5 AccDes= 0.00D+00
 Harris functional with IExCor= 1009 and IRadAn=       5 diagonalized for initial guess.
 HarFok:  IExCor= 1009 AccDes= 0.00D+00 IRadAn=         5 IDoV= 1 UseB2=F ITyADJ=14
 ICtDFT=  3500011 ScaDFX=  1.000000  1.000000  1.000000  1.000000
 FoFCou: FMM=F IPFlag=           0 FMFlag=      100000 FMFlg1=           0
         NFxFlg=           0 DoJE=T BraDBF=F KetDBF=T FulRan=T
         wScrn=  0.000000 ICntrl=       500 IOpCl=  0 I1Cent=   200000004 NGrid=           0
         NMat0=    1 NMatS0=      1 NMatT0=    0 NMatD0=    1 NMtDS0=    0 NMtDT0=    0
 Petite list used in FoFCou.
 Harris En= -268.195321474659    
 JPrj=0 DoOrth=F DoCkMO=F.
 Leave Link  401 at Sun Sep 29 01:52:04 2019, MaxMem=   671088640 cpu:              43.7 elap:              21.9
 (Enter /shared/centos7/gaussian/g16/l502.exe)
 Keep R1 ints in memory in canonical form, NReq=399924305.
 FoFCou: FMM=F IPFlag=           0 FMFlag=           0 FMFlg1=           0
         NFxFlg=           0 DoJE=F BraDBF=F KetDBF=F FulRan=T
         wScrn=  0.000000 ICntrl=       600 IOpCl=  0 I1Cent=           0 NGrid=           0
         NMat0=    1 NMatS0=  27495 NMatT0=    0 NMatD0=    1 NMtDS0=    0 NMtDT0=    0
 Symmetry not used in FoFCou.
 Two-electron integral symmetry not used.
 Closed shell SCF:
 Using DIIS extrapolation, IDIIS=  1040.
 NGot=   671088640 LenX=   292939207 LenY=   292868541
 Requested convergence on RMS density matrix=1.00D-08 within 900 cycles.
 Requested convergence on MAX density matrix=1.00D-06.
 Requested convergence on             energy=1.00D-06.
 No special actions if energy rises.
 Integral accuracy reduced to 1.0D-05 until final iterations.

 Cycle   1  Pass 0  IDiag  1:
 E= -268.190162639997    
 DIIS: error= 1.85D-02 at cycle   1 NSaved=   1.
 NSaved= 1 IEnMin= 1 EnMin= -268.190162639997     IErMin= 1 ErrMin= 1.85D-02
 ErrMax= 1.85D-02  0.00D+00 EMaxC= 1.00D-01 BMatC= 1.69D-01 BMatP= 1.69D-01
 IDIUse=3 WtCom= 8.15D-01 WtEn= 1.85D-01
 Coeff-Com:  0.100D+01
 Coeff-En:   0.100D+01
 Coeff:      0.100D+01
 Gap=     0.365 Goal=   None    Shift=    0.000
 GapD=    0.365 DampG=1.000 DampE=0.500 DampFc=0.5000 IDamp=-1.
 Damping current iteration by 5.00D-01
 RMSDP=2.16D-03 MaxDP=8.48D-02              OVMax= 1.11D-01

 Cycle   2  Pass 0  IDiag  1:
 E= -268.253827650173     Delta-E=       -0.063665010175 Rises=F Damp=T
 DIIS: error= 5.16D-03 at cycle   2 NSaved=   2.
 NSaved= 2 IEnMin= 2 EnMin= -268.253827650173     IErMin= 2 ErrMin= 5.16D-03
 ErrMax= 5.16D-03  0.00D+00 EMaxC= 1.00D-01 BMatC= 1.65D-02 BMatP= 1.69D-01
 IDIUse=3 WtCom= 9.48D-01 WtEn= 5.16D-02
 Coeff-Com: -0.190D+00 0.119D+01
 Coeff-En:   0.000D+00 0.100D+01
 Coeff:     -0.180D+00 0.118D+01
 Gap=     0.340 Goal=   None    Shift=    0.000
 RMSDP=4.24D-04 MaxDP=1.07D-02 DE=-6.37D-02 OVMax= 4.97D-02

 Cycle   3  Pass 0  IDiag  1:
 E= -268.308678827356     Delta-E=       -0.054851177183 Rises=F Damp=F
 DIIS: error= 2.62D-03 at cycle   3 NSaved=   3.
 NSaved= 3 IEnMin= 3 EnMin= -268.308678827356     IErMin= 3 ErrMin= 2.62D-03
 ErrMax= 2.62D-03  0.00D+00 EMaxC= 1.00D-01 BMatC= 3.73D-03 BMatP= 1.65D-02
 IDIUse=3 WtCom= 9.74D-01 WtEn= 2.62D-02
 Coeff-Com: -0.122D+00 0.402D+00 0.720D+00
 Coeff-En:   0.000D+00 0.000D+00 0.100D+01
 Coeff:     -0.118D+00 0.391D+00 0.727D+00
 Gap=     0.342 Goal=   None    Shift=    0.000
 RMSDP=2.02D-04 MaxDP=7.16D-03 DE=-5.49D-02 OVMax= 1.33D-02

 Cycle   4  Pass 0  IDiag  1:
 E= -268.310552347163     Delta-E=       -0.001873519807 Rises=F Damp=F
 DIIS: error= 1.21D-03 at cycle   4 NSaved=   4.
 NSaved= 4 IEnMin= 4 EnMin= -268.310552347163     IErMin= 4 ErrMin= 1.21D-03
 ErrMax= 1.21D-03  0.00D+00 EMaxC= 1.00D-01 BMatC= 7.76D-04 BMatP= 3.73D-03
 IDIUse=3 WtCom= 9.88D-01 WtEn= 1.21D-02
 Coeff-Com: -0.369D-01 0.928D-01 0.359D+00 0.585D+00
 Coeff-En:   0.000D+00 0.000D+00 0.152D+00 0.848D+00
 Coeff:     -0.365D-01 0.917D-01 0.357D+00 0.588D+00
 Gap=     0.337 Goal=   None    Shift=    0.000
 RMSDP=6.82D-05 MaxDP=1.89D-03 DE=-1.87D-03 OVMax= 6.56D-03

 Cycle   5  Pass 0  IDiag  1:
 E= -268.311122057668     Delta-E=       -0.000569710506 Rises=F Damp=F
 DIIS: error= 2.13D-04 at cycle   5 NSaved=   5.
 NSaved= 5 IEnMin= 5 EnMin= -268.311122057668     IErMin= 5 ErrMin= 2.13D-04
 ErrMax= 2.13D-04  0.00D+00 EMaxC= 1.00D-01 BMatC= 1.97D-05 BMatP= 7.76D-04
 IDIUse=3 WtCom= 9.98D-01 WtEn= 2.13D-03
 Coeff-Com: -0.703D-02 0.136D-01 0.945D-01 0.224D+00 0.675D+00
 Coeff-En:   0.000D+00 0.000D+00 0.000D+00 0.000D+00 0.100D+01
 Coeff:     -0.701D-02 0.135D-01 0.943D-01 0.223D+00 0.676D+00
 Gap=     0.337 Goal=   None    Shift=    0.000
 RMSDP=1.43D-05 MaxDP=4.53D-04 DE=-5.70D-04 OVMax= 1.41D-03

 Cycle   6  Pass 0  IDiag  1:
 E= -268.311137621310     Delta-E=       -0.000015563642 Rises=F Damp=F
 DIIS: error= 5.26D-05 at cycle   6 NSaved=   6.
 NSaved= 6 IEnMin= 6 EnMin= -268.311137621310     IErMin= 6 ErrMin= 5.26D-05
 ErrMax= 5.26D-05  0.00D+00 EMaxC= 1.00D-01 BMatC= 1.08D-06 BMatP= 1.97D-05
 IDIUse=1 WtCom= 1.00D+00 WtEn= 0.00D+00
 Coeff-Com: -0.116D-02 0.146D-02 0.220D-01 0.676D-01 0.253D+00 0.657D+00
 Coeff:     -0.116D-02 0.146D-02 0.220D-01 0.676D-01 0.253D+00 0.657D+00
 Gap=     0.338 Goal=   None    Shift=    0.000
 RMSDP=4.08D-06 MaxDP=1.36D-04 DE=-1.56D-05 OVMax= 5.83D-04

 Initial convergence to 1.0D-05 achieved.  Increase integral accuracy.
 Cycle   7  Pass 1  IDiag  1:
 E= -268.311166041107     Delta-E=       -0.000028419797 Rises=F Damp=F
 DIIS: error= 2.59D-05 at cycle   1 NSaved=   1.
 NSaved= 1 IEnMin= 1 EnMin= -268.311166041107     IErMin= 1 ErrMin= 2.59D-05
 ErrMax= 2.59D-05  0.00D+00 EMaxC= 1.00D-01 BMatC= 3.96D-07 BMatP= 3.96D-07
 IDIUse=1 WtCom= 1.00D+00 WtEn= 0.00D+00
 Coeff-Com:  0.100D+01
 Coeff:      0.100D+01
 Gap=     0.338 Goal=   None    Shift=    0.000
 RMSDP=4.08D-06 MaxDP=1.36D-04 DE=-2.84D-05 OVMax= 4.34D-04

 Cycle   8  Pass 1  IDiag  1:
 E= -268.311166007060     Delta-E=        0.000000034048 Rises=F Damp=F
 DIIS: error= 3.19D-05 at cycle   2 NSaved=   2.
 NSaved= 2 IEnMin= 1 EnMin= -268.311166041107     IErMin= 1 ErrMin= 2.59D-05
 ErrMax= 3.19D-05  0.00D+00 EMaxC= 1.00D-01 BMatC= 4.38D-07 BMatP= 3.96D-07
 IDIUse=1 WtCom= 1.00D+00 WtEn= 0.00D+00
 Coeff-Com:  0.515D+00 0.485D+00
 Coeff:      0.515D+00 0.485D+00
 Gap=     0.338 Goal=   None    Shift=    0.000
 RMSDP=2.12D-06 MaxDP=6.69D-05 DE= 3.40D-08 OVMax= 2.99D-04

 Cycle   9  Pass 1  IDiag  1:
 E= -268.311166363877     Delta-E=       -0.000000356818 Rises=F Damp=F
 DIIS: error= 5.23D-06 at cycle   3 NSaved=   3.
 NSaved= 3 IEnMin= 3 EnMin= -268.311166363877     IErMin= 3 ErrMin= 5.23D-06
 ErrMax= 5.23D-06  0.00D+00 EMaxC= 1.00D-01 BMatC= 1.59D-08 BMatP= 3.96D-07
 IDIUse=1 WtCom= 1.00D+00 WtEn= 0.00D+00
 Coeff-Com: -0.273D-01 0.140D+00 0.887D+00
 Coeff:     -0.273D-01 0.140D+00 0.887D+00
 Gap=     0.338 Goal=   None    Shift=    0.000
 RMSDP=4.97D-07 MaxDP=1.88D-05 DE=-3.57D-07 OVMax= 3.98D-05

 Cycle  10  Pass 1  IDiag  1:
 E= -268.311166377319     Delta-E=       -0.000000013442 Rises=F Damp=F
 DIIS: error= 1.60D-06 at cycle   4 NSaved=   4.
 NSaved= 4 IEnMin= 4 EnMin= -268.311166377319     IErMin= 4 ErrMin= 1.60D-06
 ErrMax= 1.60D-06  0.00D+00 EMaxC= 1.00D-01 BMatC= 1.05D-09 BMatP= 1.59D-08
 IDIUse=1 WtCom= 1.00D+00 WtEn= 0.00D+00
 Coeff-Com: -0.233D-01 0.497D-01 0.382D+00 0.591D+00
 Coeff:     -0.233D-01 0.497D-01 0.382D+00 0.591D+00
 Gap=     0.338 Goal=   None    Shift=    0.000
 RMSDP=9.06D-08 MaxDP=2.71D-06 DE=-1.34D-08 OVMax= 7.34D-06

 Cycle  11  Pass 1  IDiag  1:
 E= -268.311166378105     Delta-E=       -0.000000000786 Rises=F Damp=F
 DIIS: error= 4.00D-07 at cycle   5 NSaved=   5.
 NSaved= 5 IEnMin= 5 EnMin= -268.311166378105     IErMin= 5 ErrMin= 4.00D-07
 ErrMax= 4.00D-07  0.00D+00 EMaxC= 1.00D-01 BMatC= 8.09D-11 BMatP= 1.05D-09
 IDIUse=1 WtCom= 1.00D+00 WtEn= 0.00D+00
 Coeff-Com: -0.284D-02-0.888D-02-0.310D-01 0.166D+00 0.876D+00
 Coeff:     -0.284D-02-0.888D-02-0.310D-01 0.166D+00 0.876D+00
 Gap=     0.338 Goal=   None    Shift=    0.000
 RMSDP=4.50D-08 MaxDP=9.16D-07 DE=-7.86D-10 OVMax= 3.61D-06

 Cycle  12  Pass 1  IDiag  1:
 E= -268.311166378193     Delta-E=       -0.000000000088 Rises=F Damp=F
 DIIS: error= 1.42D-07 at cycle   6 NSaved=   6.
 NSaved= 6 IEnMin= 6 EnMin= -268.311166378193     IErMin= 6 ErrMin= 1.42D-07
 ErrMax= 1.42D-07  0.00D+00 EMaxC= 1.00D-01 BMatC= 7.49D-12 BMatP= 8.09D-11
 IDIUse=1 WtCom= 1.00D+00 WtEn= 0.00D+00
 Coeff-Com:  0.152D-02-0.730D-02-0.475D-01-0.770D-02 0.277D+00 0.784D+00
 Coeff:      0.152D-02-0.730D-02-0.475D-01-0.770D-02 0.277D+00 0.784D+00
 Gap=     0.338 Goal=   None    Shift=    0.000
 RMSDP=1.65D-08 MaxDP=4.89D-07 DE=-8.78D-11 OVMax= 1.31D-06

 Cycle  13  Pass 1  IDiag  1:
 E= -268.311166378206     Delta-E=       -0.000000000013 Rises=F Damp=F
 DIIS: error= 3.57D-08 at cycle   7 NSaved=   7.
 NSaved= 7 IEnMin= 7 EnMin= -268.311166378206     IErMin= 7 ErrMin= 3.57D-08
 ErrMax= 3.57D-08  0.00D+00 EMaxC= 1.00D-01 BMatC= 1.04D-12 BMatP= 7.49D-12
 IDIUse=1 WtCom= 1.00D+00 WtEn= 0.00D+00
 Coeff-Com:  0.839D-03-0.256D-02-0.192D-01-0.150D-01 0.594D-01 0.334D+00
 Coeff-Com:  0.642D+00
 Coeff:      0.839D-03-0.256D-02-0.192D-01-0.150D-01 0.594D-01 0.334D+00
 Coeff:      0.642D+00
 Gap=     0.338 Goal=   None    Shift=    0.000
 RMSDP=3.89D-09 MaxDP=1.35D-07 DE=-1.27D-11 OVMax= 3.18D-07

 SCF Done:  E(RM062X) =  -268.311166378     A.U. after   13 cycles
            NFock= 13  Conv=0.39D-08     -V/T= 2.0061
 KE= 2.666869153511D+02 PE=-9.868793270420D+02 EE= 2.725500045013D+02
 Leave Link  502 at Sun Sep 29 01:56:57 2019, MaxMem=   671088640 cpu:             578.4 elap:             292.9
 (Enter /shared/centos7/gaussian/g16/l801.exe)
 DoSCS=F DFT=T ScalE2(SS,OS)=  1.000000  1.000000
 Range of M.O.s used for correlation:     1   234
 NBasis=   234 NAE=    20 NBE=    20 NFC=     0 NFV=     0
 NROrb=    234 NOA=    20 NOB=    20 NVA=   214 NVB=   214

 **** Warning!!: The largest alpha MO coefficient is  0.11499141D+02

 Leave Link  801 at Sun Sep 29 01:56:58 2019, MaxMem=   671088640 cpu:               1.6 elap:               0.8
 (Enter /shared/centos7/gaussian/g16/l1101.exe)
 Using compressed storage, NAtomX=    11.
 Will process     12 centers per pass.
 Leave Link 1101 at Sun Sep 29 01:57:20 2019, MaxMem=   671088640 cpu:              44.3 elap:              22.2
 (Enter /shared/centos7/gaussian/g16/l1102.exe)
 Symmetrizing basis deriv contribution to polar:
 IMax=3 JMax=2 DiffMx= 0.00D+00
 Leave Link 1102 at Sun Sep 29 01:57:23 2019, MaxMem=   671088640 cpu:               5.0 elap:               2.5
 (Enter /shared/centos7/gaussian/g16/l1110.exe)
 Forming Gx(P) for the SCF density, NAtomX=    11.
 Integral derivatives from FoFJK, PRISM(SPDF).
 Do as many integral derivatives as possible in FoFJK.
 G2DrvN: MDV=     671087712.
 G2DrvN: will do    12 centers at a time, making    1 passes.
 Calling FoFCou, ICntrl=  3107 FMM=F I1Cent=   0 AccDes= 0.00D+00.
 FoFJK:  IHMeth= 1 ICntrl=    3107 DoSepK=F KAlg= 0 I1Cent=           0 FoldK=F
 IRaf=         0 NMat=       1 IRICut=       1 DoRegI=T DoRafI=F ISym2E= 0 IDoP0=0 IntGTp=1.
 FoFCou: FMM=F IPFlag=           0 FMFlag=      100000 FMFlg1=           0
         NFxFlg=           0 DoJE=F BraDBF=F KetDBF=F FulRan=T
         wScrn=  0.000000 ICntrl=      3107 IOpCl=  0 I1Cent=           0 NGrid=           0
         NMat0=    1 NMatS0=      1 NMatT0=    0 NMatD0=    1 NMtDS0=    0 NMtDT0=    0
 Symmetry not used in FoFCou.
 End of G2Drv F.D. properties file   721 does not exist.
 End of G2Drv F.D. properties file   722 does not exist.
 End of G2Drv F.D. properties file   788 does not exist.
 Leave Link 1110 at Sun Sep 29 02:03:29 2019, MaxMem=   671088640 cpu:             731.9 elap:             366.0
 (Enter /shared/centos7/gaussian/g16/l1002.exe)
 Minotr:  Closed shell wavefunction.
          IDoAtm=11111111111
          Direct CPHF calculation.
          Differentiating once with respect to nuclear coordinates.
          Requested convergence is 1.0D-08 RMS, and 1.0D-07 maximum.
          Secondary convergence is 1.0D-12 RMS, and 1.0D-12 maximum.
          NewPWx=T KeepS1=F KeepF1=F KeepIn=T MapXYZ=F SortEE=F KeepMc=T.
         3265 words used for storage of precomputed grid.
 Keep R1 ints in memory in canonical form, NReq=399865264.
 FoFCou: FMM=F IPFlag=           0 FMFlag=           0 FMFlg1=           0
         NFxFlg=           0 DoJE=F BraDBF=F KetDBF=F FulRan=T
         wScrn=  0.000000 ICntrl=       600 IOpCl=  0 I1Cent=           0 NGrid=           0
         NMat0=    1 NMatS0=  27495 NMatT0=    0 NMatD0=    1 NMtDS0=    0 NMtDT0=    0
 Symmetry not used in FoFCou.
 Two-electron integral symmetry not used.
          MDV=     671088640 using IRadAn=       1.
          Solving linear equations simultaneously, MaxMat=       0.
          There are    36 degrees of freedom in the 1st order CPHF.  IDoFFX=6 NUNeed=     0.
     30 vectors produced by pass  0 Test12= 1.19D-14 2.78D-09 XBig12= 5.78D-02 6.87D-02.
 AX will form    30 AO Fock derivatives at one time.
     30 vectors produced by pass  1 Test12= 1.19D-14 2.78D-09 XBig12= 1.00D-02 2.70D-02.
     30 vectors produced by pass  2 Test12= 1.19D-14 2.78D-09 XBig12= 3.88D-04 4.81D-03.
     30 vectors produced by pass  3 Test12= 1.19D-14 2.78D-09 XBig12= 4.04D-06 2.78D-04.
     30 vectors produced by pass  4 Test12= 1.19D-14 2.78D-09 XBig12= 3.04D-08 2.25D-05.
     30 vectors produced by pass  5 Test12= 1.19D-14 2.78D-09 XBig12= 1.67D-10 1.49D-06.
     18 vectors produced by pass  6 Test12= 1.19D-14 2.78D-09 XBig12= 7.16D-13 1.05D-07.
      3 vectors produced by pass  7 Test12= 1.19D-14 2.78D-09 XBig12= 2.59D-15 6.61D-09.
 InvSVY:  IOpt=1 It=  1 EMax= 9.99D-16
 Solved reduced A of dimension   201 with    30 vectors.
 End of Minotr F.D. properties file   721 does not exist.
 End of Minotr F.D. properties file   722 does not exist.
 End of Minotr F.D. properties file   788 does not exist.
 Leave Link 1002 at Sun Sep 29 02:12:17 2019, MaxMem=   671088640 cpu:            1057.6 elap:             528.9
 (Enter /shared/centos7/gaussian/g16/l601.exe)
 Copying SCF densities to generalized density rwf, IOpCl= 0 IROHF=0.

 **********************************************************************

            Population analysis using the SCF density.

 **********************************************************************

 Orbital symmetries:
       Occupied  (A) (A) (A) (A) (A) (A) (A) (A) (A) (A) (A) (A)
                 (A) (A) (A) (A) (A) (A) (A) (A)
       Virtual   (A) (A) (A) (A) (A) (A) (A) (A) (A) (A) (A) (A)
                 (A) (A) (A) (A) (A) (A) (A) (A) (A) (A) (A) (A)
                 (A) (A) (A) (A) (A) (A) (A) (A) (A) (A) (A) (A)
                 (A) (A) (A) (A) (A) (A) (A) (A) (A) (A) (A) (A)
                 (A) (A) (A) (A) (A) (A) (A) (A) (A) (A) (A) (A)
                 (A) (A) (A) (A) (A) (A) (A) (A) (A) (A) (A) (A)
                 (A) (A) (A) (A) (A) (A) (A) (A) (A) (A) (A) (A)
                 (A) (A) (A) (A) (A) (A) (A) (A) (A) (A) (A) (A)
                 (A) (A) (A) (A) (A) (A) (A) (A) (A) (A) (A) (A)
                 (A) (A) (A) (A) (A) (A) (A) (A) (A) (A) (A) (A)
                 (A) (A) (A) (A) (A) (A) (A) (A) (A) (A) (A) (A)
                 (A) (A) (A) (A) (A) (A) (A) (A) (A) (A) (A) (A)
                 (A) (A) (A) (A) (A) (A) (A) (A) (A) (A) (A) (A)
                 (A) (A) (A) (A) (A) (A) (A) (A) (A) (A) (A) (A)
                 (A) (A) (A) (A) (A) (A) (A) (A) (A) (A) (A) (A)
                 (A) (A) (A) (A) (A) (A) (A) (A) (A) (A) (A) (A)
                 (A) (A) (A) (A) (A) (A) (A) (A) (A) (A) (A) (A)
                 (A) (A) (A) (A) (A) (A) (A) (A) (A) (A)
 The electronic state is 1-A.
 Alpha  occ. eigenvalues --  -19.65682 -19.64865 -10.59713 -10.58875 -10.58022
 Alpha  occ. eigenvalues --   -1.18405  -1.16000  -0.85919  -0.78375  -0.68166
 Alpha  occ. eigenvalues --   -0.60284  -0.58874  -0.53813  -0.51492  -0.49523
 Alpha  occ. eigenvalues --   -0.46580  -0.45112  -0.42239  -0.36342  -0.28713
 Alpha virt. eigenvalues --    0.05046   0.07076   0.09485   0.11198   0.12744
 Alpha virt. eigenvalues --    0.13207   0.14485   0.15638   0.21453   0.27320
 Alpha virt. eigenvalues --    0.29948   0.31659   0.32929   0.34396   0.36341
 Alpha virt. eigenvalues --    0.37759   0.39215   0.41576   0.44436   0.44966
 Alpha virt. eigenvalues --    0.47469   0.47631   0.48541   0.48816   0.52158
 Alpha virt. eigenvalues --    0.54564   0.55709   0.57202   0.58592   0.60703
 Alpha virt. eigenvalues --    0.66697   0.68864   0.70479   0.72307   0.75106
 Alpha virt. eigenvalues --    0.76964   0.80142   0.83514   0.84163   0.89819
 Alpha virt. eigenvalues --    0.93101   0.95055   0.98134   1.01739   1.03649
 Alpha virt. eigenvalues --    1.04480   1.05703   1.07920   1.11153   1.12419
 Alpha virt. eigenvalues --    1.13135   1.14859   1.18756   1.21611   1.24102
 Alpha virt. eigenvalues --    1.26377   1.28476   1.30835   1.32684   1.34420
 Alpha virt. eigenvalues --    1.37963   1.40011   1.40795   1.42178   1.49296
 Alpha virt. eigenvalues --    1.50998   1.52490   1.54551   1.58375   1.84403
 Alpha virt. eigenvalues --    1.87398   1.92832   1.96577   2.01695   2.03470
 Alpha virt. eigenvalues --    2.06709   2.09509   2.10679   2.16360   2.16537
 Alpha virt. eigenvalues --    2.19430   2.24974   2.25984   2.28371   2.34979
 Alpha virt. eigenvalues --    2.36259   2.44361   2.50741   2.53102   2.58937
 Alpha virt. eigenvalues --    2.61946   2.65421   2.72540   2.73012   2.73550
 Alpha virt. eigenvalues --    2.79142   2.80876   2.81577   2.85526   2.88628
 Alpha virt. eigenvalues --    2.90352   2.93024   2.93649   2.95711   2.99234
 Alpha virt. eigenvalues --    3.01037   3.02348   3.03383   3.05886   3.07663
 Alpha virt. eigenvalues --    3.11262   3.14445   3.17451   3.19082   3.22179
 Alpha virt. eigenvalues --    3.23221   3.25044   3.27238   3.28899   3.30095
 Alpha virt. eigenvalues --    3.31709   3.33757   3.34617   3.39876   3.41932
 Alpha virt. eigenvalues --    3.43082   3.46119   3.49466   3.52875   3.57823
 Alpha virt. eigenvalues --    3.58511   3.62128   3.65910   3.68110   3.69556
 Alpha virt. eigenvalues --    3.73126   3.74501   3.75401   3.79260   3.81000
 Alpha virt. eigenvalues --    3.83027   3.85436   3.88700   3.90606   3.91974
 Alpha virt. eigenvalues --    3.97046   4.00053   4.03106   4.05680   4.07734
 Alpha virt. eigenvalues --    4.11106   4.13084   4.14953   4.19901   4.24018
 Alpha virt. eigenvalues --    4.28149   4.33331   4.36933   4.39625   4.45584
 Alpha virt. eigenvalues --    4.49856   4.56432   4.57726   4.67371   4.70388
 Alpha virt. eigenvalues --    4.70835   4.77369   4.80874   4.81753   4.89822
 Alpha virt. eigenvalues --    4.91244   4.94322   4.98101   4.99515   5.02221
 Alpha virt. eigenvalues --    5.04453   5.07101   5.15589   5.17730   5.28125
 Alpha virt. eigenvalues --    5.36602   5.40143   5.48545   5.52386   5.56511
 Alpha virt. eigenvalues --    5.68053   5.71795   5.74378   5.78860   5.87960
 Alpha virt. eigenvalues --    5.94846   6.13600   6.18879   6.26849   6.34576
 Alpha virt. eigenvalues --    6.35211   6.50427   6.60160   6.69192   6.71556
 Alpha virt. eigenvalues --    6.74738   6.75979   6.80290   6.98036   7.00835
 Alpha virt. eigenvalues --    7.12365   7.19685   7.25067   7.30350   9.93614
 Alpha virt. eigenvalues --   10.89017  11.82212  13.00378  13.98917
          Condensed to atoms (all electrons):
               1          2          3          4          5          6
     1  O    7.885163   0.000331   0.282837   0.344292  -0.075850  -0.041449
     2  O    0.000331   7.800145   0.009159  -0.076892   0.339026  -0.001477
     3  C    0.282837   0.009159   4.797899  -0.105593  -0.004612   0.398365
     4  C    0.344292  -0.076892  -0.105593   5.083304   0.467471  -0.005824
     5  C   -0.075850   0.339026  -0.004612   0.467471   5.010381   0.007980
     6  H   -0.041449  -0.001477   0.398365  -0.005824   0.007980   0.648807
     7  H   -0.036657   0.000533   0.398547   0.005474  -0.002441  -0.041185
     8  H   -0.041863   0.000827   0.388845  -0.002022   0.002740  -0.051950
     9  H   -0.047723   0.004998   0.003307   0.424998  -0.087799  -0.001331
    10  H    0.003995  -0.036822   0.000516  -0.065229   0.412894   0.000015
    11  H    0.010392   0.325213  -0.002495  -0.004759  -0.056277  -0.002409
               7          8          9         10         11
     1  O   -0.036657  -0.041863  -0.047723   0.003995   0.010392
     2  O    0.000533   0.000827   0.004998  -0.036822   0.325213
     3  C    0.398547   0.388845   0.003307   0.000516  -0.002495
     4  C    0.005474  -0.002022   0.424998  -0.065229  -0.004759
     5  C   -0.002441   0.002740  -0.087799   0.412894  -0.056277
     6  H   -0.041185  -0.051950  -0.001331   0.000015  -0.002409
     7  H    0.596140  -0.030422   0.001259   0.000069   0.000881
     8  H   -0.030422   0.606892   0.001709  -0.001046  -0.003019
     9  H    0.001259   0.001709   0.574812  -0.005363   0.000991
    10  H    0.000069  -0.001046  -0.005363   0.529274   0.006126
    11  H    0.000881  -0.003019   0.000991   0.006126   0.444622
 Mulliken charges:
               1
     1  O   -0.283469
     2  O   -0.365041
     3  C   -0.166775
     4  C   -0.065219
     5  C   -0.013512
     6  H    0.090457
     7  H    0.107803
     8  H    0.129309
     9  H    0.130142
    10  H    0.155571
    11  H    0.280735
 Sum of Mulliken charges =  -0.00000
 Mulliken charges with hydrogens summed into heavy atoms:
               1
     1  O   -0.283469
     2  O   -0.084306
     3  C    0.160794
     4  C    0.064922
     5  C    0.142059
 APT charges:
               1
     1  O   -0.177733
     2  O   -0.348032
     3  C   -0.895315
     4  C   -0.450929
     5  C   -0.386570
     6  H    0.314927
     7  H    0.451707
     8  H    0.231348
     9  H    0.427090
    10  H    0.484081
    11  H    0.349425
 Sum of APT charges =  -0.00000
 APT charges with hydrogens summed into heavy atoms:
               1
     1  O   -0.177733
     2  O    0.001393
     3  C    0.102668
     4  C   -0.023839
     5  C    0.097511
 Electronic spatial extent (au):  <R**2>=            423.6977
 Charge=             -0.0000 electrons
 Dipole moment (field-independent basis, Debye):
    X=              0.6746    Y=             -0.3811    Z=              0.5290  Tot=              0.9382
 Quadrupole moment (field-independent basis, Debye-Ang):
   XX=            -31.5458   YY=            -28.7157   ZZ=            -31.1507
   XY=             -4.0459   XZ=              1.0002   YZ=              2.4343
 Traceless Quadrupole moment (field-independent basis, Debye-Ang):
   XX=             -1.0750   YY=              1.7550   ZZ=             -0.6800
   XY=             -4.0459   XZ=              1.0002   YZ=              2.4343
 Octapole moment (field-independent basis, Debye-Ang**2):
  XXX=              3.0241  YYY=             -0.6172  ZZZ=             -3.1297  XYY=              1.2838
  XXY=              2.5735  XXZ=              4.1365  XZZ=             -1.1057  YZZ=             -3.8581
  YYZ=             -1.8170  XYZ=             -1.1410
 Hexadecapole moment (field-independent basis, Debye-Ang**3):
 XXXX=           -317.7726 YYYY=           -146.5732 ZZZZ=            -54.1185 XXXY=             -8.9670
 XXXZ=             -2.5240 YYYX=              5.5177 YYYZ=              6.9572 ZZZX=             -0.0418
 ZZZY=              0.8245 XXYY=            -85.2588 XXZZ=            -63.8541 YYZZ=            -34.2190
 XXYZ=              3.3666 YYXZ=             -0.4858 ZZXY=              2.4865
 N-N= 1.793312408115D+02 E-N=-9.868793178097D+02  KE= 2.666869153511D+02
  Exact polarizability:   0.000   0.000   0.000   0.000   0.000   0.000
 Approx polarizability:  61.281   4.541  52.610  -2.954   1.982  41.273
 No NMR shielding tensors so no spin-rotation constants.
 Leave Link  601 at Sun Sep 29 02:12:38 2019, MaxMem=   671088640 cpu:              40.2 elap:              20.1
 (Enter /shared/centos7/gaussian/g16/l701.exe)
 SCFChk:  SCF convergence  3.89D-09 required  1.00D-08
 ... and contract with generalized density number  0.
 Compute integral second derivatives.
 Entering OneElI...
 Calculate overlap and kinetic energy integrals
    NBasis = 265  MinDer = 2  MaxDer = 2
 Requested accuracy = 0.1000D-12
 PrmmSu-InSpLW:  IPartL=    0 NPrtUS=   20 NPrtUL=    1 DoSpLW=F IThBeg=    0 IThEnd=   19 NThAct=   20.
 PrsmSu:  NPrtUS=  20 ThrOK=T IAlg=1 NPAlg=1 LenDen=           0 ISkipM=0 DoSpLW=F IThBeg=    0 IThEnd=   19.
 Prism:   IPart=     0 DynPar=F LinDyn=F Incr=           1.
 PRISM was handed    33438037 working-precision words and  3740 shell-pairs
 PRISM was handed    33438037 working-precision words and  3740 shell-pairs
 PRISM was handed    33438037 working-precision words and  3740 shell-pairs
 PRISM was handed    33438037 working-precision words and  3740 shell-pairs
 PRISM was handed    33438037 working-precision words and  3740 shell-pairs
 PRISM was handed    33438037 working-precision words and  3740 shell-pairs
 PRISM was handed    33438037 working-precision words and  3740 shell-pairs
 PRISM was handed    33438037 working-precision words and  3740 shell-pairs
 PRISM was handed    33438037 working-precision words and  3740 shell-pairs
 PRISM was handed    33438037 working-precision words and  3740 shell-pairs
 PRISM was handed    33438037 working-precision words and  3740 shell-pairs
 PRISM was handed    33438037 working-precision words and  3740 shell-pairs
 PRISM was handed    33438037 working-precision words and  3740 shell-pairs
 PRISM was handed    33438037 working-precision words and  3740 shell-pairs
 PRISM was handed    33438037 working-precision words and  3740 shell-pairs
 PRISM was handed    33438037 working-precision words and  3740 shell-pairs
 PRISM was handed    33438037 working-precision words and  3740 shell-pairs
 PRISM was handed    33438037 working-precision words and  3740 shell-pairs
 IPart=  4 NShTot=         205 NBatch=          46 AvBLen=         4.5
 IPart=  0 NShTot=         227 NBatch=          67 AvBLen=         3.4
 IPart=  1 NShTot=         221 NBatch=          62 AvBLen=         3.6
 PRISM was handed    33438037 working-precision words and  3740 shell-pairs
 IPart= 15 NShTot=         170 NBatch=          26 AvBLen=         6.5
 PRISM was handed    33438037 working-precision words and  3740 shell-pairs
 IPart=  2 NShTot=         212 NBatch=          53 AvBLen=         4.0
 IPart= 18 NShTot=         168 NBatch=          26 AvBLen=         6.5
 IPart=  9 NShTot=         182 NBatch=          29 AvBLen=         6.3
 IPart= 17 NShTot=         168 NBatch=          26 AvBLen=         6.5
 IPart= 16 NShTot=         169 NBatch=          26 AvBLen=         6.5
 IPart= 19 NShTot=         165 NBatch=          26 AvBLen=         6.3
 IPart=  6 NShTot=         194 NBatch=          38 AvBLen=         5.1
 IPart=  7 NShTot=         192 NBatch=          36 AvBLen=         5.3
 IPart=  3 NShTot=         209 NBatch=          50 AvBLen=         4.2
 IPart= 14 NShTot=         171 NBatch=          27 AvBLen=         6.3
 IPart=  8 NShTot=         185 NBatch=          30 AvBLen=         6.2
 IPart= 12 NShTot=         176 NBatch=          28 AvBLen=         6.3
 IPart= 13 NShTot=         172 NBatch=          27 AvBLen=         6.4
 IPart=  5 NShTot=         197 NBatch=          41 AvBLen=         4.8
 IPart= 10 NShTot=         179 NBatch=          28 AvBLen=         6.4
 IPart= 11 NShTot=         178 NBatch=          28 AvBLen=         6.4
 PrSmSu:  NxtVal=             21.
 Entering OneElI...
 Calculate potential energy integrals
    NBasis = 265  MinDer = 2  MaxDer = 2
 Requested accuracy = 0.1000D-12
 PrmmSu-InSpLW:  IPartL=    0 NPrtUS=   20 NPrtUL=    1 DoSpLW=F IThBeg=    0 IThEnd=   19 NThAct=   20.
 PrsmSu:  NPrtUS=  20 ThrOK=T IAlg=1 NPAlg=1 LenDen=           0 ISkipM=0 DoSpLW=F IThBeg=    0 IThEnd=   19.
 Prism:   IPart=     0 DynPar=F LinDyn=F Incr=          19.
 PRISM was handed    33454298 working-precision words and  3610 shell-pairs
 PRISM was handed    33454298 working-precision words and  3610 shell-pairs
 PRISM was handed    33454298 working-precision words and  3610 shell-pairs
 PRISM was handed    33454298 working-precision words and  3610 shell-pairs
 PRISM was handed    33454298 working-precision words and  3610 shell-pairs
 PRISM was handed    33454298 working-precision words and  3610 shell-pairs
 PRISM was handed    33454298 working-precision words and  3610 shell-pairs
 PRISM was handed    33454298 working-precision words and  3610 shell-pairs
 PRISM was handed    33454298 working-precision words and  3610 shell-pairs
 PRISM was handed    33454298 working-precision words and  3610 shell-pairs
 PRISM was handed    33454298 working-precision words and  3610 shell-pairs
 PRISM was handed    33454298 working-precision words and  3610 shell-pairs
 PRISM was handed    33454298 working-precision words and  3610 shell-pairs
 PRISM was handed    33454298 working-precision words and  3610 shell-pairs
 PRISM was handed    33454298 working-precision words and  3610 shell-pairs
 PRISM was handed    33454298 working-precision words and  3610 shell-pairs
 PRISM was handed    33454298 working-precision words and  3610 shell-pairs
 PRISM was handed    33454298 working-precision words and  3610 shell-pairs
 PRISM was handed    33454298 working-precision words and  3610 shell-pairs
 PRISM was handed    33454298 working-precision words and  3610 shell-pairs
 IPart= 16 NShTot=        1815 NBatch=         165 AvBLen=        11.0
 IPart=  8 NShTot=        1947 NBatch=         177 AvBLen=        11.0
 IPart=  4 NShTot=        2156 NBatch=         196 AvBLen=        11.0
 IPart= 13 NShTot=        1848 NBatch=         168 AvBLen=        11.0
 IPart=  0 NShTot=        2464 NBatch=         224 AvBLen=        11.0
 IPart= 15 NShTot=        1815 NBatch=         165 AvBLen=        11.0
 IPart=  1 NShTot=        2387 NBatch=         217 AvBLen=        11.0
 IPart= 17 NShTot=        1815 NBatch=         165 AvBLen=        11.0
 IPart=  3 NShTot=        2178 NBatch=         198 AvBLen=        11.0
 IPart= 12 NShTot=        1848 NBatch=         168 AvBLen=        11.0
 IPart= 11 NShTot=        1859 NBatch=         169 AvBLen=        11.0
 IPart=  6 NShTot=        2013 NBatch=         183 AvBLen=        11.0
 IPart=  9 NShTot=        1936 NBatch=         176 AvBLen=        11.0
 IPart= 18 NShTot=        1804 NBatch=         164 AvBLen=        11.0
 IPart=  5 NShTot=        2035 NBatch=         185 AvBLen=        11.0
 IPart= 14 NShTot=        1837 NBatch=         167 AvBLen=        11.0
 IPart=  7 NShTot=        1991 NBatch=         181 AvBLen=        11.0
 IPart=  2 NShTot=        2277 NBatch=         207 AvBLen=        11.0
 IPart= 10 NShTot=        1903 NBatch=         173 AvBLen=        11.0
 IPart= 19 NShTot=        1782 NBatch=         162 AvBLen=        11.0
 PrSmSu:  NxtVal=            381.
 Polarizability after L701:
                1             2             3 
      1  0.000000D+00
      2  0.000000D+00  0.000000D+00
      3  0.000000D+00  0.000000D+00  0.000000D+00
 Dipole Derivatives after L701:
                 1             2             3             4             5 
      1  -0.128836D+00 -0.192266D-03 -0.108709D+00  0.887104D-01  0.190533D+00
      2   0.133649D+00 -0.233310D+00 -0.587539D-01  0.567187D+00 -0.454774D+00
      3  -0.139149D+00  0.664285D-02 -0.171055D+00  0.294411D+00 -0.194872D+00
                 6             7             8             9            10 
      1  -0.181192D+00 -0.101724D+01  0.440550D+00 -0.247274D+00 -0.458128D+00
      2  -0.384996D+00  0.233407D-01 -0.892789D+00  0.238320D-01  0.289605D-01
      3  -0.678033D+00 -0.605387D-01  0.365324D-01 -0.775917D+00  0.228092D+00
                11            12            13            14            15 
      1  -0.201912D+00  0.275622D+00 -0.708648D+00  0.212920D+00  0.215573D+00
      2  -0.723128D+00 -0.375800D+00 -0.343136D-01 -0.527996D+00  0.289753D-01
      3  -0.314732D+00 -0.171530D+00  0.135652D+00 -0.118405D-01  0.769343D-01
                16            17            18            19            20 
      1   0.117924D+00 -0.485460D+00 -0.285675D+00  0.104386D+01  0.199691D+00
      2  -0.373580D-01  0.561740D+00  0.317595D+00 -0.126914D+00  0.128552D+00
      3   0.131516D-01  0.135622D+00  0.265117D+00  0.246042D+00  0.400450D-01
                21            22            23            24            25 
      1   0.359403D+00  0.413316D-02 -0.138397D+00  0.154598D+00  0.184499D+00
      2  -0.651682D-01  0.143177D+00  0.235244D+00 -0.199465D+00  0.465109D-01
      3   0.182714D+00 -0.262474D+00 -0.119917D+00  0.454669D+00  0.253246D-02
                26            27            28            29            30 
      1   0.234678D-01 -0.227344D-02  0.898987D+00 -0.399537D+00 -0.405055D+00
      2   0.100943D+01  0.165951D+00 -0.292843D+00  0.349488D+00  0.195216D+00
      3   0.153229D+00  0.873413D-01 -0.191409D+00  0.135114D+00  0.203767D+00
                31            32            33 
      1  -0.252588D-01  0.158337D+00  0.224981D+00
      2  -0.451398D+00  0.547543D+00  0.352613D+00
      3  -0.266311D+00  0.134175D+00  0.525992D+00
 Hessian after L701:
                1             2             3             4             5 
      1  0.616116D+01
      2  0.411510D+01  0.899366D+01
      3  0.147113D+01  0.165911D+01  0.122939D+02
      4  0.579841D+00  0.523906D+00 -0.150466D+00  0.911427D+01
      5  0.455815D+00 -0.128781D+00 -0.604647D-01 -0.111892D+01  0.503966D+01
      6 -0.203932D+00 -0.108424D+00 -0.388254D+00  0.190625D+01 -0.285063D+01
      7 -0.594346D+01 -0.236461D+01  0.140794D+01  0.551683D+00  0.998095D-01
      8 -0.220580D+01 -0.197851D+01 -0.311894D+01  0.183914D+00 -0.307314D+00
      9  0.128872D+01 -0.309197D+01 -0.528594D+01  0.484394D-01 -0.244289D-02
     10 -0.182699D+01 -0.337308D+01 -0.284278D+01  0.384186D+00  0.251850D+00
     11 -0.358096D+01 -0.669270D+01  0.111162D+01  0.180977D+00 -0.177493D+00
     12 -0.266336D+01  0.105335D+01 -0.693606D+01  0.205059D+00 -0.873840D-01
     13  0.587435D+00  0.387844D+00  0.296098D+00 -0.791117D+01  0.140411D+01
     14  0.491258D+00 -0.115413D+00 -0.125532D+00  0.164094D+01  0.303951D+00
     15  0.194035D+00 -0.736347D-01 -0.161413D-01  0.202314D+00  0.192204D+01
     16  0.185447D-01  0.156468D+00 -0.804162D-01  0.483399D-01 -0.188528D-01
     17  0.134472D+00  0.253715D-01  0.283243D+00 -0.547607D-01 -0.160261D-01
     18 -0.598614D-01  0.280829D+00  0.103909D+00 -0.333661D-01  0.691775D-02
     19  0.186542D+00  0.154679D+00  0.568381D-01  0.706108D-01  0.113149D-01
     20  0.162419D+00 -0.135172D+00  0.131493D+00  0.965318D-02 -0.132424D-01
     21  0.377459D-01  0.125150D+00  0.602874D-01  0.241700D-01  0.868581D-03
     22  0.183479D+00  0.109941D+00 -0.164539D+00  0.355427D-01  0.479546D-02
     23  0.648791D-01 -0.731048D-01  0.101061D+00 -0.138246D-01 -0.552226D-01
     24 -0.122602D+00  0.116538D+00  0.159056D+00  0.104117D+00 -0.278298D-02
     25 -0.990782D-01  0.221194D+00  0.683252D-01 -0.121121D-01  0.661973D-01
     26  0.233724D+00  0.804680D-01  0.120619D-01  0.107883D+00  0.142449D+00
     27  0.790898D-01 -0.142320D-01  0.124129D+00  0.223989D-01  0.278150D-01
     28  0.145688D+00 -0.325721D-01 -0.527634D-01  0.161344D+00 -0.178310D-01
     29 -0.507114D-01 -0.344386D-01  0.130699D-01  0.500229D-02 -0.188409D+00
     30 -0.719783D-01  0.999888D-02 -0.133303D-01 -0.104877D-01 -0.105622D+00
     31  0.684113D-02  0.101125D+00 -0.937030D-02 -0.302254D+01 -0.113829D+01
     32  0.179802D+00  0.586220D-01 -0.672564D-02 -0.146477D+01 -0.459957D+01
     33  0.510063D-01  0.432890D-01 -0.101592D+00 -0.231843D+01  0.115168D+01
                6             7             8             9            10 
      6  0.119122D+02
      7  0.125690D-01  0.129536D+02
      8  0.253930D-02  0.205826D+01  0.107468D+02
      9 -0.337974D+00 -0.128229D+01  0.263855D+01  0.138180D+02
     10  0.263891D+00  0.246286D+00 -0.177103D+00  0.147447D+00  0.746705D+01
     11 -0.186761D-01 -0.140269D+00  0.121091D+00 -0.126578D+00 -0.511931D+00
     12  0.168078D+00  0.144114D+00 -0.142748D+00  0.558267D-01  0.421577D+01
     13  0.701815D-01  0.182269D+00 -0.178861D+00  0.773453D-01 -0.218666D+01
     14  0.180387D+01 -0.168613D+00 -0.113705D+00 -0.324665D-01  0.373620D+01
     15 -0.764634D+01  0.125865D+00 -0.378086D-01 -0.154354D+00 -0.200067D+01
     16 -0.104399D-01 -0.343248D+01 -0.249217D+00 -0.178687D+00 -0.415685D-01
     17  0.974645D-02 -0.131374D+00 -0.169107D+01  0.113974D+01 -0.493681D-02
     18 -0.207432D-01 -0.995604D-01  0.106038D+01 -0.276617D+01 -0.677203D-02
     19  0.771725D-02 -0.146758D+01  0.295987D+00  0.797090D+00  0.131233D+00
     20  0.469614D-03  0.219704D+00 -0.331996D+01  0.962925D-01 -0.487009D-01
     21 -0.164767D-01  0.786661D+00  0.130241D+00 -0.301607D+01  0.499595D-01
     22  0.328236D-01 -0.312871D+01  0.342905D+00 -0.909970D+00 -0.943366D-02
     23 -0.407767D-02  0.493674D+00 -0.352653D+01 -0.640416D+00 -0.546333D-01
     24 -0.206931D-01 -0.114930D+01 -0.562224D+00 -0.224204D+01  0.408671D-01
     25  0.180949D-01 -0.395329D-02 -0.521636D-01  0.418236D-02 -0.382422D+01
     26  0.286675D-01 -0.771950D-01  0.951467D-01  0.234019D-02  0.132092D+00
     27 -0.346891D-01 -0.367636D-02  0.510985D-02 -0.439703D-01  0.216343D-01
     28 -0.920970D-03  0.371848D-01 -0.177464D-01 -0.615743D-02 -0.344104D+00
     29 -0.143536D+00 -0.268855D-01 -0.623794D-02  0.509471D-02  0.336073D-02
     30  0.138303D-01 -0.926616D-02  0.278304D-02 -0.125675D-01  0.662073D-01
     31 -0.209623D+01  0.516106D-02 -0.174681D-03  0.138791D-01  0.423324D-02
     32  0.128005D+01  0.374978D-01 -0.197254D-01  0.118528D-01  0.468829D-01
     33 -0.362897D+01  0.669397D-01  0.221106D-01 -0.147484D-01  0.444448D-01
               11            12            13            14            15 
     11  0.147583D+02
     12 -0.176673D+01  0.218213D+02
     13  0.409514D+01 -0.201695D+01  0.113692D+02
     14 -0.683236D+01  0.354908D+00 -0.436644D+01  0.101817D+02
     15  0.232789D+00 -0.115416D+02  0.235828D+01 -0.232336D+01  0.225490D+02
     16  0.630445D-02 -0.547861D-02  0.768516D-01 -0.851393D-01 -0.171078D-01
     17  0.413276D-01  0.217196D-01 -0.113194D+00  0.324170D-01  0.184858D-01
     18  0.287713D-01  0.372794D-03 -0.322047D-01  0.209875D-01 -0.308367D-01
     19 -0.644685D-01  0.417321D-01  0.263835D-02  0.926559D-02 -0.887649D-02
     20 -0.247920D-01 -0.810033D-02  0.826179D-02 -0.102285D-01  0.146779D-02
     21 -0.214627D-01 -0.354204D-01 -0.281867D-02  0.430684D-02 -0.733173D-02
     22 -0.212590D-01  0.523340D-02  0.240936D-01 -0.554347D-01  0.136064D-01
     23 -0.194384D-01 -0.226898D-01 -0.796201D-01 -0.383926D-02 -0.196410D-01
     24 -0.384306D-01 -0.873132D-02  0.546059D-01 -0.326233D-01 -0.335705D-01
     25  0.899217D-01  0.119264D-01  0.553590D-01 -0.322035D+00 -0.762054D-01
     26 -0.127787D+01  0.575007D+00 -0.378942D+00 -0.219893D+00 -0.981080D-01
     27  0.571900D+00 -0.372256D+01 -0.887337D-01 -0.800569D-01  0.231948D+00
     28 -0.283420D-01  0.506225D-01 -0.231388D+01 -0.865520D+00 -0.780201D+00
     29  0.218080D+00  0.194753D-01 -0.898696D+00 -0.331408D+01  0.453561D+00
     30  0.116795D-01  0.174716D+00 -0.764126D+00  0.432060D+00 -0.344045D+01
     31 -0.251157D-01  0.113318D-01  0.113822D+00 -0.144823D-01 -0.110457D-01
     32 -0.114186D+00  0.318598D-02  0.120390D+00  0.914779D-01 -0.757983D-01
     33  0.151125D-01  0.240016D-01  0.483189D-01 -0.220977D-01  0.896324D-01
               16            17            18            19            20 
     16  0.319761D+01
     17  0.211405D+00  0.150855D+01
     18  0.189740D+00 -0.112927D+01  0.294008D+01
     19  0.341376D-01 -0.133909D+00 -0.114142D+00  0.118369D+01
     20 -0.114066D+00 -0.158702D-01 -0.118359D+00 -0.167416D+00  0.344041D+01
     21 -0.111121D+00 -0.137871D+00 -0.783928D-02 -0.873470D+00 -0.121555D+00
     22  0.101145D+00  0.861373D-01  0.158935D+00 -0.167442D+00 -0.610604D-01
     23  0.848923D-01  0.124833D+00 -0.152529D+00 -0.846068D-01  0.732417D-01
     24  0.208249D+00 -0.201232D+00 -0.217498D+00  0.804946D-01  0.166081D-01
     25 -0.242628D-02  0.809897D-02  0.106721D-03  0.100262D-01 -0.105417D-01
     26  0.750016D-02 -0.776125D-02  0.172647D-02 -0.258896D-01  0.848280D-02
     27  0.154771D-02 -0.220643D-02  0.211003D-02  0.860362D-03 -0.116994D-02
     28  0.306570D-02 -0.688432D-02 -0.383266D-02  0.996389D-02 -0.712350D-03
     29 -0.293753D-02  0.343483D-02  0.258124D-02 -0.489275D-02 -0.435956D-03
     30 -0.176553D-02  0.338701D-02  0.719801D-03 -0.265069D-02 -0.390949D-03
     31 -0.321359D-02  0.494509D-02  0.957891D-03  0.618024D-02  0.245995D-02
     32  0.364271D-02 -0.520729D-02 -0.203560D-02  0.993588D-02 -0.242921D-02
     33  0.547905D-02 -0.574678D-02 -0.410789D-02  0.144063D-01  0.324367D-02
               21            22            23            24            25 
     21  0.293753D+01
     22  0.793293D-01  0.298896D+01
     23  0.235551D-01 -0.401356D+00  0.344484D+01
     24  0.910735D-01  0.801430D+00  0.724226D+00  0.228269D+01
     25  0.294401D-02 -0.557469D-02 -0.991194D-02  0.372299D-02  0.391552D+01
     26 -0.600207D-02 -0.521930D-02  0.315745D-01 -0.189164D-01  0.255981D-01
     27 -0.560556D-02  0.210437D-02 -0.714938D-02 -0.535801D-02 -0.369237D-01
     28  0.206769D-02 -0.946761D-02  0.150903D-02  0.271656D-02 -0.284455D-01
     29 -0.117898D-02  0.564211D-02 -0.100189D-03 -0.202939D-02 -0.211540D-01
     30 -0.172323D-02 -0.538353D-03  0.176170D-02 -0.192852D-02  0.124702D-02
     31  0.453141D-02 -0.125924D-01 -0.100089D-02 -0.243041D-01 -0.509044D-02
     32  0.394801D-02 -0.509135D-02  0.373811D-02  0.866967D-03  0.479605D-02
     33  0.157783D-02 -0.184135D-01 -0.410013D-02 -0.300035D-02  0.257946D-02
               26            27            28            29            30 
     26  0.113007D+01
     27 -0.512183D+00  0.345172D+01
     28 -0.154191D-01  0.208530D-02  0.232294D+01
     29 -0.538365D-02  0.393196D-02  0.103805D+01  0.328671D+01
     30 -0.692784D-03  0.312328D-02  0.823412D+00 -0.397193D+00  0.326817D+01
     31 -0.413296D-02 -0.386990D-03  0.157112D-01 -0.467795D-01 -0.300535D-01
     32  0.227176D-01  0.824089D-02 -0.545327D-01  0.408655D-01  0.422290D-01
     33  0.160989D-01 -0.841140D-03 -0.370280D-01  0.462239D-01  0.943389D-02
               31            32            33 
     31  0.289149D+01
     32  0.112144D+01  0.452370D+01
     33  0.214070D+01 -0.126581D+01  0.362861D+01
 Leave Link  701 at Sun Sep 29 02:12:58 2019, MaxMem=   671088640 cpu:              41.4 elap:              20.7
 (Enter /shared/centos7/gaussian/g16/l702.exe)
 L702 exits ... SP integral derivatives will be done elsewhere.
 Leave Link  702 at Sun Sep 29 02:12:59 2019, MaxMem=   671088640 cpu:               1.4 elap:               0.7
 (Enter /shared/centos7/gaussian/g16/l703.exe)
 Integral derivatives from FoFJK, PRISM(SPDF).
 Compute integral second derivatives, UseDBF=F ICtDFT=           0.
 ICntrl=    100147.
 Calling FoFJK, ICntrl=    100147 FMM=F ISym2X=0 I1Cent= 0 IOpClX= 0 NMat=1 NMatS=1 NMatT=0.
 FoFJK:  IHMeth= 1 ICntrl=  100147 DoSepK=F KAlg= 0 I1Cent=           0 FoldK=F
 IRaf=         0 NMat=       1 IRICut=       1 DoRegI=T DoRafI=F ISym2E= 0 IDoP0=0 IntGTp=1.
 FoFCou: FMM=F IPFlag=           0 FMFlag=      100000 FMFlg1=         800
         NFxFlg=           0 DoJE=F BraDBF=F KetDBF=F FulRan=T
         wScrn=  0.000000 ICntrl=    100147 IOpCl=  0 I1Cent=           0 NGrid=           0
         NMat0=    1 NMatS0=      1 NMatT0=    0 NMatD0=    1 NMtDS0=    0 NMtDT0=    0
 Symmetry not used in FoFCou.
 FoFCou:  KetSym=F NOpSet=  1 NOpAb=1 NOp=  1.
 FoFCou:  CnvScl= 1.00D+00 Thresh= 1.00D-08 IAcrcy=      12.
 PrismS was handed   670738517 working-precision words and  3688 shell-pairs
 FoFCou: LinMIO=F DoNuc=F BraDBF=F KetDBF=F HaveP=T PDBF=F HaveZ=T HaveW=F
         NIJTC =      10 NIJTAt=       0 NIJTCD=       0 NIJTT =      10
         IJTBeg=       1 IJTEnd=      10 KLTBeg=       1 KLTEnd=      10
         IPTBeg=       1 IPTEnd=      10 IPTBCv=       1 IPTECv=      10
         IZTBeg=       1 IZTEnd=      10 IZTBCv=       1 IZTECv=      10
         IWTBeg=      11 IWTEnd=      10 IWTBCv=      11 IWTECv=      10
         INTBeg=       1 INTEnd=       0 IFTBCv=       1 IFTECv=      10
 NCel replicated for PrismC:     1
 CoulSu-InSpLW:  IPartL=    0 NPrtUS=   20 NPrtUL=    1 DoSpLW=F IThBeg=    0 IThEnd=   19 NThAct=   20.
 CoulSu:  IncDef=  1024 NBBP=        6802516 NTPThr=   100 NPartT=   20 Incr=        1024 LDynOK=F GPUOK=T.
 CoulSu:  NPrtUS=  20 ThrOK=T IAlg=1 NPAlg=1 LenDen=           0 LWGrdD=           0 DoCopy=F ISkipM=0
          DoSpLW=F IThBeg=    0 IThEnd=   19.
 Enter PrismC:  IPart=  0 JobTyp=22 DoJE=F Cont=F.
 PrismC:  IPart=     0 DynPar=T LinDyn=F Incr=        1024 UseFst=F UseS4=T ISplat=2.
 PrismC was handed    33455254 working-precision words and  3688 shell-pairs
 Enter PrismC:  IPart= 17 JobTyp=22 DoJE=F Cont=F.
 Enter PrismC:  IPart= 16 JobTyp=22 DoJE=F Cont=F.
 PrismC:  IPart=    17 DynPar=T LinDyn=F Incr=        1024 UseFst=F UseS4=T ISplat=2.
 PrismC was handed    33455254 working-precision words and  3688 shell-pairs
 PrismC:  IPart=    16 DynPar=T LinDyn=F Incr=        1024 UseFst=F UseS4=T ISplat=2.
 PrismC was handed    33455254 working-precision words and  3688 shell-pairs
 Enter PrismC:  IPart=  2 JobTyp=22 DoJE=F Cont=F.
 PrismC:  IPart=     2 DynPar=T LinDyn=F Incr=        1024 UseFst=F UseS4=T ISplat=2.
 PrismC was handed    33455254 working-precision words and  3688 shell-pairs
 Enter PrismC:  IPart=  6 JobTyp=22 DoJE=F Cont=F.
 PrismC:  IPart=     6 DynPar=T LinDyn=F Incr=        1024 UseFst=F UseS4=T ISplat=2.
 PrismC was handed    33455254 working-precision words and  3688 shell-pairs
 Enter PrismC:  IPart= 10 JobTyp=22 DoJE=F Cont=F.
 PrismC:  IPart=    10 DynPar=T LinDyn=F Incr=        1024 UseFst=F UseS4=T ISplat=2.
 PrismC was handed    33455254 working-precision words and  3688 shell-pairs
 Enter PrismC:  IPart= 18 JobTyp=22 DoJE=F Cont=F.
 Enter PrismC:  IPart=  4 JobTyp=22 DoJE=F Cont=F.
 PrismC:  IPart=    18 DynPar=T LinDyn=F Incr=        1024 UseFst=F UseS4=T ISplat=2.
 PrismC was handed    33455254 working-precision words and  3688 shell-pairs
 PrismC:  IPart=     4 DynPar=T LinDyn=F Incr=        1024 UseFst=F UseS4=T ISplat=2.
 PrismC was handed    33455254 working-precision words and  3688 shell-pairs
 Enter PrismC:  IPart= 12 JobTyp=22 DoJE=F Cont=F.
 PrismC:  IPart=    12 DynPar=T LinDyn=F Incr=        1024 UseFst=F UseS4=T ISplat=2.
 PrismC was handed    33455254 working-precision words and  3688 shell-pairs
 Enter PrismC:  IPart= 15 JobTyp=22 DoJE=F Cont=F.
 PrismC:  IPart=    15 DynPar=T LinDyn=F Incr=        1024 UseFst=F UseS4=T ISplat=2.
 PrismC was handed    33455254 working-precision words and  3688 shell-pairs
 Enter PrismC:  IPart= 14 JobTyp=22 DoJE=F Cont=F.
 PrismC:  IPart=    14 DynPar=T LinDyn=F Incr=        1024 UseFst=F UseS4=T ISplat=2.
 PrismC was handed    33455254 working-precision words and  3688 shell-pairs
 Enter PrismC:  IPart=  7 JobTyp=22 DoJE=F Cont=F.
 PrismC:  IPart=     7 DynPar=T LinDyn=F Incr=        1024 UseFst=F UseS4=T ISplat=2.
 PrismC was handed    33455254 working-precision words and  3688 shell-pairs
 Enter PrismC:  IPart= 11 JobTyp=22 DoJE=F Cont=F.
 PrismC:  IPart=    11 DynPar=T LinDyn=F Incr=        1024 UseFst=F UseS4=T ISplat=2.
 PrismC was handed    33455254 working-precision words and  3688 shell-pairs
 Enter PrismC:  IPart=  8 JobTyp=22 DoJE=F Cont=F.
 PrismC:  IPart=     8 DynPar=T LinDyn=F Incr=        1024 UseFst=F UseS4=T ISplat=2.
 PrismC was handed    33455254 working-precision words and  3688 shell-pairs
 Enter PrismC:  IPart=  9 JobTyp=22 DoJE=F Cont=F.
 PrismC:  IPart=     9 DynPar=T LinDyn=F Incr=        1024 UseFst=F UseS4=T ISplat=2.
 PrismC was handed    33455254 working-precision words and  3688 shell-pairs
 Enter PrismC:  IPart=  3 JobTyp=22 DoJE=F Cont=F.
 PrismC:  IPart=     3 DynPar=T LinDyn=F Incr=        1024 UseFst=F UseS4=T ISplat=2.
 PrismC was handed    33455254 working-precision words and  3688 shell-pairs
 Enter PrismC:  IPart= 13 JobTyp=22 DoJE=F Cont=F.
 PrismC:  IPart=    13 DynPar=T LinDyn=F Incr=        1024 UseFst=F UseS4=T ISplat=2.
 PrismC was handed    33455254 working-precision words and  3688 shell-pairs
 Enter PrismC:  IPart=  5 JobTyp=22 DoJE=F Cont=F.
 PrismC:  IPart=     5 DynPar=T LinDyn=F Incr=        1024 UseFst=F UseS4=T ISplat=2.
 PrismC was handed    33455254 working-precision words and  3688 shell-pairs
 Enter PrismC:  IPart=  1 JobTyp=22 DoJE=F Cont=F.
 PrismC:  IPart=     1 DynPar=T LinDyn=F Incr=        1024 UseFst=F UseS4=T ISplat=2.
 PrismC was handed    33455254 working-precision words and  3688 shell-pairs
 Enter PrismC:  IPart= 19 JobTyp=22 DoJE=F Cont=F.
 PrismC:  IPart=    19 DynPar=T LinDyn=F Incr=        1024 UseFst=F UseS4=T ISplat=2.
 PrismC was handed    33455254 working-precision words and  3688 shell-pairs
 IPart= 11 NShTot=      204117 NShNF=      204117 NShFF=           0 MinMC=       7
           NShCPU=      204117 NBCPU=        9042 AvBCPU=        22.6
           NShGPU=           0 NBGPU=           0 AvBGPU=         0.0
 IPart= 17 NShTot=      200511 NShNF=      200511 NShFF=           0 MinMC=       7
           NShCPU=      200511 NBCPU=        8425 AvBCPU=        23.8
           NShGPU=           0 NBGPU=           0 AvBGPU=         0.0
 IPart= 14 NShTot=      266291 NShNF=      266291 NShFF=           0 MinMC=       7
           NShCPU=      266291 NBCPU=       11430 AvBCPU=        23.3
           NShGPU=           0 NBGPU=           0 AvBGPU=         0.0
 IPart= 13 NShTot=      274897 NShNF=      274897 NShFF=           0 MinMC=       7
           NShCPU=      274897 NBCPU=       11580 AvBCPU=        23.7
           NShGPU=           0 NBGPU=           0 AvBGPU=         0.0
 IPart=  3 NShTot=      205969 NShNF=      205969 NShFF=           0 MinMC=       7
           NShCPU=      205969 NBCPU=        8806 AvBCPU=        23.4
           NShGPU=           0 NBGPU=           0 AvBGPU=         0.0
 IPart=  6 NShTot=      204401 NShNF=      204401 NShFF=           0 MinMC=       7
           NShCPU=      204401 NBCPU=        9097 AvBCPU=        22.5
           NShGPU=           0 NBGPU=           0 AvBGPU=         0.0
 IPart= 19 NShTot=      286276 NShNF=      286276 NShFF=           0 MinMC=       7
           NShCPU=      286276 NBCPU=       11188 AvBCPU=        25.6
           NShGPU=           0 NBGPU=           0 AvBGPU=         0.0
 IPart= 15 NShTot=      213857 NShNF=      213857 NShFF=           0 MinMC=       7
           NShCPU=      213857 NBCPU=        8797 AvBCPU=        24.3
           NShGPU=           0 NBGPU=           0 AvBGPU=         0.0
 IPart=  2 NShTot=      271531 NShNF=      271531 NShFF=           0 MinMC=       7
           NShCPU=      271531 NBCPU=       11331 AvBCPU=        24.0
           NShGPU=           0 NBGPU=           0 AvBGPU=         0.0
 IPart=  7 NShTot=      258845 NShNF=      258845 NShFF=           0 MinMC=       7
           NShCPU=      258845 NBCPU=       10935 AvBCPU=        23.7
           NShGPU=           0 NBGPU=           0 AvBGPU=         0.0
 IPart= 16 NShTot=      202323 NShNF=      202323 NShFF=           0 MinMC=       7
           NShCPU=      202323 NBCPU=        8591 AvBCPU=        23.6
           NShGPU=           0 NBGPU=           0 AvBGPU=         0.0
 IPart=  1 NShTot=      272462 NShNF=      272462 NShFF=           0 MinMC=       7
           NShCPU=      272462 NBCPU=       11521 AvBCPU=        23.6
           NShGPU=           0 NBGPU=           0 AvBGPU=         0.0
 IPart= 18 NShTot=      208982 NShNF=      208982 NShFF=           0 MinMC=       7
           NShCPU=      208982 NBCPU=        8376 AvBCPU=        25.0
           NShGPU=           0 NBGPU=           0 AvBGPU=         0.0
 IPart=  0 NShTot=      277919 NShNF=      277919 NShFF=           0 MinMC=       7
           NShCPU=      277919 NBCPU=       11103 AvBCPU=        25.0
           NShGPU=           0 NBGPU=           0 AvBGPU=         0.0
 IPart= 10 NShTot=      202375 NShNF=      202375 NShFF=           0 MinMC=       7
           NShCPU=      202375 NBCPU=        8988 AvBCPU=        22.5
           NShGPU=           0 NBGPU=           0 AvBGPU=         0.0
 IPart=  9 NShTot=      268526 NShNF=      268526 NShFF=           0 MinMC=       7
           NShCPU=      268526 NBCPU=       11417 AvBCPU=        23.5
           NShGPU=           0 NBGPU=           0 AvBGPU=         0.0
 IPart=  5 NShTot=      263511 NShNF=      263511 NShFF=           0 MinMC=       7
           NShCPU=      263511 NBCPU=       11425 AvBCPU=        23.1
           NShGPU=           0 NBGPU=           0 AvBGPU=         0.0
 IPart=  8 NShTot=      215441 NShNF=      215441 NShFF=           0 MinMC=       7
           NShCPU=      215441 NBCPU=        8788 AvBCPU=        24.5
           NShGPU=           0 NBGPU=           0 AvBGPU=         0.0
 IPart=  4 NShTot=      219993 NShNF=      219993 NShFF=           0 MinMC=       7
           NShCPU=      219993 NBCPU=        9020 AvBCPU=        24.4
           NShGPU=           0 NBGPU=           0 AvBGPU=         0.0
 IPart= 12 NShTot=      208964 NShNF=      208964 NShFF=           0 MinMC=       7
           NShCPU=      208964 NBCPU=        8489 AvBCPU=        24.6
           NShGPU=           0 NBGPU=           0 AvBGPU=         0.0
 CoulSu:  NxtVal=        7249921 LenVP=       33455255 MinMC=       7.
 ReadGW:  IGet=0 IStart=           1 Next=           1 LGW=           0.
 Remaining memory in FofDFT      639.93 Mw
 CkSvGd:  ISavGI=        -1 IRadAn=       5 IRASav=       5 ISavGd=        -1.
 CalDSu-InSpLW:  IPartL=    0 NPrtUS=   20 NPrtUL=    1 DoSpLW=F IThBeg=    0 IThEnd=   19 NThAct=   20.
 CalDSu:  NPrtUS=  20 ThrOK=T IAlg=1 NPAlg=2 DoDPD=T LenP=       35245 LenD1P=             0 GPUOK=F
          ISkipM=0 DoSpLW=F IThBeg=    0 IThEnd=   19.
 IPart=  0 IRanGd=          0 ScrnBf=T ScrnGd=T RCrit=4.00D+00 DoMicB=T.
 IPart= 15        10701 of        12690 points in      14 batches and       79 microbatches, Max-NSigAt=      11 Max-NSgAt2=      11
 IPart=  1        11805 of        12224 points in      11 batches and       46 microbatches, Max-NSigAt=      11 Max-NSgAt2=      11
 IPart= 14        16454 of        19596 points in      23 batches and       94 microbatches, Max-NSigAt=      11 Max-NSgAt2=      11
 IPart=  6         9917 of        10744 points in      11 batches and       66 microbatches, Max-NSigAt=      11 Max-NSgAt2=      11
 IPart=  3         9124 of        10128 points in      11 batches and       70 microbatches, Max-NSigAt=      11 Max-NSgAt2=      11
 IPart= 11         9795 of        10812 points in      12 batches and       74 microbatches, Max-NSigAt=      11 Max-NSgAt2=      11
 IPart=  0        13225 of        14446 points in      14 batches and       59 microbatches, Max-NSigAt=      11 Max-NSgAt2=      11
 IPart= 19        10792 of        11430 points in      11 batches and       67 microbatches, Max-NSigAt=      11 Max-NSgAt2=      11
 IPart= 13        13121 of        14304 points in      15 batches and       49 microbatches, Max-NSigAt=      11 Max-NSgAt2=      11
 IPart=  8         9287 of        10128 points in      11 batches and       75 microbatches, Max-NSigAt=      11 Max-NSgAt2=      11
 IPart=  2        12363 of        13080 points in      12 batches and       59 microbatches, Max-NSigAt=      11 Max-NSgAt2=      11
 IPart=  5        11577 of        11908 points in      11 batches and       44 microbatches, Max-NSigAt=      11 Max-NSgAt2=      11
 IPart= 18        10390 of        11340 points in      12 batches and       46 microbatches, Max-NSigAt=      11 Max-NSgAt2=      11
 IPart=  7        12190 of        13818 points in      15 batches and       89 microbatches, Max-NSigAt=      11 Max-NSgAt2=      11
 IPart=  4        10105 of        10870 points in      11 batches and       57 microbatches, Max-NSigAt=      11 Max-NSgAt2=      11
 IPart=  9        13522 of        14734 points in      15 batches and       65 microbatches, Max-NSigAt=      11 Max-NSgAt2=      11
 IPart= 16         9359 of        10278 points in      11 batches and       80 microbatches, Max-NSigAt=      11 Max-NSgAt2=      11
 IPart= 17        10510 of        11288 points in      11 batches and       62 microbatches, Max-NSigAt=      11 Max-NSgAt2=      11
 IPart= 10        10897 of        12194 points in      13 batches and       60 microbatches, Max-NSigAt=      11 Max-NSgAt2=      11
 IPart= 12         9385 of        10086 points in      11 batches and       73 microbatches, Max-NSigAt=      11 Max-NSgAt2=      11
 Polarizability after L703:
                1             2             3 
      1  0.000000D+00
      2  0.000000D+00  0.000000D+00
      3  0.000000D+00  0.000000D+00  0.000000D+00
 Dipole Derivatives after L703:
                 1             2             3             4             5 
      1  -0.128836D+00 -0.192266D-03 -0.108709D+00  0.887104D-01  0.190533D+00
      2   0.133649D+00 -0.233310D+00 -0.587539D-01  0.567187D+00 -0.454774D+00
      3  -0.139149D+00  0.664285D-02 -0.171055D+00  0.294411D+00 -0.194872D+00
                 6             7             8             9            10 
      1  -0.181192D+00 -0.101724D+01  0.440550D+00 -0.247274D+00 -0.458128D+00
      2  -0.384996D+00  0.233407D-01 -0.892789D+00  0.238320D-01  0.289605D-01
      3  -0.678033D+00 -0.605387D-01  0.365324D-01 -0.775917D+00  0.228092D+00
                11            12            13            14            15 
      1  -0.201912D+00  0.275622D+00 -0.708648D+00  0.212920D+00  0.215573D+00
      2  -0.723128D+00 -0.375800D+00 -0.343136D-01 -0.527996D+00  0.289753D-01
      3  -0.314732D+00 -0.171530D+00  0.135652D+00 -0.118405D-01  0.769343D-01
                16            17            18            19            20 
      1   0.117924D+00 -0.485460D+00 -0.285675D+00  0.104386D+01  0.199691D+00
      2  -0.373580D-01  0.561740D+00  0.317595D+00 -0.126914D+00  0.128552D+00
      3   0.131516D-01  0.135622D+00  0.265117D+00  0.246042D+00  0.400450D-01
                21            22            23            24            25 
      1   0.359403D+00  0.413316D-02 -0.138397D+00  0.154598D+00  0.184499D+00
      2  -0.651682D-01  0.143177D+00  0.235244D+00 -0.199465D+00  0.465109D-01
      3   0.182714D+00 -0.262474D+00 -0.119917D+00  0.454669D+00  0.253246D-02
                26            27            28            29            30 
      1   0.234678D-01 -0.227344D-02  0.898987D+00 -0.399537D+00 -0.405055D+00
      2   0.100943D+01  0.165951D+00 -0.292843D+00  0.349488D+00  0.195216D+00
      3   0.153229D+00  0.873413D-01 -0.191409D+00  0.135114D+00  0.203767D+00
                31            32            33 
      1  -0.252588D-01  0.158337D+00  0.224981D+00
      2  -0.451398D+00  0.547543D+00  0.352613D+00
      3  -0.266311D+00  0.134175D+00  0.525992D+00
 Hessian after L703:
                1             2             3             4             5 
      1  0.350404D+00
      2 -0.171623D+00  0.308965D+00
      3 -0.739352D-01 -0.866764D-01  0.199575D+00
      4  0.461923D-02 -0.165956D-02 -0.254833D-02  0.302780D+00
      5 -0.593079D-02  0.178823D-01  0.107873D-01  0.119676D-01  0.417835D+00
      6 -0.187671D-02  0.369977D-02 -0.182263D-02 -0.157758D+00  0.130586D+00
      7 -0.849931D-01  0.307416D-01  0.438909D-03  0.661428D-03  0.215196D-02
      8  0.493418D-01 -0.153034D+00  0.623442D-01  0.494946D-03 -0.781308D-02
      9 -0.232921D-01  0.846118D-01 -0.112828D+00 -0.214484D-02  0.343836D-02
     10 -0.210527D+00  0.777553D-01  0.660370D-01  0.126104D-03 -0.391897D-02
     11  0.513415D-01 -0.109438D+00 -0.785348D-02 -0.402699D-01 -0.543251D-01
     12  0.860105D-01 -0.272876D-01 -0.856809D-01 -0.791873D-02 -0.215411D-01
     13 -0.456840D-01 -0.111219D-02  0.103735D-01 -0.105826D+00 -0.622713D-01
     14  0.320042D-01 -0.511398D-02 -0.102331D-01 -0.268736D-01 -0.276641D+00
     15  0.255918D-01 -0.143887D-02 -0.277647D-03  0.191774D-01 -0.390007D-01
     16 -0.825225D-03  0.137215D-01  0.638501D-02  0.346531D-03 -0.140272D-02
     17  0.134738D-01 -0.287013D-01 -0.386740D-02  0.240041D-05  0.170685D-02
     18 -0.351074D-02  0.190887D-01  0.126907D-01 -0.512270D-03  0.699507D-03
     19 -0.882992D-02  0.979534D-02 -0.674241D-02  0.116093D-03 -0.272268D-03
     20  0.333281D-01 -0.370782D-02  0.141940D-01 -0.896626D-03  0.141311D-02
     21 -0.184682D-01  0.972699D-02 -0.522136D-02  0.638212D-03 -0.123842D-02
     22  0.556029D-02  0.762512D-02 -0.124945D-01 -0.110966D-02 -0.297895D-03
     23 -0.897847D-02 -0.172811D-01  0.254860D-01  0.183493D-03 -0.664496D-03
     24  0.427163D-02  0.114683D-01 -0.153846D-01  0.572832D-03 -0.239737D-02
     25 -0.740616D-02  0.332873D-01  0.732328D-02 -0.378915D-02 -0.306904D-02
     26  0.961948D-02 -0.101742D-01 -0.367787D-02 -0.247251D-02  0.264581D-02
     27  0.722380D-02 -0.120582D-01  0.213237D-02  0.347520D-02 -0.215306D-02
     28 -0.234751D-02 -0.355565D-02  0.216696D-02  0.984053D-02 -0.399415D-02
     29 -0.415102D-02  0.366228D-03 -0.226480D-02  0.249374D-01 -0.233835D-01
     30  0.345105D-03 -0.204849D-02  0.908479D-02  0.470973D-02 -0.733508D-02
     31  0.302543D-04  0.502467D-02  0.299573D-02 -0.207765D+00  0.670376D-01
     32  0.157485D-02  0.237243D-03  0.176164D-02  0.345864D-01 -0.786555D-01
     33 -0.235981D-02  0.914113D-03 -0.226819D-02  0.142309D+00 -0.718455D-01
                6             7             8             9            10 
      6  0.213653D+00
      7 -0.126472D-02  0.544060D+00
      8 -0.159119D-03  0.128470D-01  0.467282D+00
      9 -0.309668D-02 -0.611034D-01  0.966668D-02  0.532559D+00
     10 -0.158922D-02 -0.244847D-01  0.242896D-01 -0.278583D-02  0.785677D+00
     11 -0.597238D-02  0.309380D-01 -0.315270D-01 -0.902136D-02  0.180465D+00
     12  0.100687D-01 -0.154103D-01 -0.374639D-03  0.512402D-02 -0.121329D+00
     13  0.107596D-01 -0.207056D-02 -0.688892D-02  0.237697D-02 -0.488042D+00
     14 -0.646114D-01  0.180005D-02  0.949009D-02 -0.593777D-02 -0.222549D+00
     15 -0.718863D-01 -0.545126D-03  0.534388D-02  0.100901D-03  0.568248D-01
     16 -0.171046D-03 -0.583322D-01  0.319533D-02  0.493157D-02 -0.294598D-03
     17  0.288840D-03  0.405401D-02 -0.162275D+00 -0.942100D-01 -0.513419D-02
     18 -0.101378D-03  0.794098D-02 -0.985338D-01 -0.139174D+00  0.102951D-02
[...]
 ITU=  0
     Eigenvalues ---    0.00376   0.00514   0.01217   0.02056   0.03747
     Eigenvalues ---    0.04680   0.08686   0.08778   0.10705   0.12082
     Eigenvalues ---    0.13475   0.16484   0.18191   0.18736   0.19826
     Eigenvalues ---    0.22138   0.23302   0.33222   0.33591   0.35088
     Eigenvalues ---    0.36355   0.37354   0.39844   0.45086   0.45698
     Eigenvalues ---    0.53342   0.66236
 Angle between quadratic step and forces=  68.63 degrees.
 Linear search not attempted -- first point.
 Iteration  1 RMS(Cart)=  0.00001100 RMS(Int)=  0.00000000
 Iteration  2 RMS(Cart)=  0.00000000 RMS(Int)=  0.00000000
 ITry= 1 IFail=0 DXMaxC= 3.08D-05 DCOld= 1.00D+10 DXMaxT= 3.00D-01 DXLimC= 3.00D+00 Rises=F
 Variable       Old X    -DE/DX   Delta X   Delta X   Delta X     New X
                                 (Linear)    (Quad)   (Total)
    R1        2.67120   0.00000   0.00000  -0.00000  -0.00000   2.67120
    R2        2.59481   0.00000   0.00000   0.00000   0.00000   2.59481
    R3        2.56333  -0.00000   0.00000  -0.00000  -0.00000   2.56333
    R4        1.82347   0.00000   0.00000   0.00000   0.00000   1.82347
    R5        2.05344   0.00000   0.00000   0.00000   0.00000   2.05345
    R6        2.06653  -0.00000   0.00000  -0.00000  -0.00000   2.06653
    R7        2.06457  -0.00000   0.00000  -0.00000  -0.00000   2.06457
    R8        2.50502   0.00000   0.00000   0.00000   0.00000   2.50502
    R9        2.04478   0.00000   0.00000   0.00000   0.00000   2.04478
   R10        2.03835   0.00000   0.00000   0.00000   0.00000   2.03835
    A1        1.98208   0.00000   0.00000   0.00000   0.00000   1.98208
    A2        1.87243  -0.00000   0.00000  -0.00000  -0.00000   1.87243
    A3        1.87229  -0.00000   0.00000  -0.00000  -0.00000   1.87229
    A4        1.93110   0.00000   0.00000   0.00000   0.00000   1.93110
    A5        1.93727   0.00000   0.00000   0.00000   0.00000   1.93727
    A6        1.90554   0.00000   0.00000   0.00000   0.00000   1.90554
    A7        1.91450   0.00000   0.00000  -0.00000  -0.00000   1.91450
    A8        1.90277   0.00000   0.00000   0.00000   0.00000   1.90277
    A9        2.08155   0.00000   0.00000   0.00000   0.00000   2.08155
   A10        2.05344  -0.00000   0.00000  -0.00000  -0.00000   2.05343
   A11        2.14729  -0.00000   0.00000  -0.00000  -0.00000   2.14729
   A12        2.16215   0.00000   0.00000   0.00000   0.00000   2.16215
   A13        1.98815   0.00000   0.00000   0.00000   0.00000   1.98815
   A14        2.13269  -0.00000   0.00000  -0.00000  -0.00000   2.13269
    D1       -3.10482  -0.00000   0.00000  -0.00001  -0.00001  -3.10483
    D2       -1.02787  -0.00000   0.00000  -0.00001  -0.00001  -1.02789
    D3        1.08702  -0.00000   0.00000  -0.00001  -0.00001   1.08701
    D4       -2.45355  -0.00000   0.00000  -0.00002  -0.00002  -2.45357
    D5        0.73255  -0.00000   0.00000  -0.00001  -0.00001   0.73253
    D6       -0.00097  -0.00000   0.00000  -0.00000  -0.00000  -0.00098
    D7        3.11981   0.00000   0.00000   0.00000   0.00000   3.11981
    D8        0.03796   0.00000   0.00000   0.00001   0.00001   0.03797
    D9       -3.08115   0.00000   0.00000   0.00000   0.00000  -3.08114
   D10        3.13253   0.00000   0.00000   0.00001   0.00001   3.13254
   D11        0.01342   0.00000   0.00000   0.00000   0.00000   0.01342
         Item               Value     Threshold  Converged?
 Maximum Force            0.000001     0.000015     YES
 RMS     Force            0.000000     0.000010     YES
 Maximum Displacement     0.000031     0.000060     YES
 RMS     Displacement     0.000011     0.000040     YES
 Predicted change in Energy=-1.512640D-11
 Optimization completed.
    -- Stationary point found.
                           ----------------------------
                           !   Optimized Parameters   !
                           ! (Angstroms and Degrees)  !
 --------------------------                            --------------------------
 ! Name  Definition              Value          Derivative Info.                !
 --------------------------------------------------------------------------------
 ! R1    R(1,3)                  1.4135         -DE/DX =    0.0                 !
 ! R2    R(1,4)                  1.3731         -DE/DX =    0.0                 !
 ! R3    R(2,5)                  1.3565         -DE/DX =    0.0                 !
 ! R4    R(2,11)                 0.9649         -DE/DX =    0.0                 !
 ! R5    R(3,6)                  1.0866         -DE/DX =    0.0                 !
 ! R6    R(3,7)                  1.0936         -DE/DX =    0.0                 !
 ! R7    R(3,8)                  1.0925         -DE/DX =    0.0                 !
 ! R8    R(4,5)                  1.3256         -DE/DX =    0.0                 !
 ! R9    R(4,9)                  1.0821         -DE/DX =    0.0                 !
 ! R10   R(5,10)                 1.0786         -DE/DX =    0.0                 !
 ! A1    A(3,1,4)              113.5647         -DE/DX =    0.0                 !
 ! A2    A(5,2,11)             107.2822         -DE/DX =    0.0                 !
 ! A3    A(1,3,6)              107.2746         -DE/DX =    0.0                 !
 ! A4    A(1,3,7)              110.6436         -DE/DX =    0.0                 !
 ! A5    A(1,3,8)              110.9975         -DE/DX =    0.0                 !
 ! A6    A(6,3,7)              109.1795         -DE/DX =    0.0                 !
 ! A7    A(6,3,8)              109.6929         -DE/DX =    0.0                 !
 ! A8    A(7,3,8)              109.0209         -DE/DX =    0.0                 !
 ! A9    A(1,4,5)              119.2638         -DE/DX =    0.0                 !
 ! A10   A(1,4,9)              117.6532         -DE/DX =    0.0                 !
 ! A11   A(5,4,9)              123.0307         -DE/DX =    0.0                 !
 ! A12   A(2,5,4)              123.8822         -DE/DX =    0.0                 !
 ! A13   A(2,5,10)             113.9125         -DE/DX =    0.0                 !
 ! A14   A(4,5,10)             122.1941         -DE/DX =    0.0                 !
 ! D1    D(4,1,3,6)           -177.8931         -DE/DX =    0.0                 !
 ! D2    D(4,1,3,7)            -58.8928         -DE/DX =    0.0                 !
 ! D3    D(4,1,3,8)             62.2817         -DE/DX =    0.0                 !
 ! D4    D(3,1,4,5)           -140.5782         -DE/DX =    0.0                 !
 ! D5    D(3,1,4,9)             41.9718         -DE/DX =    0.0                 !
 ! D6    D(11,2,5,4)            -0.0558         -DE/DX =    0.0                 !
 ! D7    D(11,2,5,10)          178.7518         -DE/DX =    0.0                 !
 ! D8    D(1,4,5,2)              2.1751         -DE/DX =    0.0                 !
 ! D9    D(1,4,5,10)          -176.5367         -DE/DX =    0.0                 !
 ! D10   D(9,4,5,2)            179.4808         -DE/DX =    0.0                 !
 ! D11   D(9,4,5,10)             0.769          -DE/DX =    0.0                 !
 --------------------------------------------------------------------------------
 GradGradGradGradGradGradGradGradGradGradGradGradGradGradGradGradGradGrad

 Leave Link  103 at Sun Sep 29 04:25:22 2019, MaxMem=   671088640 cpu:             107.5 elap:              53.8
 (Enter /shared/centos7/gaussian/g16/l9999.exe)

 ----------------------------------------------------------------------

 Electric dipole moment (input orientation):
 (Debye = 10**-18 statcoulomb cm , SI units = C m)
                  (au)            (Debye)         (10**-30 SI)
   Tot        0.864539D+00      0.219744D+01      0.732987D+01
   x         -0.548412D+00     -0.139392D+01     -0.464963D+01
   y         -0.225716D+00     -0.573713D+00     -0.191370D+01
   z          0.629067D+00      0.159893D+01      0.533345D+01

 Dipole polarizability, Alpha (input orientation).
 (esu units = cm**3 , SI units = C**2 m**2 J**-1)
 Alpha(0;0):
               (au)            (10**-24 esu)      (10**-40 SI)
   iso        0.445368D+02      0.659968D+01      0.734313D+01
   aniso      0.248251D+02      0.367870D+01      0.409310D+01
   xx         0.397056D+02      0.588376D+01      0.654657D+01
   yx         0.102542D+02      0.151951D+01      0.169068D+01
   yy         0.453620D+02      0.672196D+01      0.747919D+01
   zx        -0.647677D+01     -0.959759D+00     -0.106788D+01
   zy        -0.618841D+01     -0.917028D+00     -0.102033D+01
   zz         0.485429D+02      0.719331D+01      0.800364D+01

 ----------------------------------------------------------------------

 Dipole orientation:
     8          0.34178649         -1.11902725          1.01018302
     8         -0.92345844          0.76041448         -3.67574389
     6         -0.39927799         -1.16658401          3.57609104
     6          1.21900702          1.19383219          0.22646867
     6          0.60686884          2.02660351         -2.05539832
     1         -0.98713621         -3.08664657          4.00551847
     1          1.18313262         -0.65100418          4.80112712
     1         -1.96617320          0.13361491          3.91780136
     1          2.45517306          2.21867307          1.49245815
     1          1.32947599          3.78052452         -2.80136887
     1         -1.43104366         -0.78274019         -2.84745852

 Electric dipole moment (dipole orientation):
 (Debye = 10**-18 statcoulomb cm , SI units = C m)
                  (au)            (Debye)         (10**-30 SI)
   Tot        0.864539D+00      0.219744D+01      0.732987D+01
   x          0.000000D+00      0.000000D+00      0.000000D+00
   y          0.000000D+00      0.000000D+00      0.000000D+00
   z          0.864539D+00      0.219744D+01      0.732987D+01

 Dipole polarizability, Alpha (dipole orientation).
 (esu units = cm**3 , SI units = C**2 m**2 J**-1)
 Alpha(0;0):
               (au)            (10**-24 esu)      (10**-40 SI)
   iso        0.445368D+02      0.659968D+01      0.734313D+01
   aniso      0.248251D+02      0.367870D+01      0.409310D+01
   xx         0.362550D+02      0.537244D+01      0.597764D+01
   yx         0.407340D+01      0.603616D+00      0.671613D+00
   yy         0.408588D+02      0.605465D+01      0.673671D+01
   zx         0.323814D+01      0.479842D+00      0.533897D+00
   zy        -0.811002D+01     -0.120178D+01     -0.133716D+01
   zz         0.564967D+02      0.837195D+01      0.931505D+01

 ----------------------------------------------------------------------

 Test job not archived.
 1\1\GINC-C0170\Freq\RM062X\CC-pVTZ\C3H6O2\HARMS.N\29-Sep-2019\0\\#P Ge
 om=AllCheck Guess=TCheck SCRF=Check Test GenChk RM062X/CC-pVTZ Freq\\G
 aussian input prepared by ASE\\0,1\O,-0.1435903693,-0.7257036673,0.349
 0943593\O,0.8204371978,0.9411990624,-1.6202595302\C,-1.3033139219,-1.0
 667865391,1.0817589879\C,0.3582443716,0.5136964839,0.6613333433\C,0.83
 34898517,1.2833054193,-0.3077185041\H,-1.5886886538,-2.0722596101,0.78
 45039539\H,-1.0983455706,-1.0542403179,2.1558674423\H,-2.1200177341,-0
 .3736220193,0.866994823\H,0.3830822501,0.7970055945,1.7053429188\H,1.2
 882472422,2.2412266318,-0.1100689641\H,0.4146395889,0.0681298799,-1.68
 49166608\\Version=EM64L-G16RevA.03\State=1-A\HF=-268.3241864\RMSD=1.65
 5e-09\RMSF=1.045e-06\ZeroPoint=0.0911284\Thermal=0.0969967\Dipole=-0.5
 484117,-0.2257159,0.6290671\DipoleDeriv=-0.7877134,-0.4551682,0.327500
 6,-0.5958007,-1.0835339,0.3796432,0.1506959,-0.0056919,-0.5364713,-0.3
 175928,0.0044223,-0.04725,0.0670705,-0.2922163,-0.3588541,0.2300023,0.
 1360455,-1.3205775,0.7491935,0.2408324,-0.2481898,0.1159183,0.3725814,
 -0.113323,-0.2689177,-0.2227015,0.5261107,-0.0362205,0.3435548,0.01486
 08,0.5248344,0.7360424,-0.1303318,0.1610535,0.1581494,-0.0816298,-0.05
 90485,0.0852268,-0.0230759,0.0149956,0.0645089,0.2338946,-0.2524024,-0
 .0758032,1.1767019,0.0255997,-0.0472128,0.0272456,-0.0808876,-0.095831
 1,-0.0139534,-0.0015482,-0.0510522,0.0448351,-0.0147519,-0.0324904,-0.
 0678908,-0.0064184,0.0521686,-0.0245931,0.0228361,0.0449933,-0.1622646
 ,-0.1077956,0.0044135,0.0204028,0.1436785,-0.0195529,0.0097667,-0.0156
 011,0.0721154,0.0099522,0.1509205,-0.0229537,-0.0014521,-0.080526,0.01
 68317,0.0135242,-0.0191184,-0.0601227,-0.0525376,0.1121543,-0.0777349,
 -0.0112374,-0.0632517,0.0158643,-0.0459217,0.0056714,-0.0236241,0.0403
 197,0.2852547,-0.0428899,0.0090861,-0.0396128,0.2331368,0.0501484,-0.0
 126714,0.0276918,0.3555612\Polar=39.7055798,10.2541635,45.3620477,-6.4
 767727,-6.1884093,48.54287\Quadrupole=-0.3109002,0.4620522,-0.1511521,
 1.8779925,0.2446002,1.5863693\PG=C01 [X(C3H6O2)]\NImag=0\\0.33479314,0
 .17526997,0.40361129,-0.12692671,0.04008848,0.23279773,-0.00511437,0.0
 0629756,0.00066288,0.13836384,0.00513741,0.00937628,0.00499443,0.21968
 883,0.52142276,0.00413545,0.01201309,0.00803849,-0.00477150,0.08986582
 ,0.44098295,-0.18585514,-0.04434219,0.07667686,-0.00028130,0.00078443,
 -0.00390007,0.51466946,-0.01762501,-0.08345192,-0.00337803,0.00013225,
 -0.00012955,-0.00159777,-0.00596866,0.61644592,0.09101693,0.01830349,-
 0.12601459,0.00022939,0.00330078,0.00421366,0.04384084,0.02854958,0.55
 164275,-0.08736002,-0.06826497,0.00760531,0.01392113,-0.00381769,0.000
 08593,-0.02427558,-0.04061348,-0.00539006,0.25546222,-0.09733830,-0.25
 972664,-0.04623816,0.00155416,0.00700506,-0.02461709,-0.01976649,-0.02
 657859,0.00497437,0.24054514,0.58814068,-0.00630245,-0.06478686,-0.103
 55615,0.01430474,0.01024066,-0.07123771,0.00548637,0.02250702,0.004841
 24,-0.14047543,-0.08715755,0.83235431,-0.00232967,-0.02442667,0.012431
 50,-0.05785480,-0.02349787,0.01705527,0.00181440,-0.00187334,-0.001115
 07,-0.12708354,-0.11958989,0.12063220,0.27845623,-0.03366072,-0.054643
 94,0.02577627,-0.03029615,-0.11275364,-0.03286225,0.00489270,-0.001086
 46,-0.00663725,-0.11244114,-0.24463110,0.18022512,0.29356184,0.7087203
 1,-0.00928998,-0.01882333,0.00708377,-0.00365814,-0.07895584,-0.325043
 73,0.00218966,-0.00249919,-0.00601569,0.13178925,0.21033528,-0.3420551
 5,-0.10884719,-0.07612270,0.75289229,-0.01593197,-0.03348961,-0.005385
 89,-0.00004827,0.00033424,0.00052561,-0.06353683,-0.05164662,-0.017779
 26,-0.00304265,-0.00010918,0.00428622,-0.00066043,-0.00165748,-0.00128
 537,0.07582717,-0.00595312,-0.00756105,0.00033335,0.00009752,0.0002787
 9,0.00088816,-0.06221962,-0.28689727,-0.07341659,-0.00117830,0.0018840
 6,0.00216854,-0.00032727,-0.00019123,-0.00136949,0.07255836,0.30755850
 ,0.01038132,0.02216777,0.00465823,0.00003125,-0.00026191,-0.00010574,-
 0.02355839,-0.08093909,-0.07506015,0.00239051,0.00010299,-0.00204503,0
 .00030814,0.00099866,0.00104986,0.01538432,0.07834032,0.07545491,-0.00
 448539,-0.00581571,0.03989599,0.00008362,-0.00071959,0.00001863,-0.064
 60046,-0.00147126,-0.06445055,0.00253668,0.00460162,0.00291528,-0.0004
 5658,-0.00022939,0.00017608,-0.00097632,0.00136726,-0.00683104,0.07099
 462,-0.00359573,0.00002710,0.00982575,0.00000337,-0.00032093,-0.000292
 21,-0.00019561,-0.05353878,-0.00717958,0.00134525,0.00237777,0.0033558
 3,-0.00004758,-0.00018661,0.00007814,-0.00677957,0.00179547,-0.0292398
 8,0.00353684,0.04836412,0.01290900,0.00484508,-0.02189878,0.00028174,0
 .00013677,0.00011995,-0.05851157,-0.00505302,-0.29017578,-0.00193687,-
 0.00388990,0.00041139,0.00020854,0.00093366,0.00015731,-0.00318195,-0.
 00002450,-0.00687828,0.05292690,0.00305050,0.32318531,-0.03648759,0.00
 972111,0.00617801,0.00003648,0.00022545,0.00052257,-0.18133492,0.11818
 171,-0.04367806,0.00294818,0.00545538,0.00051253,-0.00020373,-0.001688
 79,-0.00022147,0.00833116,-0.00459108,0.00167741,-0.00325463,0.0057552
 8,-0.00308941,0.21069440,-0.01093697,0.00889314,-0.00206409,-0.0004557
 8,-0.00026909,-0.00094730,0.12403893,-0.16539174,0.03708102,-0.0003223
 0,0.00369281,-0.00147720,0.00068611,0.00031733,0.00179460,0.02114611,-
 0.01659375,0.00811685,-0.00157419,0.00136921,-0.00119070,-0.13290956,0
 .16810838,0.02432274,-0.01049325,0.00337174,-0.00000334,-0.00031872,-0
 .00065990,-0.04635762,0.03936471,-0.06600617,-0.00123612,-0.00254214,0
 .00008649,-0.00028451,0.00059549,0.00030523,0.00743229,-0.00690954,0.0
 0280353,-0.02292768,0.02122194,-0.00560202,0.03885783,-0.04132781,0.06
 592745,-0.00153019,-0.00786116,-0.01056713,0.00777586,-0.00628480,0.00
 137035,0.00206940,0.00039651,-0.00338694,-0.03295522,-0.01130868,-0.00
 046881,0.00160913,0.00708066,0.01066061,-0.00007972,0.00026666,0.00026
 813,0.00039420,0.00005861,0.00058047,-0.00052539,-0.00008363,-0.000037
 90,0.02733219,-0.00729181,-0.01770047,-0.03133544,-0.00577173,0.000528
 13,0.00352473,0.00368931,0.00182963,-0.00400046,-0.01159908,-0.0662092
 9,-0.06418234,0.00356987,0.00912556,0.01644579,0.00002421,-0.00002701,
 0.00042489,0.00004163,0.00007892,0.00140661,-0.00036022,-0.00009595,0.
 00045598,0.01608090,0.07440006,-0.00245257,-0.00620334,-0.00340574,0.0
 0292665,0.00222257,0.00047036,0.00183184,0.00089552,0.00199347,0.00119
 091,-0.06525335,-0.32631398,-0.00358926,-0.00911454,-0.01513320,-0.000
 25796,0.00005713,0.00035611,-0.00112642,-0.00069847,0.00016601,-0.0004
 2631,0.00000083,-0.00032402,0.00234527,0.07722589,0.34151259,0.0065974
 1,-0.00649682,0.00128051,0.00208210,0.00131447,-0.00059148,0.00184378,
 0.00074927,0.00040199,-0.00175367,-0.00611747,-0.00456643,-0.09377844,
 -0.12272033,-0.01766261,0.00011846,0.00010887,-0.00010147,-0.00026357,
 -0.00014234,0.00006053,-0.00007791,0.00028282,-0.00000314,-0.00347390,
 0.00189197,-0.00018425,0.08675780,-0.00442987,0.00428363,0.00261156,-0
 .00268270,-0.00539272,-0.00574521,-0.00017959,-0.00112827,-0.00040017,
 -0.00477870,-0.01059287,-0.00689775,-0.12055682,-0.28885127,-0.0415255
 1,-0.00029162,-0.00008878,0.00020408,0.00002220,0.00001311,0.00008536,
 0.00000215,-0.00012586,-0.00002774,0.00159478,-0.00077335,0.00082212,0
 .13129903,0.30029709,0.00344504,0.00160085,-0.00350037,-0.01569553,-0.
 03490035,-0.01080103,-0.00046540,0.00105953,0.00044015,0.00753133,0.01
 831240,0.01145147,-0.01575891,-0.03667761,-0.06263741,0.00036965,0.000
 09810,-0.00025914,0.00008615,0.00004460,-0.00010011,0.00006688,-0.0000
 2046,0.00000018,-0.00042642,-0.00011652,-0.00008824,0.02059804,0.05172
 730,0.07156711,-0.00229622,-0.00059152,-0.00185134,-0.09896429,-0.1931
 6486,-0.01445076,-0.00051281,-0.00026138,0.00031079,0.00160248,0.00207
 370,0.00367578,0.00048742,-0.00284120,-0.00385085,-0.00000060,-0.00012
 930,0.00004981,0.00002785,0.00006149,-0.00024738,-0.00012604,0.0001284
 6,0.00023744,-0.00061635,-0.00027505,-0.00025789,0.00194794,0.00000112
 ,0.00024917,0.09845063,0.00042412,-0.00310742,-0.00061414,-0.18856733,
 -0.41974510,-0.04022997,-0.00073318,-0.00007297,-0.00057519,0.00112527
 ,0.00463810,0.00600454,-0.00749838,-0.01581895,-0.00935775,-0.00008885
 ,-0.00015774,0.00008533,0.00024057,0.00002061,-0.00029986,0.00020858,0
 .00009552,-0.00001893,0.00006015,-0.00115622,0.00004564,-0.00016948,0.
 00235929,-0.00112785,0.19499854,0.43294488,-0.00123876,0.00128802,0.00
 242566,0.00569187,0.00367580,-0.04597731,0.00276747,0.00109074,0.00014
 111,-0.00155475,-0.00402686,-0.00393689,-0.02104070,-0.04711486,-0.010
 60328,-0.00010768,-0.00016548,0.00002571,-0.00068332,-0.00016663,0.000
 61500,-0.00039999,0.00003426,0.00009749,-0.00033763,0.00015085,0.00076
 665,0.00076829,-0.00085403,-0.00607261,0.01613522,0.04608818,0.0625184
 7\\-0.00000036,0.00000064,-0.00000127,-0.00000094,0.00000037,-0.000000
 50,-0.00000025,-0.00000120,-0.00000107,0.00000057,-0.00000119,0.000000
 16,-0.00000032,-0.00000003,0.00000116,-0.00000103,0.00000213,-0.000000
 08,0.00000091,-0.00000082,0.00000064,-0.00000012,0.00000135,0.00000128
 ,0.00000204,-0.00000179,-0.00000005,0.00000129,-0.00000091,0.00000040,
 -0.00000177,0.00000145,-0.00000069\\\@


 HE WHO LAUGHS LAST PROBABLY DIDN'T GET THE JOKE.
 Job cpu time:       0 days  0 hours 57 minutes  9.3 seconds.
 Elapsed time:       0 days  0 hours 28 minutes 35.4 seconds.
 File lengths (MBytes):  RWF=   1312 Int=      0 D2E=      0 Chk=     32 Scr=     32
 Normal termination of Gaussian 16 at Sun Sep 29 04:25:23 2019.
