 Entering Gaussian System, Link 0=g16
 Input=loose/species/COC=CO/conformers/COC=CO_41.com
 Output=loose/species/COC=CO/conformers/COC=CO_41.log
 Initial command:
 /shared/centos7/gaussian/g16/l1.exe "/scratch/harms.n/gauss_scrdir/Gau-27503.inp" -scrdir="/scratch/harms.n/gauss_scrdir/"
 Entering Link 1 = /shared/centos7/gaussian/g16/l1.exe PID=     27504.
  
 Copyright (c) 1988,1990,1992,1993,1995,1998,2003,2009,2016,
            Gaussian, Inc.  All Rights Reserved.
  
 This is part of the Gaussian(R) 16 program.  It is based on
 the Gaussian(R) 09 system (copyright 2009, Gaussian, Inc.),
 the Gaussian(R) 03 system (copyright 2003, Gaussian, Inc.),
 the Gaussian(R) 98 system (copyright 1998, Gaussian, Inc.),
 the Gaussian(R) 94 system (copyright 1995, Gaussian, Inc.),
 the Gaussian 92(TM) system (copyright 1992, Gaussian, Inc.),
 the Gaussian 90(TM) system (copyright 1990, Gaussian, Inc.),
 the Gaussian 88(TM) system (copyright 1988, Gaussian, Inc.),
 the Gaussian 86(TM) system (copyright 1986, Carnegie Mellon
 University), and the Gaussian 82(TM) system (copyright 1983,
 Carnegie Mellon University). Gaussian is a federally registered
 trademark of Gaussian, Inc.
  
 This software contains proprietary and confidential information,
 including trade secrets, belonging to Gaussian, Inc.
  
 This software is provided under written license and may be
 used, copied, transmitted, or stored only in accord with that
 written license.
  
 The following legend is applicable only to US Government
 contracts under FAR:
  
                    RESTRICTED RIGHTS LEGEND
  
 Use, reproduction and disclosure by the US Government is
 subject to restrictions as set forth in subparagraphs (a)
 and (c) of the Commercial Computer Software - Restricted
 Rights clause in FAR 52.227-19.
  
 Gaussian, Inc.
 340 Quinnipiac St., Bldg. 40, Wallingford CT 06492
  
  
 ---------------------------------------------------------------
 Warning -- This program may not be used in any manner that
 competes with the business of Gaussian, Inc. or will provide
 assistance to any competitor of Gaussian, Inc.  The licensee
 of this program is prohibited from giving any competitor of
 Gaussian, Inc. access to this program.  By using this program,
 the user acknowledges that Gaussian, Inc. is engaged in the
 business of creating and licensing software in the field of
 computational chemistry and represents and warrants to the
 licensee that it is not a competitor of Gaussian, Inc. and that
 it will not use this program in any manner prohibited above.
 ---------------------------------------------------------------
  

 Cite this work as:
 Gaussian 16, Revision A.03,
 M. J. Frisch, G. W. Trucks, H. B. Schlegel, G. E. Scuseria, 
 M. A. Robb, J. R. Cheeseman, G. Scalmani, V. Barone, 
 G. A. Petersson, H. Nakatsuji, X. Li, M. Caricato, A. V. Marenich, 
 J. Bloino, B. G. Janesko, R. Gomperts, B. Mennucci, H. P. Hratchian, 
 J. V. Ortiz, A. F. Izmaylov, J. L. Sonnenberg, D. Williams-Young, 
 F. Ding, F. Lipparini, F. Egidi, J. Goings, B. Peng, A. Petrone, 
 T. Henderson, D. Ranasinghe, V. G. Zakrzewski, J. Gao, N. Rega, 
 G. Zheng, W. Liang, M. Hada, M. Ehara, K. Toyota, R. Fukuda, 
 J. Hasegawa, M. Ishida, T. Nakajima, Y. Honda, O. Kitao, H. Nakai, 
 T. Vreven, K. Throssell, J. A. Montgomery, Jr., J. E. Peralta, 
 F. Ogliaro, M. J. Bearpark, J. J. Heyd, E. N. Brothers, K. N. Kudin, 
 V. N. Staroverov, T. A. Keith, R. Kobayashi, J. Normand, 
 K. Raghavachari, A. P. Rendell, J. C. Burant, S. S. Iyengar, 
 J. Tomasi, M. Cossi, J. M. Millam, M. Klene, C. Adamo, R. Cammi, 
 J. W. Ochterski, R. L. Martin, K. Morokuma, O. Farkas, 
 J. B. Foresman, and D. J. Fox, Gaussian, Inc., Wallingford CT, 2016.
 
 ******************************************
 Gaussian 16:  EM64L-G16RevA.03 25-Dec-2016
                24-Sep-2019 
 ******************************************
 %nprocshared=20
 Will use up to   20 processors via shared memory.
 %mem=5GB
 ----------------------------------------------------------------------
 #p m062x/cc-pVTZ opt=(calcfc,maxcycles=900,Tight) freq IOP(7/33=1,2/16
 =3) scf=(maxcycle=900)
 ----------------------------------------------------------------------
 1/6=900,7=10,10=4,18=20,19=15,26=3,38=1/1,3;
 2/9=110,12=2,16=3,17=6,18=5,40=1/2;
 3/5=16,6=1,11=2,25=1,30=1,71=2,74=-55,140=1/1,2,3;
 4//1;
 5/5=2,7=900,38=5/2;
 8/6=4,10=90,11=11/1;
 11/6=1,8=1,9=11,15=111,16=1/1,2,10;
 10/6=1,13=1/2;
 6/7=2,8=2,9=2,10=2,28=1/1;
 7/10=1,18=20,25=1,33=1/1,2,3,16;
 1/6=900,7=10,10=4,18=20,19=15,26=3/3(2);
 2/9=110,16=3/2;
 99//99;
 2/9=110,16=3/2;
 3/5=16,6=1,11=2,25=1,30=1,71=1,74=-55/1,2,3;
 4/5=5,16=3,69=1/1;
 5/5=2,7=900,38=5/2;
 7/33=1/1,2,3,16;
 1/6=900,7=10,18=20,19=15,26=3/3(-5);
 2/9=110,16=3/2;
 6/7=2,8=2,9=2,10=2,19=2,28=1/1;
 99/9=1/99;
 Leave Link    1 at Tue Sep 24 17:14:14 2019, MaxMem=   671088640 cpu:               4.3 elap:               2.2
 (Enter /shared/centos7/gaussian/g16/l101.exe)
 ------------------------------
 Gaussian input prepared by ASE
 ------------------------------
 Symbolic Z-matrix:
 Charge =  0 Multiplicity = 1
 O                     0.18653  -0.78366   1.04425 
 O                    -1.33821   1.88278   0.21561 
 C                    -1.21501  -1.05539   0.97208 
 C                     0.58576   0.54111   0.92108 
 C                    -0.03191   1.64787   0.58265 
 H                    -1.57618  -1.47068   1.95672 
 H                    -1.81673  -0.13098   0.73953 
 H                    -1.38842  -1.80229   0.19712 
 H                     1.65436   0.60908   1.11577 
 H                     0.53357   2.55511   0.58652 
 H                    -1.65101   1.08194  -0.32737 
 
 ITRead=  0  0  0  0  0  0  0  0  0  0  0
 MicOpt= -1 -1 -1 -1 -1 -1 -1 -1 -1 -1 -1
 NAtoms=     11 NQM=       11 NQMF=       0 NMMI=      0 NMMIF=      0
                NMic=       0 NMicF=      0.
                    Isotopes and Nuclear Properties:
 (Nuclear quadrupole moments (NQMom) in fm**2, nuclear magnetic moments (NMagM)
  in nuclear magnetons)

  Atom         1           2           3           4           5           6           7           8           9          10
 IAtWgt=          16          16          12          12          12           1           1           1           1           1
 AtmWgt=  15.9949146  15.9949146  12.0000000  12.0000000  12.0000000   1.0078250   1.0078250   1.0078250   1.0078250   1.0078250
 NucSpn=           0           0           0           0           0           1           1           1           1           1
 AtZEff=  -0.0000000  -0.0000000  -0.0000000  -0.0000000  -0.0000000  -0.0000000  -0.0000000  -0.0000000  -0.0000000  -0.0000000
 NQMom=    0.0000000   0.0000000   0.0000000   0.0000000   0.0000000   0.0000000   0.0000000   0.0000000   0.0000000   0.0000000
 NMagM=    0.0000000   0.0000000   0.0000000   0.0000000   0.0000000   2.7928460   2.7928460   2.7928460   2.7928460   2.7928460
 AtZNuc=   8.0000000   8.0000000   6.0000000   6.0000000   6.0000000   1.0000000   1.0000000   1.0000000   1.0000000   1.0000000

  Atom        11
 IAtWgt=           1
 AtmWgt=   1.0078250
 NucSpn=           1
 AtZEff=  -0.0000000
 NQMom=    0.0000000
 NMagM=    2.7928460
 AtZNuc=   1.0000000
 Leave Link  101 at Tue Sep 24 17:14:16 2019, MaxMem=   671088640 cpu:               2.5 elap:               1.3
 (Enter /shared/centos7/gaussian/g16/l103.exe)

 GradGradGradGradGradGradGradGradGradGradGradGradGradGradGradGradGradGrad
 Berny optimization.
 Initialization pass.
                           ----------------------------
                           !    Initial Parameters    !
                           ! (Angstroms and Degrees)  !
 --------------------------                            --------------------------
 ! Name  Definition              Value          Derivative Info.                !
 --------------------------------------------------------------------------------
 ! R1    R(1,3)                  1.4295         calculate D2E/DX2 analytically  !
 ! R2    R(1,4)                  1.3891         calculate D2E/DX2 analytically  !
 ! R3    R(2,5)                  1.3771         calculate D2E/DX2 analytically  !
 ! R4    R(2,11)                 1.0169         calculate D2E/DX2 analytically  !
 ! R5    R(3,6)                  1.128          calculate D2E/DX2 analytically  !
 ! R6    R(3,7)                  1.1272         calculate D2E/DX2 analytically  !
 ! R7    R(3,8)                  1.0902         calculate D2E/DX2 analytically  !
 ! R8    R(4,5)                  1.3119         calculate D2E/DX2 analytically  !
 ! R9    R(4,9)                  1.0883         calculate D2E/DX2 analytically  !
 ! R10   R(5,10)                 1.0691         calculate D2E/DX2 analytically  !
 ! A1    A(3,1,4)              117.297          calculate D2E/DX2 analytically  !
 ! A2    A(5,2,11)             107.4445         calculate D2E/DX2 analytically  !
 ! A3    A(1,3,6)              109.8669         calculate D2E/DX2 analytically  !
 ! A4    A(1,3,7)              112.2038         calculate D2E/DX2 analytically  !
 ! A5    A(1,3,8)              108.7894         calculate D2E/DX2 analytically  !
 ! A6    A(6,3,7)              108.1239         calculate D2E/DX2 analytically  !
 ! A7    A(6,3,8)              108.5027         calculate D2E/DX2 analytically  !
 ! A8    A(7,3,8)              109.2851         calculate D2E/DX2 analytically  !
 ! A9    A(1,4,5)              133.8002         calculate D2E/DX2 analytically  !
 ! A10   A(1,4,9)              109.0198         calculate D2E/DX2 analytically  !
 ! A11   A(5,4,9)              117.1148         calculate D2E/DX2 analytically  !
 ! A12   A(2,5,4)              131.2483         calculate D2E/DX2 analytically  !
 ! A13   A(2,5,10)             110.9756         calculate D2E/DX2 analytically  !
 ! A14   A(4,5,10)             117.773          calculate D2E/DX2 analytically  !
 ! D1    D(4,1,3,6)           -115.871          calculate D2E/DX2 analytically  !
 ! D2    D(4,1,3,7)              4.443          calculate D2E/DX2 analytically  !
 ! D3    D(4,1,3,8)            125.4853         calculate D2E/DX2 analytically  !
 ! D4    D(3,1,4,5)             -9.9598         calculate D2E/DX2 analytically  !
 ! D5    D(3,1,4,9)            173.1633         calculate D2E/DX2 analytically  !
 ! D6    D(11,2,5,4)           -36.109          calculate D2E/DX2 analytically  !
 ! D7    D(11,2,5,10)          144.5535         calculate D2E/DX2 analytically  !
 ! D8    D(1,4,5,2)             -0.2238         calculate D2E/DX2 analytically  !
 ! D9    D(1,4,5,10)           179.077          calculate D2E/DX2 analytically  !
 ! D10   D(9,4,5,2)            176.4588         calculate D2E/DX2 analytically  !
 ! D11   D(9,4,5,10)            -4.2404         calculate D2E/DX2 analytically  !
 --------------------------------------------------------------------------------
 Trust Radius=3.00D-01 FncErr=1.00D-07 GrdErr=1.00D-06 EigMax=2.50D+02 EigMin=1.00D-04
 Number of steps in this run=    100 maximum allowed number of steps=    100.
 GradGradGradGradGradGradGradGradGradGradGradGradGradGradGradGradGradGrad

 Leave Link  103 at Tue Sep 24 17:14:16 2019, MaxMem=   671088640 cpu:               1.4 elap:               0.7
 (Enter /shared/centos7/gaussian/g16/l202.exe)
                          Input orientation:                          
 ---------------------------------------------------------------------
 Center     Atomic      Atomic             Coordinates (Angstroms)
 Number     Number       Type             X           Y           Z
 ---------------------------------------------------------------------
      1          8           0        0.186535   -0.783661    1.044255
      2          8           0       -1.338208    1.882780    0.215612
      3          6           0       -1.215007   -1.055393    0.972079
      4          6           0        0.585764    0.541113    0.921081
      5          6           0       -0.031915    1.647870    0.582651
      6          1           0       -1.576178   -1.470675    1.956724
      7          1           0       -1.816734   -0.130982    0.739526
      8          1           0       -1.388421   -1.802287    0.197116
      9          1           0        1.654363    0.609082    1.115774
     10          1           0        0.533568    2.555111    0.586524
     11          1           0       -1.651009    1.081941   -0.327369
 ---------------------------------------------------------------------
                    Distance matrix (angstroms):
                    1          2          3          4          5
     1  O    0.000000
     2  O    3.181414   0.000000
     3  C    1.429464   3.036492   0.000000
     4  C    1.389094   2.449372   2.407117   0.000000
     5  C    2.484581   1.377063   2.976406   1.311858   0.000000
     6  H    2.100415   3.785996   1.128020   3.129512   3.741410
     7  H    2.128834   2.135114   1.127250   2.501334   2.524778
     8  H    2.058089   3.685456   1.090179   3.148501   3.727242
     9  H    2.024689   3.374623   3.320302   1.088314   2.051057
    10  H    3.387824   2.023153   4.030125   2.042264   1.069052
    11  H    2.956077   1.016866   2.539066   2.618067   1.941617
                    6          7          8          9         10
     6  H    0.000000
     7  H    1.825984   0.000000
     8  H    1.800399   1.808569   0.000000
     9  H    3.933062   3.569001   3.989632   0.000000
    10  H    4.747150   3.572454   4.778347   2.307232   0.000000
    11  H    3.426154   1.623857   2.943265   3.637546   2.788872
                   11
    11  H    0.000000
 Stoichiometry    C3H6O2
 Framework group  C1[X(C3H6O2)]
 Deg. of freedom    27
 Full point group                 C1      NOp   1
 Largest Abelian subgroup         C1      NOp   1
 Largest concise Abelian subgroup C1      NOp   1
                         Standard orientation:                         
 ---------------------------------------------------------------------
 Center     Atomic      Atomic             Coordinates (Angstroms)
 Number     Number       Type             X           Y           Z
 ---------------------------------------------------------------------
      1          8           0        1.245188    0.595556   -0.087375
      2          8           0       -1.565463   -0.891537    0.013579
      3          6           0        1.469402   -0.807747    0.067008
      4          6           0       -0.065909    1.045131    0.004774
      5          6           0       -1.231010    0.443827    0.048875
      6          1           0        2.091233   -0.997468    0.988834
      7          1           0        0.506175   -1.384359    0.169003
      8          1           0        2.017678   -1.173369   -0.801442
      9          1           0       -0.069585    2.133337   -0.010117
     10          1           0       -2.103848    1.054740    0.137261
     11          1           0       -0.914355   -1.352299   -0.617114
 ---------------------------------------------------------------------
 Rotational constants (GHZ):           9.1519872           4.0423312           2.8759711
 Leave Link  202 at Tue Sep 24 17:14:18 2019, MaxMem=   671088640 cpu:               3.6 elap:               1.8
 (Enter /shared/centos7/gaussian/g16/l301.exe)
 Standard basis: CC-pVTZ (5D, 7F)
 Ernie: Thresh=  0.10000D-02 Tol=  0.10000D-05 Strict=F.
 Ernie:  15 primitive shells out of 178 were deleted.
 There are   265 symmetry adapted cartesian basis functions of A   symmetry.
 There are   234 symmetry adapted basis functions of A   symmetry.
   234 basis functions,   362 primitive gaussians,   265 cartesian basis functions
    20 alpha electrons       20 beta electrons
       nuclear repulsion energy       178.0477477881 Hartrees.
 IExCor= 4336 DFT=T Ex+Corr=M062X ExCW=0 ScaHFX=  0.540000
 ScaDFX=  1.000000  1.000000  1.000000  1.000000 ScalE2=  1.000000  1.000000
 IRadAn=      5 IRanWt=     -1 IRanGd=            0 ICorTp=0 IEmpDi=  4
 NAtoms=   11 NActive=   11 NUniq=   11 SFac= 1.00D+00 NAtFMM=   60 NAOKFM=F Big=F
 Integral buffers will be    131072 words long.
 Raffenetti 2 integral format.
 Two-electron integral symmetry is turned on.
 Leave Link  301 at Tue Sep 24 17:14:19 2019, MaxMem=   671088640 cpu:               1.5 elap:               0.8
 (Enter /shared/centos7/gaussian/g16/l302.exe)
 NPDir=0 NMtPBC=     1 NCelOv=     1 NCel=       1 NClECP=     1 NCelD=      1
         NCelK=      1 NCelE2=     1 NClLst=     1 CellRange=     0.0.
 One-electron integrals computed using PRISM.
 One-electron integral symmetry used in STVInt
 NBasis=   234 RedAO= T EigKep=  3.88D-04  NBF=   234
 NBsUse=   234 1.00D-06 EigRej= -1.00D+00 NBFU=   234
 Precomputing XC quadrature grid using
 IXCGrd= 4 IRadAn=           5 IRanWt=          -1 IRanGd=           0 AccXCQ= 0.00D+00.
 Generated NRdTot=       0 NPtTot=           0 NUsed=           0 NTot=          32
 NSgBfM=   265   265   265   265   265 MxSgAt=    11 MxSgA2=    11.
 Leave Link  302 at Tue Sep 24 17:15:30 2019, MaxMem=   671088640 cpu:             141.6 elap:              70.8
 (Enter /shared/centos7/gaussian/g16/l303.exe)
 DipDrv:  MaxL=1.
 Leave Link  303 at Tue Sep 24 17:15:34 2019, MaxMem=   671088640 cpu:               8.3 elap:               4.2
 (Enter /shared/centos7/gaussian/g16/l401.exe)
 ExpMin= 1.03D-01 ExpMax= 1.53D+04 ExpMxC= 5.22D+02 IAcc=3 IRadAn=         5 AccDes= 0.00D+00
 Harris functional with IExCor= 1009 and IRadAn=       5 diagonalized for initial guess.
 HarFok:  IExCor= 1009 AccDes= 0.00D+00 IRadAn=         5 IDoV= 1 UseB2=F ITyADJ=14
 ICtDFT=  3500011 ScaDFX=  1.000000  1.000000  1.000000  1.000000
 FoFCou: FMM=F IPFlag=           0 FMFlag=      100000 FMFlg1=           0
         NFxFlg=           0 DoJE=T BraDBF=F KetDBF=T FulRan=T
         wScrn=  0.000000 ICntrl=       500 IOpCl=  0 I1Cent=   200000004 NGrid=           0
         NMat0=    1 NMatS0=      1 NMatT0=    0 NMatD0=    1 NMtDS0=    0 NMtDT0=    0
 Petite list used in FoFCou.
 Harris En= -268.188232411779    
 JPrj=0 DoOrth=F DoCkMO=F.
 Leave Link  401 at Tue Sep 24 17:15:57 2019, MaxMem=   671088640 cpu:              46.4 elap:              23.2
 (Enter /shared/centos7/gaussian/g16/l502.exe)
 Keep R1 ints in memory in canonical form, NReq=399924305.
 FoFCou: FMM=F IPFlag=           0 FMFlag=           0 FMFlg1=           0
         NFxFlg=           0 DoJE=F BraDBF=F KetDBF=F FulRan=T
         wScrn=  0.000000 ICntrl=       600 IOpCl=  0 I1Cent=           0 NGrid=           0
         NMat0=    1 NMatS0=  27495 NMatT0=    0 NMatD0=    1 NMtDS0=    0 NMtDT0=    0
 Symmetry not used in FoFCou.
 Two-electron integral symmetry not used.
 Closed shell SCF:
 Using DIIS extrapolation, IDIIS=  1040.
 NGot=   671088640 LenX=   292939207 LenY=   292868541
 Requested convergence on RMS density matrix=1.00D-08 within 900 cycles.
 Requested convergence on MAX density matrix=1.00D-06.
 Requested convergence on             energy=1.00D-06.
 No special actions if energy rises.
 Integral accuracy reduced to 1.0D-05 until final iterations.

 Cycle   1  Pass 0  IDiag  1:
 E= -268.178406987706    
 DIIS: error= 1.43D-02 at cycle   1 NSaved=   1.
 NSaved= 1 IEnMin= 1 EnMin= -268.178406987706     IErMin= 1 ErrMin= 1.43D-02
 ErrMax= 1.43D-02  0.00D+00 EMaxC= 1.00D-01 BMatC= 1.70D-01 BMatP= 1.70D-01
 IDIUse=3 WtCom= 8.57D-01 WtEn= 1.43D-01
 Coeff-Com:  0.100D+01
 Coeff-En:   0.100D+01
 Coeff:      0.100D+01
 Gap=     0.359 Goal=   None    Shift=    0.000
 GapD=    0.359 DampG=1.000 DampE=0.500 DampFc=0.5000 IDamp=-1.
 Damping current iteration by 5.00D-01
 RMSDP=2.04D-03 MaxDP=7.16D-02              OVMax= 1.11D-01

 Cycle   2  Pass 0  IDiag  1:
 E= -268.242658006883     Delta-E=       -0.064251019177 Rises=F Damp=T
 DIIS: error= 4.98D-03 at cycle   2 NSaved=   2.
 NSaved= 2 IEnMin= 2 EnMin= -268.242658006883     IErMin= 2 ErrMin= 4.98D-03
 ErrMax= 4.98D-03  0.00D+00 EMaxC= 1.00D-01 BMatC= 1.66D-02 BMatP= 1.70D-01
 IDIUse=3 WtCom= 9.50D-01 WtEn= 4.98D-02
 Coeff-Com: -0.192D+00 0.119D+01
 Coeff-En:   0.000D+00 0.100D+01
 Coeff:     -0.182D+00 0.118D+01
 Gap=     0.329 Goal=   None    Shift=    0.000
 RMSDP=4.14D-04 MaxDP=1.09D-02 DE=-6.43D-02 OVMax= 5.09D-02

 Cycle   3  Pass 0  IDiag  1:
 E= -268.297784232746     Delta-E=       -0.055126225863 Rises=F Damp=F
 DIIS: error= 2.85D-03 at cycle   3 NSaved=   3.
 NSaved= 3 IEnMin= 3 EnMin= -268.297784232746     IErMin= 3 ErrMin= 2.85D-03
 ErrMax= 2.85D-03  0.00D+00 EMaxC= 1.00D-01 BMatC= 3.98D-03 BMatP= 1.66D-02
 IDIUse=3 WtCom= 9.71D-01 WtEn= 2.85D-02
 Coeff-Com: -0.123D+00 0.414D+00 0.710D+00
 Coeff-En:   0.000D+00 0.000D+00 0.100D+01
 Coeff:     -0.120D+00 0.402D+00 0.718D+00
 Gap=     0.329 Goal=   None    Shift=    0.000
 RMSDP=2.22D-04 MaxDP=6.85D-03 DE=-5.51D-02 OVMax= 1.86D-02

 Cycle   4  Pass 0  IDiag  1:
 E= -268.299802019342     Delta-E=       -0.002017786596 Rises=F Damp=F
 DIIS: error= 1.26D-03 at cycle   4 NSaved=   4.
 NSaved= 4 IEnMin= 4 EnMin= -268.299802019342     IErMin= 4 ErrMin= 1.26D-03
 ErrMax= 1.26D-03  0.00D+00 EMaxC= 1.00D-01 BMatC= 8.52D-04 BMatP= 3.98D-03
 IDIUse=3 WtCom= 9.87D-01 WtEn= 1.26D-02
 Coeff-Com: -0.372D-01 0.931D-01 0.359D+00 0.585D+00
 Coeff-En:   0.000D+00 0.000D+00 0.168D+00 0.832D+00
 Coeff:     -0.367D-01 0.919D-01 0.357D+00 0.588D+00
 Gap=     0.324 Goal=   None    Shift=    0.000
 RMSDP=8.43D-05 MaxDP=2.61D-03 DE=-2.02D-03 OVMax= 8.24D-03

 Cycle   5  Pass 0  IDiag  1:
 E= -268.300450345507     Delta-E=       -0.000648326164 Rises=F Damp=F
 DIIS: error= 2.20D-04 at cycle   5 NSaved=   5.
 NSaved= 5 IEnMin= 5 EnMin= -268.300450345507     IErMin= 5 ErrMin= 2.20D-04
 ErrMax= 2.20D-04  0.00D+00 EMaxC= 1.00D-01 BMatC= 2.09D-05 BMatP= 8.52D-04
 IDIUse=3 WtCom= 9.98D-01 WtEn= 2.20D-03
 Coeff-Com: -0.711D-02 0.137D-01 0.947D-01 0.223D+00 0.675D+00
 Coeff-En:   0.000D+00 0.000D+00 0.000D+00 0.000D+00 0.100D+01
 Coeff:     -0.709D-02 0.137D-01 0.945D-01 0.223D+00 0.676D+00
 Gap=     0.325 Goal=   None    Shift=    0.000
 RMSDP=1.46D-05 MaxDP=4.52D-04 DE=-6.48D-04 OVMax= 1.81D-03

 Cycle   6  Pass 0  IDiag  1:
 E= -268.300467610593     Delta-E=       -0.000017265087 Rises=F Damp=F
 DIIS: error= 5.95D-05 at cycle   6 NSaved=   6.
 NSaved= 6 IEnMin= 6 EnMin= -268.300467610593     IErMin= 6 ErrMin= 5.95D-05
 ErrMax= 5.95D-05  0.00D+00 EMaxC= 1.00D-01 BMatC= 1.75D-06 BMatP= 2.09D-05
 IDIUse=1 WtCom= 1.00D+00 WtEn= 0.00D+00
 Coeff-Com: -0.156D-02 0.210D-02 0.270D-01 0.787D-01 0.304D+00 0.590D+00
 Coeff:     -0.156D-02 0.210D-02 0.270D-01 0.787D-01 0.304D+00 0.590D+00
 Gap=     0.325 Goal=   None    Shift=    0.000
 RMSDP=4.29D-06 MaxDP=1.29D-04 DE=-1.73D-05 OVMax= 4.67D-04

 Initial convergence to 1.0D-05 achieved.  Increase integral accuracy.
 Cycle   7  Pass 1  IDiag  1:
 E= -268.300497554777     Delta-E=       -0.000029944184 Rises=F Damp=F
 DIIS: error= 2.13D-05 at cycle   1 NSaved=   1.
 NSaved= 1 IEnMin= 1 EnMin= -268.300497554777     IErMin= 1 ErrMin= 2.13D-05
 ErrMax= 2.13D-05  0.00D+00 EMaxC= 1.00D-01 BMatC= 3.74D-07 BMatP= 3.74D-07
 IDIUse=1 WtCom= 1.00D+00 WtEn= 0.00D+00
 Coeff-Com:  0.100D+01
 Coeff:      0.100D+01
 Gap=     0.325 Goal=   None    Shift=    0.000
 RMSDP=4.29D-06 MaxDP=1.29D-04 DE=-2.99D-05 OVMax= 3.81D-04

 Cycle   8  Pass 1  IDiag  1:
 E= -268.300497574322     Delta-E=       -0.000000019545 Rises=F Damp=F
 DIIS: error= 2.56D-05 at cycle   2 NSaved=   2.
 NSaved= 2 IEnMin= 2 EnMin= -268.300497574322     IErMin= 1 ErrMin= 2.13D-05
 ErrMax= 2.56D-05  0.00D+00 EMaxC= 1.00D-01 BMatC= 4.01D-07 BMatP= 3.74D-07
 IDIUse=1 WtCom= 1.00D+00 WtEn= 0.00D+00
 Coeff-Com:  0.511D+00 0.489D+00
 Coeff:      0.511D+00 0.489D+00
 Gap=     0.325 Goal=   None    Shift=    0.000
 RMSDP=1.92D-06 MaxDP=5.80D-05 DE=-1.95D-08 OVMax= 2.29D-04

 Cycle   9  Pass 1  IDiag  1:
 E= -268.300497859777     Delta-E=       -0.000000285455 Rises=F Damp=F
 DIIS: error= 5.91D-06 at cycle   3 NSaved=   3.
 NSaved= 3 IEnMin= 3 EnMin= -268.300497859777     IErMin= 3 ErrMin= 5.91D-06
 ErrMax= 5.91D-06  0.00D+00 EMaxC= 1.00D-01 BMatC= 1.66D-08 BMatP= 3.74D-07
 IDIUse=1 WtCom= 1.00D+00 WtEn= 0.00D+00
 Coeff-Com: -0.246D-01 0.151D+00 0.874D+00
 Coeff:     -0.246D-01 0.151D+00 0.874D+00
 Gap=     0.325 Goal=   None    Shift=    0.000
 RMSDP=4.89D-07 MaxDP=1.32D-05 DE=-2.85D-07 OVMax= 5.57D-05

 Cycle  10  Pass 1  IDiag  1:
 E= -268.300497874186     Delta-E=       -0.000000014409 Rises=F Damp=F
 DIIS: error= 1.48D-06 at cycle   4 NSaved=   4.
 NSaved= 4 IEnMin= 4 EnMin= -268.300497874186     IErMin= 4 ErrMin= 1.48D-06
 ErrMax= 1.48D-06  0.00D+00 EMaxC= 1.00D-01 BMatC= 8.51D-10 BMatP= 1.66D-08
 IDIUse=1 WtCom= 1.00D+00 WtEn= 0.00D+00
 Coeff-Com: -0.212D-01 0.360D-01 0.312D+00 0.673D+00
 Coeff:     -0.212D-01 0.360D-01 0.312D+00 0.673D+00
 Gap=     0.325 Goal=   None    Shift=    0.000
 RMSDP=1.09D-07 MaxDP=2.50D-06 DE=-1.44D-08 OVMax= 8.04D-06

 Cycle  11  Pass 1  IDiag  1:
 E= -268.300497874899     Delta-E=       -0.000000000712 Rises=F Damp=F
 DIIS: error= 5.16D-07 at cycle   5 NSaved=   5.
 NSaved= 5 IEnMin= 5 EnMin= -268.300497874899     IErMin= 5 ErrMin= 5.16D-07
 ErrMax= 5.16D-07  0.00D+00 EMaxC= 1.00D-01 BMatC= 1.26D-10 BMatP= 8.51D-10
 IDIUse=1 WtCom= 1.00D+00 WtEn= 0.00D+00
 Coeff-Com: -0.523D-02-0.944D-02 0.276D-02 0.248D+00 0.764D+00
 Coeff:     -0.523D-02-0.944D-02 0.276D-02 0.248D+00 0.764D+00
 Gap=     0.325 Goal=   None    Shift=    0.000
 RMSDP=5.07D-08 MaxDP=1.71D-06 DE=-7.12D-10 OVMax= 3.74D-06

 Cycle  12  Pass 1  IDiag  1:
 E= -268.300497875005     Delta-E=       -0.000000000106 Rises=F Damp=F
 DIIS: error= 2.20D-07 at cycle   6 NSaved=   6.
 NSaved= 6 IEnMin= 6 EnMin= -268.300497875005     IErMin= 6 ErrMin= 2.20D-07
 ErrMax= 2.20D-07  0.00D+00 EMaxC= 1.00D-01 BMatC= 2.17D-11 BMatP= 1.26D-10
 IDIUse=1 WtCom= 1.00D+00 WtEn= 0.00D+00
 Coeff-Com:  0.136D-02-0.104D-01-0.484D-01-0.626D-02 0.345D+00 0.718D+00
 Coeff:      0.136D-02-0.104D-01-0.484D-01-0.626D-02 0.345D+00 0.718D+00
 Gap=     0.325 Goal=   None    Shift=    0.000
 RMSDP=2.32D-08 MaxDP=6.73D-07 DE=-1.06D-10 OVMax= 1.83D-06

 Cycle  13  Pass 1  IDiag  1:
 E= -268.300497875023     Delta-E=       -0.000000000018 Rises=F Damp=F
 DIIS: error= 3.61D-08 at cycle   7 NSaved=   7.
 NSaved= 7 IEnMin= 7 EnMin= -268.300497875023     IErMin= 7 ErrMin= 3.61D-08
 ErrMax= 3.61D-08  0.00D+00 EMaxC= 1.00D-01 BMatC= 7.81D-13 BMatP= 2.17D-11
 IDIUse=1 WtCom= 1.00D+00 WtEn= 0.00D+00
 Coeff-Com:  0.712D-03-0.278D-02-0.148D-01-0.165D-01 0.671D-01 0.218D+00
 Coeff-Com:  0.748D+00
 Coeff:      0.712D-03-0.278D-02-0.148D-01-0.165D-01 0.671D-01 0.218D+00
 Coeff:      0.748D+00
 Gap=     0.325 Goal=   None    Shift=    0.000
 RMSDP=4.16D-09 MaxDP=1.04D-07 DE=-1.85D-11 OVMax= 4.35D-07

 SCF Done:  E(RM062X) =  -268.300497875     A.U. after   13 cycles
            NFock= 13  Conv=0.42D-08     -V/T= 2.0061
 KE= 2.666851537858D+02 PE=-9.842389184720D+02 EE= 2.712055190231D+02
 Leave Link  502 at Tue Sep 24 17:20:39 2019, MaxMem=   671088640 cpu:             555.6 elap:             281.3
 (Enter /shared/centos7/gaussian/g16/l801.exe)
 DoSCS=F DFT=T ScalE2(SS,OS)=  1.000000  1.000000
 Range of M.O.s used for correlation:     1   234
 NBasis=   234 NAE=    20 NBE=    20 NFC=     0 NFV=     0
 NROrb=    234 NOA=    20 NOB=    20 NVA=   214 NVB=   214

 **** Warning!!: The largest alpha MO coefficient is  0.11459880D+02

 Leave Link  801 at Tue Sep 24 17:20:39 2019, MaxMem=   671088640 cpu:               1.4 elap:               0.7
 (Enter /shared/centos7/gaussian/g16/l1101.exe)
 Using compressed storage, NAtomX=    11.
 Will process     12 centers per pass.
 Leave Link 1101 at Tue Sep 24 17:21:00 2019, MaxMem=   671088640 cpu:              41.2 elap:              20.6
 (Enter /shared/centos7/gaussian/g16/l1102.exe)
 Symmetrizing basis deriv contribution to polar:
 IMax=3 JMax=2 DiffMx= 0.00D+00
 Leave Link 1102 at Tue Sep 24 17:21:02 2019, MaxMem=   671088640 cpu:               4.8 elap:               2.4
 (Enter /shared/centos7/gaussian/g16/l1110.exe)
 Forming Gx(P) for the SCF density, NAtomX=    11.
 Integral derivatives from FoFJK, PRISM(SPDF).
 Do as many integral derivatives as possible in FoFJK.
 G2DrvN: MDV=     671087712.
 G2DrvN: will do    12 centers at a time, making    1 passes.
 Calling FoFCou, ICntrl=  3107 FMM=F I1Cent=   0 AccDes= 0.00D+00.
 FoFJK:  IHMeth= 1 ICntrl=    3107 DoSepK=F KAlg= 0 I1Cent=           0 FoldK=F
 IRaf=         0 NMat=       1 IRICut=       1 DoRegI=T DoRafI=F ISym2E= 0 IDoP0=0 IntGTp=1.
 FoFCou: FMM=F IPFlag=           0 FMFlag=      100000 FMFlg1=           0
         NFxFlg=           0 DoJE=F BraDBF=F KetDBF=F FulRan=T
         wScrn=  0.000000 ICntrl=      3107 IOpCl=  0 I1Cent=           0 NGrid=           0
         NMat0=    1 NMatS0=      1 NMatT0=    0 NMatD0=    1 NMtDS0=    0 NMtDT0=    0
 Symmetry not used in FoFCou.
 End of G2Drv F.D. properties file   721 does not exist.
 End of G2Drv F.D. properties file   722 does not exist.
 End of G2Drv F.D. properties file   788 does not exist.
 Leave Link 1110 at Tue Sep 24 17:26:40 2019, MaxMem=   671088640 cpu:             674.2 elap:             337.2
 (Enter /shared/centos7/gaussian/g16/l1002.exe)
 Minotr:  Closed shell wavefunction.
          IDoAtm=11111111111
          Direct CPHF calculation.
          Differentiating once with respect to nuclear coordinates.
          Requested convergence is 1.0D-08 RMS, and 1.0D-07 maximum.
          Secondary convergence is 1.0D-12 RMS, and 1.0D-12 maximum.
          NewPWx=T KeepS1=F KeepF1=F KeepIn=T MapXYZ=F SortEE=F KeepMc=T.
         3265 words used for storage of precomputed grid.
 Keep R1 ints in memory in canonical form, NReq=399865264.
 FoFCou: FMM=F IPFlag=           0 FMFlag=           0 FMFlg1=           0
         NFxFlg=           0 DoJE=F BraDBF=F KetDBF=F FulRan=T
         wScrn=  0.000000 ICntrl=       600 IOpCl=  0 I1Cent=           0 NGrid=           0
         NMat0=    1 NMatS0=  27495 NMatT0=    0 NMatD0=    1 NMtDS0=    0 NMtDT0=    0
 Symmetry not used in FoFCou.
 Two-electron integral symmetry not used.
          MDV=     671088640 using IRadAn=       1.
          Solving linear equations simultaneously, MaxMat=       0.
          There are    36 degrees of freedom in the 1st order CPHF.  IDoFFX=6 NUNeed=     0.
     30 vectors produced by pass  0 Test12= 1.19D-14 2.78D-09 XBig12= 5.96D-02 8.80D-02.
 AX will form    30 AO Fock derivatives at one time.
     30 vectors produced by pass  1 Test12= 1.19D-14 2.78D-09 XBig12= 9.61D-03 3.45D-02.
     30 vectors produced by pass  2 Test12= 1.19D-14 2.78D-09 XBig12= 3.01D-04 4.17D-03.
     30 vectors produced by pass  3 Test12= 1.19D-14 2.78D-09 XBig12= 3.61D-06 2.87D-04.
     30 vectors produced by pass  4 Test12= 1.19D-14 2.78D-09 XBig12= 2.59D-08 2.94D-05.
     30 vectors produced by pass  5 Test12= 1.19D-14 2.78D-09 XBig12= 1.19D-10 1.78D-06.
     19 vectors produced by pass  6 Test12= 1.19D-14 2.78D-09 XBig12= 5.44D-13 1.50D-07.
      2 vectors produced by pass  7 Test12= 1.19D-14 2.78D-09 XBig12= 2.03D-15 5.49D-09.
 InvSVY:  IOpt=1 It=  1 EMax= 1.11D-15
 Solved reduced A of dimension   201 with    30 vectors.
 End of Minotr F.D. properties file   721 does not exist.
 End of Minotr F.D. properties file   722 does not exist.
 End of Minotr F.D. properties file   788 does not exist.
 Leave Link 1002 at Tue Sep 24 17:34:34 2019, MaxMem=   671088640 cpu:             949.2 elap:             474.7
 (Enter /shared/centos7/gaussian/g16/l601.exe)
 Copying SCF densities to generalized density rwf, IOpCl= 0 IROHF=0.

 **********************************************************************

            Population analysis using the SCF density.

 **********************************************************************

 Orbital symmetries:
       Occupied  (A) (A) (A) (A) (A) (A) (A) (A) (A) (A) (A) (A)
                 (A) (A) (A) (A) (A) (A) (A) (A)
       Virtual   (A) (A) (A) (A) (A) (A) (A) (A) (A) (A) (A) (A)
                 (A) (A) (A) (A) (A) (A) (A) (A) (A) (A) (A) (A)
                 (A) (A) (A) (A) (A) (A) (A) (A) (A) (A) (A) (A)
                 (A) (A) (A) (A) (A) (A) (A) (A) (A) (A) (A) (A)
                 (A) (A) (A) (A) (A) (A) (A) (A) (A) (A) (A) (A)
                 (A) (A) (A) (A) (A) (A) (A) (A) (A) (A) (A) (A)
                 (A) (A) (A) (A) (A) (A) (A) (A) (A) (A) (A) (A)
                 (A) (A) (A) (A) (A) (A) (A) (A) (A) (A) (A) (A)
                 (A) (A) (A) (A) (A) (A) (A) (A) (A) (A) (A) (A)
                 (A) (A) (A) (A) (A) (A) (A) (A) (A) (A) (A) (A)
                 (A) (A) (A) (A) (A) (A) (A) (A) (A) (A) (A) (A)
                 (A) (A) (A) (A) (A) (A) (A) (A) (A) (A) (A) (A)
                 (A) (A) (A) (A) (A) (A) (A) (A) (A) (A) (A) (A)
                 (A) (A) (A) (A) (A) (A) (A) (A) (A) (A) (A) (A)
                 (A) (A) (A) (A) (A) (A) (A) (A) (A) (A) (A) (A)
                 (A) (A) (A) (A) (A) (A) (A) (A) (A) (A) (A) (A)
                 (A) (A) (A) (A) (A) (A) (A) (A) (A) (A) (A) (A)
                 (A) (A) (A) (A) (A) (A) (A) (A) (A) (A)
 The electronic state is 1-A.
 Alpha  occ. eigenvalues --  -19.65500 -19.65310 -10.60043 -10.58790 -10.58231
 Alpha  occ. eigenvalues --   -1.18193  -1.16221  -0.86358  -0.79038  -0.68561
 Alpha  occ. eigenvalues --   -0.59885  -0.58913  -0.54291  -0.51102  -0.50118
 Alpha  occ. eigenvalues --   -0.45913  -0.45422  -0.41621  -0.38221  -0.27705
 Alpha virt. eigenvalues --    0.04768   0.08304   0.09159   0.10826   0.12824
 Alpha virt. eigenvalues --    0.13798   0.14432   0.16425   0.22858   0.26693
 Alpha virt. eigenvalues --    0.28417   0.31490   0.33947   0.34363   0.35618
 Alpha virt. eigenvalues --    0.36805   0.38596   0.39902   0.43255   0.44742
 Alpha virt. eigenvalues --    0.46625   0.47051   0.48444   0.49726   0.52224
 Alpha virt. eigenvalues --    0.54958   0.57280   0.58216   0.58504   0.62456
 Alpha virt. eigenvalues --    0.65831   0.69901   0.71286   0.72006   0.78560
 Alpha virt. eigenvalues --    0.79331   0.81181   0.83703   0.85466   0.88096
 Alpha virt. eigenvalues --    0.89769   0.93512   0.96084   0.99210   1.02439
 Alpha virt. eigenvalues --    1.04166   1.04904   1.07952   1.10484   1.12110
 Alpha virt. eigenvalues --    1.13953   1.16011   1.19839   1.20999   1.23014
 Alpha virt. eigenvalues --    1.25921   1.26853   1.31344   1.32745   1.36053
 Alpha virt. eigenvalues --    1.38403   1.39670   1.41163   1.44026   1.48503
 Alpha virt. eigenvalues --    1.51898   1.54509   1.57566   1.71694   1.78550
 Alpha virt. eigenvalues --    1.86264   1.93089   1.97742   1.99188   2.02688
 Alpha virt. eigenvalues --    2.05698   2.10126   2.13011   2.13306   2.17515
 Alpha virt. eigenvalues --    2.23383   2.26167   2.26748   2.28555   2.32002
 Alpha virt. eigenvalues --    2.38325   2.42847   2.48659   2.53928   2.58445
 Alpha virt. eigenvalues --    2.60435   2.65749   2.67993   2.71230   2.75913
 Alpha virt. eigenvalues --    2.77759   2.78401   2.80790   2.84195   2.89191
 Alpha virt. eigenvalues --    2.91981   2.94140   2.95224   2.95724   2.98523
 Alpha virt. eigenvalues --    3.01158   3.03889   3.04834   3.05425   3.09876
 Alpha virt. eigenvalues --    3.11664   3.12931   3.16256   3.17089   3.22192
 Alpha virt. eigenvalues --    3.23375   3.25148   3.27129   3.28485   3.30628
 Alpha virt. eigenvalues --    3.33699   3.34786   3.38033   3.38492   3.40994
 Alpha virt. eigenvalues --    3.44414   3.47727   3.52149   3.53257   3.58556
 Alpha virt. eigenvalues --    3.61899   3.62395   3.67049   3.68482   3.68687
 Alpha virt. eigenvalues --    3.72209   3.77695   3.77957   3.80265   3.81946
 Alpha virt. eigenvalues --    3.84328   3.88971   3.90338   3.90957   3.93258
 Alpha virt. eigenvalues --    3.98306   4.01028   4.03338   4.05743   4.09123
 Alpha virt. eigenvalues --    4.10492   4.13798   4.17575   4.22097   4.25835
 Alpha virt. eigenvalues --    4.30658   4.33115   4.36638   4.40780   4.46881
 Alpha virt. eigenvalues --    4.51620   4.54037   4.58229   4.69200   4.70971
 Alpha virt. eigenvalues --    4.72652   4.75517   4.81780   4.85383   4.87366
 Alpha virt. eigenvalues --    4.91234   4.92299   4.97469   4.98938   5.03693
 Alpha virt. eigenvalues --    5.06005   5.09087   5.13943   5.19383   5.31933
 Alpha virt. eigenvalues --    5.36245   5.43992   5.47086   5.54200   5.59614
 Alpha virt. eigenvalues --    5.67571   5.70547   5.76751   5.79670   5.90192
 Alpha virt. eigenvalues --    5.98918   6.06629   6.17838   6.27466   6.36150
 Alpha virt. eigenvalues --    6.38494   6.52129   6.60907   6.62316   6.69561
 Alpha virt. eigenvalues --    6.75804   6.81785   6.87526   6.93751   6.98165
 Alpha virt. eigenvalues --    7.12922   7.18328   7.28886   7.35595   9.88002
 Alpha virt. eigenvalues --   10.73826  12.04678  12.87020  14.01291
          Condensed to atoms (all electrons):
               1          2          3          4          5          6
     1  O    7.819862   0.003264   0.286157   0.349632  -0.062376  -0.039926
     2  O    0.003264   7.804685  -0.015873  -0.067163   0.327639   0.000127
     3  C    0.286157  -0.015873   4.748478  -0.046639  -0.017530   0.398711
     4  C    0.349632  -0.067163  -0.046639   4.993100   0.509703   0.005147
     5  C   -0.062376   0.327639  -0.017530   0.509703   4.990329   0.000079
     6  H   -0.039926   0.000127   0.398711   0.005147   0.000079   0.624377
     7  H   -0.036836   0.011416   0.371496  -0.023552   0.011864  -0.044731
     8  H   -0.038690   0.000139   0.389577  -0.000039   0.002049  -0.048307
     9  H   -0.035614   0.003986   0.006971   0.410814  -0.067264   0.000078
    10  H    0.004117  -0.044456  -0.000452  -0.075296   0.418689   0.000024
    11  H    0.002154   0.326393   0.004805  -0.011965  -0.044943   0.001513
               7          8          9         10         11
     1  O   -0.036836  -0.038690  -0.035614   0.004117   0.002154
     2  O    0.011416   0.000139   0.003986  -0.044456   0.326393
     3  C    0.371496   0.389577   0.006971  -0.000452   0.004805
     4  C   -0.023552  -0.000039   0.410814  -0.075296  -0.011965
     5  C    0.011864   0.002049  -0.067264   0.418689  -0.044943
     6  H   -0.044731  -0.048307   0.000078   0.000024   0.001513
     7  H    0.704543  -0.039463  -0.000513  -0.000135  -0.016387
     8  H   -0.039463   0.627925  -0.000481   0.000085  -0.001560
     9  H   -0.000513  -0.000481   0.538721  -0.006603  -0.000187
    10  H   -0.000135   0.000085  -0.006603   0.551269   0.004715
    11  H   -0.016387  -0.001560  -0.000187   0.004715   0.467977
 Mulliken charges:
               1
     1  O   -0.251745
     2  O   -0.350158
     3  C   -0.125702
     4  C   -0.043742
     5  C   -0.068241
     6  H    0.102908
     7  H    0.062297
     8  H    0.108765
     9  H    0.150090
    10  H    0.148043
    11  H    0.267484
 Sum of Mulliken charges =  -0.00000
 Mulliken charges with hydrogens summed into heavy atoms:
               1
     1  O   -0.251745
     2  O   -0.082674
     3  C    0.148269
     4  C    0.106348
     5  C    0.079802
 APT charges:
               1
     1  O   -0.160037
     2  O   -0.357952
     3  C   -0.819072
     4  C   -0.434197
     5  C   -0.458218
     6  H    0.404373
     7  H    0.144003
     8  H    0.389996
     9  H    0.458974
    10  H    0.473789
    11  H    0.358340
 Sum of APT charges =  -0.00000
 APT charges with hydrogens summed into heavy atoms:
               1
     1  O   -0.160037
     2  O    0.000388
     3  C    0.119300
     4  C    0.024777
     5  C    0.015572
 Electronic spatial extent (au):  <R**2>=            435.4125
 Charge=             -0.0000 electrons
 Dipole moment (field-independent basis, Debye):
    X=              0.6657    Y=             -0.8528    Z=             -0.6718  Tot=              1.2735
 Quadrupole moment (field-independent basis, Debye-Ang):
   XX=            -32.7976   YY=            -27.6454   ZZ=            -31.2899
   XY=             -4.7050   XZ=              0.8890   YZ=              1.7106
 Traceless Quadrupole moment (field-independent basis, Debye-Ang):
   XX=             -2.2199   YY=              2.9322   ZZ=             -0.7123
   XY=             -4.7050   XZ=              0.8890   YZ=              1.7106
 Octapole moment (field-independent basis, Debye-Ang**2):
  XXX=              3.2131  YYY=             -0.1564  ZZZ=             -1.3010  XYY=             -0.2369
  XXY=              0.7067  XXZ=              0.7829  XZZ=              1.5477  YZZ=             -3.6564
  YYZ=             -2.5703  XYZ=             -1.5295
 Hexadecapole moment (field-independent basis, Debye-Ang**3):
 XXXX=           -334.3658 YYYY=           -159.7870 ZZZZ=            -40.3144 XXXY=            -14.3853
 XXXZ=             -0.9381 YYYX=              7.1072 YYYZ=              3.9694 ZZZX=              0.7141
 ZZZY=              1.3109 XXYY=            -87.4114 XXZZ=            -60.6692 YYZZ=            -36.6374
 XXYZ=              2.0332 YYXZ=              1.6514 ZZXY=              2.6680
 N-N= 1.780477477881D+02 E-N=-9.842389063471D+02  KE= 2.666851537858D+02
  Exact polarizability:   0.000   0.000   0.000   0.000   0.000   0.000
 Approx polarizability:  63.445   4.336  52.872  -1.201   0.722  39.732
 No NMR shielding tensors so no spin-rotation constants.
 Leave Link  601 at Tue Sep 24 17:34:58 2019, MaxMem=   671088640 cpu:              47.7 elap:              23.9
 (Enter /shared/centos7/gaussian/g16/l701.exe)
 SCFChk:  SCF convergence  4.16D-09 required  1.00D-08
 ... and contract with generalized density number  0.
 Compute integral second derivatives.
 Entering OneElI...
 Calculate overlap and kinetic energy integrals
    NBasis = 265  MinDer = 2  MaxDer = 2
 Requested accuracy = 0.1000D-12
 PrmmSu-InSpLW:  IPartL=    0 NPrtUS=   20 NPrtUL=    1 DoSpLW=F IThBeg=    0 IThEnd=   19 NThAct=   20.
 PrsmSu:  NPrtUS=  20 ThrOK=T IAlg=1 NPAlg=1 LenDen=           0 ISkipM=0 DoSpLW=F IThBeg=    0 IThEnd=   19.
 Prism:   IPart=     0 DynPar=F LinDyn=F Incr=           1.
 PRISM was handed    33438045 working-precision words and  3740 shell-pairs
 PRISM was handed    33438045 working-precision words and  3740 shell-pairs
 PRISM was handed    33438045 working-precision words and  3740 shell-pairs
 PRISM was handed    33438045 working-precision words and  3740 shell-pairs
 PRISM was handed    33438045 working-precision words and  3740 shell-pairs
 PRISM was handed    33438045 working-precision words and  3740 shell-pairs
 PRISM was handed    33438045 working-precision words and  3740 shell-pairs
 PRISM was handed    33438045 working-precision words and  3740 shell-pairs
 PRISM was handed    33438045 working-precision words and  3740 shell-pairs
 PRISM was handed    33438045 working-precision words and  3740 shell-pairs
 PRISM was handed    33438045 working-precision words and  3740 shell-pairs
 PRISM was handed    33438045 working-precision words and  3740 shell-pairs
 PRISM was handed    33438045 working-precision words and  3740 shell-pairs
 PRISM was handed    33438045 working-precision words and  3740 shell-pairs
 PRISM was handed    33438045 working-precision words and  3740 shell-pairs
 IPart= 12 NShTot=         174 NBatch=          27 AvBLen=         6.4
 IPart=  0 NShTot=         226 NBatch=          66 AvBLen=         3.4
 IPart=  1 NShTot=         222 NBatch=          62 AvBLen=         3.6
 PRISM was handed    33438045 working-precision words and  3740 shell-pairs
 IPart=  3 NShTot=         211 NBatch=          52 AvBLen=         4.1
 PRISM was handed    33438045 working-precision words and  3740 shell-pairs
 PRISM was handed    33438045 working-precision words and  3740 shell-pairs
 IPart=  8 NShTot=         185 NBatch=          31 AvBLen=         6.0
 PRISM was handed    33438045 working-precision words and  3740 shell-pairs
 IPart= 15 NShTot=         170 NBatch=          26 AvBLen=         6.5
 IPart=  9 NShTot=         183 NBatch=          29 AvBLen=         6.3
 IPart= 10 NShTot=         179 NBatch=          29 AvBLen=         6.2
 PRISM was handed    33438045 working-precision words and  3740 shell-pairs
 IPart=  2 NShTot=         213 NBatch=          53 AvBLen=         4.0
 IPart= 14 NShTot=         171 NBatch=          27 AvBLen=         6.3
 IPart= 19 NShTot=         166 NBatch=          25 AvBLen=         6.6
 IPart=  4 NShTot=         206 NBatch=          47 AvBLen=         4.4
 IPart= 11 NShTot=         176 NBatch=          27 AvBLen=         6.5
 IPart=  6 NShTot=         194 NBatch=          38 AvBLen=         5.1
 IPart=  5 NShTot=         196 NBatch=          40 AvBLen=         4.9
 IPart= 17 NShTot=         168 NBatch=          26 AvBLen=         6.5
 IPart= 16 NShTot=         168 NBatch=          26 AvBLen=         6.5
 IPart= 13 NShTot=         172 NBatch=          27 AvBLen=         6.4
 IPart= 18 NShTot=         168 NBatch=          26 AvBLen=         6.5
 IPart=  7 NShTot=         192 NBatch=          36 AvBLen=         5.3
 PrSmSu:  NxtVal=             21.
 Entering OneElI...
 Calculate potential energy integrals
    NBasis = 265  MinDer = 2  MaxDer = 2
 Requested accuracy = 0.1000D-12
 PrmmSu-InSpLW:  IPartL=    0 NPrtUS=   20 NPrtUL=    1 DoSpLW=F IThBeg=    0 IThEnd=   19 NThAct=   20.
 PrsmSu:  NPrtUS=  20 ThrOK=T IAlg=1 NPAlg=1 LenDen=           0 ISkipM=0 DoSpLW=F IThBeg=    0 IThEnd=   19.
 Prism:   IPart=     0 DynPar=F LinDyn=F Incr=          19.
 PRISM was handed    33454592 working-precision words and  3591 shell-pairs
 PRISM was handed    33454592 working-precision words and  3591 shell-pairs
 PRISM was handed    33454592 working-precision words and  3591 shell-pairs
 PRISM was handed    33454592 working-precision words and  3591 shell-pairs
 PRISM was handed    33454592 working-precision words and  3591 shell-pairs
 PRISM was handed    33454592 working-precision words and  3591 shell-pairs
 PRISM was handed    33454592 working-precision words and  3591 shell-pairs
 PRISM was handed    33454592 working-precision words and  3591 shell-pairs
 PRISM was handed    33454592 working-precision words and  3591 shell-pairs
 PRISM was handed    33454592 working-precision words and  3591 shell-pairs
 PRISM was handed    33454592 working-precision words and  3591 shell-pairs
 PRISM was handed    33454592 working-precision words and  3591 shell-pairs
 PRISM was handed    33454592 working-precision words and  3591 shell-pairs
 PRISM was handed    33454592 working-precision words and  3591 shell-pairs
 PRISM was handed    33454592 working-precision words and  3591 shell-pairs
 PRISM was handed    33454592 working-precision words and  3591 shell-pairs
 PRISM was handed    33454592 working-precision words and  3591 shell-pairs
 PRISM was handed    33454592 working-precision words and  3591 shell-pairs
 PRISM was handed    33454592 working-precision words and  3591 shell-pairs
 PRISM was handed    33454592 working-precision words and  3591 shell-pairs
 IPart=  2 NShTot=        2244 NBatch=         204 AvBLen=        11.0
 IPart= 19 NShTot=        1782 NBatch=         162 AvBLen=        11.0
 IPart=  4 NShTot=        2156 NBatch=         196 AvBLen=        11.0
 IPart=  3 NShTot=        2189 NBatch=         199 AvBLen=        11.0
 IPart= 10 NShTot=        1870 NBatch=         170 AvBLen=        11.0
 IPart=  9 NShTot=        1914 NBatch=         174 AvBLen=        11.0
 IPart= 14 NShTot=        1837 NBatch=         167 AvBLen=        11.0
 IPart= 15 NShTot=        1815 NBatch=         165 AvBLen=        11.0
 IPart= 16 NShTot=        1804 NBatch=         164 AvBLen=        11.0
 IPart= 17 NShTot=        1804 NBatch=         164 AvBLen=        11.0
 IPart= 18 NShTot=        1793 NBatch=         163 AvBLen=        11.0
 IPart=  0 NShTot=        2431 NBatch=         221 AvBLen=        11.0
 IPart=  8 NShTot=        1958 NBatch=         178 AvBLen=        11.0
 IPart=  5 NShTot=        2035 NBatch=         185 AvBLen=        11.0
 IPart=  1 NShTot=        2354 NBatch=         214 AvBLen=        11.0
 IPart=  6 NShTot=        1991 NBatch=         181 AvBLen=        11.0
 IPart= 12 NShTot=        1859 NBatch=         169 AvBLen=        11.0
 IPart=  7 NShTot=        1958 NBatch=         178 AvBLen=        11.0
 IPart= 11 NShTot=        1859 NBatch=         169 AvBLen=        11.0
 IPart= 13 NShTot=        1848 NBatch=         168 AvBLen=        11.0
 PrSmSu:  NxtVal=            381.
 Polarizability after L701:
                1             2             3 
      1  0.000000D+00
      2  0.000000D+00  0.000000D+00
      3  0.000000D+00  0.000000D+00  0.000000D+00
 Dipole Derivatives after L701:
                 1             2             3             4             5 
      1  -0.324656D-01  0.159373D-01 -0.434278D-01  0.148358D+00 -0.248814D-01
      2   0.197699D+00 -0.190948D+00 -0.744834D-02  0.487204D+00 -0.604538D+00
      3  -0.544590D-01  0.745470D-02 -0.256696D+00  0.198697D+00 -0.274286D+00
                 6             7             8             9            10 
      1  -0.282290D+00 -0.813289D+00  0.545256D+00 -0.391601D-01 -0.549993D+00
      2  -0.456546D+00  0.696554D-01 -0.866252D+00  0.255853D-02  0.224270D-01
      3  -0.617677D+00 -0.329014D-01 -0.266098D-03 -0.777676D+00  0.777416D-01
                11            12            13            14            15 
      1  -0.122052D+00  0.132620D+00 -0.814862D+00  0.381144D+00  0.348916D-01
      2  -0.786228D+00 -0.543607D-01  0.481240D-01 -0.593374D+00  0.104654D+00
      3  -0.113249D-01  0.336312D-01  0.118122D-01  0.657168D-01  0.335834D-01
                16            17            18            19            20 
      1   0.547891D+00 -0.165106D+00  0.635891D+00  0.223099D-01 -0.109190D+00
      2  -0.206416D+00  0.223982D+00 -0.255942D+00  0.389440D+00  0.339611D+00
      3   0.240808D+00 -0.447903D-01  0.441245D+00 -0.984996D-02 -0.283004D-01
                21            22            23            24            25 
      1   0.264446D-01  0.454456D+00 -0.310677D+00 -0.592128D+00  0.203271D+00
      2   0.739818D-02 -0.191701D+00  0.310583D+00  0.283309D+00 -0.285466D-01
      3   0.700885D-01 -0.177061D+00  0.842470D-01  0.404949D+00  0.451439D-02
                26            27            28            29            30 
      1  -0.608108D-02  0.361195D-02  0.898217D+00 -0.481867D+00 -0.106486D+00
      2   0.108359D+01 -0.572479D-01 -0.335017D+00  0.431188D+00  0.731544D-01
      3   0.896579D-02  0.900607D-01 -0.278142D-01  0.445078D-01  0.919624D-01
                31            32            33 
      1  -0.638917D-01  0.277517D+00  0.230033D+00
      2  -0.452867D+00  0.652385D+00  0.360471D+00
      3  -0.231487D+00  0.148075D+00  0.486528D+00
 Hessian after L701:
                1             2             3             4             5 
      1  0.540796D+01
      2  0.364139D+01  0.717273D+01
      3  0.357950D+00  0.563936D+00  0.149712D+02
      4  0.527962D+00  0.460615D+00 -0.339936D-01  0.949151D+01
      5  0.404844D+00 -0.781675D-01 -0.257618D-01 -0.120418D+01  0.448985D+01
      6 -0.750174D-01 -0.547726D-01 -0.351314D+00  0.194895D+01 -0.184691D+01
      7 -0.663013D+01 -0.180418D+01  0.171478D+00  0.432666D+00 -0.610389D-01
      8 -0.156124D+01  0.553352D+00 -0.893626D+00  0.112770D+00 -0.242780D+00
      9  0.154247D+00 -0.871078D+00 -0.710532D+01  0.673566D-01 -0.123651D-01
     10 -0.120755D+00 -0.297441D+01 -0.601453D+00  0.383049D+00  0.375318D+00
     11 -0.317605D+01 -0.705831D+01  0.103467D+00  0.302030D+00 -0.817441D-01
     12 -0.525407D+00  0.952032D-01 -0.831729D+01  0.106293D+00 -0.341259D-02
     13  0.356035D+00  0.190523D+00  0.140454D+00 -0.755365D+01  0.187215D+01
     14  0.306141D+00 -0.140287D+00  0.643188D-02  0.208827D+01  0.171457D+00
     15  0.807750D-01  0.198002D-01  0.147786D+00 -0.551132D-01  0.475620D+00
     16  0.867865D-01  0.905938D-01  0.112707D+00  0.608334D-01 -0.382181D-02
     17  0.894310D-01 -0.252150D+00 -0.300383D-01 -0.136884D-01 -0.178184D-01
     18  0.902105D-01 -0.271141D-01  0.307515D+00  0.480404D-01 -0.371559D-02
     19  0.257694D+00  0.159611D+00  0.243316D-02 -0.133949D-01  0.504737D-02
     20  0.800498D-01 -0.695411D-01  0.925036D-01 -0.680824D-01 -0.121197D+00
     21  0.100723D-01  0.760148D-01  0.742493D-01 -0.106268D+00  0.112660D-01
     22  0.930896D-01  0.590144D-01 -0.129929D+00  0.575102D-01 -0.568818D-02
     23  0.473248D-01 -0.232714D+00  0.155997D+00 -0.210288D-01 -0.175332D-01
     24 -0.117291D+00  0.159412D+00  0.281295D+00 -0.432155D-01  0.316055D-02
     25 -0.127364D+00  0.172071D+00 -0.886961D-02 -0.165677D-01  0.561214D-01
     26  0.126578D+00  0.924176D-01  0.209049D-01  0.949735D-01  0.135901D+00
     27  0.390319D-02 -0.110832D-02  0.626182D-01 -0.182197D-02 -0.601441D-02
     28  0.158165D+00 -0.367549D-01 -0.451421D-02  0.208953D+00 -0.362668D-01
     29 -0.615897D-01 -0.315454D-01  0.257463D-02 -0.299971D-01 -0.266074D+00
     30 -0.186116D-01  0.448339D-02 -0.317961D-01  0.939074D-02 -0.849817D-01
     31 -0.944394D-02  0.415276D-01 -0.626341D-02 -0.357887D+01 -0.140248D+01
     32  0.103119D+00  0.442212D-01  0.361198D-02 -0.172168D+01 -0.397189D+01
     33  0.391681D-01  0.352239D-01 -0.389360D-01 -0.193961D+01  0.149311D+01
                6             7             8             9            10 
      6  0.120499D+02
      7  0.342175D-01  0.135750D+02
      8 -0.230842D-01  0.167829D+01  0.857980D+01
      9 -0.237129D+00 -0.314314D+00  0.686698D+00  0.155431D+02
     10  0.110660D+00  0.570943D-01 -0.362880D+00  0.301026D-01  0.554102D+01
     11  0.375104D-01 -0.283693D+00  0.230958D+00  0.136146D-01 -0.402955D+00
     12  0.118444D+00  0.197937D-01  0.363221D-01 -0.134495D+00  0.112347D+01
     13 -0.129045D+00  0.186135D+00 -0.107305D+00 -0.152981D-01 -0.174584D+01
     14  0.359518D+00 -0.115689D+00 -0.126408D+00  0.154627D-01  0.345964D+01
     15 -0.769702D+01 -0.194285D-01  0.216223D-01 -0.134417D+00 -0.691097D+00
     16  0.226356D-01 -0.264232D+01 -0.323748D+00  0.108563D+01  0.454250D-01
     17 -0.123837D-02 -0.349957D+00 -0.322160D+01 -0.522125D+00 -0.721186D-01
     18 -0.109144D-01  0.100913D+01 -0.449429D+00 -0.189796D+01  0.574419D-01
     19 -0.141617D+00 -0.200733D+01  0.114197D+01 -0.154497D+00  0.194943D-01
     20  0.441749D-01  0.147133D+01 -0.277468D+01 -0.133975D+00  0.177046D-01
     21 -0.156700D+00 -0.191798D+00 -0.130280D+00 -0.371949D+01  0.136777D-01
     22 -0.339415D-01 -0.300655D+01 -0.500548D+00 -0.869414D+00  0.191123D-01
     23  0.517607D-02 -0.486322D+00 -0.309485D+01  0.814541D+00 -0.559417D-01
     24 -0.398788D-02 -0.782228D+00  0.736968D+00 -0.222377D+01 -0.331201D-01
     25  0.233386D-02 -0.903960D-02 -0.731484D-01  0.335624D-02 -0.379947D+01
     26 -0.407646D-02 -0.907651D-01  0.137626D+00 -0.342595D-02 -0.484025D-01
     27 -0.326237D-01  0.327594D-02 -0.393728D-02 -0.436974D-01 -0.101332D-01
     28  0.273813D-01  0.242097D-01 -0.105353D-01 -0.169611D-03 -0.412296D+00
     29 -0.112659D+00 -0.203911D-01 -0.716495D-02  0.137487D-02  0.474247D-01
     30  0.880479D-01 -0.277717D-02  0.351251D-03 -0.119080D-01 -0.308170D-01
     31 -0.176655D+01  0.202374D-01  0.637400D-02  0.129991D-01  0.131663D-01
     32  0.159636D+01  0.624185D-01 -0.342555D-01  0.112776D-01  0.166239D-01
     33 -0.376675D+01  0.726553D-01  0.183946D-01 -0.349503D-01  0.312727D-01
               11            12            13            14            15 
     11  0.148936D+02
     12  0.191997D+00  0.241033D+02
     13  0.376324D+01 -0.715591D+00  0.108301D+02
     14 -0.680790D+01 -0.141393D+00 -0.415124D+01  0.987035D+01
     15 -0.202755D+00 -0.122196D+02  0.885871D+00 -0.329092D+00  0.236304D+02
     16 -0.747718D-01  0.394905D-01  0.384962D-01 -0.193694D-01 -0.279719D-02
     17  0.187042D-01 -0.226651D-01 -0.229676D-01 -0.988366D-02  0.281635D-02
     18 -0.449939D-01 -0.143790D-01  0.153081D-01 -0.694669D-04 -0.167302D-01
     19  0.642188D-01  0.166835D-01 -0.140768D-01 -0.114943D+00  0.497995D-01
     20 -0.669956D-01 -0.803088D-01 -0.168168D+00  0.103723D+00 -0.510726D-01
     21 -0.490706D-01  0.348307D-01  0.398181D-01 -0.358079D-01 -0.798380D-01
     22 -0.468786D-01 -0.171979D-01  0.518576D-01 -0.306115D-01 -0.740815D-02
     23  0.253664D-01  0.120135D-01 -0.424733D-01 -0.590605D-02  0.357812D-02
     24  0.288805D-01 -0.112142D-01 -0.229269D-01  0.525828D-02 -0.154661D-01
     25 -0.104010D+00 -0.942770D-02  0.263140D-01 -0.257383D+00 -0.153639D-01
     26 -0.130417D+01 -0.130731D+00 -0.283271D+00 -0.155324D+00 -0.250097D-01
     27 -0.107868D+00 -0.380987D+01 -0.220300D-01 -0.191636D-01  0.168175D+00
     28  0.115409D-01 -0.484146D-01 -0.223752D+01 -0.113626D+01 -0.209409D+00
     29  0.250033D+00  0.949381D-02 -0.115336D+01 -0.302079D+01  0.138522D+00
     30 -0.239855D-02  0.202729D+00 -0.200947D+00  0.133340D+00 -0.384124D+01
     31 -0.526739D-01  0.103119D-01  0.621603D-01 -0.285528D-01 -0.158285D-01
     32 -0.995109D-01  0.334810D-01  0.102873D+00  0.120966D+00 -0.540304D-01
     33  0.316165D-01  0.475581D-01  0.243864D-01  0.551487D-02  0.580013D-01
               16            17            18            19            20 
     16  0.237810D+01
     17  0.429871D+00  0.321550D+01
     18 -0.108580D+01  0.645609D+00  0.186784D+01
     19 -0.150615D+00 -0.479862D-01 -0.147055D+00  0.211970D+01
     20 -0.813291D-01  0.120235D+00 -0.523998D-01 -0.118905D+01  0.265214D+01
     21 -0.165034D+00 -0.397433D-01  0.573820D-01  0.176318D+00  0.131487D+00
     22  0.164917D+00 -0.951435D-02 -0.195025D-02 -0.179654D+00 -0.652029D-01
     23 -0.127700D-01  0.145340D+00 -0.626899D-01 -0.306551D-01  0.145608D+00
     24 -0.283222D-01 -0.304347D-01 -0.296874D+00  0.200298D+00  0.524179D-01
     25  0.119089D-02 -0.244375D-02  0.266828D-02 -0.183040D-02 -0.361546D-03
     26 -0.968244D-02  0.667840D-02 -0.880642D-02  0.854290D-02  0.406399D-02
     27  0.210068D-02 -0.195664D-02 -0.731550D-03 -0.576700D-03 -0.778796D-03
     28  0.655157D-02 -0.325285D-02  0.499980D-02 -0.493124D-02 -0.548758D-02
     29 -0.463831D-02  0.136664D-02 -0.320369D-02  0.271938D-02  0.330940D-02
     30  0.473199D-03 -0.271360D-03 -0.131512D-02  0.933725D-03  0.106696D-02
     31  0.106399D-01  0.262736D-02  0.700992D-02 -0.250616D-01  0.860248D-02
     32  0.966597D-02 -0.636959D-02  0.681304D-02  0.525219D-03  0.333093D-02
     33  0.189139D-01  0.476677D-04  0.617403D-02 -0.271961D-02 -0.311592D-02
               21            22            23            24            25 
     21  0.377017D+01
     22  0.225786D+00  0.280990D+01
     23  0.329273D-01  0.602985D+00  0.303158D+01
     24  0.106645D-01  0.830089D+00 -0.960791D+00  0.226279D+01
     25  0.739160D-04 -0.958132D-03  0.213295D-02 -0.127471D-02  0.396361D+01
     26 -0.305439D-03 -0.267494D-02  0.210224D-02  0.578033D-02  0.230715D+00
     27 -0.152183D-02  0.265669D-03 -0.653882D-03 -0.907912D-03  0.245969D-01
     28  0.243443D-04  0.629678D-02 -0.496449D-02 -0.489462D-02 -0.339059D-01
     29  0.319718D-03 -0.458978D-02  0.228430D-02  0.312707D-02 -0.246914D-01
     30 -0.239710D-02 -0.184611D-02  0.143783D-02 -0.977213D-04  0.138481D-02
     31 -0.267029D-02 -0.155166D-01  0.171308D-02  0.288625D-02 -0.198120D-02
     32  0.319170D-02  0.370869D-02 -0.128604D-02 -0.377794D-02  0.997348D-03
     33  0.126458D-01  0.554648D-02 -0.153495D-02 -0.243704D-02  0.521858D-03
               26            27            28            29            30 
     26  0.107235D+01
     27  0.137709D+00  0.365527D+01
     28 -0.181520D-01  0.198470D-03  0.227349D+01
     29 -0.301994D-02  0.202134D-02  0.129314D+01  0.301395D+01
     30 -0.109282D-02  0.430071D-02  0.256157D+00 -0.751651D-01  0.360303D+01
     31 -0.786146D-02  0.220964D-03  0.109906D-01 -0.440332D-01 -0.133403D-01
     32  0.113673D-01  0.175054D-02 -0.530083D-01  0.576492D-01  0.232301D-01
     33  0.905344D-02 -0.101898D-02 -0.213591D-01  0.335940D-01 -0.935115D-02
               31            32            33 
     31  0.351368D+01
     32  0.147476D+01  0.387578D+01
     33  0.177123D+01 -0.162191D+01  0.372906D+01
 Leave Link  701 at Tue Sep 24 17:35:18 2019, MaxMem=   671088640 cpu:              40.3 elap:              20.2
 (Enter /shared/centos7/gaussian/g16/l702.exe)
 L702 exits ... SP integral derivatives will be done elsewhere.
 Leave Link  702 at Tue Sep 24 17:35:19 2019, MaxMem=   671088640 cpu:               1.5 elap:               0.8
 (Enter /shared/centos7/gaussian/g16/l703.exe)
 Integral derivatives from FoFJK, PRISM(SPDF).
 Compute integral second derivatives, UseDBF=F ICtDFT=           0.
 ICntrl=    100147.
 Calling FoFJK, ICntrl=    100147 FMM=F ISym2X=0 I1Cent= 0 IOpClX= 0 NMat=1 NMatS=1 NMatT=0.
 FoFJK:  IHMeth= 1 ICntrl=  100147 DoSepK=F KAlg= 0 I1Cent=           0 FoldK=F
 IRaf=         0 NMat=       1 IRICut=       1 DoRegI=T DoRafI=F ISym2E= 0 IDoP0=0 IntGTp=1.
 FoFCou: FMM=F IPFlag=           0 FMFlag=      100000 FMFlg1=         800
         NFxFlg=           0 DoJE=F BraDBF=F KetDBF=F FulRan=T
         wScrn=  0.000000 ICntrl=    100147 IOpCl=  0 I1Cent=           0 NGrid=           0
         NMat0=    1 NMatS0=      1 NMatT0=    0 NMatD0=    1 NMtDS0=    0 NMtDT0=    0
 Symmetry not used in FoFCou.
 FoFCou:  KetSym=F NOpSet=  1 NOpAb=1 NOp=  1.
 FoFCou:  CnvScl= 1.00D+00 Thresh= 1.00D-08 IAcrcy=      12.
 PrismS was handed   670739555 working-precision words and  3690 shell-pairs
 FoFCou: LinMIO=F DoNuc=F BraDBF=F KetDBF=F HaveP=T PDBF=F HaveZ=T HaveW=F
         NIJTC =      10 NIJTAt=       0 NIJTCD=       0 NIJTT =      10
         IJTBeg=       1 IJTEnd=      10 KLTBeg=       1 KLTEnd=      10
         IPTBeg=       1 IPTEnd=      10 IPTBCv=       1 IPTECv=      10
         IZTBeg=       1 IZTEnd=      10 IZTBCv=       1 IZTECv=      10
         IWTBeg=      11 IWTEnd=      10 IWTBCv=      11 IWTECv=      10
         INTBeg=       1 INTEnd=       0 IFTBCv=       1 IFTECv=      10
 NCel replicated for PrismC:     1
 CoulSu-InSpLW:  IPartL=    0 NPrtUS=   20 NPrtUL=    1 DoSpLW=F IThBeg=    0 IThEnd=   19 NThAct=   20.
 CoulSu:  IncDef=  1024 NBBP=        6809895 NTPThr=   100 NPartT=   20 Incr=        1024 LDynOK=F GPUOK=T.
 CoulSu:  NPrtUS=  20 ThrOK=T IAlg=1 NPAlg=1 LenDen=           0 LWGrdD=           0 DoCopy=F ISkipM=0
          DoSpLW=F IThBeg=    0 IThEnd=   19.
 Enter PrismC:  IPart=  0 JobTyp=22 DoJE=F Cont=F.
 Enter PrismC:  IPart=  1 JobTyp=22 DoJE=F Cont=F.
 PrismC:  IPart=     1 DynPar=T LinDyn=F Incr=        1024 UseFst=F UseS4=T ISplat=2.
 PrismC was handed    33455883 working-precision words and  3690 shell-pairs
 PrismC:  IPart=     0 DynPar=T LinDyn=F Incr=        1024 UseFst=F UseS4=T ISplat=2.
 PrismC was handed    33455883 working-precision words and  3690 shell-pairs
 Enter PrismC:  IPart=  2 JobTyp=22 DoJE=F Cont=F.
 PrismC:  IPart=     2 DynPar=T LinDyn=F Incr=        1024 UseFst=F UseS4=T ISplat=2.
 PrismC was handed    33455883 working-precision words and  3690 shell-pairs
 Enter PrismC:  IPart= 16 JobTyp=22 DoJE=F Cont=F.
 PrismC:  IPart=    16 DynPar=T LinDyn=F Incr=        1024 UseFst=F UseS4=T ISplat=2.
 PrismC was handed    33455883 working-precision words and  3690 shell-pairs
 Enter PrismC:  IPart= 15 JobTyp=22 DoJE=F Cont=F.
 PrismC:  IPart=    15 DynPar=T LinDyn=F Incr=        1024 UseFst=F UseS4=T ISplat=2.
 PrismC was handed    33455883 working-precision words and  3690 shell-pairs
 Enter PrismC:  IPart=  6 JobTyp=22 DoJE=F Cont=F.
 PrismC:  IPart=     6 DynPar=T LinDyn=F Incr=        1024 UseFst=F UseS4=T ISplat=2.
 PrismC was handed    33455883 working-precision words and  3690 shell-pairs
 Enter PrismC:  IPart= 19 JobTyp=22 DoJE=F Cont=F.
 PrismC:  IPart=    19 DynPar=T LinDyn=F Incr=        1024 UseFst=F UseS4=T ISplat=2.
 PrismC was handed    33455883 working-precision words and  3690 shell-pairs
 Enter PrismC:  IPart= 12 JobTyp=22 DoJE=F Cont=F.
 PrismC:  IPart=    12 DynPar=T LinDyn=F Incr=        1024 UseFst=F UseS4=T ISplat=2.
 PrismC was handed    33455883 working-precision words and  3690 shell-pairs
 Enter PrismC:  IPart= 11 JobTyp=22 DoJE=F Cont=F.
 Enter PrismC:  IPart=  3 JobTyp=22 DoJE=F Cont=F.
 PrismC:  IPart=    11 DynPar=T LinDyn=F Incr=        1024 UseFst=F UseS4=T ISplat=2.
 PrismC:  IPart=     3 DynPar=T LinDyn=F Incr=        1024 UseFst=F UseS4=T ISplat=2.
 PrismC was handed    33455883 working-precision words and  3690 shell-pairs
 PrismC was handed    33455883 working-precision words and  3690 shell-pairs
 Enter PrismC:  IPart= 14 JobTyp=22 DoJE=F Cont=F.
 PrismC:  IPart=    14 DynPar=T LinDyn=F Incr=        1024 UseFst=F UseS4=T ISplat=2.
 PrismC was handed    33455883 working-precision words and  3690 shell-pairs
 Enter PrismC:  IPart=  4 JobTyp=22 DoJE=F Cont=F.
 PrismC:  IPart=     4 DynPar=T LinDyn=F Incr=        1024 UseFst=F UseS4=T ISplat=2.
 PrismC was handed    33455883 working-precision words and  3690 shell-pairs
 Enter PrismC:  IPart=  9 JobTyp=22 DoJE=F Cont=F.
 PrismC:  IPart=     9 DynPar=T LinDyn=F Incr=        1024 UseFst=F UseS4=T ISplat=2.
 PrismC was handed    33455883 working-precision words and  3690 shell-pairs
 Enter PrismC:  IPart= 18 JobTyp=22 DoJE=F Cont=F.
 PrismC:  IPart=    18 DynPar=T LinDyn=F Incr=        1024 UseFst=F UseS4=T ISplat=2.
 PrismC was handed    33455883 working-precision words and  3690 shell-pairs
 Enter PrismC:  IPart=  8 JobTyp=22 DoJE=F Cont=F.
 PrismC:  IPart=     8 DynPar=T LinDyn=F Incr=        1024 UseFst=F UseS4=T ISplat=2.
 PrismC was handed    33455883 working-precision words and  3690 shell-pairs
 Enter PrismC:  IPart=  5 JobTyp=22 DoJE=F Cont=F.
 PrismC:  IPart=     5 DynPar=T LinDyn=F Incr=        1024 UseFst=F UseS4=T ISplat=2.
 PrismC was handed    33455883 working-precision words and  3690 shell-pairs
 Enter PrismC:  IPart= 17 JobTyp=22 DoJE=F Cont=F.
 PrismC:  IPart=    17 DynPar=T LinDyn=F Incr=        1024 UseFst=F UseS4=T ISplat=2.
 PrismC was handed    33455883 working-precision words and  3690 shell-pairs
 Enter PrismC:  IPart= 10 JobTyp=22 DoJE=F Cont=F.
 PrismC:  IPart=    10 DynPar=T LinDyn=F Incr=        1024 UseFst=F UseS4=T ISplat=2.
 PrismC was handed    33455883 working-precision words and  3690 shell-pairs
 Enter PrismC:  IPart=  7 JobTyp=22 DoJE=F Cont=F.
 PrismC:  IPart=     7 DynPar=T LinDyn=F Incr=        1024 UseFst=F UseS4=T ISplat=2.
 PrismC was handed    33455883 working-precision words and  3690 shell-pairs
 Enter PrismC:  IPart= 13 JobTyp=22 DoJE=F Cont=F.
 PrismC:  IPart=    13 DynPar=T LinDyn=F Incr=        1024 UseFst=F UseS4=T ISplat=2.
 PrismC was handed    33455883 working-precision words and  3690 shell-pairs
 IPart=  6 NShTot=      180400 NShNF=      180400 NShFF=           0 MinMC=       7
           NShCPU=      180400 NBCPU=        7471 AvBCPU=        24.1
           NShGPU=           0 NBGPU=           0 AvBGPU=         0.0
 IPart=  7 NShTot=      339955 NShNF=      339955 NShFF=           0 MinMC=       7
           NShCPU=      339955 NBCPU=       13658 AvBCPU=        24.9
           NShGPU=           0 NBGPU=           0 AvBGPU=         0.0
 IPart=  1 NShTot=      167719 NShNF=      167719 NShFF=           0 MinMC=       7
           NShCPU=      167719 NBCPU=        6870 AvBCPU=        24.4
           NShGPU=           0 NBGPU=           0 AvBGPU=         0.0
 IPart= 10 NShTot=      177911 NShNF=      177911 NShFF=           0 MinMC=       7
           NShCPU=      177911 NBCPU=        7459 AvBCPU=        23.9
           NShGPU=           0 NBGPU=           0 AvBGPU=         0.0
 IPart= 17 NShTot=      166089 NShNF=      166089 NShFF=           0 MinMC=       7
           NShCPU=      166089 NBCPU=        7236 AvBCPU=        23.0
           NShGPU=           0 NBGPU=           0 AvBGPU=         0.0
 IPart=  0 NShTot=      345940 NShNF=      345940 NShFF=           0 MinMC=       7
           NShCPU=      345940 NBCPU=       14622 AvBCPU=        23.7
           NShGPU=           0 NBGPU=           0 AvBGPU=         0.0
 IPart= 16 NShTot=      166948 NShNF=      166948 NShFF=           0 MinMC=       7
           NShCPU=      166948 NBCPU=        7353 AvBCPU=        22.7
           NShGPU=           0 NBGPU=           0 AvBGPU=         0.0
 IPart= 11 NShTot=      163938 NShNF=      163938 NShFF=           0 MinMC=       7
           NShCPU=      163938 NBCPU=        7490 AvBCPU=        21.9
           NShGPU=           0 NBGPU=           0 AvBGPU=         0.0
 IPart= 12 NShTot=      347975 NShNF=      347975 NShFF=           0 MinMC=       7
           NShCPU=      347975 NBCPU=       14314 AvBCPU=        24.3
           NShGPU=           0 NBGPU=           0 AvBGPU=         0.0
 IPart= 13 NShTot=      359592 NShNF=      359592 NShFF=           0 MinMC=       7
           NShCPU=      359592 NBCPU=       14331 AvBCPU=        25.1
           NShGPU=           0 NBGPU=           0 AvBGPU=         0.0
 IPart=  4 NShTot=      179477 NShNF=      179477 NShFF=           0 MinMC=       7
           NShCPU=      179477 NBCPU=        7455 AvBCPU=        24.1
           NShGPU=           0 NBGPU=           0 AvBGPU=         0.0
 IPart= 19 NShTot=      354740 NShNF=      354740 NShFF=           0 MinMC=       7
           NShCPU=      354740 NBCPU=       14425 AvBCPU=        24.6
           NShGPU=           0 NBGPU=           0 AvBGPU=         0.0
 IPart=  2 NShTot=      181292 NShNF=      181292 NShFF=           0 MinMC=       7
           NShCPU=      181292 NBCPU=        7156 AvBCPU=        25.3
           NShGPU=           0 NBGPU=           0 AvBGPU=         0.0
 IPart=  8 NShTot=      176102 NShNF=      176102 NShFF=           0 MinMC=       7
           NShCPU=      176102 NBCPU=        7878 AvBCPU=        22.4
           NShGPU=           0 NBGPU=           0 AvBGPU=         0.0
 IPart= 14 NShTot=      170286 NShNF=      170286 NShFF=           0 MinMC=       7
           NShCPU=      170286 NBCPU=        7578 AvBCPU=        22.5
           NShGPU=           0 NBGPU=           0 AvBGPU=         0.0
 IPart=  5 NShTot=      173248 NShNF=      173248 NShFF=           0 MinMC=       7
           NShCPU=      173248 NBCPU=        7278 AvBCPU=        23.8
           NShGPU=           0 NBGPU=           0 AvBGPU=         0.0
 IPart=  9 NShTot=      176256 NShNF=      176256 NShFF=           0 MinMC=       7
           NShCPU=      176256 NBCPU=        8031 AvBCPU=        21.9
           NShGPU=           0 NBGPU=           0 AvBGPU=         0.0
 IPart=  3 NShTot=      345388 NShNF=      345388 NShFF=           0 MinMC=       7
           NShCPU=      345388 NBCPU=       15007 AvBCPU=        23.0
           NShGPU=           0 NBGPU=           0 AvBGPU=         0.0
 IPart= 18 NShTot=      187474 NShNF=      187474 NShFF=           0 MinMC=       7
           NShCPU=      187474 NBCPU=        7476 AvBCPU=        25.1
           NShGPU=           0 NBGPU=           0 AvBGPU=         0.0
 IPart= 15 NShTot=      341905 NShNF=      341905 NShFF=           0 MinMC=       7
           NShCPU=      341905 NBCPU=       14334 AvBCPU=        23.9
           NShGPU=           0 NBGPU=           0 AvBGPU=         0.0
 CoulSu:  NxtVal=        7264257 LenVP=       33455884 MinMC=       7.
 ReadGW:  IGet=0 IStart=           1 Next=           1 LGW=           0.
 Remaining memory in FofDFT      639.93 Mw
 CkSvGd:  ISavGI=        -1 IRadAn=       5 IRASav=       5 ISavGd=        -1.
 CalDSu-InSpLW:  IPartL=    0 NPrtUS=   20 NPrtUL=    1 DoSpLW=F IThBeg=    0 IThEnd=   19 NThAct=   20.
 CalDSu:  NPrtUS=  20 ThrOK=T IAlg=1 NPAlg=2 DoDPD=T LenP=       35245 LenD1P=             0 GPUOK=F
          ISkipM=0 DoSpLW=F IThBeg=    0 IThEnd=   19.
 IPart=  0 IRanGd=          0 ScrnBf=T ScrnGd=T RCrit=4.00D+00 DoMicB=T.
 IPart=  2         8809 of        10128 points in      11 batches and       51 microbatches, Max-NSigAt=      11 Max-NSgAt2=      11
 IPart= 15        15509 of        17176 points in      18 batches and      108 microbatches, Max-NSigAt=      11 Max-NSgAt2=      11
 IPart= 12        15013 of        16040 points in      16 batches and      101 microbatches, Max-NSigAt=      11 Max-NSgAt2=      11
 IPart=  5         8008 of         8636 points in       9 batches and       52 microbatches, Max-NSigAt=      11 Max-NSgAt2=      11
 IPart= 14         7939 of         8828 points in      10 batches and       54 microbatches, Max-NSigAt=      11 Max-NSgAt2=      11
 IPart=  7        15320 of        16986 points in      18 batches and       89 microbatches, Max-NSigAt=      11 Max-NSgAt2=      11
 IPart= 17         7683 of         8328 points in       9 batches and       55 microbatches, Max-NSigAt=      11 Max-NSgAt2=      11
 IPart=  0        17393 of        19306 points in      21 batches and       85 microbatches, Max-NSigAt=      11 Max-NSgAt2=      11
 IPart= 13        15407 of        16478 points in      17 batches and       93 microbatches, Max-NSigAt=      11 Max-NSgAt2=      11
 IPart=  3        17311 of        19606 points in      22 batches and      108 microbatches, Max-NSigAt=      11 Max-NSgAt2=      11
 IPart=  1         8596 of         9316 points in      10 batches and       62 microbatches, Max-NSigAt=      11 Max-NSgAt2=      11
 IPart= 11         8403 of         9292 points in      10 batches and       67 microbatches, Max-NSigAt=      11 Max-NSgAt2=      11
 IPart= 19        16194 of        17110 points in      16 batches and       69 microbatches, Max-NSigAt=      11 Max-NSgAt2=      11
 IPart=  8         8745 of         9212 points in       8 batches and       30 microbatches, Max-NSigAt=      11 Max-NSgAt2=      11
 IPart= 16         9416 of        10268 points in      10 batches and       62 microbatches, Max-NSigAt=      11 Max-NSgAt2=      11
 IPart= 18         8687 of         9390 points in       9 batches and       43 microbatches, Max-NSigAt=      11 Max-NSgAt2=      11
 IPart=  4         9200 of        10378 points in      10 batches and       46 microbatches, Max-NSigAt=      11 Max-NSgAt2=      11
 IPart= 10         8381 of         8918 points in       9 batches and       48 microbatches, Max-NSigAt=      11 Max-NSgAt2=      11
 IPart=  6         8967 of         9720 points in      10 batches and       47 microbatches, Max-NSigAt=      11 Max-NSgAt2=      11
 IPart=  9         9625 of        10982 points in      12 batches and       53 microbatches, Max-NSigAt=      11 Max-NSgAt2=      11
 Polarizability after L703:
                1             2             3 
      1  0.000000D+00
      2  0.000000D+00  0.000000D+00
      3  0.000000D+00  0.000000D+00  0.000000D+00
 Dipole Derivatives after L703:
                 1             2             3             4             5 
      1  -0.324656D-01  0.159373D-01 -0.434278D-01  0.148358D+00 -0.248814D-01
      2   0.197699D+00 -0.190948D+00 -0.744834D-02  0.487204D+00 -0.604538D+00
      3  -0.544590D-01  0.745470D-02 -0.256696D+00  0.198697D+00 -0.274286D+00
                 6             7             8             9            10 
      1  -0.282290D+00 -0.813289D+00  0.545256D+00 -0.391601D-01 -0.549993D+00
      2  -0.456546D+00  0.696554D-01 -0.866252D+00  0.255853D-02  0.224270D-01
      3  -0.617677D+00 -0.329014D-01 -0.266098D-03 -0.777676D+00  0.777416D-01
                11            12            13            14            15 
      1  -0.122052D+00  0.132620D+00 -0.814862D+00  0.381144D+00  0.348916D-01
      2  -0.786228D+00 -0.543607D-01  0.481240D-01 -0.593374D+00  0.104654D+00
      3  -0.113249D-01  0.336312D-01  0.118122D-01  0.657168D-01  0.335834D-01
                16            17            18            19            20 
      1   0.547891D+00 -0.165106D+00  0.635891D+00  0.223099D-01 -0.109190D+00
      2  -0.206416D+00  0.223982D+00 -0.255942D+00  0.389440D+00  0.339611D+00
      3   0.240808D+00 -0.447903D-01  0.441245D+00 -0.984996D-02 -0.283004D-01
                21            22            23            24            25 
      1   0.264446D-01  0.454456D+00 -0.310677D+00 -0.592128D+00  0.203271D+00
      2   0.739818D-02 -0.191701D+00  0.310583D+00  0.283309D+00 -0.285466D-01
      3   0.700885D-01 -0.177061D+00  0.842470D-01  0.404949D+00  0.451439D-02
                26            27            28            29            30 
      1  -0.608108D-02  0.361195D-02  0.898217D+00 -0.481867D+00 -0.106486D+00
      2   0.108359D+01 -0.572479D-01 -0.335017D+00  0.431188D+00  0.731544D-01
      3   0.896579D-02  0.900607D-01 -0.278142D-01  0.445078D-01  0.919624D-01
                31            32            33 
      1  -0.638917D-01  0.277517D+00  0.230033D+00
      2  -0.452867D+00  0.652385D+00  0.360471D+00
      3  -0.231487D+00  0.148075D+00  0.486528D+00
 Hessian after L703:
                1             2             3             4             5 
      1  0.395022D+00
      2 -0.110914D+00  0.413686D+00
      3 -0.206520D-01 -0.313278D-01  0.653679D-01
      4  0.815700D-02 -0.107770D-02  0.744908D-03  0.272997D+00
      5 -0.192025D-01  0.166091D-01  0.553740D-02 -0.135680D-02  0.465724D+00
      6  0.239704D-02 -0.266930D-02 -0.570998D-02 -0.150542D+00  0.103686D+00
      7 -0.919772D-01 -0.388448D-02  0.423346D-02 -0.112052D-02 -0.129676D-02
      8  0.291097D-01 -0.217916D+00  0.186295D-01  0.101087D-01 -0.110343D-01
      9  0.284535D-03  0.208621D-01 -0.585250D-01 -0.228391D-02  0.497854D-03
     10 -0.256993D+00  0.615875D-01  0.151851D-01  0.266122D-02  0.109115D-01
     11  0.238208D-01 -0.117539D+00  0.494462D-02 -0.379309D-01 -0.436839D-01
     12  0.198207D-01 -0.872177D-03 -0.390703D-01 -0.126112D-02 -0.563488D-02
     13 -0.432661D-01 -0.770402D-02  0.155419D-02 -0.103248D+00 -0.703248D-01
     14  0.432904D-01  0.105091D-02 -0.541684D-02 -0.418378D-01 -0.296955D+00
     15  0.432033D-02  0.183845D-02  0.894736D-02  0.194689D-01  0.120228D-02
     16 -0.130314D-02  0.671153D-02 -0.328676D-02 -0.132698D-02  0.200258D-03
     17  0.261505D-01 -0.212151D-01  0.261064D-01 -0.106216D-02  0.217324D-02
     18 -0.118421D-02  0.827931D-02  0.555065D-02  0.493572D-03 -0.860611D-03
     19  0.798196D-02  0.757192D-02 -0.109721D-02 -0.132508D-01  0.175948D-03
     20 -0.225380D-01 -0.333729D-01  0.409547D-02 -0.269498D-02  0.322948D-02
     21  0.223178D-02  0.260343D-02  0.217682D-03 -0.171021D-02  0.321369D-03
     22 -0.189793D-02  0.669996D-02  0.267308D-02 -0.213905D-02  0.506760D-03
     23  0.263375D-01 -0.272630D-01 -0.221562D-01 -0.112364D-02  0.217162D-02
     24 -0.359086D-02  0.236216D-03  0.113981D-01  0.471463D-04  0.544128D-04
     25 -0.107021D-01  0.393838D-01 -0.104031D-02 -0.396355D-02 -0.184686D-02
     26  0.775233D-02 -0.129754D-01  0.649524D-03 -0.192552D-02  0.216862D-02
     27  0.447204D-03 -0.282178D-02  0.205806D-02  0.337138D-03 -0.999570D-03
     28 -0.113040D-02 -0.310503D-02  0.976631D-03  0.118766D-01 -0.610752D-02
     29 -0.350482D-02  0.411467D-03 -0.676119D-03  0.228458D-01 -0.338954D-01
     30 -0.105810D-02  0.100176D-02  0.109904D-01  0.905875D-03 -0.409892D-02
     31 -0.389086D-02  0.473026D-02  0.708959D-03 -0.170643D+00  0.883407D-01
     32 -0.302241D-03 -0.147645D-02 -0.385969D-03  0.560549D-01 -0.106507D+00
     33 -0.301638D-02  0.286976D-02 -0.122487D-02  0.133799D+00 -0.997052D-01
                6             7             8             9            10 
      6  0.187288D+00
      7 -0.192593D-02  0.548881D+00
      8  0.264874D-02 -0.738917D-02  0.455668D+00
      9 -0.803869D-04 -0.362049D-01  0.255713D-01  0.541415D+00
     10 -0.237645D-02 -0.511196D-02  0.161988D-01 -0.137775D-02  0.820398D+00
     11  0.148601D-02  0.412155D-01 -0.289793D-01 -0.324726D-02  0.168718D+00
     12  0.832192D-02 -0.450157D-02 -0.942594D-03 -0.701458D-02 -0.403633D-01
     13  0.137713D-01  0.706686D-03 -0.604979D-02  0.259960D-03 -0.502666D+00
     14 -0.278599D-01 -0.113345D-02  0.197691D-01 -0.160366D-02 -0.219327D+00
     15 -0.504058D-01 -0.122509D-03  0.806298D-03  0.586363D-03  0.233378D-01
     16 -0.417191D-03 -0.116370D+00  0.118939D-01 -0.875686D-01  0.105977D-02
     17  0.449185D-03  0.727808D-02 -0.532376D-01  0.125835D-01 -0.459595D-02
     18  0.221895D-04 -0.878803D-01  0.170932D-01 -0.190884D+00  0.189538D-02
[...]
     Eigenvalues ---    0.04680   0.08686   0.08778   0.10705   0.12082
     Eigenvalues ---    0.13475   0.16483   0.18191   0.18736   0.19826
     Eigenvalues ---    0.22138   0.23301   0.33222   0.33591   0.35088
     Eigenvalues ---    0.36355   0.37354   0.39844   0.45086   0.45698
     Eigenvalues ---    0.53342   0.66236
 Angle between quadratic step and forces=  70.22 degrees.
 Linear search not attempted -- first point.
 Iteration  1 RMS(Cart)=  0.00001500 RMS(Int)=  0.00000000
 Iteration  2 RMS(Cart)=  0.00000000 RMS(Int)=  0.00000000
 ITry= 1 IFail=0 DXMaxC= 3.86D-05 DCOld= 1.00D+10 DXMaxT= 3.00D-01 DXLimC= 3.00D+00 Rises=F
 Variable       Old X    -DE/DX   Delta X   Delta X   Delta X     New X
                                 (Linear)    (Quad)   (Total)
    R1        2.67120   0.00000   0.00000   0.00000   0.00000   2.67120
    R2        2.59481   0.00000   0.00000   0.00000   0.00000   2.59481
    R3        2.56333  -0.00000   0.00000  -0.00000  -0.00000   2.56333
    R4        1.82347  -0.00000   0.00000  -0.00000  -0.00000   1.82347
    R5        2.05345   0.00000   0.00000   0.00000   0.00000   2.05345
    R6        2.06653   0.00000   0.00000   0.00000   0.00000   2.06653
    R7        2.06457  -0.00000   0.00000  -0.00000  -0.00000   2.06457
    R8        2.50502   0.00000   0.00000   0.00000   0.00000   2.50502
    R9        2.04478  -0.00000   0.00000  -0.00000  -0.00000   2.04478
   R10        2.03835   0.00000   0.00000   0.00000   0.00000   2.03835
    A1        1.98208  -0.00000   0.00000  -0.00000  -0.00000   1.98208
    A2        1.87243  -0.00000   0.00000  -0.00000  -0.00000   1.87243
    A3        1.87229   0.00000   0.00000   0.00000   0.00000   1.87229
    A4        1.93110  -0.00000   0.00000  -0.00000  -0.00000   1.93110
    A5        1.93728  -0.00000   0.00000  -0.00000  -0.00000   1.93727
    A6        1.90555  -0.00000   0.00000  -0.00001  -0.00001   1.90554
    A7        1.91450   0.00000   0.00000   0.00000   0.00000   1.91450
    A8        1.90277   0.00000   0.00000   0.00000   0.00000   1.90277
    A9        2.08155   0.00000   0.00000  -0.00000  -0.00000   2.08155
   A10        2.05344  -0.00000   0.00000  -0.00000  -0.00000   2.05343
   A11        2.14729   0.00000   0.00000   0.00000   0.00000   2.14729
   A12        2.16216  -0.00000   0.00000  -0.00001  -0.00001   2.16215
   A13        1.98815   0.00000   0.00000   0.00000   0.00000   1.98815
   A14        2.13268   0.00000   0.00000   0.00000   0.00000   2.13269
    D1       -3.10486   0.00000   0.00000   0.00003   0.00003  -3.10483
    D2       -1.02790  -0.00000   0.00000   0.00002   0.00002  -1.02788
    D3        1.08699   0.00000   0.00000   0.00002   0.00002   1.08701
    D4       -2.45354  -0.00000   0.00000  -0.00003  -0.00003  -2.45357
    D5        0.73255  -0.00000   0.00000  -0.00003  -0.00003   0.73253
    D6       -0.00098   0.00000   0.00000   0.00001   0.00001  -0.00097
    D7        3.11982  -0.00000   0.00000  -0.00001  -0.00001   3.11981
    D8        0.03798  -0.00000   0.00000  -0.00000  -0.00000   0.03797
    D9       -3.08116   0.00000   0.00000   0.00001   0.00001  -3.08114
   D10        3.13254  -0.00000   0.00000  -0.00000  -0.00000   3.13254
   D11        0.01341   0.00000   0.00000   0.00001   0.00001   0.01342
         Item               Value     Threshold  Converged?
 Maximum Force            0.000002     0.000015     YES
 RMS     Force            0.000001     0.000010     YES
 Maximum Displacement     0.000039     0.000060     YES
 RMS     Displacement     0.000015     0.000040     YES
 Predicted change in Energy=-3.314793D-11
 Optimization completed.
    -- Stationary point found.
                           ----------------------------
                           !   Optimized Parameters   !
                           ! (Angstroms and Degrees)  !
 --------------------------                            --------------------------
 ! Name  Definition              Value          Derivative Info.                !
 --------------------------------------------------------------------------------
 ! R1    R(1,3)                  1.4135         -DE/DX =    0.0                 !
 ! R2    R(1,4)                  1.3731         -DE/DX =    0.0                 !
 ! R3    R(2,5)                  1.3565         -DE/DX =    0.0                 !
 ! R4    R(2,11)                 0.9649         -DE/DX =    0.0                 !
 ! R5    R(3,6)                  1.0866         -DE/DX =    0.0                 !
 ! R6    R(3,7)                  1.0936         -DE/DX =    0.0                 !
 ! R7    R(3,8)                  1.0925         -DE/DX =    0.0                 !
 ! R8    R(4,5)                  1.3256         -DE/DX =    0.0                 !
 ! R9    R(4,9)                  1.0821         -DE/DX =    0.0                 !
 ! R10   R(5,10)                 1.0786         -DE/DX =    0.0                 !
 ! A1    A(3,1,4)              113.5651         -DE/DX =    0.0                 !
 ! A2    A(5,2,11)             107.2822         -DE/DX =    0.0                 !
 ! A3    A(1,3,6)              107.2743         -DE/DX =    0.0                 !
 ! A4    A(1,3,7)              110.6437         -DE/DX =    0.0                 !
 ! A5    A(1,3,8)              110.9978         -DE/DX =    0.0                 !
 ! A6    A(6,3,7)              109.1798         -DE/DX =    0.0                 !
 ! A7    A(6,3,8)              109.6927         -DE/DX =    0.0                 !
 ! A8    A(7,3,8)              109.0207         -DE/DX =    0.0                 !
 ! A9    A(1,4,5)              119.264          -DE/DX =    0.0                 !
 ! A10   A(1,4,9)              117.6533         -DE/DX =    0.0                 !
 ! A11   A(5,4,9)              123.0305         -DE/DX =    0.0                 !
 ! A12   A(2,5,4)              123.8827         -DE/DX =    0.0                 !
 ! A13   A(2,5,10)             113.9124         -DE/DX =    0.0                 !
 ! A14   A(4,5,10)             122.1938         -DE/DX =    0.0                 !
 ! D1    D(4,1,3,6)           -177.8951         -DE/DX =    0.0                 !
 ! D2    D(4,1,3,7)            -58.8946         -DE/DX =    0.0                 !
 ! D3    D(4,1,3,8)             62.2799         -DE/DX =    0.0                 !
 ! D4    D(3,1,4,5)           -140.5778         -DE/DX =    0.0                 !
 ! D5    D(3,1,4,9)             41.9723         -DE/DX =    0.0                 !
 ! D6    D(11,2,5,4)            -0.0561         -DE/DX =    0.0                 !
 ! D7    D(11,2,5,10)          178.7526         -DE/DX =    0.0                 !
 ! D8    D(1,4,5,2)              2.1758         -DE/DX =    0.0                 !
 ! D9    D(1,4,5,10)          -176.5372         -DE/DX =    0.0                 !
 ! D10   D(9,4,5,2)            179.4815         -DE/DX =    0.0                 !
 ! D11   D(9,4,5,10)             0.7685         -DE/DX =    0.0                 !
 --------------------------------------------------------------------------------
 GradGradGradGradGradGradGradGradGradGradGradGradGradGradGradGradGradGrad

 Leave Link  103 at Tue Sep 24 22:56:18 2019, MaxMem=   671088640 cpu:             109.6 elap:              55.5
 (Enter /shared/centos7/gaussian/g16/l9999.exe)

 ----------------------------------------------------------------------

 Electric dipole moment (input orientation):
 (Debye = 10**-18 statcoulomb cm , SI units = C m)
                  (au)            (Debye)         (10**-30 SI)
   Tot        0.864531D+00      0.219742D+01      0.732980D+01
   x         -0.246230D+00     -0.625853D+00     -0.208762D+01
   y         -0.480627D+00     -0.122163D+01     -0.407493D+01
   z          0.675116D+00      0.171597D+01      0.572388D+01

 Dipole polarizability, Alpha (input orientation).
 (esu units = cm**3 , SI units = C**2 m**2 J**-1)
 Alpha(0;0):
               (au)            (10**-24 esu)      (10**-40 SI)
   iso        0.445369D+02      0.659968D+01      0.734314D+01
   aniso      0.248250D+02      0.367869D+01      0.409309D+01
   xx         0.347854D+02      0.515466D+01      0.573533D+01
   yx         0.575716D+01      0.853123D+00      0.949228D+00
   yy         0.529327D+02      0.784382D+01      0.872743D+01
   zx         0.131582D+01      0.194985D+00      0.216950D+00
   zy        -0.931884D+01     -0.138091D+01     -0.153647D+01
   zz         0.458925D+02      0.680056D+01      0.756665D+01

 ----------------------------------------------------------------------

 Dipole orientation:
     8         -0.39857254         -0.12000515          1.39123028
     8         -1.71386891          1.72484557         -3.29468700
     6         -1.13807509         -0.18742989          3.95714090
     6          0.41627938          2.21555120          0.60749503
     6         -0.21801127          3.03160092         -1.67436266
     1         -1.67427143         -2.12256454          4.38654369
     1          0.42995534          0.37035771          5.18216959
     1         -2.73924781          1.07030549          4.29888528
     1          1.62453285          3.27318916          1.87345897
     1          0.45727270          4.80428120         -2.42032995
     1         -2.17988197          0.16862851         -2.46639974

 Electric dipole moment (dipole orientation):
 (Debye = 10**-18 statcoulomb cm , SI units = C m)
                  (au)            (Debye)         (10**-30 SI)
   Tot        0.864531D+00      0.219742D+01      0.732980D+01
   x          0.000000D+00      0.000000D+00      0.000000D+00
   y          0.000000D+00      0.000000D+00      0.000000D+00
   z          0.864531D+00      0.219742D+01      0.732980D+01

 Dipole polarizability, Alpha (dipole orientation).
 (esu units = cm**3 , SI units = C**2 m**2 J**-1)
 Alpha(0;0):
               (au)            (10**-24 esu)      (10**-40 SI)
   iso        0.445369D+02      0.659968D+01      0.734314D+01
   aniso      0.248250D+02      0.367869D+01      0.409309D+01
   xx         0.360400D+02      0.534058D+01      0.594220D+01
   yx         0.394402D+01      0.584444D+00      0.650281D+00
   yy         0.410740D+02      0.608653D+01      0.677218D+01
   zx         0.345481D+01      0.511950D+00      0.569621D+00
   zy        -0.802031D+01     -0.118849D+01     -0.132237D+01
   zz         0.564966D+02      0.837193D+01      0.931502D+01

 ----------------------------------------------------------------------

 Test job not archived.
 1\1\GINC-C0208\Freq\RM062X\CC-pVTZ\C3H6O2\HARMS.N\24-Sep-2019\0\\#P Ge
 om=AllCheck Guess=TCheck SCRF=Check Test GenChk RM062X/CC-pVTZ Freq\\G
 aussian input prepared by ASE\\0,1\O,-0.4053438576,-0.4430177873,0.479
 5320451\O,-0.4502180695,1.8042465759,-1.1123617051\C,-1.1624001251,-1.
 1925797181,1.4085704188\C,0.0144533101,0.7706456099,0.9655742048\C,-0.
 0003906037,1.8286811378,0.1671021524\H,-1.4068912523,-2.1399915448,0.9
 359032993\H,-0.5813044855,-1.3828024792,2.3152217539\H,-2.0817917813,-
 0.6677258655,1.6784826664\H,0.3841481125,0.8039119787,1.981968483\H,0.
 3697048201,2.7916315061,0.4821233345\H,-0.737207561,0.9019006488,-1.29
 81431654\\Version=EM64L-G16RevA.03\State=1-A\HF=-268.3241864\RMSD=4.81
 3e-09\RMSF=1.131e-06\ZeroPoint=0.0911284\Thermal=0.0969967\Dipole=-0.2
 462297,-0.4806272,0.6751165\DipoleDeriv=-0.4916544,-0.4145492,0.157217
 6,-0.3667853,-1.3671266,0.4164553,0.042863,-0.0126802,-0.5489409,-0.38
 82304,0.149211,-0.3388704,-0.0332171,-0.2937692,-0.1127008,-0.1716573,
 0.4015701,-1.2483876,0.5123462,0.2213206,-0.1756422,0.1496056,0.574221
 4,-0.2287997,-0.1997834,-0.3780344,0.5613218,-0.0732713,0.2573203,0.09
 59427,0.2859979,0.8221231,-0.018515,0.2121715,0.3323704,-0.1306575,-0.
 0031285,-0.0804297,0.4027955,0.02218,0.118185,-0.039587,0.2381097,-0.3
 79859,1.0671143,0.0529115,-0.0500396,0.0137399,-0.0601288,-0.0964342,-
 0.0196282,-0.0130646,-0.0698207,0.0181258,-0.0451244,0.0074284,-0.1117
 037,-0.0178679,0.0271372,0.0131362,-0.0351928,0.0983387,-0.1068623,-0.
 1100466,-0.0010183,0.0680349,0.115259,-0.0093114,-0.0365134,0.0521849,
 0.0674413,0.0019604,0.128732,-0.006203,-0.0787001,-0.0294801,0.0092158
 ,0.0416387,-0.0923542,-0.0495874,-0.0227359,0.1187866,-0.0551483,-0.05
 10495,-0.0541607,0.0077209,-0.0373426,-0.0366425,-0.0093392,0.0418279,
 0.2986793,-0.0278922,0.0182353,-0.0114026,0.208038,0.0218564,0.0033656
 ,-0.0003996,0.3672338\Polar=34.7853574,5.7571621,52.9327395,1.3158218,
 -9.3188413,45.8924657\Quadrupole=-0.6983211,0.463563,0.2347581,2.04589
 82,0.7726611,1.0527681\PG=C01 [X(C3H6O2)]\NImag=0\\0.19170988,0.180190
 20,0.46037403,-0.07263896,-0.00422175,0.31911904,-0.00361975,0.0070158
 9,0.00651078,0.12225307,0.00271696,0.00703637,0.00405112,0.14850407,0.
 55192436,0.00797484,0.01053562,0.00888364,0.15009104,0.06125225,0.4265
 8765,-0.11295377,-0.05821039,0.05868340,-0.00110142,0.00223006,-0.0010
 3108,0.54964472,-0.04523843,-0.11564476,0.03639183,-0.00112942,0.00010
 260,-0.00323223,-0.01539429,0.58850891,0.07361290,0.06798866,-0.166725
 80,0.00164309,0.00156734,0.00480170,0.03768909,0.05649530,0.54460703,-
 0.06734655,-0.06076744,-0.01598369,0.00816018,0.00863384,-0.02653291,-
 0.01458609,-0.02753640,-0.00535265,0.19527830,-0.07698691,-0.25358857,
 -0.05378216,-0.00179056,0.00511552,-0.00559802,-0.01751848,-0.04350400
 ,-0.00133878,0.10013042,0.73837435,-0.03174237,-0.08330008,-0.12970719
 ,-0.01956410,0.03030290,-0.06358599,0.00586367,0.02384319,0.01207785,0
 .15333859,-0.19097431,0.74230204,0.00562263,-0.02407227,0.00352258,-0.
 07863345,-0.02279282,-0.08398637,0.00115037,-0.00141012,-0.00348152,-0
 .06360926,-0.00554525,-0.01667635,0.21402433,-0.01182570,-0.06268327,0
 .01712261,-0.00817196,-0.10891038,0.02826058,0.00240117,0.00137011,-0.
 00633837,-0.01195829,-0.39104153,0.21148310,0.14187126,0.85776196,-0.0
 0928084,-0.03012496,0.00717162,-0.09494219,-0.01934216,-0.30810985,0.0
 0029034,0.00037504,-0.00780820,-0.01114463,0.24327064,-0.25912016,0.15
 486296,-0.13770899,0.66828475,-0.00777776,-0.02212327,-0.00615429,0.00
 005784,0.00008053,0.00036657,-0.06215999,-0.04393286,-0.02433455,-0.00
 052844,-0.00135514,0.00311420,-0.00050395,-0.00103400,-0.00075414,0.06
 565402,-0.00888156,-0.02079253,-0.00387331,0.00037828,0.00016779,0.000
 97914,-0.04937173,-0.25274661,-0.10691086,-0.00110509,0.00032367,0.004
 39032,-0.00105657,-0.00043495,-0.00170612,0.06098637,0.27852573,0.0102
 8290,0.02834585,0.00973501,0.00009901,-0.00023039,-0.00010086,-0.03057
 661,-0.11845337,-0.11058467,0.00153066,0.00185424,-0.00299866,0.000536
 30,0.00116636,0.00113709,0.02429370,0.11326439,0.11465822,0.01150765,-
 0.00950393,0.02339597,0.00027443,-0.00052494,-0.00013694,-0.13552470,0
 .02342364,-0.12180521,0.00190872,0.00214908,0.00244933,-0.00025445,0.0
 0002280,0.00034232,-0.00311508,0.00187972,-0.00392084,0.13918214,0.002
 01272,-0.00924790,0.02257330,-0.00008709,-0.00040963,-0.00040257,0.022
 15169,-0.05804513,0.02693897,0.00294441,0.00359883,0.00386281,-0.00009
 495,-0.00048060,0.00000096,-0.01582878,0.00696349,-0.02243757,-0.02139
 607,0.05882241,-0.00055361,0.01537371,-0.02861644,0.00018372,0.0002912
 2,0.00001782,-0.11635699,0.03011977,-0.21474854,-0.00128907,-0.0046243
 2,-0.00018165,0.00022506,0.00086028,0.00024915,-0.00882927,0.00196617,
 -0.00990738,0.12305925,-0.04266920,0.24454247,-0.01936857,-0.00306215,
 0.01507346,0.00019921,0.00005557,0.00033244,-0.22786903,0.10830388,0.0
 4365335,0.00191793,0.00378950,0.00095622,-0.00029183,-0.00131641,-0.00
 057282,0.00827426,-0.00305644,-0.00243357,-0.01370699,0.01083874,0.003
 07700,0.25172785,-0.02433396,0.00728754,0.01025120,-0.00060386,-0.0000
 7334,-0.00047132,0.11364455,-0.12202677,-0.03233569,-0.00056580,0.0054
 5924,0.00017772,0.00122419,-0.00041600,0.00114935,0.02323031,-0.011581
 27,-0.00418292,0.00293357,-0.00139287,-0.00212913,-0.11561785,0.122931
 12,0.02937275,-0.00279029,-0.01214153,-0.00046242,-0.00020839,-0.00101
 838,0.04195812,-0.02842321,-0.06283754,-0.00179591,-0.00314365,-0.0006
 4948,0.00018120,0.00090672,0.00112666,0.01228860,-0.00786747,-0.002152
 19,-0.02238415,0.01332563,0.00761230,-0.05959114,0.02773872,0.07007169
 ,-0.00292462,-0.00558257,-0.00801920,0.00927153,-0.00301488,-0.0034455
 6,0.00119665,0.00134036,-0.00223338,-0.06397603,-0.00510505,-0.0994502
 3,0.00028332,0.00135185,0.00266241,-0.00007329,0.00014329,0.00042566,0
 .00012933,-0.00030929,0.00033142,-0.00061764,-0.00014453,-0.00002047,0
 .06095740,-0.01544793,-0.01046687,-0.03106167,-0.00259563,-0.00312910,
 0.00417749,0.00121750,0.00346755,-0.00515710,-0.00551419,-0.05497995,0
 .00405664,0.01050534,0.00774339,0.02148965,0.00019634,-0.00005386,0.00
 032797,0.00084661,-0.00000649,0.00123300,-0.00013495,-0.00029863,0.000
 53126,0.01015520,0.05906842,-0.00578114,-0.00665959,-0.00924439,-0.001
 56349,0.00336276,0.00263189,0.00238252,0.00122416,0.00122847,-0.097706
 75,0.00317388,-0.30652150,-0.00597133,-0.00516352,-0.01242552,-0.00004
 699,-0.00016663,0.00037647,-0.00082217,-0.00093000,0.00051625,-0.00035
 114,-0.00003886,-0.00002910,0.10823422,0.00538606,0.32321776,0.0078814
 0,-0.00377602,-0.00465291,-0.00322307,-0.01023149,-0.00549540,0.001488
 65,0.00136806,0.00039083,0.00162369,0.00248057,0.00093278,-0.07194605,
 -0.09443532,-0.03258229,0.00016232,0.00025180,-0.00023949,-0.00017959,
 -0.00015984,0.00004133,-0.00007772,0.00024426,0.00009485,-0.00362227,0
 .00098456,0.00138504,0.06656038,-0.00222765,0.00052339,0.00499544,-0.0
 0012183,0.00411112,-0.00232098,0.00032146,-0.00091924,-0.00079997,-0.0
 0788631,-0.01392275,-0.01165665,-0.09458729,-0.29960334,-0.07012939,-0
 .00021395,-0.00020578,0.00029015,-0.00000610,-0.00006773,0.00011539,-0
 .00003163,-0.00004958,-0.00002980,0.00108635,-0.00025939,0.00033309,0.
 10335274,0.30815702,-0.00190140,0.00509617,-0.00102417,-0.01425166,-0.
 03257424,-0.01499990,-0.00096924,0.00009490,0.00058627,0.00710442,0.01
 360490,0.01140369,-0.03135688,-0.06462674,-0.07371782,0.00013806,0.000
 10541,-0.00018598,0.00011259,0.00014141,-0.00010326,0.00009487,-0.0001
 1710,-0.00007629,0.00129554,-0.00067170,-0.00045387,0.04225154,0.07791
 387,0.08390520,-0.00273056,-0.00010807,0.00026286,-0.05363856,-0.12565
 691,-0.03813665,0.00071459,0.00020557,0.00021806,0.00115755,-0.0002481
 8,0.00077825,-0.00584165,-0.01690539,-0.00888112,0.00001008,-0.0001680
 8,0.00000230,-0.00022146,-0.00007154,0.00011115,-0.00018746,-0.0000108
 8,0.00035857,-0.00062437,-0.00021284,0.00024122,0.00133224,0.00031420,
 -0.00251783,0.06002959,0.00002225,-0.00279742,-0.00244660,-0.14139790,
 -0.45593532,-0.09317994,-0.00147154,-0.00056265,-0.00010950,0.00362484
 ,0.00416519,0.00781435,-0.00404152,-0.00330540,-0.00727404,-0.00000556
 ,-0.00016568,0.00005528,0.00017562,0.00026562,-0.00053688,0.00023174,0
 .00016057,-0.00003952,0.00007927,-0.00108505,-0.00052135,-0.00007931,0
 .00223628,0.00103313,0.14286211,0.45702385,0.00065494,-0.00024332,0.00
 255022,-0.02774379,-0.04847240,-0.05510772,0.00206677,0.00156463,-0.00
 059656,-0.00216806,-0.00244242,-0.00301894,-0.01785566,-0.04596203,-0.
 01678772,-0.00008189,-0.00018104,0.00002294,-0.00029017,-0.00040373,0.
 00061927,-0.00023866,-0.00004198,0.00009386,0.00021959,-0.00031162,0.0
 0070353,-0.00212626,0.00128884,-0.00533387,0.04756319,0.09520507,0.076
 85497\\-0.00000111,-0.00000035,0.00000056,-0.00000091,0.00000303,0.000
 00043,0.00000079,-0.00000004,-0.00000033,0.00000074,-0.00000013,-0.000
 00060,0.00000121,-0.00000170,0.00000013,-0.00000176,0.00000110,-0.0000
 0015,0.00000026,-0.00000015,-0.00000099,0.00000038,0.00000045,0.000001
 93,0.00000209,-0.00000089,-0.00000090,0.00000097,-0.00000072,-0.000000
 15,-0.00000266,-0.00000060,0.00000007\\\@


 THAT'S WHAT MAKES US A GREAT COUNTRY.
 THE LITTLE THINGS ARE SERIOUS AND THE BIG ONES ARE NOT.
           WILL ROGERS
 Job cpu time:       0 days  1 hours  7 minutes 25.5 seconds.
 Elapsed time:       0 days  0 hours 33 minutes 44.3 seconds.
 File lengths (MBytes):  RWF=   1312 Int=      0 D2E=      0 Chk=     32 Scr=     32
 Normal termination of Gaussian 16 at Tue Sep 24 22:56:20 2019.
