 Entering Gaussian System, Link 0=g16
 Input=loose/species/COC=CO/conformers/COC=CO_29.com
 Output=loose/species/COC=CO/conformers/COC=CO_29.log
 Initial command:
 /shared/centos7/gaussian/g16/l1.exe "/scratch/harms.n/gauss_scrdir/Gau-38720.inp" -scrdir="/scratch/harms.n/gauss_scrdir/"
 Entering Link 1 = /shared/centos7/gaussian/g16/l1.exe PID=     38721.
  
 Copyright (c) 1988,1990,1992,1993,1995,1998,2003,2009,2016,
            Gaussian, Inc.  All Rights Reserved.
  
 This is part of the Gaussian(R) 16 program.  It is based on
 the Gaussian(R) 09 system (copyright 2009, Gaussian, Inc.),
 the Gaussian(R) 03 system (copyright 2003, Gaussian, Inc.),
 the Gaussian(R) 98 system (copyright 1998, Gaussian, Inc.),
 the Gaussian(R) 94 system (copyright 1995, Gaussian, Inc.),
 the Gaussian 92(TM) system (copyright 1992, Gaussian, Inc.),
 the Gaussian 90(TM) system (copyright 1990, Gaussian, Inc.),
 the Gaussian 88(TM) system (copyright 1988, Gaussian, Inc.),
 the Gaussian 86(TM) system (copyright 1986, Carnegie Mellon
 University), and the Gaussian 82(TM) system (copyright 1983,
 Carnegie Mellon University). Gaussian is a federally registered
 trademark of Gaussian, Inc.
  
 This software contains proprietary and confidential information,
 including trade secrets, belonging to Gaussian, Inc.
  
 This software is provided under written license and may be
 used, copied, transmitted, or stored only in accord with that
 written license.
  
 The following legend is applicable only to US Government
 contracts under FAR:
  
                    RESTRICTED RIGHTS LEGEND
  
 Use, reproduction and disclosure by the US Government is
 subject to restrictions as set forth in subparagraphs (a)
 and (c) of the Commercial Computer Software - Restricted
 Rights clause in FAR 52.227-19.
  
 Gaussian, Inc.
 340 Quinnipiac St., Bldg. 40, Wallingford CT 06492
  
  
 ---------------------------------------------------------------
 Warning -- This program may not be used in any manner that
 competes with the business of Gaussian, Inc. or will provide
 assistance to any competitor of Gaussian, Inc.  The licensee
 of this program is prohibited from giving any competitor of
 Gaussian, Inc. access to this program.  By using this program,
 the user acknowledges that Gaussian, Inc. is engaged in the
 business of creating and licensing software in the field of
 computational chemistry and represents and warrants to the
 licensee that it is not a competitor of Gaussian, Inc. and that
 it will not use this program in any manner prohibited above.
 ---------------------------------------------------------------
  

 Cite this work as:
 Gaussian 16, Revision A.03,
 M. J. Frisch, G. W. Trucks, H. B. Schlegel, G. E. Scuseria, 
 M. A. Robb, J. R. Cheeseman, G. Scalmani, V. Barone, 
 G. A. Petersson, H. Nakatsuji, X. Li, M. Caricato, A. V. Marenich, 
 J. Bloino, B. G. Janesko, R. Gomperts, B. Mennucci, H. P. Hratchian, 
 J. V. Ortiz, A. F. Izmaylov, J. L. Sonnenberg, D. Williams-Young, 
 F. Ding, F. Lipparini, F. Egidi, J. Goings, B. Peng, A. Petrone, 
 T. Henderson, D. Ranasinghe, V. G. Zakrzewski, J. Gao, N. Rega, 
 G. Zheng, W. Liang, M. Hada, M. Ehara, K. Toyota, R. Fukuda, 
 J. Hasegawa, M. Ishida, T. Nakajima, Y. Honda, O. Kitao, H. Nakai, 
 T. Vreven, K. Throssell, J. A. Montgomery, Jr., J. E. Peralta, 
 F. Ogliaro, M. J. Bearpark, J. J. Heyd, E. N. Brothers, K. N. Kudin, 
 V. N. Staroverov, T. A. Keith, R. Kobayashi, J. Normand, 
 K. Raghavachari, A. P. Rendell, J. C. Burant, S. S. Iyengar, 
 J. Tomasi, M. Cossi, J. M. Millam, M. Klene, C. Adamo, R. Cammi, 
 J. W. Ochterski, R. L. Martin, K. Morokuma, O. Farkas, 
 J. B. Foresman, and D. J. Fox, Gaussian, Inc., Wallingford CT, 2016.
 
 ******************************************
 Gaussian 16:  EM64L-G16RevA.03 25-Dec-2016
                24-Sep-2019 
 ******************************************
 %nprocshared=20
 Will use up to   20 processors via shared memory.
 %mem=5GB
 ----------------------------------------------------------------------
 #p m062x/cc-pVTZ opt=(calcfc,maxcycles=900,Tight) freq IOP(7/33=1,2/16
 =3) scf=(maxcycle=900)
 ----------------------------------------------------------------------
 1/6=900,7=10,10=4,18=20,19=15,26=3,38=1/1,3;
 2/9=110,12=2,16=3,17=6,18=5,40=1/2;
 3/5=16,6=1,11=2,25=1,30=1,71=2,74=-55,140=1/1,2,3;
 4//1;
 5/5=2,7=900,38=5/2;
 8/6=4,10=90,11=11/1;
 11/6=1,8=1,9=11,15=111,16=1/1,2,10;
 10/6=1,13=1/2;
 6/7=2,8=2,9=2,10=2,28=1/1;
 7/10=1,18=20,25=1,33=1/1,2,3,16;
 1/6=900,7=10,10=4,18=20,19=15,26=3/3(2);
 2/9=110,16=3/2;
 99//99;
 2/9=110,16=3/2;
 3/5=16,6=1,11=2,25=1,30=1,71=1,74=-55/1,2,3;
 4/5=5,16=3,69=1/1;
 5/5=2,7=900,38=5/2;
 7/33=1/1,2,3,16;
 1/6=900,7=10,18=20,19=15,26=3/3(-5);
 2/9=110,16=3/2;
 6/7=2,8=2,9=2,10=2,19=2,28=1/1;
 99/9=1/99;
 Leave Link    1 at Tue Sep 24 13:48:15 2019, MaxMem=   671088640 cpu:               3.9 elap:               2.0
 (Enter /shared/centos7/gaussian/g16/l101.exe)
 ------------------------------
 Gaussian input prepared by ASE
 ------------------------------
 Symbolic Z-matrix:
 Charge =  0 Multiplicity = 1
 O                     0.19831  -0.76642   1.02402 
 O                    -0.84608   1.5401    2.45824 
 C                    -1.21814  -0.88485   0.87238 
 C                     0.67461   0.53424   0.91916 
 C                     0.21945   1.568     1.58636 
 H                    -1.42181  -1.60042   0.02449 
 H                    -1.6639   -1.31965   1.81203 
 H                    -1.69264   0.07588   0.67157 
 H                     1.56173   0.60269   0.29245 
 H                     0.64898   2.54119   1.4802 
 H                    -1.10153   0.56185   2.56677 
 
 ITRead=  0  0  0  0  0  0  0  0  0  0  0
 MicOpt= -1 -1 -1 -1 -1 -1 -1 -1 -1 -1 -1
 NAtoms=     11 NQM=       11 NQMF=       0 NMMI=      0 NMMIF=      0
                NMic=       0 NMicF=      0.
                    Isotopes and Nuclear Properties:
 (Nuclear quadrupole moments (NQMom) in fm**2, nuclear magnetic moments (NMagM)
  in nuclear magnetons)

  Atom         1           2           3           4           5           6           7           8           9          10
 IAtWgt=          16          16          12          12          12           1           1           1           1           1
 AtmWgt=  15.9949146  15.9949146  12.0000000  12.0000000  12.0000000   1.0078250   1.0078250   1.0078250   1.0078250   1.0078250
 NucSpn=           0           0           0           0           0           1           1           1           1           1
 AtZEff=  -0.0000000  -0.0000000  -0.0000000  -0.0000000  -0.0000000  -0.0000000  -0.0000000  -0.0000000  -0.0000000  -0.0000000
 NQMom=    0.0000000   0.0000000   0.0000000   0.0000000   0.0000000   0.0000000   0.0000000   0.0000000   0.0000000   0.0000000
 NMagM=    0.0000000   0.0000000   0.0000000   0.0000000   0.0000000   2.7928460   2.7928460   2.7928460   2.7928460   2.7928460
 AtZNuc=   8.0000000   8.0000000   6.0000000   6.0000000   6.0000000   1.0000000   1.0000000   1.0000000   1.0000000   1.0000000

  Atom        11
 IAtWgt=           1
 AtmWgt=   1.0078250
 NucSpn=           1
 AtZEff=  -0.0000000
 NQMom=    0.0000000
 NMagM=    2.7928460
 AtZNuc=   1.0000000
 Leave Link  101 at Tue Sep 24 13:48:17 2019, MaxMem=   671088640 cpu:               2.2 elap:               1.1
 (Enter /shared/centos7/gaussian/g16/l103.exe)

 GradGradGradGradGradGradGradGradGradGradGradGradGradGradGradGradGradGrad
 Berny optimization.
 Initialization pass.
                           ----------------------------
                           !    Initial Parameters    !
                           ! (Angstroms and Degrees)  !
 --------------------------                            --------------------------
 ! Name  Definition              Value          Derivative Info.                !
 --------------------------------------------------------------------------------
 ! R1    R(1,3)                  1.4295         calculate D2E/DX2 analytically  !
 ! R2    R(1,4)                  1.3891         calculate D2E/DX2 analytically  !
 ! R3    R(2,5)                  1.3771         calculate D2E/DX2 analytically  !
 ! R4    R(2,11)                 1.0169         calculate D2E/DX2 analytically  !
 ! R5    R(3,6)                  1.128          calculate D2E/DX2 analytically  !
 ! R6    R(3,7)                  1.1272         calculate D2E/DX2 analytically  !
 ! R7    R(3,8)                  1.0902         calculate D2E/DX2 analytically  !
 ! R8    R(4,5)                  1.3119         calculate D2E/DX2 analytically  !
 ! R9    R(4,9)                  1.0883         calculate D2E/DX2 analytically  !
 ! R10   R(5,10)                 1.0691         calculate D2E/DX2 analytically  !
 ! A1    A(3,1,4)              114.1628         calculate D2E/DX2 analytically  !
 ! A2    A(5,2,11)             106.3466         calculate D2E/DX2 analytically  !
 ! A3    A(1,3,6)              108.1315         calculate D2E/DX2 analytically  !
 ! A4    A(1,3,7)              109.595          calculate D2E/DX2 analytically  !
 ! A5    A(1,3,8)              112.1984         calculate D2E/DX2 analytically  !
 ! A6    A(6,3,7)              108.0889         calculate D2E/DX2 analytically  !
 ! A7    A(6,3,8)              109.9988         calculate D2E/DX2 analytically  !
 ! A8    A(7,3,8)              108.7443         calculate D2E/DX2 analytically  !
 ! A9    A(1,4,5)              125.4846         calculate D2E/DX2 analytically  !
 ! A10   A(1,4,9)              112.4485         calculate D2E/DX2 analytically  !
 ! A11   A(5,4,9)              121.7443         calculate D2E/DX2 analytically  !
 ! A12   A(2,5,4)              125.0656         calculate D2E/DX2 analytically  !
 ! A13   A(2,5,10)             113.0918         calculate D2E/DX2 analytically  !
 ! A14   A(4,5,10)             121.8327         calculate D2E/DX2 analytically  !
 ! D1    D(4,1,3,6)            122.9615         calculate D2E/DX2 analytically  !
 ! D2    D(4,1,3,7)           -119.4337         calculate D2E/DX2 analytically  !
 ! D3    D(4,1,3,8)              1.4748         calculate D2E/DX2 analytically  !
 ! D4    D(3,1,4,5)             51.5306         calculate D2E/DX2 analytically  !
 ! D5    D(3,1,4,9)           -134.9298         calculate D2E/DX2 analytically  !
 ! D6    D(11,2,5,4)             7.6943         calculate D2E/DX2 analytically  !
 ! D7    D(11,2,5,10)         -173.4402         calculate D2E/DX2 analytically  !
 ! D8    D(1,4,5,2)             -2.9878         calculate D2E/DX2 analytically  !
 ! D9    D(1,4,5,10)           178.2406         calculate D2E/DX2 analytically  !
 ! D10   D(9,4,5,2)           -175.9639         calculate D2E/DX2 analytically  !
 ! D11   D(9,4,5,10)             5.2645         calculate D2E/DX2 analytically  !
 --------------------------------------------------------------------------------
 Trust Radius=3.00D-01 FncErr=1.00D-07 GrdErr=1.00D-06 EigMax=2.50D+02 EigMin=1.00D-04
 Number of steps in this run=    100 maximum allowed number of steps=    100.
 GradGradGradGradGradGradGradGradGradGradGradGradGradGradGradGradGradGrad

 Leave Link  103 at Tue Sep 24 13:48:17 2019, MaxMem=   671088640 cpu:               1.3 elap:               0.7
 (Enter /shared/centos7/gaussian/g16/l202.exe)
                          Input orientation:                          
 ---------------------------------------------------------------------
 Center     Atomic      Atomic             Coordinates (Angstroms)
 Number     Number       Type             X           Y           Z
 ---------------------------------------------------------------------
      1          8           0        0.198312   -0.766424    1.024019
      2          8           0       -0.846077    1.540101    2.458239
      3          6           0       -1.218144   -0.884855    0.872381
      4          6           0        0.674608    0.534241    0.919159
      5          6           0        0.219447    1.567996    1.586355
      6          1           0       -1.421807   -1.600424    0.024494
      7          1           0       -1.663902   -1.319648    1.812033
      8          1           0       -1.692642    0.075883    0.671571
      9          1           0        1.561729    0.602686    0.292453
     10          1           0        0.648982    2.541188    1.480196
     11          1           0       -1.101529    0.561847    2.566774
 ---------------------------------------------------------------------
                    Distance matrix (angstroms):
                    1          2          3          4          5
     1  O    0.000000
     2  O    2.909947   0.000000
     3  C    1.429464   2.921265   0.000000
     4  C    1.389094   2.386002   2.366122   0.000000
     5  C    2.401288   1.377063   2.931365   1.311858   0.000000
     6  H    2.078314   4.014657   1.128020   3.122847   3.895126
     7  H    2.096393   3.043778   1.127250   3.114926   3.454913
     8  H    2.099859   2.460241   1.090179   2.423895   2.592164
     9  H    2.066049   3.371484   3.205743   1.088314   2.099459
    10  H    3.369198   2.047912   3.948844   2.084048   1.069052
    11  H    2.415364   1.016866   2.231034   2.422821   1.928350
                    6          7          8          9         10
     6  H    0.000000
     7  H    1.825580   0.000000
     8  H    1.817159   1.802495   0.000000
     9  H    3.718465   4.050826   3.318461   0.000000
    10  H    4.853883   4.512827   3.494969   2.449823   0.000000
    11  H    3.352787   2.103788   2.043861   3.502449   2.857049
                   11
    11  H    0.000000
 Stoichiometry    C3H6O2
 Framework group  C1[X(C3H6O2)]
 Deg. of freedom    27
 Full point group                 C1      NOp   1
 Largest Abelian subgroup         C1      NOp   1
 Largest concise Abelian subgroup C1      NOp   1
                         Standard orientation:                         
 ---------------------------------------------------------------------
 Center     Atomic      Atomic             Coordinates (Angstroms)
 Number     Number       Type             X           Y           Z
 ---------------------------------------------------------------------
      1          8           0       -1.077598    0.539729   -0.394612
      2          8           0        1.404820   -0.955077   -0.128247
      3          6           0       -1.477948   -0.671668    0.250060
      4          6           0        0.130423    1.053292    0.059836
      5          6           0        1.254931    0.384319    0.154335
      6          1           0       -2.496598   -0.506777    0.705685
      7          1           0       -1.565609   -1.495557   -0.514280
      8          1           0       -0.770959   -0.981702    1.019823
      9          1           0        0.086206    2.126541    0.234791
     10          1           0        2.159703    0.846457    0.487036
     11          1           0        0.525048   -1.261837   -0.535573
 ---------------------------------------------------------------------
 Rotational constants (GHZ):           9.0645038           4.3393783           3.1614035
 Leave Link  202 at Tue Sep 24 13:48:19 2019, MaxMem=   671088640 cpu:               3.6 elap:               1.8
 (Enter /shared/centos7/gaussian/g16/l301.exe)
 Standard basis: CC-pVTZ (5D, 7F)
 Ernie: Thresh=  0.10000D-02 Tol=  0.10000D-05 Strict=F.
 Ernie:  15 primitive shells out of 178 were deleted.
 There are   265 symmetry adapted cartesian basis functions of A   symmetry.
 There are   234 symmetry adapted basis functions of A   symmetry.
   234 basis functions,   362 primitive gaussians,   265 cartesian basis functions
    20 alpha electrons       20 beta electrons
       nuclear repulsion energy       180.7637983381 Hartrees.
 IExCor= 4336 DFT=T Ex+Corr=M062X ExCW=0 ScaHFX=  0.540000
 ScaDFX=  1.000000  1.000000  1.000000  1.000000 ScalE2=  1.000000  1.000000
 IRadAn=      5 IRanWt=     -1 IRanGd=            0 ICorTp=0 IEmpDi=  4
 NAtoms=   11 NActive=   11 NUniq=   11 SFac= 1.00D+00 NAtFMM=   60 NAOKFM=F Big=F
 Integral buffers will be    131072 words long.
 Raffenetti 2 integral format.
 Two-electron integral symmetry is turned on.
 Leave Link  301 at Tue Sep 24 13:48:20 2019, MaxMem=   671088640 cpu:               1.5 elap:               0.8
 (Enter /shared/centos7/gaussian/g16/l302.exe)
 NPDir=0 NMtPBC=     1 NCelOv=     1 NCel=       1 NClECP=     1 NCelD=      1
         NCelK=      1 NCelE2=     1 NClLst=     1 CellRange=     0.0.
 One-electron integrals computed using PRISM.
 One-electron integral symmetry used in STVInt
 NBasis=   234 RedAO= T EigKep=  3.55D-04  NBF=   234
 NBsUse=   234 1.00D-06 EigRej= -1.00D+00 NBFU=   234
 Precomputing XC quadrature grid using
 IXCGrd= 4 IRadAn=           5 IRanWt=          -1 IRanGd=           0 AccXCQ= 0.00D+00.
 Generated NRdTot=       0 NPtTot=           0 NUsed=           0 NTot=          32
 NSgBfM=   265   265   265   265   265 MxSgAt=    11 MxSgA2=    11.
 Leave Link  302 at Tue Sep 24 13:49:29 2019, MaxMem=   671088640 cpu:             139.3 elap:              69.6
 (Enter /shared/centos7/gaussian/g16/l303.exe)
 DipDrv:  MaxL=1.
 Leave Link  303 at Tue Sep 24 13:49:34 2019, MaxMem=   671088640 cpu:               9.6 elap:               4.8
 (Enter /shared/centos7/gaussian/g16/l401.exe)
 ExpMin= 1.03D-01 ExpMax= 1.53D+04 ExpMxC= 5.22D+02 IAcc=3 IRadAn=         5 AccDes= 0.00D+00
 Harris functional with IExCor= 1009 and IRadAn=       5 diagonalized for initial guess.
 HarFok:  IExCor= 1009 AccDes= 0.00D+00 IRadAn=         5 IDoV= 1 UseB2=F ITyADJ=14
 ICtDFT=  3500011 ScaDFX=  1.000000  1.000000  1.000000  1.000000
 FoFCou: FMM=F IPFlag=           0 FMFlag=      100000 FMFlg1=           0
         NFxFlg=           0 DoJE=T BraDBF=F KetDBF=T FulRan=T
         wScrn=  0.000000 ICntrl=       500 IOpCl=  0 I1Cent=   200000004 NGrid=           0
         NMat0=    1 NMatS0=      1 NMatT0=    0 NMatD0=    1 NMtDS0=    0 NMtDT0=    0
 Petite list used in FoFCou.
 Harris En= -268.192036354778    
 JPrj=0 DoOrth=F DoCkMO=F.
 Leave Link  401 at Tue Sep 24 13:49:58 2019, MaxMem=   671088640 cpu:              46.9 elap:              23.5
 (Enter /shared/centos7/gaussian/g16/l502.exe)
 Keep R1 ints in memory in canonical form, NReq=399924305.
 FoFCou: FMM=F IPFlag=           0 FMFlag=           0 FMFlg1=           0
         NFxFlg=           0 DoJE=F BraDBF=F KetDBF=F FulRan=T
         wScrn=  0.000000 ICntrl=       600 IOpCl=  0 I1Cent=           0 NGrid=           0
         NMat0=    1 NMatS0=  27495 NMatT0=    0 NMatD0=    1 NMtDS0=    0 NMtDT0=    0
 Symmetry not used in FoFCou.
 Two-electron integral symmetry not used.
 Closed shell SCF:
 Using DIIS extrapolation, IDIIS=  1040.
 NGot=   671088640 LenX=   292939207 LenY=   292868541
 Requested convergence on RMS density matrix=1.00D-08 within 900 cycles.
 Requested convergence on MAX density matrix=1.00D-06.
 Requested convergence on             energy=1.00D-06.
 No special actions if energy rises.
 Integral accuracy reduced to 1.0D-05 until final iterations.

 Cycle   1  Pass 0  IDiag  1:
 E= -268.190394244811    
 DIIS: error= 1.65D-02 at cycle   1 NSaved=   1.
 NSaved= 1 IEnMin= 1 EnMin= -268.190394244811     IErMin= 1 ErrMin= 1.65D-02
 ErrMax= 1.65D-02  0.00D+00 EMaxC= 1.00D-01 BMatC= 1.68D-01 BMatP= 1.68D-01
 IDIUse=3 WtCom= 8.35D-01 WtEn= 1.65D-01
 Coeff-Com:  0.100D+01
 Coeff-En:   0.100D+01
 Coeff:      0.100D+01
 Gap=     0.364 Goal=   None    Shift=    0.000
 GapD=    0.364 DampG=1.000 DampE=0.500 DampFc=0.5000 IDamp=-1.
 Damping current iteration by 5.00D-01
 RMSDP=1.93D-03 MaxDP=6.22D-02              OVMax= 1.10D-01

 Cycle   2  Pass 0  IDiag  1:
 E= -268.253257759813     Delta-E=       -0.062863515002 Rises=F Damp=T
 DIIS: error= 5.62D-03 at cycle   2 NSaved=   2.
 NSaved= 2 IEnMin= 2 EnMin= -268.253257759813     IErMin= 2 ErrMin= 5.62D-03
 ErrMax= 5.62D-03  0.00D+00 EMaxC= 1.00D-01 BMatC= 1.65D-02 BMatP= 1.68D-01
 IDIUse=3 WtCom= 9.44D-01 WtEn= 5.62D-02
 Coeff-Com: -0.197D+00 0.120D+01
 Coeff-En:   0.000D+00 0.100D+01
 Coeff:     -0.186D+00 0.119D+01
 Gap=     0.342 Goal=   None    Shift=    0.000
 RMSDP=4.17D-04 MaxDP=1.09D-02 DE=-6.29D-02 OVMax= 4.67D-02

 Cycle   3  Pass 0  IDiag  1:
 E= -268.307202123883     Delta-E=       -0.053944364069 Rises=F Damp=F
 DIIS: error= 3.04D-03 at cycle   3 NSaved=   3.
 NSaved= 3 IEnMin= 3 EnMin= -268.307202123883     IErMin= 3 ErrMin= 3.04D-03
 ErrMax= 3.04D-03  0.00D+00 EMaxC= 1.00D-01 BMatC= 3.63D-03 BMatP= 1.65D-02
 IDIUse=3 WtCom= 9.70D-01 WtEn= 3.04D-02
 Coeff-Com: -0.123D+00 0.402D+00 0.721D+00
 Coeff-En:   0.000D+00 0.000D+00 0.100D+01
 Coeff:     -0.119D+00 0.390D+00 0.729D+00
 Gap=     0.341 Goal=   None    Shift=    0.000
 RMSDP=1.84D-04 MaxDP=5.56D-03 DE=-5.39D-02 OVMax= 1.40D-02

 Cycle   4  Pass 0  IDiag  1:
 E= -268.308999069189     Delta-E=       -0.001796945306 Rises=F Damp=F
 DIIS: error= 1.21D-03 at cycle   4 NSaved=   4.
 NSaved= 4 IEnMin= 4 EnMin= -268.308999069189     IErMin= 4 ErrMin= 1.21D-03
 ErrMax= 1.21D-03  0.00D+00 EMaxC= 1.00D-01 BMatC= 7.92D-04 BMatP= 3.63D-03
 IDIUse=3 WtCom= 9.88D-01 WtEn= 1.21D-02
 Coeff-Com: -0.371D-01 0.928D-01 0.363D+00 0.581D+00
 Coeff-En:   0.000D+00 0.000D+00 0.164D+00 0.836D+00
 Coeff:     -0.366D-01 0.917D-01 0.361D+00 0.584D+00
 Gap=     0.336 Goal=   None    Shift=    0.000
 RMSDP=6.68D-05 MaxDP=2.00D-03 DE=-1.80D-03 OVMax= 6.69D-03

 Cycle   5  Pass 0  IDiag  1:
 E= -268.309580835257     Delta-E=       -0.000581766068 Rises=F Damp=F
 DIIS: error= 2.21D-04 at cycle   5 NSaved=   5.
 NSaved= 5 IEnMin= 5 EnMin= -268.309580835257     IErMin= 5 ErrMin= 2.21D-04
 ErrMax= 2.21D-04  0.00D+00 EMaxC= 1.00D-01 BMatC= 1.97D-05 BMatP= 7.92D-04
 IDIUse=3 WtCom= 9.98D-01 WtEn= 2.21D-03
 Coeff-Com: -0.703D-02 0.135D-01 0.958D-01 0.223D+00 0.675D+00
 Coeff-En:   0.000D+00 0.000D+00 0.000D+00 0.000D+00 0.100D+01
 Coeff:     -0.702D-02 0.135D-01 0.956D-01 0.222D+00 0.676D+00
 Gap=     0.337 Goal=   None    Shift=    0.000
 RMSDP=1.38D-05 MaxDP=3.92D-04 DE=-5.82D-04 OVMax= 1.44D-03

 Cycle   6  Pass 0  IDiag  1:
 E= -268.309596405938     Delta-E=       -0.000015570681 Rises=F Damp=F
 DIIS: error= 5.58D-05 at cycle   6 NSaved=   6.
 NSaved= 6 IEnMin= 6 EnMin= -268.309596405938     IErMin= 6 ErrMin= 5.58D-05
 ErrMax= 5.58D-05  0.00D+00 EMaxC= 1.00D-01 BMatC= 1.12D-06 BMatP= 1.97D-05
 IDIUse=1 WtCom= 1.00D+00 WtEn= 0.00D+00
 Coeff-Com: -0.114D-02 0.138D-02 0.223D-01 0.675D-01 0.255D+00 0.655D+00
 Coeff:     -0.114D-02 0.138D-02 0.223D-01 0.675D-01 0.255D+00 0.655D+00
 Gap=     0.337 Goal=   None    Shift=    0.000
 RMSDP=4.02D-06 MaxDP=1.28D-04 DE=-1.56D-05 OVMax= 5.45D-04

 Initial convergence to 1.0D-05 achieved.  Increase integral accuracy.
 Cycle   7  Pass 1  IDiag  1:
 E= -268.309606294752     Delta-E=       -0.000009888815 Rises=F Damp=F
 DIIS: error= 2.93D-05 at cycle   1 NSaved=   1.
 NSaved= 1 IEnMin= 1 EnMin= -268.309606294752     IErMin= 1 ErrMin= 2.93D-05
 ErrMax= 2.93D-05  0.00D+00 EMaxC= 1.00D-01 BMatC= 4.88D-07 BMatP= 4.88D-07
 IDIUse=1 WtCom= 1.00D+00 WtEn= 0.00D+00
 Coeff-Com:  0.100D+01
 Coeff:      0.100D+01
 Gap=     0.337 Goal=   None    Shift=    0.000
 RMSDP=4.02D-06 MaxDP=1.28D-04 DE=-9.89D-06 OVMax= 4.46D-04

 Cycle   8  Pass 1  IDiag  1:
 E= -268.309606265461     Delta-E=        0.000000029292 Rises=F Damp=F
 DIIS: error= 4.08D-05 at cycle   2 NSaved=   2.
 NSaved= 2 IEnMin= 1 EnMin= -268.309606294752     IErMin= 1 ErrMin= 2.93D-05
 ErrMax= 4.08D-05  0.00D+00 EMaxC= 1.00D-01 BMatC= 5.08D-07 BMatP= 4.88D-07
 IDIUse=1 WtCom= 1.00D+00 WtEn= 0.00D+00
 Coeff-Com:  0.506D+00 0.494D+00
 Coeff:      0.506D+00 0.494D+00
 Gap=     0.337 Goal=   None    Shift=    0.000
 RMSDP=2.27D-06 MaxDP=7.14D-05 DE= 2.93D-08 OVMax= 3.19D-04

 Cycle   9  Pass 1  IDiag  1:
 E= -268.309606664136     Delta-E=       -0.000000398675 Rises=F Damp=F
 DIIS: error= 8.00D-06 at cycle   3 NSaved=   3.
 NSaved= 3 IEnMin= 3 EnMin= -268.309606664136     IErMin= 3 ErrMin= 8.00D-06
 ErrMax= 8.00D-06  0.00D+00 EMaxC= 1.00D-01 BMatC= 2.38D-08 BMatP= 4.88D-07
 IDIUse=1 WtCom= 1.00D+00 WtEn= 0.00D+00
 Coeff-Com: -0.280D-01 0.161D+00 0.867D+00
 Coeff:     -0.280D-01 0.161D+00 0.867D+00
 Gap=     0.337 Goal=   None    Shift=    0.000
 RMSDP=4.87D-07 MaxDP=1.02D-05 DE=-3.99D-07 OVMax= 4.84D-05

 Cycle  10  Pass 1  IDiag  1:
 E= -268.309606683840     Delta-E=       -0.000000019704 Rises=F Damp=F
 DIIS: error= 1.61D-06 at cycle   4 NSaved=   4.
 NSaved= 4 IEnMin= 4 EnMin= -268.309606683840     IErMin= 4 ErrMin= 1.61D-06
 ErrMax= 1.61D-06  0.00D+00 EMaxC= 1.00D-01 BMatC= 7.82D-10 BMatP= 2.38D-08
 IDIUse=1 WtCom= 1.00D+00 WtEn= 0.00D+00
 Coeff-Com: -0.188D-01 0.547D-01 0.333D+00 0.631D+00
 Coeff:     -0.188D-01 0.547D-01 0.333D+00 0.631D+00
 Gap=     0.337 Goal=   None    Shift=    0.000
 RMSDP=8.46D-08 MaxDP=2.73D-06 DE=-1.97D-08 OVMax= 9.16D-06

 Cycle  11  Pass 1  IDiag  1:
 E= -268.309606684464     Delta-E=       -0.000000000625 Rises=F Damp=F
 DIIS: error= 5.40D-07 at cycle   5 NSaved=   5.
 NSaved= 5 IEnMin= 5 EnMin= -268.309606684464     IErMin= 5 ErrMin= 5.40D-07
 ErrMax= 5.40D-07  0.00D+00 EMaxC= 1.00D-01 BMatC= 1.01D-10 BMatP= 7.82D-10
 IDIUse=1 WtCom= 1.00D+00 WtEn= 0.00D+00
 Coeff-Com: -0.805D-03-0.134D-01-0.566D-01 0.206D+00 0.865D+00
 Coeff:     -0.805D-03-0.134D-01-0.566D-01 0.206D+00 0.865D+00
 Gap=     0.337 Goal=   None    Shift=    0.000
 RMSDP=4.75D-08 MaxDP=1.23D-06 DE=-6.25D-10 OVMax= 4.00D-06

 Cycle  12  Pass 1  IDiag  1:
 E= -268.309606684578     Delta-E=       -0.000000000114 Rises=F Damp=F
 DIIS: error= 1.78D-07 at cycle   6 NSaved=   6.
 NSaved= 6 IEnMin= 6 EnMin= -268.309606684578     IErMin= 6 ErrMin= 1.78D-07
 ErrMax= 1.78D-07  0.00D+00 EMaxC= 1.00D-01 BMatC= 1.10D-11 BMatP= 1.01D-10
 IDIUse=1 WtCom= 1.00D+00 WtEn= 0.00D+00
 Coeff-Com:  0.149D-02-0.101D-01-0.530D-01 0.193D-01 0.338D+00 0.704D+00
 Coeff:      0.149D-02-0.101D-01-0.530D-01 0.193D-01 0.338D+00 0.704D+00
 Gap=     0.337 Goal=   None    Shift=    0.000
 RMSDP=1.44D-08 MaxDP=3.55D-07 DE=-1.14D-10 OVMax= 1.36D-06

 Cycle  13  Pass 1  IDiag  1:
 E= -268.309606684591     Delta-E=       -0.000000000013 Rises=F Damp=F
 DIIS: error= 3.60D-08 at cycle   7 NSaved=   7.
 NSaved= 7 IEnMin= 7 EnMin= -268.309606684591     IErMin= 7 ErrMin= 3.60D-08
 ErrMax= 3.60D-08  0.00D+00 EMaxC= 1.00D-01 BMatC= 9.59D-13 BMatP= 1.10D-11
 IDIUse=1 WtCom= 1.00D+00 WtEn= 0.00D+00
 Coeff-Com:  0.631D-03-0.264D-02-0.156D-01-0.121D-01 0.529D-01 0.256D+00
 Coeff-Com:  0.721D+00
 Coeff:      0.631D-03-0.264D-02-0.156D-01-0.121D-01 0.529D-01 0.256D+00
 Coeff:      0.721D+00
 Gap=     0.337 Goal=   None    Shift=    0.000
 RMSDP=4.27D-09 MaxDP=1.25D-07 DE=-1.30D-11 OVMax= 3.99D-07

 SCF Done:  E(RM062X) =  -268.309606685     A.U. after   13 cycles
            NFock= 13  Conv=0.43D-08     -V/T= 2.0060
 KE= 2.667051506724D+02 PE=-9.896851210995D+02 EE= 2.739065654044D+02
 Leave Link  502 at Tue Sep 24 13:54:42 2019, MaxMem=   671088640 cpu:             560.1 elap:             283.8
 (Enter /shared/centos7/gaussian/g16/l801.exe)
 DoSCS=F DFT=T ScalE2(SS,OS)=  1.000000  1.000000
 Range of M.O.s used for correlation:     1   234
 NBasis=   234 NAE=    20 NBE=    20 NFC=     0 NFV=     0
 NROrb=    234 NOA=    20 NOB=    20 NVA=   214 NVB=   214

 **** Warning!!: The largest alpha MO coefficient is  0.11624352D+02

 Leave Link  801 at Tue Sep 24 13:54:42 2019, MaxMem=   671088640 cpu:               1.6 elap:               0.8
 (Enter /shared/centos7/gaussian/g16/l1101.exe)
 Using compressed storage, NAtomX=    11.
 Will process     12 centers per pass.
 Leave Link 1101 at Tue Sep 24 13:55:03 2019, MaxMem=   671088640 cpu:              41.3 elap:              20.7
 (Enter /shared/centos7/gaussian/g16/l1102.exe)
 Symmetrizing basis deriv contribution to polar:
 IMax=3 JMax=2 DiffMx= 0.00D+00
 Leave Link 1102 at Tue Sep 24 13:55:06 2019, MaxMem=   671088640 cpu:               4.8 elap:               2.4
 (Enter /shared/centos7/gaussian/g16/l1110.exe)
 Forming Gx(P) for the SCF density, NAtomX=    11.
 Integral derivatives from FoFJK, PRISM(SPDF).
 Do as many integral derivatives as possible in FoFJK.
 G2DrvN: MDV=     671087712.
 G2DrvN: will do    12 centers at a time, making    1 passes.
 Calling FoFCou, ICntrl=  3107 FMM=F I1Cent=   0 AccDes= 0.00D+00.
 FoFJK:  IHMeth= 1 ICntrl=    3107 DoSepK=F KAlg= 0 I1Cent=           0 FoldK=F
 IRaf=         0 NMat=       1 IRICut=       1 DoRegI=T DoRafI=F ISym2E= 0 IDoP0=0 IntGTp=1.
 FoFCou: FMM=F IPFlag=           0 FMFlag=      100000 FMFlg1=           0
         NFxFlg=           0 DoJE=F BraDBF=F KetDBF=F FulRan=T
         wScrn=  0.000000 ICntrl=      3107 IOpCl=  0 I1Cent=           0 NGrid=           0
         NMat0=    1 NMatS0=      1 NMatT0=    0 NMatD0=    1 NMtDS0=    0 NMtDT0=    0
 Symmetry not used in FoFCou.
 End of G2Drv F.D. properties file   721 does not exist.
 End of G2Drv F.D. properties file   722 does not exist.
 End of G2Drv F.D. properties file   788 does not exist.
 Leave Link 1110 at Tue Sep 24 14:00:46 2019, MaxMem=   671088640 cpu:             680.1 elap:             340.1
 (Enter /shared/centos7/gaussian/g16/l1002.exe)
 Minotr:  Closed shell wavefunction.
          IDoAtm=11111111111
          Direct CPHF calculation.
          Differentiating once with respect to nuclear coordinates.
          Requested convergence is 1.0D-08 RMS, and 1.0D-07 maximum.
          Secondary convergence is 1.0D-12 RMS, and 1.0D-12 maximum.
          NewPWx=T KeepS1=F KeepF1=F KeepIn=T MapXYZ=F SortEE=F KeepMc=T.
         3265 words used for storage of precomputed grid.
 Keep R1 ints in memory in canonical form, NReq=399865264.
 FoFCou: FMM=F IPFlag=           0 FMFlag=           0 FMFlg1=           0
         NFxFlg=           0 DoJE=F BraDBF=F KetDBF=F FulRan=T
         wScrn=  0.000000 ICntrl=       600 IOpCl=  0 I1Cent=           0 NGrid=           0
         NMat0=    1 NMatS0=  27495 NMatT0=    0 NMatD0=    1 NMtDS0=    0 NMtDT0=    0
 Symmetry not used in FoFCou.
 Two-electron integral symmetry not used.
          MDV=     671088640 using IRadAn=       1.
          Solving linear equations simultaneously, MaxMat=       0.
          There are    36 degrees of freedom in the 1st order CPHF.  IDoFFX=6 NUNeed=     0.
     30 vectors produced by pass  0 Test12= 1.19D-14 2.78D-09 XBig12= 5.81D-02 7.20D-02.
 AX will form    30 AO Fock derivatives at one time.
     30 vectors produced by pass  1 Test12= 1.19D-14 2.78D-09 XBig12= 1.10D-02 2.99D-02.
     30 vectors produced by pass  2 Test12= 1.19D-14 2.78D-09 XBig12= 4.43D-04 4.10D-03.
     30 vectors produced by pass  3 Test12= 1.19D-14 2.78D-09 XBig12= 6.26D-06 3.28D-04.
     30 vectors produced by pass  4 Test12= 1.19D-14 2.78D-09 XBig12= 4.84D-08 3.02D-05.
     30 vectors produced by pass  5 Test12= 1.19D-14 2.78D-09 XBig12= 2.58D-10 1.95D-06.
     19 vectors produced by pass  6 Test12= 1.19D-14 2.78D-09 XBig12= 1.11D-12 1.14D-07.
      4 vectors produced by pass  7 Test12= 1.19D-14 2.78D-09 XBig12= 3.87D-15 6.62D-09.
 InvSVY:  IOpt=1 It=  1 EMax= 1.55D-15
 Solved reduced A of dimension   203 with    30 vectors.
 End of Minotr F.D. properties file   721 does not exist.
 End of Minotr F.D. properties file   722 does not exist.
 End of Minotr F.D. properties file   788 does not exist.
 Leave Link 1002 at Tue Sep 24 14:09:15 2019, MaxMem=   671088640 cpu:            1019.2 elap:             509.7
 (Enter /shared/centos7/gaussian/g16/l601.exe)
 Copying SCF densities to generalized density rwf, IOpCl= 0 IROHF=0.

 **********************************************************************

            Population analysis using the SCF density.

 **********************************************************************

 Orbital symmetries:
       Occupied  (A) (A) (A) (A) (A) (A) (A) (A) (A) (A) (A) (A)
                 (A) (A) (A) (A) (A) (A) (A) (A)
       Virtual   (A) (A) (A) (A) (A) (A) (A) (A) (A) (A) (A) (A)
                 (A) (A) (A) (A) (A) (A) (A) (A) (A) (A) (A) (A)
                 (A) (A) (A) (A) (A) (A) (A) (A) (A) (A) (A) (A)
                 (A) (A) (A) (A) (A) (A) (A) (A) (A) (A) (A) (A)
                 (A) (A) (A) (A) (A) (A) (A) (A) (A) (A) (A) (A)
                 (A) (A) (A) (A) (A) (A) (A) (A) (A) (A) (A) (A)
                 (A) (A) (A) (A) (A) (A) (A) (A) (A) (A) (A) (A)
                 (A) (A) (A) (A) (A) (A) (A) (A) (A) (A) (A) (A)
                 (A) (A) (A) (A) (A) (A) (A) (A) (A) (A) (A) (A)
                 (A) (A) (A) (A) (A) (A) (A) (A) (A) (A) (A) (A)
                 (A) (A) (A) (A) (A) (A) (A) (A) (A) (A) (A) (A)
                 (A) (A) (A) (A) (A) (A) (A) (A) (A) (A) (A) (A)
                 (A) (A) (A) (A) (A) (A) (A) (A) (A) (A) (A) (A)
                 (A) (A) (A) (A) (A) (A) (A) (A) (A) (A) (A) (A)
                 (A) (A) (A) (A) (A) (A) (A) (A) (A) (A) (A) (A)
                 (A) (A) (A) (A) (A) (A) (A) (A) (A) (A) (A) (A)
                 (A) (A) (A) (A) (A) (A) (A) (A) (A) (A) (A) (A)
                 (A) (A) (A) (A) (A) (A) (A) (A) (A) (A)
 The electronic state is 1-A.
 Alpha  occ. eigenvalues --  -19.65538 -19.65058 -10.60270 -10.58773 -10.58036
 Alpha  occ. eigenvalues --   -1.18717  -1.15939  -0.86063  -0.78733  -0.68616
 Alpha  occ. eigenvalues --   -0.60479  -0.58788  -0.54303  -0.51852  -0.48777
 Alpha  occ. eigenvalues --   -0.46585  -0.46018  -0.42500  -0.37269  -0.28155
 Alpha virt. eigenvalues --    0.05519   0.07534   0.09505   0.11545   0.12557
 Alpha virt. eigenvalues --    0.12652   0.14114   0.15472   0.21417   0.26848
 Alpha virt. eigenvalues --    0.30181   0.32108   0.32961   0.35755   0.36112
 Alpha virt. eigenvalues --    0.37176   0.39035   0.41743   0.44016   0.44892
 Alpha virt. eigenvalues --    0.46834   0.47123   0.48533   0.48897   0.52863
 Alpha virt. eigenvalues --    0.54730   0.55887   0.57714   0.60420   0.61125
 Alpha virt. eigenvalues --    0.67357   0.69622   0.71651   0.72816   0.76449
 Alpha virt. eigenvalues --    0.76666   0.79859   0.83220   0.85083   0.88088
 Alpha virt. eigenvalues --    0.90456   0.93571   0.97877   1.00003   1.01594
 Alpha virt. eigenvalues --    1.04737   1.07246   1.07981   1.10115   1.12787
 Alpha virt. eigenvalues --    1.15219   1.15886   1.19540   1.21723   1.24627
 Alpha virt. eigenvalues --    1.27110   1.27963   1.30992   1.33725   1.34504
 Alpha virt. eigenvalues --    1.37070   1.40513   1.42571   1.44191   1.50948
 Alpha virt. eigenvalues --    1.51925   1.54652   1.58042   1.59567   1.83142
 Alpha virt. eigenvalues --    1.87565   1.93972   1.97203   2.00614   2.03050
 Alpha virt. eigenvalues --    2.07338   2.09765   2.12707   2.15156   2.17193
 Alpha virt. eigenvalues --    2.20378   2.25941   2.27230   2.31234   2.34640
 Alpha virt. eigenvalues --    2.37406   2.46808   2.49487   2.53309   2.58620
 Alpha virt. eigenvalues --    2.62078   2.68444   2.71291   2.72939   2.75107
 Alpha virt. eigenvalues --    2.78655   2.80663   2.82325   2.86754   2.88861
 Alpha virt. eigenvalues --    2.90206   2.93176   2.94629   2.95569   2.99254
 Alpha virt. eigenvalues --    3.01205   3.01997   3.04624   3.06326   3.07296
 Alpha virt. eigenvalues --    3.10803   3.14562   3.16579   3.19005   3.22380
 Alpha virt. eigenvalues --    3.22956   3.25836   3.26290   3.27904   3.29257
 Alpha virt. eigenvalues --    3.29789   3.32626   3.34957   3.37833   3.42641
 Alpha virt. eigenvalues --    3.45476   3.49054   3.52159   3.53667   3.56922
 Alpha virt. eigenvalues --    3.59552   3.65565   3.67280   3.68102   3.69495
 Alpha virt. eigenvalues --    3.72762   3.73200   3.75788   3.77638   3.80528
 Alpha virt. eigenvalues --    3.83643   3.84393   3.90553   3.90712   3.94374
 Alpha virt. eigenvalues --    3.98124   4.00670   4.05813   4.08068   4.11703
 Alpha virt. eigenvalues --    4.12178   4.14659   4.18860   4.20807   4.27384
 Alpha virt. eigenvalues --    4.30751   4.33850   4.37993   4.40194   4.46019
 Alpha virt. eigenvalues --    4.50118   4.57641   4.59129   4.67492   4.70980
 Alpha virt. eigenvalues --    4.71610   4.77930   4.80614   4.83899   4.91561
 Alpha virt. eigenvalues --    4.92783   4.93808   4.98210   4.98846   5.02241
 Alpha virt. eigenvalues --    5.05222   5.06212   5.15570   5.20581   5.29356
 Alpha virt. eigenvalues --    5.36807   5.42278   5.48261   5.52035   5.56531
 Alpha virt. eigenvalues --    5.68810   5.72901   5.76277   5.80073   5.86315
 Alpha virt. eigenvalues --    5.97614   6.11625   6.17586   6.27373   6.33817
 Alpha virt. eigenvalues --    6.35397   6.53020   6.59680   6.69525   6.72862
 Alpha virt. eigenvalues --    6.75570   6.77524   6.80568   6.97981   7.02156
 Alpha virt. eigenvalues --    7.13278   7.19876   7.27179   7.31640   9.96325
 Alpha virt. eigenvalues --   10.92278  11.87713  12.95810  14.00956
          Condensed to atoms (all electrons):
               1          2          3          4          5          6
     1  O    7.882723   0.000317   0.284577   0.337237  -0.075203  -0.037618
     2  O    0.000317   7.799163  -0.002356  -0.079748   0.340820   0.000680
     3  C    0.284577  -0.002356   4.770724  -0.075109  -0.011457   0.396150
     4  C    0.337237  -0.079748  -0.075109   5.019871   0.519828   0.005421
     5  C   -0.075203   0.340820  -0.011457   0.519828   4.957048  -0.001557
     6  H   -0.037618   0.000680   0.396150   0.005421  -0.001557   0.595178
     7  H   -0.040188  -0.001618   0.393519  -0.003636   0.006028  -0.041825
     8  H   -0.039094   0.003349   0.400510  -0.013125   0.006256  -0.031099
     9  H   -0.044380   0.004445   0.004933   0.419033  -0.078377   0.000965
    10  H    0.003886  -0.034208   0.000010  -0.056857   0.402956   0.000098
    11  H    0.007494   0.331997   0.002484  -0.009153  -0.047281   0.001495
               7          8          9         10         11
     1  O   -0.040188  -0.039094  -0.044380   0.003886   0.007494
     2  O   -0.001618   0.003349   0.004445  -0.034208   0.331997
     3  C    0.393519   0.400510   0.004933   0.000010   0.002484
     4  C   -0.003636  -0.013125   0.419033  -0.056857  -0.009153
     5  C    0.006028   0.006256  -0.078377   0.402956  -0.047281
     6  H   -0.041825  -0.031099   0.000965   0.000098   0.001495
     7  H    0.661359  -0.053315  -0.001124  -0.000069  -0.001386
     8  H   -0.053315   0.612305   0.000648  -0.001143  -0.008613
     9  H   -0.001124   0.000648   0.563542  -0.003658   0.000455
    10  H   -0.000069  -0.001143  -0.003658   0.524289   0.006583
    11  H   -0.001386  -0.008613   0.000455   0.006583   0.435842
 Mulliken charges:
               1
     1  O   -0.279750
     2  O   -0.362840
     3  C   -0.163987
     4  C   -0.063763
     5  C   -0.019061
     6  H    0.112111
     7  H    0.082254
     8  H    0.123321
     9  H    0.133519
    10  H    0.158114
    11  H    0.280083
 Sum of Mulliken charges =  -0.00000
 Mulliken charges with hydrogens summed into heavy atoms:
               1
     1  O   -0.279750
     2  O   -0.082757
     3  C    0.153699
     4  C    0.069756
     5  C    0.139052
 APT charges:
               1
     1  O   -0.173348
     2  O   -0.328774
     3  C   -0.869812
     4  C   -0.465678
     5  C   -0.379631
     6  H    0.448885
     7  H    0.305373
     8  H    0.218382
     9  H    0.440223
    10  H    0.491392
    11  H    0.312988
 Sum of APT charges =  -0.00000
 APT charges with hydrogens summed into heavy atoms:
               1
     1  O   -0.173348
     2  O   -0.015785
     3  C    0.102828
     4  C   -0.025455
     5  C    0.111761
 Electronic spatial extent (au):  <R**2>=            412.4655
 Charge=             -0.0000 electrons
 Dipole moment (field-independent basis, Debye):
    X=             -0.8261    Y=             -0.4100    Z=              0.6991  Tot=              1.1573
 Quadrupole moment (field-independent basis, Debye-Ang):
   XX=            -31.1838   YY=            -28.7051   ZZ=            -31.7417
   XY=              4.7193   XZ=             -0.4737   YZ=              1.7194
 Traceless Quadrupole moment (field-independent basis, Debye-Ang):
   XX=             -0.6403   YY=              1.8384   ZZ=             -1.1982
   XY=              4.7193   XZ=             -0.4737   YZ=              1.7194
 Octapole moment (field-independent basis, Debye-Ang**2):
  XXX=             -1.7981  YYY=              0.2679  ZZZ=             -2.6269  XYY=             -1.9047
  XXY=              2.4026  XXZ=              4.2468  XZZ=             -0.2614  YZZ=             -3.2708
  YYZ=             -1.2696  XYZ=              0.2425
 Hexadecapole moment (field-independent basis, Debye-Ang**3):
 XXXX=           -294.0117 YYYY=           -152.1684 ZZZZ=            -51.0878 XXXY=              9.3266
 XXXZ=              1.6309 YYYX=             -3.7618 YYYZ=              5.1757 ZZZX=              0.3779
 ZZZY=             -0.0644 XXYY=            -84.5236 XXZZ=            -60.6568 YYZZ=            -35.9196
 XXYZ=              2.2461 YYXZ=              1.2601 ZZXY=             -1.8497
 N-N= 1.807637983381D+02 E-N=-9.896851122957D+02  KE= 2.667051506724D+02
  Exact polarizability:   0.000   0.000   0.000   0.000   0.000   0.000
 Approx polarizability:  61.730  -4.624  53.467   2.247   1.676  40.111
 No NMR shielding tensors so no spin-rotation constants.
 Leave Link  601 at Tue Sep 24 14:09:40 2019, MaxMem=   671088640 cpu:              48.7 elap:              24.4
 (Enter /shared/centos7/gaussian/g16/l701.exe)
 SCFChk:  SCF convergence  4.27D-09 required  1.00D-08
 ... and contract with generalized density number  0.
 Compute integral second derivatives.
 Entering OneElI...
 Calculate overlap and kinetic energy integrals
    NBasis = 265  MinDer = 2  MaxDer = 2
 Requested accuracy = 0.1000D-12
 PrmmSu-InSpLW:  IPartL=    0 NPrtUS=   20 NPrtUL=    1 DoSpLW=F IThBeg=    0 IThEnd=   19 NThAct=   20.
 PrsmSu:  NPrtUS=  20 ThrOK=T IAlg=1 NPAlg=1 LenDen=           0 ISkipM=0 DoSpLW=F IThBeg=    0 IThEnd=   19.
 Prism:   IPart=     0 DynPar=F LinDyn=F Incr=           1.
 PRISM was handed    33437780 working-precision words and  3740 shell-pairs
 PRISM was handed    33437780 working-precision words and  3740 shell-pairs
 PRISM was handed    33437780 working-precision words and  3740 shell-pairs
 PRISM was handed    33437780 working-precision words and  3740 shell-pairs
 PRISM was handed    33437780 working-precision words and  3740 shell-pairs
 PRISM was handed    33437780 working-precision words and  3740 shell-pairs
 PRISM was handed    33437780 working-precision words and  3740 shell-pairs
 PRISM was handed    33437780 working-precision words and  3740 shell-pairs
 PRISM was handed    33437780 working-precision words and  3740 shell-pairs
 PRISM was handed    33437780 working-precision words and  3740 shell-pairs
 PRISM was handed    33437780 working-precision words and  3740 shell-pairs
 PRISM was handed    33437780 working-precision words and  3740 shell-pairs
 PRISM was handed    33437780 working-precision words and  3740 shell-pairs
 PRISM was handed    33437780 working-precision words and  3740 shell-pairs
 IPart=  4 NShTot=         206 NBatch=          47 AvBLen=         4.4
 IPart=  0 NShTot=         226 NBatch=          66 AvBLen=         3.4
 PRISM was handed    33437780 working-precision words and  3740 shell-pairs
 PRISM was handed    33437780 working-precision words and  3740 shell-pairs
 PRISM was handed    33437780 working-precision words and  3740 shell-pairs
 IPart= 19 NShTot=         165 NBatch=          26 AvBLen=         6.3
 IPart= 13 NShTot=         171 NBatch=          27 AvBLen=         6.3
 IPart= 12 NShTot=         175 NBatch=          27 AvBLen=         6.5
 PRISM was handed    33437780 working-precision words and  3740 shell-pairs
 IPart= 15 NShTot=         170 NBatch=          26 AvBLen=         6.5
 PRISM was handed    33437780 working-precision words and  3740 shell-pairs
 PRISM was handed    33437780 working-precision words and  3740 shell-pairs
 IPart= 18 NShTot=         168 NBatch=          26 AvBLen=         6.5
 IPart= 17 NShTot=         168 NBatch=          26 AvBLen=         6.5
 IPart=  9 NShTot=         185 NBatch=          30 AvBLen=         6.2
 IPart= 11 NShTot=         179 NBatch=          29 AvBLen=         6.2
 IPart= 16 NShTot=         168 NBatch=          26 AvBLen=         6.5
 IPart=  3 NShTot=         209 NBatch=          50 AvBLen=         4.2
 IPart=  8 NShTot=         185 NBatch=          30 AvBLen=         6.2
 IPart=  6 NShTot=         195 NBatch=          39 AvBLen=         5.0
 IPart=  2 NShTot=         211 NBatch=          52 AvBLen=         4.1
 IPart=  1 NShTot=         221 NBatch=          62 AvBLen=         3.6
 IPart= 14 NShTot=         171 NBatch=          27 AvBLen=         6.3
 IPart=  7 NShTot=         190 NBatch=          34 AvBLen=         5.6
 IPart=  5 NShTot=         197 NBatch=          41 AvBLen=         4.8
 IPart= 10 NShTot=         180 NBatch=          29 AvBLen=         6.2
 PrSmSu:  NxtVal=             21.
 Entering OneElI...
 Calculate potential energy integrals
    NBasis = 265  MinDer = 2  MaxDer = 2
 Requested accuracy = 0.1000D-12
 PrmmSu-InSpLW:  IPartL=    0 NPrtUS=   20 NPrtUL=    1 DoSpLW=F IThBeg=    0 IThEnd=   19 NThAct=   20.
 PrsmSu:  NPrtUS=  20 ThrOK=T IAlg=1 NPAlg=1 LenDen=           0 ISkipM=0 DoSpLW=F IThBeg=    0 IThEnd=   19.
 Prism:   IPart=     0 DynPar=F LinDyn=F Incr=          19.
 PRISM was handed    33453624 working-precision words and  3626 shell-pairs
 PRISM was handed    33453624 working-precision words and  3626 shell-pairs
 PRISM was handed    33453624 working-precision words and  3626 shell-pairs
 PRISM was handed    33453624 working-precision words and  3626 shell-pairs
 PRISM was handed    33453624 working-precision words and  3626 shell-pairs
 PRISM was handed    33453624 working-precision words and  3626 shell-pairs
 PRISM was handed    33453624 working-precision words and  3626 shell-pairs
 PRISM was handed    33453624 working-precision words and  3626 shell-pairs
 PRISM was handed    33453624 working-precision words and  3626 shell-pairs
 PRISM was handed    33453624 working-precision words and  3626 shell-pairs
 PRISM was handed    33453624 working-precision words and  3626 shell-pairs
 PRISM was handed    33453624 working-precision words and  3626 shell-pairs
 PRISM was handed    33453624 working-precision words and  3626 shell-pairs
 PRISM was handed    33453624 working-precision words and  3626 shell-pairs
 PRISM was handed    33453624 working-precision words and  3626 shell-pairs
 PRISM was handed    33453624 working-precision words and  3626 shell-pairs
 PRISM was handed    33453624 working-precision words and  3626 shell-pairs
 PRISM was handed    33453624 working-precision words and  3626 shell-pairs
 PRISM was handed    33453624 working-precision words and  3626 shell-pairs
 PRISM was handed    33453624 working-precision words and  3626 shell-pairs
 IPart= 18 NShTot=        1804 NBatch=         164 AvBLen=        11.0
 IPart= 13 NShTot=        1859 NBatch=         169 AvBLen=        11.0
 IPart= 12 NShTot=        1870 NBatch=         170 AvBLen=        11.0
 IPart=  4 NShTot=        2156 NBatch=         196 AvBLen=        11.0
 IPart=  2 NShTot=        2288 NBatch=         208 AvBLen=        11.0
 IPart= 14 NShTot=        1859 NBatch=         169 AvBLen=        11.0
 IPart=  5 NShTot=        2046 NBatch=         186 AvBLen=        11.0
 IPart=  7 NShTot=        1980 NBatch=         180 AvBLen=        11.0
 IPart= 16 NShTot=        1826 NBatch=         166 AvBLen=        11.0
 IPart= 15 NShTot=        1848 NBatch=         168 AvBLen=        11.0
 IPart=  0 NShTot=        2464 NBatch=         224 AvBLen=        11.0
 IPart= 17 NShTot=        1815 NBatch=         165 AvBLen=        11.0
 IPart= 19 NShTot=        1793 NBatch=         163 AvBLen=        11.0
 IPart=  3 NShTot=        2189 NBatch=         199 AvBLen=        11.0
 IPart=  8 NShTot=        1958 NBatch=         178 AvBLen=        11.0
 IPart=  9 NShTot=        1936 NBatch=         176 AvBLen=        11.0
 IPart= 10 NShTot=        1914 NBatch=         174 AvBLen=        11.0
 IPart=  1 NShTot=        2398 NBatch=         218 AvBLen=        11.0
 IPart=  6 NShTot=        2013 NBatch=         183 AvBLen=        11.0
 IPart= 11 NShTot=        1870 NBatch=         170 AvBLen=        11.0
 PrSmSu:  NxtVal=            381.
 Polarizability after L701:
                1             2             3 
      1  0.000000D+00
      2  0.000000D+00  0.000000D+00
      3  0.000000D+00  0.000000D+00  0.000000D+00
 Dipole Derivatives after L701:
                 1             2             3             4             5 
      1  -0.117445D+00 -0.190008D-01  0.104795D+00 -0.476634D-03 -0.239586D+00
      2  -0.147083D+00 -0.215619D+00 -0.597999D-01 -0.659023D+00 -0.456908D+00
      3   0.116858D+00 -0.121737D-01 -0.186981D+00 -0.280647D+00 -0.130384D+00
                 6             7             8             9            10 
      1   0.746378D-02 -0.938142D+00 -0.442473D+00  0.203275D+00 -0.515296D+00
      2  -0.224766D+00 -0.417825D-01 -0.877768D+00  0.216971D-01 -0.687912D-01
      3  -0.528936D+00  0.460475D-01  0.342635D-01 -0.793525D+00 -0.205706D+00
                11            12            13            14            15 
      1   0.165892D+00 -0.234361D+00 -0.684840D+00 -0.222927D+00 -0.141646D+00
      2  -0.774010D+00 -0.252595D+00  0.502652D-01 -0.514232D+00  0.184875D-01
      3  -0.236353D+00 -0.107730D+00 -0.110461D+00 -0.588441D-01  0.601771D-01
                16            17            18            19            20 
      1   0.100239D+01 -0.144151D+00 -0.414405D+00  0.112834D+00  0.441646D+00
      2   0.152662D+00  0.136365D+00 -0.810102D-01  0.438432D-01  0.502314D+00
      3  -0.258878D+00  0.368677D-01  0.207900D+00 -0.616656D-03  0.147333D+00
                21            22            23            24            25 
      1   0.317355D+00 -0.452724D-02  0.148220D+00 -0.103334D+00  0.180331D+00
      2   0.325822D+00 -0.177764D+00  0.261887D+00 -0.185846D+00 -0.210816D-01
      3   0.300970D+00  0.264580D+00 -0.129294D+00  0.397787D+00 -0.327887D-02
                26            27            28            29            30 
      1   0.141440D-01  0.241474D-03  0.964290D+00  0.407285D+00  0.331554D+00
      2   0.106079D+01  0.951924D-01  0.292968D+00  0.337083D+00  0.139686D+00
      3   0.136623D+00  0.795524D-01  0.184345D+00  0.110808D+00  0.172804D+00
                31            32            33 
      1   0.880782D-03 -0.109049D+00 -0.709376D-01
      2   0.575788D+00  0.540102D+00  0.203132D+00
      3   0.247757D+00  0.101153D+00  0.397982D+00
 Hessian after L701:
                1             2             3             4             5 
      1  0.613228D+01
      2 -0.385386D+01  0.846141D+01
      3 -0.145627D+01  0.168972D+01  0.129832D+02
      4  0.564071D+00 -0.601968D+00  0.115152D+00  0.823235D+01
      5 -0.514637D+00 -0.738987D-01 -0.477986D-01  0.231244D+00  0.498381D+01
      6  0.151058D+00 -0.896027D-01 -0.414049D+00 -0.148761D+01 -0.249006D+01
      7 -0.622795D+01  0.228054D+01 -0.109919D+01  0.514567D+00 -0.595425D-01
      8  0.208754D+01 -0.131999D+01 -0.294226D+01 -0.186227D+00 -0.315945D+00
      9 -0.979665D+00 -0.290665D+01 -0.581373D+01 -0.656286D-01 -0.808863D-02
     10 -0.138623D+01  0.317660D+01  0.252180D+01  0.269247D+00 -0.298081D+00
     11  0.340387D+01 -0.680671D+01  0.881345D+00 -0.199835D+00 -0.744397D-01
     12  0.237858D+01  0.839692D+00 -0.719321D+01 -0.171637D+00 -0.816225D-01
     13  0.507759D+00 -0.332138D+00 -0.246006D+00 -0.804319D+01 -0.670497D+00
     14 -0.452257D+00 -0.100660D+00 -0.107452D+00 -0.965899D+00  0.425357D+00
     15 -0.171344D+00 -0.536085D-01  0.517141D-01 -0.870655D-01  0.192345D+01
     16  0.184436D+00 -0.136683D+00 -0.788660D-01  0.787623D-01 -0.117932D-01
     17 -0.146074D+00 -0.163059D+00  0.112763D+00 -0.792402D-02 -0.155856D-01
     18 -0.604136D-01  0.105717D+00  0.953135D-01 -0.318176D-01  0.157520D-02
     19  0.291145D-01 -0.142619D+00  0.687712D-01  0.663102D-01  0.222472D-01
     20 -0.116996D+00 -0.331917D-01  0.298865D+00  0.598980D-01 -0.212332D-01
     21  0.485551D-01  0.293316D+00  0.151355D+00  0.453786D-01  0.915638D-02
     22  0.195902D+00 -0.128713D+00  0.155864D+00  0.515808D-01 -0.148447D-01
     23 -0.707824D-01 -0.759521D-01  0.802939D-01  0.145481D-01 -0.759050D-01
     24  0.109061D+00  0.952460D-01  0.138814D+00 -0.101986D+00 -0.164887D-02
     25 -0.109845D+00 -0.213048D+00 -0.397770D-01 -0.207187D-01 -0.553238D-01
     26 -0.213764D+00  0.671367D-01  0.287628D-01 -0.966059D-01  0.146349D+00
     27 -0.564293D-01 -0.983862D-02  0.117029D+00 -0.168108D-01  0.232132D-01
     28  0.150791D+00  0.266562D-01  0.518685D-01  0.142263D+00 -0.170868D-01
     29  0.471834D-01 -0.372328D-01  0.105882D-01 -0.426274D-01 -0.195463D+00
     30  0.620580D-01  0.593088D-02 -0.175051D-01  0.248647D-02 -0.795208D-01
     31 -0.403284D-01 -0.747726D-01  0.664858D-02 -0.185524D+01  0.138831D+01
     32 -0.170232D+00  0.821539D-01 -0.482418D-02  0.179540D+01 -0.478304D+01
     33 -0.251930D-01  0.300781D-01 -0.989617D-01  0.179954D+01  0.751347D+00
                6             7             8             9            10 
      6  0.133382D+02
      7 -0.468302D-01  0.133806D+02
      8  0.435567D-02 -0.192566D+01  0.104098D+02
      9 -0.324937D+00  0.102280D+01  0.245313D+01  0.145738D+02
     10 -0.224049D+00  0.189233D+00  0.242425D+00 -0.123456D+00  0.755321D+01
     11 -0.171155D-01  0.192190D+00  0.994974D-01 -0.102376D+00  0.685629D+00
     12  0.221938D+00 -0.104176D+00 -0.102999D+00 -0.527448D-01 -0.368371D+01
     13  0.191709D-01  0.184757D+00  0.152073D+00 -0.557445D-01 -0.261608D+01
     14  0.182996D+01  0.147343D+00 -0.119863D+00 -0.252259D-01 -0.384991D+01
     15 -0.775416D+01 -0.102500D+00 -0.300094D-01 -0.149629D+00  0.164547D+01
     16 -0.146566D-01 -0.154472D+01 -0.172997D+00 -0.902752D+00  0.112252D+00
     17  0.151818D-02 -0.996938D-01 -0.334655D+01  0.537204D-01  0.528138D-01
     18 -0.158458D-01 -0.882994D+00  0.930898D-01 -0.290940D+01 -0.490093D-01
     19  0.158247D-01 -0.346323D+01  0.246135D+00  0.216418D+00 -0.351298D-01
     20  0.100431D-01  0.127211D+00 -0.194164D+01  0.122497D+01  0.197025D-01
     21 -0.224294D-01  0.119800D+00  0.114279D+01 -0.260816D+01  0.123275D-01
     22 -0.139758D-01 -0.307307D+01 -0.494517D+00  0.924653D+00  0.991908D-02
     23 -0.120013D-02 -0.687063D+00 -0.351986D+01 -0.721588D+00  0.333689D-01
     24 -0.602623D-01  0.117568D+01 -0.655262D+00 -0.260653D+01 -0.247905D-01
     25 -0.160782D-01 -0.570130D-02  0.593140D-01 -0.521625D-02 -0.380177D+01
     26  0.323995D-01  0.846227D-01  0.110359D+00  0.785074D-03 -0.491911D-01
     27 -0.325924D-01  0.193158D-02  0.445737D-02 -0.464860D-01  0.614230D-02
     28  0.262375D-02  0.349542D-01  0.143959D-01  0.514587D-02 -0.303654D+00
     29 -0.987228D-01  0.234433D-01 -0.739652D-02  0.412221D-02  0.409297D-01
     30  0.308517D-01  0.591748D-02  0.129041D-02 -0.122762D-01 -0.546132D-01
     31  0.161453D+01  0.105822D-01 -0.224810D-01 -0.365517D-01  0.901200D-02
     32  0.818429D+00 -0.833850D-01 -0.484544D-01  0.271976D-01 -0.542939D-01
     33 -0.496669D+01 -0.904361D-01  0.314189D-01 -0.499339D-01 -0.261231D-01
               11            12            13            14            15 
     11  0.145484D+02
     12 -0.137035D+01  0.225751D+02
     13 -0.424524D+01  0.164446D+01  0.118701D+02
     14 -0.659733D+01  0.353737D+00  0.379928D+01  0.982471D+01
     15  0.231717D+00 -0.119240D+02 -0.199420D+01 -0.227988D+01  0.231091D+02
     16  0.672083D-01 -0.374782D-01  0.176741D-01 -0.524403D-02  0.697831D-02
     17 -0.173297D-01 -0.788712D-02 -0.382529D-02 -0.130302D-01  0.145219D-02
     18 -0.230363D-01 -0.339190D-01 -0.129717D-02  0.421338D-02 -0.101352D-01
     19  0.623132D-02  0.877571D-02  0.666874D-01  0.745384D-01  0.161775D-01
     20  0.445298D-01  0.260618D-01  0.991717D-01  0.253354D-01  0.170341D-01
     21  0.341148D-01 -0.553120D-03  0.334601D-01  0.202005D-01 -0.265828D-01
     22 -0.427779D-02  0.892274D-03  0.239458D-01  0.759250D-01 -0.310871D-01
     23 -0.279091D-01 -0.144398D-01  0.107549D+00  0.293935D-02 -0.356456D-01
     24 -0.178360D-01  0.178418D-01 -0.716737D-01 -0.470136D-01 -0.383181D-01
     25 -0.238199D-02  0.127879D-01  0.586028D-01  0.288096D+00  0.587291D-01
     26 -0.122835D+01  0.348205D+00  0.339959D+00 -0.212177D+00 -0.786616D-01
     27  0.374295D+00 -0.377523D+01  0.721332D-01 -0.682033D-01  0.207859D+00
     28  0.660610D-01 -0.468410D-01 -0.214630D+01  0.868020D+00  0.652895D+00
     29  0.188326D+00  0.222204D-01  0.890267D+00 -0.332799D+01  0.345123D+00
     30  0.184069D-01  0.141941D+00  0.647494D+00  0.336956D+00 -0.354757D+01
     31  0.305466D-01 -0.165280D-02  0.760003D-01  0.201047D-01  0.593765D-02
     32 -0.128648D+00 -0.126164D-01 -0.136595D+00  0.926996D-01 -0.409729D-01
     33 -0.916316D-02  0.228323D-01 -0.477958D-01 -0.172917D-01  0.816988D-01
               16            17            18            19            20 
     16  0.127614D+01
     17  0.282718D-01  0.346026D+01
     18  0.971703D+00 -0.520637D-01  0.281797D+01
     19  0.399349D-01  0.100515D+00  0.125600D+00  0.319269D+01
     20  0.121194D+00  0.151830D-01 -0.142021D+00 -0.222136D+00  0.176787D+01
     21  0.132592D+00 -0.121918D+00 -0.453518D-01 -0.199078D+00 -0.125607D+01
     22 -0.191500D+00  0.698759D-01 -0.596797D-01  0.891009D-01 -0.832642D-01
     23  0.948942D-01  0.765452D-01  0.155523D-01 -0.754534D-01  0.161123D+00
     24 -0.622512D-01  0.109091D-01  0.108151D+00 -0.244810D+00 -0.174968D+00
     25  0.803510D-02  0.865879D-02 -0.301950D-02 -0.234045D-02 -0.690753D-02
     26  0.227412D-01  0.812951D-02 -0.661020D-02 -0.601828D-02 -0.530138D-02
     27 -0.168290D-02 -0.134493D-02 -0.441263D-02 -0.134009D-02 -0.237065D-02
     28  0.109069D-01  0.125230D-02 -0.277687D-02  0.236265D-02  0.611109D-02
     29  0.502036D-02 -0.221523D-03 -0.140552D-02  0.222639D-02  0.287534D-02
     30  0.166188D-02 -0.366392D-03 -0.167865D-02  0.131074D-02  0.255064D-02
     31  0.808362D-02 -0.387067D-02 -0.629528D-02  0.144990D-01 -0.398531D-02
     32 -0.126126D-01 -0.433870D-02  0.498905D-02 -0.566768D-02 -0.155496D-01
     33 -0.152485D-01  0.321797D-02 -0.696962D-03 -0.764961D-02 -0.409331D-02
               21            22            23            24            25 
     21  0.280849D+01
     22 -0.192533D+00  0.292369D+01
     23 -0.123447D+00  0.577080D+00  0.341915D+01
     24 -0.246244D+00 -0.821941D+00  0.809627D+00  0.270818D+01
     25  0.223145D-04 -0.413275D-02  0.629361D-02 -0.220199D-02  0.390339D+01
     26  0.243925D-02 -0.175942D-03  0.228392D-01 -0.128212D-01 -0.100429D+00
     27  0.134252D-02 -0.835162D-03 -0.489442D-02 -0.323539D-02 -0.418500D-02
     28  0.409004D-02 -0.106043D-01 -0.140739D-02 -0.221406D-02 -0.210418D-01
     29  0.262855D-02 -0.651635D-02 -0.722338D-04 -0.159644D-02  0.178576D-01
     30  0.684573D-03  0.327841D-03  0.151828D-02 -0.112570D-02 -0.236199D-03
     31 -0.461410D-02 -0.148336D-01  0.972816D-03  0.471271D-01 -0.446827D-02
     32 -0.320777D-02  0.942770D-02  0.170969D-01 -0.463508D-02 -0.212916D-02
     33 -0.125514D-01  0.383151D-01 -0.577586D-02 -0.172725D-01 -0.825197D-03
               26            27            28            29            30 
     26  0.108095D+01
     27 -0.322758D+00  0.353816D+01
     28  0.849113D-02 -0.131975D-04  0.210850D+01
     29 -0.798700D-02  0.317866D-02 -0.103641D+01  0.334577D+01
     30 -0.100169D-02 -0.567738D-04 -0.697229D+00 -0.319858D+00  0.341029D+01
     31  0.103700D-01  0.108935D-02  0.318238D-01  0.586297D-01  0.308221D-01
     32  0.180540D-01  0.426565D-02  0.639204D-01  0.393883D-01  0.340942D-01
     33  0.926038D-02 -0.237650D-02  0.324507D-01  0.337214D-01 -0.355727D-02
               31            32            33 
     31  0.176487D+01
     32 -0.140383D+01  0.473064D+01
     33 -0.165704D+01 -0.822719D+00  0.504751D+01
 Leave Link  701 at Tue Sep 24 14:10:00 2019, MaxMem=   671088640 cpu:              40.4 elap:              20.2
 (Enter /shared/centos7/gaussian/g16/l702.exe)
 L702 exits ... SP integral derivatives will be done elsewhere.
 Leave Link  702 at Tue Sep 24 14:10:01 2019, MaxMem=   671088640 cpu:               1.4 elap:               0.7
 (Enter /shared/centos7/gaussian/g16/l703.exe)
 Integral derivatives from FoFJK, PRISM(SPDF).
 Compute integral second derivatives, UseDBF=F ICtDFT=           0.
 ICntrl=    100147.
 Calling FoFJK, ICntrl=    100147 FMM=F ISym2X=0 I1Cent= 0 IOpClX= 0 NMat=1 NMatS=1 NMatT=0.
 FoFJK:  IHMeth= 1 ICntrl=  100147 DoSepK=F KAlg= 0 I1Cent=           0 FoldK=F
 IRaf=         0 NMat=       1 IRICut=       1 DoRegI=T DoRafI=F ISym2E= 0 IDoP0=0 IntGTp=1.
 FoFCou: FMM=F IPFlag=           0 FMFlag=      100000 FMFlg1=         800
         NFxFlg=           0 DoJE=F BraDBF=F KetDBF=F FulRan=T
         wScrn=  0.000000 ICntrl=    100147 IOpCl=  0 I1Cent=           0 NGrid=           0
         NMat0=    1 NMatS0=      1 NMatT0=    0 NMatD0=    1 NMtDS0=    0 NMtDT0=    0
 Symmetry not used in FoFCou.
 FoFCou:  KetSym=F NOpSet=  1 NOpAb=1 NOp=  1.
 FoFCou:  CnvScl= 1.00D+00 Thresh= 1.00D-08 IAcrcy=      12.
 PrismS was handed   670737865 working-precision words and  3694 shell-pairs
 FoFCou: LinMIO=F DoNuc=F BraDBF=F KetDBF=F HaveP=T PDBF=F HaveZ=T HaveW=F
         NIJTC =      10 NIJTAt=       0 NIJTCD=       0 NIJTT =      10
         IJTBeg=       1 IJTEnd=      10 KLTBeg=       1 KLTEnd=      10
         IPTBeg=       1 IPTEnd=      10 IPTBCv=       1 IPTECv=      10
         IZTBeg=       1 IZTEnd=      10 IZTBCv=       1 IZTECv=      10
         IWTBeg=      11 IWTEnd=      10 IWTBCv=      11 IWTECv=      10
         INTBeg=       1 INTEnd=       0 IFTBCv=       1 IFTECv=      10
 NCel replicated for PrismC:     1
 CoulSu-InSpLW:  IPartL=    0 NPrtUS=   20 NPrtUL=    1 DoSpLW=F IThBeg=    0 IThEnd=   19 NThAct=   20.
 CoulSu:  IncDef=  1024 NBBP=        6824665 NTPThr=   100 NPartT=   20 Incr=        1024 LDynOK=F GPUOK=T.
 CoulSu:  NPrtUS=  20 ThrOK=T IAlg=1 NPAlg=1 LenDen=           0 LWGrdD=           0 DoCopy=F ISkipM=0
          DoSpLW=F IThBeg=    0 IThEnd=   19.
 Enter PrismC:  IPart=  0 JobTyp=22 DoJE=F Cont=F.
 Enter PrismC:  IPart=  1 JobTyp=22 DoJE=F Cont=F.
 PrismC:  IPart=     1 DynPar=T LinDyn=F Incr=        1024 UseFst=F UseS4=T ISplat=2.
 PrismC was handed    33454909 working-precision words and  3694 shell-pairs
 PrismC:  IPart=     0 DynPar=T LinDyn=F Incr=        1024 UseFst=F UseS4=T ISplat=2.
 PrismC was handed    33454909 working-precision words and  3694 shell-pairs
 Enter PrismC:  IPart=  8 JobTyp=22 DoJE=F Cont=F.
 PrismC:  IPart=     8 DynPar=T LinDyn=F Incr=        1024 UseFst=F UseS4=T ISplat=2.
 PrismC was handed    33454909 working-precision words and  3694 shell-pairs
 Enter PrismC:  IPart= 16 JobTyp=22 DoJE=F Cont=F.
 PrismC:  IPart=    16 DynPar=T LinDyn=F Incr=        1024 UseFst=F UseS4=T ISplat=2.
 PrismC was handed    33454909 working-precision words and  3694 shell-pairs
 Enter PrismC:  IPart= 15 JobTyp=22 DoJE=F Cont=F.
 PrismC:  IPart=    15 DynPar=T LinDyn=F Incr=        1024 UseFst=F UseS4=T ISplat=2.
 PrismC was handed    33454909 working-precision words and  3694 shell-pairs
 Enter PrismC:  IPart= 12 JobTyp=22 DoJE=F Cont=F.
 PrismC:  IPart=    12 DynPar=T LinDyn=F Incr=        1024 UseFst=F UseS4=T ISplat=2.
 PrismC was handed    33454909 working-precision words and  3694 shell-pairs
 Enter PrismC:  IPart= 19 JobTyp=22 DoJE=F Cont=F.
 Enter PrismC:  IPart= 11 JobTyp=22 DoJE=F Cont=F.
 PrismC:  IPart=    19 DynPar=T LinDyn=F Incr=        1024 UseFst=F UseS4=T ISplat=2.
 PrismC was handed    33454909 working-precision words and  3694 shell-pairs
 Enter PrismC:  IPart= 10 JobTyp=22 DoJE=F Cont=F.
 PrismC:  IPart=    10 DynPar=T LinDyn=F Incr=        1024 UseFst=F UseS4=T ISplat=2.
 PrismC was handed    33454909 working-precision words and  3694 shell-pairs
 PrismC:  IPart=    11 DynPar=T LinDyn=F Incr=        1024 UseFst=F UseS4=T ISplat=2.
 PrismC was handed    33454909 working-precision words and  3694 shell-pairs
 Enter PrismC:  IPart= 14 JobTyp=22 DoJE=F Cont=F.
 PrismC:  IPart=    14 DynPar=T LinDyn=F Incr=        1024 UseFst=F UseS4=T ISplat=2.
 PrismC was handed    33454909 working-precision words and  3694 shell-pairs
 Enter PrismC:  IPart= 18 JobTyp=22 DoJE=F Cont=F.
 PrismC:  IPart=    18 DynPar=T LinDyn=F Incr=        1024 UseFst=F UseS4=T ISplat=2.
 PrismC was handed    33454909 working-precision words and  3694 shell-pairs
 Enter PrismC:  IPart=  6 JobTyp=22 DoJE=F Cont=F.
 PrismC:  IPart=     6 DynPar=T LinDyn=F Incr=        1024 UseFst=F UseS4=T ISplat=2.
 PrismC was handed    33454909 working-precision words and  3694 shell-pairs
 Enter PrismC:  IPart=  3 JobTyp=22 DoJE=F Cont=F.
 PrismC:  IPart=     3 DynPar=T LinDyn=F Incr=        1024 UseFst=F UseS4=T ISplat=2.
 PrismC was handed    33454909 working-precision words and  3694 shell-pairs
 Enter PrismC:  IPart=  4 JobTyp=22 DoJE=F Cont=F.
 PrismC:  IPart=     4 DynPar=T LinDyn=F Incr=        1024 UseFst=F UseS4=T ISplat=2.
 PrismC was handed    33454909 working-precision words and  3694 shell-pairs
 Enter PrismC:  IPart= 13 JobTyp=22 DoJE=F Cont=F.
 PrismC:  IPart=    13 DynPar=T LinDyn=F Incr=        1024 UseFst=F UseS4=T ISplat=2.
 PrismC was handed    33454909 working-precision words and  3694 shell-pairs
 Enter PrismC:  IPart=  5 JobTyp=22 DoJE=F Cont=F.
 PrismC:  IPart=     5 DynPar=T LinDyn=F Incr=        1024 UseFst=F UseS4=T ISplat=2.
 PrismC was handed    33454909 working-precision words and  3694 shell-pairs
 Enter PrismC:  IPart=  2 JobTyp=22 DoJE=F Cont=F.
 PrismC:  IPart=     2 DynPar=T LinDyn=F Incr=        1024 UseFst=F UseS4=T ISplat=2.
 PrismC was handed    33454909 working-precision words and  3694 shell-pairs
 Enter PrismC:  IPart=  9 JobTyp=22 DoJE=F Cont=F.
 PrismC:  IPart=     9 DynPar=T LinDyn=F Incr=        1024 UseFst=F UseS4=T ISplat=2.
 PrismC was handed    33454909 working-precision words and  3694 shell-pairs
 Enter PrismC:  IPart= 17 JobTyp=22 DoJE=F Cont=F.
 PrismC:  IPart=    17 DynPar=T LinDyn=F Incr=        1024 UseFst=F UseS4=T ISplat=2.
 PrismC was handed    33454909 working-precision words and  3694 shell-pairs
 Enter PrismC:  IPart=  7 JobTyp=22 DoJE=F Cont=F.
 PrismC:  IPart=     7 DynPar=T LinDyn=F Incr=        1024 UseFst=F UseS4=T ISplat=2.
 PrismC was handed    33454909 working-precision words and  3694 shell-pairs
 IPart=  5 NShTot=      179422 NShNF=      179422 NShFF=           0 MinMC=       7
           NShCPU=      179422 NBCPU=        7785 AvBCPU=        23.0
           NShGPU=           0 NBGPU=           0 AvBGPU=         0.0
 IPart= 16 NShTot=      353714 NShNF=      353714 NShFF=           0 MinMC=       7
           NShCPU=      353714 NBCPU=       14289 AvBCPU=        24.8
           NShGPU=           0 NBGPU=           0 AvBGPU=         0.0
 IPart=  6 NShTot=      176913 NShNF=      176913 NShFF=           0 MinMC=       7
           NShCPU=      176913 NBCPU=        7968 AvBCPU=        22.2
           NShGPU=           0 NBGPU=           0 AvBGPU=         0.0
 IPart=  9 NShTot=      186460 NShNF=      186460 NShFF=           0 MinMC=       7
           NShCPU=      186460 NBCPU=        8176 AvBCPU=        22.8
           NShGPU=           0 NBGPU=           0 AvBGPU=         0.0
 IPart= 14 NShTot=      351231 NShNF=      351231 NShFF=           0 MinMC=       7
           NShCPU=      351231 NBCPU=       14713 AvBCPU=        23.9
           NShGPU=           0 NBGPU=           0 AvBGPU=         0.0
 IPart= 17 NShTot=      177313 NShNF=      177313 NShFF=           0 MinMC=       7
           NShCPU=      177313 NBCPU=        7624 AvBCPU=        23.3
           NShGPU=           0 NBGPU=           0 AvBGPU=         0.0
 IPart= 12 NShTot=      166524 NShNF=      166524 NShFF=           0 MinMC=       7
           NShCPU=      166524 NBCPU=        7190 AvBCPU=        23.2
           NShGPU=           0 NBGPU=           0 AvBGPU=         0.0
 IPart=  0 NShTot=      174341 NShNF=      174341 NShFF=           0 MinMC=       7
           NShCPU=      174341 NBCPU=        7105 AvBCPU=        24.5
           NShGPU=           0 NBGPU=           0 AvBGPU=         0.0
 IPart= 11 NShTot=      178905 NShNF=      178905 NShFF=           0 MinMC=       7
           NShCPU=      178905 NBCPU=        7655 AvBCPU=        23.4
           NShGPU=           0 NBGPU=           0 AvBGPU=         0.0
 IPart= 19 NShTot=      365138 NShNF=      365138 NShFF=           0 MinMC=       7
           NShCPU=      365138 NBCPU=       14945 AvBCPU=        24.4
           NShGPU=           0 NBGPU=           0 AvBGPU=         0.0
 IPart=  8 NShTot=      165979 NShNF=      165979 NShFF=           0 MinMC=       7
           NShCPU=      165979 NBCPU=        7509 AvBCPU=        22.1
           NShGPU=           0 NBGPU=           0 AvBGPU=         0.0
 IPart= 15 NShTot=      351398 NShNF=      351398 NShFF=           0 MinMC=       7
           NShCPU=      351398 NBCPU=       15457 AvBCPU=        22.7
           NShGPU=           0 NBGPU=           0 AvBGPU=         0.0
 IPart=  7 NShTot=      180417 NShNF=      180417 NShFF=           0 MinMC=       7
           NShCPU=      180417 NBCPU=        7142 AvBCPU=        25.3
           NShGPU=           0 NBGPU=           0 AvBGPU=         0.0
 IPart= 18 NShTot=      365031 NShNF=      365031 NShFF=           0 MinMC=       7
           NShCPU=      365031 NBCPU=       14995 AvBCPU=        24.3
           NShGPU=           0 NBGPU=           0 AvBGPU=         0.0
 IPart=  4 NShTot=      366490 NShNF=      366490 NShFF=           0 MinMC=       7
           NShCPU=      366490 NBCPU=       15270 AvBCPU=        24.0
           NShGPU=           0 NBGPU=           0 AvBGPU=         0.0
 IPart= 10 NShTot=      178342 NShNF=      178342 NShFF=           0 MinMC=       7
           NShCPU=      178342 NBCPU=        8193 AvBCPU=        21.8
           NShGPU=           0 NBGPU=           0 AvBGPU=         0.0
 IPart=  1 NShTot=      184620 NShNF=      184620 NShFF=           0 MinMC=       7
           NShCPU=      184620 NBCPU=        7616 AvBCPU=        24.2
           NShGPU=           0 NBGPU=           0 AvBGPU=         0.0
 IPart=  3 NShTot=      190477 NShNF=      190477 NShFF=           0 MinMC=       7
           NShCPU=      190477 NBCPU=        7101 AvBCPU=        26.8
           NShGPU=           0 NBGPU=           0 AvBGPU=         0.0
 IPart= 13 NShTot=      186147 NShNF=      186147 NShFF=           0 MinMC=       7
           NShCPU=      186147 NBCPU=        7517 AvBCPU=        24.8
           NShGPU=           0 NBGPU=           0 AvBGPU=         0.0
 IPart=  2 NShTot=      373339 NShNF=      373339 NShFF=           0 MinMC=       7
           NShCPU=      373339 NBCPU=       15556 AvBCPU=        24.0
           NShGPU=           0 NBGPU=           0 AvBGPU=         0.0
 CoulSu:  NxtVal=        7273473 LenVP=       33454910 MinMC=       7.
 ReadGW:  IGet=0 IStart=           1 Next=           1 LGW=           0.
 Remaining memory in FofDFT      639.93 Mw
 CkSvGd:  ISavGI=        -1 IRadAn=       5 IRASav=       5 ISavGd=        -1.
 CalDSu-InSpLW:  IPartL=    0 NPrtUS=   20 NPrtUL=    1 DoSpLW=F IThBeg=    0 IThEnd=   19 NThAct=   20.
 CalDSu:  NPrtUS=  20 ThrOK=T IAlg=1 NPAlg=2 DoDPD=T LenP=       35245 LenD1P=             0 GPUOK=F
          ISkipM=0 DoSpLW=F IThBeg=    0 IThEnd=   19.
 IPart=  0 IRanGd=          0 ScrnBf=T ScrnGd=T RCrit=4.00D+00 DoMicB=T.
 IPart= 15        12949 of        14750 points in      17 batches and       91 microbatches, Max-NSigAt=      11 Max-NSgAt2=      11
 IPart=  1         9650 of        10870 points in      12 batches and       65 microbatches, Max-NSigAt=      11 Max-NSgAt2=      11
 IPart= 19        13579 of        14916 points in      15 batches and       69 microbatches, Max-NSigAt=      11 Max-NSgAt2=      11
 IPart=  8         8573 of         9480 points in      10 batches and       65 microbatches, Max-NSigAt=      11 Max-NSgAt2=      11
 IPart= 10         8394 of         9552 points in      11 batches and       85 microbatches, Max-NSigAt=      11 Max-NSgAt2=      11
 IPart=  6         9004 of         9826 points in      10 batches and       58 microbatches, Max-NSigAt=      11 Max-NSgAt2=      11
 IPart=  3         9695 of        10112 points in      10 batches and       54 microbatches, Max-NSigAt=      11 Max-NSgAt2=      11
 IPart= 11         9961 of        10880 points in      11 batches and       49 microbatches, Max-NSigAt=      11 Max-NSgAt2=      11
 IPart=  7        10426 of        11604 points in      13 batches and       55 microbatches, Max-NSigAt=      11 Max-NSgAt2=      11
 IPart=  2        14095 of        15086 points in      15 batches and       63 microbatches, Max-NSigAt=      11 Max-NSgAt2=      11
 IPart=  9         9739 of        10732 points in      11 batches and       67 microbatches, Max-NSigAt=      11 Max-NSgAt2=      11
 IPart= 18        13819 of        15074 points in      15 batches and       72 microbatches, Max-NSigAt=      11 Max-NSgAt2=      11
 IPart= 14        14013 of        15518 points in      16 batches and       72 microbatches, Max-NSigAt=      11 Max-NSgAt2=      11
 IPart=  5        12054 of        14586 points in      17 batches and       72 microbatches, Max-NSigAt=      11 Max-NSgAt2=      11
 IPart=  0        10034 of        10700 points in      11 batches and       50 microbatches, Max-NSigAt=      11 Max-NSgAt2=      11
 IPart= 13        10977 of        11726 points in      11 batches and       54 microbatches, Max-NSigAt=      11 Max-NSgAt2=      11
 IPart= 17         9483 of        10410 points in      11 batches and       63 microbatches, Max-NSigAt=      11 Max-NSgAt2=      11
 IPart= 12         9460 of         9994 points in      10 batches and       59 microbatches, Max-NSigAt=      11 Max-NSgAt2=      11
 IPart=  4        14078 of        14866 points in      14 batches and       76 microbatches, Max-NSigAt=      11 Max-NSgAt2=      11
 IPart= 16        14242 of        15416 points in      15 batches and       72 microbatches, Max-NSigAt=      11 Max-NSgAt2=      11
 Polarizability after L703:
                1             2             3 
      1  0.000000D+00
      2  0.000000D+00  0.000000D+00
      3  0.000000D+00  0.000000D+00  0.000000D+00
 Dipole Derivatives after L703:
                 1             2             3             4             5 
      1  -0.117445D+00 -0.190008D-01  0.104795D+00 -0.476634D-03 -0.239586D+00
      2  -0.147083D+00 -0.215619D+00 -0.597999D-01 -0.659023D+00 -0.456908D+00
      3   0.116858D+00 -0.121737D-01 -0.186981D+00 -0.280647D+00 -0.130384D+00
                 6             7             8             9            10 
      1   0.746378D-02 -0.938142D+00 -0.442473D+00  0.203275D+00 -0.515296D+00
      2  -0.224766D+00 -0.417825D-01 -0.877768D+00  0.216971D-01 -0.687912D-01
      3  -0.528936D+00  0.460475D-01  0.342635D-01 -0.793525D+00 -0.205706D+00
                11            12            13            14            15 
      1   0.165892D+00 -0.234361D+00 -0.684840D+00 -0.222927D+00 -0.141646D+00
      2  -0.774010D+00 -0.252595D+00  0.502652D-01 -0.514232D+00  0.184875D-01
      3  -0.236353D+00 -0.107730D+00 -0.110461D+00 -0.588441D-01  0.601771D-01
                16            17            18            19            20 
      1   0.100239D+01 -0.144151D+00 -0.414405D+00  0.112834D+00  0.441646D+00
      2   0.152662D+00  0.136365D+00 -0.810102D-01  0.438432D-01  0.502314D+00
      3  -0.258878D+00  0.368677D-01  0.207900D+00 -0.616656D-03  0.147333D+00
                21            22            23            24            25 
      1   0.317355D+00 -0.452724D-02  0.148220D+00 -0.103334D+00  0.180331D+00
      2   0.325822D+00 -0.177764D+00  0.261887D+00 -0.185846D+00 -0.210816D-01
      3   0.300970D+00  0.264580D+00 -0.129294D+00  0.397787D+00 -0.327887D-02
                26            27            28            29            30 
      1   0.141440D-01  0.241474D-03  0.964290D+00  0.407285D+00  0.331554D+00
      2   0.106079D+01  0.951924D-01  0.292968D+00  0.337083D+00  0.139686D+00
      3   0.136623D+00  0.795524D-01  0.184345D+00  0.110808D+00  0.172804D+00
                31            32            33 
      1   0.880782D-03 -0.109049D+00 -0.709376D-01
      2   0.575788D+00  0.540102D+00  0.203132D+00
      3   0.247757D+00  0.101153D+00  0.397982D+00
 Hessian after L703:
                1             2             3             4             5 
      1  0.365787D+00
      2  0.157525D+00  0.333143D+00
      3  0.787670D-01 -0.891680D-01  0.164986D+00
      4  0.649068D-02  0.219791D-02  0.203133D-02  0.382614D+00
      5  0.820424D-02  0.195618D-01  0.117288D-01  0.212484D-01  0.426670D+00
      6  0.297357D-02  0.351251D-02 -0.532111D-03  0.118611D+00  0.107043D+00
      7 -0.841898D-01 -0.230126D-01 -0.690338D-02 -0.236173D-02 -0.302222D-02
      8 -0.450494D-01 -0.168040D+00  0.578324D-01 -0.125985D-02 -0.956621D-02
      9  0.147973D-01  0.807454D-01 -0.993383D-01  0.494230D-02  0.281346D-02
     10 -0.223921D+00 -0.761819D-01 -0.642989D-01  0.157694D-02 -0.142831D-02
     11 -0.441390D-01 -0.108156D+00 -0.944296D-03  0.373976D-01 -0.594665D-01
     12 -0.802542D-01 -0.187086D-01 -0.726538D-01  0.653649D-02 -0.235943D-01
     13 -0.502212D-01  0.356381D-02 -0.101210D-01 -0.108216D+00  0.504669D-01
     14 -0.335938D-01 -0.615483D-02 -0.113992D-01  0.807376D-02 -0.282525D+00
     15 -0.244552D-01 -0.119660D-02 -0.717741D-05 -0.158925D-01 -0.403138D-01
     16 -0.689168D-02 -0.997047D-02  0.560563D-02  0.124780D-03  0.157945D-03
     17 -0.346570D-01 -0.769521D-02  0.158417D-01  0.127432D-02  0.186036D-02
     18  0.151055D-01  0.105289D-01 -0.359423D-02 -0.101342D-02 -0.134835D-02
     19 -0.136226D-03 -0.108328D-01 -0.690187D-02  0.427698D-03  0.119438D-02
     20 -0.138242D-01 -0.310966D-01 -0.759712D-02  0.345815D-03  0.209853D-02
     21  0.201495D-02  0.149065D-01  0.143960D-01  0.685931D-03  0.108980D-02
     22  0.624786D-02 -0.758957D-02  0.104659D-01 -0.315717D-02  0.571153D-03
     23  0.117460D-01 -0.208475D-01  0.248943D-01  0.108362D-03 -0.171602D-03
     24 -0.442583D-02  0.114477D-01 -0.120689D-01 -0.123113D-02 -0.314628D-02
     25 -0.903773D-02 -0.343360D-01 -0.457045D-02 -0.363968D-02  0.327649D-02
     26 -0.913771D-02 -0.100345D-01 -0.199502D-02  0.219699D-02  0.230211D-02
     27 -0.613194D-02 -0.109228D-01  0.269198D-02 -0.292135D-02 -0.241977D-02
     28 -0.185562D-02  0.348775D-02 -0.149801D-02  0.820576D-02  0.162972D-02
     29  0.450931D-02 -0.148834D-03 -0.186120D-02 -0.292089D-01 -0.210365D-01
     30 -0.575343D-03 -0.181315D-02  0.889156D-02 -0.541652D-02 -0.595583D-02
     31 -0.227311D-02 -0.485139D-02 -0.257621D-02 -0.282065D+00 -0.822987D-01
     32 -0.158362D-02 -0.531076D-03  0.266774D-02 -0.423743D-01 -0.797272D-01
     33  0.218419D-02  0.668019D-03 -0.277110D-02 -0.106332D+00 -0.458969D-01
                6             7             8             9            10 
      6  0.130720D+00
      7  0.193625D-02  0.558836D+00
      8 -0.575349D-03 -0.224509D-01  0.461072D+00
      9 -0.568690D-02  0.566942D-01  0.680671D-02  0.523995D+00
     10  0.131698D-03 -0.203060D-01 -0.226479D-01  0.238330D-02  0.771095D+00
     11 -0.728200D-02 -0.325816D-01 -0.315981D-01 -0.105874D-01 -0.186386D+00
     12  0.919083D-02  0.148465D-01 -0.163400D-02  0.257501D-02  0.110113D+00
     13 -0.857098D-02 -0.236772D-02  0.719442D-02 -0.209708D-02 -0.469115D+00
     14 -0.592953D-01 -0.539094D-04  0.118282D-01 -0.593437D-02  0.239177D+00
     15 -0.623652D-01  0.583871D-03  0.514229D-02  0.907721D-03 -0.438765D-01
     16  0.603714D-03 -0.214645D+00  0.355742D-01  0.645823D-01  0.569905D-03
     17  0.259744D-03  0.420245D-01 -0.594422D-01 -0.190056D-01  0.790793D-03
     18  0.143767D-03  0.646124D-01 -0.166923D-01 -0.861039D-01 -0.921865D-03
[...]
 Second derivative matrix not updated -- analytic derivatives used.
 ITU=  0
     Eigenvalues ---    0.00376   0.00514   0.01217   0.02056   0.03747
     Eigenvalues ---    0.04680   0.08686   0.08778   0.10705   0.12082
     Eigenvalues ---    0.13475   0.16483   0.18191   0.18736   0.19826
     Eigenvalues ---    0.22138   0.23301   0.33222   0.33591   0.35088
     Eigenvalues ---    0.36355   0.37354   0.39844   0.45086   0.45698
     Eigenvalues ---    0.53343   0.66236
 Angle between quadratic step and forces=  75.41 degrees.
 Linear search not attempted -- first point.
 Iteration  1 RMS(Cart)=  0.00002535 RMS(Int)=  0.00000000
 Iteration  2 RMS(Cart)=  0.00000000 RMS(Int)=  0.00000000
 ITry= 1 IFail=0 DXMaxC= 6.89D-05 DCOld= 1.00D+10 DXMaxT= 3.00D-01 DXLimC= 3.00D+00 Rises=F
 Variable       Old X    -DE/DX   Delta X   Delta X   Delta X     New X
                                 (Linear)    (Quad)   (Total)
    R1        2.67120  -0.00000   0.00000  -0.00000  -0.00000   2.67120
    R2        2.59481  -0.00000   0.00000  -0.00000  -0.00000   2.59481
    R3        2.56333   0.00000   0.00000  -0.00000  -0.00000   2.56333
    R4        1.82346   0.00000   0.00000   0.00000   0.00000   1.82347
    R5        2.06653  -0.00000   0.00000  -0.00000  -0.00000   2.06653
    R6        2.05345  -0.00000   0.00000  -0.00000  -0.00000   2.05345
    R7        2.06457  -0.00000   0.00000  -0.00000  -0.00000   2.06457
    R8        2.50502   0.00000   0.00000   0.00000   0.00000   2.50502
    R9        2.04478   0.00000   0.00000   0.00000   0.00000   2.04478
   R10        2.03835   0.00000   0.00000   0.00000   0.00000   2.03835
    A1        1.98208   0.00000   0.00000  -0.00000  -0.00000   1.98208
    A2        1.87243  -0.00000   0.00000  -0.00000  -0.00000   1.87243
    A3        1.93110  -0.00000   0.00000  -0.00000  -0.00000   1.93110
    A4        1.87229  -0.00000   0.00000   0.00000   0.00000   1.87229
    A5        1.93727  -0.00000   0.00000  -0.00000  -0.00000   1.93727
    A6        1.90554   0.00000   0.00000   0.00000   0.00000   1.90554
    A7        1.90278  -0.00000   0.00000  -0.00000  -0.00000   1.90277
    A8        1.91450   0.00000   0.00000   0.00000   0.00000   1.91450
    A9        2.08155   0.00000   0.00000   0.00000   0.00000   2.08155
   A10        2.05344  -0.00000   0.00000  -0.00000  -0.00000   2.05343
   A11        2.14729   0.00000   0.00000   0.00000   0.00000   2.14729
   A12        2.16215   0.00000   0.00000   0.00000   0.00000   2.16215
   A13        1.98815  -0.00000   0.00000  -0.00000  -0.00000   1.98815
   A14        2.13269  -0.00000   0.00000   0.00000   0.00000   2.13269
    D1        1.02789  -0.00000   0.00000  -0.00001  -0.00001   1.02788
    D2        3.10484  -0.00000   0.00000  -0.00001  -0.00001   3.10483
    D3       -1.08701   0.00000   0.00000  -0.00001  -0.00001  -1.08701
    D4        2.45361  -0.00000   0.00000  -0.00004  -0.00004   2.45357
    D5       -0.73248  -0.00000   0.00000  -0.00005  -0.00005  -0.73253
    D6        0.00097  -0.00000   0.00000   0.00000   0.00000   0.00097
    D7       -3.11982  -0.00000   0.00000   0.00000   0.00000  -3.11981
    D8       -0.03797  -0.00000   0.00000  -0.00000  -0.00000  -0.03797
    D9        3.08115  -0.00000   0.00000  -0.00001  -0.00001   3.08114
   D10       -3.13254  -0.00000   0.00000   0.00000   0.00000  -3.13254
   D11       -0.01342  -0.00000   0.00000  -0.00000  -0.00000  -0.01342
         Item               Value     Threshold  Converged?
 Maximum Force            0.000001     0.000015     YES
 RMS     Force            0.000000     0.000010     YES
 Maximum Displacement     0.000069     0.000060     NO 
 RMS     Displacement     0.000025     0.000040     YES
 Predicted change in Energy=-1.389959D-11
                           ----------------------------
                           ! Non-Optimized Parameters !
                           ! (Angstroms and Degrees)  !
 --------------------------                            --------------------------
 ! Name  Definition              Value          Derivative Info.                !
 --------------------------------------------------------------------------------
 ! R1    R(1,3)                  1.4135         -DE/DX =    0.0                 !
 ! R2    R(1,4)                  1.3731         -DE/DX =    0.0                 !
 ! R3    R(2,5)                  1.3565         -DE/DX =    0.0                 !
 ! R4    R(2,11)                 0.9649         -DE/DX =    0.0                 !
 ! R5    R(3,6)                  1.0936         -DE/DX =    0.0                 !
 ! R6    R(3,7)                  1.0866         -DE/DX =    0.0                 !
 ! R7    R(3,8)                  1.0925         -DE/DX =    0.0                 !
 ! R8    R(4,5)                  1.3256         -DE/DX =    0.0                 !
 ! R9    R(4,9)                  1.0821         -DE/DX =    0.0                 !
 ! R10   R(5,10)                 1.0786         -DE/DX =    0.0                 !
 ! A1    A(3,1,4)              113.5649         -DE/DX =    0.0                 !
 ! A2    A(5,2,11)             107.2822         -DE/DX =    0.0                 !
 ! A3    A(1,3,6)              110.6436         -DE/DX =    0.0                 !
 ! A4    A(1,3,7)              107.2744         -DE/DX =    0.0                 !
 ! A5    A(1,3,8)              110.9976         -DE/DX =    0.0                 !
 ! A6    A(6,3,7)              109.1795         -DE/DX =    0.0                 !
 ! A7    A(6,3,8)              109.021          -DE/DX =    0.0                 !
 ! A8    A(7,3,8)              109.6929         -DE/DX =    0.0                 !
 ! A9    A(1,4,5)              119.2639         -DE/DX =    0.0                 !
 ! A10   A(1,4,9)              117.6531         -DE/DX =    0.0                 !
 ! A11   A(5,4,9)              123.0306         -DE/DX =    0.0                 !
 ! A12   A(2,5,4)              123.8823         -DE/DX =    0.0                 !
 ! A13   A(2,5,10)             113.9126         -DE/DX =    0.0                 !
 ! A14   A(4,5,10)             122.194          -DE/DX =    0.0                 !
 ! D1    D(4,1,3,6)             58.8935         -DE/DX =    0.0                 !
 ! D2    D(4,1,3,7)            177.8937         -DE/DX =    0.0                 !
 ! D3    D(4,1,3,8)            -62.2812         -DE/DX =    0.0                 !
 ! D4    D(3,1,4,5)            140.5792         -DE/DX =    0.0                 !
 ! D5    D(3,1,4,9)            -41.9709         -DE/DX =    0.0                 !
 ! D6    D(11,2,5,4)             0.0559         -DE/DX =    0.0                 !
 ! D7    D(11,2,5,10)         -178.7521         -DE/DX =    0.0                 !
 ! D8    D(1,4,5,2)             -2.1756         -DE/DX =    0.0                 !
 ! D9    D(1,4,5,10)           176.5366         -DE/DX =    0.0                 !
 ! D10   D(9,4,5,2)           -179.4813         -DE/DX =    0.0                 !
 ! D11   D(9,4,5,10)            -0.7691         -DE/DX =    0.0                 !
 --------------------------------------------------------------------------------
 GradGradGradGradGradGradGradGradGradGradGradGradGradGradGradGradGradGrad

 Leave Link  103 at Tue Sep 24 16:55:04 2019, MaxMem=   671088640 cpu:             130.1 elap:              66.3
 (Enter /shared/centos7/gaussian/g16/l9999.exe)

 ----------------------------------------------------------------------

 Electric dipole moment (input orientation):
 (Debye = 10**-18 statcoulomb cm , SI units = C m)
                  (au)            (Debye)         (10**-30 SI)
   Tot        0.864553D+00      0.219747D+01      0.732999D+01
   x         -0.273467D+00     -0.695085D+00     -0.231855D+01
   y         -0.510318D+00     -0.129710D+01     -0.432666D+01
   z         -0.642061D+00     -0.163196D+01     -0.544362D+01

 Dipole polarizability, Alpha (input orientation).
 (esu units = cm**3 , SI units = C**2 m**2 J**-1)
 Alpha(0;0):
               (au)            (10**-24 esu)      (10**-40 SI)
   iso        0.445369D+02      0.659969D+01      0.734315D+01
   aniso      0.248255D+02      0.367875D+01      0.409316D+01
   xx         0.377575D+02      0.559508D+01      0.622537D+01
   yx         0.786348D+01      0.116525D+01      0.129651D+01
   yy         0.525153D+02      0.778197D+01      0.865861D+01
   zx        -0.122184D+01     -0.181059D+00     -0.201455D+00
   zy         0.930486D+01      0.137884D+01      0.153416D+01
   zz         0.433380D+02      0.642202D+01      0.714546D+01

 ----------------------------------------------------------------------

 Dipole orientation:
     8         -1.65918799          2.34369700         -1.47116109
     8         -2.47300877          0.22937904         -6.15714918
     6         -2.39212218          2.22470353          1.09476380
     6         -0.28793463          0.28493769         -2.25488750
     6         -0.69874267         -0.66339399         -4.53678242
     1         -0.73453354          2.07533667          2.31977060
     1         -3.39368681          3.96514198          1.52417486
     1         -3.62929694          0.60759669          1.43653136
     1          1.14572817         -0.43823000         -0.98888026
     1          0.39706157         -2.21181780         -5.28275048
     1         -3.31219112          1.62032384         -5.32885921

 Electric dipole moment (dipole orientation):
 (Debye = 10**-18 statcoulomb cm , SI units = C m)
                  (au)            (Debye)         (10**-30 SI)
   Tot        0.864553D+00      0.219747D+01      0.732999D+01
   x          0.000000D+00      0.000000D+00      0.000000D+00
   y          0.000000D+00      0.000000D+00      0.000000D+00
   z          0.864553D+00      0.219747D+01      0.732999D+01

 Dipole polarizability, Alpha (dipole orientation).
 (esu units = cm**3 , SI units = C**2 m**2 J**-1)
 Alpha(0;0):
               (au)            (10**-24 esu)      (10**-40 SI)
   iso        0.445369D+02      0.659969D+01      0.734315D+01
   aniso      0.248255D+02      0.367875D+01      0.409316D+01
   xx         0.382562D+02      0.566899D+01      0.630760D+01
   yx        -0.466932D+01     -0.691922D+00     -0.769867D+00
   yy         0.388572D+02      0.575805D+01      0.640669D+01
   zx         0.134635D+01      0.199509D+00      0.221983D+00
   zy         0.862791D+01      0.127852D+01      0.142255D+01
   zz         0.564973D+02      0.837204D+01      0.931515D+01

 ----------------------------------------------------------------------

 Test job not archived.
 1\1\GINC-C0306\Freq\RM062X\CC-pVTZ\C3H6O2\HARMS.N\24-Sep-2019\0\\#P Ge
 om=AllCheck Guess=TCheck SCRF=Check Test GenChk RM062X/CC-pVTZ Freq\\G
 aussian input prepared by ASE\\0,1\O,-0.4484664115,-0.4386687725,1.587
 949114\O,-0.1899084935,1.9663231905,2.9053140152\C,-1.2502927951,-1.14
 82188522,0.6650694134\C,0.2499676628,0.6000180913,1.0233552315\C,0.373
 2455472,1.7375754491,1.6926714257\H,-0.6370114356,-1.5615985612,-0.140
 4612284\H,-1.7230686798,-1.9624234532,1.2075973181\H,-2.0162799095,-0.
 5001845559,0.2327265715\H,0.7121607281,0.4294609738,0.0599628645\H,0.9
 569009109,2.564021279,1.3187513262\H,-0.6682700093,1.1662869225,3.1547
 379667\\Version=EM64L-G16RevA.03\State=1-A\HF=-268.3241864\RMSD=3.051e
 -09\RMSF=9.821e-07\ZeroPoint=0.0911284\Thermal=0.0969967\Dipole=-0.273
 4674,-0.5103184,-0.6420612\DipoleDeriv=-0.6545397,-0.5830707,-0.172442
 4,-0.4729179,-1.2260572,-0.3355214,0.0131792,0.055567,-0.5271314,-0.41
 03495,0.257834,0.4028117,-0.0010432,-0.3843006,-0.0684227,0.1674474,-0
 .5193223,-1.1357409,0.5422471,0.2135706,0.1898474,0.162987,0.5723831,0
 .2062267,0.2507918,0.3536152,0.5332709,0.102634,0.4238603,-0.1253483,0
 .3981201,0.6422897,-0.0286521,-0.3081404,-0.3501972,-0.1267218,0.05025
 57,-0.1559105,-0.4655023,0.0034903,0.2103507,0.2300393,-0.2547882,0.51
 9228,0.9215458,-0.0561011,0.0461362,0.1063728,0.0027083,0.006305,-0.04
 90153,0.0192235,-0.1143806,-0.0750544,0.0234104,-0.081351,0.0017459,-0
 .0824547,-0.057603,0.0242431,0.0385856,0.0687525,0.0087961,-0.0711056,
 0.0104628,-0.068117,0.1147675,-0.0345341,0.0646892,-0.0874841,-0.05074
 11,-0.0117582,0.0998691,-0.0201779,0.0835905,-0.0309325,0.0161992,-0.0
 641542,0.1170682,0.0242411,-0.0008516,0.0833727,-0.0637468,0.0704562,-
 0.0676483,0.0360141,0.0214847,0.0510442,-0.0030255,0.0489519,0.2903069
 ,-0.0476069,-0.0234144,-0.0270766,0.218953,-0.0009173,-0.0069273,0.016
 2628,0.3646937\Polar=37.7574827,7.863478,52.5153348,-1.2218449,9.30486
 32,43.3379574\Quadrupole=0.3378974,-0.5602317,0.2223343,2.0359114,-1.2
 38812,-0.5926471\PG=C01 [X(C3H6O2)]\NImag=0\\0.26077703,0.22548569,0.3
 8009801,0.03708593,0.00359360,0.33032405,0.00041808,0.00836376,-0.0091
 7258,0.23002596,0.00319805,0.00340587,-0.00172483,0.19768730,0.4720715
 6,-0.01125048,-0.00735300,0.00847686,-0.20569269,-0.01918898,0.3986755
 5,-0.11975510,-0.05699652,-0.05334648,-0.00076119,0.00265331,0.0007961
 6,0.55413406,-0.04955500,-0.10761207,-0.03729404,-0.00152128,0.0001680
 3,0.00346469,-0.00821742,0.57941554,-0.07551593,-0.06632372,-0.1679545
 5,-0.00226672,-0.00036522,0.00439617,-0.04673278,-0.05396478,0.5492041
 1,-0.10928281,-0.09396226,0.04117510,0.00501187,0.01519572,0.03183035,
 -0.02386779,-0.02866698,0.00597178,0.28192693,-0.10476047,-0.20335310,
 0.04988183,-0.00007578,-0.00150953,-0.00779651,-0.02297671,-0.03615685
 ,0.00454668,0.15599909,0.73909232,0.06418785,0.07702151,-0.13800492,0.
 01967508,-0.04043341,-0.05381401,-0.01099044,-0.01869589,0.01401226,-0
 .17703713,0.23273419,0.65493519,-0.00491175,-0.03925082,-0.00288328,-0
 .10406104,-0.01450641,0.09849475,0.00087185,-0.00063361,0.00563593,-0.
 07594112,-0.04750229,-0.00286593,0.32253942,-0.02020403,-0.05098779,-0
 .01038992,0.00672078,-0.11117370,-0.06942890,0.00192217,0.00170676,0.0
 0450482,-0.05817332,-0.43285412,-0.19414020,0.21807259,0.82278716,0.01
 684246,0.03197052,0.00601030,0.11617719,-0.02657270,-0.28041866,0.0002
 0337,-0.00164162,-0.00786677,-0.01337718,-0.22342949,-0.20497392,-0.18
 678154,0.16537343,0.59474236,0.01164960,-0.01484285,-0.02191687,0.0001
 2700,-0.00057410,0.00030395,-0.14482399,0.05719034,0.11388947,0.003046
 92,0.00147085,-0.00309568,-0.00020535,0.00000536,-0.00038232,0.1493335
 9,0.00001611,-0.01177128,-0.02005428,-0.00025880,-0.00025091,0.0003822
 5,0.05495921,-0.08498149,-0.06180807,0.00366554,0.00266920,-0.00337630
 ,-0.00019885,-0.00054298,0.00015080,-0.05718356,0.08966558,0.00123382,
 -0.01891742,-0.02623518,-0.00019596,-0.00027089,0.00000647,0.10815605,
 -0.06369756,-0.17851028,0.00203226,0.00407569,-0.00039031,-0.00041397,
 -0.00069971,0.00026250,-0.11432643,0.08069329,0.20354547,-0.01338143,-
 0.02013262,0.00735874,0.00020716,-0.00000985,-0.00053082,-0.09775995,-
 0.08078887,0.05775684,-0.00045648,-0.00142084,-0.00354003,-0.00092596,
 -0.00071003,0.00099119,-0.00704570,-0.01393775,0.01045122,0.10721311,-
 0.01266429,-0.01716860,0.00503107,0.00045550,-0.00000883,-0.00086505,-
 0.08411131,-0.19905641,0.10462372,-0.00070105,0.00000190,-0.00420363,-
 0.00121211,0.00003540,0.00157109,0.00586115,0.01116962,-0.00586932,0.1
 0036113,0.21813137,-0.01642972,-0.02432741,0.01171504,-0.00008243,0.00
 023290,-0.00007355,0.06671440,0.11513544,-0.12867241,-0.00155527,-0.00
 207176,-0.00274896,-0.00080127,-0.00096900,0.00108877,0.00792836,0.017
 25770,-0.01018314,-0.06110468,-0.11135531,0.13349101,-0.01940039,0.000
 15790,-0.01768796,0.00004564,-0.00000377,-0.00013129,-0.17205451,0.109
 10954,-0.06143240,0.00253686,0.00395990,-0.00120635,-0.00029965,-0.001
 21497,0.00035887,-0.01187933,0.01358949,-0.00626357,0.01200429,-0.0080
 3742,0.00566674,0.18986482,-0.02088550,0.01116138,-0.01232469,-0.00059
 758,0.00010388,0.00032216,0.11410838,-0.15541372,0.06333382,0.00035611
 ,0.00499833,-0.00071151,0.00123739,-0.00064082,-0.00089011,0.00678857,
 -0.00609634,0.00515358,0.01671003,-0.01262113,0.00663974,-0.11784739,0
 .15878094,-0.02636357,0.00525227,-0.01598351,0.00067961,-0.00003217,-0
 .00104204,-0.06121842,0.05867880,-0.08526529,0.00266834,0.00238226,-0.
 00080770,-0.00066331,-0.00073972,0.00135917,0.01665719,-0.01428846,0.0
 1048833,-0.01142561,0.01072944,-0.00484233,0.08028117,-0.06167111,0.09
 608501,-0.00936623,-0.00477093,0.01486520,0.00730057,-0.00444089,0.003
 58803,0.00172880,0.00216138,0.00301545,-0.08564552,0.01473411,0.116399
 12,0.00279867,0.00122835,-0.00572315,0.00019337,-0.00050196,-0.0005419
 7,0.00003545,0.00004939,-0.00052617,-0.00067900,-0.00008579,-0.0001379
 7,0.08708072,-0.01761806,-0.00185325,0.02645732,-0.00413954,-0.0026547
 0,-0.00446414,0.00078056,0.00338803,0.00444815,0.01424147,-0.06348479,
 -0.05392412,0.01434414,0.00279598,-0.02135610,0.00102020,-0.00014180,-
 0.00096875,0.00021204,-0.00012048,-0.00015624,0.00002719,-0.00032625,-
 0.00048574,-0.00974903,0.06394334,0.00940041,0.00403226,-0.01141682,0.
 00185410,-0.00333108,0.00412843,-0.00265983,-0.00083704,0.00077576,0.1
 1492207,-0.05267469,-0.27634853,0.00648297,0.00204708,-0.00999318,0.00
 083506,0.00080091,0.00058753,0.00001975,0.00022623,0.00033438,0.000289
 70,0.00000296,0.00005992,-0.12910827,0.04886902,0.29222103,0.00592366,
 -0.00386712,0.00475420,-0.00751166,-0.01007795,0.00795241,0.00164852,0
 .00082362,-0.00023245,0.00079371,0.00079526,0.00033847,-0.12649381,-0.
 12984348,0.05874320,-0.00018805,-0.00012804,-0.00005530,0.00014999,0.0
 0020962,0.00018153,-0.00002040,0.00021485,-0.00011096,-0.00281571,0.00
 124172,-0.00182524,0.12753710,-0.00265505,0.00040146,-0.00625356,0.004
 41751,0.00938985,-0.00158422,-0.00016392,-0.00104122,0.00106450,-0.013
 08291,-0.01200034,0.01355036,-0.13077435,-0.23747443,0.07237912,0.0000
 1280,-0.00007098,-0.00010902,-0.00027006,-0.00025247,-0.00034848,-0.00
 004719,-0.00006645,0.00004165,0.00147002,-0.00065044,0.00010039,0.1400
 8356,0.24014564,0.00185368,-0.00594398,0.00105530,0.02082862,0.0252152
 5,-0.01598974,0.00106077,0.00001659,0.00054851,-0.00905053,-0.00887603
 ,0.01031137,0.05653686,0.06727312,-0.08129848,-0.00014973,-0.00013448,
 -0.00009154,-0.00009009,-0.00004902,-0.00012703,-0.00005834,0.00015257
 ,-0.00011673,-0.00156285,0.00105276,-0.00086938,-0.07210935,-0.0763351
 6,0.09093915,-0.00267066,-0.00018423,-0.00023200,-0.13080237,-0.189121
 41,0.07463965,0.00063931,0.00009827,-0.00008919,0.00187743,-0.00022312
 ,-0.00186494,-0.01337126,-0.01780342,0.01294790,-0.00020805,-0.0000214
 0,-0.00007613,-0.00004048,-0.00021061,0.00000851,-0.00011833,0.0000009
 4,-0.00036648,-0.00063113,-0.00036069,-0.00021071,0.00097665,0.0010095
 9,0.00274098,0.14434889,-0.00035745,-0.00232063,0.00307750,-0.21105186
 ,-0.36954153,0.10651171,-0.00195775,-0.00041659,-0.00005989,0.00512859
 ,0.00259698,-0.00782100,0.00042431,0.00634855,0.00244505,0.00025123,0.
 00035140,0.00061011,-0.00001319,-0.00011036,-0.00003759,0.00030671,0.0
 0012018,0.00013277,-0.00009463,-0.00089565,0.00076398,0.00054796,0.001
 61939,-0.00237163,0.20681608,0.36224825,-0.00104444,0.00099536,0.00201
 343,0.05819579,0.06647113,-0.06434549,-0.00198278,-0.00116460,-0.00066
 750,0.00242021,0.00122783,-0.00217046,0.02725879,0.03716901,-0.0189120
 8,0.00025702,0.00037665,0.00052015,0.00011349,0.00016078,0.00001821,0.
 00018344,-0.00000740,0.00006518,-0.00026740,0.00052783,0.00052086,0.00
 236348,-0.00250557,-0.00436142,-0.08749760,-0.10325100,0.08731912\\-0.
 00000129,0.00000016,0.00000099,-0.00000148,-0.00000040,-0.00000065,0.0
 0000013,0.00000064,-0.00000070,0.00000106,-0.00000048,0.00000059,0.000
 00065,0.00000006,-0.00000007,0.00000073,-0.00000091,0.00000062,-0.0000
 0176,0.00000028,-0.00000002,0.00000056,0.00000049,-0.00000158,0.000001
 56,-0.00000111,0.00000132,0.00000117,-0.00000096,0.00000037,-0.0000013
 2,0.00000224,-0.00000086\\\@


 THE HURRIEDER I GO, THE BEHINDER I GET.
 Job cpu time:       0 days  0 hours 59 minutes 15.6 seconds.
 Elapsed time:       0 days  0 hours 29 minutes 39.7 seconds.
 File lengths (MBytes):  RWF=   1312 Int=      0 D2E=      0 Chk=     32 Scr=     32
 Normal termination of Gaussian 16 at Tue Sep 24 16:55:05 2019.
