 Entering Gaussian System, Link 0=g16
 Input=loose/species/COC=CO/conformers/COC=CO_3.com
 Output=loose/species/COC=CO/conformers/COC=CO_3.log
 Initial command:
 /shared/centos7/gaussian/g16/l1.exe "/scratch/harms.n/gauss_scrdir/Gau-17498.inp" -scrdir="/scratch/harms.n/gauss_scrdir/"
 Entering Link 1 = /shared/centos7/gaussian/g16/l1.exe PID=     17499.
  
 Copyright (c) 1988,1990,1992,1993,1995,1998,2003,2009,2016,
            Gaussian, Inc.  All Rights Reserved.
  
 This is part of the Gaussian(R) 16 program.  It is based on
 the Gaussian(R) 09 system (copyright 2009, Gaussian, Inc.),
 the Gaussian(R) 03 system (copyright 2003, Gaussian, Inc.),
 the Gaussian(R) 98 system (copyright 1998, Gaussian, Inc.),
 the Gaussian(R) 94 system (copyright 1995, Gaussian, Inc.),
 the Gaussian 92(TM) system (copyright 1992, Gaussian, Inc.),
 the Gaussian 90(TM) system (copyright 1990, Gaussian, Inc.),
 the Gaussian 88(TM) system (copyright 1988, Gaussian, Inc.),
 the Gaussian 86(TM) system (copyright 1986, Carnegie Mellon
 University), and the Gaussian 82(TM) system (copyright 1983,
 Carnegie Mellon University). Gaussian is a federally registered
 trademark of Gaussian, Inc.
  
 This software contains proprietary and confidential information,
 including trade secrets, belonging to Gaussian, Inc.
  
 This software is provided under written license and may be
 used, copied, transmitted, or stored only in accord with that
 written license.
  
 The following legend is applicable only to US Government
 contracts under FAR:
  
                    RESTRICTED RIGHTS LEGEND
  
 Use, reproduction and disclosure by the US Government is
 subject to restrictions as set forth in subparagraphs (a)
 and (c) of the Commercial Computer Software - Restricted
 Rights clause in FAR 52.227-19.
  
 Gaussian, Inc.
 340 Quinnipiac St., Bldg. 40, Wallingford CT 06492
  
  
 ---------------------------------------------------------------
 Warning -- This program may not be used in any manner that
 competes with the business of Gaussian, Inc. or will provide
 assistance to any competitor of Gaussian, Inc.  The licensee
 of this program is prohibited from giving any competitor of
 Gaussian, Inc. access to this program.  By using this program,
 the user acknowledges that Gaussian, Inc. is engaged in the
 business of creating and licensing software in the field of
 computational chemistry and represents and warrants to the
 licensee that it is not a competitor of Gaussian, Inc. and that
 it will not use this program in any manner prohibited above.
 ---------------------------------------------------------------
  

 Cite this work as:
 Gaussian 16, Revision A.03,
 M. J. Frisch, G. W. Trucks, H. B. Schlegel, G. E. Scuseria, 
 M. A. Robb, J. R. Cheeseman, G. Scalmani, V. Barone, 
 G. A. Petersson, H. Nakatsuji, X. Li, M. Caricato, A. V. Marenich, 
 J. Bloino, B. G. Janesko, R. Gomperts, B. Mennucci, H. P. Hratchian, 
 J. V. Ortiz, A. F. Izmaylov, J. L. Sonnenberg, D. Williams-Young, 
 F. Ding, F. Lipparini, F. Egidi, J. Goings, B. Peng, A. Petrone, 
 T. Henderson, D. Ranasinghe, V. G. Zakrzewski, J. Gao, N. Rega, 
 G. Zheng, W. Liang, M. Hada, M. Ehara, K. Toyota, R. Fukuda, 
 J. Hasegawa, M. Ishida, T. Nakajima, Y. Honda, O. Kitao, H. Nakai, 
 T. Vreven, K. Throssell, J. A. Montgomery, Jr., J. E. Peralta, 
 F. Ogliaro, M. J. Bearpark, J. J. Heyd, E. N. Brothers, K. N. Kudin, 
 V. N. Staroverov, T. A. Keith, R. Kobayashi, J. Normand, 
 K. Raghavachari, A. P. Rendell, J. C. Burant, S. S. Iyengar, 
 J. Tomasi, M. Cossi, J. M. Millam, M. Klene, C. Adamo, R. Cammi, 
 J. W. Ochterski, R. L. Martin, K. Morokuma, O. Farkas, 
 J. B. Foresman, and D. J. Fox, Gaussian, Inc., Wallingford CT, 2016.
 
 ******************************************
 Gaussian 16:  EM64L-G16RevA.03 25-Dec-2016
                24-Sep-2019 
 ******************************************
 %nprocshared=20
 Will use up to   20 processors via shared memory.
 %mem=5GB
 ----------------------------------------------------------------------
 #p m062x/cc-pVTZ opt=(calcfc,maxcycles=900,Tight) freq IOP(7/33=1,2/16
 =3) scf=(maxcycle=900)
 ----------------------------------------------------------------------
 1/6=900,7=10,10=4,18=20,19=15,26=3,38=1/1,3;
 2/9=110,12=2,16=3,17=6,18=5,40=1/2;
 3/5=16,6=1,11=2,25=1,30=1,71=2,74=-55,140=1/1,2,3;
 4//1;
 5/5=2,7=900,38=5/2;
 8/6=4,10=90,11=11/1;
 11/6=1,8=1,9=11,15=111,16=1/1,2,10;
 10/6=1,13=1/2;
 6/7=2,8=2,9=2,10=2,28=1/1;
 7/10=1,18=20,25=1,33=1/1,2,3,16;
 1/6=900,7=10,10=4,18=20,19=15,26=3/3(2);
 2/9=110,16=3/2;
 99//99;
 2/9=110,16=3/2;
 3/5=16,6=1,11=2,25=1,30=1,71=1,74=-55/1,2,3;
 4/5=5,16=3,69=1/1;
 5/5=2,7=900,38=5/2;
 7/33=1/1,2,3,16;
 1/6=900,7=10,18=20,19=15,26=3/3(-5);
 2/9=110,16=3/2;
 6/7=2,8=2,9=2,10=2,19=2,28=1/1;
 99/9=1/99;
 Leave Link    1 at Tue Sep 24 18:03:24 2019, MaxMem=   671088640 cpu:               4.1 elap:               2.0
 (Enter /shared/centos7/gaussian/g16/l101.exe)
 ------------------------------
 Gaussian input prepared by ASE
 ------------------------------
 Symbolic Z-matrix:
 Charge =  0 Multiplicity = 1
 O                     0.21412  -0.74277   1.1268 
 O                     0.40771   2.86363   0.38708 
 C                    -1.18957  -0.86497   0.8858 
 C                     0.67729   0.55088   0.92301 
 C                    -0.05246   1.57641   0.55327 
 H                    -1.45668  -1.93341   1.12981 
 H                    -1.7646   -0.1713    1.56319 
 H                    -1.43772  -0.64089  -0.15184 
 H                     1.74482   0.60644   1.12731 
 H                    -1.09925   1.48804   0.35501 
 H                     1.32242   2.91845   0.82789 
 
 ITRead=  0  0  0  0  0  0  0  0  0  0  0
 MicOpt= -1 -1 -1 -1 -1 -1 -1 -1 -1 -1 -1
 NAtoms=     11 NQM=       11 NQMF=       0 NMMI=      0 NMMIF=      0
                NMic=       0 NMicF=      0.
                    Isotopes and Nuclear Properties:
 (Nuclear quadrupole moments (NQMom) in fm**2, nuclear magnetic moments (NMagM)
  in nuclear magnetons)

  Atom         1           2           3           4           5           6           7           8           9          10
 IAtWgt=          16          16          12          12          12           1           1           1           1           1
 AtmWgt=  15.9949146  15.9949146  12.0000000  12.0000000  12.0000000   1.0078250   1.0078250   1.0078250   1.0078250   1.0078250
 NucSpn=           0           0           0           0           0           1           1           1           1           1
 AtZEff=  -0.0000000  -0.0000000  -0.0000000  -0.0000000  -0.0000000  -0.0000000  -0.0000000  -0.0000000  -0.0000000  -0.0000000
 NQMom=    0.0000000   0.0000000   0.0000000   0.0000000   0.0000000   0.0000000   0.0000000   0.0000000   0.0000000   0.0000000
 NMagM=    0.0000000   0.0000000   0.0000000   0.0000000   0.0000000   2.7928460   2.7928460   2.7928460   2.7928460   2.7928460
 AtZNuc=   8.0000000   8.0000000   6.0000000   6.0000000   6.0000000   1.0000000   1.0000000   1.0000000   1.0000000   1.0000000

  Atom        11
 IAtWgt=           1
 AtmWgt=   1.0078250
 NucSpn=           1
 AtZEff=  -0.0000000
 NQMom=    0.0000000
 NMagM=    2.7928460
 AtZNuc=   1.0000000
 Leave Link  101 at Tue Sep 24 18:03:25 2019, MaxMem=   671088640 cpu:               2.3 elap:               1.2
 (Enter /shared/centos7/gaussian/g16/l103.exe)

 GradGradGradGradGradGradGradGradGradGradGradGradGradGradGradGradGradGrad
 Berny optimization.
 Initialization pass.
                           ----------------------------
                           !    Initial Parameters    !
                           ! (Angstroms and Degrees)  !
 --------------------------                            --------------------------
 ! Name  Definition              Value          Derivative Info.                !
 --------------------------------------------------------------------------------
 ! R1    R(1,3)                  1.4295         calculate D2E/DX2 analytically  !
 ! R2    R(1,4)                  1.3891         calculate D2E/DX2 analytically  !
 ! R3    R(2,5)                  1.3771         calculate D2E/DX2 analytically  !
 ! R4    R(2,11)                 1.0169         calculate D2E/DX2 analytically  !
 ! R5    R(3,6)                  1.128          calculate D2E/DX2 analytically  !
 ! R6    R(3,7)                  1.1272         calculate D2E/DX2 analytically  !
 ! R7    R(3,8)                  1.0902         calculate D2E/DX2 analytically  !
 ! R8    R(4,5)                  1.3119         calculate D2E/DX2 analytically  !
 ! R9    R(4,9)                  1.0883         calculate D2E/DX2 analytically  !
 ! R10   R(5,10)                 1.0691         calculate D2E/DX2 analytically  !
 ! A1    A(3,1,4)              112.4764         calculate D2E/DX2 analytically  !
 ! A2    A(5,2,11)             107.3781         calculate D2E/DX2 analytically  !
 ! A3    A(1,3,6)              106.0829         calculate D2E/DX2 analytically  !
 ! A4    A(1,3,7)              110.3044         calculate D2E/DX2 analytically  !
 ! A5    A(1,3,8)              111.4947         calculate D2E/DX2 analytically  !
 ! A6    A(6,3,7)              109.3954         calculate D2E/DX2 analytically  !
 ! A7    A(6,3,8)              110.2839         calculate D2E/DX2 analytically  !
 ! A8    A(7,3,8)              109.2296         calculate D2E/DX2 analytically  !
 ! A9    A(1,4,5)              125.725          calculate D2E/DX2 analytically  !
 ! A10   A(1,4,9)              110.3083         calculate D2E/DX2 analytically  !
 ! A11   A(5,4,9)              123.962          calculate D2E/DX2 analytically  !
 ! A12   A(2,5,4)              125.3707         calculate D2E/DX2 analytically  !
 ! A13   A(2,5,10)             112.4633         calculate D2E/DX2 analytically  !
 ! A14   A(4,5,10)             122.1636         calculate D2E/DX2 analytically  !
 ! D1    D(4,1,3,6)           -177.282          calculate D2E/DX2 analytically  !
 ! D2    D(4,1,3,7)            -58.9106         calculate D2E/DX2 analytically  !
 ! D3    D(4,1,3,8)             62.6319         calculate D2E/DX2 analytically  !
 ! D4    D(3,1,4,5)              0.0887         calculate D2E/DX2 analytically  !
 ! D5    D(3,1,4,9)            179.3235         calculate D2E/DX2 analytically  !
 ! D6    D(11,2,5,4)           -14.5288         calculate D2E/DX2 analytically  !
 ! D7    D(11,2,5,10)          164.9098         calculate D2E/DX2 analytically  !
 ! D8    D(1,4,5,2)            178.2026         calculate D2E/DX2 analytically  !
 ! D9    D(1,4,5,10)            -1.1845         calculate D2E/DX2 analytically  !
 ! D10   D(9,4,5,2)             -0.9322         calculate D2E/DX2 analytically  !
 ! D11   D(9,4,5,10)           179.6807         calculate D2E/DX2 analytically  !
 --------------------------------------------------------------------------------
 Trust Radius=3.00D-01 FncErr=1.00D-07 GrdErr=1.00D-06 EigMax=2.50D+02 EigMin=1.00D-04
 Number of steps in this run=    100 maximum allowed number of steps=    100.
 GradGradGradGradGradGradGradGradGradGradGradGradGradGradGradGradGradGrad

 Leave Link  103 at Tue Sep 24 18:03:25 2019, MaxMem=   671088640 cpu:               1.4 elap:               0.7
 (Enter /shared/centos7/gaussian/g16/l202.exe)
                          Input orientation:                          
 ---------------------------------------------------------------------
 Center     Atomic      Atomic             Coordinates (Angstroms)
 Number     Number       Type             X           Y           Z
 ---------------------------------------------------------------------
      1          8           0        0.214124   -0.742770    1.126799
      2          8           0        0.407706    2.863631    0.387078
      3          6           0       -1.189569   -0.864973    0.885804
      4          6           0        0.677293    0.550879    0.923013
      5          6           0       -0.052461    1.576413    0.553267
      6          1           0       -1.456676   -1.933406    1.129806
      7          1           0       -1.764602   -0.171299    1.563186
      8          1           0       -1.437721   -0.640893   -0.151836
      9          1           0        1.744816    0.606444    1.127307
     10          1           0       -1.099246    1.488045    0.355012
     11          1           0        1.322417    2.918455    0.827888
 ---------------------------------------------------------------------
                    Distance matrix (angstroms):
                    1          2          3          4          5
     1  O    0.000000
     2  O    3.686568   0.000000
     3  C    1.429464   4.086870   0.000000
     4  C    1.389094   2.389293   2.343331   0.000000
     5  C    2.403875   1.377063   2.713662   1.311858   0.000000
     6  H    2.051632   5.199915   1.128020   3.281503   3.824009
     7  H    2.105319   3.913176   1.127250   2.625684   2.646858
     8  H    2.091382   3.997213   1.090179   2.654978   2.707870
     9  H    2.040440   2.725930   3.291505   1.088314   2.121454
    10  H    2.701320   2.040630   2.413834   2.087342   1.069052
    11  H    3.836956   1.016866   4.541779   2.455738   1.940820
                    6          7          8          9         10
     6  H    0.000000
     7  H    1.840559   0.000000
     8  H    1.820318   1.807946   0.000000
     9  H    4.086611   3.620896   3.649739   0.000000
    10  H    3.526242   2.157731   2.214460   3.076093   0.000000
    11  H    5.599559   4.429100   4.609466   2.369276   2.852041
                   11
    11  H    0.000000
 Stoichiometry    C3H6O2
 Framework group  C1[X(C3H6O2)]
 Deg. of freedom    27
 Full point group                 C1      NOp   1
 Largest Abelian subgroup         C1      NOp   1
 Largest concise Abelian subgroup C1      NOp   1
                         Standard orientation:                         
 ---------------------------------------------------------------------
 Center     Atomic      Atomic             Coordinates (Angstroms)
 Number     Number       Type             X           Y           Z
 ---------------------------------------------------------------------
      1          8           0        1.300319    0.696779   -0.002365
      2          8           0       -2.251431   -0.291050   -0.009356
      3          6           0        1.820929   -0.634428    0.012423
      4          6           0       -0.088378    0.723722   -0.021850
      5          6           0       -0.874908   -0.326197   -0.025204
      6          1           0        2.942208   -0.530738    0.078849
      7          1           0        1.442423   -1.192455    0.915768
      8          1           0        1.544720   -1.181408   -0.889249
      9          1           0       -0.446285    1.751501   -0.020603
     10          1           0       -0.491826   -1.324236   -0.031394
     11          1           0       -2.528197    0.652926    0.248182
 ---------------------------------------------------------------------
 Rotational constants (GHZ):          16.1534199           2.8190817           2.4402098
 Leave Link  202 at Tue Sep 24 18:03:27 2019, MaxMem=   671088640 cpu:               4.0 elap:               2.0
 (Enter /shared/centos7/gaussian/g16/l301.exe)
 Standard basis: CC-pVTZ (5D, 7F)
 Ernie: Thresh=  0.10000D-02 Tol=  0.10000D-05 Strict=F.
 Ernie:  15 primitive shells out of 178 were deleted.
 There are   265 symmetry adapted cartesian basis functions of A   symmetry.
 There are   234 symmetry adapted basis functions of A   symmetry.
   234 basis functions,   362 primitive gaussians,   265 cartesian basis functions
    20 alpha electrons       20 beta electrons
       nuclear repulsion energy       175.1281164143 Hartrees.
 IExCor= 4336 DFT=T Ex+Corr=M062X ExCW=0 ScaHFX=  0.540000
 ScaDFX=  1.000000  1.000000  1.000000  1.000000 ScalE2=  1.000000  1.000000
 IRadAn=      5 IRanWt=     -1 IRanGd=            0 ICorTp=0 IEmpDi=  4
 NAtoms=   11 NActive=   11 NUniq=   11 SFac= 1.00D+00 NAtFMM=   60 NAOKFM=F Big=F
 Integral buffers will be    131072 words long.
 Raffenetti 2 integral format.
 Two-electron integral symmetry is turned on.
 Leave Link  301 at Tue Sep 24 18:03:29 2019, MaxMem=   671088640 cpu:               1.7 elap:               0.9
 (Enter /shared/centos7/gaussian/g16/l302.exe)
 NPDir=0 NMtPBC=     1 NCelOv=     1 NCel=       1 NClECP=     1 NCelD=      1
         NCelK=      1 NCelE2=     1 NClLst=     1 CellRange=     0.0.
 One-electron integrals computed using PRISM.
 One-electron integral symmetry used in STVInt
 NBasis=   234 RedAO= T EigKep=  3.67D-04  NBF=   234
 NBsUse=   234 1.00D-06 EigRej= -1.00D+00 NBFU=   234
 Precomputing XC quadrature grid using
 IXCGrd= 4 IRadAn=           5 IRanWt=          -1 IRanGd=           0 AccXCQ= 0.00D+00.
 Generated NRdTot=       0 NPtTot=           0 NUsed=           0 NTot=          32
 NSgBfM=   265   265   265   265   265 MxSgAt=    11 MxSgA2=    11.
 Leave Link  302 at Tue Sep 24 18:04:39 2019, MaxMem=   671088640 cpu:             141.4 elap:              70.7
 (Enter /shared/centos7/gaussian/g16/l303.exe)
 DipDrv:  MaxL=1.
 Leave Link  303 at Tue Sep 24 18:04:43 2019, MaxMem=   671088640 cpu:               8.2 elap:               4.1
 (Enter /shared/centos7/gaussian/g16/l401.exe)
 ExpMin= 1.03D-01 ExpMax= 1.53D+04 ExpMxC= 5.22D+02 IAcc=3 IRadAn=         5 AccDes= 0.00D+00
 Harris functional with IExCor= 1009 and IRadAn=       5 diagonalized for initial guess.
 HarFok:  IExCor= 1009 AccDes= 0.00D+00 IRadAn=         5 IDoV= 1 UseB2=F ITyADJ=14
 ICtDFT=  3500011 ScaDFX=  1.000000  1.000000  1.000000  1.000000
 FoFCou: FMM=F IPFlag=           0 FMFlag=      100000 FMFlg1=           0
         NFxFlg=           0 DoJE=T BraDBF=F KetDBF=T FulRan=T
         wScrn=  0.000000 ICntrl=       500 IOpCl=  0 I1Cent=   200000004 NGrid=           0
         NMat0=    1 NMatS0=      1 NMatT0=    0 NMatD0=    1 NMtDS0=    0 NMtDT0=    0
 Petite list used in FoFCou.
 Harris En= -268.198069326532    
 JPrj=0 DoOrth=F DoCkMO=F.
 Leave Link  401 at Tue Sep 24 18:05:09 2019, MaxMem=   671088640 cpu:              50.4 elap:              25.2
 (Enter /shared/centos7/gaussian/g16/l502.exe)
 Keep R1 ints in memory in canonical form, NReq=399924305.
 FoFCou: FMM=F IPFlag=           0 FMFlag=           0 FMFlg1=           0
         NFxFlg=           0 DoJE=F BraDBF=F KetDBF=F FulRan=T
         wScrn=  0.000000 ICntrl=       600 IOpCl=  0 I1Cent=           0 NGrid=           0
         NMat0=    1 NMatS0=  27495 NMatT0=    0 NMatD0=    1 NMtDS0=    0 NMtDT0=    0
 Symmetry not used in FoFCou.
 Two-electron integral symmetry not used.
 Closed shell SCF:
 Using DIIS extrapolation, IDIIS=  1040.
 NGot=   671088640 LenX=   292939207 LenY=   292868541
 Requested convergence on RMS density matrix=1.00D-08 within 900 cycles.
 Requested convergence on MAX density matrix=1.00D-06.
 Requested convergence on             energy=1.00D-06.
 No special actions if energy rises.
 Integral accuracy reduced to 1.0D-05 until final iterations.

 Cycle   1  Pass 0  IDiag  1:
 E= -268.189278319295    
 DIIS: error= 2.29D-02 at cycle   1 NSaved=   1.
 NSaved= 1 IEnMin= 1 EnMin= -268.189278319295     IErMin= 1 ErrMin= 2.29D-02
 ErrMax= 2.29D-02  0.00D+00 EMaxC= 1.00D-01 BMatC= 1.70D-01 BMatP= 1.70D-01
 IDIUse=3 WtCom= 7.71D-01 WtEn= 2.29D-01
 Coeff-Com:  0.100D+01
 Coeff-En:   0.100D+01
 Coeff:      0.100D+01
 Gap=     0.357 Goal=   None    Shift=    0.000
 GapD=    0.357 DampG=1.000 DampE=0.500 DampFc=0.5000 IDamp=-1.
 Damping current iteration by 5.00D-01
 RMSDP=1.97D-03 MaxDP=6.09D-02              OVMax= 1.16D-01

 Cycle   2  Pass 0  IDiag  1:
 E= -268.253718137404     Delta-E=       -0.064439818108 Rises=F Damp=T
 DIIS: error= 6.55D-03 at cycle   2 NSaved=   2.
 NSaved= 2 IEnMin= 2 EnMin= -268.253718137404     IErMin= 2 ErrMin= 6.55D-03
 ErrMax= 6.55D-03  0.00D+00 EMaxC= 1.00D-01 BMatC= 1.65D-02 BMatP= 1.70D-01
 IDIUse=3 WtCom= 9.34D-01 WtEn= 6.55D-02
 Coeff-Com: -0.175D+00 0.118D+01
 Coeff-En:   0.000D+00 0.100D+01
 Coeff:     -0.164D+00 0.116D+01
 Gap=     0.332 Goal=   None    Shift=    0.000
 RMSDP=3.92D-04 MaxDP=9.43D-03 DE=-6.44D-02 OVMax= 5.28D-02

 Cycle   3  Pass 0  IDiag  1:
 E= -268.310202566854     Delta-E=       -0.056484429450 Rises=F Damp=F
 DIIS: error= 3.50D-03 at cycle   3 NSaved=   3.
 NSaved= 3 IEnMin= 3 EnMin= -268.310202566854     IErMin= 3 ErrMin= 3.50D-03
 ErrMax= 3.50D-03  0.00D+00 EMaxC= 1.00D-01 BMatC= 3.40D-03 BMatP= 1.65D-02
 IDIUse=3 WtCom= 9.65D-01 WtEn= 3.50D-02
 Coeff-Com: -0.113D+00 0.375D+00 0.738D+00
 Coeff-En:   0.000D+00 0.000D+00 0.100D+01
 Coeff:     -0.109D+00 0.361D+00 0.747D+00
 Gap=     0.333 Goal=   None    Shift=    0.000
 RMSDP=1.67D-04 MaxDP=5.73D-03 DE=-5.65D-02 OVMax= 1.89D-02

 Cycle   4  Pass 0  IDiag  1:
 E= -268.311764401658     Delta-E=       -0.001561834803 Rises=F Damp=F
 DIIS: error= 1.61D-03 at cycle   4 NSaved=   4.
 NSaved= 4 IEnMin= 4 EnMin= -268.311764401658     IErMin= 4 ErrMin= 1.61D-03
 ErrMax= 1.61D-03  0.00D+00 EMaxC= 1.00D-01 BMatC= 8.83D-04 BMatP= 3.40D-03
 IDIUse=3 WtCom= 9.84D-01 WtEn= 1.61D-02
 Coeff-Com: -0.382D-01 0.967D-01 0.386D+00 0.555D+00
 Coeff-En:   0.000D+00 0.000D+00 0.212D+00 0.788D+00
 Coeff:     -0.376D-01 0.952D-01 0.383D+00 0.559D+00
 Gap=     0.328 Goal=   None    Shift=    0.000
 RMSDP=7.81D-05 MaxDP=2.89D-03 DE=-1.56D-03 OVMax= 9.17D-03

 Cycle   5  Pass 0  IDiag  1:
 E= -268.312441856771     Delta-E=       -0.000677455113 Rises=F Damp=F
 DIIS: error= 2.44D-04 at cycle   5 NSaved=   5.
 NSaved= 5 IEnMin= 5 EnMin= -268.312441856771     IErMin= 5 ErrMin= 2.44D-04
 ErrMax= 2.44D-04  0.00D+00 EMaxC= 1.00D-01 BMatC= 1.72D-05 BMatP= 8.83D-04
 IDIUse=3 WtCom= 9.98D-01 WtEn= 2.44D-03
 Coeff-Com: -0.579D-02 0.113D-01 0.844D-01 0.192D+00 0.718D+00
 Coeff-En:   0.000D+00 0.000D+00 0.000D+00 0.000D+00 0.100D+01
 Coeff:     -0.578D-02 0.113D-01 0.842D-01 0.191D+00 0.719D+00
 Gap=     0.329 Goal=   None    Shift=    0.000
 RMSDP=1.41D-05 MaxDP=4.24D-04 DE=-6.77D-04 OVMax= 1.78D-03

 Cycle   6  Pass 0  IDiag  1:
 E= -268.312454925771     Delta-E=       -0.000013069000 Rises=F Damp=F
 DIIS: error= 7.44D-05 at cycle   6 NSaved=   6.
 NSaved= 6 IEnMin= 6 EnMin= -268.312454925771     IErMin= 6 ErrMin= 7.44D-05
 ErrMax= 7.44D-05  0.00D+00 EMaxC= 1.00D-01 BMatC= 2.68D-06 BMatP= 1.72D-05
 IDIUse=1 WtCom= 1.00D+00 WtEn= 0.00D+00
 Coeff-Com: -0.121D-02 0.124D-02 0.263D-01 0.768D-01 0.378D+00 0.519D+00
 Coeff:     -0.121D-02 0.124D-02 0.263D-01 0.768D-01 0.378D+00 0.519D+00
 Gap=     0.329 Goal=   None    Shift=    0.000
 RMSDP=4.38D-06 MaxDP=1.34D-04 DE=-1.31D-05 OVMax= 4.92D-04

 Initial convergence to 1.0D-05 achieved.  Increase integral accuracy.
 Cycle   7  Pass 1  IDiag  1:
 E= -268.312476664778     Delta-E=       -0.000021739007 Rises=F Damp=F
 DIIS: error= 2.04D-05 at cycle   1 NSaved=   1.
 NSaved= 1 IEnMin= 1 EnMin= -268.312476664778     IErMin= 1 ErrMin= 2.04D-05
 ErrMax= 2.04D-05  0.00D+00 EMaxC= 1.00D-01 BMatC= 2.58D-07 BMatP= 2.58D-07
 IDIUse=1 WtCom= 1.00D+00 WtEn= 0.00D+00
 Coeff-Com:  0.100D+01
 Coeff:      0.100D+01
 Gap=     0.329 Goal=   None    Shift=    0.000
 RMSDP=4.38D-06 MaxDP=1.34D-04 DE=-2.17D-05 OVMax= 2.01D-04

 Cycle   8  Pass 1  IDiag  1:
 E= -268.312476784352     Delta-E=       -0.000000119574 Rises=F Damp=F
 DIIS: error= 1.94D-05 at cycle   2 NSaved=   2.
 NSaved= 2 IEnMin= 2 EnMin= -268.312476784352     IErMin= 2 ErrMin= 1.94D-05
 ErrMax= 1.94D-05  0.00D+00 EMaxC= 1.00D-01 BMatC= 1.45D-07 BMatP= 2.58D-07
 IDIUse=1 WtCom= 1.00D+00 WtEn= 0.00D+00
 Coeff-Com:  0.398D+00 0.602D+00
 Coeff:      0.398D+00 0.602D+00
 Gap=     0.329 Goal=   None    Shift=    0.000
 RMSDP=1.36D-06 MaxDP=3.48D-05 DE=-1.20D-07 OVMax= 1.48D-04

 Cycle   9  Pass 1  IDiag  1:
 E= -268.312476866618     Delta-E=       -0.000000082266 Rises=F Damp=F
 DIIS: error= 9.24D-06 at cycle   3 NSaved=   3.
 NSaved= 3 IEnMin= 3 EnMin= -268.312476866618     IErMin= 3 ErrMin= 9.24D-06
 ErrMax= 9.24D-06  0.00D+00 EMaxC= 1.00D-01 BMatC= 3.10D-08 BMatP= 1.45D-07
 IDIUse=1 WtCom= 1.00D+00 WtEn= 0.00D+00
 Coeff-Com: -0.409D-01 0.307D+00 0.734D+00
 Coeff:     -0.409D-01 0.307D+00 0.734D+00
 Gap=     0.329 Goal=   None    Shift=    0.000
 RMSDP=5.17D-07 MaxDP=1.48D-05 DE=-8.23D-08 OVMax= 5.77D-05

 Cycle  10  Pass 1  IDiag  1:
 E= -268.312476890547     Delta-E=       -0.000000023930 Rises=F Damp=F
 DIIS: error= 1.28D-06 at cycle   4 NSaved=   4.
 NSaved= 4 IEnMin= 4 EnMin= -268.312476890547     IErMin= 4 ErrMin= 1.28D-06
 ErrMax= 1.28D-06  0.00D+00 EMaxC= 1.00D-01 BMatC= 4.80D-10 BMatP= 3.10D-08
 IDIUse=1 WtCom= 1.00D+00 WtEn= 0.00D+00
 Coeff-Com: -0.203D-01 0.741D-01 0.223D+00 0.724D+00
 Coeff:     -0.203D-01 0.741D-01 0.223D+00 0.724D+00
 Gap=     0.329 Goal=   None    Shift=    0.000
 RMSDP=8.38D-08 MaxDP=3.20D-06 DE=-2.39D-08 OVMax= 8.15D-06

 Cycle  11  Pass 1  IDiag  1:
 E= -268.312476890969     Delta-E=       -0.000000000422 Rises=F Damp=F
 DIIS: error= 5.71D-07 at cycle   5 NSaved=   5.
 NSaved= 5 IEnMin= 5 EnMin= -268.312476890969     IErMin= 5 ErrMin= 5.71D-07
 ErrMax= 5.71D-07  0.00D+00 EMaxC= 1.00D-01 BMatC= 1.19D-10 BMatP= 4.80D-10
 IDIUse=1 WtCom= 1.00D+00 WtEn= 0.00D+00
 Coeff-Com: -0.299D-02-0.181D-01-0.154D-01 0.314D+00 0.722D+00
 Coeff:     -0.299D-02-0.181D-01-0.154D-01 0.314D+00 0.722D+00
 Gap=     0.329 Goal=   None    Shift=    0.000
 RMSDP=3.81D-08 MaxDP=1.04D-06 DE=-4.22D-10 OVMax= 3.16D-06

 Cycle  12  Pass 1  IDiag  1:
 E= -268.312476891076     Delta-E=       -0.000000000107 Rises=F Damp=F
 DIIS: error= 2.41D-07 at cycle   6 NSaved=   6.
 NSaved= 6 IEnMin= 6 EnMin= -268.312476891076     IErMin= 6 ErrMin= 2.41D-07
 ErrMax= 2.41D-07  0.00D+00 EMaxC= 1.00D-01 BMatC= 1.39D-11 BMatP= 1.19D-10
 IDIUse=1 WtCom= 1.00D+00 WtEn= 0.00D+00
 Coeff-Com:  0.165D-02-0.187D-01-0.365D-01 0.404D-01 0.316D+00 0.698D+00
 Coeff:      0.165D-02-0.187D-01-0.365D-01 0.404D-01 0.316D+00 0.698D+00
 Gap=     0.329 Goal=   None    Shift=    0.000
 RMSDP=1.28D-08 MaxDP=4.36D-07 DE=-1.07D-10 OVMax= 1.28D-06

 Cycle  13  Pass 1  IDiag  1:
 E= -268.312476891079     Delta-E=       -0.000000000004 Rises=F Damp=F
 DIIS: error= 3.74D-08 at cycle   7 NSaved=   7.
 NSaved= 7 IEnMin= 7 EnMin= -268.312476891079     IErMin= 7 ErrMin= 3.74D-08
 ErrMax= 3.74D-08  0.00D+00 EMaxC= 1.00D-01 BMatC= 4.30D-13 BMatP= 1.39D-11
 IDIUse=1 WtCom= 1.00D+00 WtEn= 0.00D+00
 Coeff-Com:  0.645D-03-0.399D-02-0.875D-02-0.901D-02 0.413D-01 0.186D+00
 Coeff-Com:  0.793D+00
 Coeff:      0.645D-03-0.399D-02-0.875D-02-0.901D-02 0.413D-01 0.186D+00
 Coeff:      0.793D+00
 Gap=     0.329 Goal=   None    Shift=    0.000
 RMSDP=3.18D-09 MaxDP=8.94D-08 DE=-3.52D-12 OVMax= 2.19D-07

 SCF Done:  E(RM062X) =  -268.312476891     A.U. after   13 cycles
            NFock= 13  Conv=0.32D-08     -V/T= 2.0062
 KE= 2.666712068194D+02 PE=-9.784888409143D+02 EE= 2.683770407896D+02
 Leave Link  502 at Tue Sep 24 18:09:54 2019, MaxMem=   671088640 cpu:             563.0 elap:             285.4
 (Enter /shared/centos7/gaussian/g16/l801.exe)
 DoSCS=F DFT=T ScalE2(SS,OS)=  1.000000  1.000000
 Range of M.O.s used for correlation:     1   234
 NBasis=   234 NAE=    20 NBE=    20 NFC=     0 NFV=     0
 NROrb=    234 NOA=    20 NOB=    20 NVA=   214 NVB=   214

 **** Warning!!: The largest alpha MO coefficient is  0.11580938D+02

 Leave Link  801 at Tue Sep 24 18:09:55 2019, MaxMem=   671088640 cpu:               2.1 elap:               1.1
 (Enter /shared/centos7/gaussian/g16/l1101.exe)
 Using compressed storage, NAtomX=    11.
 Will process     12 centers per pass.
 Leave Link 1101 at Tue Sep 24 18:10:18 2019, MaxMem=   671088640 cpu:              45.6 elap:              22.8
 (Enter /shared/centos7/gaussian/g16/l1102.exe)
 Symmetrizing basis deriv contribution to polar:
 IMax=3 JMax=2 DiffMx= 0.00D+00
 Leave Link 1102 at Tue Sep 24 18:10:21 2019, MaxMem=   671088640 cpu:               5.1 elap:               2.5
 (Enter /shared/centos7/gaussian/g16/l1110.exe)
 Forming Gx(P) for the SCF density, NAtomX=    11.
 Integral derivatives from FoFJK, PRISM(SPDF).
 Do as many integral derivatives as possible in FoFJK.
 G2DrvN: MDV=     671087712.
 G2DrvN: will do    12 centers at a time, making    1 passes.
 Calling FoFCou, ICntrl=  3107 FMM=F I1Cent=   0 AccDes= 0.00D+00.
 FoFJK:  IHMeth= 1 ICntrl=    3107 DoSepK=F KAlg= 0 I1Cent=           0 FoldK=F
 IRaf=         0 NMat=       1 IRICut=       1 DoRegI=T DoRafI=F ISym2E= 0 IDoP0=0 IntGTp=1.
 FoFCou: FMM=F IPFlag=           0 FMFlag=      100000 FMFlg1=           0
         NFxFlg=           0 DoJE=F BraDBF=F KetDBF=F FulRan=T
         wScrn=  0.000000 ICntrl=      3107 IOpCl=  0 I1Cent=           0 NGrid=           0
         NMat0=    1 NMatS0=      1 NMatT0=    0 NMatD0=    1 NMtDS0=    0 NMtDT0=    0
 Symmetry not used in FoFCou.
 End of G2Drv F.D. properties file   721 does not exist.
 End of G2Drv F.D. properties file   722 does not exist.
 End of G2Drv F.D. properties file   788 does not exist.
 Leave Link 1110 at Tue Sep 24 18:15:23 2019, MaxMem=   671088640 cpu:             605.2 elap:             302.6
 (Enter /shared/centos7/gaussian/g16/l1002.exe)
 Minotr:  Closed shell wavefunction.
          IDoAtm=11111111111
          Direct CPHF calculation.
          Differentiating once with respect to nuclear coordinates.
          Requested convergence is 1.0D-08 RMS, and 1.0D-07 maximum.
          Secondary convergence is 1.0D-12 RMS, and 1.0D-12 maximum.
          NewPWx=T KeepS1=F KeepF1=F KeepIn=T MapXYZ=F SortEE=F KeepMc=T.
         3293 words used for storage of precomputed grid.
 Keep R1 ints in memory in canonical form, NReq=399865292.
 FoFCou: FMM=F IPFlag=           0 FMFlag=           0 FMFlg1=           0
         NFxFlg=           0 DoJE=F BraDBF=F KetDBF=F FulRan=T
         wScrn=  0.000000 ICntrl=       600 IOpCl=  0 I1Cent=           0 NGrid=           0
         NMat0=    1 NMatS0=  27495 NMatT0=    0 NMatD0=    1 NMtDS0=    0 NMtDT0=    0
 Symmetry not used in FoFCou.
 Two-electron integral symmetry not used.
          MDV=     671088640 using IRadAn=       1.
          Solving linear equations simultaneously, MaxMat=       0.
          There are    36 degrees of freedom in the 1st order CPHF.  IDoFFX=6 NUNeed=     0.
     30 vectors produced by pass  0 Test12= 1.19D-14 2.78D-09 XBig12= 6.56D-02 6.71D-02.
 AX will form    30 AO Fock derivatives at one time.
     30 vectors produced by pass  1 Test12= 1.19D-14 2.78D-09 XBig12= 7.94D-03 4.10D-02.
     30 vectors produced by pass  2 Test12= 1.19D-14 2.78D-09 XBig12= 2.44D-04 3.12D-03.
     30 vectors produced by pass  3 Test12= 1.19D-14 2.78D-09 XBig12= 3.82D-06 3.30D-04.
     30 vectors produced by pass  4 Test12= 1.19D-14 2.78D-09 XBig12= 2.53D-08 2.19D-05.
     30 vectors produced by pass  5 Test12= 1.19D-14 2.78D-09 XBig12= 1.11D-10 1.28D-06.
     17 vectors produced by pass  6 Test12= 1.19D-14 2.78D-09 XBig12= 3.98D-13 8.21D-08.
      5 vectors produced by pass  7 Test12= 1.19D-14 2.78D-09 XBig12= 1.67D-15 4.32D-09.
 InvSVY:  IOpt=1 It=  1 EMax= 1.33D-15
 Solved reduced A of dimension   202 with    30 vectors.
 End of Minotr F.D. properties file   721 does not exist.
 End of Minotr F.D. properties file   722 does not exist.
 End of Minotr F.D. properties file   788 does not exist.
 Leave Link 1002 at Tue Sep 24 18:22:58 2019, MaxMem=   671088640 cpu:             909.8 elap:             455.0
 (Enter /shared/centos7/gaussian/g16/l601.exe)
 Copying SCF densities to generalized density rwf, IOpCl= 0 IROHF=0.

 **********************************************************************

            Population analysis using the SCF density.

 **********************************************************************

 Orbital symmetries:
       Occupied  (A) (A) (A) (A) (A) (A) (A) (A) (A) (A) (A) (A)
                 (A) (A) (A) (A) (A) (A) (A) (A)
       Virtual   (A) (A) (A) (A) (A) (A) (A) (A) (A) (A) (A) (A)
                 (A) (A) (A) (A) (A) (A) (A) (A) (A) (A) (A) (A)
                 (A) (A) (A) (A) (A) (A) (A) (A) (A) (A) (A) (A)
                 (A) (A) (A) (A) (A) (A) (A) (A) (A) (A) (A) (A)
                 (A) (A) (A) (A) (A) (A) (A) (A) (A) (A) (A) (A)
                 (A) (A) (A) (A) (A) (A) (A) (A) (A) (A) (A) (A)
                 (A) (A) (A) (A) (A) (A) (A) (A) (A) (A) (A) (A)
                 (A) (A) (A) (A) (A) (A) (A) (A) (A) (A) (A) (A)
                 (A) (A) (A) (A) (A) (A) (A) (A) (A) (A) (A) (A)
                 (A) (A) (A) (A) (A) (A) (A) (A) (A) (A) (A) (A)
                 (A) (A) (A) (A) (A) (A) (A) (A) (A) (A) (A) (A)
                 (A) (A) (A) (A) (A) (A) (A) (A) (A) (A) (A) (A)
                 (A) (A) (A) (A) (A) (A) (A) (A) (A) (A) (A) (A)
                 (A) (A) (A) (A) (A) (A) (A) (A) (A) (A) (A) (A)
                 (A) (A) (A) (A) (A) (A) (A) (A) (A) (A) (A) (A)
                 (A) (A) (A) (A) (A) (A) (A) (A) (A) (A) (A) (A)
                 (A) (A) (A) (A) (A) (A) (A) (A) (A) (A) (A) (A)
                 (A) (A) (A) (A) (A) (A) (A) (A) (A) (A)
 The electronic state is 1-A.
 Alpha  occ. eigenvalues --  -19.65289 -19.65181 -10.59485 -10.58482 -10.58354
 Alpha  occ. eigenvalues --   -1.17851  -1.16288  -0.85216  -0.79193  -0.67972
 Alpha  occ. eigenvalues --   -0.59967  -0.59368  -0.54239  -0.50328  -0.48351
 Alpha  occ. eigenvalues --   -0.46602  -0.45275  -0.40806  -0.39948  -0.27355
 Alpha virt. eigenvalues --    0.05533   0.07721   0.08551   0.09936   0.13211
 Alpha virt. eigenvalues --    0.14104   0.14606   0.16371   0.23190   0.26749
 Alpha virt. eigenvalues --    0.29420   0.30343   0.33864   0.34770   0.38131
 Alpha virt. eigenvalues --    0.39271   0.41522   0.42328   0.43124   0.44688
 Alpha virt. eigenvalues --    0.47069   0.48241   0.49357   0.51262   0.53008
 Alpha virt. eigenvalues --    0.53220   0.55446   0.57525   0.61514   0.63108
 Alpha virt. eigenvalues --    0.64552   0.68601   0.70644   0.71750   0.74342
 Alpha virt. eigenvalues --    0.74797   0.78743   0.80682   0.82931   0.87033
 Alpha virt. eigenvalues --    0.88954   0.92417   0.98094   0.98536   1.00924
 Alpha virt. eigenvalues --    1.01718   1.03728   1.03967   1.09595   1.11029
 Alpha virt. eigenvalues --    1.14538   1.17053   1.19608   1.21825   1.23703
 Alpha virt. eigenvalues --    1.24972   1.30349   1.31199   1.34944   1.36841
 Alpha virt. eigenvalues --    1.37663   1.40167   1.40974   1.47539   1.48368
 Alpha virt. eigenvalues --    1.49440   1.57698   1.58924   1.73745   1.75573
 Alpha virt. eigenvalues --    1.80223   1.87405   1.92402   1.93330   1.97282
 Alpha virt. eigenvalues --    2.04409   2.09044   2.14355   2.15395   2.21987
 Alpha virt. eigenvalues --    2.23018   2.30210   2.31508   2.32781   2.36784
 Alpha virt. eigenvalues --    2.43001   2.50832   2.52291   2.53598   2.56961
 Alpha virt. eigenvalues --    2.61178   2.63516   2.66933   2.73167   2.75370
 Alpha virt. eigenvalues --    2.76109   2.78733   2.81199   2.83808   2.84707
 Alpha virt. eigenvalues --    2.87427   2.89325   2.92997   2.95344   2.97197
 Alpha virt. eigenvalues --    2.99610   3.02588   3.04309   3.07758   3.09916
 Alpha virt. eigenvalues --    3.10667   3.14197   3.16759   3.19885   3.21088
 Alpha virt. eigenvalues --    3.22842   3.23924   3.27336   3.29601   3.31473
 Alpha virt. eigenvalues --    3.34461   3.35948   3.36483   3.37124   3.42133
 Alpha virt. eigenvalues --    3.43561   3.44815   3.50483   3.52375   3.56185
 Alpha virt. eigenvalues --    3.56691   3.60967   3.62652   3.69875   3.72234
 Alpha virt. eigenvalues --    3.73569   3.75047   3.78465   3.79428   3.80575
 Alpha virt. eigenvalues --    3.81859   3.84433   3.87215   3.89572   3.94174
 Alpha virt. eigenvalues --    3.95146   3.98284   4.00371   4.03459   4.04182
 Alpha virt. eigenvalues --    4.07818   4.11680   4.14712   4.23660   4.24061
 Alpha virt. eigenvalues --    4.25930   4.29814   4.38892   4.45793   4.46370
 Alpha virt. eigenvalues --    4.54420   4.57420   4.59458   4.64372   4.70331
 Alpha virt. eigenvalues --    4.73283   4.78917   4.83132   4.85375   4.89437
 Alpha virt. eigenvalues --    4.90631   4.93847   4.98419   5.01745   5.04045
 Alpha virt. eigenvalues --    5.05353   5.09459   5.20048   5.25536   5.28042
 Alpha virt. eigenvalues --    5.34407   5.42985   5.47989   5.52127   5.59590
 Alpha virt. eigenvalues --    5.70432   5.71688   5.77917   5.80184   5.87406
 Alpha virt. eigenvalues --    5.97066   6.03577   6.17763   6.27253   6.30565
 Alpha virt. eigenvalues --    6.39365   6.47902   6.58589   6.69407   6.70076
 Alpha virt. eigenvalues --    6.74698   6.78233   6.82146   6.88026   7.01198
 Alpha virt. eigenvalues --    7.11757   7.23993   7.28705   7.32352  10.44077
 Alpha virt. eigenvalues --   10.91991  11.66814  12.96180  13.95949
          Condensed to atoms (all electrons):
               1          2          3          4          5          6
     1  O    7.817002   0.003105   0.304578   0.361458  -0.070806  -0.030356
     2  O    0.003105   7.796577  -0.000090  -0.066468   0.342023  -0.000003
     3  C    0.304578  -0.000090   4.766735  -0.083617  -0.023254   0.394523
     4  C    0.361458  -0.066468  -0.083617   4.999267   0.512196   0.005405
     5  C   -0.070806   0.342023  -0.023254   0.512196   4.965746   0.001042
     6  H   -0.030356  -0.000003   0.394523   0.005405   0.001042   0.571913
     7  H   -0.047061  -0.000669   0.388123  -0.005060   0.006386  -0.026836
     8  H   -0.044945  -0.000164   0.392242  -0.000913   0.004707  -0.030870
     9  H   -0.033958  -0.002389   0.007430   0.424953  -0.073384  -0.000274
    10  H   -0.005390  -0.034062   0.004239  -0.080346   0.428894  -0.000164
    11  H    0.000177   0.324682   0.000115  -0.008417  -0.049495   0.000007
               7          8          9         10         11
     1  O   -0.047061  -0.044945  -0.033958  -0.005390   0.000177
     2  O   -0.000669  -0.000164  -0.002389  -0.034062   0.324682
     3  C    0.388123   0.392242   0.007430   0.004239   0.000115
     4  C   -0.005060  -0.000913   0.424953  -0.080346  -0.008417
     5  C    0.006386   0.004707  -0.073384   0.428894  -0.049495
     6  H   -0.026836  -0.030870  -0.000274  -0.000164   0.000007
     7  H    0.683028  -0.082928   0.000034   0.001178  -0.000141
     8  H   -0.082928   0.663112  -0.000228  -0.002324  -0.000018
     9  H    0.000034  -0.000228   0.531897   0.002738   0.003694
    10  H    0.001178  -0.002324   0.002738   0.514283   0.007008
    11  H   -0.000141  -0.000018   0.003694   0.007008   0.457819
 Mulliken charges:
               1
     1  O   -0.253804
     2  O   -0.362543
     3  C   -0.151025
     4  C   -0.058458
     5  C   -0.044055
     6  H    0.115613
     7  H    0.083944
     8  H    0.102327
     9  H    0.139486
    10  H    0.163947
    11  H    0.264568
 Sum of Mulliken charges =  -0.00000
 Mulliken charges with hydrogens summed into heavy atoms:
               1
     1  O   -0.253804
     2  O   -0.097976
     3  C    0.150859
     4  C    0.081029
     5  C    0.119892
 APT charges:
               1
     1  O   -0.142397
     2  O   -0.484743
     3  C   -0.883932
     4  C   -0.398872
     5  C   -0.329277
     6  H    0.516102
     7  H    0.222190
     8  H    0.254948
     9  H    0.392985
    10  H    0.308168
    11  H    0.544828
 Sum of APT charges =  -0.00000
 APT charges with hydrogens summed into heavy atoms:
               1
     1  O   -0.142397
     2  O    0.060084
     3  C    0.109308
     4  C   -0.005887
     5  C   -0.021109
 Electronic spatial extent (au):  <R**2>=            493.7367
 Charge=             -0.0000 electrons
 Dipole moment (field-independent basis, Debye):
    X=              0.2274    Y=              0.0766    Z=              0.3825  Tot=              0.4516
 Quadrupole moment (field-independent basis, Debye-Ang):
   XX=            -30.2294   YY=            -28.2343   ZZ=            -32.2204
   XY=             -7.1000   XZ=             -1.1346   YZ=              0.4475
 Traceless Quadrupole moment (field-independent basis, Debye-Ang):
   XX=             -0.0014   YY=              1.9938   ZZ=             -1.9924
   XY=             -7.1000   XZ=             -1.1346   YZ=              0.4475
 Octapole moment (field-independent basis, Debye-Ang**2):
  XXX=              2.4034  YYY=              3.1942  ZZZ=              0.1540  XYY=             -5.6029
  XXY=              7.8348  XXZ=              3.3254  XZZ=             -0.4841  YZZ=             -0.2118
  YYZ=              0.0482  XYZ=             -0.9833
 Hexadecapole moment (field-independent basis, Debye-Ang**3):
 XXXX=           -429.5873 YYYY=           -107.2429 ZZZZ=            -40.1093 XXXY=            -33.7447
 XXXZ=             -8.0673 YYYX=             -0.2250 YYYZ=              0.5854 ZZZX=             -0.9756
 ZZZY=              0.4336 XXYY=            -93.9356 XXZZ=            -85.5069 YYZZ=            -25.9784
 XXYZ=              2.9215 YYXZ=             -0.8246 ZZXY=              0.1691
 N-N= 1.751281164143D+02 E-N=-9.784888309013D+02  KE= 2.666712068194D+02
  Exact polarizability:   0.000   0.000   0.000   0.000   0.000   0.000
 Approx polarizability:  60.852   5.615  57.351  -0.315   0.553  39.175
 No NMR shielding tensors so no spin-rotation constants.
 Leave Link  601 at Tue Sep 24 18:23:26 2019, MaxMem=   671088640 cpu:              55.6 elap:              27.8
 (Enter /shared/centos7/gaussian/g16/l701.exe)
 SCFChk:  SCF convergence  3.18D-09 required  1.00D-08
 ... and contract with generalized density number  0.
 Compute integral second derivatives.
 Entering OneElI...
 Calculate overlap and kinetic energy integrals
    NBasis = 265  MinDer = 2  MaxDer = 2
 Requested accuracy = 0.1000D-12
 PrmmSu-InSpLW:  IPartL=    0 NPrtUS=   20 NPrtUL=    1 DoSpLW=F IThBeg=    0 IThEnd=   19 NThAct=   20.
 PrsmSu:  NPrtUS=  20 ThrOK=T IAlg=1 NPAlg=1 LenDen=           0 ISkipM=0 DoSpLW=F IThBeg=    0 IThEnd=   19.
 Prism:   IPart=     0 DynPar=F LinDyn=F Incr=           1.
 PRISM was handed    33439299 working-precision words and  3725 shell-pairs
 PRISM was handed    33439299 working-precision words and  3725 shell-pairs
 PRISM was handed    33439299 working-precision words and  3725 shell-pairs
 PRISM was handed    33439299 working-precision words and  3725 shell-pairs
 PRISM was handed    33439299 working-precision words and  3725 shell-pairs
 PRISM was handed    33439299 working-precision words and  3725 shell-pairs
 PRISM was handed    33439299 working-precision words and  3725 shell-pairs
 PRISM was handed    33439299 working-precision words and  3725 shell-pairs
 PRISM was handed    33439299 working-precision words and  3725 shell-pairs
 PRISM was handed    33439299 working-precision words and  3725 shell-pairs
 PRISM was handed    33439299 working-precision words and  3725 shell-pairs
 PRISM was handed    33439299 working-precision words and  3725 shell-pairs
 PRISM was handed    33439299 working-precision words and  3725 shell-pairs
 PRISM was handed    33439299 working-precision words and  3725 shell-pairs
 IPart=  0 NShTot=         224 NBatch=          64 AvBLen=         3.5
 IPart= 11 NShTot=         177 NBatch=          28 AvBLen=         6.3
 IPart= 14 NShTot=         173 NBatch=          27 AvBLen=         6.4
 PRISM was handed    33439299 working-precision words and  3725 shell-pairs
 IPart=  7 NShTot=         190 NBatch=          34 AvBLen=         5.6
 IPart=  5 NShTot=         195 NBatch=          39 AvBLen=         5.0
 PRISM was handed    33439299 working-precision words and  3725 shell-pairs
 IPart=  8 NShTot=         185 NBatch=          29 AvBLen=         6.4
 PRISM was handed    33439299 working-precision words and  3725 shell-pairs
 IPart=  3 NShTot=         212 NBatch=          53 AvBLen=         4.0
 IPart= 18 NShTot=         164 NBatch=          25 AvBLen=         6.6
 IPart=  4 NShTot=         204 NBatch=          46 AvBLen=         4.4
 PRISM was handed    33439299 working-precision words and  3725 shell-pairs
 IPart= 15 NShTot=         171 NBatch=          26 AvBLen=         6.6
 PRISM was handed    33439299 working-precision words and  3725 shell-pairs
 PRISM was handed    33439299 working-precision words and  3725 shell-pairs
 IPart= 16 NShTot=         164 NBatch=          25 AvBLen=         6.6
 IPart=  1 NShTot=         220 NBatch=          60 AvBLen=         3.7
 IPart= 12 NShTot=         176 NBatch=          28 AvBLen=         6.3
 IPart= 19 NShTot=         163 NBatch=          25 AvBLen=         6.5
 IPart= 10 NShTot=         179 NBatch=          28 AvBLen=         6.4
 IPart=  2 NShTot=         214 NBatch=          55 AvBLen=         3.9
 IPart= 17 NShTot=         164 NBatch=          25 AvBLen=         6.6
 IPart=  6 NShTot=         194 NBatch=          38 AvBLen=         5.1
 IPart=  9 NShTot=         182 NBatch=          28 AvBLen=         6.5
 IPart= 13 NShTot=         174 NBatch=          27 AvBLen=         6.4
 PrSmSu:  NxtVal=             21.
 Entering OneElI...
 Calculate potential energy integrals
    NBasis = 265  MinDer = 2  MaxDer = 2
 Requested accuracy = 0.1000D-12
 PrmmSu-InSpLW:  IPartL=    0 NPrtUS=   20 NPrtUL=    1 DoSpLW=F IThBeg=    0 IThEnd=   19 NThAct=   20.
 PrsmSu:  NPrtUS=  20 ThrOK=T IAlg=1 NPAlg=1 LenDen=           0 ISkipM=0 DoSpLW=F IThBeg=    0 IThEnd=   19.
 Prism:   IPart=     0 DynPar=F LinDyn=F Incr=          19.
 PRISM was handed    33455582 working-precision words and  3531 shell-pairs
 PRISM was handed    33455582 working-precision words and  3531 shell-pairs
 PRISM was handed    33455582 working-precision words and  3531 shell-pairs
 PRISM was handed    33455582 working-precision words and  3531 shell-pairs
 PRISM was handed    33455582 working-precision words and  3531 shell-pairs
 PRISM was handed    33455582 working-precision words and  3531 shell-pairs
 PRISM was handed    33455582 working-precision words and  3531 shell-pairs
 PRISM was handed    33455582 working-precision words and  3531 shell-pairs
 PRISM was handed    33455582 working-precision words and  3531 shell-pairs
 PRISM was handed    33455582 working-precision words and  3531 shell-pairs
 PRISM was handed    33455582 working-precision words and  3531 shell-pairs
 PRISM was handed    33455582 working-precision words and  3531 shell-pairs
 PRISM was handed    33455582 working-precision words and  3531 shell-pairs
 PRISM was handed    33455582 working-precision words and  3531 shell-pairs
 PRISM was handed    33455582 working-precision words and  3531 shell-pairs
 PRISM was handed    33455582 working-precision words and  3531 shell-pairs
 PRISM was handed    33455582 working-precision words and  3531 shell-pairs
 PRISM was handed    33455582 working-precision words and  3531 shell-pairs
 PRISM was handed    33455582 working-precision words and  3531 shell-pairs
 PRISM was handed    33455582 working-precision words and  3531 shell-pairs
 IPart= 18 NShTot=        1760 NBatch=         160 AvBLen=        11.0
 IPart=  0 NShTot=        2409 NBatch=         219 AvBLen=        11.0
 IPart=  2 NShTot=        2244 NBatch=         204 AvBLen=        11.0
 IPart=  1 NShTot=        2310 NBatch=         210 AvBLen=        11.0
 IPart= 16 NShTot=        1760 NBatch=         160 AvBLen=        11.0
 IPart=  3 NShTot=        2178 NBatch=         198 AvBLen=        11.0
 IPart=  5 NShTot=        1969 NBatch=         179 AvBLen=        11.0
 IPart= 15 NShTot=        1760 NBatch=         160 AvBLen=        11.0
 IPart= 17 NShTot=        1760 NBatch=         160 AvBLen=        11.0
 IPart= 19 NShTot=        1749 NBatch=         159 AvBLen=        11.0
 IPart=  4 NShTot=        2134 NBatch=         194 AvBLen=        11.0
 IPart=  8 NShTot=        1903 NBatch=         173 AvBLen=        11.0
 IPart=  7 NShTot=        1914 NBatch=         174 AvBLen=        11.0
 IPart=  6 NShTot=        1958 NBatch=         178 AvBLen=        11.0
 IPart= 12 NShTot=        1837 NBatch=         167 AvBLen=        11.0
 IPart= 10 NShTot=        1870 NBatch=         170 AvBLen=        11.0
 IPart= 13 NShTot=        1815 NBatch=         165 AvBLen=        11.0
 IPart=  9 NShTot=        1892 NBatch=         172 AvBLen=        11.0
 IPart= 14 NShTot=        1782 NBatch=         162 AvBLen=        11.0
 IPart= 11 NShTot=        1837 NBatch=         167 AvBLen=        11.0
 PrSmSu:  NxtVal=            381.
 Polarizability after L701:
                1             2             3 
      1  0.000000D+00
      2  0.000000D+00  0.000000D+00
      3  0.000000D+00  0.000000D+00  0.000000D+00
 Dipole Derivatives after L701:
                 1             2             3             4             5 
      1  -0.679661D-01  0.147264D+00  0.686562D-02 -0.335573D+00  0.137969D+01
      2   0.232519D+00 -0.105890D+00  0.133268D-02  0.299185D+00 -0.687851D+00
      3  -0.233971D-02 -0.448844D-02 -0.253335D+00  0.887424D-01 -0.132217D+00
                 6             7             8             9            10 
      1   0.335137D+00 -0.100285D+01  0.431784D+00 -0.456240D-01 -0.508407D+00
      2  -0.926719D-01  0.553898D-01 -0.841365D+00  0.123874D-01 -0.204232D-01
      3  -0.430805D+00 -0.457538D-02 -0.625976D-02 -0.807583D+00 -0.280537D-01
                11            12            13            14            15 
      1  -0.697786D-01 -0.392266D-01 -0.356965D+00 -0.286433D+00  0.255827D-01
      2  -0.724252D+00 -0.372284D-02 -0.643563D-01 -0.664177D+00 -0.179702D-01
      3  -0.902010D-02  0.360435D-01 -0.910895D-02  0.329357D-01  0.333126D-01
                16            17            18            19            20 
      1   0.132439D+01  0.122921D+00  0.768436D-01 -0.781312D-01 -0.278327D+00
      2  -0.198213D+00  0.124565D+00 -0.910181D-02  0.131119D+00  0.338871D+00
      3   0.346452D-01  0.699067D-02  0.993542D-01 -0.109188D+00 -0.162996D+00
                21            22            23            24            25 
      1   0.302125D+00 -0.327431D-01 -0.316616D+00 -0.336622D+00  0.212275D+00
      2  -0.251316D+00  0.999281D-01  0.364892D+00  0.252830D+00 -0.216318D+00
      3   0.405830D+00  0.776791D-01  0.166860D+00  0.432696D+00  0.287887D-02
                26            27            28            29            30 
      1  -0.184621D+00 -0.717443D-03  0.101693D+00  0.206616D+00  0.647223D-02
      2   0.889134D+00  0.141911D-02 -0.214411D+00  0.726921D+00  0.153531D-01
      3  -0.911223D-02  0.775464D-01 -0.115532D-01 -0.687986D-03  0.958895D-01
                31            32            33 
      1   0.744280D+00 -0.115250D+01 -0.330836D+00
      2  -0.104420D+00  0.579153D+00  0.914601D-01
      3  -0.391268D-01  0.117994D+00  0.311050D+00
 Hessian after L701:
                1             2             3             4             5 
      1  0.372860D+01
      2  0.246870D+01  0.870266D+01
      3 -0.184217D+00  0.453857D-01  0.151744D+02
      4  0.450223D+00  0.193955D+00  0.669472D-02  0.277771D+01
      5  0.230432D+00 -0.163835D+00 -0.220894D-02  0.109139D+01  0.905566D+01
      6  0.105318D-01  0.587751D-03 -0.204832D+00  0.595234D+00 -0.116185D+01
      7 -0.561540D+01 -0.309391D+01  0.527571D-01  0.204010D+00 -0.115796D-01
      8 -0.284653D+01 -0.470372D-01 -0.740974D-01 -0.712816D-02 -0.120590D+00
      9  0.491165D-01 -0.727824D-01 -0.760662D+01  0.473664D-02 -0.175381D-02
     10  0.110274D+01 -0.414140D+00  0.167499D+00  0.617331D-01  0.358861D+00
     11 -0.603862D+00 -0.820549D+01  0.194973D-02  0.241990D+00  0.963253D-02
     12  0.155904D+00  0.130466D-02 -0.836643D+01  0.784844D-02 -0.322776D-01
     13  0.111708D+00  0.378332D+00 -0.231202D-01  0.103357D+01 -0.172583D+00
     14  0.378394D+00  0.129325D+00  0.311698D-02 -0.281446D+00 -0.774997D+01
     15 -0.102432D-01  0.439200D-03  0.189328D+00 -0.302219D+00  0.866070D-01
     16  0.193927D+00  0.576111D-01  0.229746D-01  0.322455D-01  0.659893D-02
     17  0.120134D+00 -0.155072D+00 -0.349130D-02  0.709243D-03 -0.656692D-02
     18  0.203440D-01 -0.643660D-02  0.237449D-01  0.159201D-02  0.275782D-03
     19  0.101097D+00  0.144448D+00 -0.467128D-01  0.142341D-01 -0.411935D-02
     20  0.843432D-01 -0.230759D+00 -0.184974D+00 -0.223044D-01 -0.157883D-01
     21 -0.435365D-01 -0.139448D+00  0.383515D+00  0.293038D-01 -0.291342D-02
     22  0.798519D-01  0.141609D+00  0.195352D-01  0.222973D-01 -0.501727D-02
     23  0.840894D-01 -0.224716D+00  0.214007D+00 -0.239947D-01 -0.158774D-01
     24  0.217887D-01  0.168631D+00  0.393668D+00 -0.293960D-01  0.216847D-02
     25 -0.195399D+00  0.964492D-01 -0.646853D-02 -0.153779D-01  0.333888D-01
     26  0.464303D-01  0.137849D+00  0.373468D-02  0.748121D-01  0.793011D-01
     27 -0.733497D-02  0.357825D-02  0.631737D-01  0.463336D-02  0.411985D-02
     28 -0.105204D-01  0.258877D-01 -0.562129D-02 -0.191610D+00  0.964306D-01
     29  0.820526D-01  0.768296D-01 -0.643239D-02  0.567338D-01  0.119470D+00
     30  0.200927D-02 -0.607105D-03 -0.334823D-01  0.403459D-01 -0.229687D-01
     31  0.531690D-01  0.106629D-02 -0.332104D-02 -0.438903D+01 -0.162380D+01
     32 -0.441745D-01 -0.197547D-01  0.301011D-02 -0.132471D+01 -0.119143D+01
     33 -0.143620D-01 -0.651541D-03 -0.164901D-01 -0.358774D+00  0.113080D+01
                6             7             8             9            10 
      6  0.128659D+02
      7  0.743854D-02  0.127958D+02
      8 -0.829171D-03  0.246750D+01  0.901466D+01
      9 -0.124671D+00 -0.170007D-01  0.706865D-01  0.151261D+02
     10  0.292689D-02  0.254153D+00 -0.238863D+00  0.915542D-02  0.694831D+01
     11 -0.303557D-01 -0.129172D+00  0.772874D-02 -0.112613D-01 -0.279536D+01
     12  0.143735D+00  0.542462D-02 -0.157771D-01  0.596551D-01 -0.216516D+00
     13 -0.238380D+00  0.207911D+00  0.162418D-01  0.694156D-02 -0.501687D+01
     14  0.100503D+00 -0.823023D-01 -0.197711D+00  0.125525D-02  0.411992D+01
     15 -0.778240D+01  0.171915D-01 -0.297886D-02 -0.134807D+00  0.627663D-01
     16  0.240180D-02 -0.111287D+01  0.102812D+00  0.137753D+00  0.154694D+00
     17  0.929442D-04  0.151398D-01 -0.325804D+01  0.911658D-03 -0.571071D-01
     18 -0.772817D-02  0.128278D+00  0.604812D-02 -0.326299D+01  0.657211D-02
     19  0.184132D-01 -0.329542D+01  0.342086D+00 -0.466130D+00 -0.279589D-01
     20 -0.940592D-02  0.499066D+00 -0.265722D+01 -0.119141D+01 -0.250774D-01
     21 -0.383276D-02 -0.631567D+00 -0.108711D+01 -0.187572D+01 -0.257724D-02
     22 -0.179793D-01 -0.354669D+01  0.223739D+00  0.284129D+00 -0.120120D-01
     23  0.691417D-02  0.366560D+00 -0.279989D+01  0.120507D+01 -0.500472D-01
     24 -0.623636D-02  0.443863D+00  0.110298D+01 -0.205025D+01 -0.120842D-01
     25  0.641393D-02  0.468645D-01 -0.106417D+00  0.452435D-03 -0.366735D+01
     26  0.100718D-01 -0.121514D+00  0.831573D-01 -0.334330D-03 -0.760550D+00
     27 -0.484280D-01  0.415664D-03 -0.506428D-03 -0.463987D-01 -0.955038D-02
     28  0.527246D-01  0.407803D-01  0.500780D-01 -0.745290D-02  0.263948D+00
     29 -0.344395D-01  0.113340D+00 -0.183173D-01 -0.254305D-02 -0.128938D+00
     30  0.560495D-01 -0.738280D-03  0.741676D-03 -0.770638D-01  0.957677D-02
     31 -0.439725D+00  0.209032D-01 -0.351502D-02 -0.170070D-02 -0.613818D-01
     32  0.111871D+01 -0.231245D-01 -0.674089D-02  0.215973D-02 -0.870451D-02
     33 -0.488752D+01 -0.606196D-02  0.848791D-03 -0.724273D-02 -0.177694D-01
               11            12            13            14            15 
     11  0.137477D+02
     12 -0.903723D-01  0.243294D+02
     13  0.427258D+01  0.595511D-01  0.685321D+01
     14 -0.362599D+01  0.638970D-01 -0.311304D+01  0.135674D+02
     15  0.749988D-01 -0.123693D+02  0.198058D+00 -0.207399D+00  0.241805D+02
     16 -0.578667D-01  0.310548D-02  0.684082D-01  0.266269D-02  0.214032D-02
     17 -0.257723D-01 -0.539367D-03  0.239145D-02 -0.205532D-01  0.186556D-03
     18 -0.140448D-02 -0.384405D-01  0.253669D-02  0.176338D-03 -0.164227D-01
     19 -0.696209D-02 -0.296357D-01  0.105902D+00 -0.106565D+00 -0.442653D-01
     20  0.221488D-01  0.192982D-01 -0.133448D+00 -0.231059D-02  0.852487D-03
     21 -0.573052D-02 -0.333126D-01  0.184241D-01 -0.281436D-01 -0.101645D+00
     22 -0.296018D-01  0.158457D-01  0.949848D-01 -0.780375D-01  0.471792D-01
     23  0.262196D-01 -0.691531D-02 -0.104811D+00 -0.103349D-01 -0.943898D-02
     24  0.155879D-01 -0.328136D-01 -0.860474D-02  0.152626D-01 -0.846713D-01
     25 -0.779413D+00 -0.921577D-02  0.224036D+00 -0.123369D+00  0.176388D-03
     26 -0.155505D+01  0.346372D-02 -0.136323D+00 -0.338396D+00  0.564068D-02
     27  0.404608D-02 -0.393415D+01  0.212918D-02  0.495754D-02  0.206455D+00
     28 -0.178404D+00  0.915387D-02 -0.383358D+01 -0.819244D+00 -0.169112D-01
     29 -0.396504D+00  0.587502D-01 -0.972918D+00 -0.179201D+01  0.691360D-01
     30  0.492749D-01  0.239688D+00 -0.230607D-01  0.665083D-01 -0.415833D+01
     31  0.660689D-01 -0.146565D-02  0.150728D+00  0.103019D+00  0.461267D-01
     32 -0.457621D-02 -0.831984D-03 -0.364275D-01  0.405126D-01 -0.180437D-01
     33 -0.673297D-02  0.203803D-02  0.552532D-02 -0.201344D-01  0.713123D-01
               16            17            18            19            20 
     16  0.797369D+00
     17  0.640626D-01  0.337045D+01
     18 -0.133032D+00  0.182379D-01  0.327332D+01
     19 -0.744108D-01 -0.691939D-01  0.105705D+00  0.289458D+01
     20 -0.794260D-01  0.417511D-01  0.434473D-01 -0.311852D+00  0.255108D+01
     21  0.976464D-01  0.326351D-01  0.255027D-01  0.439520D+00  0.127237D+01
     22 -0.665859D-01 -0.775504D-01 -0.132425D+00  0.276375D+00  0.386139D-03
     23 -0.916949D-01  0.536711D-01 -0.600330D-01  0.647869D-02  0.295096D+00
     24 -0.131841D+00 -0.481582D-01  0.726682D-02  0.169210D-01  0.542240D-01
     25  0.257439D-02  0.207337D-02  0.245721D-03 -0.740723D-03 -0.614912D-02
     26 -0.927942D-02 -0.152211D-03 -0.509391D-03 -0.326376D-02  0.108670D-01
     27 -0.420149D-04  0.397567D-04 -0.841684D-03  0.127715D-02 -0.234515D-02
     28 -0.659965D-03 -0.108237D-03  0.666961D-04  0.649204D-02 -0.253352D-02
     29  0.119495D-01  0.633250D-03  0.442123D-03  0.104496D-01 -0.191202D-01
     30  0.977160D-03  0.706969D-04 -0.280112D-02  0.486687D-02 -0.304505D-02
     31  0.530888D-02 -0.550439D-03  0.116832D-03 -0.146129D-03 -0.300469D-02
     32 -0.742994D-02 -0.350447D-03 -0.244112D-03 -0.150492D-02  0.425078D-02
     33 -0.208388D-02  0.142279D-04 -0.608066D-03  0.407941D-04  0.985858D-03
               21            22            23            24            25 
     21  0.212217D+01
     22  0.764154D-01  0.316031D+01
     23 -0.394045D-01 -0.176859D+00  0.267021D+01
     24 -0.504727D+00 -0.297518D+00 -0.131508D+01  0.228226D+01
     25  0.350295D-02 -0.824549D-03 -0.449797D-02 -0.295782D-02  0.359766D+01
     26 -0.786070D-02 -0.215166D-02  0.880403D-02  0.676126D-02  0.881521D+00
     27 -0.159351D-02 -0.899895D-03  0.157626D-02 -0.116605D-02  0.140126D-01
     28  0.991909D-02 -0.904396D-02 -0.157566D-02  0.316745D-02 -0.134604D-01
     29  0.101755D-01  0.564656D-02 -0.747812D-02 -0.718481D-02 -0.671136D-02
     30 -0.878496D-02  0.688683D-02  0.154268D-02 -0.398245D-02 -0.439419D-03
     31  0.294946D-02  0.133780D-02 -0.364829D-02 -0.333831D-02  0.220256D-01
     32 -0.456603D-02 -0.216377D-02  0.429111D-02  0.481574D-02  0.131248D-01
     33 -0.157309D-02 -0.116889D-02  0.176721D-02  0.651196D-03 -0.572250D-02
               26            27            28            29            30 
     26  0.153462D+01
     27 -0.133474D-01  0.378247D+01
     28 -0.797526D-02 -0.111427D-03  0.371326D+01
     29  0.577297D-01 -0.252779D-03  0.903294D+00  0.192291D+01
     30  0.136658D-02 -0.331034D-02 -0.325908D-01 -0.101619D+00  0.401261D+01
     31  0.382934D-01 -0.452928D-02  0.344011D-01 -0.748983D-01 -0.783355D-02
     32 -0.187310D-01 -0.186598D-02 -0.658503D-01  0.558576D-01  0.873487D-02
     33 -0.898688D-02 -0.162104D-01 -0.123440D-01  0.139674D-01 -0.205874D-01
               31            32            33 
     31  0.416269D+01
     32  0.150097D+01  0.113667D+01
     33  0.412720D+00 -0.111188D+01  0.487623D+01
 Leave Link  701 at Tue Sep 24 18:23:47 2019, MaxMem=   671088640 cpu:              41.1 elap:              20.6
 (Enter /shared/centos7/gaussian/g16/l702.exe)
 L702 exits ... SP integral derivatives will be done elsewhere.
 Leave Link  702 at Tue Sep 24 18:23:48 2019, MaxMem=   671088640 cpu:               2.0 elap:               1.0
 (Enter /shared/centos7/gaussian/g16/l703.exe)
 Integral derivatives from FoFJK, PRISM(SPDF).
 Compute integral second derivatives, UseDBF=F ICtDFT=           0.
 ICntrl=    100147.
 Calling FoFJK, ICntrl=    100147 FMM=F ISym2X=0 I1Cent= 0 IOpClX= 0 NMat=1 NMatS=1 NMatT=0.
 FoFJK:  IHMeth= 1 ICntrl=  100147 DoSepK=F KAlg= 0 I1Cent=           0 FoldK=F
 IRaf=         0 NMat=       1 IRICut=       1 DoRegI=T DoRafI=F ISym2E= 0 IDoP0=0 IntGTp=1.
 FoFCou: FMM=F IPFlag=           0 FMFlag=      100000 FMFlg1=         800
         NFxFlg=           0 DoJE=F BraDBF=F KetDBF=F FulRan=T
         wScrn=  0.000000 ICntrl=    100147 IOpCl=  0 I1Cent=           0 NGrid=           0
         NMat0=    1 NMatS0=      1 NMatT0=    0 NMatD0=    1 NMtDS0=    0 NMtDT0=    0
 Symmetry not used in FoFCou.
 FoFCou:  KetSym=F NOpSet=  1 NOpAb=1 NOp=  1.
 FoFCou:  CnvScl= 1.00D+00 Thresh= 1.00D-08 IAcrcy=      12.
 PrismS was handed   670741756 working-precision words and  3623 shell-pairs
 FoFCou: LinMIO=F DoNuc=F BraDBF=F KetDBF=F HaveP=T PDBF=F HaveZ=T HaveW=F
         NIJTC =      10 NIJTAt=       0 NIJTCD=       0 NIJTT =      10
         IJTBeg=       1 IJTEnd=      10 KLTBeg=       1 KLTEnd=      10
         IPTBeg=       1 IPTEnd=      10 IPTBCv=       1 IPTECv=      10
         IZTBeg=       1 IZTEnd=      10 IZTBCv=       1 IZTECv=      10
         IWTBeg=      11 IWTEnd=      10 IWTBCv=      11 IWTECv=      10
         INTBeg=       1 INTEnd=       0 IFTBCv=       1 IFTECv=      10
 NCel replicated for PrismC:     1
 CoulSu-InSpLW:  IPartL=    0 NPrtUS=   20 NPrtUL=    1 DoSpLW=F IThBeg=    0 IThEnd=   19 NThAct=   20.
 CoulSu:  IncDef=  1024 NBBP=        6564876 NTPThr=   100 NPartT=   20 Incr=        1024 LDynOK=F GPUOK=T.
 CoulSu:  NPrtUS=  20 ThrOK=T IAlg=1 NPAlg=1 LenDen=           0 LWGrdD=           0 DoCopy=F ISkipM=0
          DoSpLW=F IThBeg=    0 IThEnd=   19.
 Enter PrismC:  IPart=  0 JobTyp=22 DoJE=F Cont=F.
 PrismC:  IPart=     0 DynPar=T LinDyn=F Incr=        1024 UseFst=F UseS4=T ISplat=2.
 PrismC was handed    33456719 working-precision words and  3623 shell-pairs
 Enter PrismC:  IPart= 16 JobTyp=22 DoJE=F Cont=F.
 PrismC:  IPart=    16 DynPar=T LinDyn=F Incr=        1024 UseFst=F UseS4=T ISplat=2.
 PrismC was handed    33456719 working-precision words and  3623 shell-pairs
 Enter PrismC:  IPart= 13 JobTyp=22 DoJE=F Cont=F.
 PrismC:  IPart=    13 DynPar=T LinDyn=F Incr=        1024 UseFst=F UseS4=T ISplat=2.
 PrismC was handed    33456719 working-precision words and  3623 shell-pairs
 Enter PrismC:  IPart=  4 JobTyp=22 DoJE=F Cont=F.
 PrismC:  IPart=     4 DynPar=T LinDyn=F Incr=        1024 UseFst=F UseS4=T ISplat=2.
 PrismC was handed    33456719 working-precision words and  3623 shell-pairs
 Enter PrismC:  IPart= 10 JobTyp=22 DoJE=F Cont=F.
 PrismC:  IPart=    10 DynPar=T LinDyn=F Incr=        1024 UseFst=F UseS4=T ISplat=2.
 PrismC was handed    33456719 working-precision words and  3623 shell-pairs
 Enter PrismC:  IPart=  8 JobTyp=22 DoJE=F Cont=F.
 PrismC:  IPart=     8 DynPar=T LinDyn=F Incr=        1024 UseFst=F UseS4=T ISplat=2.
 PrismC was handed    33456719 working-precision words and  3623 shell-pairs
 Enter PrismC:  IPart=  6 JobTyp=22 DoJE=F Cont=F.
 PrismC:  IPart=     6 DynPar=T LinDyn=F Incr=        1024 UseFst=F UseS4=T ISplat=2.
 PrismC was handed    33456719 working-precision words and  3623 shell-pairs
 Enter PrismC:  IPart=  7 JobTyp=22 DoJE=F Cont=F.
 PrismC:  IPart=     7 DynPar=T LinDyn=F Incr=        1024 UseFst=F UseS4=T ISplat=2.
 PrismC was handed    33456719 working-precision words and  3623 shell-pairs
 Enter PrismC:  IPart= 17 JobTyp=22 DoJE=F Cont=F.
 PrismC:  IPart=    17 DynPar=T LinDyn=F Incr=        1024 UseFst=F UseS4=T ISplat=2.
 PrismC was handed    33456719 working-precision words and  3623 shell-pairs
 Enter PrismC:  IPart= 14 JobTyp=22 DoJE=F Cont=F.
 PrismC:  IPart=    14 DynPar=T LinDyn=F Incr=        1024 UseFst=F UseS4=T ISplat=2.
 PrismC was handed    33456719 working-precision words and  3623 shell-pairs
 Enter PrismC:  IPart= 12 JobTyp=22 DoJE=F Cont=F.
 PrismC:  IPart=    12 DynPar=T LinDyn=F Incr=        1024 UseFst=F UseS4=T ISplat=2.
 PrismC was handed    33456719 working-precision words and  3623 shell-pairs
 Enter PrismC:  IPart=  3 JobTyp=22 DoJE=F Cont=F.
 PrismC:  IPart=     3 DynPar=T LinDyn=F Incr=        1024 UseFst=F UseS4=T ISplat=2.
 PrismC was handed    33456719 working-precision words and  3623 shell-pairs
 Enter PrismC:  IPart= 11 JobTyp=22 DoJE=F Cont=F.
 PrismC:  IPart=    11 DynPar=T LinDyn=F Incr=        1024 UseFst=F UseS4=T ISplat=2.
 PrismC was handed    33456719 working-precision words and  3623 shell-pairs
 Enter PrismC:  IPart=  9 JobTyp=22 DoJE=F Cont=F.
 PrismC:  IPart=     9 DynPar=T LinDyn=F Incr=        1024 UseFst=F UseS4=T ISplat=2.
 PrismC was handed    33456719 working-precision words and  3623 shell-pairs
 Enter PrismC:  IPart=  2 JobTyp=22 DoJE=F Cont=F.
 PrismC:  IPart=     2 DynPar=T LinDyn=F Incr=        1024 UseFst=F UseS4=T ISplat=2.
 PrismC was handed    33456719 working-precision words and  3623 shell-pairs
 Enter PrismC:  IPart=  5 JobTyp=22 DoJE=F Cont=F.
 PrismC:  IPart=     5 DynPar=T LinDyn=F Incr=        1024 UseFst=F UseS4=T ISplat=2.
 PrismC was handed    33456719 working-precision words and  3623 shell-pairs
 Enter PrismC:  IPart= 15 JobTyp=22 DoJE=F Cont=F.
 PrismC:  IPart=    15 DynPar=T LinDyn=F Incr=        1024 UseFst=F UseS4=T ISplat=2.
 PrismC was handed    33456719 working-precision words and  3623 shell-pairs
 Enter PrismC:  IPart= 18 JobTyp=22 DoJE=F Cont=F.
 Enter PrismC:  IPart= 19 JobTyp=22 DoJE=F Cont=F.
 PrismC:  IPart=    18 DynPar=T LinDyn=F Incr=        1024 UseFst=F UseS4=T ISplat=2.
 PrismC:  IPart=    19 DynPar=T LinDyn=F Incr=        1024 UseFst=F UseS4=T ISplat=2.
 PrismC was handed    33456719 working-precision words and  3623 shell-pairs
 PrismC was handed    33456719 working-precision words and  3623 shell-pairs
 Enter PrismC:  IPart=  1 JobTyp=22 DoJE=F Cont=F.
 PrismC:  IPart=     1 DynPar=T LinDyn=F Incr=        1024 UseFst=F UseS4=T ISplat=2.
 PrismC was handed    33456719 working-precision words and  3623 shell-pairs
 IPart= 18 NShTot=      232422 NShNF=      232422 NShFF=           0 MinMC=       7
           NShCPU=      232422 NBCPU=        9856 AvBCPU=        23.6
           NShGPU=           0 NBGPU=           0 AvBGPU=         0.0
 IPart=  6 NShTot=      228631 NShNF=      228631 NShFF=           0 MinMC=       7
           NShCPU=      228631 NBCPU=        9963 AvBCPU=        22.9
           NShGPU=           0 NBGPU=           0 AvBGPU=         0.0
 IPart= 14 NShTot=      213033 NShNF=      213033 NShFF=           0 MinMC=       7
           NShCPU=      213033 NBCPU=        9525 AvBCPU=        22.4
           NShGPU=           0 NBGPU=           0 AvBGPU=         0.0
 IPart= 13 NShTot=      215553 NShNF=      215553 NShFF=           0 MinMC=       7
           NShCPU=      215553 NBCPU=        9191 AvBCPU=        23.5
           NShGPU=           0 NBGPU=           0 AvBGPU=         0.0
 IPart=  2 NShTot=      217130 NShNF=      217130 NShFF=           0 MinMC=       7
           NShCPU=      217130 NBCPU=        8866 AvBCPU=        24.5
           NShGPU=           0 NBGPU=           0 AvBGPU=         0.0
 IPart= 11 NShTot=      217633 NShNF=      217633 NShFF=           0 MinMC=       7
           NShCPU=      217633 NBCPU=        9552 AvBCPU=        22.8
           NShGPU=           0 NBGPU=           0 AvBGPU=         0.0
 IPart= 19 NShTot=      223746 NShNF=      223746 NShFF=           0 MinMC=       7
           NShCPU=      223746 NBCPU=        9391 AvBCPU=        23.8
           NShGPU=           0 NBGPU=           0 AvBGPU=         0.0
 IPart=  9 NShTot=      234164 NShNF=      234164 NShFF=           0 MinMC=       7
           NShCPU=      234164 NBCPU=        9819 AvBCPU=        23.8
           NShGPU=           0 NBGPU=           0 AvBGPU=         0.0
 IPart= 10 NShTot=      219541 NShNF=      219541 NShFF=           0 MinMC=       7
           NShCPU=      219541 NBCPU=        9183 AvBCPU=        23.9
           NShGPU=           0 NBGPU=           0 AvBGPU=         0.0
 IPart=  0 NShTot=      237521 NShNF=      237521 NShFF=           0 MinMC=       7
           NShCPU=      237521 NBCPU=        9527 AvBCPU=        24.9
           NShGPU=           0 NBGPU=           0 AvBGPU=         0.0
 IPart=  7 NShTot=      231039 NShNF=      231039 NShFF=           0 MinMC=       7
           NShCPU=      231039 NBCPU=        9750 AvBCPU=        23.7
           NShGPU=           0 NBGPU=           0 AvBGPU=         0.0
 IPart= 17 NShTot=      217137 NShNF=      217137 NShFF=           0 MinMC=       7
           NShCPU=      217137 NBCPU=        9206 AvBCPU=        23.6
           NShGPU=           0 NBGPU=           0 AvBGPU=         0.0
 IPart=  8 NShTot=      215683 NShNF=      215683 NShFF=           0 MinMC=       7
           NShCPU=      215683 NBCPU=        9150 AvBCPU=        23.6
           NShGPU=           0 NBGPU=           0 AvBGPU=         0.0
 IPart=  5 NShTot=      242870 NShNF=      242870 NShFF=           0 MinMC=       7
           NShCPU=      242870 NBCPU=        9472 AvBCPU=        25.6
           NShGPU=           0 NBGPU=           0 AvBGPU=         0.0
 IPart= 16 NShTot=      237904 NShNF=      237904 NShFF=           0 MinMC=       7
           NShCPU=      237904 NBCPU=        9443 AvBCPU=        25.2
           NShGPU=           0 NBGPU=           0 AvBGPU=         0.0
 IPart=  3 NShTot=      236722 NShNF=      236722 NShFF=           0 MinMC=       7
           NShCPU=      236722 NBCPU=       10259 AvBCPU=        23.1
           NShGPU=           0 NBGPU=           0 AvBGPU=         0.0
 IPart=  1 NShTot=      232938 NShNF=      232938 NShFF=           0 MinMC=       7
           NShCPU=      232938 NBCPU=        9930 AvBCPU=        23.5
           NShGPU=           0 NBGPU=           0 AvBGPU=         0.0
 IPart=  4 NShTot=      235773 NShNF=      235773 NShFF=           0 MinMC=       7
           NShCPU=      235773 NBCPU=        9911 AvBCPU=        23.8
           NShGPU=           0 NBGPU=           0 AvBGPU=         0.0
 IPart= 12 NShTot=      221661 NShNF=      221661 NShFF=           0 MinMC=       7
           NShCPU=      221661 NBCPU=        9097 AvBCPU=        24.4
           NShGPU=           0 NBGPU=           0 AvBGPU=         0.0
 IPart= 15 NShTot=      235975 NShNF=      235975 NShFF=           0 MinMC=       7
           NShCPU=      235975 NBCPU=        9654 AvBCPU=        24.4
           NShGPU=           0 NBGPU=           0 AvBGPU=         0.0
 CoulSu:  NxtVal=        7001089 LenVP=       33456720 MinMC=       7.
 ReadGW:  IGet=0 IStart=           1 Next=           1 LGW=           0.
 Remaining memory in FofDFT      639.93 Mw
 CkSvGd:  ISavGI=        -1 IRadAn=       5 IRASav=       5 ISavGd=        -1.
 CalDSu-InSpLW:  IPartL=    0 NPrtUS=   20 NPrtUL=    1 DoSpLW=F IThBeg=    0 IThEnd=   19 NThAct=   20.
 CalDSu:  NPrtUS=  20 ThrOK=T IAlg=1 NPAlg=2 DoDPD=T LenP=       35245 LenD1P=             0 GPUOK=F
          ISkipM=0 DoSpLW=F IThBeg=    0 IThEnd=   19.
 IPart=  0 IRanGd=          0 ScrnBf=T ScrnGd=T RCrit=4.00D+00 DoMicB=T.
 IPart= 12        10022 of        11006 points in      12 batches and       64 microbatches, Max-NSigAt=      11 Max-NSgAt2=      11
 IPart=  1         9819 of        10416 points in      11 batches and       55 microbatches, Max-NSigAt=      11 Max-NSgAt2=      11
 IPart=  9        10537 of        11618 points in      13 batches and       63 microbatches, Max-NSigAt=      11 Max-NSgAt2=      11
 IPart= 10         9784 of        10688 points in      11 batches and       68 microbatches, Max-NSigAt=      11 Max-NSgAt2=      11
 IPart= 19        12438 of        14072 points in      15 batches and       88 microbatches, Max-NSigAt=      11 Max-NSgAt2=      11
 IPart= 11        12611 of        15002 points in      17 batches and       84 microbatches, Max-NSigAt=      11 Max-NSgAt2=      11
 IPart= 15        10988 of        12336 points in      13 batches and       80 microbatches, Max-NSigAt=      11 Max-NSgAt2=      11
 IPart=  3        11942 of        13046 points in      13 batches and       57 microbatches, Max-NSigAt=      11 Max-NSgAt2=      11
 IPart=  0        11350 of        12132 points in      12 batches and       72 microbatches, Max-NSigAt=      11 Max-NSgAt2=      11
 IPart= 13        10310 of        11008 points in      11 batches and       70 microbatches, Max-NSigAt=      11 Max-NSgAt2=      11
 IPart=  6        10619 of        11304 points in      11 batches and       66 microbatches, Max-NSigAt=      11 Max-NSgAt2=      11
 IPart=  7        11641 of        13486 points in      15 batches and       67 microbatches, Max-NSigAt=      11 Max-NSgAt2=      11
 IPart=  2        10838 of        11676 points in      11 batches and       67 microbatches, Max-NSigAt=      11 Max-NSgAt2=      11
 IPart= 17        10674 of        11188 points in      11 batches and       55 microbatches, Max-NSigAt=      11 Max-NSgAt2=      11
 IPart=  5        11865 of        12946 points in      13 batches and       47 microbatches, Max-NSigAt=      11 Max-NSgAt2=      11
 IPart= 18        11043 of        11444 points in      11 batches and       52 microbatches, Max-NSigAt=      11 Max-NSgAt2=      11
 IPart=  8        11641 of        13144 points in      14 batches and       72 microbatches, Max-NSigAt=      11 Max-NSgAt2=      11
 IPart= 16        11029 of        11554 points in      11 batches and       55 microbatches, Max-NSigAt=      11 Max-NSgAt2=      11
 IPart= 14        14491 of        16902 points in      19 batches and       80 microbatches, Max-NSigAt=      11 Max-NSgAt2=      11
 IPart=  4        10685 of        11432 points in      11 batches and       64 microbatches, Max-NSigAt=      11 Max-NSgAt2=      11
 Polarizability after L703:
                1             2             3 
      1  0.000000D+00
      2  0.000000D+00  0.000000D+00
      3  0.000000D+00  0.000000D+00  0.000000D+00
 Dipole Derivatives after L703:
                 1             2             3             4             5 
      1  -0.679661D-01  0.147264D+00  0.686562D-02 -0.335573D+00  0.137969D+01
      2   0.232519D+00 -0.105890D+00  0.133268D-02  0.299185D+00 -0.687851D+00
      3  -0.233971D-02 -0.448844D-02 -0.253335D+00  0.887424D-01 -0.132217D+00
                 6             7             8             9            10 
      1   0.335137D+00 -0.100285D+01  0.431784D+00 -0.456240D-01 -0.508407D+00
      2  -0.926719D-01  0.553898D-01 -0.841365D+00  0.123874D-01 -0.204232D-01
      3  -0.430805D+00 -0.457538D-02 -0.625976D-02 -0.807583D+00 -0.280537D-01
                11            12            13            14            15 
      1  -0.697786D-01 -0.392266D-01 -0.356965D+00 -0.286433D+00  0.255827D-01
      2  -0.724252D+00 -0.372284D-02 -0.643563D-01 -0.664177D+00 -0.179702D-01
      3  -0.902010D-02  0.360435D-01 -0.910895D-02  0.329357D-01  0.333126D-01
                16            17            18            19            20 
      1   0.132439D+01  0.122921D+00  0.768436D-01 -0.781312D-01 -0.278327D+00
      2  -0.198213D+00  0.124565D+00 -0.910181D-02  0.131119D+00  0.338871D+00
      3   0.346452D-01  0.699067D-02  0.993542D-01 -0.109188D+00 -0.162996D+00
                21            22            23            24            25 
      1   0.302125D+00 -0.327431D-01 -0.316616D+00 -0.336622D+00  0.212275D+00
      2  -0.251316D+00  0.999281D-01  0.364892D+00  0.252830D+00 -0.216318D+00
      3   0.405830D+00  0.776791D-01  0.166860D+00  0.432696D+00  0.287887D-02
                26            27            28            29            30 
      1  -0.184621D+00 -0.717443D-03  0.101693D+00  0.206616D+00  0.647223D-02
      2   0.889134D+00  0.141911D-02 -0.214411D+00  0.726921D+00  0.153531D-01
      3  -0.911223D-02  0.775464D-01 -0.115532D-01 -0.687986D-03  0.958895D-01
                31            32            33 
      1   0.744280D+00 -0.115250D+01 -0.330836D+00
      2  -0.104420D+00  0.579153D+00  0.914601D-01
      3  -0.391268D-01  0.117994D+00  0.311050D+00
 Hessian after L703:
                1             2             3             4             5 
      1  0.445270D+00
      2 -0.642494D-01  0.371993D+00
      3  0.481264D-02 -0.254815D-02  0.866894D-01
      4 -0.223569D-01  0.166874D-02 -0.772747D-03  0.454670D+00
      5 -0.775670D-03 -0.297576D-02 -0.591785D-03 -0.612873D-01  0.405146D+00
      6 -0.157819D-02  0.503840D-03  0.122697D-01 -0.263203D-01  0.896808D-01
      7 -0.979379D-01  0.134130D-01 -0.104382D-02  0.294910D-02  0.140599D-02
      8  0.536062D-01 -0.202671D+00  0.109696D-02 -0.966302D-02 -0.210177D-02
      9 -0.727848D-03 -0.111234D-02 -0.674330D-01  0.678971D-03  0.125418D-03
     10 -0.265464D+00  0.161950D-01 -0.377658D-02 -0.326700D-01 -0.356403D-01
     11 -0.274328D-01 -0.104856D+00 -0.136381D-02  0.960076D-03  0.105703D-01
     12 -0.273541D-02  0.152137D-03 -0.434865D-01  0.101583D-02  0.788861D-03
     13 -0.275456D-01 -0.309582D-01  0.107304D-02 -0.309210D+00  0.229978D-01
     14 -0.737127D-02  0.964161D-02  0.126518D-02 -0.210935D-01 -0.102827D+00
     15 -0.181384D-03 -0.245398D-03  0.324003D-02 -0.214612D-02 -0.878946D-02
     16 -0.152838D-01  0.554465D-02 -0.282758D-03 -0.709862D-03  0.118103D-03
     17  0.415329D-01 -0.438834D-02  0.180139D-02  0.588451D-03  0.791750D-03
     18 -0.626458D-03  0.305556D-03 -0.196151D-03  0.285346D-04  0.144172D-04
     19  0.245808D-02  0.907524D-02 -0.114578D-01  0.673622D-03  0.423548D-03
     20 -0.171884D-03 -0.342960D-01  0.263704D-01  0.105447D-02  0.149136D-03
     21 -0.415630D-02  0.570100D-02  0.537414D-02 -0.757880D-03 -0.708579D-03
     22  0.153054D-02  0.105704D-01  0.123996D-01  0.379587D-03  0.196036D-03
     23  0.166035D-02 -0.335718D-01 -0.267311D-01  0.112592D-02  0.845908D-04
     24  0.371555D-02 -0.270590D-02  0.783997D-02  0.559009D-03  0.693293D-03
     25 -0.217422D-01  0.364141D-01 -0.185342D-03  0.360309D-02 -0.634128D-03
     26  0.379578D-02  0.115438D-02  0.515174D-04  0.534723D-03  0.259723D-02
     27 -0.166963D-03  0.306450D-03  0.882220D-03 -0.101479D-02  0.835170D-03
     28 -0.262857D-03  0.323306D-02 -0.972260D-04 -0.204402D-01  0.336973D-01
     29  0.171442D-02  0.684975D-03  0.141644D-03  0.288012D-02  0.364142D-02
     30  0.739945D-03 -0.196626D-03 -0.426879D-02  0.194943D-02 -0.124383D-02
     31  0.133530D-02 -0.906548D-03 -0.668961D-03 -0.768885D-01  0.394986D-01
     32 -0.230861D-02 -0.714640D-03  0.507742D-03  0.832314D-01 -0.315076D+00
     33  0.904430D-03 -0.160566D-03 -0.910891D-03  0.267800D-01 -0.808043D-01
                6             7             8             9            10 
      6  0.766498D-01
      7  0.183926D-03  0.548072D+00
      8 -0.504698D-03  0.356644D-01  0.461359D+00
      9 -0.531178D-04  0.186016D-01  0.368875D-01  0.552948D+00
     10  0.183373D-02 -0.362960D-01  0.194014D-01 -0.104656D-02  0.660437D+00
     11 -0.966835D-03  0.457400D-01 -0.128368D-01  0.121774D-02  0.142433D+00
     12  0.332328D-02 -0.823234D-03  0.547717D-03 -0.105268D-04  0.455081D-02
     13  0.108306D-01 -0.625621D-02 -0.152679D-02 -0.840619D-03 -0.276132D+00
     14 -0.913105D-02  0.608644D-03  0.740320D-02 -0.483391D-03 -0.214064D+00
     15 -0.382877D-01 -0.122190D-03  0.588420D-04 -0.832631D-03 -0.989232D-03
     16  0.231450D-04 -0.248231D+00 -0.239035D-01 -0.121239D-01  0.224907D-02
     17  0.562744D-04 -0.366041D-01 -0.581248D-01 -0.259528D-02  0.235756D-03
     18  0.157199D-03 -0.111575D-01 -0.206095D-02 -0.602117D-01  0.449642D-03
[...]
 ITU=  0
     Eigenvalues ---    0.00406   0.00640   0.01933   0.02460   0.02992
     Eigenvalues ---    0.04427   0.08806   0.08811   0.10931   0.13133
     Eigenvalues ---    0.13659   0.16238   0.17950   0.18678   0.20377
     Eigenvalues ---    0.22501   0.31078   0.33039   0.33499   0.35245
     Eigenvalues ---    0.36308   0.37434   0.40546   0.44209   0.51139
     Eigenvalues ---    0.54164   0.65553
 Angle between quadratic step and forces=  77.10 degrees.
 Linear search not attempted -- first point.
 Iteration  1 RMS(Cart)=  0.00000652 RMS(Int)=  0.00000000
 Iteration  2 RMS(Cart)=  0.00000000 RMS(Int)=  0.00000000
 ITry= 1 IFail=0 DXMaxC= 1.66D-05 DCOld= 1.00D+10 DXMaxT= 3.00D-01 DXLimC= 3.00D+00 Rises=F
 Variable       Old X    -DE/DX   Delta X   Delta X   Delta X     New X
                                 (Linear)    (Quad)   (Total)
    R1        2.65861   0.00000   0.00000   0.00000   0.00000   2.65861
    R2        2.56838   0.00000   0.00000   0.00000   0.00000   2.56838
    R3        2.58763  -0.00000   0.00000  -0.00000  -0.00000   2.58763
    R4        1.81657  -0.00000   0.00000  -0.00000  -0.00000   1.81657
    R5        2.05178  -0.00000   0.00000  -0.00000  -0.00000   2.05178
    R6        2.06763  -0.00000   0.00000  -0.00000  -0.00000   2.06763
    R7        2.06763   0.00000   0.00000   0.00000   0.00000   2.06763
    R8        2.51125   0.00000   0.00000   0.00000   0.00000   2.51125
    R9        2.04733   0.00000   0.00000   0.00000   0.00000   2.04733
   R10        2.03836   0.00000   0.00000   0.00000   0.00000   2.03836
    A1        2.01872   0.00000   0.00000   0.00000   0.00000   2.01872
    A2        1.91222   0.00000   0.00000   0.00000   0.00000   1.91222
    A3        1.86506   0.00000   0.00000  -0.00000  -0.00000   1.86506
    A4        1.93529  -0.00000   0.00000  -0.00000  -0.00000   1.93529
    A5        1.93529   0.00000   0.00000   0.00000   0.00000   1.93529
    A6        1.91340   0.00000   0.00000   0.00000   0.00000   1.91341
    A7        1.91341  -0.00000   0.00000  -0.00000  -0.00000   1.91341
    A8        1.90113   0.00000   0.00000   0.00000   0.00000   1.90113
    A9        2.21963  -0.00000   0.00000  -0.00000  -0.00000   2.21963
   A10        1.94478  -0.00000   0.00000  -0.00000  -0.00000   1.94478
   A11        2.11878   0.00000   0.00000   0.00000   0.00000   2.11878
   A12        2.17288   0.00000   0.00000   0.00000   0.00000   2.17288
   A13        1.94814  -0.00000   0.00000  -0.00000  -0.00000   1.94814
   A14        2.16216  -0.00000   0.00000  -0.00000  -0.00000   2.16216
    D1        3.14158  -0.00000   0.00000   0.00001   0.00001  -3.14159
    D2       -1.05717   0.00000   0.00000   0.00001   0.00001  -1.05716
    D3        1.05715   0.00000   0.00000   0.00001   0.00001   1.05716
    D4        0.00002  -0.00000   0.00000  -0.00002  -0.00002   0.00000
    D5       -3.14158  -0.00000   0.00000  -0.00001  -0.00001  -3.14159
    D6       -0.00002   0.00000   0.00000   0.00003   0.00003   0.00001
    D7        3.14157   0.00000   0.00000   0.00003   0.00003  -3.14159
    D8        3.14159   0.00000   0.00000   0.00000   0.00000  -3.14159
    D9       -0.00000  -0.00000   0.00000   0.00000   0.00000   0.00000
   D10        0.00000  -0.00000   0.00000  -0.00000  -0.00000   0.00000
   D11       -3.14159  -0.00000   0.00000  -0.00000  -0.00000  -3.14159
         Item               Value     Threshold  Converged?
 Maximum Force            0.000001     0.000015     YES
 RMS     Force            0.000000     0.000010     YES
 Maximum Displacement     0.000017     0.000060     YES
 RMS     Displacement     0.000007     0.000040     YES
 Predicted change in Energy=-8.784781D-12
 Optimization completed.
    -- Stationary point found.
                           ----------------------------
                           !   Optimized Parameters   !
                           ! (Angstroms and Degrees)  !
 --------------------------                            --------------------------
 ! Name  Definition              Value          Derivative Info.                !
 --------------------------------------------------------------------------------
 ! R1    R(1,3)                  1.4069         -DE/DX =    0.0                 !
 ! R2    R(1,4)                  1.3591         -DE/DX =    0.0                 !
 ! R3    R(2,5)                  1.3693         -DE/DX =    0.0                 !
 ! R4    R(2,11)                 0.9613         -DE/DX =    0.0                 !
 ! R5    R(3,6)                  1.0858         -DE/DX =    0.0                 !
 ! R6    R(3,7)                  1.0941         -DE/DX =    0.0                 !
 ! R7    R(3,8)                  1.0941         -DE/DX =    0.0                 !
 ! R8    R(4,5)                  1.3289         -DE/DX =    0.0                 !
 ! R9    R(4,9)                  1.0834         -DE/DX =    0.0                 !
 ! R10   R(5,10)                 1.0787         -DE/DX =    0.0                 !
 ! A1    A(3,1,4)              115.6639         -DE/DX =    0.0                 !
 ! A2    A(5,2,11)             109.5621         -DE/DX =    0.0                 !
 ! A3    A(1,3,6)              106.86           -DE/DX =    0.0                 !
 ! A4    A(1,3,7)              110.8841         -DE/DX =    0.0                 !
 ! A5    A(1,3,8)              110.8841         -DE/DX =    0.0                 !
 ! A6    A(6,3,7)              109.63           -DE/DX =    0.0                 !
 ! A7    A(6,3,8)              109.6301         -DE/DX =    0.0                 !
 ! A8    A(7,3,8)              108.9266         -DE/DX =    0.0                 !
 ! A9    A(1,4,5)              127.1757         -DE/DX =    0.0                 !
 ! A10   A(1,4,9)              111.4275         -DE/DX =    0.0                 !
 ! A11   A(5,4,9)              121.3969         -DE/DX =    0.0                 !
 ! A12   A(2,5,4)              124.4969         -DE/DX =    0.0                 !
 ! A13   A(2,5,10)             111.6204         -DE/DX =    0.0                 !
 ! A14   A(4,5,10)             123.8827         -DE/DX =    0.0                 !
 ! D1    D(4,1,3,6)           -180.0005         -DE/DX =    0.0                 !
 ! D2    D(4,1,3,7)            -60.5712         -DE/DX =    0.0                 !
 ! D3    D(4,1,3,8)             60.5702         -DE/DX =    0.0                 !
 ! D4    D(3,1,4,5)              0.0009         -DE/DX =    0.0                 !
 ! D5    D(3,1,4,9)           -179.9992         -DE/DX =    0.0                 !
 ! D6    D(11,2,5,4)            -0.0011         -DE/DX =    0.0                 !
 ! D7    D(11,2,5,10)         -180.0011         -DE/DX =    0.0                 !
 ! D8    D(1,4,5,2)           -180.0            -DE/DX =    0.0                 !
 ! D9    D(1,4,5,10)             0.0            -DE/DX =    0.0                 !
 ! D10   D(9,4,5,2)              0.0001         -DE/DX =    0.0                 !
 ! D11   D(9,4,5,10)          -179.9999         -DE/DX =    0.0                 !
 --------------------------------------------------------------------------------
 GradGradGradGradGradGradGradGradGradGradGradGradGradGradGradGradGradGrad

 Leave Link  103 at Tue Sep 24 19:44:54 2019, MaxMem=   671088640 cpu:             111.4 elap:              55.9
 (Enter /shared/centos7/gaussian/g16/l9999.exe)

 ----------------------------------------------------------------------

 Electric dipole moment (input orientation):
 (Debye = 10**-18 statcoulomb cm , SI units = C m)
                  (au)            (Debye)         (10**-30 SI)
   Tot        0.167484D+00      0.425702D+00      0.141999D+01
   x         -0.108377D-01     -0.275467D-01     -0.918857D-01
   y         -0.163940D+00     -0.416694D+00     -0.138994D+01
   z          0.325142D-01      0.826427D-01      0.275667D+00

 Dipole polarizability, Alpha (input orientation).
 (esu units = cm**3 , SI units = C**2 m**2 J**-1)
 Alpha(0;0):
               (au)            (10**-24 esu)      (10**-40 SI)
   iso        0.437928D+02      0.648942D+01      0.722046D+01
   aniso      0.213475D+02      0.316337D+01      0.351972D+01
   xx         0.442598D+02      0.655863D+01      0.729746D+01
   yx         0.338875D+01      0.502160D+00      0.558729D+00
   yy         0.544494D+02      0.806857D+01      0.897750D+01
   zx         0.203836D+01      0.302054D+00      0.336080D+00
   zy        -0.418423D+01     -0.620039D+00     -0.689886D+00
   zz         0.326692D+02      0.484107D+01      0.538642D+01

 ----------------------------------------------------------------------

 Dipole orientation:
     8          0.55316627          1.83140114          1.70976266
     8          0.62165944          1.84210344         -5.22038368
     6         -2.03937930          1.43104168          2.14175180
     6          1.26611361          1.94153133         -0.75522496
     6         -0.21055502          1.71355600         -2.77360826
     1         -2.30435238          1.39007946          4.17593809
     1         -3.16733817          2.95934326          1.32498015
     1         -2.65378124         -0.36628378          1.32490472
     1          3.28140664          2.25271990         -0.93774803
     1         -2.22292537          1.40282406         -2.68011244
     1          2.41686170          2.11933465         -5.23847661

 Electric dipole moment (dipole orientation):
 (Debye = 10**-18 statcoulomb cm , SI units = C m)
                  (au)            (Debye)         (10**-30 SI)
   Tot        0.167484D+00      0.425702D+00      0.141999D+01
   x          0.000000D+00      0.000000D+00      0.000000D+00
   y          0.000000D+00      0.000000D+00      0.000000D+00
   z          0.167484D+00      0.425702D+00      0.141999D+01

 Dipole polarizability, Alpha (dipole orientation).
 (esu units = cm**3 , SI units = C**2 m**2 J**-1)
 Alpha(0;0):
               (au)            (10**-24 esu)      (10**-40 SI)
   iso        0.437928D+02      0.648942D+01      0.722046D+01
   aniso      0.213475D+02      0.316337D+01      0.351972D+01
   xx         0.441733D+02      0.654581D+01      0.728320D+01
   yx         0.198093D+01      0.293544D+00      0.326612D+00
   yy         0.316509D+02      0.469018D+01      0.521853D+01
   zx        -0.221643D+01     -0.328441D+00     -0.365440D+00
   zy        -0.342783D+00     -0.507952D-01     -0.565173D-01
   zz         0.555542D+02      0.823228D+01      0.915965D+01

 ----------------------------------------------------------------------

 Test job not archived.
 1\1\GINC-C0200\Freq\RM062X\CC-pVTZ\C3H6O2\HARMS.N\24-Sep-2019\0\\#P Ge
 om=AllCheck Guess=TCheck SCRF=Check Test GenChk RM062X/CC-pVTZ Freq\\G
 aussian input prepared by ASE\\0,1\O,0.1817450409,-0.7096086706,1.1432
 14429\O,0.4548675018,2.8792593187,0.4391646124\C,-1.1889151348,-0.9024
 726542,0.8914401121\C,0.6390135152,0.5587100544,0.9714427118\C,-0.0641
 525293,1.6217956191,0.5954416328\H,-1.3971468627,-1.9529853312,1.07012
 25931\H,-1.7986415293,-0.2879022669,1.5605368883\H,-1.4344831167,-0.65
 00929685,-0.1444908427\H,1.6992365286,0.6292325202,1.1828896706\H,-1.1
 197986554,1.5973531329,0.3751854468\H,1.3943545373,2.8672365958,0.6423
 779521\\Version=EM64L-G16RevA.03\State=1-A\HF=-268.3193098\RMSD=5.105e
 -09\RMSF=3.910e-07\ZeroPoint=0.0911028\Thermal=0.0968973\Dipole=-0.010
 8377,-0.1639398,0.0325142\DipoleDeriv=-0.8364362,-0.5843911,0.0021589,
 -0.2213715,-1.260653,0.1641633,-0.0749577,0.0866398,-0.2997047,-0.3441
 7,-0.5441159,0.1185166,-0.1883127,-1.2808168,0.1558356,0.0429345,0.079
 8543,-0.3656784,0.7066932,0.3536852,0.0013929,0.0388673,0.3042334,0.01
 768,0.0682708,0.0849173,0.3449264,0.2571123,0.4325418,-0.0055954,0.178
 172,0.9433717,-0.1935569,0.048439,-0.139237,-0.1070022,0.1361584,0.514
 7351,-0.0472023,0.111096,0.9648614,-0.2141224,0.038541,-0.1279199,-0.1
 194117,0.0425937,-0.0332317,-0.0016421,-0.0681112,-0.1023427,0.0248957
 ,0.0057673,0.0323453,0.0776964,-0.0487378,-0.0343102,0.0301814,0.10321
 16,0.0011856,-0.092092,0.0613936,-0.0642573,-0.0407833,-0.0141496,-0.0
 543987,0.0139441,0.0371837,0.0526241,0.0721438,-0.0659364,-0.0046232,-
 0.1268069,-0.0720466,-0.0756089,-0.0365568,-0.0706173,0.0188782,0.0179
 406,-0.0376169,0.0168738,0.1627127,-0.018804,-0.0551871,-0.0298822,-0.
 0191479,0.063798,0.0197473,-0.0375373,0.0120491,0.1654323,0.1917865,0.
 0802815,-0.0453152,0.09903,0.2948601,0.027365,-0.0492979,0.0233579,0.3
 086194\Polar=44.2598132,3.3887463,54.4494334,2.0383593,-4.184229,32.66
 91727\Quadrupole=4.2535846,-2.4658887,-1.787696,3.7522563,0.4707364,0.
 9678173\PG=C01 [X(C3H6O2)]\NImag=0\\0.45668142,0.12534246,0.44773451,0
 .05479370,-0.05231297,0.09827583,-0.00535574,-0.00745579,-0.00241278,0
 .63099826,-0.00881712,-0.02190923,0.00560891,0.08587075,0.39241297,-0.
 00212357,0.00589971,0.01165150,0.11107536,-0.05959742,0.06191692,-0.24
 520588,-0.03230618,-0.03181199,0.00178877,0.01081842,-0.00190570,0.492
 33205,0.00559926,-0.08849656,0.00637318,-0.00028946,0.00086525,-0.0002
 5606,0.00056070,0.63480584,-0.03986471,-0.00172282,-0.07227374,0.00045
 399,0.00211624,-0.00040177,-0.01643951,-0.01391393,0.56819217,-0.12236
 813,-0.04634891,-0.00854453,0.01634729,-0.01847134,0.00700007,-0.03241
 380,-0.04702368,0.00340789,0.73695029,-0.09017972,-0.30128539,0.037039
 77,0.01842714,-0.03585602,0.01196470,-0.01832193,-0.01840770,-0.000342
 18,-0.08782036,0.76475551,0.00076677,0.04640123,-0.04595301,-0.0008381
 8,0.00408452,0.00089603,-0.00268938,-0.00647236,-0.00079751,0.15186498
 ,-0.15716161,0.17903291,0.01832084,-0.00651925,0.00482338,-0.13249804,
 -0.05324621,-0.00999710,0.00621369,-0.00360525,0.00215279,-0.26884695,
 0.16936027,-0.08266479,0.74763341,0.01721296,-0.03136466,0.01080999,-0
 .10141219,-0.29040671,0.03307975,-0.00204142,-0.00280997,0.00010152,0.
 18417534,-0.37570695,0.10847316,-0.09403599,0.75566498,-0.00021786,0.0
 0574190,0.00095284,0.00023526,0.04336721,-0.04189133,0.00182058,-0.000
 23259,0.00015822,-0.08581195,0.10530892,-0.09093283,0.15581880,-0.1569
 0833,0.17817324,-0.01940510,-0.04299591,0.00501644,0.00032957,-0.00094
 893,0.00024369,-0.05266999,-0.03261542,0.00673895,-0.00527869,0.001661
 88,-0.00165323,-0.00098846,0.00114790,-0.00053002,0.07075460,-0.005138
 00,-0.00279487,-0.00053085,-0.00040035,-0.00036429,0.00002002,-0.04648
 089,-0.31391130,0.04575545,0.00009754,0.00240472,-0.00031825,0.0005101
 1,0.00030444,0.00011895,0.05362089,0.33422288,-0.00302567,-0.00861653,
 0.00105588,0.00012714,-0.00009714,0.00018025,0.00968435,0.04871680,-0.
 06006388,-0.00132083,0.00001595,0.00052321,-0.00039452,0.00025516,0.00
 021309,-0.00638408,-0.04949464,0.05646434,-0.04205809,0.01367745,0.018
 14129,-0.00024943,-0.00118934,-0.00005230,-0.11508213,0.07158931,0.080
 56439,0.00293052,0.00747571,-0.00059927,0.00125090,-0.00027174,0.00007
 547,0.00475694,-0.00203744,-0.00377990,0.14300947,-0.00169977,0.004852
 40,0.00600931,0.00011268,0.00102422,-0.00060376,0.07636186,-0.13726112
 ,-0.09294253,-0.00150912,0.00393011,0.00019587,0.00195011,-0.00157852,
 0.00105457,0.01558137,-0.01497493,-0.02017725,-0.08523728,0.14043696,-
 0.00419545,0.00656494,0.01016872,-0.00037435,0.00058489,-0.00014392,0.
 08473975,-0.09185011,-0.15446057,-0.00049743,0.00016669,0.00027204,0.0
 0154333,-0.00119319,-0.00015153,-0.00435821,0.00400751,0.00464520,-0.0
 9216817,0.09960985,0.15876656,-0.02739627,0.00264926,-0.03942689,-0.00
 046024,-0.00068167,0.00028767,-0.05669474,0.00903884,-0.03758029,0.002
 60284,0.00700622,-0.00153958,0.00172061,-0.00065634,0.00099793,0.00218
 842,0.00020721,0.00491772,0.00560359,-0.00447959,0.01564256,0.07275116
 ,-0.00168674,0.00130380,-0.00507278,0.00006367,0.00077658,0.00026934,0
 .01096326,-0.06776126,0.05886877,-0.00051199,0.00372956,-0.00201185,0.
 00150436,-0.00121730,0.00003683,0.00564853,-0.00478732,0.02963987,-0.0
 0320472,0.00447619,-0.01831198,-0.01238636,0.06502331,-0.01290253,-0.0
 0141816,-0.00094484,0.00017477,-0.00135655,0.00031455,-0.04317842,0.05
 634601,-0.28234898,0.00186437,0.00154211,0.00080040,-0.00140082,0.0013
 4852,-0.00098243,0.00059746,0.00052998,-0.00297373,-0.00256586,0.00576
 719,-0.01845941,0.05675472,-0.06242439,0.30443966,-0.01307218,-0.00792
 623,-0.00127081,0.00260877,-0.00003696,0.00182866,0.00358240,-0.001232
 93,0.00044397,-0.32382484,-0.00878730,-0.05955609,-0.01429017,-0.00496
 716,-0.00358844,-0.00059619,-0.00009568,-0.00018162,-0.00011435,0.0001
 6819,0.00003212,-0.00029537,0.00004262,-0.00012412,0.34601837,-0.03970
 720,-0.00969351,-0.00625929,0.00165922,0.00312339,-0.00156604,0.000582
 52,-0.00442729,0.00164502,-0.00284462,-0.05286346,0.00292822,0.0227419
 7,0.00471345,0.00543885,-0.00148761,-0.00020037,-0.00020094,-0.0003989
 1,-0.00000238,0.00009019,-0.00011436,0.00001868,-0.00024336,0.01924945
 ,0.06352054,0.00548052,0.00052821,0.00182002,0.00146837,-0.00192827,-0
 .00519363,0.00005813,0.00125717,0.00247573,-0.06081854,0.00165913,-0.0
 4956068,-0.00947454,-0.00047897,0.00553125,0.00011406,0.00009634,0.000
 35328,-0.00045398,-0.00023258,-0.00016790,0.00051580,0.00023404,-0.000
 00788,0.06504903,-0.00464821,0.03716625,-0.00055301,-0.00078051,0.0008
 5168,-0.01297209,-0.00631384,-0.00178362,-0.00075217,-0.00200630,0.000
 47046,-0.01091711,-0.00172324,-0.00336249,-0.33642476,0.00260081,-0.06
 471593,0.00073917,-0.00033008,0.00034254,-0.00012277,-0.00113159,-0.00
 026228,-0.00001955,-0.00032095,0.00058316,0.00031322,0.00131303,-0.002
 01743,0.35901576,-0.00222610,0.00126858,-0.00154462,-0.03752123,-0.006
 57909,-0.00626339,0.00067691,-0.00254340,0.00048100,0.02326407,0.00862
 877,0.00452502,0.00743545,-0.05300290,0.00520314,0.00016413,0.00008411
 ,-0.00009675,-0.00049920,-0.00078108,0.00043713,-0.00063947,-0.0015498
 7,-0.00022764,0.00166154,-0.00358757,0.00291273,0.01038383,0.06328436,
 0.00115873,-0.00123593,-0.00325451,0.00484576,0.00040155,0.00260879,-0
 .00009945,-0.00009203,-0.00096125,-0.00867047,-0.00081146,0.00486223,-
 0.06574288,0.00417073,-0.05091089,0.00023755,-0.00020229,-0.00044267,0
 .00086259,0.00147784,-0.00042077,-0.00060838,-0.00133538,0.00024479,-0
 .00209148,0.00283830,0.00740394,0.06967819,-0.00646201,0.03867826,0.00
 041215,0.00266361,-0.00015948,-0.50053711,-0.00698375,-0.10457318,-0.0
 0109820,-0.00001507,-0.00034793,0.00481859,0.00290133,0.00027126,-0.02
 209105,-0.00175216,-0.00408387,0.00016973,0.00004669,0.00001488,0.0000
 7535,-0.00011687,-0.00010188,-0.00000045,-0.00011167,0.00019727,-0.000
 32965,-0.00099349,0.00007857,0.00169332,-0.00269993,0.00042984,0.51688
 731,0.00129997,0.00038493,-0.00012065,0.04094556,-0.04308709,0.0170531
 6,-0.00081324,-0.00005251,-0.00004656,-0.00300692,0.00067084,-0.000643
 95,-0.04609558,-0.00459586,-0.00912945,0.00022317,0.00001692,0.0000554
 6,0.00009615,-0.00012186,-0.00010591,0.00005627,-0.00001236,0.00013629
 ,0.00192445,-0.00060149,0.00060042,-0.00169115,-0.00522191,0.00125068,
 0.00706131,0.05262039,0.00013008,0.00017042,-0.00149869,-0.11475534,0.
 00681607,-0.02993740,-0.00017836,0.00012392,0.00048158,0.00152642,0.00
 061798,0.00085721,0.00533636,0.00034167,-0.00015962,-0.00002262,0.0000
 1777,0.00004503,-0.00002426,-0.00015852,-0.00004841,0.00003872,0.00010
 754,-0.00008211,-0.00054122,-0.00002274,0.00017962,0.00021571,0.001035
 39,0.00219209,0.10827452,-0.00904950,0.02797069\\-0.00000001,0.0000007
 5,0.00000004,-0.00000036,0.00000021,-0.00000028,0.00000041,0.00000057,
 -0.00000050,-0.00000068,-0.00000051,-0.00000028,0.00000021,-0.00000069
 ,0.00000023,-0.00000039,-0.00000043,0.00000006,-0.00000031,0.00000028,
 0.00000014,-0.00000008,0.00000017,0.,-0.00000010,-0.00000012,0.0000000
 2,0.00000021,0.00000003,0.00000017,0.00000110,-0.00000026,0.00000041\\
 \@


 You can't act like a skunk without someone's getting wind of it.
 -- Lorene Workman
 Job cpu time:       0 days  1 hours  0 minutes 45.8 seconds.
 Elapsed time:       0 days  0 hours 30 minutes 24.1 seconds.
 File lengths (MBytes):  RWF=   1312 Int=      0 D2E=      0 Chk=     32 Scr=     32
 Normal termination of Gaussian 16 at Tue Sep 24 19:44:55 2019.
