 Entering Gaussian System, Link 0=g16
 Input=loose/species/COC=CO/conformers/COC=CO_36.com
 Output=loose/species/COC=CO/conformers/COC=CO_36.log
 Initial command:
 /shared/centos7/gaussian/g16/l1.exe "/scratch/harms.n/gauss_scrdir/Gau-4143.inp" -scrdir="/scratch/harms.n/gauss_scrdir/"
 Entering Link 1 = /shared/centos7/gaussian/g16/l1.exe PID=      4144.
  
 Copyright (c) 1988,1990,1992,1993,1995,1998,2003,2009,2016,
            Gaussian, Inc.  All Rights Reserved.
  
 This is part of the Gaussian(R) 16 program.  It is based on
 the Gaussian(R) 09 system (copyright 2009, Gaussian, Inc.),
 the Gaussian(R) 03 system (copyright 2003, Gaussian, Inc.),
 the Gaussian(R) 98 system (copyright 1998, Gaussian, Inc.),
 the Gaussian(R) 94 system (copyright 1995, Gaussian, Inc.),
 the Gaussian 92(TM) system (copyright 1992, Gaussian, Inc.),
 the Gaussian 90(TM) system (copyright 1990, Gaussian, Inc.),
 the Gaussian 88(TM) system (copyright 1988, Gaussian, Inc.),
 the Gaussian 86(TM) system (copyright 1986, Carnegie Mellon
 University), and the Gaussian 82(TM) system (copyright 1983,
 Carnegie Mellon University). Gaussian is a federally registered
 trademark of Gaussian, Inc.
  
 This software contains proprietary and confidential information,
 including trade secrets, belonging to Gaussian, Inc.
  
 This software is provided under written license and may be
 used, copied, transmitted, or stored only in accord with that
 written license.
  
 The following legend is applicable only to US Government
 contracts under FAR:
  
                    RESTRICTED RIGHTS LEGEND
  
 Use, reproduction and disclosure by the US Government is
 subject to restrictions as set forth in subparagraphs (a)
 and (c) of the Commercial Computer Software - Restricted
 Rights clause in FAR 52.227-19.
  
 Gaussian, Inc.
 340 Quinnipiac St., Bldg. 40, Wallingford CT 06492
  
  
 ---------------------------------------------------------------
 Warning -- This program may not be used in any manner that
 competes with the business of Gaussian, Inc. or will provide
 assistance to any competitor of Gaussian, Inc.  The licensee
 of this program is prohibited from giving any competitor of
 Gaussian, Inc. access to this program.  By using this program,
 the user acknowledges that Gaussian, Inc. is engaged in the
 business of creating and licensing software in the field of
 computational chemistry and represents and warrants to the
 licensee that it is not a competitor of Gaussian, Inc. and that
 it will not use this program in any manner prohibited above.
 ---------------------------------------------------------------
  

 Cite this work as:
 Gaussian 16, Revision A.03,
 M. J. Frisch, G. W. Trucks, H. B. Schlegel, G. E. Scuseria, 
 M. A. Robb, J. R. Cheeseman, G. Scalmani, V. Barone, 
 G. A. Petersson, H. Nakatsuji, X. Li, M. Caricato, A. V. Marenich, 
 J. Bloino, B. G. Janesko, R. Gomperts, B. Mennucci, H. P. Hratchian, 
 J. V. Ortiz, A. F. Izmaylov, J. L. Sonnenberg, D. Williams-Young, 
 F. Ding, F. Lipparini, F. Egidi, J. Goings, B. Peng, A. Petrone, 
 T. Henderson, D. Ranasinghe, V. G. Zakrzewski, J. Gao, N. Rega, 
 G. Zheng, W. Liang, M. Hada, M. Ehara, K. Toyota, R. Fukuda, 
 J. Hasegawa, M. Ishida, T. Nakajima, Y. Honda, O. Kitao, H. Nakai, 
 T. Vreven, K. Throssell, J. A. Montgomery, Jr., J. E. Peralta, 
 F. Ogliaro, M. J. Bearpark, J. J. Heyd, E. N. Brothers, K. N. Kudin, 
 V. N. Staroverov, T. A. Keith, R. Kobayashi, J. Normand, 
 K. Raghavachari, A. P. Rendell, J. C. Burant, S. S. Iyengar, 
 J. Tomasi, M. Cossi, J. M. Millam, M. Klene, C. Adamo, R. Cammi, 
 J. W. Ochterski, R. L. Martin, K. Morokuma, O. Farkas, 
 J. B. Foresman, and D. J. Fox, Gaussian, Inc., Wallingford CT, 2016.
 
 ******************************************
 Gaussian 16:  EM64L-G16RevA.03 25-Dec-2016
                24-Sep-2019 
 ******************************************
 %nprocshared=20
 Will use up to   20 processors via shared memory.
 %mem=5GB
 ----------------------------------------------------------------------
 #p m062x/cc-pVTZ opt=(calcfc,maxcycles=900,Tight) freq IOP(7/33=1,2/16
 =3) scf=(maxcycle=900)
 ----------------------------------------------------------------------
 1/6=900,7=10,10=4,18=20,19=15,26=3,38=1/1,3;
 2/9=110,12=2,16=3,17=6,18=5,40=1/2;
 3/5=16,6=1,11=2,25=1,30=1,71=2,74=-55,140=1/1,2,3;
 4//1;
 5/5=2,7=900,38=5/2;
 8/6=4,10=90,11=11/1;
 11/6=1,8=1,9=11,15=111,16=1/1,2,10;
 10/6=1,13=1/2;
 6/7=2,8=2,9=2,10=2,28=1/1;
 7/10=1,18=20,25=1,33=1/1,2,3,16;
 1/6=900,7=10,10=4,18=20,19=15,26=3/3(2);
 2/9=110,16=3/2;
 99//99;
 2/9=110,16=3/2;
 3/5=16,6=1,11=2,25=1,30=1,71=1,74=-55/1,2,3;
 4/5=5,16=3,69=1/1;
 5/5=2,7=900,38=5/2;
 7/33=1/1,2,3,16;
 1/6=900,7=10,18=20,19=15,26=3/3(-5);
 2/9=110,16=3/2;
 6/7=2,8=2,9=2,10=2,19=2,28=1/1;
 99/9=1/99;
 Leave Link    1 at Tue Sep 24 09:28:11 2019, MaxMem=   671088640 cpu:               4.5 elap:               2.2
 (Enter /shared/centos7/gaussian/g16/l101.exe)
 ------------------------------
 Gaussian input prepared by ASE
 ------------------------------
 Symbolic Z-matrix:
 Charge =  0 Multiplicity = 1
 O                     0.20558  -0.78276   1.07144 
 O                    -0.73118   1.57579   2.58677 
 C                    -1.2024   -0.92757   0.87149 
 C                     0.65191   0.52597   0.93877 
 C                     0.25921   1.56949   1.63002 
 H                    -1.36632  -1.7238    0.08945 
 H                    -1.69957  -1.24723   1.83135 
 H                    -1.64939   0.00754   0.53348 
 H                     1.45471   0.62065   0.21009 
 H                     0.68213   2.5385    1.47175 
 H                    -1.23249   0.69523   2.50124 
 
 ITRead=  0  0  0  0  0  0  0  0  0  0  0
 MicOpt= -1 -1 -1 -1 -1 -1 -1 -1 -1 -1 -1
 NAtoms=     11 NQM=       11 NQMF=       0 NMMI=      0 NMMIF=      0
                NMic=       0 NMicF=      0.
                    Isotopes and Nuclear Properties:
 (Nuclear quadrupole moments (NQMom) in fm**2, nuclear magnetic moments (NMagM)
  in nuclear magnetons)

  Atom         1           2           3           4           5           6           7           8           9          10
 IAtWgt=          16          16          12          12          12           1           1           1           1           1
 AtmWgt=  15.9949146  15.9949146  12.0000000  12.0000000  12.0000000   1.0078250   1.0078250   1.0078250   1.0078250   1.0078250
 NucSpn=           0           0           0           0           0           1           1           1           1           1
 AtZEff=  -0.0000000  -0.0000000  -0.0000000  -0.0000000  -0.0000000  -0.0000000  -0.0000000  -0.0000000  -0.0000000  -0.0000000
 NQMom=    0.0000000   0.0000000   0.0000000   0.0000000   0.0000000   0.0000000   0.0000000   0.0000000   0.0000000   0.0000000
 NMagM=    0.0000000   0.0000000   0.0000000   0.0000000   0.0000000   2.7928460   2.7928460   2.7928460   2.7928460   2.7928460
 AtZNuc=   8.0000000   8.0000000   6.0000000   6.0000000   6.0000000   1.0000000   1.0000000   1.0000000   1.0000000   1.0000000

  Atom        11
 IAtWgt=           1
 AtmWgt=   1.0078250
 NucSpn=           1
 AtZEff=  -0.0000000
 NQMom=    0.0000000
 NMagM=    2.7928460
 AtZNuc=   1.0000000
 Leave Link  101 at Tue Sep 24 09:28:12 2019, MaxMem=   671088640 cpu:               2.1 elap:               1.1
 (Enter /shared/centos7/gaussian/g16/l103.exe)

 GradGradGradGradGradGradGradGradGradGradGradGradGradGradGradGradGradGrad
 Berny optimization.
 Initialization pass.
                           ----------------------------
                           !    Initial Parameters    !
                           ! (Angstroms and Degrees)  !
 --------------------------                            --------------------------
 ! Name  Definition              Value          Derivative Info.                !
 --------------------------------------------------------------------------------
 ! R1    R(1,3)                  1.4295         calculate D2E/DX2 analytically  !
 ! R2    R(1,4)                  1.3891         calculate D2E/DX2 analytically  !
 ! R3    R(2,5)                  1.3771         calculate D2E/DX2 analytically  !
 ! R4    R(2,11)                 1.0169         calculate D2E/DX2 analytically  !
 ! R5    R(3,6)                  1.128          calculate D2E/DX2 analytically  !
 ! R6    R(3,7)                  1.1272         calculate D2E/DX2 analytically  !
 ! R7    R(3,8)                  1.0902         calculate D2E/DX2 analytically  !
 ! R8    R(4,5)                  1.3119         calculate D2E/DX2 analytically  !
 ! R9    R(4,9)                  1.0883         calculate D2E/DX2 analytically  !
 ! R10   R(5,10)                 1.0691         calculate D2E/DX2 analytically  !
 ! A1    A(3,1,4)              113.4882         calculate D2E/DX2 analytically  !
 ! A2    A(5,2,11)             106.9875         calculate D2E/DX2 analytically  !
 ! A3    A(1,3,6)              108.1566         calculate D2E/DX2 analytically  !
 ! A4    A(1,3,7)              110.1229         calculate D2E/DX2 analytically  !
 ! A5    A(1,3,8)              111.1206         calculate D2E/DX2 analytically  !
 ! A6    A(6,3,7)              109.0311         calculate D2E/DX2 analytically  !
 ! A7    A(6,3,8)              109.3249         calculate D2E/DX2 analytically  !
 ! A8    A(7,3,8)              109.0513         calculate D2E/DX2 analytically  !
 ! A9    A(1,4,5)              127.08           calculate D2E/DX2 analytically  !
 ! A10   A(1,4,9)              112.515          calculate D2E/DX2 analytically  !
 ! A11   A(5,4,9)              120.2921         calculate D2E/DX2 analytically  !
 ! A12   A(2,5,4)              125.8046         calculate D2E/DX2 analytically  !
 ! A13   A(2,5,10)             112.5336         calculate D2E/DX2 analytically  !
 ! A14   A(4,5,10)             121.6405         calculate D2E/DX2 analytically  !
 ! D1    D(4,1,3,6)            126.74           calculate D2E/DX2 analytically  !
 ! D2    D(4,1,3,7)           -114.2057         calculate D2E/DX2 analytically  !
 ! D3    D(4,1,3,8)              6.7385         calculate D2E/DX2 analytically  !
 ! D4    D(3,1,4,5)             58.6326         calculate D2E/DX2 analytically  !
 ! D5    D(3,1,4,9)           -125.2604         calculate D2E/DX2 analytically  !
 ! D6    D(11,2,5,4)           -12.7521         calculate D2E/DX2 analytically  !
 ! D7    D(11,2,5,10)          165.5803         calculate D2E/DX2 analytically  !
 ! D8    D(1,4,5,2)             -3.4382         calculate D2E/DX2 analytically  !
 ! D9    D(1,4,5,10)           178.3711         calculate D2E/DX2 analytically  !
 ! D10   D(9,4,5,2)           -179.2728         calculate D2E/DX2 analytically  !
 ! D11   D(9,4,5,10)             2.5364         calculate D2E/DX2 analytically  !
 --------------------------------------------------------------------------------
 Trust Radius=3.00D-01 FncErr=1.00D-07 GrdErr=1.00D-06 EigMax=2.50D+02 EigMin=1.00D-04
 Number of steps in this run=    100 maximum allowed number of steps=    100.
 GradGradGradGradGradGradGradGradGradGradGradGradGradGradGradGradGradGrad

 Leave Link  103 at Tue Sep 24 09:28:13 2019, MaxMem=   671088640 cpu:               1.6 elap:               0.8
 (Enter /shared/centos7/gaussian/g16/l202.exe)
                          Input orientation:                          
 ---------------------------------------------------------------------
 Center     Atomic      Atomic             Coordinates (Angstroms)
 Number     Number       Type             X           Y           Z
 ---------------------------------------------------------------------
      1          8           0        0.205584   -0.782763    1.071440
      2          8           0       -0.731181    1.575790    2.586771
      3          6           0       -1.202399   -0.927570    0.871488
      4          6           0        0.651910    0.525967    0.938771
      5          6           0        0.259214    1.569491    1.630016
      6          1           0       -1.366321   -1.723795    0.089449
      7          1           0       -1.699566   -1.247230    1.831350
      8          1           0       -1.649391    0.007543    0.533477
      9          1           0        1.454706    0.620650    0.210086
     10          1           0        0.682126    2.538496    1.471751
     11          1           0       -1.232486    0.695226    2.501241
 ---------------------------------------------------------------------
                    Distance matrix (angstroms):
                    1          2          3          4          5
     1  O    0.000000
     2  O    2.955762   0.000000
     3  C    1.429464   3.071002   0.000000
     4  C    1.389094   2.393945   2.357066   0.000000
     5  C    2.418260   1.377063   2.991153   1.311858   0.000000
     6  H    2.078637   4.186560   1.128020   3.139432   3.982643
     7  H    2.103043   3.078616   1.127250   3.077396   3.436754
     8  H    2.086844   2.741993   1.090179   2.393535   2.699046
     9  H    2.066834   3.367347   3.145576   1.088314   2.084635
    10  H    3.379069   2.041448   3.990660   2.082127   1.069052
    11  H    2.509348   1.016866   2.300101   2.453754   1.936115
                    6          7          8          9         10
     6  H    0.000000
     7  H    1.836406   0.000000
     8  H    1.809647   1.805948   0.000000
     9  H    3.670036   4.008354   3.180550   0.000000
    10  H    4.926867   4.487036   3.566798   2.422151   0.000000
    11  H    3.418525   2.107144   2.125749   3.532132   2.850129
                   11
    11  H    0.000000
 Stoichiometry    C3H6O2
 Framework group  C1[X(C3H6O2)]
 Deg. of freedom    27
 Full point group                 C1      NOp   1
 Largest Abelian subgroup         C1      NOp   1
 Largest concise Abelian subgroup C1      NOp   1
                         Standard orientation:                         
 ---------------------------------------------------------------------
 Center     Atomic      Atomic             Coordinates (Angstroms)
 Number     Number       Type             X           Y           Z
 ---------------------------------------------------------------------
      1          8           0       -1.080943    0.501169   -0.443395
      2          8           0        1.496774   -0.915420   -0.151541
      3          6           0       -1.536159   -0.659028    0.256667
      4          6           0        0.105160    1.021082    0.059033
      5          6           0        1.258159    0.403947    0.162521
      6          1           0       -2.602900   -0.480330    0.576918
      7          1           0       -1.501694   -1.559232   -0.420931
      8          1           0       -0.922816   -0.852529    1.136927
      9          1           0        0.020338    2.073674    0.322252
     10          1           0        2.126956    0.898515    0.541291
     11          1           0        0.590500   -1.362092   -0.266294
 ---------------------------------------------------------------------
 Rotational constants (GHZ):           9.3642503           4.0726380           3.0757994
 Leave Link  202 at Tue Sep 24 09:28:15 2019, MaxMem=   671088640 cpu:               3.4 elap:               1.7
 (Enter /shared/centos7/gaussian/g16/l301.exe)
 Standard basis: CC-pVTZ (5D, 7F)
 Ernie: Thresh=  0.10000D-02 Tol=  0.10000D-05 Strict=F.
 Ernie:  15 primitive shells out of 178 were deleted.
 There are   265 symmetry adapted cartesian basis functions of A   symmetry.
 There are   234 symmetry adapted basis functions of A   symmetry.
   234 basis functions,   362 primitive gaussians,   265 cartesian basis functions
    20 alpha electrons       20 beta electrons
       nuclear repulsion energy       179.5712286730 Hartrees.
 IExCor= 4336 DFT=T Ex+Corr=M062X ExCW=0 ScaHFX=  0.540000
 ScaDFX=  1.000000  1.000000  1.000000  1.000000 ScalE2=  1.000000  1.000000
 IRadAn=      5 IRanWt=     -1 IRanGd=            0 ICorTp=0 IEmpDi=  4
 NAtoms=   11 NActive=   11 NUniq=   11 SFac= 1.00D+00 NAtFMM=   60 NAOKFM=F Big=F
 Integral buffers will be    131072 words long.
 Raffenetti 2 integral format.
 Two-electron integral symmetry is turned on.
 Leave Link  301 at Tue Sep 24 09:28:16 2019, MaxMem=   671088640 cpu:               2.8 elap:               1.4
 (Enter /shared/centos7/gaussian/g16/l302.exe)
 NPDir=0 NMtPBC=     1 NCelOv=     1 NCel=       1 NClECP=     1 NCelD=      1
         NCelK=      1 NCelE2=     1 NClLst=     1 CellRange=     0.0.
 One-electron integrals computed using PRISM.
 One-electron integral symmetry used in STVInt
 NBasis=   234 RedAO= T EigKep=  3.58D-04  NBF=   234
 NBsUse=   234 1.00D-06 EigRej= -1.00D+00 NBFU=   234
 Precomputing XC quadrature grid using
 IXCGrd= 4 IRadAn=           5 IRanWt=          -1 IRanGd=           0 AccXCQ= 0.00D+00.
 Generated NRdTot=       0 NPtTot=           0 NUsed=           0 NTot=          32
 NSgBfM=   265   265   265   265   265 MxSgAt=    11 MxSgA2=    11.
 Leave Link  302 at Tue Sep 24 09:29:05 2019, MaxMem=   671088640 cpu:              98.4 elap:              49.2
 (Enter /shared/centos7/gaussian/g16/l303.exe)
 DipDrv:  MaxL=1.
 Leave Link  303 at Tue Sep 24 09:29:11 2019, MaxMem=   671088640 cpu:              10.3 elap:               5.1
 (Enter /shared/centos7/gaussian/g16/l401.exe)
 ExpMin= 1.03D-01 ExpMax= 1.53D+04 ExpMxC= 5.22D+02 IAcc=3 IRadAn=         5 AccDes= 0.00D+00
 Harris functional with IExCor= 1009 and IRadAn=       5 diagonalized for initial guess.
 HarFok:  IExCor= 1009 AccDes= 0.00D+00 IRadAn=         5 IDoV= 1 UseB2=F ITyADJ=14
 ICtDFT=  3500011 ScaDFX=  1.000000  1.000000  1.000000  1.000000
 FoFCou: FMM=F IPFlag=           0 FMFlag=      100000 FMFlg1=           0
         NFxFlg=           0 DoJE=T BraDBF=F KetDBF=T FulRan=T
         wScrn=  0.000000 ICntrl=       500 IOpCl=  0 I1Cent=   200000004 NGrid=           0
         NMat0=    1 NMatS0=      1 NMatT0=    0 NMatD0=    1 NMtDS0=    0 NMtDT0=    0
 Petite list used in FoFCou.
 Harris En= -268.192581191919    
 JPrj=0 DoOrth=F DoCkMO=F.
 Leave Link  401 at Tue Sep 24 09:29:33 2019, MaxMem=   671088640 cpu:              43.8 elap:              21.9
 (Enter /shared/centos7/gaussian/g16/l502.exe)
 Keep R1 ints in memory in canonical form, NReq=399924305.
 FoFCou: FMM=F IPFlag=           0 FMFlag=           0 FMFlg1=           0
         NFxFlg=           0 DoJE=F BraDBF=F KetDBF=F FulRan=T
         wScrn=  0.000000 ICntrl=       600 IOpCl=  0 I1Cent=           0 NGrid=           0
         NMat0=    1 NMatS0=  27495 NMatT0=    0 NMatD0=    1 NMtDS0=    0 NMtDT0=    0
 Symmetry not used in FoFCou.
 Two-electron integral symmetry not used.
 Closed shell SCF:
 Using DIIS extrapolation, IDIIS=  1040.
 NGot=   671088640 LenX=   292939207 LenY=   292868541
 Requested convergence on RMS density matrix=1.00D-08 within 900 cycles.
 Requested convergence on MAX density matrix=1.00D-06.
 Requested convergence on             energy=1.00D-06.
 No special actions if energy rises.
 Integral accuracy reduced to 1.0D-05 until final iterations.

 Cycle   1  Pass 0  IDiag  1:
 E= -268.188588641906    
 DIIS: error= 1.70D-02 at cycle   1 NSaved=   1.
 NSaved= 1 IEnMin= 1 EnMin= -268.188588641906     IErMin= 1 ErrMin= 1.70D-02
 ErrMax= 1.70D-02  0.00D+00 EMaxC= 1.00D-01 BMatC= 1.69D-01 BMatP= 1.69D-01
 IDIUse=3 WtCom= 8.30D-01 WtEn= 1.70D-01
 Coeff-Com:  0.100D+01
 Coeff-En:   0.100D+01
 Coeff:      0.100D+01
 Gap=     0.364 Goal=   None    Shift=    0.000
 GapD=    0.364 DampG=1.000 DampE=0.500 DampFc=0.5000 IDamp=-1.
 Damping current iteration by 5.00D-01
 RMSDP=1.94D-03 MaxDP=6.15D-02              OVMax= 1.11D-01

 Cycle   2  Pass 0  IDiag  1:
 E= -268.251939546595     Delta-E=       -0.063350904689 Rises=F Damp=T
 DIIS: error= 5.43D-03 at cycle   2 NSaved=   2.
 NSaved= 2 IEnMin= 2 EnMin= -268.251939546595     IErMin= 2 ErrMin= 5.43D-03
 ErrMax= 5.43D-03  0.00D+00 EMaxC= 1.00D-01 BMatC= 1.65D-02 BMatP= 1.69D-01
 IDIUse=3 WtCom= 9.46D-01 WtEn= 5.43D-02
 Coeff-Com: -0.190D+00 0.119D+01
 Coeff-En:   0.000D+00 0.100D+01
 Coeff:     -0.180D+00 0.118D+01
 Gap=     0.341 Goal=   None    Shift=    0.000
 RMSDP=4.17D-04 MaxDP=1.05D-02 DE=-6.34D-02 OVMax= 4.88D-02

 Cycle   3  Pass 0  IDiag  1:
 E= -268.306447940423     Delta-E=       -0.054508393828 Rises=F Damp=F
 DIIS: error= 3.33D-03 at cycle   3 NSaved=   3.
 NSaved= 3 IEnMin= 3 EnMin= -268.306447940423     IErMin= 3 ErrMin= 3.33D-03
 ErrMax= 3.33D-03  0.00D+00 EMaxC= 1.00D-01 BMatC= 3.76D-03 BMatP= 1.65D-02
 IDIUse=3 WtCom= 9.67D-01 WtEn= 3.33D-02
 Coeff-Com: -0.122D+00 0.404D+00 0.718D+00
 Coeff-En:   0.000D+00 0.000D+00 0.100D+01
 Coeff:     -0.118D+00 0.390D+00 0.728D+00
 Gap=     0.339 Goal=   None    Shift=    0.000
 RMSDP=1.82D-04 MaxDP=5.55D-03 DE=-5.45D-02 OVMax= 1.34D-02

 Cycle   4  Pass 0  IDiag  1:
 E= -268.308306062229     Delta-E=       -0.001858121806 Rises=F Damp=F
 DIIS: error= 1.32D-03 at cycle   4 NSaved=   4.
 NSaved= 4 IEnMin= 4 EnMin= -268.308306062229     IErMin= 4 ErrMin= 1.32D-03
 ErrMax= 1.32D-03  0.00D+00 EMaxC= 1.00D-01 BMatC= 8.13D-04 BMatP= 3.76D-03
 IDIUse=3 WtCom= 9.87D-01 WtEn= 1.32D-02
 Coeff-Com: -0.365D-01 0.912D-01 0.362D+00 0.583D+00
 Coeff-En:   0.000D+00 0.000D+00 0.164D+00 0.836D+00
 Coeff:     -0.360D-01 0.900D-01 0.360D+00 0.586D+00
 Gap=     0.335 Goal=   None    Shift=    0.000
 RMSDP=6.57D-05 MaxDP=1.86D-03 DE=-1.86D-03 OVMax= 6.39D-03

 Cycle   5  Pass 0  IDiag  1:
 E= -268.308902546992     Delta-E=       -0.000596484763 Rises=F Damp=F
 DIIS: error= 2.47D-04 at cycle   5 NSaved=   5.
 NSaved= 5 IEnMin= 5 EnMin= -268.308902546992     IErMin= 5 ErrMin= 2.47D-04
 ErrMax= 2.47D-04  0.00D+00 EMaxC= 1.00D-01 BMatC= 1.79D-05 BMatP= 8.13D-04
 IDIUse=3 WtCom= 9.98D-01 WtEn= 2.47D-03
 Coeff-Com: -0.688D-02 0.132D-01 0.943D-01 0.217D+00 0.682D+00
 Coeff-En:   0.000D+00 0.000D+00 0.000D+00 0.000D+00 0.100D+01
 Coeff:     -0.686D-02 0.132D-01 0.941D-01 0.217D+00 0.683D+00
 Gap=     0.335 Goal=   None    Shift=    0.000
 RMSDP=1.28D-05 MaxDP=3.67D-04 DE=-5.96D-04 OVMax= 1.31D-03

 Cycle   6  Pass 0  IDiag  1:
 E= -268.308916624751     Delta-E=       -0.000014077760 Rises=F Damp=F
 DIIS: error= 4.65D-05 at cycle   6 NSaved=   6.
 NSaved= 6 IEnMin= 6 EnMin= -268.308916624751     IErMin= 6 ErrMin= 4.65D-05
 ErrMax= 4.65D-05  0.00D+00 EMaxC= 1.00D-01 BMatC= 9.71D-07 BMatP= 1.79D-05
 IDIUse=1 WtCom= 1.00D+00 WtEn= 0.00D+00
 Coeff-Com: -0.981D-03 0.110D-02 0.201D-01 0.614D-01 0.244D+00 0.674D+00
 Coeff:     -0.981D-03 0.110D-02 0.201D-01 0.614D-01 0.244D+00 0.674D+00
 Gap=     0.335 Goal=   None    Shift=    0.000
 RMSDP=3.89D-06 MaxDP=1.26D-04 DE=-1.41D-05 OVMax= 5.53D-04

 Initial convergence to 1.0D-05 achieved.  Increase integral accuracy.
 Cycle   7  Pass 1  IDiag  1:
 E= -268.308955429810     Delta-E=       -0.000038805058 Rises=F Damp=F
 DIIS: error= 2.95D-05 at cycle   1 NSaved=   1.
 NSaved= 1 IEnMin= 1 EnMin= -268.308955429810     IErMin= 1 ErrMin= 2.95D-05
 ErrMax= 2.95D-05  0.00D+00 EMaxC= 1.00D-01 BMatC= 4.26D-07 BMatP= 4.26D-07
 IDIUse=1 WtCom= 1.00D+00 WtEn= 0.00D+00
 Coeff-Com:  0.100D+01
 Coeff:      0.100D+01
 Gap=     0.335 Goal=   None    Shift=    0.000
 RMSDP=3.89D-06 MaxDP=1.26D-04 DE=-3.88D-05 OVMax= 4.51D-04

 Cycle   8  Pass 1  IDiag  1:
 E= -268.308955377250     Delta-E=        0.000000052560 Rises=F Damp=F
 DIIS: error= 3.75D-05 at cycle   2 NSaved=   2.
 NSaved= 2 IEnMin= 1 EnMin= -268.308955429810     IErMin= 1 ErrMin= 2.95D-05
 ErrMax= 3.75D-05  0.00D+00 EMaxC= 1.00D-01 BMatC= 4.70D-07 BMatP= 4.26D-07
 IDIUse=1 WtCom= 1.00D+00 WtEn= 0.00D+00
 Coeff-Com:  0.514D+00 0.486D+00
 Coeff:      0.514D+00 0.486D+00
 Gap=     0.335 Goal=   None    Shift=    0.000
 RMSDP=2.15D-06 MaxDP=7.02D-05 DE= 5.26D-08 OVMax= 3.15D-04

 Cycle   9  Pass 1  IDiag  1:
 E= -268.308955763091     Delta-E=       -0.000000385841 Rises=F Damp=F
 DIIS: error= 6.63D-06 at cycle   3 NSaved=   3.
 NSaved= 3 IEnMin= 3 EnMin= -268.308955763091     IErMin= 3 ErrMin= 6.63D-06
 ErrMax= 6.63D-06  0.00D+00 EMaxC= 1.00D-01 BMatC= 1.72D-08 BMatP= 4.26D-07
 IDIUse=1 WtCom= 1.00D+00 WtEn= 0.00D+00
 Coeff-Com: -0.279D-01 0.142D+00 0.886D+00
 Coeff:     -0.279D-01 0.142D+00 0.886D+00
 Gap=     0.335 Goal=   None    Shift=    0.000
 RMSDP=4.31D-07 MaxDP=9.20D-06 DE=-3.86D-07 OVMax= 4.00D-05

 Cycle  10  Pass 1  IDiag  1:
 E= -268.308955777216     Delta-E=       -0.000000014125 Rises=F Damp=F
 DIIS: error= 1.56D-06 at cycle   4 NSaved=   4.
 NSaved= 4 IEnMin= 4 EnMin= -268.308955777216     IErMin= 4 ErrMin= 1.56D-06
 ErrMax= 1.56D-06  0.00D+00 EMaxC= 1.00D-01 BMatC= 9.48D-10 BMatP= 1.72D-08
 IDIUse=1 WtCom= 1.00D+00 WtEn= 0.00D+00
 Coeff-Com: -0.212D-01 0.549D-01 0.390D+00 0.577D+00
 Coeff:     -0.212D-01 0.549D-01 0.390D+00 0.577D+00
 Gap=     0.335 Goal=   None    Shift=    0.000
 RMSDP=8.15D-08 MaxDP=2.77D-06 DE=-1.41D-08 OVMax= 8.02D-06

 Cycle  11  Pass 1  IDiag  1:
 E= -268.308955777934     Delta-E=       -0.000000000718 Rises=F Damp=F
 DIIS: error= 3.87D-07 at cycle   5 NSaved=   5.
 NSaved= 5 IEnMin= 5 EnMin= -268.308955777934     IErMin= 5 ErrMin= 3.87D-07
 ErrMax= 3.87D-07  0.00D+00 EMaxC= 1.00D-01 BMatC= 6.06D-11 BMatP= 9.48D-10
 IDIUse=1 WtCom= 1.00D+00 WtEn= 0.00D+00
 Coeff-Com: -0.789D-03-0.104D-01-0.521D-01 0.139D+00 0.924D+00
 Coeff:     -0.789D-03-0.104D-01-0.521D-01 0.139D+00 0.924D+00
 Gap=     0.335 Goal=   None    Shift=    0.000
 RMSDP=4.43D-08 MaxDP=1.02D-06 DE=-7.18D-10 OVMax= 3.61D-06

 Cycle  12  Pass 1  IDiag  1:
 E= -268.308955778019     Delta-E=       -0.000000000085 Rises=F Damp=F
 DIIS: error= 1.23D-07 at cycle   6 NSaved=   6.
 NSaved= 6 IEnMin= 6 EnMin= -268.308955778019     IErMin= 6 ErrMin= 1.23D-07
 ErrMax= 1.23D-07  0.00D+00 EMaxC= 1.00D-01 BMatC= 5.55D-12 BMatP= 6.06D-11
 IDIUse=1 WtCom= 1.00D+00 WtEn= 0.00D+00
 Coeff-Com:  0.151D-02-0.729D-02-0.476D-01-0.128D-02 0.293D+00 0.762D+00
 Coeff:      0.151D-02-0.729D-02-0.476D-01-0.128D-02 0.293D+00 0.762D+00
 Gap=     0.335 Goal=   None    Shift=    0.000
 RMSDP=1.06D-08 MaxDP=3.22D-07 DE=-8.50D-11 OVMax= 1.09D-06

 Cycle  13  Pass 1  IDiag  1:
 E= -268.308955778019     Delta-E=        0.000000000000 Rises=F Damp=F
 DIIS: error= 3.58D-08 at cycle   7 NSaved=   7.
 NSaved= 7 IEnMin= 6 EnMin= -268.308955778019     IErMin= 7 ErrMin= 3.58D-08
 ErrMax= 3.58D-08  0.00D+00 EMaxC= 1.00D-01 BMatC= 9.06D-13 BMatP= 5.55D-12
 IDIUse=1 WtCom= 1.00D+00 WtEn= 0.00D+00
 Coeff-Com:  0.713D-03-0.220D-02-0.165D-01-0.139D-01 0.406D-01 0.320D+00
 Coeff-Com:  0.671D+00
 Coeff:      0.713D-03-0.220D-02-0.165D-01-0.139D-01 0.406D-01 0.320D+00
 Coeff:      0.671D+00
 Gap=     0.335 Goal=   None    Shift=    0.000
 RMSDP=3.80D-09 MaxDP=1.43D-07 DE= 2.27D-13 OVMax= 3.24D-07

 SCF Done:  E(RM062X) =  -268.308955778     A.U. after   13 cycles
            NFock= 13  Conv=0.38D-08     -V/T= 2.0061
 KE= 2.666923417528D+02 PE=-9.872842880032D+02 EE= 2.727117617993D+02
 Leave Link  502 at Tue Sep 24 09:34:14 2019, MaxMem=   671088640 cpu:             555.6 elap:             281.6
 (Enter /shared/centos7/gaussian/g16/l801.exe)
 DoSCS=F DFT=T ScalE2(SS,OS)=  1.000000  1.000000
 Range of M.O.s used for correlation:     1   234
 NBasis=   234 NAE=    20 NBE=    20 NFC=     0 NFV=     0
 NROrb=    234 NOA=    20 NOB=    20 NVA=   214 NVB=   214

 **** Warning!!: The largest alpha MO coefficient is  0.11516950D+02

 Leave Link  801 at Tue Sep 24 09:34:15 2019, MaxMem=   671088640 cpu:               1.4 elap:               0.7
 (Enter /shared/centos7/gaussian/g16/l1101.exe)
 Using compressed storage, NAtomX=    11.
 Will process     12 centers per pass.
 Leave Link 1101 at Tue Sep 24 09:34:35 2019, MaxMem=   671088640 cpu:              40.3 elap:              20.2
 (Enter /shared/centos7/gaussian/g16/l1102.exe)
 Symmetrizing basis deriv contribution to polar:
 IMax=3 JMax=2 DiffMx= 0.00D+00
 Leave Link 1102 at Tue Sep 24 09:34:37 2019, MaxMem=   671088640 cpu:               4.4 elap:               2.2
 (Enter /shared/centos7/gaussian/g16/l1110.exe)
 Forming Gx(P) for the SCF density, NAtomX=    11.
 Integral derivatives from FoFJK, PRISM(SPDF).
 Do as many integral derivatives as possible in FoFJK.
 G2DrvN: MDV=     671087712.
 G2DrvN: will do    12 centers at a time, making    1 passes.
 Calling FoFCou, ICntrl=  3107 FMM=F I1Cent=   0 AccDes= 0.00D+00.
 FoFJK:  IHMeth= 1 ICntrl=    3107 DoSepK=F KAlg= 0 I1Cent=           0 FoldK=F
 IRaf=         0 NMat=       1 IRICut=       1 DoRegI=T DoRafI=F ISym2E= 0 IDoP0=0 IntGTp=1.
 FoFCou: FMM=F IPFlag=           0 FMFlag=      100000 FMFlg1=           0
         NFxFlg=           0 DoJE=F BraDBF=F KetDBF=F FulRan=T
         wScrn=  0.000000 ICntrl=      3107 IOpCl=  0 I1Cent=           0 NGrid=           0
         NMat0=    1 NMatS0=      1 NMatT0=    0 NMatD0=    1 NMtDS0=    0 NMtDT0=    0
 Symmetry not used in FoFCou.
 End of G2Drv F.D. properties file   721 does not exist.
 End of G2Drv F.D. properties file   722 does not exist.
 End of G2Drv F.D. properties file   788 does not exist.
 Leave Link 1110 at Tue Sep 24 09:41:09 2019, MaxMem=   671088640 cpu:             784.1 elap:             392.2
 (Enter /shared/centos7/gaussian/g16/l1002.exe)
 Minotr:  Closed shell wavefunction.
          IDoAtm=11111111111
          Direct CPHF calculation.
          Differentiating once with respect to nuclear coordinates.
          Requested convergence is 1.0D-08 RMS, and 1.0D-07 maximum.
          Secondary convergence is 1.0D-12 RMS, and 1.0D-12 maximum.
          NewPWx=T KeepS1=F KeepF1=F KeepIn=T MapXYZ=F SortEE=F KeepMc=T.
         3265 words used for storage of precomputed grid.
 Keep R1 ints in memory in canonical form, NReq=399865264.
 FoFCou: FMM=F IPFlag=           0 FMFlag=           0 FMFlg1=           0
         NFxFlg=           0 DoJE=F BraDBF=F KetDBF=F FulRan=T
         wScrn=  0.000000 ICntrl=       600 IOpCl=  0 I1Cent=           0 NGrid=           0
         NMat0=    1 NMatS0=  27495 NMatT0=    0 NMatD0=    1 NMtDS0=    0 NMtDT0=    0
 Symmetry not used in FoFCou.
 Two-electron integral symmetry not used.
          MDV=     671088640 using IRadAn=       1.
          Solving linear equations simultaneously, MaxMat=       0.
          There are    36 degrees of freedom in the 1st order CPHF.  IDoFFX=6 NUNeed=     0.
     30 vectors produced by pass  0 Test12= 1.19D-14 2.78D-09 XBig12= 5.87D-02 7.85D-02.
 AX will form    30 AO Fock derivatives at one time.
     30 vectors produced by pass  1 Test12= 1.19D-14 2.78D-09 XBig12= 1.25D-02 2.90D-02.
     30 vectors produced by pass  2 Test12= 1.19D-14 2.78D-09 XBig12= 5.08D-04 4.49D-03.
     30 vectors produced by pass  3 Test12= 1.19D-14 2.78D-09 XBig12= 7.45D-06 4.14D-04.
     30 vectors produced by pass  4 Test12= 1.19D-14 2.78D-09 XBig12= 6.39D-08 3.50D-05.
     30 vectors produced by pass  5 Test12= 1.19D-14 2.78D-09 XBig12= 3.35D-10 1.71D-06.
     20 vectors produced by pass  6 Test12= 1.19D-14 2.78D-09 XBig12= 1.42D-12 1.34D-07.
      3 vectors produced by pass  7 Test12= 1.19D-14 2.78D-09 XBig12= 5.18D-15 8.30D-09.
 InvSVY:  IOpt=1 It=  1 EMax= 1.22D-15
 Solved reduced A of dimension   203 with    30 vectors.
 End of Minotr F.D. properties file   721 does not exist.
 End of Minotr F.D. properties file   722 does not exist.
 End of Minotr F.D. properties file   788 does not exist.
 Leave Link 1002 at Tue Sep 24 09:53:42 2019, MaxMem=   671088640 cpu:            1503.8 elap:             752.1
 (Enter /shared/centos7/gaussian/g16/l601.exe)
 Copying SCF densities to generalized density rwf, IOpCl= 0 IROHF=0.

 **********************************************************************

            Population analysis using the SCF density.

 **********************************************************************

 Orbital symmetries:
       Occupied  (A) (A) (A) (A) (A) (A) (A) (A) (A) (A) (A) (A)
                 (A) (A) (A) (A) (A) (A) (A) (A)
       Virtual   (A) (A) (A) (A) (A) (A) (A) (A) (A) (A) (A) (A)
                 (A) (A) (A) (A) (A) (A) (A) (A) (A) (A) (A) (A)
                 (A) (A) (A) (A) (A) (A) (A) (A) (A) (A) (A) (A)
                 (A) (A) (A) (A) (A) (A) (A) (A) (A) (A) (A) (A)
                 (A) (A) (A) (A) (A) (A) (A) (A) (A) (A) (A) (A)
                 (A) (A) (A) (A) (A) (A) (A) (A) (A) (A) (A) (A)
                 (A) (A) (A) (A) (A) (A) (A) (A) (A) (A) (A) (A)
                 (A) (A) (A) (A) (A) (A) (A) (A) (A) (A) (A) (A)
                 (A) (A) (A) (A) (A) (A) (A) (A) (A) (A) (A) (A)
                 (A) (A) (A) (A) (A) (A) (A) (A) (A) (A) (A) (A)
                 (A) (A) (A) (A) (A) (A) (A) (A) (A) (A) (A) (A)
                 (A) (A) (A) (A) (A) (A) (A) (A) (A) (A) (A) (A)
                 (A) (A) (A) (A) (A) (A) (A) (A) (A) (A) (A) (A)
                 (A) (A) (A) (A) (A) (A) (A) (A) (A) (A) (A) (A)
                 (A) (A) (A) (A) (A) (A) (A) (A) (A) (A) (A) (A)
                 (A) (A) (A) (A) (A) (A) (A) (A) (A) (A) (A) (A)
                 (A) (A) (A) (A) (A) (A) (A) (A) (A) (A) (A) (A)
                 (A) (A) (A) (A) (A) (A) (A) (A) (A) (A)
 The electronic state is 1-A.
 Alpha  occ. eigenvalues --  -19.65496 -19.64991 -10.60537 -10.58924 -10.57960
 Alpha  occ. eigenvalues --   -1.18509  -1.15971  -0.86061  -0.78870  -0.68580
 Alpha  occ. eigenvalues --   -0.60371  -0.58761  -0.54382  -0.52144  -0.48768
 Alpha  occ. eigenvalues --   -0.47679  -0.44917  -0.42388  -0.36866  -0.28529
 Alpha virt. eigenvalues --    0.05005   0.07858   0.09495   0.11448   0.12248
 Alpha virt. eigenvalues --    0.12487   0.14118   0.15114   0.21097   0.27020
 Alpha virt. eigenvalues --    0.30393   0.31872   0.32785   0.36012   0.36316
 Alpha virt. eigenvalues --    0.37751   0.38966   0.41667   0.44087   0.45455
 Alpha virt. eigenvalues --    0.46478   0.47049   0.48158   0.48905   0.52981
 Alpha virt. eigenvalues --    0.54577   0.55762   0.56590   0.60049   0.62632
 Alpha virt. eigenvalues --    0.66912   0.67913   0.69552   0.71822   0.76820
 Alpha virt. eigenvalues --    0.77507   0.80110   0.83847   0.85170   0.87410
 Alpha virt. eigenvalues --    0.91132   0.92909   0.96583   1.01154   1.02586
 Alpha virt. eigenvalues --    1.02660   1.04452   1.07353   1.09492   1.12168
 Alpha virt. eigenvalues --    1.14408   1.16324   1.19562   1.20260   1.23484
 Alpha virt. eigenvalues --    1.28342   1.29001   1.31068   1.32887   1.34371
 Alpha virt. eigenvalues --    1.37458   1.40727   1.42297   1.43460   1.49334
 Alpha virt. eigenvalues --    1.51605   1.54062   1.57975   1.64128   1.83455
 Alpha virt. eigenvalues --    1.84617   1.93617   1.97989   1.99797   2.03553
 Alpha virt. eigenvalues --    2.07284   2.09126   2.12928   2.15938   2.17146
 Alpha virt. eigenvalues --    2.19174   2.24934   2.26822   2.31259   2.36440
 Alpha virt. eigenvalues --    2.37308   2.46458   2.50728   2.53283   2.57629
 Alpha virt. eigenvalues --    2.61187   2.68303   2.72114   2.72404   2.76802
 Alpha virt. eigenvalues --    2.77945   2.80253   2.81153   2.84101   2.88209
 Alpha virt. eigenvalues --    2.90233   2.91948   2.94425   2.97448   2.98534
 Alpha virt. eigenvalues --    3.00147   3.01509   3.03523   3.05951   3.07321
 Alpha virt. eigenvalues --    3.08938   3.13179   3.17789   3.19374   3.19751
 Alpha virt. eigenvalues --    3.23268   3.24756   3.26625   3.29220   3.29519
 Alpha virt. eigenvalues --    3.30164   3.31601   3.35107   3.37634   3.42050
 Alpha virt. eigenvalues --    3.44669   3.48959   3.52508   3.53719   3.56140
 Alpha virt. eigenvalues --    3.59592   3.64339   3.66028   3.66332   3.69484
 Alpha virt. eigenvalues --    3.71764   3.74205   3.75301   3.78001   3.81324
 Alpha virt. eigenvalues --    3.81862   3.85429   3.87052   3.91892   3.92544
 Alpha virt. eigenvalues --    3.95311   3.99472   4.06267   4.08215   4.10509
 Alpha virt. eigenvalues --    4.11250   4.13756   4.16769   4.17525   4.24679
 Alpha virt. eigenvalues --    4.30155   4.32143   4.37069   4.39530   4.47106
 Alpha virt. eigenvalues --    4.54173   4.56897   4.58278   4.66477   4.69943
 Alpha virt. eigenvalues --    4.73581   4.74422   4.79404   4.82953   4.89686
 Alpha virt. eigenvalues --    4.92606   4.93597   4.97962   5.00653   5.02721
 Alpha virt. eigenvalues --    5.04268   5.05529   5.13898   5.19890   5.27923
 Alpha virt. eigenvalues --    5.37147   5.42078   5.48768   5.51893   5.57809
 Alpha virt. eigenvalues --    5.67598   5.73391   5.76372   5.81864   5.83257
 Alpha virt. eigenvalues --    5.95330   6.14845   6.19193   6.28049   6.32682
 Alpha virt. eigenvalues --    6.34902   6.54347   6.59339   6.66918   6.73574
 Alpha virt. eigenvalues --    6.74500   6.78029   6.81401   6.97941   7.02327
 Alpha virt. eigenvalues --    7.13191   7.20236   7.25521   7.32154   9.91186
 Alpha virt. eigenvalues --   10.92854  11.86788  12.97735  14.03074
          Condensed to atoms (all electrons):
               1          2          3          4          5          6
     1  O    7.873058   0.000823   0.291646   0.340644  -0.069326  -0.038380
     2  O    0.000823   7.789950   0.001700  -0.077289   0.340902   0.000372
     3  C    0.291646   0.001700   4.767686  -0.081513  -0.016358   0.394868
     4  C    0.340644  -0.077289  -0.081513   5.024523   0.517245   0.006245
     5  C   -0.069326   0.340902  -0.016358   0.517245   4.948986  -0.001148
     6  H   -0.038380   0.000372   0.394868   0.006245  -0.001148   0.591434
     7  H   -0.040049  -0.001363   0.389895  -0.002185   0.005584  -0.041005
     8  H   -0.042067  -0.000445   0.397456  -0.009242   0.006770  -0.029008
     9  H   -0.046472   0.004272   0.004761   0.419359  -0.082219   0.001185
    10  H    0.003606  -0.034944  -0.000326  -0.055299   0.399893   0.000109
    11  H    0.003421   0.335727   0.008853  -0.016844  -0.037709   0.000734
               7          8          9         10         11
     1  O   -0.040049  -0.042067  -0.046472   0.003606   0.003421
     2  O   -0.001363  -0.000445   0.004272  -0.034944   0.335727
     3  C    0.389895   0.397456   0.004761  -0.000326   0.008853
     4  C   -0.002185  -0.009242   0.419359  -0.055299  -0.016844
     5  C    0.005584   0.006770  -0.082219   0.399893  -0.037709
     6  H   -0.041005  -0.029008   0.001185   0.000109   0.000734
     7  H    0.663235  -0.056250  -0.001229  -0.000100   0.000859
     8  H   -0.056250   0.624858   0.001955  -0.000996  -0.005205
     9  H   -0.001229   0.001955   0.569483  -0.002112  -0.000162
    10  H   -0.000100  -0.000996  -0.002112   0.526636   0.006663
    11  H    0.000859  -0.005205  -0.000162   0.006663   0.427547
 Mulliken charges:
               1
     1  O   -0.276903
     2  O   -0.359706
     3  C   -0.158668
     4  C   -0.065643
     5  C   -0.012620
     6  H    0.114594
     7  H    0.082609
     8  H    0.112173
     9  H    0.131180
    10  H    0.156870
    11  H    0.276115
 Sum of Mulliken charges =  -0.00000
 Mulliken charges with hydrogens summed into heavy atoms:
               1
     1  O   -0.276903
     2  O   -0.083591
     3  C    0.150707
     4  C    0.065537
     5  C    0.144250
 APT charges:
               1
     1  O   -0.173095
     2  O   -0.322857
     3  C   -0.857271
     4  C   -0.473508
     5  C   -0.358405
     6  H    0.461713
     7  H    0.286609
     8  H    0.213623
     9  H    0.426105
    10  H    0.492024
    11  H    0.305061
 Sum of APT charges =  -0.00000
 APT charges with hydrogens summed into heavy atoms:
               1
     1  O   -0.173095
     2  O   -0.017795
     3  C    0.104675
     4  C   -0.047403
     5  C    0.133618
 Electronic spatial extent (au):  <R**2>=            422.6535
 Charge=             -0.0000 electrons
 Dipole moment (field-independent basis, Debye):
    X=             -1.0274    Y=             -0.5674    Z=              1.2551  Tot=              1.7184
 Quadrupole moment (field-independent basis, Debye-Ang):
   XX=            -31.2879   YY=            -28.2363   ZZ=            -32.2183
   XY=              4.5504   XZ=             -0.3991   YZ=              1.3442
 Traceless Quadrupole moment (field-independent basis, Debye-Ang):
   XX=             -0.7071   YY=              2.3445   ZZ=             -1.6375
   XY=              4.5504   XZ=             -0.3991   YZ=              1.3442
 Octapole moment (field-independent basis, Debye-Ang**2):
  XXX=             -3.7643  YYY=             -1.9430  ZZZ=             -2.1443  XYY=             -1.4582
  XXY=              3.0471  XXZ=              4.2576  XZZ=             -0.0547  YZZ=             -2.4232
  YYZ=             -0.3830  XYZ=              0.1545
 Hexadecapole moment (field-independent basis, Debye-Ang**3):
 XXXX=           -310.1238 YYYY=           -146.0745 ZZZZ=            -52.5630 XXXY=             10.4737
 XXXZ=              1.5947 YYYX=             -5.3835 YYYZ=              5.1663 ZZZX=              0.5153
 ZZZY=             -0.6908 XXYY=            -86.2691 XXZZ=            -64.2664 YYZZ=            -35.8047
 XXYZ=              2.3168 YYXZ=              1.6104 ZZXY=             -1.3762
 N-N= 1.795712286730D+02 E-N=-9.872842800376D+02  KE= 2.666923417528D+02
  Exact polarizability:   0.000   0.000   0.000   0.000   0.000   0.000
 Approx polarizability:  62.637  -4.148  53.206   1.722   1.516  39.925
 No NMR shielding tensors so no spin-rotation constants.
 Leave Link  601 at Tue Sep 24 09:54:12 2019, MaxMem=   671088640 cpu:              61.2 elap:              30.6
 (Enter /shared/centos7/gaussian/g16/l701.exe)
 SCFChk:  SCF convergence  3.80D-09 required  1.00D-08
 ... and contract with generalized density number  0.
 Compute integral second derivatives.
 Entering OneElI...
 Calculate overlap and kinetic energy integrals
    NBasis = 265  MinDer = 2  MaxDer = 2
 Requested accuracy = 0.1000D-12
 PrmmSu-InSpLW:  IPartL=    0 NPrtUS=   20 NPrtUL=    1 DoSpLW=F IThBeg=    0 IThEnd=   19 NThAct=   20.
 PrsmSu:  NPrtUS=  20 ThrOK=T IAlg=1 NPAlg=1 LenDen=           0 ISkipM=0 DoSpLW=F IThBeg=    0 IThEnd=   19.
 Prism:   IPart=     0 DynPar=F LinDyn=F Incr=           1.
 PRISM was handed    33437996 working-precision words and  3740 shell-pairs
 PRISM was handed    33437996 working-precision words and  3740 shell-pairs
 PRISM was handed    33437996 working-precision words and  3740 shell-pairs
 PRISM was handed    33437996 working-precision words and  3740 shell-pairs
 PRISM was handed    33437996 working-precision words and  3740 shell-pairs
 PRISM was handed    33437996 working-precision words and  3740 shell-pairs
 PRISM was handed    33437996 working-precision words and  3740 shell-pairs
 PRISM was handed    33437996 working-precision words and  3740 shell-pairs
 PRISM was handed    33437996 working-precision words and  3740 shell-pairs
 PRISM was handed    33437996 working-precision words and  3740 shell-pairs
 PRISM was handed    33437996 working-precision words and  3740 shell-pairs
 PRISM was handed    33437996 working-precision words and  3740 shell-pairs
 PRISM was handed    33437996 working-precision words and  3740 shell-pairs
 PRISM was handed    33437996 working-precision words and  3740 shell-pairs
 PRISM was handed    33437996 working-precision words and  3740 shell-pairs
 PRISM was handed    33437996 working-precision words and  3740 shell-pairs
 IPart=  5 NShTot=         196 NBatch=          40 AvBLen=         4.9
 PRISM was handed    33437996 working-precision words and  3740 shell-pairs
 PRISM was handed    33437996 working-precision words and  3740 shell-pairs
 IPart= 14 NShTot=         172 NBatch=          27 AvBLen=         6.4
 PRISM was handed    33437996 working-precision words and  3740 shell-pairs
 IPart=  2 NShTot=         212 NBatch=          52 AvBLen=         4.1
 PRISM was handed    33437996 working-precision words and  3740 shell-pairs
 IPart= 15 NShTot=         170 NBatch=          26 AvBLen=         6.5
 IPart= 17 NShTot=         168 NBatch=          26 AvBLen=         6.5
 IPart=  8 NShTot=         186 NBatch=          31 AvBLen=         6.0
 IPart=  1 NShTot=         222 NBatch=          62 AvBLen=         3.6
 IPart= 18 NShTot=         168 NBatch=          26 AvBLen=         6.5
 IPart=  0 NShTot=         227 NBatch=          67 AvBLen=         3.4
 IPart=  6 NShTot=         195 NBatch=          39 AvBLen=         5.0
 IPart= 12 NShTot=         173 NBatch=          27 AvBLen=         6.4
 IPart= 16 NShTot=         169 NBatch=          26 AvBLen=         6.5
 IPart= 11 NShTot=         177 NBatch=          28 AvBLen=         6.3
 IPart=  7 NShTot=         191 NBatch=          35 AvBLen=         5.5
 IPart=  9 NShTot=         183 NBatch=          30 AvBLen=         6.1
 IPart=  3 NShTot=         209 NBatch=          49 AvBLen=         4.3
 IPart= 10 NShTot=         179 NBatch=          28 AvBLen=         6.4
 IPart=  4 NShTot=         205 NBatch=          46 AvBLen=         4.5
 IPart= 13 NShTot=         172 NBatch=          27 AvBLen=         6.4
 IPart= 19 NShTot=         166 NBatch=          26 AvBLen=         6.4
 PrSmSu:  NxtVal=             21.
 Entering OneElI...
 Calculate potential energy integrals
    NBasis = 265  MinDer = 2  MaxDer = 2
 Requested accuracy = 0.1000D-12
 PrmmSu-InSpLW:  IPartL=    0 NPrtUS=   20 NPrtUL=    1 DoSpLW=F IThBeg=    0 IThEnd=   19 NThAct=   20.
 PrsmSu:  NPrtUS=  20 ThrOK=T IAlg=1 NPAlg=1 LenDen=           0 ISkipM=0 DoSpLW=F IThBeg=    0 IThEnd=   19.
 Prism:   IPart=     0 DynPar=F LinDyn=F Incr=          19.
 PRISM was handed    33454137 working-precision words and  3615 shell-pairs
 PRISM was handed    33454137 working-precision words and  3615 shell-pairs
 PRISM was handed    33454137 working-precision words and  3615 shell-pairs
 PRISM was handed    33454137 working-precision words and  3615 shell-pairs
 PRISM was handed    33454137 working-precision words and  3615 shell-pairs
 PRISM was handed    33454137 working-precision words and  3615 shell-pairs
 PRISM was handed    33454137 working-precision words and  3615 shell-pairs
 PRISM was handed    33454137 working-precision words and  3615 shell-pairs
 PRISM was handed    33454137 working-precision words and  3615 shell-pairs
 PRISM was handed    33454137 working-precision words and  3615 shell-pairs
 PRISM was handed    33454137 working-precision words and  3615 shell-pairs
 PRISM was handed    33454137 working-precision words and  3615 shell-pairs
 PRISM was handed    33454137 working-precision words and  3615 shell-pairs
 PRISM was handed    33454137 working-precision words and  3615 shell-pairs
 PRISM was handed    33454137 working-precision words and  3615 shell-pairs
 PRISM was handed    33454137 working-precision words and  3615 shell-pairs
 PRISM was handed    33454137 working-precision words and  3615 shell-pairs
 PRISM was handed    33454137 working-precision words and  3615 shell-pairs
 PRISM was handed    33454137 working-precision words and  3615 shell-pairs
 PRISM was handed    33454137 working-precision words and  3615 shell-pairs
 IPart=  2 NShTot=        2266 NBatch=         206 AvBLen=        11.0
 IPart= 16 NShTot=        1826 NBatch=         166 AvBLen=        11.0
 IPart= 12 NShTot=        1859 NBatch=         169 AvBLen=        11.0
 IPart=  6 NShTot=        2002 NBatch=         182 AvBLen=        11.0
 IPart= 11 NShTot=        1870 NBatch=         170 AvBLen=        11.0
 IPart= 14 NShTot=        1848 NBatch=         168 AvBLen=        11.0
 IPart= 15 NShTot=        1826 NBatch=         166 AvBLen=        11.0
 IPart= 18 NShTot=        1793 NBatch=         163 AvBLen=        11.0
 IPart= 17 NShTot=        1804 NBatch=         164 AvBLen=        11.0
 IPart=  8 NShTot=        1980 NBatch=         180 AvBLen=        11.0
 IPart= 19 NShTot=        1771 NBatch=         161 AvBLen=        11.0
 IPart=  0 NShTot=        2464 NBatch=         224 AvBLen=        11.0
 IPart= 10 NShTot=        1925 NBatch=         175 AvBLen=        11.0
 IPart=  9 NShTot=        1936 NBatch=         176 AvBLen=        11.0
 IPart=  4 NShTot=        2134 NBatch=         194 AvBLen=        11.0
 IPart= 13 NShTot=        1859 NBatch=         169 AvBLen=        11.0
 IPart=  3 NShTot=        2189 NBatch=         199 AvBLen=        11.0
 IPart=  1 NShTot=        2398 NBatch=         218 AvBLen=        11.0
 IPart=  5 NShTot=        2024 NBatch=         184 AvBLen=        11.0
 IPart=  7 NShTot=        1991 NBatch=         181 AvBLen=        11.0
 PrSmSu:  NxtVal=            381.
 Polarizability after L701:
                1             2             3 
      1  0.000000D+00
      2  0.000000D+00  0.000000D+00
      3  0.000000D+00  0.000000D+00  0.000000D+00
 Dipole Derivatives after L701:
                 1             2             3             4             5 
      1  -0.138917D+00 -0.248137D-01  0.110483D+00  0.471758D-01 -0.201197D+00
      2  -0.140901D+00 -0.217531D+00 -0.612688D-01 -0.735645D+00 -0.610088D+00
      3   0.116167D+00 -0.113793D-01 -0.162836D+00 -0.151742D+00 -0.430748D-01
                 6             7             8             9            10 
      1  -0.389704D-01 -0.924501D+00 -0.410802D+00  0.236886D+00 -0.526708D+00
      2  -0.365588D-01 -0.799440D-02 -0.858968D+00  0.191438D-01 -0.461086D-01
      3  -0.405658D+00  0.625965D-01  0.277195D-01 -0.788342D+00 -0.189129D+00
                11            12            13            14            15 
      1   0.175917D+00 -0.176314D+00 -0.642741D+00 -0.186629D+00 -0.230920D+00
      2  -0.770045D+00 -0.313091D+00  0.730065D-01 -0.448327D+00 -0.470012D-01
      3  -0.304048D+00 -0.123772D+00 -0.186598D+00 -0.116768D+00  0.158523D-01
                16            17            18            19            20 
      1   0.109533D+01 -0.180384D+00 -0.311183D+00  0.435997D-01  0.453878D+00
      2   0.155852D+00  0.130981D+00 -0.647895D-01 -0.247201D-01  0.553465D+00
      3  -0.218126D+00  0.283140D-01  0.158826D+00 -0.304666D-01  0.139761D+00
                21            22            23            24            25 
      1   0.248092D+00 -0.284399D-01  0.131287D+00 -0.170361D+00  0.179269D+00
      2   0.301585D+00 -0.128596D+00  0.209262D+00 -0.182743D+00 -0.606379D-01
      3   0.262762D+00  0.253624D+00 -0.946397D-01  0.460048D+00 -0.497094D-02
                26            27            28            29            30 
      1  -0.142595D-01  0.205105D-02  0.925950D+00  0.433026D+00  0.335660D+00
      2   0.100248D+01  0.197956D+00  0.298986D+00  0.363108D+00  0.138493D+00
      3   0.164515D+00  0.965615D-01  0.220482D+00  0.127427D+00  0.187013D+00
                31            32            33 
      1  -0.300188D-01 -0.176023D+00 -0.542437D-02
      2   0.616760D+00  0.645658D+00  0.482745D-01
      3   0.128163D+00  0.821735D-01  0.299545D+00
 Hessian after L701:
                1             2             3             4             5 
      1  0.607701D+01
      2 -0.404369D+01  0.897784D+01
      3 -0.152911D+01  0.177360D+01  0.125746D+02
      4  0.588432D+00 -0.563805D+00  0.137226D+00  0.782015D+01
      5 -0.469321D+00 -0.125605D+00 -0.462235D-01  0.305096D-01  0.456957D+01
      6  0.141547D+00 -0.639497D-01 -0.390471D+00 -0.576401D-01 -0.208211D+01
      7 -0.602344D+01  0.248492D+01 -0.131478D+01  0.524133D+00 -0.333072D-01
      8  0.229764D+01 -0.180538D+01 -0.312095D+01 -0.154842D+00 -0.300562D+00
      9 -0.118159D+01 -0.307463D+01 -0.557499D+01 -0.709221D-01 -0.892529D-03
     10 -0.160427D+01  0.314750D+01  0.271051D+01  0.281330D+00 -0.304100D+00
     11  0.334521D+01 -0.681637D+01  0.100131D+01 -0.205907D+00 -0.739744D-01
     12  0.257869D+01  0.952643D+00 -0.701629D+01 -0.136465D+00 -0.884714D-01
     13  0.578821D+00 -0.339095D+00 -0.156531D+00 -0.781379D+01 -0.117024D+01
     14 -0.433047D+00 -0.136008D+00 -0.144076D+00 -0.147440D+01  0.273936D+00
     15 -0.116053D+00 -0.956566D-01 -0.489889D-03 -0.276585D+00  0.187677D+01
     16  0.198268D+00 -0.154441D+00 -0.643052D-01  0.708693D-01 -0.648075D-02
     17 -0.164824D+00 -0.154568D+00  0.111165D+00 -0.830395D-02 -0.133822D-01
     18 -0.402801D-01  0.106409D+00  0.779840D-01 -0.227391D-01  0.271045D-03
     19  0.246149D-01 -0.177581D+00  0.644140D-01  0.611712D-01  0.263571D-01
     20 -0.146762D+00  0.171033D-01  0.306931D+00  0.667186D-01 -0.159744D-01
     21  0.415025D-01  0.297242D+00  0.109539D+00  0.345929D-01  0.962901D-02
     22  0.167195D+00 -0.109801D+00  0.160106D+00  0.426438D-01 -0.406266D-02
     23 -0.580523D-01 -0.711632D-01  0.944413D-01  0.750842D-02 -0.488888D-01
     24  0.113622D+00  0.106093D+00  0.179107D+00 -0.912910D-01 -0.612609D-02
     25 -0.102543D+00 -0.223040D+00 -0.666561D-01 -0.148691D-01 -0.602140D-01
     26 -0.229236D+00  0.634172D-01  0.143620D-01 -0.994806D-01  0.132339D+00
     27 -0.740220D-01 -0.109897D-01  0.127161D+00 -0.252648D-01  0.351422D-01
     28  0.136402D+00  0.318705D-01  0.624581D-01  0.139386D+00 -0.119485D-02
     29  0.537691D-01 -0.328095D-01  0.146835D-01 -0.292433D-01 -0.221523D+00
     30  0.635431D-01  0.701461D-02 -0.113216D-01  0.224124D-01 -0.496896D-01
     31 -0.404832D-01 -0.528344D-01 -0.333052D-02 -0.169946D+01  0.199205D+01
     32 -0.151692D+00  0.835476D-01 -0.523964D-02  0.243125D+01 -0.417594D+01
     33  0.214842D-02  0.222675D-02 -0.748801D-01  0.486675D+00  0.351702D+00
                6             7             8             9            10 
      6  0.139253D+02
      7 -0.650132D-01  0.131462D+02
      8  0.120750D-01 -0.205224D+01  0.106637D+02
      9 -0.290889D+00  0.121670D+01  0.253709D+01  0.141975D+02
     10 -0.201309D+00  0.193466D+00  0.235285D+00 -0.113796D+00  0.729568D+01
     11 -0.546476D-01  0.184060D+00  0.971827D-01 -0.962472D-01  0.650312D+00
     12  0.212196D+00 -0.933344D-01 -0.999582D-01 -0.237791D-01 -0.384400D+01
     13 -0.205412D+00  0.147780D+00  0.138512D+00 -0.495918D-01 -0.221284D+01
     14  0.185683D+01  0.131911D+00 -0.941403D-01 -0.278743D-01 -0.370565D+01
     15 -0.777292D+01 -0.100475D+00 -0.292646D-01 -0.126688D+00  0.165805D+01
     16 -0.128467D-01 -0.133361D+01 -0.238022D+00 -0.706793D+00  0.128710D+00
     17  0.165735D-02 -0.156280D+00 -0.330449D+01  0.584967D-01  0.553985D-01
     18 -0.136327D-01 -0.696640D+00  0.897647D-01 -0.307437D+01 -0.358895D-01
     19  0.141755D-02 -0.346547D+01  0.356408D-01  0.453612D-01 -0.427153D-01
     20  0.425983D-02 -0.114131D+00 -0.166804D+01  0.115462D+01  0.201097D-01
     21 -0.279697D-01 -0.403226D-01  0.107336D+01 -0.280078D+01  0.109125D-01
     22 -0.187811D-01 -0.324788D+01 -0.285104D+00  0.890233D+00  0.552472D-02
     23 -0.212006D-02 -0.426896D+00 -0.364381D+01 -0.591199D+00  0.320183D-01
     24 -0.216265D-01  0.113557D+01 -0.498196D+00 -0.216616D+01 -0.289790D-01
     25 -0.207270D-01 -0.817768D-02  0.561082D-01 -0.135755D-02 -0.380607D+01
     26  0.416495D-01  0.834251D-01  0.107571D+00  0.938035D-02 -0.148005D+00
     27 -0.280370D-01  0.811150D-02  0.133517D-01 -0.475039D-01 -0.310917D-01
     28  0.383091D-01  0.303143D-01  0.124495D-01  0.661096D-02 -0.261900D+00
     29 -0.500419D-01  0.220129D-01 -0.666601D-02  0.458074D-02  0.459309D-01
     30  0.656983D-01  0.462079D-02  0.109563D-02 -0.109574D-01 -0.120736D+00
     31  0.400455D+00  0.366981D-01 -0.454252D-01 -0.348478D-01  0.230943D-01
     32  0.336399D+00 -0.123471D+00 -0.453776D-01  0.266751D-01 -0.287955D-01
     33 -0.565768D+01 -0.544303D-01  0.216315D-01 -0.813642D-01 -0.366471D-02
               11            12            13            14            15 
     11  0.152049D+02
     12 -0.196280D+01  0.221549D+02
     13 -0.407676D+01  0.164148D+01  0.113559D+02
     14 -0.710150D+01  0.565733D+00  0.411780D+01  0.103785D+02
     15  0.484714D+00 -0.117361D+02 -0.189963D+01 -0.255620D+01  0.229358D+02
     16  0.708110D-01 -0.222334D-01  0.219493D-01 -0.536754D-02  0.438962D-02
     17 -0.194100D-01 -0.206595D-02 -0.398933D-02 -0.133713D-01  0.704499D-03
     18 -0.163218D-01 -0.437328D-01 -0.978845D-03  0.285277D-02 -0.938884D-02
     19  0.476032D-02  0.980579D-02  0.555697D-01  0.739349D-01  0.140353D-01
     20  0.536329D-01  0.312712D-01  0.101508D+00  0.337346D-01  0.161289D-01
     21  0.359851D-01 -0.558487D-02  0.293985D-01  0.194464D-01 -0.273533D-01
     22  0.196573D-02  0.342561D-02  0.388408D-01  0.596178D-01 -0.239759D-01
     23 -0.368350D-01  0.417264D-03  0.837006D-01 -0.200556D-01 -0.226332D-01
     24 -0.120576D-01  0.341710D-02 -0.703771D-01 -0.334101D-01 -0.385523D-01
     25 -0.100585D+00 -0.201419D-01  0.415489D-01  0.302313D+00  0.691054D-01
     26 -0.135757D+01  0.629677D+00  0.356440D+00 -0.192531D+00 -0.807373D-01
     27  0.631125D+00 -0.367408D+01  0.791502D-01 -0.712139D-01  0.213522D+00
     28  0.709220D-01 -0.126100D+00 -0.226082D+01  0.904313D+00  0.668444D+00
     29  0.181212D+00  0.254670D-01  0.923741D+00 -0.323882D+01  0.403386D+00
     30  0.339390D-01  0.101164D+00  0.669399D+00  0.396239D+00 -0.349559D+01
     31  0.552041D-01  0.887622D-02  0.470362D-01  0.285789D-01  0.269470D-02
     32 -0.131288D+00 -0.519150D-01 -0.131622D+00  0.110210D+00  0.279010D-02
     33 -0.450005D-01  0.279280D-01 -0.369087D-01 -0.832375D-02  0.577860D-01
               16            17            18            19            20 
     16  0.105132D+01
     17  0.956298D-01  0.342719D+01
     18  0.774708D+00 -0.797350D-01  0.298617D+01
     19  0.215232D-02  0.126506D+00  0.121262D+00  0.319807D+01
     20  0.149822D+00 -0.467445D-02 -0.124273D+00  0.444862D-02  0.148762D+01
     21  0.124757D+00 -0.105945D+00  0.915946D-02 -0.666649D-01 -0.114538D+01
     22 -0.163315D+00  0.473650D-01 -0.935774D-01  0.147113D+00 -0.786357D-01
     23  0.695752D-01  0.764173D-01  0.234961D-01 -0.811382D-01  0.122779D+00
     24 -0.939611D-01  0.153517D-01  0.784103D-01 -0.188725D+00 -0.243064D+00
     25  0.961052D-02  0.101186D-01 -0.205203D-02 -0.212742D-02 -0.753987D-02
     26  0.252331D-01  0.850118D-02 -0.455454D-02 -0.750561D-02 -0.699385D-02
     27  0.521767D-03 -0.441706D-03 -0.561415D-02 -0.161105D-02 -0.197397D-02
     28  0.112995D-01  0.110728D-02 -0.174821D-02  0.119286D-02  0.617383D-02
     29  0.554242D-02 -0.267196D-03 -0.110843D-02  0.159152D-02  0.341387D-02
     30  0.173844D-02 -0.501096D-03 -0.143380D-02  0.808103D-03  0.235860D-02
     31  0.274102D-02 -0.272744D-02 -0.206486D-02  0.204303D-01 -0.171177D-02
     32 -0.123026D-01 -0.193589D-02  0.319890D-02 -0.701480D-02 -0.226067D-01
     33 -0.597616D-02  0.131368D-02 -0.355306D-02 -0.102426D-03 -0.885362D-03
               21            22            23            24            25 
     21  0.301947D+01
     22 -0.137236D+00  0.303763D+01
     23 -0.184328D+00  0.359588D+00  0.358316D+01
     24 -0.262991D+00 -0.796263D+00  0.693113D+00  0.224380D+01
     25 -0.245183D-03 -0.561921D-02  0.112958D-01 -0.416630D-02  0.390687D+01
     26  0.144143D-02  0.739746D-02  0.334143D-01 -0.201093D-01  0.537508D-03
     27  0.191495D-02 -0.250619D-02 -0.724510D-02 -0.623815D-02  0.454339D-01
     28  0.355099D-02 -0.848368D-02 -0.933235D-03 -0.320531D-02 -0.152507D-01
     29  0.251739D-02 -0.480379D-02  0.126227D-03 -0.243919D-02  0.128025D-01
     30  0.378091D-03  0.427020D-03  0.102294D-02 -0.134683D-02  0.103241D-02
     31 -0.245829D-03 -0.136463D-01  0.333273D-02  0.277755D-01 -0.337204D-02
     32 -0.397457D-02  0.647326D-02  0.485755D-02  0.844853D-03 -0.179695D-02
     33 -0.157826D-01  0.181487D-01 -0.496508D-02 -0.781983D-02 -0.225581D-03
               26            27            28            29            30 
     26  0.120720D+01
     27 -0.592972D+00  0.342486D+01
     28 -0.374446D-04 -0.731640D-03  0.220098D+01
     29 -0.823369D-02  0.274683D-02 -0.109223D+01  0.327082D+01
     30 -0.533860D-03 -0.405964D-02 -0.669016D+00 -0.423381D+00  0.336921D+01
     31  0.112316D-01  0.200993D-02  0.268794D-01  0.608877D-01  0.257705D-01
     32  0.128911D-01  0.247089D-02  0.675603D-01  0.527444D-01  0.324359D-01
     33  0.239695D-02 -0.192299D-02  0.214282D-01  0.235889D-01 -0.117385D-01
               31            32            33 
     31  0.160008D+01
     32 -0.204859D+01  0.411289D+01
     33 -0.427093D+00 -0.343685D+00  0.576902D+01
 Leave Link  701 at Tue Sep 24 09:54:43 2019, MaxMem=   671088640 cpu:              36.3 elap:              31.2
 (Enter /shared/centos7/gaussian/g16/l702.exe)
 L702 exits ... SP integral derivatives will be done elsewhere.
 Leave Link  702 at Tue Sep 24 09:54:44 2019, MaxMem=   671088640 cpu:               1.6 elap:               0.8
 (Enter /shared/centos7/gaussian/g16/l703.exe)
 Integral derivatives from FoFJK, PRISM(SPDF).
 Compute integral second derivatives, UseDBF=F ICtDFT=           0.
 ICntrl=    100147.
 Calling FoFJK, ICntrl=    100147 FMM=F ISym2X=0 I1Cent= 0 IOpClX= 0 NMat=1 NMatS=1 NMatT=0.
 FoFJK:  IHMeth= 1 ICntrl=  100147 DoSepK=F KAlg= 0 I1Cent=           0 FoldK=F
 IRaf=         0 NMat=       1 IRICut=       1 DoRegI=T DoRafI=F ISym2E= 0 IDoP0=0 IntGTp=1.
 FoFCou: FMM=F IPFlag=           0 FMFlag=      100000 FMFlg1=         800
         NFxFlg=           0 DoJE=F BraDBF=F KetDBF=F FulRan=T
         wScrn=  0.000000 ICntrl=    100147 IOpCl=  0 I1Cent=           0 NGrid=           0
         NMat0=    1 NMatS0=      1 NMatT0=    0 NMatD0=    1 NMtDS0=    0 NMtDT0=    0
 Symmetry not used in FoFCou.
 FoFCou:  KetSym=F NOpSet=  1 NOpAb=1 NOp=  1.
 FoFCou:  CnvScl= 1.00D+00 Thresh= 1.00D-08 IAcrcy=      12.
 PrismS was handed   670738238 working-precision words and  3689 shell-pairs
 FoFCou: LinMIO=F DoNuc=F BraDBF=F KetDBF=F HaveP=T PDBF=F HaveZ=T HaveW=F
         NIJTC =      10 NIJTAt=       0 NIJTCD=       0 NIJTT =      10
         IJTBeg=       1 IJTEnd=      10 KLTBeg=       1 KLTEnd=      10
         IPTBeg=       1 IPTEnd=      10 IPTBCv=       1 IPTECv=      10
         IZTBeg=       1 IZTEnd=      10 IZTBCv=       1 IZTECv=      10
         IWTBeg=      11 IWTEnd=      10 IWTBCv=      11 IWTECv=      10
         INTBeg=       1 INTEnd=       0 IFTBCv=       1 IFTECv=      10
 NCel replicated for PrismC:     1
 CoulSu-InSpLW:  IPartL=    0 NPrtUS=   20 NPrtUL=    1 DoSpLW=F IThBeg=    0 IThEnd=   19 NThAct=   20.
 CoulSu:  IncDef=  1024 NBBP=        6806205 NTPThr=   100 NPartT=   20 Incr=        1024 LDynOK=F GPUOK=T.
 CoulSu:  NPrtUS=  20 ThrOK=T IAlg=1 NPAlg=1 LenDen=           0 LWGrdD=           0 DoCopy=F ISkipM=0
          DoSpLW=F IThBeg=    0 IThEnd=   19.
 Enter PrismC:  IPart=  0 JobTyp=22 DoJE=F Cont=F.
 PrismC:  IPart=     0 DynPar=T LinDyn=F Incr=        1024 UseFst=F UseS4=T ISplat=2.
 PrismC was handed    33455095 working-precision words and  3689 shell-pairs
 Enter PrismC:  IPart=  5 JobTyp=22 DoJE=F Cont=F.
 PrismC:  IPart=     5 DynPar=T LinDyn=F Incr=        1024 UseFst=F UseS4=T ISplat=2.
 PrismC was handed    33455095 working-precision words and  3689 shell-pairs
 Enter PrismC:  IPart= 12 JobTyp=22 DoJE=F Cont=F.
 PrismC:  IPart=    12 DynPar=T LinDyn=F Incr=        1024 UseFst=F UseS4=T ISplat=2.
 PrismC was handed    33455095 working-precision words and  3689 shell-pairs
 Enter PrismC:  IPart=  2 JobTyp=22 DoJE=F Cont=F.
 PrismC:  IPart=     2 DynPar=T LinDyn=F Incr=        1024 UseFst=F UseS4=T ISplat=2.
 PrismC was handed    33455095 working-precision words and  3689 shell-pairs
 Enter PrismC:  IPart= 11 JobTyp=22 DoJE=F Cont=F.
 PrismC:  IPart=    11 DynPar=T LinDyn=F Incr=        1024 UseFst=F UseS4=T ISplat=2.
 PrismC was handed    33455095 working-precision words and  3689 shell-pairs
 Enter PrismC:  IPart=  4 JobTyp=22 DoJE=F Cont=F.
 PrismC:  IPart=     4 DynPar=T LinDyn=F Incr=        1024 UseFst=F UseS4=T ISplat=2.
 PrismC was handed    33455095 working-precision words and  3689 shell-pairs
 Enter PrismC:  IPart= 18 JobTyp=22 DoJE=F Cont=F.
 PrismC:  IPart=    18 DynPar=T LinDyn=F Incr=        1024 UseFst=F UseS4=T ISplat=2.
 PrismC was handed    33455095 working-precision words and  3689 shell-pairs
 Enter PrismC:  IPart=  8 JobTyp=22 DoJE=F Cont=F.
 PrismC:  IPart=     8 DynPar=T LinDyn=F Incr=        1024 UseFst=F UseS4=T ISplat=2.
 PrismC was handed    33455095 working-precision words and  3689 shell-pairs
 Enter PrismC:  IPart=  9 JobTyp=22 DoJE=F Cont=F.
 PrismC:  IPart=     9 DynPar=T LinDyn=F Incr=        1024 UseFst=F UseS4=T ISplat=2.
 PrismC was handed    33455095 working-precision words and  3689 shell-pairs
 Enter PrismC:  IPart= 17 JobTyp=22 DoJE=F Cont=F.
 PrismC:  IPart=    17 DynPar=T LinDyn=F Incr=        1024 UseFst=F UseS4=T ISplat=2.
 PrismC was handed    33455095 working-precision words and  3689 shell-pairs
 Enter PrismC:  IPart=  7 JobTyp=22 DoJE=F Cont=F.
 PrismC:  IPart=     7 DynPar=T LinDyn=F Incr=        1024 UseFst=F UseS4=T ISplat=2.
 PrismC was handed    33455095 working-precision words and  3689 shell-pairs
 Enter PrismC:  IPart= 14 JobTyp=22 DoJE=F Cont=F.
 PrismC:  IPart=    14 DynPar=T LinDyn=F Incr=        1024 UseFst=F UseS4=T ISplat=2.
 PrismC was handed    33455095 working-precision words and  3689 shell-pairs
 Enter PrismC:  IPart= 13 JobTyp=22 DoJE=F Cont=F.
 PrismC:  IPart=    13 DynPar=T LinDyn=F Incr=        1024 UseFst=F UseS4=T ISplat=2.
 PrismC was handed    33455095 working-precision words and  3689 shell-pairs
 Enter PrismC:  IPart= 16 JobTyp=22 DoJE=F Cont=F.
 PrismC:  IPart=    16 DynPar=T LinDyn=F Incr=        1024 UseFst=F UseS4=T ISplat=2.
 PrismC was handed    33455095 working-precision words and  3689 shell-pairs
 Enter PrismC:  IPart=  1 JobTyp=22 DoJE=F Cont=F.
 PrismC:  IPart=     1 DynPar=T LinDyn=F Incr=        1024 UseFst=F UseS4=T ISplat=2.
 PrismC was handed    33455095 working-precision words and  3689 shell-pairs
 Enter PrismC:  IPart= 15 JobTyp=22 DoJE=F Cont=F.
 PrismC:  IPart=    15 DynPar=T LinDyn=F Incr=        1024 UseFst=F UseS4=T ISplat=2.
 PrismC was handed    33455095 working-precision words and  3689 shell-pairs
 Enter PrismC:  IPart=  6 JobTyp=22 DoJE=F Cont=F.
 PrismC:  IPart=     6 DynPar=T LinDyn=F Incr=        1024 UseFst=F UseS4=T ISplat=2.
 PrismC was handed    33455095 working-precision words and  3689 shell-pairs
 Enter PrismC:  IPart= 19 JobTyp=22 DoJE=F Cont=F.
 PrismC:  IPart=    19 DynPar=T LinDyn=F Incr=        1024 UseFst=F UseS4=T ISplat=2.
 PrismC was handed    33455095 working-precision words and  3689 shell-pairs
 Enter PrismC:  IPart= 10 JobTyp=22 DoJE=F Cont=F.
 PrismC:  IPart=    10 DynPar=T LinDyn=F Incr=        1024 UseFst=F UseS4=T ISplat=2.
 PrismC was handed    33455095 working-precision words and  3689 shell-pairs
 Enter PrismC:  IPart=  3 JobTyp=22 DoJE=F Cont=F.
 PrismC:  IPart=     3 DynPar=T LinDyn=F Incr=        1024 UseFst=F UseS4=T ISplat=2.
 PrismC was handed    33455095 working-precision words and  3689 shell-pairs
 IPart= 15 NShTot=      175086 NShNF=      175086 NShFF=           0 MinMC=       7
           NShCPU=      175086 NBCPU=        7889 AvBCPU=        22.2
           NShGPU=           0 NBGPU=           0 AvBGPU=         0.0
 IPart=  7 NShTot=      601900 NShNF=      601900 NShFF=           0 MinMC=       7
           NShCPU=      601900 NBCPU=       23979 AvBCPU=        25.1
           NShGPU=           0 NBGPU=           0 AvBGPU=         0.0
 IPart=  1 NShTot=      176804 NShNF=      176804 NShFF=           0 MinMC=       7
           NShCPU=      176804 NBCPU=        7665 AvBCPU=        23.1
           NShGPU=           0 NBGPU=           0 AvBGPU=         0.0
 IPart= 14 NShTot=      172903 NShNF=      172903 NShFF=           0 MinMC=       7
           NShCPU=      172903 NBCPU=        7359 AvBCPU=        23.5
           NShGPU=           0 NBGPU=           0 AvBGPU=         0.0
 IPart= 10 NShTot=      160457 NShNF=      160457 NShFF=           0 MinMC=       7
           NShCPU=      160457 NBCPU=        7555 AvBCPU=        21.2
           NShGPU=           0 NBGPU=           0 AvBGPU=         0.0
 IPart= 12 NShTot=      160885 NShNF=      160885 NShFF=           0 MinMC=       7
           NShCPU=      160885 NBCPU=        7154 AvBCPU=        22.5
           NShGPU=           0 NBGPU=           0 AvBGPU=         0.0
 IPart=  8 NShTot=      594028 NShNF=      594028 NShFF=           0 MinMC=       7
           NShCPU=      594028 NBCPU=       24275 AvBCPU=        24.5
           NShGPU=           0 NBGPU=           0 AvBGPU=         0.0
 IPart=  2 NShTot=      622273 NShNF=      622273 NShFF=           0 MinMC=       7
           NShCPU=      622273 NBCPU=       24750 AvBCPU=        25.1
           NShGPU=           0 NBGPU=           0 AvBGPU=         0.0
 IPart=  9 NShTot=      168229 NShNF=      168229 NShFF=           0 MinMC=       7
           NShCPU=      168229 NBCPU=        7302 AvBCPU=        23.0
           NShGPU=           0 NBGPU=           0 AvBGPU=         0.0
 IPart= 18 NShTot=      207616 NShNF=      207616 NShFF=           0 MinMC=       7
           NShCPU=      207616 NBCPU=        8859 AvBCPU=        23.4
           NShGPU=           0 NBGPU=           0 AvBGPU=         0.0
 IPart=  3 NShTot=      209563 NShNF=      209563 NShFF=           0 MinMC=       7
           NShCPU=      209563 NBCPU=        9059 AvBCPU=        23.1
           NShGPU=           0 NBGPU=           0 AvBGPU=         0.0
 IPart= 11 NShTot=      174284 NShNF=      174284 NShFF=           0 MinMC=       7
           NShCPU=      174284 NBCPU=        7252 AvBCPU=        24.0
           NShGPU=           0 NBGPU=           0 AvBGPU=         0.0
 IPart=  6 NShTot=      163602 NShNF=      163602 NShFF=           0 MinMC=       7
           NShCPU=      163602 NBCPU=        7621 AvBCPU=        21.5
           NShGPU=           0 NBGPU=           0 AvBGPU=         0.0
 IPart=  4 NShTot=      176004 NShNF=      176004 NShFF=           0 MinMC=       7
           NShCPU=      176004 NBCPU=        7614 AvBCPU=        23.1
           NShGPU=           0 NBGPU=           0 AvBGPU=         0.0
 IPart= 13 NShTot=      166479 NShNF=      166479 NShFF=           0 MinMC=       7
           NShCPU=      166479 NBCPU=        7519 AvBCPU=        22.1
           NShGPU=           0 NBGPU=           0 AvBGPU=         0.0
 IPart= 19 NShTot=      168688 NShNF=      168688 NShFF=           0 MinMC=       7
           NShCPU=      168688 NBCPU=        6686 AvBCPU=        25.2
           NShGPU=           0 NBGPU=           0 AvBGPU=         0.0
 IPart= 16 NShTot=      166967 NShNF=      166967 NShFF=           0 MinMC=       7
           NShCPU=      166967 NBCPU=        6534 AvBCPU=        25.6
           NShGPU=           0 NBGPU=           0 AvBGPU=         0.0
 IPart=  0 NShTot=      174896 NShNF=      174896 NShFF=           0 MinMC=       7
           NShCPU=      174896 NBCPU=        7159 AvBCPU=        24.4
           NShGPU=           0 NBGPU=           0 AvBGPU=         0.0
 IPart=  5 NShTot=      167748 NShNF=      167748 NShFF=           0 MinMC=       7
           NShCPU=      167748 NBCPU=        7143 AvBCPU=        23.5
           NShGPU=           0 NBGPU=           0 AvBGPU=         0.0
 IPart= 17 NShTot=      173537 NShNF=      173537 NShFF=           0 MinMC=       7
           NShCPU=      173537 NBCPU=        7287 AvBCPU=        23.8
           NShGPU=           0 NBGPU=           0 AvBGPU=         0.0
 CoulSu:  NxtVal=        7252993 LenVP=       33455096 MinMC=       7.
 ReadGW:  IGet=0 IStart=           1 Next=           1 LGW=           0.
 Remaining memory in FofDFT      639.93 Mw
 CkSvGd:  ISavGI=        -1 IRadAn=       5 IRASav=       5 ISavGd=        -1.
 CalDSu-InSpLW:  IPartL=    0 NPrtUS=   20 NPrtUL=    1 DoSpLW=F IThBeg=    0 IThEnd=   19 NThAct=   20.
 CalDSu:  NPrtUS=  20 ThrOK=T IAlg=1 NPAlg=2 DoDPD=T LenP=       35245 LenD1P=             0 GPUOK=F
          ISkipM=0 DoSpLW=F IThBeg=    0 IThEnd=   19.
 IPart=  0 IRanGd=          0 ScrnBf=T ScrnGd=T RCrit=4.00D+00 DoMicB=T.
 IPart=  2        27465 of        30470 points in      31 batches and      164 microbatches, Max-NSigAt=      11 Max-NSgAt2=      11
 IPart=  9         8043 of         8518 points in       8 batches and       28 microbatches, Max-NSigAt=      11 Max-NSgAt2=      11
 IPart=  8        28308 of        32278 points in      35 batches and      173 microbatches, Max-NSigAt=      11 Max-NSgAt2=      11
 IPart=  5         8831 of        10090 points in      11 batches and       36 microbatches, Max-NSigAt=      11 Max-NSgAt2=      11
 IPart= 16         8213 of         8948 points in       9 batches and       36 microbatches, Max-NSigAt=      11 Max-NSgAt2=      11
 IPart= 10         7156 of         7712 points in       8 batches and       49 microbatches, Max-NSigAt=      11 Max-NSgAt2=      11
 IPart= 13         7602 of         8014 points in       8 batches and       46 microbatches, Max-NSigAt=      11 Max-NSgAt2=      11
 IPart=  7        29033 of        32146 points in      34 batches and      169 microbatches, Max-NSigAt=      11 Max-NSgAt2=      11
 IPart= 15         7557 of         8328 points in       9 batches and       61 microbatches, Max-NSigAt=      11 Max-NSgAt2=      11
 IPart=  0         7529 of         8340 points in       9 batches and       62 microbatches, Max-NSigAt=      11 Max-NSgAt2=      11
 IPart= 18         8421 of         9222 points in      10 batches and       68 microbatches, Max-NSigAt=      11 Max-NSgAt2=      11
 IPart=  4         8462 of         8646 points in       8 batches and       37 microbatches, Max-NSigAt=      11 Max-NSgAt2=      11
 IPart= 17         8863 of         9692 points in      10 batches and       41 microbatches, Max-NSigAt=      11 Max-NSgAt2=      11
 IPart=  3         7810 of         8466 points in       8 batches and       50 microbatches, Max-NSigAt=      11 Max-NSgAt2=      11
 IPart= 11         8923 of         9446 points in       9 batches and       43 microbatches, Max-NSigAt=      11 Max-NSgAt2=      11
 IPart= 19         7968 of         8646 points in       9 batches and       56 microbatches, Max-NSigAt=      11 Max-NSgAt2=      11
 IPart=  1         8142 of         8644 points in       8 batches and       46 microbatches, Max-NSigAt=      11 Max-NSgAt2=      11
 IPart= 14         8388 of         9126 points in      10 batches and       46 microbatches, Max-NSigAt=      11 Max-NSgAt2=      11
 IPart= 12         7984 of         8688 points in      10 batches and       65 microbatches, Max-NSigAt=      11 Max-NSgAt2=      11
 IPart=  6         9643 of        10678 points in      11 batches and       73 microbatches, Max-NSigAt=      11 Max-NSgAt2=      11
 Polarizability after L703:
                1             2             3 
      1  0.000000D+00
      2  0.000000D+00  0.000000D+00
      3  0.000000D+00  0.000000D+00  0.000000D+00
 Dipole Derivatives after L703:
                 1             2             3             4             5 
      1  -0.138917D+00 -0.248137D-01  0.110483D+00  0.471758D-01 -0.201197D+00
      2  -0.140901D+00 -0.217531D+00 -0.612688D-01 -0.735645D+00 -0.610088D+00
      3   0.116167D+00 -0.113793D-01 -0.162836D+00 -0.151742D+00 -0.430748D-01
                 6             7             8             9            10 
      1  -0.389704D-01 -0.924501D+00 -0.410802D+00  0.236886D+00 -0.526708D+00
      2  -0.365588D-01 -0.799440D-02 -0.858968D+00  0.191438D-01 -0.461086D-01
      3  -0.405658D+00  0.625965D-01  0.277195D-01 -0.788342D+00 -0.189129D+00
                11            12            13            14            15 
      1   0.175917D+00 -0.176314D+00 -0.642741D+00 -0.186629D+00 -0.230920D+00
      2  -0.770045D+00 -0.313091D+00  0.730065D-01 -0.448327D+00 -0.470012D-01
      3  -0.304048D+00 -0.123772D+00 -0.186598D+00 -0.116768D+00  0.158523D-01
                16            17            18            19            20 
      1   0.109533D+01 -0.180384D+00 -0.311183D+00  0.435997D-01  0.453878D+00
      2   0.155852D+00  0.130981D+00 -0.647895D-01 -0.247201D-01  0.553465D+00
      3  -0.218126D+00  0.283140D-01  0.158826D+00 -0.304666D-01  0.139761D+00
                21            22            23            24            25 
      1   0.248092D+00 -0.284399D-01  0.131287D+00 -0.170361D+00  0.179269D+00
      2   0.301585D+00 -0.128596D+00  0.209262D+00 -0.182743D+00 -0.606379D-01
      3   0.262762D+00  0.253624D+00 -0.946397D-01  0.460048D+00 -0.497094D-02
                26            27            28            29            30 
      1  -0.142595D-01  0.205105D-02  0.925950D+00  0.433026D+00  0.335660D+00
      2   0.100248D+01  0.197956D+00  0.298986D+00  0.363108D+00  0.138493D+00
      3   0.164515D+00  0.965615D-01  0.220482D+00  0.127427D+00  0.187013D+00
                31            32            33 
      1  -0.300188D-01 -0.176023D+00 -0.542437D-02
      2   0.616760D+00  0.645658D+00  0.482745D-01
      3   0.128163D+00  0.821735D-01  0.299545D+00
 Hessian after L703:
                1             2             3             4             5 
      1  0.353786D+00
      2  0.166040D+00  0.318148D+00
      3  0.782612D-01 -0.839265D-01  0.188336D+00
      4  0.569781D-02 -0.410514D-03  0.209821D-02  0.407580D+00
      5  0.787519D-02  0.180460D-01  0.879586D-02  0.518319D-01  0.448507D+00
      6  0.474106D-02  0.573039D-02 -0.948100D-03  0.227185D-01  0.905158D-01
      7 -0.839547D-01 -0.280436D-01 -0.304548D-02 -0.111445D-02 -0.301897D-02
      8 -0.473520D-01 -0.157860D+00  0.587101D-01 -0.513131D-03 -0.865394D-02
      9  0.204932D-01  0.822286D-01 -0.106329D+00  0.170547D-02  0.343184D-02
     10 -0.214939D+00 -0.770763D-01 -0.661945D-01  0.109375D-02  0.238985D-02
     11 -0.485686D-01 -0.107945D+00 -0.816978D-02  0.415645D-01 -0.546461D-01
     12 -0.859199D-01 -0.251862D-01 -0.822165D-01  0.921233D-02 -0.224322D-01
     13 -0.442857D-01  0.353800D-02 -0.982999D-02 -0.116640D+00  0.592051D-01
     14 -0.332311D-01 -0.510605D-02 -0.770650D-02  0.153072D-01 -0.277488D+00
     15 -0.251761D-01 -0.221828D-02 -0.126742D-02 -0.429692D-02 -0.523373D-01
     16 -0.859596D-02 -0.100722D-01  0.505436D-02  0.294175D-03  0.489111D-03
     17 -0.345010D-01 -0.588969D-02  0.113595D-01  0.808709D-03  0.166527D-02
     18  0.175895D-01  0.919663D-02 -0.286359D-02 -0.352573D-03 -0.100762D-02
     19  0.155002D-02 -0.125070D-01 -0.687677D-02  0.159617D-03  0.117852D-02
     20 -0.115986D-01 -0.311696D-01 -0.384650D-02  0.462946D-03  0.238083D-02
     21  0.999064D-03  0.177768D-01  0.127483D-01  0.709456D-03  0.109470D-02
     22  0.460323D-02 -0.682271D-02  0.115351D-01 -0.881317D-03  0.122274D-03
     23  0.818059D-02 -0.177748D-01  0.282357D-01 -0.233066D-03 -0.734998D-03
     24 -0.320666D-02  0.119301D-01 -0.155456D-01 -0.714299D-03 -0.267474D-02
     25 -0.882015D-02 -0.339570D-01 -0.819528D-02 -0.377899D-02  0.327782D-02
     26 -0.995618D-02 -0.101867D-01 -0.402158D-02  0.233812D-02  0.267021D-02
     27 -0.766705D-02 -0.120873D-01  0.212132D-02 -0.307966D-02 -0.284813D-02
     28 -0.214868D-02  0.358364D-02 -0.130450D-02  0.983576D-02  0.283784D-02
     29  0.438106D-02  0.501547D-03 -0.227495D-02 -0.275216D-01 -0.245465D-01
     30 -0.876589D-03 -0.299278D-02  0.872145D-02 -0.574452D-02 -0.561590D-02
     31 -0.289343D-02 -0.427195D-02 -0.150233D-02 -0.302246D+00 -0.126189D+00
     32 -0.126887D-02 -0.763502D-03  0.284457D-02 -0.836349D-01 -0.107199D+00
     33  0.762421D-03 -0.451475D-03 -0.275709D-02 -0.222560D-01 -0.169224D-01
                6             7             8             9            10 
      6  0.781941D-01
      7  0.123853D-02  0.543295D+00
      8 -0.166721D-02 -0.151456D-01  0.460250D+00
      9 -0.357385D-02  0.585985D-01  0.157874D-01  0.532606D+00
     10 -0.533687D-03 -0.248567D-01 -0.236445D-01  0.233198D-02  0.792083D+00
     11 -0.948494D-02 -0.318519D-01 -0.305377D-01 -0.917633D-02 -0.183013D+00
     12  0.846055D-02  0.153746D-01 -0.100273D-02  0.388703D-02  0.110088D+00
     13  0.487507D-02 -0.176593D-02  0.649595D-02 -0.195278D-02 -0.491551D+00
     14 -0.543679D-01 -0.462063D-03  0.107029D-01 -0.622730D-02  0.225449D+00
     15 -0.599932D-01  0.620670D-03  0.555386D-02  0.323471D-03 -0.467574D-01
     16  0.380297D-03 -0.229744D+00  0.383778D-01  0.458990D-01  0.156543D-03
     17  0.537571D-03  0.456259D-01 -0.603993D-01 -0.138981D-01 -0.215241D-03
     18  0.122210D-04  0.446519D-01 -0.126650D-01 -0.703989D-01 -0.611112D-03
[...]
     Eigenvalues ---    0.04680   0.08686   0.08778   0.10705   0.12082
     Eigenvalues ---    0.13475   0.16484   0.18191   0.18736   0.19826
     Eigenvalues ---    0.22138   0.23301   0.33222   0.33591   0.35088
     Eigenvalues ---    0.36355   0.37354   0.39844   0.45086   0.45698
     Eigenvalues ---    0.53342   0.66236
 Angle between quadratic step and forces=  71.69 degrees.
 Linear search not attempted -- first point.
 Iteration  1 RMS(Cart)=  0.00001126 RMS(Int)=  0.00000000
 Iteration  2 RMS(Cart)=  0.00000000 RMS(Int)=  0.00000000
 ITry= 1 IFail=0 DXMaxC= 3.12D-05 DCOld= 1.00D+10 DXMaxT= 3.00D-01 DXLimC= 3.00D+00 Rises=F
 Variable       Old X    -DE/DX   Delta X   Delta X   Delta X     New X
                                 (Linear)    (Quad)   (Total)
    R1        2.67121  -0.00000   0.00000  -0.00000  -0.00000   2.67120
    R2        2.59481  -0.00000   0.00000  -0.00000  -0.00000   2.59481
    R3        2.56333   0.00000   0.00000   0.00000   0.00000   2.56333
    R4        1.82347  -0.00000   0.00000  -0.00000  -0.00000   1.82347
    R5        2.06653  -0.00000   0.00000  -0.00000  -0.00000   2.06653
    R6        2.05345  -0.00000   0.00000  -0.00000  -0.00000   2.05345
    R7        2.06457   0.00000   0.00000   0.00000   0.00000   2.06457
    R8        2.50502   0.00000   0.00000   0.00000   0.00000   2.50502
    R9        2.04478  -0.00000   0.00000  -0.00000  -0.00000   2.04478
   R10        2.03835   0.00000   0.00000   0.00000   0.00000   2.03835
    A1        1.98208   0.00000   0.00000   0.00000   0.00000   1.98208
    A2        1.87243  -0.00000   0.00000  -0.00000  -0.00000   1.87243
    A3        1.93109  -0.00000   0.00000   0.00000   0.00000   1.93110
    A4        1.87229   0.00000   0.00000   0.00000   0.00000   1.87229
    A5        1.93727  -0.00000   0.00000  -0.00000  -0.00000   1.93727
    A6        1.90554  -0.00000   0.00000  -0.00000  -0.00000   1.90554
    A7        1.90277   0.00000   0.00000   0.00000   0.00000   1.90277
    A8        1.91450   0.00000   0.00000  -0.00000  -0.00000   1.91450
    A9        2.08155  -0.00000   0.00000  -0.00000  -0.00000   2.08155
   A10        2.05343   0.00000   0.00000   0.00000   0.00000   2.05343
   A11        2.14729  -0.00000   0.00000  -0.00000  -0.00000   2.14729
   A12        2.16216  -0.00000   0.00000  -0.00000  -0.00000   2.16215
   A13        1.98815   0.00000   0.00000   0.00000   0.00000   1.98815
   A14        2.13269   0.00000   0.00000   0.00000   0.00000   2.13269
    D1        1.02787   0.00000   0.00000   0.00002   0.00002   1.02789
    D2        3.10482   0.00000   0.00000   0.00001   0.00001   3.10483
    D3       -1.08703   0.00000   0.00000   0.00001   0.00001  -1.08701
    D4        2.45356  -0.00000   0.00000   0.00001   0.00001   2.45357
    D5       -0.73254   0.00000   0.00000   0.00001   0.00001  -0.73253
    D6        0.00098  -0.00000   0.00000  -0.00000  -0.00000   0.00098
    D7       -3.11981   0.00000   0.00000  -0.00000  -0.00000  -3.11981
    D8       -0.03798   0.00000   0.00000   0.00000   0.00000  -0.03797
    D9        3.08114   0.00000   0.00000   0.00000   0.00000   3.08114
   D10       -3.13254   0.00000   0.00000   0.00000   0.00000  -3.13254
   D11       -0.01342   0.00000   0.00000   0.00000   0.00000  -0.01342
         Item               Value     Threshold  Converged?
 Maximum Force            0.000001     0.000015     YES
 RMS     Force            0.000000     0.000010     YES
 Maximum Displacement     0.000031     0.000060     YES
 RMS     Displacement     0.000011     0.000040     YES
 Predicted change in Energy=-8.321210D-12
 Optimization completed.
    -- Stationary point found.
                           ----------------------------
                           !   Optimized Parameters   !
                           ! (Angstroms and Degrees)  !
 --------------------------                            --------------------------
 ! Name  Definition              Value          Derivative Info.                !
 --------------------------------------------------------------------------------
 ! R1    R(1,3)                  1.4135         -DE/DX =    0.0                 !
 ! R2    R(1,4)                  1.3731         -DE/DX =    0.0                 !
 ! R3    R(2,5)                  1.3565         -DE/DX =    0.0                 !
 ! R4    R(2,11)                 0.9649         -DE/DX =    0.0                 !
 ! R5    R(3,6)                  1.0936         -DE/DX =    0.0                 !
 ! R6    R(3,7)                  1.0866         -DE/DX =    0.0                 !
 ! R7    R(3,8)                  1.0925         -DE/DX =    0.0                 !
 ! R8    R(4,5)                  1.3256         -DE/DX =    0.0                 !
 ! R9    R(4,9)                  1.0821         -DE/DX =    0.0                 !
 ! R10   R(5,10)                 1.0786         -DE/DX =    0.0                 !
 ! A1    A(3,1,4)              113.5647         -DE/DX =    0.0                 !
 ! A2    A(5,2,11)             107.2822         -DE/DX =    0.0                 !
 ! A3    A(1,3,6)              110.6436         -DE/DX =    0.0                 !
 ! A4    A(1,3,7)              107.2744         -DE/DX =    0.0                 !
 ! A5    A(1,3,8)              110.9977         -DE/DX =    0.0                 !
 ! A6    A(6,3,7)              109.1796         -DE/DX =    0.0                 !
 ! A7    A(6,3,8)              109.0209         -DE/DX =    0.0                 !
 ! A8    A(7,3,8)              109.6929         -DE/DX =    0.0                 !
 ! A9    A(1,4,5)              119.264          -DE/DX =    0.0                 !
 ! A10   A(1,4,9)              117.653          -DE/DX =    0.0                 !
 ! A11   A(5,4,9)              123.0307         -DE/DX =    0.0                 !
 ! A12   A(2,5,4)              123.8824         -DE/DX =    0.0                 !
 ! A13   A(2,5,10)             113.9125         -DE/DX =    0.0                 !
 ! A14   A(4,5,10)             122.194          -DE/DX =    0.0                 !
 ! D1    D(4,1,3,6)             58.8926         -DE/DX =    0.0                 !
 ! D2    D(4,1,3,7)            177.8929         -DE/DX =    0.0                 !
 ! D3    D(4,1,3,8)            -62.282          -DE/DX =    0.0                 !
 ! D4    D(3,1,4,5)            140.5787         -DE/DX =    0.0                 !
 ! D5    D(3,1,4,9)            -41.9715         -DE/DX =    0.0                 !
 ! D6    D(11,2,5,4)             0.0561         -DE/DX =    0.0                 !
 ! D7    D(11,2,5,10)         -178.7519         -DE/DX =    0.0                 !
 ! D8    D(1,4,5,2)             -2.1759         -DE/DX =    0.0                 !
 ! D9    D(1,4,5,10)           176.5365         -DE/DX =    0.0                 !
 ! D10   D(9,4,5,2)           -179.4814         -DE/DX =    0.0                 !
 ! D11   D(9,4,5,10)            -0.7691         -DE/DX =    0.0                 !
 --------------------------------------------------------------------------------
 GradGradGradGradGradGradGradGradGradGradGradGradGradGradGradGradGradGrad

 Leave Link  103 at Tue Sep 24 13:17:55 2019, MaxMem=   671088640 cpu:             107.9 elap:              54.8
 (Enter /shared/centos7/gaussian/g16/l9999.exe)

 ----------------------------------------------------------------------

 Electric dipole moment (input orientation):
 (Debye = 10**-18 statcoulomb cm , SI units = C m)
                  (au)            (Debye)         (10**-30 SI)
   Tot        0.864540D+00      0.219744D+01      0.732988D+01
   x         -0.264747D+00     -0.672920D+00     -0.224462D+01
   y         -0.516257D+00     -0.131220D+01     -0.437701D+01
   z         -0.640950D+00     -0.162913D+01     -0.543420D+01

 Dipole polarizability, Alpha (input orientation).
 (esu units = cm**3 , SI units = C**2 m**2 J**-1)
 Alpha(0;0):
               (au)            (10**-24 esu)      (10**-40 SI)
   iso        0.445369D+02      0.659969D+01      0.734314D+01
   aniso      0.248252D+02      0.367871D+01      0.409312D+01
   xx         0.381615D+02      0.565495D+01      0.629198D+01
   yx         0.786025D+01      0.116477D+01      0.129598D+01
   yy         0.525251D+02      0.778342D+01      0.866023D+01
   zx        -0.132552D+01     -0.196422D+00     -0.218549D+00
   zy         0.940000D+01      0.139294D+01      0.154985D+01
   zz         0.429240D+02      0.636068D+01      0.707721D+01

 ----------------------------------------------------------------------

 Dipole orientation:
     8         -1.68552692          2.36261185         -1.48378121
     8         -2.42647000          0.22153115         -6.16971580
     6         -2.41399075          2.21853016          1.08213357
     6         -0.24450099          0.35206973         -2.26750345
     6         -0.62259209         -0.60983240         -4.54937339
     1         -0.75227323          2.12600613          2.30715970
     1         -3.47459366          3.92362746          1.51156273
     1         -3.59504331          0.55998252          1.42385428
     1          1.21314849         -0.32147524         -1.00151253
     1          0.52565921         -2.11977330         -5.29534164
     1         -3.31283967          1.58289936         -5.34142977

 Electric dipole moment (dipole orientation):
 (Debye = 10**-18 statcoulomb cm , SI units = C m)
                  (au)            (Debye)         (10**-30 SI)
   Tot        0.864540D+00      0.219744D+01      0.732988D+01
   x          0.000000D+00      0.000000D+00      0.000000D+00
   y          0.000000D+00      0.000000D+00      0.000000D+00
   z          0.864540D+00      0.219744D+01      0.732988D+01

 Dipole polarizability, Alpha (dipole orientation).
 (esu units = cm**3 , SI units = C**2 m**2 J**-1)
 Alpha(0;0):
               (au)            (10**-24 esu)      (10**-40 SI)
   iso        0.445369D+02      0.659969D+01      0.734314D+01
   aniso      0.248252D+02      0.367871D+01      0.409312D+01
   xx         0.385772D+02      0.571656D+01      0.636053D+01
   yx        -0.467880D+01     -0.693327D+00     -0.771430D+00
   yy         0.385366D+02      0.571053D+01      0.635383D+01
   zx         0.104996D+01      0.155588D+00      0.173115D+00
   zy         0.866927D+01      0.128465D+01      0.142937D+01
   zz         0.564968D+02      0.837196D+01      0.931507D+01

 ----------------------------------------------------------------------

 Test job not archived.
 1\1\GINC-C0313\Freq\RM062X\CC-pVTZ\C3H6O2\HARMS.N\24-Sep-2019\0\\#P Ge
 om=AllCheck Guess=TCheck SCRF=Check Test GenChk RM062X/CC-pVTZ Freq\\G
 aussian input prepared by ASE\\0,1\O,-0.4721755064,-0.4316939398,1.601
 8319287\O,-0.2027772786,1.9912210257,2.8837126053\C,-1.2607139477,-1.1
 414014303,0.6676903603\C,0.2645946954,0.5819527115,1.0404605574\C,0.39
 16150197,1.7288102681,1.6929952162\H,-0.6323810221,-1.5819100843,-0.11
 14290191\H,-1.7665743337,-1.9356962625,1.2098912245\H,-1.9995834805,-0
 .4858087561,0.2009201835\H,0.7518295528,0.3843426908,0.0947384444\H,1.
 0034988443,2.5361346242,1.3224442784\H,-0.7051377841,1.20585386,3.1325
 824942\\Version=EM64L-G16RevA.03\State=1-A\HF=-268.3241864\RMSD=2.658e
 -09\RMSF=9.674e-07\ZeroPoint=0.0911284\Thermal=0.0969967\Dipole=-0.264
 747,-0.5162573,-0.6409504\DipoleDeriv=-0.6719351,-0.5992732,-0.1728674
 ,-0.4740274,-1.2089862,-0.3338053,0.0186753,0.0497914,-0.5267958,-0.42
 23402,0.2815526,0.4176337,0.0049595,-0.4007981,-0.0900206,0.1778573,-0
 .5278822,-1.1072493,0.5366044,0.2070074,0.1904907,0.1620097,0.5746975,
 0.2064794,0.2553575,0.3540051,0.5365825,0.1331961,0.4427236,-0.1262535
 ,0.4040046,0.6181836,-0.0275952,-0.3150914,-0.3442945,-0.1331848,0.069
 06,-0.1770355,-0.4830131,-0.005214,0.2276396,0.2522023,-0.269369,0.531
 9707,0.8854628,-0.0587249,0.0527743,0.1048602,0.0058501,0.0022209,-0.0
 524447,0.0171982,-0.114629,-0.0683431,0.0186494,-0.0849232,0.0041041,-
 0.0840237,-0.0525074,0.0228126,0.0418624,0.0665492,0.0084615,-0.063747
 4,0.0113875,-0.068519,0.1117794,-0.0367954,0.0699134,-0.0921508,-0.048
 1589,-0.0168541,0.0926673,-0.0209964,0.0854324,-0.0284662,0.0164687,-0
 .0670577,0.1209067,0.020899,0.0060773,0.0768984,-0.0632093,0.0729029,-
 0.0681963,0.0390222,0.0181772,0.053067,-0.0057914,0.0524174,0.2896722,
 -0.0500079,-0.024771,-0.0286757,0.2208545,0.0013385,-0.0083133,0.01754
 05,0.3634257\Polar=38.1615001,7.8602533,52.525143,-1.3255218,9.3999988
 ,42.924005\Quadrupole=0.4981912,-0.6638563,0.1656652,2.0082459,-1.2797
 067,-0.4907893\PG=C01 [X(C3H6O2)]\NImag=0\\0.26815214,0.22821517,0.370
 88696,0.03111534,0.00894029,0.33215692,0.00128849,0.00845714,-0.009579
 28,0.25096860,0.00308698,0.00301085,-0.00134426,0.19906461,0.46329554,
 -0.01167703,-0.00676947,0.00800106,-0.21417189,-0.01017466,0.38650417,
 -0.11810544,-0.05567841,-0.05161337,-0.00069026,0.00269335,0.00066685,
 0.55666501,-0.04951475,-0.10729695,-0.03880346,-0.00164915,0.00020315,
 0.00347622,-0.00695543,0.57779505,-0.07450562,-0.06756965,-0.16991665,
 -0.00239690,-0.00016106,0.00428994,-0.04751675,-0.05375302,0.54829311,
 -0.11677128,-0.09727957,0.04464215,0.00375835,0.01688080,0.03308543,-0
 .02476595,-0.02824186,0.00541956,0.29936097,-0.10684038,-0.19693733,0.
 04691999,0.00041130,-0.00273629,-0.00937488,-0.02356053,-0.03533320,0.
 00462024,0.15492801,0.74113411,0.06840011,0.07388052,-0.13693164,0.020
 54578,-0.04127515,-0.05133323,-0.01211672,-0.01841981,0.01408658,-0.18
 565367,0.23949802,0.63545830,-0.00660492,-0.04118150,-0.00272653,-0.11
 077109,-0.01190112,0.10234573,0.00071459,-0.00045747,0.00599660,-0.077
 68582,-0.04828863,-0.00224140,0.34318227,-0.02051008,-0.04934128,-0.00
 993560,0.01092899,-0.11290618,-0.07420627,0.00181440,0.00172695,0.0042
 6909,-0.06002929,-0.43810098,-0.19166119,0.21968437,0.81976051,0.01751
 100,0.03140893,0.00605714,0.12051055,-0.03238895,-0.27197643,0.0003932
 6,-0.00183537,-0.00772933,-0.01315327,-0.22038907,-0.19798303,-0.19487
 730,0.17172430,0.57712709,0.01193776,-0.01513895,-0.02091527,0.0001059
 1,-0.00056755,0.00032535,-0.14904603,0.06241510,0.11232531,0.00318321,
 0.00128274,-0.00308295,-0.00018494,0.00001188,-0.00039272,0.15370304,0
 .00015376,-0.01216643,-0.01986206,-0.00028116,-0.00023159,0.00037203,0
 .06002673,-0.08971051,-0.06398021,0.00379308,0.00257613,-0.00325398,-0
 .00021855,-0.00054833,0.00016693,-0.06292903,0.09510454,0.00197847,-0.
 01965879,-0.02612838,-0.00019355,-0.00027961,0.00000833,0.10659607,-0.
 06568093,-0.16955939,0.00215591,0.00401930,-0.00043350,-0.00043809,-0.
 00067620,0.00024740,-0.11296689,0.08315085,0.19373729,-0.01376614,-0.0
 1934375,0.00705322,0.00023500,-0.00003152,-0.00053918,-0.10516936,-0.0
 8509836,0.06221776,-0.00034625,-0.00141343,-0.00353042,-0.00097028,-0.
 00064233,0.00097415,-0.00776829,-0.01386484,0.01065290,0.11530984,-0.0
 1319139,-0.01683416,0.00500742,0.00047486,-0.00002924,-0.00084091,-0.0
 8794154,-0.19164572,0.10197688,-0.00059402,-0.00006857,-0.00419891,-0.
 00125298,0.00008574,0.00153182,0.00657962,0.01152145,-0.00628437,0.104
 67443,0.20992294,-0.01746461,-0.02405479,0.01176538,-0.00007696,0.0002
 3287,-0.00008098,0.07144815,0.11239263,-0.12867511,-0.00151573,-0.0021
 3180,-0.00278879,-0.00086054,-0.00095371,0.00108274,0.00824335,0.01628
 638,-0.00981222,-0.06590524,-0.10838532,0.13360381,-0.01849470,0.00030
 628,-0.01802727,0.00001544,-0.00000261,-0.00009274,-0.16367642,0.10635
 450,-0.06439352,0.00258081,0.00391713,-0.00119113,-0.00028765,-0.00119
 431,0.00031253,-0.01173402,0.01400802,-0.00707769,0.01232225,-0.008767
 61,0.00648162,0.18007613,-0.02034347,0.01145153,-0.01307687,-0.0005924
 5,0.00012090,0.00028578,0.11121265,-0.15769729,0.06927114,0.00047786,0
 .00493688,-0.00077773,0.00124309,-0.00067012,-0.00082312,0.00702527,-0
 .00668151,0.00580796,0.01578724,-0.01246650,0.00713826,-0.11493540,0.1
 6129024,-0.02595491,0.00530188,-0.01717919,0.00072155,-0.00006750,-0.0
 0102883,-0.06436636,0.06446497,-0.09136022,0.00281133,0.00234057,-0.00
 079023,-0.00075109,-0.00072495,0.00137655,0.01556017,-0.01389931,0.010
 92807,-0.01097254,0.01084257,-0.00531484,0.08360043,-0.06797420,0.1033
 6468,-0.01058309,-0.00443248,0.01552763,0.00695441,-0.00447693,0.00366
 095,0.00177758,0.00227459,0.00309748,-0.09207559,0.01904588,0.12044737
 ,0.00310390,0.00105737,-0.00579826,0.00019578,-0.00054297,-0.00056423,
 0.00005632,0.00002933,-0.00053833,-0.00068362,-0.00008131,-0.00016904,
 0.09453554,-0.01805054,-0.00085194,0.02542295,-0.00417196,-0.00261718,
 -0.00454061,0.00063376,0.00339193,0.00435858,0.01856541,-0.06619743,-0
 .05961735,0.01509276,0.00211887,-0.02101202,0.00105638,-0.00015517,-0.
 00091259,0.00021316,-0.00012413,-0.00013067,0.00005401,-0.00033398,-0.
 00047423,-0.01422523,0.06631554,0.00984087,0.00351403,-0.01120155,0.00
 194523,-0.00338085,0.00443710,-0.00265877,-0.00076221,0.00072296,0.119
 00518,-0.05832294,-0.26720473,0.00664283,0.00172439,-0.00962136,0.0008
 2079,0.00078121,0.00059853,0.00001226,0.00023516,0.00031720,0.00026641
 ,0.00000180,0.00007225,-0.13375378,0.05524046,0.28239332,0.00558915,-0
 .00371129,0.00482665,-0.00850978,-0.01030866,0.00833246,0.00163463,0.0
 0076330,-0.00019141,0.00079688,0.00079818,0.00032310,-0.13553107,-0.13
 289224,0.06106842,-0.00018402,-0.00012260,-0.00005813,0.00014582,0.000
 20581,0.00017863,-0.00001204,0.00020709,-0.00011072,-0.00265498,0.0012
 1830,-0.00189902,0.13787069,-0.00254187,0.00031191,-0.00641530,0.00522
 066,0.00991197,-0.00206542,-0.00023268,-0.00103367,0.00109150,-0.01391
 952,-0.01164693,0.01353064,-0.13401678,-0.22952311,0.06987934,0.000015
 69,-0.00007306,-0.00010779,-0.00026929,-0.00025832,-0.00035798,-0.0000
 5047,-0.00006625,0.00004150,0.00148008,-0.00068459,0.00017895,0.143163
 50,0.23156805,0.00191134,-0.00608145,0.00147962,0.02148756,0.02400976,
 -0.01551381,0.00109800,0.00004683,0.00055470,-0.00926782,-0.00826623,0
 .00995480,0.05877521,0.06485112,-0.08021297,-0.00015562,-0.00013545,-0
 .00009349,-0.00007798,-0.00003858,-0.00011696,-0.00005106,0.00015911,-
 0.00012530,-0.00162139,0.00111830,-0.00099595,-0.07492494,-0.07314811,
 0.08918344,-0.00264198,-0.00021266,-0.00030326,-0.14335508,-0.19443737
 ,0.07806408,0.00066164,0.00010953,-0.00005251,0.00196467,-0.00028028,-
 0.00190007,-0.01496499,-0.01822876,0.01345163,-0.00020840,-0.00002243,
 -0.00008478,-0.00004891,-0.00021650,0.00000967,-0.00010620,-0.00000058
 ,-0.00036882,-0.00062624,-0.00038604,-0.00022201,0.00085472,0.00115067
 ,0.00282670,0.15847078,-0.00046344,-0.00223316,0.00314690,-0.21786286,
 -0.35802194,0.10383819,-0.00201230,-0.00039973,-0.00012349,0.00541910,
 0.00237362,-0.00770506,0.00129681,0.00739794,0.00173720,0.00024884,0.0
 0036449,0.00062217,-0.00001130,-0.00010350,-0.00003588,0.00031045,0.00
 011611,0.00014869,-0.00012832,-0.00086192,0.00078999,0.00067861,0.0014
 9400,-0.00251531,0.21252441,0.34987408,-0.00115497,0.00108849,0.001897
 30,0.06120790,0.06482940,-0.06330730,-0.00193036,-0.00112584,-0.000706
 58,0.00247094,0.00108680,-0.00203452,0.02813457,0.03558902,-0.01836778
 ,0.00023848,0.00037362,0.00050735,0.00011505,0.00015422,0.00001978,0.0
 0017243,-0.00001213,0.00005706,-0.00028839,0.00054717,0.00048225,0.002
 45497,-0.00262735,-0.00411409,-0.09142063,-0.09990340,0.08556652\\-0.0
 0000038,0.00000017,0.00000148,-0.00000062,0.00000156,-0.00000108,-0.00
 000073,0.00000021,-0.00000064,0.00000045,0.00000018,0.00000058,0.00000
 069,-0.00000041,0.00000003,0.00000076,-0.00000071,0.00000032,-0.000001
 46,0.00000076,-0.00000026,0.00000079,0.00000022,-0.00000167,0.00000145
 ,-0.00000163,0.00000130,0.00000121,-0.00000105,0.00000061,-0.00000215,
 0.00000070,-0.00000066\\\@


 MOST BUREAUCRACIES FUNCTION LIKE A SEPTIC TANK.
 THE LARGE CHUNKS RISE TO THE TOP.
 Job cpu time:       0 days  1 hours 11 minutes 26.8 seconds.
 Elapsed time:       0 days  0 hours 35 minutes 45.8 seconds.
 File lengths (MBytes):  RWF=   1312 Int=      0 D2E=      0 Chk=     32 Scr=     32
 Normal termination of Gaussian 16 at Tue Sep 24 13:17:56 2019.
