 Entering Gaussian System, Link 0=g16
 Input=loose/species/COC=CO/conformers/COC=CO_19.com
 Output=loose/species/COC=CO/conformers/COC=CO_19.log
 Initial command:
 /shared/centos7/gaussian/g16/l1.exe "/scratch/harms.n/gauss_scrdir/Gau-29620.inp" -scrdir="/scratch/harms.n/gauss_scrdir/"
 Entering Link 1 = /shared/centos7/gaussian/g16/l1.exe PID=     29622.
  
 Copyright (c) 1988,1990,1992,1993,1995,1998,2003,2009,2016,
            Gaussian, Inc.  All Rights Reserved.
  
 This is part of the Gaussian(R) 16 program.  It is based on
 the Gaussian(R) 09 system (copyright 2009, Gaussian, Inc.),
 the Gaussian(R) 03 system (copyright 2003, Gaussian, Inc.),
 the Gaussian(R) 98 system (copyright 1998, Gaussian, Inc.),
 the Gaussian(R) 94 system (copyright 1995, Gaussian, Inc.),
 the Gaussian 92(TM) system (copyright 1992, Gaussian, Inc.),
 the Gaussian 90(TM) system (copyright 1990, Gaussian, Inc.),
 the Gaussian 88(TM) system (copyright 1988, Gaussian, Inc.),
 the Gaussian 86(TM) system (copyright 1986, Carnegie Mellon
 University), and the Gaussian 82(TM) system (copyright 1983,
 Carnegie Mellon University). Gaussian is a federally registered
 trademark of Gaussian, Inc.
  
 This software contains proprietary and confidential information,
 including trade secrets, belonging to Gaussian, Inc.
  
 This software is provided under written license and may be
 used, copied, transmitted, or stored only in accord with that
 written license.
  
 The following legend is applicable only to US Government
 contracts under FAR:
  
                    RESTRICTED RIGHTS LEGEND
  
 Use, reproduction and disclosure by the US Government is
 subject to restrictions as set forth in subparagraphs (a)
 and (c) of the Commercial Computer Software - Restricted
 Rights clause in FAR 52.227-19.
  
 Gaussian, Inc.
 340 Quinnipiac St., Bldg. 40, Wallingford CT 06492
  
  
 ---------------------------------------------------------------
 Warning -- This program may not be used in any manner that
 competes with the business of Gaussian, Inc. or will provide
 assistance to any competitor of Gaussian, Inc.  The licensee
 of this program is prohibited from giving any competitor of
 Gaussian, Inc. access to this program.  By using this program,
 the user acknowledges that Gaussian, Inc. is engaged in the
 business of creating and licensing software in the field of
 computational chemistry and represents and warrants to the
 licensee that it is not a competitor of Gaussian, Inc. and that
 it will not use this program in any manner prohibited above.
 ---------------------------------------------------------------
  

 Cite this work as:
 Gaussian 16, Revision A.03,
 M. J. Frisch, G. W. Trucks, H. B. Schlegel, G. E. Scuseria, 
 M. A. Robb, J. R. Cheeseman, G. Scalmani, V. Barone, 
 G. A. Petersson, H. Nakatsuji, X. Li, M. Caricato, A. V. Marenich, 
 J. Bloino, B. G. Janesko, R. Gomperts, B. Mennucci, H. P. Hratchian, 
 J. V. Ortiz, A. F. Izmaylov, J. L. Sonnenberg, D. Williams-Young, 
 F. Ding, F. Lipparini, F. Egidi, J. Goings, B. Peng, A. Petrone, 
 T. Henderson, D. Ranasinghe, V. G. Zakrzewski, J. Gao, N. Rega, 
 G. Zheng, W. Liang, M. Hada, M. Ehara, K. Toyota, R. Fukuda, 
 J. Hasegawa, M. Ishida, T. Nakajima, Y. Honda, O. Kitao, H. Nakai, 
 T. Vreven, K. Throssell, J. A. Montgomery, Jr., J. E. Peralta, 
 F. Ogliaro, M. J. Bearpark, J. J. Heyd, E. N. Brothers, K. N. Kudin, 
 V. N. Staroverov, T. A. Keith, R. Kobayashi, J. Normand, 
 K. Raghavachari, A. P. Rendell, J. C. Burant, S. S. Iyengar, 
 J. Tomasi, M. Cossi, J. M. Millam, M. Klene, C. Adamo, R. Cammi, 
 J. W. Ochterski, R. L. Martin, K. Morokuma, O. Farkas, 
 J. B. Foresman, and D. J. Fox, Gaussian, Inc., Wallingford CT, 2016.
 
 ******************************************
 Gaussian 16:  EM64L-G16RevA.03 25-Dec-2016
                 5-Sep-2019 
 ******************************************
 %nprocshared=20
 Will use up to   20 processors via shared memory.
 %mem=5GB
 ----------------------------------------------------------------------
 #p m062x/cc-pVTZ opt=(calcfc,maxcycles=900,Tight) freq IOP(7/33=1,2/16
 =3) scf=(maxcycle=900)
 ----------------------------------------------------------------------
 1/6=900,7=10,10=4,18=20,19=15,26=3,38=1/1,3;
 2/9=110,12=2,16=3,17=6,18=5,40=1/2;
 3/5=16,6=1,11=2,25=1,30=1,71=2,74=-55,140=1/1,2,3;
 4//1;
 5/5=2,7=900,38=5/2;
 8/6=4,10=90,11=11/1;
 11/6=1,8=1,9=11,15=111,16=1/1,2,10;
 10/6=1,13=1/2;
 6/7=2,8=2,9=2,10=2,28=1/1;
 7/10=1,18=20,25=1,33=1/1,2,3,16;
 1/6=900,7=10,10=4,18=20,19=15,26=3/3(2);
 2/9=110,16=3/2;
 99//99;
 2/9=110,16=3/2;
 3/5=16,6=1,11=2,25=1,30=1,71=1,74=-55/1,2,3;
 4/5=5,16=3,69=1/1;
 5/5=2,7=900,38=5/2;
 7/33=1/1,2,3,16;
 1/6=900,7=10,18=20,19=15,26=3/3(-5);
 2/9=110,16=3/2;
 6/7=2,8=2,9=2,10=2,19=2,28=1/1;
 99/9=1/99;
 Leave Link    1 at Thu Sep  5 13:50:39 2019, MaxMem=   671088640 cpu:               2.3 elap:               1.9
 (Enter /shared/centos7/gaussian/g16/l101.exe)
 ------------------------------
 Gaussian input prepared by ASE
 ------------------------------
 Symbolic Z-matrix:
 Charge =  0 Multiplicity = 1
 O                     0.19592  -0.71279   1.11292 
 O                     0.47757   2.89595   0.43002 
 C                    -1.2054   -0.88697   0.8908 
 C                     0.66323   0.58028   0.91502 
 C                    -0.03857   1.62426   0.54278 
 H                    -1.66165  -1.35178   1.81179 
 H                    -1.71766   0.0936    0.67456 
 H                    -1.35062  -1.5643    0.04901 
 H                     1.72703   0.65327   1.13278 
 H                    -1.0818    1.58119   0.31324 
 H                     1.40978   2.87462   0.83567 
 
 ITRead=  0  0  0  0  0  0  0  0  0  0  0
 MicOpt= -1 -1 -1 -1 -1 -1 -1 -1 -1 -1 -1
 NAtoms=     11 NQM=       11 NQMF=       0 NMMI=      0 NMMIF=      0
                NMic=       0 NMicF=      0.
                    Isotopes and Nuclear Properties:
 (Nuclear quadrupole moments (NQMom) in fm**2, nuclear magnetic moments (NMagM)
  in nuclear magnetons)

  Atom         1           2           3           4           5           6           7           8           9          10
 IAtWgt=          16          16          12          12          12           1           1           1           1           1
 AtmWgt=  15.9949146  15.9949146  12.0000000  12.0000000  12.0000000   1.0078250   1.0078250   1.0078250   1.0078250   1.0078250
 NucSpn=           0           0           0           0           0           1           1           1           1           1
 AtZEff=  -0.0000000  -0.0000000  -0.0000000  -0.0000000  -0.0000000  -0.0000000  -0.0000000  -0.0000000  -0.0000000  -0.0000000
 NQMom=    0.0000000   0.0000000   0.0000000   0.0000000   0.0000000   0.0000000   0.0000000   0.0000000   0.0000000   0.0000000
 NMagM=    0.0000000   0.0000000   0.0000000   0.0000000   0.0000000   2.7928460   2.7928460   2.7928460   2.7928460   2.7928460
 AtZNuc=   8.0000000   8.0000000   6.0000000   6.0000000   6.0000000   1.0000000   1.0000000   1.0000000   1.0000000   1.0000000

  Atom        11
 IAtWgt=           1
 AtmWgt=   1.0078250
 NucSpn=           1
 AtZEff=  -0.0000000
 NQMom=    0.0000000
 NMagM=    2.7928460
 AtZNuc=   1.0000000
 Leave Link  101 at Thu Sep  5 13:50:43 2019, MaxMem=   671088640 cpu:               3.8 elap:               3.8
 (Enter /shared/centos7/gaussian/g16/l103.exe)

 GradGradGradGradGradGradGradGradGradGradGradGradGradGradGradGradGradGrad
 Berny optimization.
 Initialization pass.
                           ----------------------------
                           !    Initial Parameters    !
                           ! (Angstroms and Degrees)  !
 --------------------------                            --------------------------
 ! Name  Definition              Value          Derivative Info.                !
 --------------------------------------------------------------------------------
 ! R1    R(1,3)                  1.4295         calculate D2E/DX2 analytically  !
 ! R2    R(1,4)                  1.3891         calculate D2E/DX2 analytically  !
 ! R3    R(2,5)                  1.3771         calculate D2E/DX2 analytically  !
 ! R4    R(2,11)                 1.0169         calculate D2E/DX2 analytically  !
 ! R5    R(3,6)                  1.128          calculate D2E/DX2 analytically  !
 ! R6    R(3,7)                  1.1272         calculate D2E/DX2 analytically  !
 ! R7    R(3,8)                  1.0902         calculate D2E/DX2 analytically  !
 ! R8    R(4,5)                  1.3119         calculate D2E/DX2 analytically  !
 ! R9    R(4,9)                  1.0883         calculate D2E/DX2 analytically  !
 ! R10   R(5,10)                 1.0691         calculate D2E/DX2 analytically  !
 ! A1    A(3,1,4)              114.9026         calculate D2E/DX2 analytically  !
 ! A2    A(5,2,11)             106.9521         calculate D2E/DX2 analytically  !
 ! A3    A(1,3,6)              108.654          calculate D2E/DX2 analytically  !
 ! A4    A(1,3,7)              111.6727         calculate D2E/DX2 analytically  !
 ! A5    A(1,3,8)              109.0429         calculate D2E/DX2 analytically  !
 ! A6    A(6,3,7)              109.3452         calculate D2E/DX2 analytically  !
 ! A7    A(6,3,8)              108.6959         calculate D2E/DX2 analytically  !
 ! A8    A(7,3,8)              109.3778         calculate D2E/DX2 analytically  !
 ! A9    A(1,4,5)              126.9596         calculate D2E/DX2 analytically  !
 ! A10   A(1,4,9)              111.2693         calculate D2E/DX2 analytically  !
 ! A11   A(5,4,9)              121.7575         calculate D2E/DX2 analytically  !
 ! A12   A(2,5,4)              123.8923         calculate D2E/DX2 analytically  !
 ! A13   A(2,5,10)             112.6674         calculate D2E/DX2 analytically  !
 ! A14   A(4,5,10)             123.4289         calculate D2E/DX2 analytically  !
 ! D1    D(4,1,3,6)           -125.6838         calculate D2E/DX2 analytically  !
 ! D2    D(4,1,3,7)             -4.9948         calculate D2E/DX2 analytically  !
 ! D3    D(4,1,3,8)            115.9941         calculate D2E/DX2 analytically  !
 ! D4    D(3,1,4,5)             -0.624          calculate D2E/DX2 analytically  !
 ! D5    D(3,1,4,9)            178.0401         calculate D2E/DX2 analytically  !
 ! D6    D(11,2,5,4)            -9.6006         calculate D2E/DX2 analytically  !
 ! D7    D(11,2,5,10)          169.206          calculate D2E/DX2 analytically  !
 ! D8    D(1,4,5,2)            176.6003         calculate D2E/DX2 analytically  !
 ! D9    D(1,4,5,10)            -2.0802         calculate D2E/DX2 analytically  !
 ! D10   D(9,4,5,2)             -1.9355         calculate D2E/DX2 analytically  !
 ! D11   D(9,4,5,10)           179.384          calculate D2E/DX2 analytically  !
 --------------------------------------------------------------------------------
 Trust Radius=3.00D-01 FncErr=1.00D-07 GrdErr=1.00D-06 EigMax=2.50D+02 EigMin=1.00D-04
 Number of steps in this run=    100 maximum allowed number of steps=    100.
 GradGradGradGradGradGradGradGradGradGradGradGradGradGradGradGradGradGrad

 Leave Link  103 at Thu Sep  5 13:50:44 2019, MaxMem=   671088640 cpu:               1.8 elap:               0.9
 (Enter /shared/centos7/gaussian/g16/l202.exe)
                          Input orientation:                          
 ---------------------------------------------------------------------
 Center     Atomic      Atomic             Coordinates (Angstroms)
 Number     Number       Type             X           Y           Z
 ---------------------------------------------------------------------
      1          8           0        0.195918   -0.712790    1.112923
      2          8           0        0.477568    2.895953    0.430022
      3          6           0       -1.205400   -0.886970    0.890804
      4          6           0        0.663226    0.580284    0.915019
      5          6           0       -0.038567    1.624264    0.542779
      6          1           0       -1.661655   -1.351781    1.811788
      7          1           0       -1.717664    0.093599    0.674558
      8          1           0       -1.350623   -1.564304    0.049009
      9          1           0        1.727031    0.653265    1.132784
     10          1           0       -1.081797    1.581192    0.313239
     11          1           0        1.409777    2.874625    0.835665
 ---------------------------------------------------------------------
                    Distance matrix (angstroms):
                    1          2          3          4          5
     1  O    0.000000
     2  O    3.683572   0.000000
     3  C    1.429464   4.165958   0.000000
     4  C    1.389094   2.373187   2.375959   0.000000
     5  C    2.416996   1.377063   2.790863   1.311858   0.000000
     6  H    2.085017   4.952655   1.128020   3.153116   3.619619
     7  H    2.122315   3.568197   1.127250   2.441992   2.275888
     8  H    2.061256   4.835426   1.090179   3.066728   3.483140
     9  H    2.052026   2.661706   3.321149   1.088314   2.099591
    10  H    2.744887   2.043001   2.537850   2.099777   1.069052
    11  H    3.797351   1.016866   4.581679   2.414050   1.935688
                    6          7          8          9         10
     6  H    0.000000
     7  H    1.839988   0.000000
     8  H    1.802580   1.809606   0.000000
     9  H    3.995554   3.519818   3.945141   0.000000
    10  H    3.344281   1.657652   3.168001   3.069564   0.000000
    11  H    5.314980   4.188192   5.286088   2.263486   2.855493
                   11
    11  H    0.000000
 Stoichiometry    C3H6O2
 Framework group  C1[X(C3H6O2)]
 Deg. of freedom    27
 Full point group                 C1      NOp   1
 Largest Abelian subgroup         C1      NOp   1
 Largest concise Abelian subgroup C1      NOp   1
                         Standard orientation:                         
 ---------------------------------------------------------------------
 Center     Atomic      Atomic             Coordinates (Angstroms)
 Number     Number       Type             X           Y           Z
 ---------------------------------------------------------------------
      1          8           0        1.281638    0.696785   -0.004713
      2          8           0       -2.269487   -0.282017    0.007870
      3          6           0        1.884365   -0.599175    0.019280
      4          6           0       -0.107286    0.695593   -0.026438
      5          6           0       -0.895051   -0.353337   -0.038401
      6          1           0        2.588120   -0.653549    0.899167
      7          1           0        1.112326   -1.415782    0.107595
      8          1           0        2.458320   -0.741537   -0.896580
      9          1           0       -0.503261    1.709170   -0.009331
     10          1           0       -0.535382   -1.359723   -0.064819
     11          1           0       -2.509501    0.684790    0.212057
 ---------------------------------------------------------------------
 Rotational constants (GHZ):          16.6812364           2.7475607           2.3974214
 Leave Link  202 at Thu Sep  5 13:50:46 2019, MaxMem=   671088640 cpu:               3.5 elap:               2.4
 (Enter /shared/centos7/gaussian/g16/l301.exe)
 Standard basis: CC-pVTZ (5D, 7F)
 Ernie: Thresh=  0.10000D-02 Tol=  0.10000D-05 Strict=F.
 Ernie:  15 primitive shells out of 178 were deleted.
 There are   265 symmetry adapted cartesian basis functions of A   symmetry.
 There are   234 symmetry adapted basis functions of A   symmetry.
   234 basis functions,   362 primitive gaussians,   265 cartesian basis functions
    20 alpha electrons       20 beta electrons
       nuclear repulsion energy       174.6011333563 Hartrees.
 IExCor= 4336 DFT=T Ex+Corr=M062X ExCW=0 ScaHFX=  0.540000
 ScaDFX=  1.000000  1.000000  1.000000  1.000000 ScalE2=  1.000000  1.000000
 IRadAn=      5 IRanWt=     -1 IRanGd=            0 ICorTp=0 IEmpDi=  4
 NAtoms=   11 NActive=   11 NUniq=   11 SFac= 1.00D+00 NAtFMM=   60 NAOKFM=F Big=F
 Integral buffers will be    131072 words long.
 Raffenetti 2 integral format.
 Two-electron integral symmetry is turned on.
 Leave Link  301 at Thu Sep  5 13:50:48 2019, MaxMem=   671088640 cpu:               1.8 elap:               1.8
 (Enter /shared/centos7/gaussian/g16/l302.exe)
 NPDir=0 NMtPBC=     1 NCelOv=     1 NCel=       1 NClECP=     1 NCelD=      1
         NCelK=      1 NCelE2=     1 NClLst=     1 CellRange=     0.0.
 One-electron integrals computed using PRISM.
 One-electron integral symmetry used in STVInt
 NBasis=   234 RedAO= T EigKep=  3.44D-04  NBF=   234
 NBsUse=   234 1.00D-06 EigRej= -1.00D+00 NBFU=   234
 Precomputing XC quadrature grid using
 IXCGrd= 4 IRadAn=           5 IRanWt=          -1 IRanGd=           0 AccXCQ= 0.00D+00.
 Generated NRdTot=       0 NPtTot=           0 NUsed=           0 NTot=          32
 NSgBfM=   265   265   265   265   265 MxSgAt=    11 MxSgA2=    11.
 Leave Link  302 at Thu Sep  5 13:52:22 2019, MaxMem=   671088640 cpu:             186.1 elap:              94.4
 (Enter /shared/centos7/gaussian/g16/l303.exe)
 DipDrv:  MaxL=1.
 Leave Link  303 at Thu Sep  5 13:52:29 2019, MaxMem=   671088640 cpu:              11.6 elap:               7.1
 (Enter /shared/centos7/gaussian/g16/l401.exe)
 ExpMin= 1.03D-01 ExpMax= 1.53D+04 ExpMxC= 5.22D+02 IAcc=3 IRadAn=         5 AccDes= 0.00D+00
 Harris functional with IExCor= 1009 and IRadAn=       5 diagonalized for initial guess.
 HarFok:  IExCor= 1009 AccDes= 0.00D+00 IRadAn=         5 IDoV= 1 UseB2=F ITyADJ=14
 ICtDFT=  3500011 ScaDFX=  1.000000  1.000000  1.000000  1.000000
 FoFCou: FMM=F IPFlag=           0 FMFlag=      100000 FMFlg1=           0
         NFxFlg=           0 DoJE=T BraDBF=F KetDBF=T FulRan=T
         wScrn=  0.000000 ICntrl=       500 IOpCl=  0 I1Cent=   200000004 NGrid=           0
         NMat0=    1 NMatS0=      1 NMatT0=    0 NMatD0=    1 NMtDS0=    0 NMtDT0=    0
 Petite list used in FoFCou.
 Harris En= -268.191651263035    
 JPrj=0 DoOrth=F DoCkMO=F.
 Leave Link  401 at Thu Sep  5 13:53:13 2019, MaxMem=   671088640 cpu:              86.0 elap:              43.3
 (Enter /shared/centos7/gaussian/g16/l502.exe)
 Keep R1 ints in memory in canonical form, NReq=399924305.
 FoFCou: FMM=F IPFlag=           0 FMFlag=           0 FMFlg1=           0
         NFxFlg=           0 DoJE=F BraDBF=F KetDBF=F FulRan=T
         wScrn=  0.000000 ICntrl=       600 IOpCl=  0 I1Cent=           0 NGrid=           0
         NMat0=    1 NMatS0=  27495 NMatT0=    0 NMatD0=    1 NMtDS0=    0 NMtDT0=    0
 Symmetry not used in FoFCou.
 Two-electron integral symmetry not used.
 Closed shell SCF:
 Using DIIS extrapolation, IDIIS=  1040.
 NGot=   671088640 LenX=   292939207 LenY=   292868541
 Requested convergence on RMS density matrix=1.00D-08 within 900 cycles.
 Requested convergence on MAX density matrix=1.00D-06.
 Requested convergence on             energy=1.00D-06.
 No special actions if energy rises.
 Integral accuracy reduced to 1.0D-05 until final iterations.

 Cycle   1  Pass 0  IDiag  1:
 E= -268.179842663169    
 DIIS: error= 1.84D-02 at cycle   1 NSaved=   1.
 NSaved= 1 IEnMin= 1 EnMin= -268.179842663169     IErMin= 1 ErrMin= 1.84D-02
 ErrMax= 1.84D-02  0.00D+00 EMaxC= 1.00D-01 BMatC= 1.71D-01 BMatP= 1.71D-01
 IDIUse=3 WtCom= 8.16D-01 WtEn= 1.84D-01
 Coeff-Com:  0.100D+01
 Coeff-En:   0.100D+01
 Coeff:      0.100D+01
 Gap=     0.347 Goal=   None    Shift=    0.000
 GapD=    0.347 DampG=1.000 DampE=0.500 DampFc=0.5000 IDamp=-1.
 Damping current iteration by 5.00D-01
 RMSDP=1.88D-03 MaxDP=6.32D-02              OVMax= 1.10D-01

 Cycle   2  Pass 0  IDiag  1:
 E= -268.244519690377     Delta-E=       -0.064677027208 Rises=F Damp=T
 DIIS: error= 5.41D-03 at cycle   2 NSaved=   2.
 NSaved= 2 IEnMin= 2 EnMin= -268.244519690377     IErMin= 2 ErrMin= 5.41D-03
 ErrMax= 5.41D-03  0.00D+00 EMaxC= 1.00D-01 BMatC= 1.66D-02 BMatP= 1.71D-01
 IDIUse=3 WtCom= 9.46D-01 WtEn= 5.41D-02
 Coeff-Com: -0.178D+00 0.118D+01
 Coeff-En:   0.000D+00 0.100D+01
 Coeff:     -0.168D+00 0.117D+01
 Gap=     0.328 Goal=   None    Shift=    0.000
 RMSDP=3.71D-04 MaxDP=1.08D-02 DE=-6.47D-02 OVMax= 5.03D-02

 Cycle   3  Pass 0  IDiag  1:
 E= -268.300943437558     Delta-E=       -0.056423747182 Rises=F Damp=F
 DIIS: error= 3.28D-03 at cycle   3 NSaved=   3.
 NSaved= 3 IEnMin= 3 EnMin= -268.300943437558     IErMin= 3 ErrMin= 3.28D-03
 ErrMax= 3.28D-03  0.00D+00 EMaxC= 1.00D-01 BMatC= 3.56D-03 BMatP= 1.66D-02
 IDIUse=3 WtCom= 9.67D-01 WtEn= 3.28D-02
 Coeff-Com: -0.115D+00 0.383D+00 0.732D+00
 Coeff-En:   0.000D+00 0.000D+00 0.100D+01
 Coeff:     -0.112D+00 0.371D+00 0.741D+00
 Gap=     0.328 Goal=   None    Shift=    0.000
 RMSDP=1.66D-04 MaxDP=5.83D-03 DE=-5.64D-02 OVMax= 1.88D-02

 Cycle   4  Pass 0  IDiag  1:
 E= -268.302596180908     Delta-E=       -0.001652743350 Rises=F Damp=F
 DIIS: error= 1.23D-03 at cycle   4 NSaved=   4.
 NSaved= 4 IEnMin= 4 EnMin= -268.302596180908     IErMin= 4 ErrMin= 1.23D-03
 ErrMax= 1.23D-03  0.00D+00 EMaxC= 1.00D-01 BMatC= 8.88D-04 BMatP= 3.56D-03
 IDIUse=3 WtCom= 9.88D-01 WtEn= 1.23D-02
 Coeff-Com: -0.384D-01 0.967D-01 0.381D+00 0.561D+00
 Coeff-En:   0.000D+00 0.000D+00 0.205D+00 0.795D+00
 Coeff:     -0.379D-01 0.955D-01 0.379D+00 0.564D+00
 Gap=     0.323 Goal=   None    Shift=    0.000
 RMSDP=7.60D-05 MaxDP=2.89D-03 DE=-1.65D-03 OVMax= 8.99D-03

 Cycle   5  Pass 0  IDiag  1:
 E= -268.303277978513     Delta-E=       -0.000681797604 Rises=F Damp=F
 DIIS: error= 2.20D-04 at cycle   5 NSaved=   5.
 NSaved= 5 IEnMin= 5 EnMin= -268.303277978513     IErMin= 5 ErrMin= 2.20D-04
 ErrMax= 2.20D-04  0.00D+00 EMaxC= 1.00D-01 BMatC= 1.71D-05 BMatP= 8.88D-04
 IDIUse=3 WtCom= 9.98D-01 WtEn= 2.20D-03
 Coeff-Com: -0.599D-02 0.118D-01 0.850D-01 0.193D+00 0.716D+00
 Coeff-En:   0.000D+00 0.000D+00 0.000D+00 0.000D+00 0.100D+01
 Coeff:     -0.598D-02 0.118D-01 0.849D-01 0.193D+00 0.716D+00
 Gap=     0.324 Goal=   None    Shift=    0.000
 RMSDP=1.39D-05 MaxDP=4.63D-04 DE=-6.82D-04 OVMax= 1.93D-03

 Cycle   6  Pass 0  IDiag  1:
 E= -268.303290957884     Delta-E=       -0.000012979372 Rises=F Damp=F
 DIIS: error= 8.25D-05 at cycle   6 NSaved=   6.
 NSaved= 6 IEnMin= 6 EnMin= -268.303290957884     IErMin= 6 ErrMin= 8.25D-05
 ErrMax= 8.25D-05  0.00D+00 EMaxC= 1.00D-01 BMatC= 3.08D-06 BMatP= 1.71D-05
 IDIUse=1 WtCom= 1.00D+00 WtEn= 0.00D+00
 Coeff-Com: -0.115D-02 0.106D-02 0.256D-01 0.765D-01 0.384D+00 0.514D+00
 Coeff:     -0.115D-02 0.106D-02 0.256D-01 0.765D-01 0.384D+00 0.514D+00
 Gap=     0.324 Goal=   None    Shift=    0.000
 RMSDP=4.57D-06 MaxDP=1.49D-04 DE=-1.30D-05 OVMax= 5.36D-04

 Initial convergence to 1.0D-05 achieved.  Increase integral accuracy.
 Cycle   7  Pass 1  IDiag  1:
 E= -268.303325679684     Delta-E=       -0.000034721800 Rises=F Damp=F
 DIIS: error= 2.00D-05 at cycle   1 NSaved=   1.
 NSaved= 1 IEnMin= 1 EnMin= -268.303325679684     IErMin= 1 ErrMin= 2.00D-05
 ErrMax= 2.00D-05  0.00D+00 EMaxC= 1.00D-01 BMatC= 2.82D-07 BMatP= 2.82D-07
 IDIUse=1 WtCom= 1.00D+00 WtEn= 0.00D+00
 Coeff-Com:  0.100D+01
 Coeff:      0.100D+01
 Gap=     0.324 Goal=   None    Shift=    0.000
 RMSDP=4.57D-06 MaxDP=1.49D-04 DE=-3.47D-05 OVMax= 2.10D-04

 Cycle   8  Pass 1  IDiag  1:
 E= -268.303325841161     Delta-E=       -0.000000161478 Rises=F Damp=F
 DIIS: error= 1.74D-05 at cycle   2 NSaved=   2.
 NSaved= 2 IEnMin= 2 EnMin= -268.303325841161     IErMin= 2 ErrMin= 1.74D-05
 ErrMax= 1.74D-05  0.00D+00 EMaxC= 1.00D-01 BMatC= 1.12D-07 BMatP= 2.82D-07
 IDIUse=1 WtCom= 1.00D+00 WtEn= 0.00D+00
 Coeff-Com:  0.331D+00 0.669D+00
 Coeff:      0.331D+00 0.669D+00
 Gap=     0.324 Goal=   None    Shift=    0.000
 RMSDP=1.27D-06 MaxDP=3.36D-05 DE=-1.61D-07 OVMax= 1.41D-04

 Cycle   9  Pass 1  IDiag  1:
 E= -268.303325893036     Delta-E=       -0.000000051874 Rises=F Damp=F
 DIIS: error= 1.25D-05 at cycle   3 NSaved=   3.
 NSaved= 3 IEnMin= 3 EnMin= -268.303325893036     IErMin= 3 ErrMin= 1.25D-05
 ErrMax= 1.25D-05  0.00D+00 EMaxC= 1.00D-01 BMatC= 4.05D-08 BMatP= 1.12D-07
 IDIUse=1 WtCom= 1.00D+00 WtEn= 0.00D+00
 Coeff-Com: -0.363D-01 0.372D+00 0.664D+00
 Coeff:     -0.363D-01 0.372D+00 0.664D+00
 Gap=     0.324 Goal=   None    Shift=    0.000
 RMSDP=5.72D-07 MaxDP=1.92D-05 DE=-5.19D-08 OVMax= 7.32D-05

 Cycle  10  Pass 1  IDiag  1:
 E= -268.303325924172     Delta-E=       -0.000000031136 Rises=F Damp=F
 DIIS: error= 1.62D-06 at cycle   4 NSaved=   4.
 NSaved= 4 IEnMin= 4 EnMin= -268.303325924172     IErMin= 4 ErrMin= 1.62D-06
 ErrMax= 1.62D-06  0.00D+00 EMaxC= 1.00D-01 BMatC= 6.45D-10 BMatP= 4.05D-08
 IDIUse=1 WtCom= 1.00D+00 WtEn= 0.00D+00
 Coeff-Com: -0.197D-01 0.892D-01 0.214D+00 0.716D+00
 Coeff:     -0.197D-01 0.892D-01 0.214D+00 0.716D+00
 Gap=     0.324 Goal=   None    Shift=    0.000
 RMSDP=9.18D-08 MaxDP=3.43D-06 DE=-3.11D-08 OVMax= 8.94D-06

 Cycle  11  Pass 1  IDiag  1:
 E= -268.303325924760     Delta-E=       -0.000000000589 Rises=F Damp=F
 DIIS: error= 5.45D-07 at cycle   5 NSaved=   5.
 NSaved= 5 IEnMin= 5 EnMin= -268.303325924760     IErMin= 5 ErrMin= 5.45D-07
 ErrMax= 5.45D-07  0.00D+00 EMaxC= 1.00D-01 BMatC= 1.08D-10 BMatP= 6.45D-10
 IDIUse=1 WtCom= 1.00D+00 WtEn= 0.00D+00
 Coeff-Com: -0.293D-02-0.220D-01-0.827D-02 0.269D+00 0.764D+00
 Coeff:     -0.293D-02-0.220D-01-0.827D-02 0.269D+00 0.764D+00
 Gap=     0.324 Goal=   None    Shift=    0.000
 RMSDP=3.99D-08 MaxDP=1.04D-06 DE=-5.89D-10 OVMax= 3.85D-06

 Cycle  12  Pass 1  IDiag  1:
 E= -268.303325924859     Delta-E=       -0.000000000099 Rises=F Damp=F
 DIIS: error= 2.72D-07 at cycle   6 NSaved=   6.
 NSaved= 6 IEnMin= 6 EnMin= -268.303325924859     IErMin= 6 ErrMin= 2.72D-07
 ErrMax= 2.72D-07  0.00D+00 EMaxC= 1.00D-01 BMatC= 1.98D-11 BMatP= 1.08D-10
 IDIUse=1 WtCom= 1.00D+00 WtEn= 0.00D+00
 Coeff-Com:  0.152D-02-0.232D-01-0.324D-01 0.282D-01 0.367D+00 0.659D+00
 Coeff:      0.152D-02-0.232D-01-0.324D-01 0.282D-01 0.367D+00 0.659D+00
 Gap=     0.324 Goal=   None    Shift=    0.000
 RMSDP=1.32D-08 MaxDP=4.71D-07 DE=-9.91D-11 OVMax= 1.44D-06

 Cycle  13  Pass 1  IDiag  1:
 E= -268.303325924877     Delta-E=       -0.000000000018 Rises=F Damp=F
 DIIS: error= 3.99D-08 at cycle   7 NSaved=   7.
 NSaved= 7 IEnMin= 7 EnMin= -268.303325924877     IErMin= 7 ErrMin= 3.99D-08
 ErrMax= 3.99D-08  0.00D+00 EMaxC= 1.00D-01 BMatC= 5.81D-13 BMatP= 1.98D-11
 IDIUse=1 WtCom= 1.00D+00 WtEn= 0.00D+00
 Coeff-Com:  0.709D-03-0.602D-02-0.963D-02-0.888D-02 0.697D-01 0.199D+00
 Coeff-Com:  0.755D+00
 Coeff:      0.709D-03-0.602D-02-0.963D-02-0.888D-02 0.697D-01 0.199D+00
 Coeff:      0.755D+00
 Gap=     0.324 Goal=   None    Shift=    0.000
 RMSDP=3.42D-09 MaxDP=8.34D-08 DE=-1.76D-11 OVMax= 2.22D-07

 SCF Done:  E(RM062X) =  -268.303325925     A.U. after   13 cycles
            NFock= 13  Conv=0.34D-08     -V/T= 2.0060
 KE= 2.666915381937D+02 PE=-9.774693764485D+02 EE= 2.678733789736D+02
 Leave Link  502 at Thu Sep  5 14:00:34 2019, MaxMem=   671088640 cpu:             811.8 elap:             441.2
 (Enter /shared/centos7/gaussian/g16/l801.exe)
 DoSCS=F DFT=T ScalE2(SS,OS)=  1.000000  1.000000
 Range of M.O.s used for correlation:     1   234
 NBasis=   234 NAE=    20 NBE=    20 NFC=     0 NFV=     0
 NROrb=    234 NOA=    20 NOB=    20 NVA=   214 NVB=   214

 **** Warning!!: The largest alpha MO coefficient is  0.11408573D+02

 Leave Link  801 at Thu Sep  5 14:00:35 2019, MaxMem=   671088640 cpu:               1.3 elap:               1.3
 (Enter /shared/centos7/gaussian/g16/l1101.exe)
 Using compressed storage, NAtomX=    11.
 Will process     12 centers per pass.
 Leave Link 1101 at Thu Sep  5 14:01:16 2019, MaxMem=   671088640 cpu:              63.9 elap:              40.3
 (Enter /shared/centos7/gaussian/g16/l1102.exe)
 Symmetrizing basis deriv contribution to polar:
 IMax=3 JMax=2 DiffMx= 0.00D+00
 Leave Link 1102 at Thu Sep  5 14:01:19 2019, MaxMem=   671088640 cpu:               5.6 elap:               4.0
 (Enter /shared/centos7/gaussian/g16/l1110.exe)
 Forming Gx(P) for the SCF density, NAtomX=    11.
 Integral derivatives from FoFJK, PRISM(SPDF).
 Do as many integral derivatives as possible in FoFJK.
 G2DrvN: MDV=     671087712.
 G2DrvN: will do    12 centers at a time, making    1 passes.
 Calling FoFCou, ICntrl=  3107 FMM=F I1Cent=   0 AccDes= 0.00D+00.
 FoFJK:  IHMeth= 1 ICntrl=    3107 DoSepK=F KAlg= 0 I1Cent=           0 FoldK=F
 IRaf=         0 NMat=       1 IRICut=       1 DoRegI=T DoRafI=F ISym2E= 0 IDoP0=0 IntGTp=1.
 FoFCou: FMM=F IPFlag=           0 FMFlag=      100000 FMFlg1=           0
         NFxFlg=           0 DoJE=F BraDBF=F KetDBF=F FulRan=T
         wScrn=  0.000000 ICntrl=      3107 IOpCl=  0 I1Cent=           0 NGrid=           0
         NMat0=    1 NMatS0=      1 NMatT0=    0 NMatD0=    1 NMtDS0=    0 NMtDT0=    0
 Symmetry not used in FoFCou.
 End of G2Drv F.D. properties file   721 does not exist.
 End of G2Drv F.D. properties file   722 does not exist.
 End of G2Drv F.D. properties file   788 does not exist.
 Leave Link 1110 at Thu Sep  5 14:07:53 2019, MaxMem=   671088640 cpu:             769.1 elap:             393.2
 (Enter /shared/centos7/gaussian/g16/l1002.exe)
 Minotr:  Closed shell wavefunction.
          IDoAtm=11111111111
          Direct CPHF calculation.
          Differentiating once with respect to nuclear coordinates.
          Requested convergence is 1.0D-08 RMS, and 1.0D-07 maximum.
          Secondary convergence is 1.0D-12 RMS, and 1.0D-12 maximum.
          NewPWx=T KeepS1=F KeepF1=F KeepIn=T MapXYZ=F SortEE=F KeepMc=T.
         3279 words used for storage of precomputed grid.
 Keep R1 ints in memory in canonical form, NReq=399865278.
 FoFCou: FMM=F IPFlag=           0 FMFlag=           0 FMFlg1=           0
         NFxFlg=           0 DoJE=F BraDBF=F KetDBF=F FulRan=T
         wScrn=  0.000000 ICntrl=       600 IOpCl=  0 I1Cent=           0 NGrid=           0
         NMat0=    1 NMatS0=  27495 NMatT0=    0 NMatD0=    1 NMtDS0=    0 NMtDT0=    0
 Symmetry not used in FoFCou.
 Two-electron integral symmetry not used.
          MDV=     671088640 using IRadAn=       1.
          Solving linear equations simultaneously, MaxMat=       0.
          There are    36 degrees of freedom in the 1st order CPHF.  IDoFFX=6 NUNeed=     0.
     30 vectors produced by pass  0 Test12= 1.19D-14 2.78D-09 XBig12= 6.56D-02 6.68D-02.
 AX will form    30 AO Fock derivatives at one time.
     30 vectors produced by pass  1 Test12= 1.19D-14 2.78D-09 XBig12= 7.95D-03 3.72D-02.
     30 vectors produced by pass  2 Test12= 1.19D-14 2.78D-09 XBig12= 2.45D-04 3.01D-03.
     30 vectors produced by pass  3 Test12= 1.19D-14 2.78D-09 XBig12= 3.36D-06 3.11D-04.
     30 vectors produced by pass  4 Test12= 1.19D-14 2.78D-09 XBig12= 2.17D-08 2.25D-05.
     30 vectors produced by pass  5 Test12= 1.19D-14 2.78D-09 XBig12= 9.98D-11 1.03D-06.
     21 vectors produced by pass  6 Test12= 1.19D-14 2.78D-09 XBig12= 4.58D-13 8.54D-08.
      3 vectors produced by pass  7 Test12= 1.19D-14 2.78D-09 XBig12= 1.84D-15 5.49D-09.
 InvSVY:  IOpt=1 It=  1 EMax= 1.78D-15
 Solved reduced A of dimension   204 with    30 vectors.
 End of Minotr F.D. properties file   721 does not exist.
 End of Minotr F.D. properties file   722 does not exist.
 End of Minotr F.D. properties file   788 does not exist.
 Leave Link 1002 at Thu Sep  5 14:19:15 2019, MaxMem=   671088640 cpu:            1353.3 elap:             681.9
 (Enter /shared/centos7/gaussian/g16/l601.exe)
 Copying SCF densities to generalized density rwf, IOpCl= 0 IROHF=0.

 **********************************************************************

            Population analysis using the SCF density.

 **********************************************************************

 Orbital symmetries:
       Occupied  (A) (A) (A) (A) (A) (A) (A) (A) (A) (A) (A) (A)
                 (A) (A) (A) (A) (A) (A) (A) (A)
       Virtual   (A) (A) (A) (A) (A) (A) (A) (A) (A) (A) (A) (A)
                 (A) (A) (A) (A) (A) (A) (A) (A) (A) (A) (A) (A)
                 (A) (A) (A) (A) (A) (A) (A) (A) (A) (A) (A) (A)
                 (A) (A) (A) (A) (A) (A) (A) (A) (A) (A) (A) (A)
                 (A) (A) (A) (A) (A) (A) (A) (A) (A) (A) (A) (A)
                 (A) (A) (A) (A) (A) (A) (A) (A) (A) (A) (A) (A)
                 (A) (A) (A) (A) (A) (A) (A) (A) (A) (A) (A) (A)
                 (A) (A) (A) (A) (A) (A) (A) (A) (A) (A) (A) (A)
                 (A) (A) (A) (A) (A) (A) (A) (A) (A) (A) (A) (A)
                 (A) (A) (A) (A) (A) (A) (A) (A) (A) (A) (A) (A)
                 (A) (A) (A) (A) (A) (A) (A) (A) (A) (A) (A) (A)
                 (A) (A) (A) (A) (A) (A) (A) (A) (A) (A) (A) (A)
                 (A) (A) (A) (A) (A) (A) (A) (A) (A) (A) (A) (A)
                 (A) (A) (A) (A) (A) (A) (A) (A) (A) (A) (A) (A)
                 (A) (A) (A) (A) (A) (A) (A) (A) (A) (A) (A) (A)
                 (A) (A) (A) (A) (A) (A) (A) (A) (A) (A) (A) (A)
                 (A) (A) (A) (A) (A) (A) (A) (A) (A) (A) (A) (A)
                 (A) (A) (A) (A) (A) (A) (A) (A) (A) (A)
 The electronic state is 1-A.
 Alpha  occ. eigenvalues --  -19.64999 -19.64951 -10.59383 -10.58578 -10.58225
 Alpha  occ. eigenvalues --   -1.17593  -1.16167  -0.85320  -0.79194  -0.68051
 Alpha  occ. eigenvalues --   -0.59937  -0.59603  -0.53784  -0.49978  -0.47962
 Alpha  occ. eigenvalues --   -0.46816  -0.46209  -0.40305  -0.39931  -0.26839
 Alpha virt. eigenvalues --    0.05554   0.07823   0.08119   0.09802   0.13402
 Alpha virt. eigenvalues --    0.14546   0.15160   0.18641   0.24883   0.25731
 Alpha virt. eigenvalues --    0.28311   0.29151   0.32594   0.36762   0.37982
 Alpha virt. eigenvalues --    0.38498   0.40347   0.41543   0.42440   0.44824
 Alpha virt. eigenvalues --    0.46013   0.47195   0.48439   0.50318   0.52797
 Alpha virt. eigenvalues --    0.57155   0.58321   0.61004   0.61352   0.62761
 Alpha virt. eigenvalues --    0.64479   0.67667   0.68719   0.71843   0.73643
 Alpha virt. eigenvalues --    0.76355   0.80751   0.81323   0.81880   0.87296
 Alpha virt. eigenvalues --    0.89158   0.93920   0.95954   0.99777   1.01361
 Alpha virt. eigenvalues --    1.03644   1.05989   1.08404   1.09439   1.11553
 Alpha virt. eigenvalues --    1.12498   1.14776   1.17536   1.20715   1.24113
 Alpha virt. eigenvalues --    1.25445   1.28190   1.32868   1.35936   1.36073
 Alpha virt. eigenvalues --    1.37405   1.39811   1.42646   1.45323   1.47711
 Alpha virt. eigenvalues --    1.52213   1.55107   1.66142   1.75506   1.78869
 Alpha virt. eigenvalues --    1.80408   1.86685   1.93924   1.95276   1.99128
 Alpha virt. eigenvalues --    2.06130   2.09822   2.11511   2.18428   2.22127
 Alpha virt. eigenvalues --    2.24066   2.28505   2.30120   2.32174   2.36070
 Alpha virt. eigenvalues --    2.38238   2.47922   2.50588   2.53226   2.56022
 Alpha virt. eigenvalues --    2.61617   2.63348   2.69293   2.71779   2.77042
 Alpha virt. eigenvalues --    2.78901   2.79887   2.82220   2.83820   2.84737
 Alpha virt. eigenvalues --    2.87769   2.91752   2.92831   2.95761   2.97341
 Alpha virt. eigenvalues --    2.99953   3.03216   3.03622   3.06182   3.11149
 Alpha virt. eigenvalues --    3.12420   3.15471   3.16251   3.19068   3.23203
 Alpha virt. eigenvalues --    3.23405   3.26060   3.27040   3.28969   3.29761
 Alpha virt. eigenvalues --    3.30497   3.35194   3.36707   3.38399   3.41351
 Alpha virt. eigenvalues --    3.46249   3.47599   3.49955   3.53072   3.57239
 Alpha virt. eigenvalues --    3.60083   3.60649   3.64007   3.65597   3.69040
 Alpha virt. eigenvalues --    3.72142   3.74685   3.77734   3.80701   3.81545
 Alpha virt. eigenvalues --    3.82785   3.86441   3.88609   3.91152   3.92696
 Alpha virt. eigenvalues --    3.97584   4.00028   4.00226   4.03521   4.06155
 Alpha virt. eigenvalues --    4.08104   4.15081   4.20593   4.22405   4.26161
 Alpha virt. eigenvalues --    4.27418   4.29140   4.38279   4.45697   4.51415
 Alpha virt. eigenvalues --    4.54315   4.56449   4.58554   4.66131   4.72261
 Alpha virt. eigenvalues --    4.75857   4.80847   4.85807   4.87680   4.89764
 Alpha virt. eigenvalues --    4.89928   4.94936   4.97146   5.01249   5.02929
 Alpha virt. eigenvalues --    5.09167   5.12640   5.18901   5.24343   5.31169
 Alpha virt. eigenvalues --    5.35069   5.43748   5.47507   5.53490   5.59330
 Alpha virt. eigenvalues --    5.68775   5.71311   5.73818   5.80662   5.88933
 Alpha virt. eigenvalues --    5.97676   6.01585   6.17669   6.27194   6.29760
 Alpha virt. eigenvalues --    6.39914   6.49259   6.58608   6.64498   6.71886
 Alpha virt. eigenvalues --    6.74660   6.77289   6.83534   6.92598   7.04325
 Alpha virt. eigenvalues --    7.12640   7.20803   7.27864   7.34160  10.41461
 Alpha virt. eigenvalues --   10.87512  11.65499  12.88794  14.05428
          Condensed to atoms (all electrons):
               1          2          3          4          5          6
     1  O    7.845413   0.003097   0.282064   0.344318  -0.068025  -0.035227
     2  O    0.003097   7.803429   0.000274  -0.073299   0.339341   0.000004
     3  C    0.282064   0.000274   4.716457  -0.049405  -0.024058   0.397988
     4  C    0.344318  -0.073299  -0.049405   4.944961   0.550622   0.002411
     5  C   -0.068025   0.339341  -0.024058   0.550622   4.950804   0.001462
     6  H   -0.035227   0.000004   0.397988   0.002411   0.001462   0.613444
     7  H   -0.039596  -0.001051   0.390514  -0.017356  -0.005232  -0.036261
     8  H   -0.036681   0.000010   0.407586   0.000234   0.002090  -0.044596
     9  H   -0.032653  -0.002675   0.006369   0.428473  -0.080290  -0.000166
    10  H   -0.001632  -0.029281  -0.009177  -0.062554   0.419567   0.000228
    11  H    0.000261   0.327000  -0.000043  -0.004968  -0.053734   0.000008
               7          8          9         10         11
     1  O   -0.039596  -0.036681  -0.032653  -0.001632   0.000261
     2  O   -0.001051   0.000010  -0.002675  -0.029281   0.327000
     3  C    0.390514   0.407586   0.006369  -0.009177  -0.000043
     4  C   -0.017356   0.000234   0.428473  -0.062554  -0.004968
     5  C   -0.005232   0.002090  -0.080290   0.419567  -0.053734
     6  H   -0.036261  -0.044596  -0.000166   0.000228   0.000008
     7  H    0.694013  -0.049824  -0.000171  -0.005845  -0.000196
     8  H   -0.049824   0.610525  -0.000254   0.001162   0.000006
     9  H   -0.000171  -0.000254   0.537211   0.002956   0.004661
    10  H   -0.005845   0.001162   0.002956   0.517015   0.006712
    11  H   -0.000196   0.000006   0.004661   0.006712   0.456391
 Mulliken charges:
               1
     1  O   -0.261339
     2  O   -0.366850
     3  C   -0.118569
     4  C   -0.063436
     5  C   -0.032546
     6  H    0.100704
     7  H    0.071004
     8  H    0.109742
     9  H    0.136539
    10  H    0.160849
    11  H    0.263902
 Sum of Mulliken charges =  -0.00000
 Mulliken charges with hydrogens summed into heavy atoms:
               1
     1  O   -0.261339
     2  O   -0.102948
     3  C    0.162882
     4  C    0.073103
     5  C    0.128303
 APT charges:
               1
     1  O   -0.150566
     2  O   -0.477988
     3  C   -0.887898
     4  C   -0.417115
     5  C   -0.300566
     6  H    0.438562
     7  H    0.152071
     8  H    0.417449
     9  H    0.386220
    10  H    0.311034
    11  H    0.528798
 Sum of APT charges =  -0.00000
 APT charges with hydrogens summed into heavy atoms:
               1
     1  O   -0.150566
     2  O    0.050809
     3  C    0.120184
     4  C   -0.030895
     5  C    0.010468
 Electronic spatial extent (au):  <R**2>=            501.6082
 Charge=             -0.0000 electrons
 Dipole moment (field-independent basis, Debye):
    X=              0.3634    Y=              0.0206    Z=              0.3064  Tot=              0.4758
 Quadrupole moment (field-independent basis, Debye-Ang):
   XX=            -30.5446   YY=            -28.0655   ZZ=            -32.1023
   XY=             -7.1283   XZ=             -0.8530   YZ=              0.4319
 Traceless Quadrupole moment (field-independent basis, Debye-Ang):
   XX=             -0.3071   YY=              2.1720   ZZ=             -1.8648
   XY=             -7.1283   XZ=             -0.8530   YZ=              0.4319
 Octapole moment (field-independent basis, Debye-Ang**2):
  XXX=              3.0931  YYY=              2.4528  ZZZ=              0.2232  XYY=             -6.2611
  XXY=              7.7282  XXZ=              2.7073  XZZ=              1.0184  YZZ=              0.2425
  YYZ=              0.1184  XYZ=             -0.8999
 Hexadecapole moment (field-independent basis, Debye-Ang**3):
 XXXX=           -457.7718 YYYY=           -103.6576 ZZZZ=            -39.3590 XXXY=            -35.3319
 XXXZ=             -6.2016 YYYX=             -0.3514 YYYZ=              0.4861 ZZZX=             -0.9956
 ZZZY=              0.4443 XXYY=            -94.8769 XXZZ=            -82.7835 YYZZ=            -26.3556
 XXYZ=              2.6547 YYXZ=             -0.7903 ZZXY=             -0.0308
 N-N= 1.746011333563D+02 E-N=-9.774693657495D+02  KE= 2.666915381937D+02
  Exact polarizability:   0.000   0.000   0.000   0.000   0.000   0.000
 Approx polarizability:  61.203   5.873  56.847   0.077   0.725  38.235
 No NMR shielding tensors so no spin-rotation constants.
 Leave Link  601 at Thu Sep  5 14:19:51 2019, MaxMem=   671088640 cpu:              59.5 elap:              36.5
 (Enter /shared/centos7/gaussian/g16/l701.exe)
 SCFChk:  SCF convergence  3.42D-09 required  1.00D-08
 ... and contract with generalized density number  0.
 Compute integral second derivatives.
 Entering OneElI...
 Calculate overlap and kinetic energy integrals
    NBasis = 265  MinDer = 2  MaxDer = 2
 Requested accuracy = 0.1000D-12
 PrmmSu-InSpLW:  IPartL=    0 NPrtUS=   20 NPrtUL=    1 DoSpLW=F IThBeg=    0 IThEnd=   19 NThAct=   20.
 PrsmSu:  NPrtUS=  20 ThrOK=T IAlg=1 NPAlg=1 LenDen=           0 ISkipM=0 DoSpLW=F IThBeg=    0 IThEnd=   19.
 Prism:   IPart=     0 DynPar=F LinDyn=F Incr=           1.
 PRISM was handed    33439771 working-precision words and  3728 shell-pairs
 PRISM was handed    33439771 working-precision words and  3728 shell-pairs
 PRISM was handed    33439771 working-precision words and  3728 shell-pairs
 PRISM was handed    33439771 working-precision words and  3728 shell-pairs
 PRISM was handed    33439771 working-precision words and  3728 shell-pairs
 PRISM was handed    33439771 working-precision words and  3728 shell-pairs
 PRISM was handed    33439771 working-precision words and  3728 shell-pairs
 IPart= 18 NShTot=         164 NBatch=          25 AvBLen=         6.6
 PRISM was handed    33439771 working-precision words and  3728 shell-pairs
 PRISM was handed    33439771 working-precision words and  3728 shell-pairs
 PRISM was handed    33439771 working-precision words and  3728 shell-pairs
 PRISM was handed    33439771 working-precision words and  3728 shell-pairs
 PRISM was handed    33439771 working-precision words and  3728 shell-pairs
 PRISM was handed    33439771 working-precision words and  3728 shell-pairs
 IPart=  0 NShTot=         232 NBatch=          72 AvBLen=         3.2
 IPart= 16 NShTot=         165 NBatch=          25 AvBLen=         6.6
 PRISM was handed    33439771 working-precision words and  3728 shell-pairs
 IPart=  2 NShTot=         212 NBatch=          52 AvBLen=         4.1
 PRISM was handed    33439771 working-precision words and  3728 shell-pairs
 IPart=  3 NShTot=         208 NBatch=          48 AvBLen=         4.3
 IPart= 14 NShTot=         175 NBatch=          27 AvBLen=         6.5
 PRISM was handed    33439771 working-precision words and  3728 shell-pairs
 IPart= 17 NShTot=         165 NBatch=          25 AvBLen=         6.6
 PRISM was handed    33439771 working-precision words and  3728 shell-pairs
 IPart= 11 NShTot=         178 NBatch=          28 AvBLen=         6.4
 PRISM was handed    33439771 working-precision words and  3728 shell-pairs
 IPart= 13 NShTot=         176 NBatch=          27 AvBLen=         6.5
 PRISM was handed    33439771 working-precision words and  3728 shell-pairs
 IPart= 15 NShTot=         168 NBatch=          26 AvBLen=         6.5
 PRISM was handed    33439771 working-precision words and  3728 shell-pairs
 IPart=  4 NShTot=         203 NBatch=          47 AvBLen=         4.3
 IPart=  1 NShTot=         221 NBatch=          61 AvBLen=         3.6
 IPart=  8 NShTot=         183 NBatch=          30 AvBLen=         6.1
 IPart= 19 NShTot=         163 NBatch=          25 AvBLen=         6.5
 IPart=  9 NShTot=         179 NBatch=          28 AvBLen=         6.4
 IPart= 10 NShTot=         178 NBatch=          28 AvBLen=         6.4
 IPart=  7 NShTot=         190 NBatch=          35 AvBLen=         5.4
 IPart= 12 NShTot=         176 NBatch=          27 AvBLen=         6.5
 IPart=  6 NShTot=         195 NBatch=          39 AvBLen=         5.0
 IPart=  5 NShTot=         197 NBatch=          41 AvBLen=         4.8
 PrSmSu:  NxtVal=             21.
 Entering OneElI...
 Calculate potential energy integrals
    NBasis = 265  MinDer = 2  MaxDer = 2
 Requested accuracy = 0.1000D-12
 PrmmSu-InSpLW:  IPartL=    0 NPrtUS=   20 NPrtUL=    1 DoSpLW=F IThBeg=    0 IThEnd=   19 NThAct=   20.
 PrsmSu:  NPrtUS=  20 ThrOK=T IAlg=1 NPAlg=1 LenDen=           0 ISkipM=0 DoSpLW=F IThBeg=    0 IThEnd=   19.
 Prism:   IPart=     0 DynPar=F LinDyn=F Incr=          19.
 PRISM was handed    33456161 working-precision words and  3521 shell-pairs
 PRISM was handed    33456161 working-precision words and  3521 shell-pairs
 PRISM was handed    33456161 working-precision words and  3521 shell-pairs
 PRISM was handed    33456161 working-precision words and  3521 shell-pairs
 PRISM was handed    33456161 working-precision words and  3521 shell-pairs
 PRISM was handed    33456161 working-precision words and  3521 shell-pairs
 PRISM was handed    33456161 working-precision words and  3521 shell-pairs
 PRISM was handed    33456161 working-precision words and  3521 shell-pairs
 PRISM was handed    33456161 working-precision words and  3521 shell-pairs
 PRISM was handed    33456161 working-precision words and  3521 shell-pairs
 PRISM was handed    33456161 working-precision words and  3521 shell-pairs
 PRISM was handed    33456161 working-precision words and  3521 shell-pairs
 PRISM was handed    33456161 working-precision words and  3521 shell-pairs
 PRISM was handed    33456161 working-precision words and  3521 shell-pairs
 PRISM was handed    33456161 working-precision words and  3521 shell-pairs
 PRISM was handed    33456161 working-precision words and  3521 shell-pairs
 PRISM was handed    33456161 working-precision words and  3521 shell-pairs
 PRISM was handed    33456161 working-precision words and  3521 shell-pairs
 PRISM was handed    33456161 working-precision words and  3521 shell-pairs
 PRISM was handed    33456161 working-precision words and  3521 shell-pairs
 IPart=  7 NShTot=        1903 NBatch=         173 AvBLen=        11.0
 IPart= 18 NShTot=        1749 NBatch=         159 AvBLen=        11.0
 IPart=  5 NShTot=        1958 NBatch=         178 AvBLen=        11.0
 IPart= 12 NShTot=        1815 NBatch=         165 AvBLen=        11.0
 IPart=  6 NShTot=        1947 NBatch=         177 AvBLen=        11.0
 IPart= 10 NShTot=        1870 NBatch=         170 AvBLen=        11.0
 IPart=  8 NShTot=        1892 NBatch=         172 AvBLen=        11.0
 IPart= 17 NShTot=        1760 NBatch=         160 AvBLen=        11.0
 IPart=  9 NShTot=        1881 NBatch=         171 AvBLen=        11.0
 IPart=  0 NShTot=        2431 NBatch=         221 AvBLen=        11.0
 IPart= 13 NShTot=        1815 NBatch=         165 AvBLen=        11.0
 IPart= 14 NShTot=        1793 NBatch=         163 AvBLen=        11.0
 IPart= 16 NShTot=        1760 NBatch=         160 AvBLen=        11.0
 IPart= 19 NShTot=        1749 NBatch=         159 AvBLen=        11.0
 IPart=  1 NShTot=        2332 NBatch=         212 AvBLen=        11.0
 IPart=  4 NShTot=        2079 NBatch=         189 AvBLen=        11.0
 IPart= 15 NShTot=        1771 NBatch=         161 AvBLen=        11.0
 IPart= 11 NShTot=        1837 NBatch=         167 AvBLen=        11.0
 IPart=  2 NShTot=        2244 NBatch=         204 AvBLen=        11.0
 IPart=  3 NShTot=        2145 NBatch=         195 AvBLen=        11.0
 PrSmSu:  NxtVal=            381.
 Polarizability after L701:
                1             2             3 
      1  0.000000D+00
      2  0.000000D+00  0.000000D+00
      3  0.000000D+00  0.000000D+00  0.000000D+00
 Dipole Derivatives after L701:
                 1             2             3             4             5 
      1  -0.566645D-01  0.944488D-01 -0.959395D-02 -0.289306D+00  0.138424D+01
      2   0.202664D+00 -0.139990D+00  0.146360D-02  0.298445D+00 -0.722562D+00
      3  -0.148861D-02  0.118821D-02 -0.255045D+00  0.678475D-01 -0.117159D+00
                 6             7             8             9            10 
      1   0.254108D+00 -0.109541D+01  0.543571D+00  0.230963D-01 -0.519742D+00
      2  -0.822437D-01  0.876415D-01 -0.781443D+00 -0.135404D-01  0.375252D-01
      3  -0.422096D+00 -0.187674D-01  0.580092D-02 -0.786838D+00 -0.303202D-01
                11            12            13            14            15 
      1  -0.417821D-01 -0.862717D-02 -0.337096D+00 -0.282496D+00  0.741909D-02
      2  -0.753585D+00 -0.228993D-01 -0.919007D-01 -0.609161D+00 -0.434087D-03
      3  -0.159097D-01  0.219824D-01  0.852939D-02 -0.320141D-02  0.445572D-01
                16            17            18            19            20 
      1   0.753630D+00 -0.973493D-01  0.745769D+00 -0.765439D-01 -0.263760D+00
      2  -0.168148D+00  0.152094D+00 -0.142618D+00  0.393330D+00  0.461765D+00
      3   0.248423D+00  0.874418D-02  0.409961D+00 -0.239500D-01 -0.412088D-01
                21            22            23            24            25 
      1  -0.773439D-02  0.615495D+00 -0.183012D+00 -0.743831D+00  0.229252D+00
      2  -0.484216D-02 -0.156929D+00  0.188191D+00  0.175802D+00 -0.258021D+00
      3   0.709932D-01 -0.210228D+00  0.216021D-01  0.448660D+00  0.206518D-02
                26            27            28            29            30 
      1  -0.196098D+00 -0.115682D-02  0.884789D-01  0.229814D+00 -0.107102D-02
      2   0.853912D+00  0.905165D-02 -0.245568D+00  0.752014D+00  0.491964D-02
      3   0.906629D-03  0.754964D-01 -0.117510D-01  0.354963D-01  0.926093D-01
                31            32            33 
      1   0.687911D+00 -0.118757D+01 -0.258379D+00
      2  -0.990384D-01  0.598763D+00  0.753413D-01
      3  -0.303603D-01  0.103740D+00  0.299719D+00
 Hessian after L701:
                1             2             3             4             5 
      1  0.345589D+01
      2  0.263900D+01  0.892086D+01
      3 -0.265604D+00  0.129511D+00  0.145384D+02
      4  0.449126D+00  0.188141D+00  0.907399D-03  0.294704D+01
      5  0.227595D+00 -0.167961D+00 -0.337762D-02  0.125246D+01  0.878972D+01
      6  0.596789D-02 -0.464444D-03 -0.207315D+00  0.646585D+00 -0.953608D+00
      7 -0.518185D+01 -0.343528D+01  0.122680D+00  0.206763D+00 -0.777709D-02
      8 -0.322138D+01 -0.661133D+00 -0.717504D-01 -0.310786D-02 -0.117350D+00
      9  0.118260D+00 -0.987645D-01 -0.702849D+01  0.298920D-02  0.186061D-03
     10  0.114066D+01 -0.297692D+00  0.129570D+00  0.497411D-01  0.320838D+00
     11 -0.480779D+00 -0.811626D+01 -0.392058D-01  0.220286D+00 -0.507226D-02
     12  0.160296D+00 -0.263871D-01 -0.811041D+01  0.332256D-01 -0.283180D-01
     13  0.694575D-01  0.370477D+00  0.329594D-01  0.100700D+01 -0.392162D+00
     14  0.379622D+00  0.135108D+00  0.685044D-02 -0.524829D+00 -0.769800D+01
     15  0.146649D-01  0.404226D-02  0.202344D+00 -0.456066D+00  0.640714D-01
     16  0.284659D-01  0.112414D+00  0.130689D+00  0.294227D-01  0.333994D-02
     17  0.129184D+00 -0.157505D+00 -0.297142D-01 -0.293541D-02 -0.898357D-02
     18  0.119002D+00 -0.461710D-01  0.238462D+00  0.177264D-01  0.361058D-02
     19  0.173483D+00  0.215044D+00 -0.167682D-01 -0.287197D-02 -0.391864D-02
     20  0.141391D+00  0.444645D-02 -0.758391D-01 -0.354604D-01 -0.154835D-01
     21 -0.151603D-01 -0.482579D-01  0.100367D+00  0.381177D-02 -0.230997D-02
     22  0.295958D-01  0.114474D+00 -0.129587D+00  0.290035D-01  0.162326D-02
     23  0.116234D+00 -0.173732D+00  0.582423D-01 -0.548222D-02 -0.100042D-01
     24 -0.123301D+00  0.726870D-01  0.273691D+00 -0.193781D-01 -0.359606D-02
     25 -0.202988D+00  0.593655D-01 -0.106607D-01 -0.214724D-01  0.298913D-01
     26  0.182264D-01  0.158178D+00  0.902963D-02  0.766103D-01  0.805677D-01
     27 -0.883966D-02  0.637142D-02  0.556238D-01  0.544207D-02  0.596531D-02
     28 -0.162956D-01  0.345713D-01  0.901864D-02 -0.175180D+00  0.849248D-01
     29  0.974828D-01  0.780498D-01  0.133846D-01  0.380868D-01  0.106063D+00
     30  0.666806D-02  0.757336D-02 -0.449957D-01  0.221618D-01 -0.868566D-02
     31  0.544516D-01 -0.516375D-03 -0.320456D-02 -0.451858D+01 -0.151681D+01
     32 -0.465729D-01 -0.200528D-01  0.286881D-02 -0.120377D+01 -0.953504D+00
     33 -0.119541D-01 -0.140506D-03 -0.176698D-01 -0.257405D+00  0.926062D+00
                6             7             8             9            10 
      6  0.129269D+02
      7 -0.778289D-03  0.121484D+02
      8  0.758447D-03  0.289901D+01  0.956126D+01
      9 -0.108723D+00 -0.187183D+00  0.110473D+00  0.152413D+02
     10  0.517499D-01  0.292804D+00 -0.342355D+00  0.340986D-01  0.700289D+01
     11 -0.153114D-01 -0.275224D+00 -0.186197D-02 -0.376243D-01 -0.280978D+01
     12  0.169265D+00  0.352821D-01 -0.502392D-01 -0.176552D+00 -0.144011D+00
     13 -0.418883D+00  0.232251D+00  0.409695D-01  0.372877D-01 -0.515463D+01
     14  0.558774D-01 -0.631531D-01 -0.180027D+00 -0.847818D-02  0.420877D+01
     15 -0.771154D+01  0.435565D-01 -0.113038D-01 -0.173264D+00 -0.250750D-01
     16  0.868414D-02 -0.231856D+01 -0.173460D+00  0.116951D+01  0.746541D-01
     17 -0.575418D-03 -0.207229D+00 -0.326504D+01 -0.254638D+00 -0.495013D-01
     18 -0.423722D-02  0.108761D+01 -0.197888D+00 -0.201688D+01  0.663841D-01
     19  0.916047D-02 -0.264125D+01  0.112350D+01 -0.101240D+00 -0.355640D-01
     20 -0.571000D-02  0.142844D+01 -0.199581D+01 -0.142414D+00  0.340249D-01
     21 -0.211549D-01 -0.123625D+00 -0.140586D+00 -0.361145D+01 -0.179159D-01
     22 -0.744001D-02 -0.280366D+01 -0.253360D+00 -0.107080D+01  0.452199D-01
     23  0.632542D-03 -0.274369D+00 -0.342135D+01  0.430114D+00 -0.441933D-01
     24 -0.547113D-02 -0.972002D+00  0.358450D+00 -0.205265D+01 -0.581195D-01
     25  0.803066D-02  0.561429D-01 -0.969268D-01  0.213879D-02 -0.358042D+01
     26  0.123551D-01 -0.112650D+00  0.635801D-01 -0.217990D-02 -0.904222D+00
     27 -0.505882D-01  0.504974D-03 -0.505590D-03 -0.420051D-01 -0.181249D-01
     28  0.169501D-01 -0.748991D-02  0.286924D-01 -0.404802D-02  0.202368D+00
     29 -0.526072D-02  0.704066D-01  0.246558D-01  0.243064D-02 -0.946040D-01
     30  0.360614D-01 -0.119803D-02  0.209952D-02 -0.244822D-01 -0.323328D-02
     31 -0.320027D+00  0.164656D-01 -0.158321D-02 -0.101404D-02 -0.377277D-01
     32  0.911307D+00 -0.221826D-01 -0.691944D-02  0.895207D-03 -0.212779D-01
     33 -0.502315D+01 -0.484138D-02  0.492254D-03 -0.677910D-02 -0.153234D-01
               11            12            13            14            15 
     11  0.138573D+02
     12 -0.304822D-01  0.244407D+02
     13  0.433931D+01 -0.461005D-01  0.711250D+01
     14 -0.368434D+01  0.753240D-01 -0.303792D+01  0.134868D+02
     15  0.807447D-01 -0.125354D+02  0.438918D+00 -0.159309D+00  0.241389D+02
     16 -0.476906D-01  0.498995D-01  0.710555D-01 -0.317594D-02  0.146073D-01
     17 -0.162053D-01 -0.160529D-01 -0.790773D-02 -0.220919D-01  0.176614D-02
     18 -0.262534D-01 -0.352382D-02  0.322418D-01 -0.505440D-03 -0.146003D-01
     19  0.758211D-01 -0.241349D-01  0.906748D-02 -0.139486D+00 -0.474805D-01
     20 -0.236961D-01  0.348249D-01 -0.197008D+00  0.819853D-01  0.186352D-01
     21  0.287209D-01  0.620694D-02 -0.331841D-01  0.612437D-02 -0.743799D-01
     22 -0.399380D-01 -0.409585D-01  0.777418D-01 -0.112300D-01 -0.132962D-01
     23 -0.889420D-02  0.164777D-01 -0.179587D-01 -0.234585D-01 -0.830678D-03
     24  0.277952D-01  0.429233D-03 -0.341355D-01  0.271815D-02 -0.175528D-01
     25 -0.897791D+00 -0.187715D-01  0.252812D+00 -0.115677D+00 -0.255089D-02
     26 -0.164785D+01  0.323250D-01 -0.122036D+00 -0.363753D+00 -0.189817D-01
     27  0.294005D-01 -0.395483D+01 -0.191780D-02 -0.139616D-01  0.228609D+00
     28 -0.149328D+00 -0.266064D-02 -0.380748D+01 -0.803458D+00 -0.151355D-02
     29 -0.332440D+00 -0.909521D-02 -0.948709D+00 -0.178484D+01  0.361658D-01
     30 -0.112387D-01  0.174334D+00 -0.105435D-01  0.536001D-01 -0.412964D+01
     31  0.651180D-01 -0.206693D-02  0.130221D+00  0.110547D+00  0.342356D-01
     32 -0.206748D-01  0.162307D-02 -0.270510D-01  0.525833D-01 -0.150000D-01
     33 -0.654538D-02 -0.102052D-01  0.335723D-02 -0.182400D-01  0.865885D-01
               16            17            18            19            20 
     16  0.205254D+01
     17  0.238473D+00  0.328226D+01
     18 -0.121100D+01  0.375330D+00  0.203623D+01
     19 -0.101701D+00 -0.947988D-01 -0.104602D+00  0.268216D+01
     20 -0.121082D+00  0.553040D-01 -0.720486D-01 -0.108195D+01  0.180540D+01
     21 -0.125758D+00 -0.691381D-01  0.493039D-01  0.100834D+00  0.126572D+00
     22  0.151722D+00 -0.434530D-02 -0.164373D-01 -0.985469D-01 -0.148109D+00
     23 -0.707575D-02  0.131697D+00 -0.331186D-01 -0.105232D+00  0.102562D+00
     24 -0.413308D-01 -0.751760D-02 -0.280900D+00  0.179984D+00  0.116811D+00
     25  0.328943D-02 -0.100746D-02  0.412146D-02 -0.371591D-02 -0.550911D-02
     26 -0.813803D-02  0.202438D-02 -0.627197D-02  0.393635D-02  0.104923D-01
     27  0.107785D-02 -0.634427D-03 -0.981773D-03  0.161210D-03 -0.333273D-03
     28  0.490985D-02  0.125707D-02  0.226320D-02  0.214631D-01 -0.106377D-01
     29  0.128158D-01 -0.212695D-02  0.759275D-02  0.500642D-02 -0.317955D-01
     30  0.454179D-02  0.104042D-02 -0.155003D-02  0.339639D-02 -0.178485D-02
     31  0.419562D-02 -0.118884D-02  0.269691D-02 -0.252663D-02 -0.410540D-02
     32 -0.641978D-02  0.669818D-03 -0.427688D-02  0.207532D-02  0.659294D-02
     33 -0.920545D-03  0.133402D-03 -0.132209D-02  0.689999D-03  0.128630D-02
               21            22            23            24            25 
     21  0.356523D+01
     22  0.207001D+00  0.254942D+01
     23  0.979306D-01  0.338062D+00  0.340501D+01
     24  0.136454D-01  0.108090D+01 -0.569492D+00  0.207205D+01
     25 -0.111923D-03  0.199661D-02 -0.894832D-03 -0.403897D-02  0.348477D+01
     26  0.299896D-03 -0.643054D-02  0.245499D-02  0.641450D-02  0.102181D+01
     27 -0.248154D-02 -0.102662D-02  0.696878D-03 -0.808138D-03  0.272868D-01
     28  0.421283D-02  0.138568D-01  0.245268D-02 -0.564674D-02 -0.136688D-01
     29  0.334366D-03  0.149573D-01 -0.558443D-02 -0.899032D-02 -0.819779D-02
     30 -0.243853D-01 -0.671515D-02 -0.118449D-02 -0.304744D-02 -0.170846D-03
     31 -0.103066D-03  0.365044D-02 -0.154214D-02 -0.293534D-02  0.232500D-01
     32  0.309628D-03 -0.570338D-02  0.130183D-02  0.472027D-02  0.149359D-01
     33 -0.896754D-03 -0.164358D-02  0.532012D-03  0.618870D-03 -0.527290D-02
               26            27            28            29            30 
     26  0.165748D+01
     27 -0.260110D-01  0.379128D+01
     28 -0.855811D-02 -0.297593D-04  0.374858D+01
     29  0.590221D-01  0.677005D-03  0.884306D+00  0.182941D+01
     30  0.740359D-03 -0.387911D-02 -0.791965D-02 -0.505011D-01  0.404122D+01
     31  0.414498D-01 -0.453420D-02  0.289304D-01 -0.715516D-01 -0.698756D-02
     32 -0.221902D-01 -0.166520D-02 -0.642226D-01  0.595833D-01  0.834102D-02
     33 -0.771990D-02 -0.199321D-01 -0.106264D-01  0.132623D-01 -0.196397D-01
               31            32            33 
     31  0.429766D+01
     32  0.138018D+01  0.902610D+00
     33  0.303940D+00 -0.909123D+00  0.501239D+01
 Leave Link  701 at Thu Sep  5 14:20:22 2019, MaxMem=   671088640 cpu:              52.6 elap:              30.7
 (Enter /shared/centos7/gaussian/g16/l702.exe)
 L702 exits ... SP integral derivatives will be done elsewhere.
 Leave Link  702 at Thu Sep  5 14:20:23 2019, MaxMem=   671088640 cpu:               1.2 elap:               1.2
 (Enter /shared/centos7/gaussian/g16/l703.exe)
 Integral derivatives from FoFJK, PRISM(SPDF).
 Compute integral second derivatives, UseDBF=F ICtDFT=           0.
 ICntrl=    100147.
 Calling FoFJK, ICntrl=    100147 FMM=F ISym2X=0 I1Cent= 0 IOpClX= 0 NMat=1 NMatS=1 NMatT=0.
 FoFJK:  IHMeth= 1 ICntrl=  100147 DoSepK=F KAlg= 0 I1Cent=           0 FoldK=F
 IRaf=         0 NMat=       1 IRICut=       1 DoRegI=T DoRafI=F ISym2E= 0 IDoP0=0 IntGTp=1.
 FoFCou: FMM=F IPFlag=           0 FMFlag=      100000 FMFlg1=         800
         NFxFlg=           0 DoJE=F BraDBF=F KetDBF=F FulRan=T
         wScrn=  0.000000 ICntrl=    100147 IOpCl=  0 I1Cent=           0 NGrid=           0
         NMat0=    1 NMatS0=      1 NMatT0=    0 NMatD0=    1 NMtDS0=    0 NMtDT0=    0
 Symmetry not used in FoFCou.
 FoFCou:  KetSym=F NOpSet=  1 NOpAb=1 NOp=  1.
 FoFCou:  CnvScl= 1.00D+00 Thresh= 1.00D-08 IAcrcy=      12.
 PrismS was handed   670741921 working-precision words and  3634 shell-pairs
 FoFCou: LinMIO=F DoNuc=F BraDBF=F KetDBF=F HaveP=T PDBF=F HaveZ=T HaveW=F
         NIJTC =      10 NIJTAt=       0 NIJTCD=       0 NIJTT =      10
         IJTBeg=       1 IJTEnd=      10 KLTBeg=       1 KLTEnd=      10
         IPTBeg=       1 IPTEnd=      10 IPTBCv=       1 IPTECv=      10
         IZTBeg=       1 IZTEnd=      10 IZTBCv=       1 IZTECv=      10
         IWTBeg=      11 IWTEnd=      10 IWTBCv=      11 IWTECv=      10
         INTBeg=       1 INTEnd=       0 IFTBCv=       1 IFTECv=      10
 NCel replicated for PrismC:     1
 CoulSu-InSpLW:  IPartL=    0 NPrtUS=   20 NPrtUL=    1 DoSpLW=F IThBeg=    0 IThEnd=   19 NThAct=   20.
 CoulSu:  IncDef=  1024 NBBP=        6604795 NTPThr=   100 NPartT=   20 Incr=        1024 LDynOK=F GPUOK=T.
 CoulSu:  NPrtUS=  20 ThrOK=T IAlg=1 NPAlg=1 LenDen=           0 LWGrdD=           0 DoCopy=F ISkipM=0
          DoSpLW=F IThBeg=    0 IThEnd=   19.
 Enter PrismC:  IPart=  0 JobTyp=22 DoJE=F Cont=F.
 PrismC:  IPart=     0 DynPar=T LinDyn=F Incr=        1024 UseFst=F UseS4=T ISplat=2.
 PrismC was handed    33456893 working-precision words and  3634 shell-pairs
 Enter PrismC:  IPart= 19 JobTyp=22 DoJE=F Cont=F.
 PrismC:  IPart=    19 DynPar=T LinDyn=F Incr=        1024 UseFst=F UseS4=T ISplat=2.
 PrismC was handed    33456893 working-precision words and  3634 shell-pairs
 Enter PrismC:  IPart=  1 JobTyp=22 DoJE=F Cont=F.
 PrismC:  IPart=     1 DynPar=T LinDyn=F Incr=        1024 UseFst=F UseS4=T ISplat=2.
 PrismC was handed    33456893 working-precision words and  3634 shell-pairs
 Enter PrismC:  IPart= 16 JobTyp=22 DoJE=F Cont=F.
 PrismC:  IPart=    16 DynPar=T LinDyn=F Incr=        1024 UseFst=F UseS4=T ISplat=2.
 PrismC was handed    33456893 working-precision words and  3634 shell-pairs
 Enter PrismC:  IPart=  8 JobTyp=22 DoJE=F Cont=F.
 PrismC:  IPart=     8 DynPar=T LinDyn=F Incr=        1024 UseFst=F UseS4=T ISplat=2.
 PrismC was handed    33456893 working-precision words and  3634 shell-pairs
 Enter PrismC:  IPart= 10 JobTyp=22 DoJE=F Cont=F.
 PrismC:  IPart=    10 DynPar=T LinDyn=F Incr=        1024 UseFst=F UseS4=T ISplat=2.
 PrismC was handed    33456893 working-precision words and  3634 shell-pairs
 Enter PrismC:  IPart= 15 JobTyp=22 DoJE=F Cont=F.
 PrismC:  IPart=    15 DynPar=T LinDyn=F Incr=        1024 UseFst=F UseS4=T ISplat=2.
 PrismC was handed    33456893 working-precision words and  3634 shell-pairs
 Enter PrismC:  IPart=  5 JobTyp=22 DoJE=F Cont=F.
 PrismC:  IPart=     5 DynPar=T LinDyn=F Incr=        1024 UseFst=F UseS4=T ISplat=2.
 PrismC was handed    33456893 working-precision words and  3634 shell-pairs
 Enter PrismC:  IPart=  2 JobTyp=22 DoJE=F Cont=F.
 PrismC:  IPart=     2 DynPar=T LinDyn=F Incr=        1024 UseFst=F UseS4=T ISplat=2.
 PrismC was handed    33456893 working-precision words and  3634 shell-pairs
 Enter PrismC:  IPart= 13 JobTyp=22 DoJE=F Cont=F.
 PrismC:  IPart=    13 DynPar=T LinDyn=F Incr=        1024 UseFst=F UseS4=T ISplat=2.
 PrismC was handed    33456893 working-precision words and  3634 shell-pairs
 Enter PrismC:  IPart=  4 JobTyp=22 DoJE=F Cont=F.
 PrismC:  IPart=     4 DynPar=T LinDyn=F Incr=        1024 UseFst=F UseS4=T ISplat=2.
 PrismC was handed    33456893 working-precision words and  3634 shell-pairs
 Enter PrismC:  IPart= 14 JobTyp=22 DoJE=F Cont=F.
 PrismC:  IPart=    14 DynPar=T LinDyn=F Incr=        1024 UseFst=F UseS4=T ISplat=2.
 PrismC was handed    33456893 working-precision words and  3634 shell-pairs
 Enter PrismC:  IPart= 17 JobTyp=22 DoJE=F Cont=F.
 PrismC:  IPart=    17 DynPar=T LinDyn=F Incr=        1024 UseFst=F UseS4=T ISplat=2.
 PrismC was handed    33456893 working-precision words and  3634 shell-pairs
 Enter PrismC:  IPart= 18 JobTyp=22 DoJE=F Cont=F.
 PrismC:  IPart=    18 DynPar=T LinDyn=F Incr=        1024 UseFst=F UseS4=T ISplat=2.
 PrismC was handed    33456893 working-precision words and  3634 shell-pairs
 Enter PrismC:  IPart=  3 JobTyp=22 DoJE=F Cont=F.
 PrismC:  IPart=     3 DynPar=T LinDyn=F Incr=        1024 UseFst=F UseS4=T ISplat=2.
 PrismC was handed    33456893 working-precision words and  3634 shell-pairs
 Enter PrismC:  IPart= 11 JobTyp=22 DoJE=F Cont=F.
 PrismC:  IPart=    11 DynPar=T LinDyn=F Incr=        1024 UseFst=F UseS4=T ISplat=2.
 PrismC was handed    33456893 working-precision words and  3634 shell-pairs
 Enter PrismC:  IPart=  7 JobTyp=22 DoJE=F Cont=F.
 PrismC:  IPart=     7 DynPar=T LinDyn=F Incr=        1024 UseFst=F UseS4=T ISplat=2.
 PrismC was handed    33456893 working-precision words and  3634 shell-pairs
 Enter PrismC:  IPart= 12 JobTyp=22 DoJE=F Cont=F.
 PrismC:  IPart=    12 DynPar=T LinDyn=F Incr=        1024 UseFst=F UseS4=T ISplat=2.
 PrismC was handed    33456893 working-precision words and  3634 shell-pairs
 Enter PrismC:  IPart=  9 JobTyp=22 DoJE=F Cont=F.
 PrismC:  IPart=     9 DynPar=T LinDyn=F Incr=        1024 UseFst=F UseS4=T ISplat=2.
 PrismC was handed    33456893 working-precision words and  3634 shell-pairs
 Enter PrismC:  IPart=  6 JobTyp=22 DoJE=F Cont=F.
 PrismC:  IPart=     6 DynPar=T LinDyn=F Incr=        1024 UseFst=F UseS4=T ISplat=2.
 PrismC was handed    33456893 working-precision words and  3634 shell-pairs
 IPart=  4 NShTot=      101417 NShNF=      101417 NShFF=           0 MinMC=       7
           NShCPU=      101417 NBCPU=        4520 AvBCPU=        22.4
           NShGPU=           0 NBGPU=           0 AvBGPU=         0.0
 IPart=  2 NShTot=       92518 NShNF=       92518 NShFF=           0 MinMC=       7
           NShCPU=       92518 NBCPU=        4537 AvBCPU=        20.4
           NShGPU=           0 NBGPU=           0 AvBGPU=         0.0
 IPart=  5 NShTot=     1895422 NShNF=     1895422 NShFF=           0 MinMC=       7
           NShCPU=     1895422 NBCPU=       72402 AvBCPU=        26.2
           NShGPU=           0 NBGPU=           0 AvBGPU=         0.0
 IPart=  1 NShTot=      100800 NShNF=      100800 NShFF=           0 MinMC=       7
           NShCPU=      100800 NBCPU=        4389 AvBCPU=        23.0
           NShGPU=           0 NBGPU=           0 AvBGPU=         0.0
 IPart= 12 NShTot=      105030 NShNF=      105030 NShFF=           0 MinMC=       7
           NShCPU=      105030 NBCPU=        4334 AvBCPU=        24.2
           NShGPU=           0 NBGPU=           0 AvBGPU=         0.0
 IPart= 15 NShTot=      108080 NShNF=      108080 NShFF=           0 MinMC=       7
           NShCPU=      108080 NBCPU=        4827 AvBCPU=        22.4
           NShGPU=           0 NBGPU=           0 AvBGPU=         0.0
 IPart= 14 NShTot=      101294 NShNF=      101294 NShFF=           0 MinMC=       7
           NShCPU=      101294 NBCPU=        4573 AvBCPU=        22.2
           NShGPU=           0 NBGPU=           0 AvBGPU=         0.0
 IPart= 13 NShTot=      104293 NShNF=      104293 NShFF=           0 MinMC=       7
           NShCPU=      104293 NBCPU=        4686 AvBCPU=        22.3
           NShGPU=           0 NBGPU=           0 AvBGPU=         0.0
 IPart= 17 NShTot=      100596 NShNF=      100596 NShFF=           0 MinMC=       7
           NShCPU=      100596 NBCPU=        4578 AvBCPU=        22.0
           NShGPU=           0 NBGPU=           0 AvBGPU=         0.0
 IPart=  9 NShTot=      100386 NShNF=      100386 NShFF=           0 MinMC=       7
           NShCPU=      100386 NBCPU=        4561 AvBCPU=        22.0
           NShGPU=           0 NBGPU=           0 AvBGPU=         0.0
 IPart= 19 NShTot=      465965 NShNF=      465965 NShFF=           0 MinMC=       7
           NShCPU=      465965 NBCPU=       12699 AvBCPU=        36.7
           NShGPU=           0 NBGPU=           0 AvBGPU=         0.0
 IPart=  6 NShTot=       99708 NShNF=       99708 NShFF=           0 MinMC=       7
           NShCPU=       99708 NBCPU=        4420 AvBCPU=        22.6
           NShGPU=           0 NBGPU=           0 AvBGPU=         0.0
 IPart= 10 NShTot=      120135 NShNF=      120135 NShFF=           0 MinMC=       7
           NShCPU=      120135 NBCPU=        5174 AvBCPU=        23.2
           NShGPU=           0 NBGPU=           0 AvBGPU=         0.0
 IPart=  3 NShTot=       98200 NShNF=       98200 NShFF=           0 MinMC=       7
           NShCPU=       98200 NBCPU=        4269 AvBCPU=        23.0
           NShGPU=           0 NBGPU=           0 AvBGPU=         0.0
 IPart= 18 NShTot=      107993 NShNF=      107993 NShFF=           0 MinMC=       7
           NShCPU=      107993 NBCPU=        4968 AvBCPU=        21.7
           NShGPU=           0 NBGPU=           0 AvBGPU=         0.0
 IPart=  7 NShTot=      102519 NShNF=      102519 NShFF=           0 MinMC=       7
           NShCPU=      102519 NBCPU=        4264 AvBCPU=        24.0
           NShGPU=           0 NBGPU=           0 AvBGPU=         0.0
 IPart= 11 NShTot=      108827 NShNF=      108827 NShFF=           0 MinMC=       7
           NShCPU=      108827 NBCPU=        4912 AvBCPU=        22.2
           NShGPU=           0 NBGPU=           0 AvBGPU=         0.0
 IPart= 16 NShTot=       91945 NShNF=       91945 NShFF=           0 MinMC=       7
           NShCPU=       91945 NBCPU=        4151 AvBCPU=        22.2
           NShGPU=           0 NBGPU=           0 AvBGPU=         0.0
 IPart=  8 NShTot=      100554 NShNF=      100554 NShFF=           0 MinMC=       7
           NShCPU=      100554 NBCPU=        4284 AvBCPU=        23.5
           NShGPU=           0 NBGPU=           0 AvBGPU=         0.0
 IPart=  0 NShTot=      366750 NShNF=      366750 NShFF=           0 MinMC=       7
           NShCPU=      366750 NBCPU=       24554 AvBCPU=        14.9
           NShGPU=           0 NBGPU=           0 AvBGPU=         0.0
 CoulSu:  NxtVal=        7045121 LenVP=       33456894 MinMC=       7.
 ReadGW:  IGet=0 IStart=           1 Next=           1 LGW=           0.
 Remaining memory in FofDFT      639.93 Mw
 CkSvGd:  ISavGI=        -1 IRadAn=       5 IRASav=       5 ISavGd=        -1.
 CalDSu-InSpLW:  IPartL=    0 NPrtUS=   20 NPrtUL=    1 DoSpLW=F IThBeg=    0 IThEnd=   19 NThAct=   20.
 CalDSu:  NPrtUS=  20 ThrOK=T IAlg=1 NPAlg=2 DoDPD=T LenP=       35245 LenD1P=             0 GPUOK=F
          ISkipM=0 DoSpLW=F IThBeg=    0 IThEnd=   19.
 IPart=  0 IRanGd=          0 ScrnBf=T ScrnGd=T RCrit=4.00D+00 DoMicB=T.
 IPart=  1        10939 of        12520 points in      15 batches and       82 microbatches, Max-NSigAt=      11 Max-NSgAt2=      11
 IPart=  7        10634 of        12674 points in      14 batches and       93 microbatches, Max-NSigAt=      11 Max-NSgAt2=      11
 IPart= 15        13695 of        16386 points in      18 batches and       85 microbatches, Max-NSigAt=      11 Max-NSgAt2=      11
 IPart= 17         6850 of         7510 points in       8 batches and       65 microbatches, Max-NSigAt=      11 Max-NSgAt2=      11
 IPart= 16         6649 of         7082 points in       7 batches and       41 microbatches, Max-NSigAt=      11 Max-NSgAt2=      11
 IPart=  3        29638 of        32098 points in      32 batches and      164 microbatches, Max-NSigAt=      11 Max-NSgAt2=      11
 IPart=  0        12022 of        12022 points in      10 batches and       30 microbatches, Max-NSigAt=      11 Max-NSgAt2=      11
 IPart= 11         7794 of         8316 points in       8 batches and       41 microbatches, Max-NSigAt=      11 Max-NSgAt2=      11
 IPart= 18        12695 of        14336 points in      16 batches and       98 microbatches, Max-NSigAt=      11 Max-NSgAt2=      11
 IPart= 10        12864 of        14190 points in      15 batches and       74 microbatches, Max-NSigAt=      11 Max-NSgAt2=      11
 IPart= 12         6213 of         7150 points in       9 batches and       63 microbatches, Max-NSigAt=      11 Max-NSgAt2=      11
 IPart= 13        14090 of        14728 points in      14 batches and       67 microbatches, Max-NSigAt=      11 Max-NSgAt2=      11
 IPart=  9         8365 of         8944 points in       9 batches and       46 microbatches, Max-NSigAt=      11 Max-NSgAt2=      11
 IPart=  4         6309 of         6328 points in       5 batches and       16 microbatches, Max-NSigAt=      11 Max-NSgAt2=      11
 IPart=  5        13416 of        14666 points in      16 batches and       73 microbatches, Max-NSigAt=      11 Max-NSgAt2=      11
 IPart=  2         7144 of         7890 points in       8 batches and       50 microbatches, Max-NSigAt=      11 Max-NSgAt2=      11
 IPart= 19         6713 of         7304 points in       7 batches and       30 microbatches, Max-NSigAt=      11 Max-NSgAt2=      11
 IPart= 14         8156 of         8646 points in       8 batches and       42 microbatches, Max-NSigAt=      11 Max-NSgAt2=      11
 IPart=  8        10565 of        11864 points in      13 batches and       79 microbatches, Max-NSigAt=      11 Max-NSgAt2=      11
 IPart=  6        19966 of        21746 points in      23 batches and      103 microbatches, Max-NSigAt=      11 Max-NSgAt2=      11
 Polarizability after L703:
                1             2             3 
      1  0.000000D+00
      2  0.000000D+00  0.000000D+00
      3  0.000000D+00  0.000000D+00  0.000000D+00
 Dipole Derivatives after L703:
                 1             2             3             4             5 
      1  -0.566645D-01  0.944488D-01 -0.959395D-02 -0.289306D+00  0.138424D+01
      2   0.202664D+00 -0.139990D+00  0.146360D-02  0.298445D+00 -0.722562D+00
      3  -0.148861D-02  0.118821D-02 -0.255045D+00  0.678475D-01 -0.117159D+00
                 6             7             8             9            10 
      1   0.254108D+00 -0.109541D+01  0.543571D+00  0.230963D-01 -0.519742D+00
      2  -0.822437D-01  0.876415D-01 -0.781443D+00 -0.135404D-01  0.375252D-01
      3  -0.422096D+00 -0.187674D-01  0.580092D-02 -0.786838D+00 -0.303202D-01
                11            12            13            14            15 
      1  -0.417821D-01 -0.862717D-02 -0.337096D+00 -0.282496D+00  0.741909D-02
      2  -0.753585D+00 -0.228993D-01 -0.919007D-01 -0.609161D+00 -0.434087D-03
      3  -0.159097D-01  0.219824D-01  0.852939D-02 -0.320141D-02  0.445572D-01
                16            17            18            19            20 
      1   0.753630D+00 -0.973493D-01  0.745769D+00 -0.765439D-01 -0.263760D+00
      2  -0.168148D+00  0.152094D+00 -0.142618D+00  0.393330D+00  0.461765D+00
      3   0.248423D+00  0.874418D-02  0.409961D+00 -0.239500D-01 -0.412088D-01
                21            22            23            24            25 
      1  -0.773439D-02  0.615495D+00 -0.183012D+00 -0.743831D+00  0.229252D+00
      2  -0.484216D-02 -0.156929D+00  0.188191D+00  0.175802D+00 -0.258021D+00
      3   0.709932D-01 -0.210228D+00  0.216021D-01  0.448660D+00  0.206518D-02
                26            27            28            29            30 
      1  -0.196098D+00 -0.115682D-02  0.884789D-01  0.229814D+00 -0.107102D-02
      2   0.853912D+00  0.905165D-02 -0.245568D+00  0.752014D+00  0.491964D-02
      3   0.906629D-03  0.754964D-01 -0.117510D-01  0.354963D-01  0.926093D-01
                31            32            33 
      1   0.687911D+00 -0.118757D+01 -0.258379D+00
      2  -0.990384D-01  0.598763D+00  0.753413D-01
      3  -0.303603D-01  0.103740D+00  0.299719D+00
 Hessian after L703:
                1             2             3             4             5 
      1  0.461969D+00
      2 -0.741336D-01  0.355928D+00
      3  0.432696D-02 -0.239444D-02  0.633383D-01
      4 -0.233054D-01  0.806011D-04 -0.529611D-03  0.451917D+00
      5 -0.935863D-03 -0.303381D-02 -0.755416D-03 -0.570127D-01  0.418670D+00
      6 -0.605669D-03  0.340484D-03  0.114134D-01 -0.261025D-01  0.727911D-01
      7 -0.108863D+00  0.247577D-01 -0.327570D-03  0.421550D-02  0.170794D-02
      8  0.600344D-01 -0.198276D+00  0.107327D-02 -0.790257D-02 -0.266817D-02
      9  0.800710D-03  0.229499D-03 -0.590340D-01  0.401094D-03  0.467169D-03
     10 -0.269152D+00  0.520222D-02 -0.430185D-02 -0.343802D-01 -0.357130D-01
     11 -0.329937D-01 -0.105270D+00 -0.118041D-02  0.186561D-02  0.970651D-02
     12 -0.220128D-02 -0.141892D-03 -0.324812D-01  0.234004D-02  0.120601D-02
     13 -0.245634D-01 -0.291920D-01  0.299440D-03 -0.309318D+00  0.276846D-01
     14 -0.671329D-02  0.143133D-01  0.174784D-02 -0.188864D-01 -0.102305D+00
     15 -0.147277D-02 -0.603198D-03  0.421477D-02  0.374726D-02 -0.793407D-02
     16 -0.127131D-01  0.964325D-02 -0.910025D-02 -0.953249D-03  0.256494D-03
     17  0.308822D-01 -0.122397D-01  0.219548D-01  0.880601D-03  0.520876D-03
     18 -0.115048D-02  0.527686D-02  0.751967D-02 -0.455250D-03 -0.365831D-04
     19  0.104424D-01  0.157204D-01 -0.783251D-03 -0.100011D-03  0.542495D-03
     20 -0.789000D-02 -0.362775D-01  0.296165D-02  0.619326D-03  0.975412D-03
     21 -0.232753D-03  0.896265D-03 -0.105121D-02 -0.183227D-03 -0.270222D-03
     22 -0.113304D-01  0.103831D-01  0.110389D-01 -0.623367D-03  0.196707D-03
     23  0.290850D-01 -0.176613D-01 -0.240887D-01  0.107348D-02  0.323379D-03
     24 -0.374204D-03 -0.387595D-02  0.965657D-02  0.458251D-03 -0.442556D-04
     25 -0.226995D-01  0.347406D-01 -0.570845D-04  0.373986D-02 -0.156151D-02
     26  0.328484D-02  0.268120D-02  0.137094D-03  0.888102D-03  0.272930D-02
     27 -0.666716D-04  0.472064D-03  0.121607D-02 -0.103862D-02  0.883034D-03
     28 -0.138241D-02  0.375144D-02 -0.171226D-03 -0.186499D-01  0.343712D-01
     29  0.133814D-02  0.574728D-03  0.172247D-03  0.322977D-02  0.228380D-02
     30  0.342949D-03 -0.212013D-03 -0.367896D-02  0.219542D-02 -0.166010D-02
     31  0.159869D-02 -0.953662D-03 -0.394462D-03 -0.725427D-01  0.304637D-01
     32 -0.195803D-02 -0.739919D-03  0.372002D-03  0.751642D-01 -0.327202D+00
     33  0.633214D-03  0.123164D-04 -0.111339D-02  0.191672D-01 -0.646466D-01
                6             7             8             9            10 
      6  0.678129D-01
      7 -0.205308D-03  0.549388D+00
      8 -0.418680D-03  0.214364D-01  0.450597D+00
      9  0.698556D-03 -0.352244D-01  0.106384D-01  0.549322D+00
     10  0.134251D-02 -0.257970D-01  0.250845D-01 -0.115929D-02  0.666926D+00
     11 -0.999415D-03  0.440399D-01 -0.769965D-02  0.245971D-03  0.143159D+00
     12  0.403983D-02 -0.738634D-03  0.537131D-03 -0.606602D-02  0.362806D-02
     13  0.143917D-01 -0.484571D-02  0.380120D-03 -0.101678D-02 -0.277226D+00
     14 -0.698521D-02 -0.493173D-02  0.307390D-02 -0.999668D-03 -0.210866D+00
     15 -0.365279D-01  0.482097D-03  0.791405D-03  0.987437D-03 -0.105816D-02
     16 -0.751201D-04 -0.127604D+00 -0.237744D-02 -0.916583D-01  0.127074D-02
     17 -0.282896D-03 -0.721783D-02 -0.522387D-01 -0.422297D-02 -0.379158D-02
     18  0.299720D-04 -0.938019D-01  0.164333D-03 -0.181334D+00  0.261350D-02
[...]
 ITU=  0
     Eigenvalues ---    0.00406   0.00640   0.01933   0.02460   0.02992
     Eigenvalues ---    0.04427   0.08806   0.08811   0.10931   0.13133
     Eigenvalues ---    0.13659   0.16237   0.17950   0.18678   0.20377
     Eigenvalues ---    0.22501   0.31078   0.33039   0.33499   0.35245
     Eigenvalues ---    0.36308   0.37434   0.40546   0.44209   0.51139
     Eigenvalues ---    0.54164   0.65553
 Angle between quadratic step and forces=  65.03 degrees.
 Linear search not attempted -- first point.
 Iteration  1 RMS(Cart)=  0.00000643 RMS(Int)=  0.00000000
 Iteration  2 RMS(Cart)=  0.00000000 RMS(Int)=  0.00000000
 ITry= 1 IFail=0 DXMaxC= 1.77D-05 DCOld= 1.00D+10 DXMaxT= 3.00D-01 DXLimC= 3.00D+00 Rises=F
 Variable       Old X    -DE/DX   Delta X   Delta X   Delta X     New X
                                 (Linear)    (Quad)   (Total)
    R1        2.65861   0.00000   0.00000   0.00000   0.00000   2.65861
    R2        2.56838   0.00000   0.00000   0.00000   0.00000   2.56838
    R3        2.58763  -0.00000   0.00000  -0.00000  -0.00000   2.58763
    R4        1.81657  -0.00000   0.00000  -0.00000  -0.00000   1.81657
    R5        2.05178  -0.00000   0.00000  -0.00000  -0.00000   2.05178
    R6        2.06763  -0.00000   0.00000  -0.00000  -0.00000   2.06763
    R7        2.06763   0.00000   0.00000   0.00000   0.00000   2.06763
    R8        2.51126  -0.00000   0.00000  -0.00000  -0.00000   2.51125
    R9        2.04733   0.00000   0.00000   0.00000   0.00000   2.04733
   R10        2.03837  -0.00000   0.00000  -0.00000  -0.00000   2.03837
    A1        2.01872   0.00000   0.00000   0.00000   0.00000   2.01872
    A2        1.91222  -0.00000   0.00000  -0.00000  -0.00000   1.91222
    A3        1.86506  -0.00000   0.00000  -0.00000  -0.00000   1.86506
    A4        1.93530  -0.00000   0.00000  -0.00000  -0.00000   1.93529
    A5        1.93529   0.00000   0.00000   0.00000   0.00000   1.93529
    A6        1.91340   0.00000   0.00000   0.00000   0.00000   1.91341
    A7        1.91341  -0.00000   0.00000  -0.00000  -0.00000   1.91341
    A8        1.90113  -0.00000   0.00000  -0.00000  -0.00000   1.90113
    A9        2.21963   0.00000   0.00000   0.00000   0.00000   2.21963
   A10        1.94478  -0.00000   0.00000  -0.00000  -0.00000   1.94478
   A11        2.11878  -0.00000   0.00000  -0.00000  -0.00000   2.11878
   A12        2.17288  -0.00000   0.00000   0.00000   0.00000   2.17288
   A13        1.94814   0.00000   0.00000   0.00000   0.00000   1.94814
   A14        2.16216   0.00000   0.00000  -0.00000  -0.00000   2.16216
    D1        3.14159  -0.00000   0.00000   0.00000   0.00000   3.14159
    D2       -1.05717   0.00000   0.00000   0.00001   0.00001  -1.05716
    D3        1.05715   0.00000   0.00000   0.00001   0.00001   1.05715
    D4        0.00001   0.00000   0.00000  -0.00000  -0.00000   0.00000
    D5       -3.14158  -0.00000   0.00000  -0.00001  -0.00001  -3.14159
    D6        0.00001   0.00000   0.00000  -0.00001  -0.00001   0.00000
    D7       -3.14158  -0.00000   0.00000  -0.00001  -0.00001  -3.14159
    D8       -3.14159  -0.00000   0.00000  -0.00001  -0.00001  -3.14159
    D9       -0.00000   0.00000   0.00000   0.00000   0.00000   0.00000
   D10       -0.00000   0.00000   0.00000   0.00000   0.00000   0.00000
   D11        3.14158   0.00000   0.00000   0.00001   0.00001  -3.14159
         Item               Value     Threshold  Converged?
 Maximum Force            0.000002     0.000015     YES
 RMS     Force            0.000000     0.000010     YES
 Maximum Displacement     0.000018     0.000060     YES
 RMS     Displacement     0.000006     0.000040     YES
 Predicted change in Energy=-1.545519D-11
 Optimization completed.
    -- Stationary point found.
                           ----------------------------
                           !   Optimized Parameters   !
                           ! (Angstroms and Degrees)  !
 --------------------------                            --------------------------
 ! Name  Definition              Value          Derivative Info.                !
 --------------------------------------------------------------------------------
 ! R1    R(1,3)                  1.4069         -DE/DX =    0.0                 !
 ! R2    R(1,4)                  1.3591         -DE/DX =    0.0                 !
 ! R3    R(2,5)                  1.3693         -DE/DX =    0.0                 !
 ! R4    R(2,11)                 0.9613         -DE/DX =    0.0                 !
 ! R5    R(3,6)                  1.0858         -DE/DX =    0.0                 !
 ! R6    R(3,7)                  1.0941         -DE/DX =    0.0                 !
 ! R7    R(3,8)                  1.0941         -DE/DX =    0.0                 !
 ! R8    R(4,5)                  1.3289         -DE/DX =    0.0                 !
 ! R9    R(4,9)                  1.0834         -DE/DX =    0.0                 !
 ! R10   R(5,10)                 1.0787         -DE/DX =    0.0                 !
 ! A1    A(3,1,4)              115.6639         -DE/DX =    0.0                 !
 ! A2    A(5,2,11)             109.5623         -DE/DX =    0.0                 !
 ! A3    A(1,3,6)              106.8601         -DE/DX =    0.0                 !
 ! A4    A(1,3,7)              110.8842         -DE/DX =    0.0                 !
 ! A5    A(1,3,8)              110.8839         -DE/DX =    0.0                 !
 ! A6    A(6,3,7)              109.6299         -DE/DX =    0.0                 !
 ! A7    A(6,3,8)              109.6303         -DE/DX =    0.0                 !
 ! A8    A(7,3,8)              108.9265         -DE/DX =    0.0                 !
 ! A9    A(1,4,5)              127.1755         -DE/DX =    0.0                 !
 ! A10   A(1,4,9)              111.4275         -DE/DX =    0.0                 !
 ! A11   A(5,4,9)              121.397          -DE/DX =    0.0                 !
 ! A12   A(2,5,4)              124.4969         -DE/DX =    0.0                 !
 ! A13   A(2,5,10)             111.6203         -DE/DX =    0.0                 !
 ! A14   A(4,5,10)             123.8827         -DE/DX =    0.0                 !
 ! D1    D(4,1,3,6)            179.9996         -DE/DX =    0.0                 !
 ! D2    D(4,1,3,7)            -60.5712         -DE/DX =    0.0                 !
 ! D3    D(4,1,3,8)             60.5701         -DE/DX =    0.0                 !
 ! D4    D(3,1,4,5)              0.0003         -DE/DX =    0.0                 !
 ! D5    D(3,1,4,9)           -179.9991         -DE/DX =    0.0                 !
 ! D6    D(11,2,5,4)             0.0005         -DE/DX =    0.0                 !
 ! D7    D(11,2,5,10)         -179.9992         -DE/DX =    0.0                 !
 ! D8    D(1,4,5,2)           -179.9996         -DE/DX =    0.0                 !
 ! D9    D(1,4,5,10)             0.0            -DE/DX =    0.0                 !
 ! D10   D(9,4,5,2)             -0.0002         -DE/DX =    0.0                 !
 ! D11   D(9,4,5,10)          -180.0006         -DE/DX =    0.0                 !
 --------------------------------------------------------------------------------
 GradGradGradGradGradGradGradGradGradGradGradGradGradGradGradGradGradGrad

 Leave Link  103 at Thu Sep  5 17:24:22 2019, MaxMem=   671088640 cpu:             115.6 elap:              60.0
 (Enter /shared/centos7/gaussian/g16/l9999.exe)

 ----------------------------------------------------------------------

 Electric dipole moment (input orientation):
 (Debye = 10**-18 statcoulomb cm , SI units = C m)
                  (au)            (Debye)         (10**-30 SI)
   Tot        0.167482D+00      0.425696D+00      0.141997D+01
   x         -0.189369D-01     -0.481328D-01     -0.160554D+00
   y         -0.155763D+00     -0.395911D+00     -0.132062D+01
   z          0.585600D-01      0.148845D+00      0.496492D+00

 Dipole polarizability, Alpha (input orientation).
 (esu units = cm**3 , SI units = C**2 m**2 J**-1)
 Alpha(0;0):
               (au)            (10**-24 esu)      (10**-40 SI)
   iso        0.437928D+02      0.648943D+01      0.722047D+01
   aniso      0.213475D+02      0.316338D+01      0.351973D+01
   xx         0.436393D+02      0.646668D+01      0.719516D+01
   yx         0.472800D+01      0.700618D+00      0.779542D+00
   yy         0.523641D+02      0.775955D+01      0.863367D+01
   zx         0.271568D+01      0.402423D+00      0.447756D+00
   zy        -0.707127D+01     -0.104785D+01     -0.116590D+01
   zz         0.353751D+02      0.524205D+01      0.583257D+01

 ----------------------------------------------------------------------

 Dipole orientation:
     8          0.58864117          2.03562449          1.98823442
     8          0.65592870          2.05316941         -4.94191301
     6         -1.94424348          1.35287468          2.42013563
     6          1.28531073          2.22321525         -0.47673025
     6         -0.15725649          1.83418516         -2.49516190
     1         -2.20323221          1.28321816          4.45431261
     1         -3.23324864          2.74792092          1.60317417
     1         -2.35739488         -0.50114245          1.60341534
     1          3.25422269          2.75392519         -0.65918713
     1         -2.12330374          1.30422017         -2.40172771
     1          2.40981517          2.52592444         -4.95995794

 Electric dipole moment (dipole orientation):
 (Debye = 10**-18 statcoulomb cm , SI units = C m)
                  (au)            (Debye)         (10**-30 SI)
   Tot        0.167482D+00      0.425696D+00      0.141997D+01
   x          0.000000D+00      0.000000D+00      0.000000D+00
   y          0.000000D+00      0.000000D+00      0.000000D+00
   z          0.167482D+00      0.425696D+00      0.141997D+01

 Dipole polarizability, Alpha (dipole orientation).
 (esu units = cm**3 , SI units = C**2 m**2 J**-1)
 Alpha(0;0):
               (au)            (10**-24 esu)      (10**-40 SI)
   iso        0.437928D+02      0.648943D+01      0.722047D+01
   aniso      0.213475D+02      0.316338D+01      0.351973D+01
   xx         0.435898D+02      0.645934D+01      0.718698D+01
   yx         0.330048D+01      0.489081D+00      0.544176D+00
   yy         0.322346D+02      0.477668D+01      0.531477D+01
   zx        -0.216633D+01     -0.321016D+00     -0.357179D+00
   zy        -0.581912D+00     -0.862305D-01     -0.959443D-01
   zz         0.555541D+02      0.823227D+01      0.915964D+01

 ----------------------------------------------------------------------

 Test job not archived.
 1\1\GINC-C2002\Freq\RM062X\CC-pVTZ\C3H6O2\HARMS.N\05-Sep-2019\0\\#P Ge
 om=AllCheck Guess=TCheck SCRF=Check Test GenChk RM062X/CC-pVTZ Freq\\G
 aussian input prepared by ASE\\0,1\O,0.1056521838,-0.6159342611,1.4049
 338267\O,0.5548521567,2.7953110972,0.1353305548\C,-1.2196881826,-0.853
 8123575,0.9972796984\C,0.6105742052,0.6041284104,1.082856116\C,-0.0087
 590855,1.5830502684,0.4316163867\H,-1.4742804562,-1.8574957178,1.32387
 95263\H,-1.9039761707,-0.1334827486,1.4555690699\H,-1.3109381813,-0.78
 71640075,-0.0910138939\H,1.6316436664,0.7136013539,1.4280931059\H,-1.0
 230311584,1.5174134737,0.0704458303\H,1.4557650744,2.821720286,0.46959
 98797\\Version=EM64L-G16RevA.03\State=1-A\HF=-268.3193098\RMSD=5.680e-
 09\RMSF=5.849e-07\ZeroPoint=0.0911028\Thermal=0.0968972\Dipole=-0.0189
 369,-0.1557633,0.05856\DipoleDeriv=-0.8342385,-0.6029959,0.0367097,-0.
 2737113,-1.1904233,0.2860766,-0.1024716,0.1598144,-0.3721303,-0.384406
 ,-0.5401491,0.2181369,-0.2174112,-1.2142568,0.2786038,0.0817247,0.1548
 557,-0.392004,0.6978473,0.3332953,-0.0068768,0.0477325,0.3242969,0.028
 4833,0.1138252,0.1379809,0.3337087,0.2586451,0.4630832,-0.0402232,0.23
 23527,0.8557221,-0.3346962,0.0572988,-0.2462234,-0.0208855,0.1474751,0
 .5347616,-0.1101197,0.1686302,0.874591,-0.370447,0.0446347,-0.2300632,
 -0.0404575,0.0402439,-0.0411017,0.0008492,-0.0727396,-0.0872696,0.0442
 168,0.0142216,0.0563488,0.0649727,-0.0593473,-0.0187652,0.0292411,0.12
 46298,-0.0267725,-0.0774264,0.035845,-0.0699775,-0.0022165,-0.0096869,
 -0.0454099,0.0409164,0.0190095,0.0586866,0.0424061,-0.0535256,-0.04472
 96,-0.1373324,-0.0602805,-0.0860807,-0.0535743,-0.0815521,0.0288153,0.
 0302351,-0.0554859,0.0284975,0.1410111,-0.0074045,-0.0632806,-0.043579
 6,-0.03059,0.0721345,0.0321755,-0.0573988,0.019643,0.1456958,0.2111523
 ,0.066643,-0.0714797,0.0836495,0.3044757,0.0403726,-0.078668,0.0338535
 ,0.2796381\Polar=43.6393405,4.728003,52.3640714,2.7156831,-7.0712738,3
 5.3751371\Quadrupole=4.1569894,-2.0900429,-2.0669464,3.609835,0.713324
 3,1.5563226\PG=C01 [X(C3H6O2)]\NImag=0\\0.44005547,0.14732895,0.419806
 06,0.07753109,-0.08905341,0.14282970,-0.00478423,-0.00926171,-0.003041
 83,0.59266032,-0.01049665,-0.01895044,0.00963115,0.11975013,0.36239054
 ,-0.00251987,0.01010471,0.00812111,0.16683569,-0.09646523,0.13027486,-
 0.23227274,-0.03755571,-0.04860189,0.00217250,0.00995132,-0.00335430,0
 .49861778,-0.00317265,-0.08731357,0.00858452,-0.00012436,0.00117603,-0
 .00056553,0.00082459,0.62796344,-0.06313512,-0.00459976,-0.08639012,0.
 00090442,0.00329792,-0.00109633,-0.02723954,-0.02471475,0.56874913,-0.
 12310225,-0.05874422,-0.00846947,0.01510197,-0.01806570,0.01268176,-0.
 03328930,-0.04481123,0.00678859,0.68055560,-0.09850180,-0.27950385,0.0
 6504255,0.01540375,-0.03196511,0.02023840,-0.01877660,-0.01922833,0.00
 025204,-0.02375893,0.69238062,0.00833525,0.08028800,-0.06699887,-0.001
 46483,0.00740527,-0.00174906,-0.00421558,-0.00973087,0.00089845,0.2275
 8027,-0.25390754,0.30779642,0.01748987,-0.00692805,0.00878348,-0.13303
 805,-0.06520281,-0.01090192,0.00541019,-0.00315633,0.00351602,-0.23473
 661,0.12984286,-0.12562517,0.68961665,0.01459847,-0.02749379,0.0181564
 8,-0.10889314,-0.27009115,0.05857414,-0.00173775,-0.00275587,0.0003800
 9,0.14328129,-0.32926867,0.17287838,-0.02931295,0.68359910,-0.00031520
 ,0.00990205,-0.00208719,0.00756448,0.07532583,-0.06166677,0.00291652,-
 0.00016381,0.00090754,-0.13130542,0.16772638,-0.17147694,0.23403650,-0
 .25302408,0.30824990,-0.02029444,-0.03997741,0.00916448,0.00024511,-0.
 00088051,0.00041537,-0.05726983,-0.04273354,0.01595815,-0.00470440,0.0
 0135494,-0.00268671,-0.00079955,0.00099064,-0.00086009,0.07504444,-0.0
 0563753,-0.00438809,-0.00036116,-0.00038290,-0.00036456,0.00006326,-0.
 05531051,-0.29010057,0.07951966,-0.00006403,0.00229859,-0.00065431,0.0
 0041213,0.00037030,0.00015010,0.06394099,0.30898553,-0.00534983,-0.013
 52879,0.00353844,0.00020504,-0.00012754,0.00026499,0.02127400,0.084342
 28,-0.07927471,-0.00208692,-0.00011012,0.00005504,-0.00061555,0.000371
 92,-0.00004168,-0.01639251,-0.08608135,0.07741181,-0.04271949,0.015315
 26,0.00815477,-0.00021066,-0.00122635,0.00014354,-0.13514561,0.0965668
 4,0.06518659,0.00316098,0.00724646,-0.00148613,0.00103269,-0.00010948,
 0.00029179,0.00622939,-0.00369959,-0.00340479,0.16470980,-0.00346400,0
 .00722043,0.00615315,0.00015631,0.00098196,-0.00078959,0.10209766,-0.1
 6909517,-0.07625899,-0.00149517,0.00389711,-0.00067091,0.00198912,-0.0
 0155311,0.00160540,0.01682276,-0.01712435,-0.01405603,-0.11288190,0.17
 471587,-0.01115069,0.00936831,0.00846207,-0.00040466,0.00021023,-0.000
 14043,0.06845996,-0.07594387,-0.10256268,0.00018527,0.00056599,0.00007
 461,0.00135503,-0.00096539,0.00004131,-0.00712477,0.00740686,0.0053220
 4,-0.07023531,0.08116356,0.10278709,-0.01950450,-0.00408563,-0.0421172
 0,-0.00051895,-0.00041714,0.00025245,-0.04983547,0.00004844,-0.0031638
 2,0.00266598,0.00640729,-0.00248907,0.00173589,-0.00065088,0.00152498,
 0.00134581,0.00106949,0.00610273,0.00316779,-0.00196054,0.01895628,0.0
 6135390,-0.00318758,0.00009368,-0.00589071,0.00005730,0.00057376,0.000
 23478,0.00059220,-0.05447063,0.01856695,0.00017938,0.00357779,-0.00250
 980,0.00122584,-0.00096944,0.00021536,0.00146440,0.00048165,0.02955564
 ,-0.00043751,0.00160004,-0.02211944,0.00027410,0.05083638,-0.01525393,
 -0.00224933,-0.00762701,0.00001568,-0.00147713,0.00057610,-0.00900497,
 0.01592239,-0.30249897,0.00216679,0.00199338,0.00088901,-0.00121845,0.
 00126184,-0.00124564,0.00098177,0.00007211,-0.00739997,0.00073589,0.00
 193630,-0.01314751,0.02096990,-0.01736108,0.33002449,-0.01438861,-0.00
 834020,-0.00228409,0.00203961,0.00074569,0.00273553,0.00346294,-0.0014
 4039,0.00088980,-0.30168481,-0.01992146,-0.09336718,-0.01168683,-0.005
 44318,-0.00503806,-0.00060204,-0.00015377,-0.00029982,-0.00006104,0.00
 020605,0.00001318,-0.00034575,-0.00001387,-0.00017805,0.32242926,-0.03
 716788,-0.01046170,-0.00950772,0.00228407,0.00227373,-0.00258613,0.000
 20630,-0.00371816,0.00280484,-0.01453081,-0.05206888,0.00112767,0.0196
 9102,0.00563632,0.00831799,-0.00141636,-0.00020599,-0.00030836,-0.0004
 7697,-0.00003282,-0.00000209,0.00001235,0.00001625,-0.00024881,0.03207
 733,0.06129191,0.00990053,0.00154583,0.00390457,0.00208521,-0.00317617
 ,-0.00377479,0.00019360,0.00217329,0.00188604,-0.09564523,-0.00093926,
 -0.07249562,-0.01566166,-0.00131908,0.00200523,0.00023383,0.00017577,0
 .00036476,-0.00036535,-0.00023074,-0.00019076,0.00047808,0.00023167,0.
 00004492,0.10152563,-0.00418700,0.06298425,-0.00094404,-0.00034172,0.0
 0122591,-0.01402937,-0.00679102,-0.00314510,-0.00083939,-0.00189290,0.
 00084613,-0.00845149,-0.00208886,-0.00486599,-0.31218215,-0.01006152,-
 0.10165252,0.00063157,-0.00021986,0.00054078,-0.00025464,-0.00135916,0
 .00001149,-0.00002767,-0.00006689,0.00055969,0.00107374,0.00028814,-0.
 00295151,0.33351715,-0.00165291,0.00064405,-0.00249719,-0.03509821,-0.
 00743070,-0.00961578,0.00054098,-0.00243167,0.00082965,0.02057621,0.00
 920803,0.00676260,-0.00567632,-0.05136495,0.00432440,0.00022843,0.0000
 1634,-0.00014602,-0.00039915,-0.00044470,0.00038737,-0.00074217,-0.001
 76691,0.00002521,0.00060426,-0.00225496,0.00475790,0.02447784,0.060439
 26,0.00178017,-0.00199429,-0.00223896,0.00881974,0.00123823,0.00451761
 ,-0.00018260,-0.00010360,-0.00098581,-0.01444593,-0.00192814,0.0018173
 2,-0.10350642,0.00264286,-0.07679025,0.00035129,-0.00031791,-0.0002673
 0,0.00100545,0.00130323,-0.00062528,-0.00055460,-0.00099984,0.00046991
 ,-0.00308504,0.00463666,0.00531079,0.10893913,-0.00668200,0.06702093,0
 .00046494,0.00259043,-0.00034525,-0.45963825,-0.02736695,-0.16314315,-
 0.00101108,-0.00010846,-0.00055121,0.00448432,0.00279236,0.00028514,-0
 .02284211,-0.00266150,-0.00716298,0.00017394,0.00004558,0.00002686,0.0
 0009079,-0.00011113,-0.00006578,-0.00003702,-0.00008736,0.00022567,-0.
 00023646,-0.00096719,0.00020687,0.00150629,-0.00285895,0.00087883,0.47
 704464,0.00135360,0.00034722,-0.00025765,0.01610876,-0.03859406,0.0208
 0698,-0.00083247,-0.00002550,-0.00007766,-0.00256679,0.00067269,-0.000
 98848,-0.04288451,-0.00610875,-0.01437962,0.00020567,0.00003115,0.0000
 8837,0.00010240,-0.00016526,-0.00007153,0.00004468,0.00002744,0.000125
 12,0.00167955,-0.00047571,0.00096779,-0.00194405,-0.00461379,0.0022048
 0,0.02873317,0.04890458,0.00017760,0.00021669,-0.00151375,-0.18151894,
 0.00413744,-0.07532729,-0.00024521,0.00019995,0.00036747,0.00255030,0.
 00106631,0.00118964,0.00983813,0.00104283,0.00210450,-0.00004081,0.000
 02698,0.00002659,-0.00002645,-0.00015537,-0.00002045,0.00004029,0.0000
 7647,-0.00008533,-0.00091189,-0.00004705,-0.00003938,0.00049199,0.0018
 5388,0.00177103,0.16964499,-0.00841812,0.07152697\\-0.00000009,0.00000
 012,-0.00000062,-0.00000108,0.00000006,-0.00000055,0.00000043,0.000000
 34,-0.00000055,0.00000037,-0.00000093,0.00000122,-0.00000069,0.0000006
 0,-0.00000006,-0.00000062,-0.00000040,0.00000030,-0.00000052,0.0000001
 8,0.00000008,0.00000037,0.00000048,0.00000013,0.,-0.00000041,-0.000000
 22,0.,-0.00000005,-0.00000037,0.00000184,0.00000001,0.00000064\\\@


 I LOVE THOSE WHO LONG FOR THE IMPOSSIBLE.

                                 -- GOETHE
 Job cpu time:       0 days  0 hours 59 minutes 32.6 seconds.
 Elapsed time:       0 days  0 hours 29 minutes 52.6 seconds.
 File lengths (MBytes):  RWF=   1312 Int=      0 D2E=      0 Chk=     32 Scr=     32
 Normal termination of Gaussian 16 at Thu Sep  5 17:24:23 2019.
