 Entering Gaussian System, Link 0=g16
 Input=loose/species/COC=CO/conformers/COC=CO_8.com
 Output=loose/species/COC=CO/conformers/COC=CO_8.log
 Initial command:
 /shared/centos7/gaussian/g16/l1.exe "/scratch/harms.n/gauss_scrdir/Gau-33446.inp" -scrdir="/scratch/harms.n/gauss_scrdir/"
 Entering Link 1 = /shared/centos7/gaussian/g16/l1.exe PID=     33447.
  
 Copyright (c) 1988,1990,1992,1993,1995,1998,2003,2009,2016,
            Gaussian, Inc.  All Rights Reserved.
  
 This is part of the Gaussian(R) 16 program.  It is based on
 the Gaussian(R) 09 system (copyright 2009, Gaussian, Inc.),
 the Gaussian(R) 03 system (copyright 2003, Gaussian, Inc.),
 the Gaussian(R) 98 system (copyright 1998, Gaussian, Inc.),
 the Gaussian(R) 94 system (copyright 1995, Gaussian, Inc.),
 the Gaussian 92(TM) system (copyright 1992, Gaussian, Inc.),
 the Gaussian 90(TM) system (copyright 1990, Gaussian, Inc.),
 the Gaussian 88(TM) system (copyright 1988, Gaussian, Inc.),
 the Gaussian 86(TM) system (copyright 1986, Carnegie Mellon
 University), and the Gaussian 82(TM) system (copyright 1983,
 Carnegie Mellon University). Gaussian is a federally registered
 trademark of Gaussian, Inc.
  
 This software contains proprietary and confidential information,
 including trade secrets, belonging to Gaussian, Inc.
  
 This software is provided under written license and may be
 used, copied, transmitted, or stored only in accord with that
 written license.
  
 The following legend is applicable only to US Government
 contracts under FAR:
  
                    RESTRICTED RIGHTS LEGEND
  
 Use, reproduction and disclosure by the US Government is
 subject to restrictions as set forth in subparagraphs (a)
 and (c) of the Commercial Computer Software - Restricted
 Rights clause in FAR 52.227-19.
  
 Gaussian, Inc.
 340 Quinnipiac St., Bldg. 40, Wallingford CT 06492
  
  
 ---------------------------------------------------------------
 Warning -- This program may not be used in any manner that
 competes with the business of Gaussian, Inc. or will provide
 assistance to any competitor of Gaussian, Inc.  The licensee
 of this program is prohibited from giving any competitor of
 Gaussian, Inc. access to this program.  By using this program,
 the user acknowledges that Gaussian, Inc. is engaged in the
 business of creating and licensing software in the field of
 computational chemistry and represents and warrants to the
 licensee that it is not a competitor of Gaussian, Inc. and that
 it will not use this program in any manner prohibited above.
 ---------------------------------------------------------------
  

 Cite this work as:
 Gaussian 16, Revision A.03,
 M. J. Frisch, G. W. Trucks, H. B. Schlegel, G. E. Scuseria, 
 M. A. Robb, J. R. Cheeseman, G. Scalmani, V. Barone, 
 G. A. Petersson, H. Nakatsuji, X. Li, M. Caricato, A. V. Marenich, 
 J. Bloino, B. G. Janesko, R. Gomperts, B. Mennucci, H. P. Hratchian, 
 J. V. Ortiz, A. F. Izmaylov, J. L. Sonnenberg, D. Williams-Young, 
 F. Ding, F. Lipparini, F. Egidi, J. Goings, B. Peng, A. Petrone, 
 T. Henderson, D. Ranasinghe, V. G. Zakrzewski, J. Gao, N. Rega, 
 G. Zheng, W. Liang, M. Hada, M. Ehara, K. Toyota, R. Fukuda, 
 J. Hasegawa, M. Ishida, T. Nakajima, Y. Honda, O. Kitao, H. Nakai, 
 T. Vreven, K. Throssell, J. A. Montgomery, Jr., J. E. Peralta, 
 F. Ogliaro, M. J. Bearpark, J. J. Heyd, E. N. Brothers, K. N. Kudin, 
 V. N. Staroverov, T. A. Keith, R. Kobayashi, J. Normand, 
 K. Raghavachari, A. P. Rendell, J. C. Burant, S. S. Iyengar, 
 J. Tomasi, M. Cossi, J. M. Millam, M. Klene, C. Adamo, R. Cammi, 
 J. W. Ochterski, R. L. Martin, K. Morokuma, O. Farkas, 
 J. B. Foresman, and D. J. Fox, Gaussian, Inc., Wallingford CT, 2016.
 
 ******************************************
 Gaussian 16:  EM64L-G16RevA.03 25-Dec-2016
                24-Sep-2019 
 ******************************************
 %nprocshared=20
 Will use up to   20 processors via shared memory.
 %mem=5GB
 ----------------------------------------------------------------------
 #p m062x/cc-pVTZ opt=(calcfc,maxcycles=900,Tight) freq IOP(7/33=1,2/16
 =3) scf=(maxcycle=900)
 ----------------------------------------------------------------------
 1/6=900,7=10,10=4,18=20,19=15,26=3,38=1/1,3;
 2/9=110,12=2,16=3,17=6,18=5,40=1/2;
 3/5=16,6=1,11=2,25=1,30=1,71=2,74=-55,140=1/1,2,3;
 4//1;
 5/5=2,7=900,38=5/2;
 8/6=4,10=90,11=11/1;
 11/6=1,8=1,9=11,15=111,16=1/1,2,10;
 10/6=1,13=1/2;
 6/7=2,8=2,9=2,10=2,28=1/1;
 7/10=1,18=20,25=1,33=1/1,2,3,16;
 1/6=900,7=10,10=4,18=20,19=15,26=3/3(2);
 2/9=110,16=3/2;
 99//99;
 2/9=110,16=3/2;
 3/5=16,6=1,11=2,25=1,30=1,71=1,74=-55/1,2,3;
 4/5=5,16=3,69=1/1;
 5/5=2,7=900,38=5/2;
 7/33=1/1,2,3,16;
 1/6=900,7=10,18=20,19=15,26=3/3(-5);
 2/9=110,16=3/2;
 6/7=2,8=2,9=2,10=2,19=2,28=1/1;
 99/9=1/99;
 Leave Link    1 at Tue Sep 24 17:14:14 2019, MaxMem=   671088640 cpu:               4.1 elap:               2.0
 (Enter /shared/centos7/gaussian/g16/l101.exe)
 ------------------------------
 Gaussian input prepared by ASE
 ------------------------------
 Symbolic Z-matrix:
 Charge =  0 Multiplicity = 1
 O                     0.20707  -0.72274   1.09608 
 O                     2.50433   2.11469   0.96581 
 C                    -1.19344  -0.8358    0.83308 
 C                     0.67385   0.57283   0.91386 
 C                     1.93944   0.86568   1.09683 
 H                    -1.78478  -0.13906   1.49437 
 H                    -1.42187  -0.60627  -0.24665 
 H                    -1.49557  -1.86137   1.04619 
 H                    -0.07763   1.29824   0.60809 
 H                     2.66844   0.14963   1.41101 
 H                     1.87781   2.68007   0.39852 
 
 ITRead=  0  0  0  0  0  0  0  0  0  0  0
 MicOpt= -1 -1 -1 -1 -1 -1 -1 -1 -1 -1 -1
 NAtoms=     11 NQM=       11 NQMF=       0 NMMI=      0 NMMIF=      0
                NMic=       0 NMicF=      0.
                    Isotopes and Nuclear Properties:
 (Nuclear quadrupole moments (NQMom) in fm**2, nuclear magnetic moments (NMagM)
  in nuclear magnetons)

  Atom         1           2           3           4           5           6           7           8           9          10
 IAtWgt=          16          16          12          12          12           1           1           1           1           1
 AtmWgt=  15.9949146  15.9949146  12.0000000  12.0000000  12.0000000   1.0078250   1.0078250   1.0078250   1.0078250   1.0078250
 NucSpn=           0           0           0           0           0           1           1           1           1           1
 AtZEff=  -0.0000000  -0.0000000  -0.0000000  -0.0000000  -0.0000000  -0.0000000  -0.0000000  -0.0000000  -0.0000000  -0.0000000
 NQMom=    0.0000000   0.0000000   0.0000000   0.0000000   0.0000000   0.0000000   0.0000000   0.0000000   0.0000000   0.0000000
 NMagM=    0.0000000   0.0000000   0.0000000   0.0000000   0.0000000   2.7928460   2.7928460   2.7928460   2.7928460   2.7928460
 AtZNuc=   8.0000000   8.0000000   6.0000000   6.0000000   6.0000000   1.0000000   1.0000000   1.0000000   1.0000000   1.0000000

  Atom        11
 IAtWgt=           1
 AtmWgt=   1.0078250
 NucSpn=           1
 AtZEff=  -0.0000000
 NQMom=    0.0000000
 NMagM=    2.7928460
 AtZNuc=   1.0000000
 Leave Link  101 at Tue Sep 24 17:14:15 2019, MaxMem=   671088640 cpu:               2.3 elap:               1.2
 (Enter /shared/centos7/gaussian/g16/l103.exe)

 GradGradGradGradGradGradGradGradGradGradGradGradGradGradGradGradGradGrad
 Berny optimization.
 Initialization pass.
                           ----------------------------
                           !    Initial Parameters    !
                           ! (Angstroms and Degrees)  !
 --------------------------                            --------------------------
 ! Name  Definition              Value          Derivative Info.                !
 --------------------------------------------------------------------------------
 ! R1    R(1,3)                  1.4295         calculate D2E/DX2 analytically  !
 ! R2    R(1,4)                  1.3891         calculate D2E/DX2 analytically  !
 ! R3    R(2,5)                  1.3771         calculate D2E/DX2 analytically  !
 ! R4    R(2,11)                 1.0169         calculate D2E/DX2 analytically  !
 ! R5    R(3,6)                  1.128          calculate D2E/DX2 analytically  !
 ! R6    R(3,7)                  1.1272         calculate D2E/DX2 analytically  !
 ! R7    R(3,8)                  1.0902         calculate D2E/DX2 analytically  !
 ! R8    R(4,5)                  1.3119         calculate D2E/DX2 analytically  !
 ! R9    R(4,9)                  1.0883         calculate D2E/DX2 analytically  !
 ! R10   R(5,10)                 1.0691         calculate D2E/DX2 analytically  !
 ! A1    A(3,1,4)              112.263          calculate D2E/DX2 analytically  !
 ! A2    A(5,2,11)             107.7363         calculate D2E/DX2 analytically  !
 ! A3    A(1,3,6)              110.9095         calculate D2E/DX2 analytically  !
 ! A4    A(1,3,7)              111.0181         calculate D2E/DX2 analytically  !
 ! A5    A(1,3,8)              108.0572         calculate D2E/DX2 analytically  !
 ! A6    A(6,3,7)              109.2404         calculate D2E/DX2 analytically  !
 ! A7    A(6,3,8)              108.7339         calculate D2E/DX2 analytically  !
 ! A8    A(7,3,8)              108.8222         calculate D2E/DX2 analytically  !
 ! A9    A(1,4,5)              120.9366         calculate D2E/DX2 analytically  !
 ! A10   A(1,4,9)              115.2451         calculate D2E/DX2 analytically  !
 ! A11   A(5,4,9)              123.8166         calculate D2E/DX2 analytically  !
 ! A12   A(2,5,4)              125.7995         calculate D2E/DX2 analytically  !
 ! A13   A(2,5,10)             110.8392         calculate D2E/DX2 analytically  !
 ! A14   A(4,5,10)             123.3214         calculate D2E/DX2 analytically  !
 ! D1    D(4,1,3,6)            -57.9916         calculate D2E/DX2 analytically  !
 ! D2    D(4,1,3,7)             63.6565         calculate D2E/DX2 analytically  !
 ! D3    D(4,1,3,8)           -177.0818         calculate D2E/DX2 analytically  !
 ! D4    D(3,1,4,5)           -179.3273         calculate D2E/DX2 analytically  !
 ! D5    D(3,1,4,9)              0.2239         calculate D2E/DX2 analytically  !
 ! D6    D(11,2,5,4)           -19.9201         calculate D2E/DX2 analytically  !
 ! D7    D(11,2,5,10)          162.3254         calculate D2E/DX2 analytically  !
 ! D8    D(1,4,5,2)           -178.8917         calculate D2E/DX2 analytically  !
 ! D9    D(1,4,5,10)            -1.4034         calculate D2E/DX2 analytically  !
 ! D10   D(9,4,5,2)              1.5969         calculate D2E/DX2 analytically  !
 ! D11   D(9,4,5,10)           179.0853         calculate D2E/DX2 analytically  !
 --------------------------------------------------------------------------------
 Trust Radius=3.00D-01 FncErr=1.00D-07 GrdErr=1.00D-06 EigMax=2.50D+02 EigMin=1.00D-04
 Number of steps in this run=    100 maximum allowed number of steps=    100.
 GradGradGradGradGradGradGradGradGradGradGradGradGradGradGradGradGradGrad

 Leave Link  103 at Tue Sep 24 17:14:16 2019, MaxMem=   671088640 cpu:               1.4 elap:               0.7
 (Enter /shared/centos7/gaussian/g16/l202.exe)
                          Input orientation:                          
 ---------------------------------------------------------------------
 Center     Atomic      Atomic             Coordinates (Angstroms)
 Number     Number       Type             X           Y           Z
 ---------------------------------------------------------------------
      1          8           0        0.207066   -0.722740    1.096079
      2          8           0        2.504332    2.114691    0.965815
      3          6           0       -1.193440   -0.835799    0.833081
      4          6           0        0.673849    0.572826    0.913855
      5          6           0        1.939445    0.865675    1.096828
      6          1           0       -1.784776   -0.139060    1.494373
      7          1           0       -1.421869   -0.606270   -0.246655
      8          1           0       -1.495574   -1.861367    1.046191
      9          1           0       -0.077628    1.298237    0.608095
     10          1           0        2.668445    0.149629    1.411009
     11          1           0        1.877805    2.680073    0.398519
 ---------------------------------------------------------------------
                    Distance matrix (angstroms):
                    1          2          3          4          5
     1  O    0.000000
     2  O    3.653138   0.000000
     3  C    1.429464   4.732497   0.000000
     4  C    1.389094   2.393891   2.340410   0.000000
     5  C    2.350362   1.377063   3.574849   1.311858   0.000000
     6  H    2.113469   4.873932   1.128020   2.624618   3.877803
     7  H    2.114220   4.928363   1.127250   2.670035   3.907685
     8  H    2.048888   5.640456   1.090179   3.263312   4.386192
     9  H    2.098458   2.731497   2.418629   1.088314   2.120036
    10  H    2.630322   2.021534   4.027310   2.098730   1.069052
    11  H    3.854490   1.016866   4.688576   2.481043   1.945115
                    6          7          8          9         10
     6  H    0.000000
     7  H    1.838794   0.000000
     8  H    1.803010   1.803372   0.000000
     9  H    2.401180   2.482886   3.490787   0.000000
    10  H    4.463347   4.477711   4.638561   3.083000   0.000000
    11  H    4.750043   4.701505   5.694194   2.403563   2.837850
                   11
    11  H    0.000000
 Stoichiometry    C3H6O2
 Framework group  C1[X(C3H6O2)]
 Deg. of freedom    27
 Full point group                 C1      NOp   1
 Largest Abelian subgroup         C1      NOp   1
 Largest concise Abelian subgroup C1      NOp   1
                         Standard orientation:                         
 ---------------------------------------------------------------------
 Center     Atomic      Atomic             Coordinates (Angstroms)
 Number     Number       Type             X           Y           Z
 ---------------------------------------------------------------------
      1          8           0        1.131203   -0.556460    0.014731
      2          8           0       -2.439024    0.215881   -0.034144
      3          6           0        2.292995    0.276154   -0.004235
      4          6           0       -0.045471    0.181252   -0.013588
      5          6           0       -1.214772   -0.412956    0.011389
      6          1           0        2.299461    0.937484   -0.918035
      7          1           0        2.344635    0.919274    0.920114
      8          1           0        3.170979   -0.369450   -0.033037
      9          1           0        0.084501    1.261190   -0.049223
     10          1           0       -1.333387   -1.475206    0.032127
     11          1           0       -2.300129    1.184638    0.241961
 ---------------------------------------------------------------------
 Rotational constants (GHZ):          28.3652421           2.2346046           2.1022291
 Leave Link  202 at Tue Sep 24 17:14:18 2019, MaxMem=   671088640 cpu:               3.6 elap:               1.8
 (Enter /shared/centos7/gaussian/g16/l301.exe)
 Standard basis: CC-pVTZ (5D, 7F)
 Ernie: Thresh=  0.10000D-02 Tol=  0.10000D-05 Strict=F.
 Ernie:  15 primitive shells out of 178 were deleted.
 There are   265 symmetry adapted cartesian basis functions of A   symmetry.
 There are   234 symmetry adapted basis functions of A   symmetry.
   234 basis functions,   362 primitive gaussians,   265 cartesian basis functions
    20 alpha electrons       20 beta electrons
       nuclear repulsion energy       171.1934097851 Hartrees.
 IExCor= 4336 DFT=T Ex+Corr=M062X ExCW=0 ScaHFX=  0.540000
 ScaDFX=  1.000000  1.000000  1.000000  1.000000 ScalE2=  1.000000  1.000000
 IRadAn=      5 IRanWt=     -1 IRanGd=            0 ICorTp=0 IEmpDi=  4
 NAtoms=   11 NActive=   11 NUniq=   11 SFac= 1.00D+00 NAtFMM=   60 NAOKFM=F Big=F
 Integral buffers will be    131072 words long.
 Raffenetti 2 integral format.
 Two-electron integral symmetry is turned on.
 Leave Link  301 at Tue Sep 24 17:14:19 2019, MaxMem=   671088640 cpu:               1.6 elap:               0.8
 (Enter /shared/centos7/gaussian/g16/l302.exe)
 NPDir=0 NMtPBC=     1 NCelOv=     1 NCel=       1 NClECP=     1 NCelD=      1
         NCelK=      1 NCelE2=     1 NClLst=     1 CellRange=     0.0.
 One-electron integrals computed using PRISM.
 One-electron integral symmetry used in STVInt
 NBasis=   234 RedAO= T EigKep=  2.66D-04  NBF=   234
 NBsUse=   234 1.00D-06 EigRej= -1.00D+00 NBFU=   234
 Precomputing XC quadrature grid using
 IXCGrd= 4 IRadAn=           5 IRanWt=          -1 IRanGd=           0 AccXCQ= 0.00D+00.
 Generated NRdTot=       0 NPtTot=           0 NUsed=           0 NTot=          32
 NSgBfM=   265   265   265   265   265 MxSgAt=    11 MxSgA2=    11.
 Leave Link  302 at Tue Sep 24 17:15:12 2019, MaxMem=   671088640 cpu:             106.9 elap:              53.5
 (Enter /shared/centos7/gaussian/g16/l303.exe)
 DipDrv:  MaxL=1.
 Leave Link  303 at Tue Sep 24 17:15:18 2019, MaxMem=   671088640 cpu:              11.4 elap:               5.7
 (Enter /shared/centos7/gaussian/g16/l401.exe)
 ExpMin= 1.03D-01 ExpMax= 1.53D+04 ExpMxC= 5.22D+02 IAcc=3 IRadAn=         5 AccDes= 0.00D+00
 Harris functional with IExCor= 1009 and IRadAn=       5 diagonalized for initial guess.
 HarFok:  IExCor= 1009 AccDes= 0.00D+00 IRadAn=         5 IDoV= 1 UseB2=F ITyADJ=14
 ICtDFT=  3500011 ScaDFX=  1.000000  1.000000  1.000000  1.000000
 FoFCou: FMM=F IPFlag=           0 FMFlag=      100000 FMFlg1=           0
         NFxFlg=           0 DoJE=T BraDBF=F KetDBF=T FulRan=T
         wScrn=  0.000000 ICntrl=       500 IOpCl=  0 I1Cent=   200000004 NGrid=           0
         NMat0=    1 NMatS0=      1 NMatT0=    0 NMatD0=    1 NMtDS0=    0 NMtDT0=    0
 Petite list used in FoFCou.
 Harris En= -268.198336451171    
 JPrj=0 DoOrth=F DoCkMO=F.
 Leave Link  401 at Tue Sep 24 17:15:41 2019, MaxMem=   671088640 cpu:              46.2 elap:              23.1
 (Enter /shared/centos7/gaussian/g16/l502.exe)
 Keep R1 ints in memory in canonical form, NReq=399924305.
 FoFCou: FMM=F IPFlag=           0 FMFlag=           0 FMFlg1=           0
         NFxFlg=           0 DoJE=F BraDBF=F KetDBF=F FulRan=T
         wScrn=  0.000000 ICntrl=       600 IOpCl=  0 I1Cent=           0 NGrid=           0
         NMat0=    1 NMatS0=  27495 NMatT0=    0 NMatD0=    1 NMtDS0=    0 NMtDT0=    0
 Symmetry not used in FoFCou.
 Two-electron integral symmetry not used.
 Closed shell SCF:
 Using DIIS extrapolation, IDIIS=  1040.
 NGot=   671088640 LenX=   292939207 LenY=   292868541
 Requested convergence on RMS density matrix=1.00D-08 within 900 cycles.
 Requested convergence on MAX density matrix=1.00D-06.
 Requested convergence on             energy=1.00D-06.
 No special actions if energy rises.
 Integral accuracy reduced to 1.0D-05 until final iterations.

 Cycle   1  Pass 0  IDiag  1:
 E= -268.183406122556    
 DIIS: error= 2.08D-02 at cycle   1 NSaved=   1.
 NSaved= 1 IEnMin= 1 EnMin= -268.183406122556     IErMin= 1 ErrMin= 2.08D-02
 ErrMax= 2.08D-02  0.00D+00 EMaxC= 1.00D-01 BMatC= 1.73D-01 BMatP= 1.73D-01
 IDIUse=3 WtCom= 7.92D-01 WtEn= 2.08D-01
 Coeff-Com:  0.100D+01
 Coeff-En:   0.100D+01
 Coeff:      0.100D+01
 Gap=     0.339 Goal=   None    Shift=    0.000
 GapD=    0.339 DampG=1.000 DampE=0.500 DampFc=0.5000 IDamp=-1.
 Damping current iteration by 5.00D-01
 RMSDP=1.99D-03 MaxDP=5.92D-02              OVMax= 1.22D-01

 Cycle   2  Pass 0  IDiag  1:
 E= -268.249446803894     Delta-E=       -0.066040681338 Rises=F Damp=T
 DIIS: error= 5.41D-03 at cycle   2 NSaved=   2.
 NSaved= 2 IEnMin= 2 EnMin= -268.249446803894     IErMin= 2 ErrMin= 5.41D-03
 ErrMax= 5.41D-03  0.00D+00 EMaxC= 1.00D-01 BMatC= 1.63D-02 BMatP= 1.73D-01
 IDIUse=3 WtCom= 9.46D-01 WtEn= 5.41D-02
 Coeff-Com: -0.169D+00 0.117D+01
 Coeff-En:   0.000D+00 0.100D+01
 Coeff:     -0.160D+00 0.116D+01
 Gap=     0.326 Goal=   None    Shift=    0.000
 RMSDP=4.07D-04 MaxDP=8.98D-03 DE=-6.60D-02 OVMax= 5.86D-02

 Cycle   3  Pass 0  IDiag  1:
 E= -268.307199244970     Delta-E=       -0.057752441076 Rises=F Damp=F
 DIIS: error= 2.92D-03 at cycle   3 NSaved=   3.
 NSaved= 3 IEnMin= 3 EnMin= -268.307199244970     IErMin= 3 ErrMin= 2.92D-03
 ErrMax= 2.92D-03  0.00D+00 EMaxC= 1.00D-01 BMatC= 3.89D-03 BMatP= 1.63D-02
 IDIUse=3 WtCom= 9.71D-01 WtEn= 2.92D-02
 Coeff-Com: -0.115D+00 0.393D+00 0.722D+00
 Coeff-En:   0.000D+00 0.000D+00 0.100D+01
 Coeff:     -0.112D+00 0.382D+00 0.730D+00
 Gap=     0.326 Goal=   None    Shift=    0.000
 RMSDP=1.68D-04 MaxDP=5.81D-03 DE=-5.78D-02 OVMax= 1.87D-02

 Cycle   4  Pass 0  IDiag  1:
 E= -268.309066430300     Delta-E=       -0.001867185330 Rises=F Damp=F
 DIIS: error= 1.32D-03 at cycle   4 NSaved=   4.
 NSaved= 4 IEnMin= 4 EnMin= -268.309066430300     IErMin= 4 ErrMin= 1.32D-03
 ErrMax= 1.32D-03  0.00D+00 EMaxC= 1.00D-01 BMatC= 9.23D-04 BMatP= 3.89D-03
 IDIUse=3 WtCom= 9.87D-01 WtEn= 1.32D-02
 Coeff-Com: -0.365D-01 0.891D-01 0.372D+00 0.576D+00
 Coeff-En:   0.000D+00 0.000D+00 0.198D+00 0.802D+00
 Coeff:     -0.361D-01 0.879D-01 0.369D+00 0.579D+00
 Gap=     0.322 Goal=   None    Shift=    0.000
 RMSDP=7.09D-05 MaxDP=2.79D-03 DE=-1.87D-03 OVMax= 7.91D-03

 Cycle   5  Pass 0  IDiag  1:
 E= -268.309784182994     Delta-E=       -0.000717752694 Rises=F Damp=F
 DIIS: error= 2.07D-04 at cycle   5 NSaved=   5.
 NSaved= 5 IEnMin= 5 EnMin= -268.309784182994     IErMin= 5 ErrMin= 2.07D-04
 ErrMax= 2.07D-04  0.00D+00 EMaxC= 1.00D-01 BMatC= 1.16D-05 BMatP= 9.23D-04
 IDIUse=3 WtCom= 9.98D-01 WtEn= 2.07D-03
 Coeff-Com: -0.556D-02 0.107D-01 0.788D-01 0.176D+00 0.740D+00
 Coeff-En:   0.000D+00 0.000D+00 0.000D+00 0.000D+00 0.100D+01
 Coeff:     -0.555D-02 0.107D-01 0.786D-01 0.176D+00 0.741D+00
 Gap=     0.322 Goal=   None    Shift=    0.000
 RMSDP=1.29D-05 MaxDP=4.45D-04 DE=-7.18D-04 OVMax= 1.80D-03

 Cycle   6  Pass 0  IDiag  1:
 E= -268.309792958530     Delta-E=       -0.000008775536 Rises=F Damp=F
 DIIS: error= 7.52D-05 at cycle   6 NSaved=   6.
 NSaved= 6 IEnMin= 6 EnMin= -268.309792958530     IErMin= 6 ErrMin= 7.52D-05
 ErrMax= 7.52D-05  0.00D+00 EMaxC= 1.00D-01 BMatC= 2.79D-06 BMatP= 1.16D-05
 IDIUse=1 WtCom= 1.00D+00 WtEn= 0.00D+00
 Coeff-Com: -0.622D-03-0.181D-04 0.192D-01 0.609D-01 0.395D+00 0.526D+00
 Coeff:     -0.622D-03-0.181D-04 0.192D-01 0.609D-01 0.395D+00 0.526D+00
 Gap=     0.322 Goal=   None    Shift=    0.000
 RMSDP=4.11D-06 MaxDP=1.45D-04 DE=-8.78D-06 OVMax= 5.36D-04

 Initial convergence to 1.0D-05 achieved.  Increase integral accuracy.
 Cycle   7  Pass 1  IDiag  1:
 E= -268.309797291938     Delta-E=       -0.000004333408 Rises=F Damp=F
 DIIS: error= 1.94D-05 at cycle   1 NSaved=   1.
 NSaved= 1 IEnMin= 1 EnMin= -268.309797291938     IErMin= 1 ErrMin= 1.94D-05
 ErrMax= 1.94D-05  0.00D+00 EMaxC= 1.00D-01 BMatC= 2.59D-07 BMatP= 2.59D-07
 IDIUse=1 WtCom= 1.00D+00 WtEn= 0.00D+00
 Coeff-Com:  0.100D+01
 Coeff:      0.100D+01
 Gap=     0.322 Goal=   None    Shift=    0.000
 RMSDP=4.11D-06 MaxDP=1.45D-04 DE=-4.33D-06 OVMax= 2.22D-04

 Cycle   8  Pass 1  IDiag  1:
 E= -268.309797426501     Delta-E=       -0.000000134562 Rises=F Damp=F
 DIIS: error= 1.65D-05 at cycle   2 NSaved=   2.
 NSaved= 2 IEnMin= 2 EnMin= -268.309797426501     IErMin= 2 ErrMin= 1.65D-05
 ErrMax= 1.65D-05  0.00D+00 EMaxC= 1.00D-01 BMatC= 1.18D-07 BMatP= 2.59D-07
 IDIUse=1 WtCom= 1.00D+00 WtEn= 0.00D+00
 Coeff-Com:  0.358D+00 0.642D+00
 Coeff:      0.358D+00 0.642D+00
 Gap=     0.322 Goal=   None    Shift=    0.000
 RMSDP=1.22D-06 MaxDP=3.36D-05 DE=-1.35D-07 OVMax= 1.46D-04

 Cycle   9  Pass 1  IDiag  1:
 E= -268.309797488033     Delta-E=       -0.000000061532 Rises=F Damp=F
 DIIS: error= 1.09D-05 at cycle   3 NSaved=   3.
 NSaved= 3 IEnMin= 3 EnMin= -268.309797488033     IErMin= 3 ErrMin= 1.09D-05
 ErrMax= 1.09D-05  0.00D+00 EMaxC= 1.00D-01 BMatC= 3.40D-08 BMatP= 1.18D-07
 IDIUse=1 WtCom= 1.00D+00 WtEn= 0.00D+00
 Coeff-Com: -0.331D-01 0.344D+00 0.689D+00
 Coeff:     -0.331D-01 0.344D+00 0.689D+00
 Gap=     0.322 Goal=   None    Shift=    0.000
 RMSDP=5.33D-07 MaxDP=1.71D-05 DE=-6.15D-08 OVMax= 6.99D-05

 Cycle  10  Pass 1  IDiag  1:
 E= -268.309797514550     Delta-E=       -0.000000026517 Rises=F Damp=F
 DIIS: error= 1.30D-06 at cycle   4 NSaved=   4.
 NSaved= 4 IEnMin= 4 EnMin= -268.309797514550     IErMin= 4 ErrMin= 1.30D-06
 ErrMax= 1.30D-06  0.00D+00 EMaxC= 1.00D-01 BMatC= 3.47D-10 BMatP= 3.40D-08
 IDIUse=1 WtCom= 1.00D+00 WtEn= 0.00D+00
 Coeff-Com: -0.154D-01 0.528D-01 0.155D+00 0.807D+00
 Coeff:     -0.154D-01 0.528D-01 0.155D+00 0.807D+00
 Gap=     0.322 Goal=   None    Shift=    0.000
 RMSDP=7.35D-08 MaxDP=2.22D-06 DE=-2.65D-08 OVMax= 1.03D-05

 Cycle  11  Pass 1  IDiag  1:
 E= -268.309797514903     Delta-E=       -0.000000000353 Rises=F Damp=F
 DIIS: error= 4.74D-07 at cycle   5 NSaved=   5.
 NSaved= 5 IEnMin= 5 EnMin= -268.309797514903     IErMin= 5 ErrMin= 4.74D-07
 ErrMax= 4.74D-07  0.00D+00 EMaxC= 1.00D-01 BMatC= 9.34D-11 BMatP= 3.47D-10
 IDIUse=1 WtCom= 1.00D+00 WtEn= 0.00D+00
 Coeff-Com: -0.239D-02-0.227D-01-0.190D-01 0.329D+00 0.716D+00
 Coeff:     -0.239D-02-0.227D-01-0.190D-01 0.329D+00 0.716D+00
 Gap=     0.322 Goal=   None    Shift=    0.000
 RMSDP=3.46D-08 MaxDP=9.15D-07 DE=-3.53D-10 OVMax= 3.27D-06

 Cycle  12  Pass 1  IDiag  1:
 E= -268.309797514987     Delta-E=       -0.000000000085 Rises=F Damp=F
 DIIS: error= 1.75D-07 at cycle   6 NSaved=   6.
 NSaved= 6 IEnMin= 6 EnMin= -268.309797514987     IErMin= 6 ErrMin= 1.75D-07
 ErrMax= 1.75D-07  0.00D+00 EMaxC= 1.00D-01 BMatC= 1.50D-11 BMatP= 9.34D-11
 IDIUse=1 WtCom= 1.00D+00 WtEn= 0.00D+00
 Coeff-Com:  0.191D-02-0.207D-01-0.363D-01 0.106D-01 0.335D+00 0.710D+00
 Coeff:      0.191D-02-0.207D-01-0.363D-01 0.106D-01 0.335D+00 0.710D+00
 Gap=     0.322 Goal=   None    Shift=    0.000
 RMSDP=1.21D-08 MaxDP=3.70D-07 DE=-8.48D-11 OVMax= 1.66D-06

 Cycle  13  Pass 1  IDiag  1:
 E= -268.309797514998     Delta-E=       -0.000000000010 Rises=F Damp=F
 DIIS: error= 2.25D-08 at cycle   7 NSaved=   7.
 NSaved= 7 IEnMin= 7 EnMin= -268.309797514998     IErMin= 7 ErrMin= 2.25D-08
 ErrMax= 2.25D-08  0.00D+00 EMaxC= 1.00D-01 BMatC= 2.60D-13 BMatP= 1.50D-11
 IDIUse=1 WtCom= 1.00D+00 WtEn= 0.00D+00
 Coeff-Com:  0.612D-03-0.544D-02-0.976D-02-0.564D-02 0.801D-01 0.201D+00
 Coeff-Com:  0.740D+00
 Coeff:      0.612D-03-0.544D-02-0.976D-02-0.564D-02 0.801D-01 0.201D+00
 Coeff:      0.740D+00
 Gap=     0.322 Goal=   None    Shift=    0.000
 RMSDP=2.05D-09 MaxDP=5.80D-08 DE=-1.04D-11 OVMax= 1.63D-07

 SCF Done:  E(RM062X) =  -268.309797515     A.U. after   13 cycles
            NFock= 13  Conv=0.20D-08     -V/T= 2.0062
 KE= 2.666638983209D+02 PE=-9.707007963024D+02 EE= 2.645336906814D+02
 Leave Link  502 at Tue Sep 24 17:19:58 2019, MaxMem=   671088640 cpu:             506.0 elap:             256.5
 (Enter /shared/centos7/gaussian/g16/l801.exe)
 DoSCS=F DFT=T ScalE2(SS,OS)=  1.000000  1.000000
 Range of M.O.s used for correlation:     1   234
 NBasis=   234 NAE=    20 NBE=    20 NFC=     0 NFV=     0
 NROrb=    234 NOA=    20 NOB=    20 NVA=   214 NVB=   214

 **** Warning!!: The largest alpha MO coefficient is  0.11863546D+02

 Leave Link  801 at Tue Sep 24 17:19:58 2019, MaxMem=   671088640 cpu:               1.4 elap:               0.7
 (Enter /shared/centos7/gaussian/g16/l1101.exe)
 Using compressed storage, NAtomX=    11.
 Will process     12 centers per pass.
 Leave Link 1101 at Tue Sep 24 17:20:18 2019, MaxMem=   671088640 cpu:              40.4 elap:              20.2
 (Enter /shared/centos7/gaussian/g16/l1102.exe)
 Symmetrizing basis deriv contribution to polar:
 IMax=3 JMax=2 DiffMx= 0.00D+00
 Leave Link 1102 at Tue Sep 24 17:20:21 2019, MaxMem=   671088640 cpu:               4.1 elap:               2.1
 (Enter /shared/centos7/gaussian/g16/l1110.exe)
 Forming Gx(P) for the SCF density, NAtomX=    11.
 Integral derivatives from FoFJK, PRISM(SPDF).
 Do as many integral derivatives as possible in FoFJK.
 G2DrvN: MDV=     671087712.
 G2DrvN: will do    12 centers at a time, making    1 passes.
 Calling FoFCou, ICntrl=  3107 FMM=F I1Cent=   0 AccDes= 0.00D+00.
 FoFJK:  IHMeth= 1 ICntrl=    3107 DoSepK=F KAlg= 0 I1Cent=           0 FoldK=F
 IRaf=         0 NMat=       1 IRICut=       1 DoRegI=T DoRafI=F ISym2E= 0 IDoP0=0 IntGTp=1.
 FoFCou: FMM=F IPFlag=           0 FMFlag=      100000 FMFlg1=           0
         NFxFlg=           0 DoJE=F BraDBF=F KetDBF=F FulRan=T
         wScrn=  0.000000 ICntrl=      3107 IOpCl=  0 I1Cent=           0 NGrid=           0
         NMat0=    1 NMatS0=      1 NMatT0=    0 NMatD0=    1 NMtDS0=    0 NMtDT0=    0
 Symmetry not used in FoFCou.
 End of G2Drv F.D. properties file   721 does not exist.
 End of G2Drv F.D. properties file   722 does not exist.
 End of G2Drv F.D. properties file   788 does not exist.
 Leave Link 1110 at Tue Sep 24 17:25:10 2019, MaxMem=   671088640 cpu:             579.5 elap:             289.8
 (Enter /shared/centos7/gaussian/g16/l1002.exe)
 Minotr:  Closed shell wavefunction.
          IDoAtm=11111111111
          Direct CPHF calculation.
          Differentiating once with respect to nuclear coordinates.
          Requested convergence is 1.0D-08 RMS, and 1.0D-07 maximum.
          Secondary convergence is 1.0D-12 RMS, and 1.0D-12 maximum.
          NewPWx=T KeepS1=F KeepF1=F KeepIn=T MapXYZ=F SortEE=F KeepMc=T.
         3300 words used for storage of precomputed grid.
 Keep R1 ints in memory in canonical form, NReq=399865299.
 FoFCou: FMM=F IPFlag=           0 FMFlag=           0 FMFlg1=           0
         NFxFlg=           0 DoJE=F BraDBF=F KetDBF=F FulRan=T
         wScrn=  0.000000 ICntrl=       600 IOpCl=  0 I1Cent=           0 NGrid=           0
         NMat0=    1 NMatS0=  27495 NMatT0=    0 NMatD0=    1 NMtDS0=    0 NMtDT0=    0
 Symmetry not used in FoFCou.
 Two-electron integral symmetry not used.
          MDV=     671088640 using IRadAn=       1.
          Solving linear equations simultaneously, MaxMat=       0.
          There are    36 degrees of freedom in the 1st order CPHF.  IDoFFX=6 NUNeed=     0.
     30 vectors produced by pass  0 Test12= 1.19D-14 2.78D-09 XBig12= 6.61D-02 9.38D-02.
 AX will form    30 AO Fock derivatives at one time.
     30 vectors produced by pass  1 Test12= 1.19D-14 2.78D-09 XBig12= 9.99D-03 2.71D-02.
     30 vectors produced by pass  2 Test12= 1.19D-14 2.78D-09 XBig12= 3.84D-04 3.86D-03.
     30 vectors produced by pass  3 Test12= 1.19D-14 2.78D-09 XBig12= 4.46D-06 3.49D-04.
     30 vectors produced by pass  4 Test12= 1.19D-14 2.78D-09 XBig12= 4.13D-08 3.16D-05.
     30 vectors produced by pass  5 Test12= 1.19D-14 2.78D-09 XBig12= 2.22D-10 1.62D-06.
     18 vectors produced by pass  6 Test12= 1.19D-14 2.78D-09 XBig12= 1.11D-12 1.50D-07.
      5 vectors produced by pass  7 Test12= 1.19D-14 2.78D-09 XBig12= 4.34D-15 8.85D-09.
 InvSVY:  IOpt=1 It=  1 EMax= 8.88D-16
 Solved reduced A of dimension   203 with    30 vectors.
 End of Minotr F.D. properties file   721 does not exist.
 End of Minotr F.D. properties file   722 does not exist.
 End of Minotr F.D. properties file   788 does not exist.
 Leave Link 1002 at Tue Sep 24 17:32:04 2019, MaxMem=   671088640 cpu:             827.8 elap:             414.0
 (Enter /shared/centos7/gaussian/g16/l601.exe)
 Copying SCF densities to generalized density rwf, IOpCl= 0 IROHF=0.

 **********************************************************************

            Population analysis using the SCF density.

 **********************************************************************

 Orbital symmetries:
       Occupied  (A) (A) (A) (A) (A) (A) (A) (A) (A) (A) (A) (A)
                 (A) (A) (A) (A) (A) (A) (A) (A)
       Virtual   (A) (A) (A) (A) (A) (A) (A) (A) (A) (A) (A) (A)
                 (A) (A) (A) (A) (A) (A) (A) (A) (A) (A) (A) (A)
                 (A) (A) (A) (A) (A) (A) (A) (A) (A) (A) (A) (A)
                 (A) (A) (A) (A) (A) (A) (A) (A) (A) (A) (A) (A)
                 (A) (A) (A) (A) (A) (A) (A) (A) (A) (A) (A) (A)
                 (A) (A) (A) (A) (A) (A) (A) (A) (A) (A) (A) (A)
                 (A) (A) (A) (A) (A) (A) (A) (A) (A) (A) (A) (A)
                 (A) (A) (A) (A) (A) (A) (A) (A) (A) (A) (A) (A)
                 (A) (A) (A) (A) (A) (A) (A) (A) (A) (A) (A) (A)
                 (A) (A) (A) (A) (A) (A) (A) (A) (A) (A) (A) (A)
                 (A) (A) (A) (A) (A) (A) (A) (A) (A) (A) (A) (A)
                 (A) (A) (A) (A) (A) (A) (A) (A) (A) (A) (A) (A)
                 (A) (A) (A) (A) (A) (A) (A) (A) (A) (A) (A) (A)
                 (A) (A) (A) (A) (A) (A) (A) (A) (A) (A) (A) (A)
                 (A) (A) (A) (A) (A) (A) (A) (A) (A) (A) (A) (A)
                 (A) (A) (A) (A) (A) (A) (A) (A) (A) (A) (A) (A)
                 (A) (A) (A) (A) (A) (A) (A) (A) (A) (A) (A) (A)
                 (A) (A) (A) (A) (A) (A) (A) (A) (A) (A)
 The electronic state is 1-A.
 Alpha  occ. eigenvalues --  -19.65034 -19.64634 -10.59697 -10.58239 -10.58109
 Alpha  occ. eigenvalues --   -1.17432  -1.16113  -0.85955  -0.76814  -0.69031
 Alpha  occ. eigenvalues --   -0.60137  -0.58228  -0.53650  -0.50898  -0.48875
 Alpha  occ. eigenvalues --   -0.47214  -0.43299  -0.41177  -0.39914  -0.26668
 Alpha virt. eigenvalues --    0.05534   0.07279   0.07632   0.10957   0.12700
 Alpha virt. eigenvalues --    0.13716   0.15294   0.15566   0.23730   0.27615
 Alpha virt. eigenvalues --    0.29696   0.31278   0.32447   0.33909   0.38464
 Alpha virt. eigenvalues --    0.38797   0.41557   0.42466   0.43457   0.44338
 Alpha virt. eigenvalues --    0.46128   0.47053   0.48605   0.49755   0.53194
 Alpha virt. eigenvalues --    0.54099   0.56119   0.58310   0.61106   0.62485
 Alpha virt. eigenvalues --    0.64008   0.67173   0.72039   0.72886   0.73811
 Alpha virt. eigenvalues --    0.75410   0.76626   0.82409   0.83728   0.88085
 Alpha virt. eigenvalues --    0.89408   0.91432   0.93682   0.98552   1.02331
 Alpha virt. eigenvalues --    1.03883   1.04331   1.05349   1.09893   1.10508
 Alpha virt. eigenvalues --    1.12632   1.13784   1.16916   1.17986   1.22543
 Alpha virt. eigenvalues --    1.26846   1.30001   1.30413   1.31756   1.32966
 Alpha virt. eigenvalues --    1.35852   1.39464   1.40832   1.46521   1.47889
 Alpha virt. eigenvalues --    1.51361   1.53635   1.58973   1.69420   1.79939
 Alpha virt. eigenvalues --    1.84450   1.88738   1.92801   1.96772   1.98324
 Alpha virt. eigenvalues --    2.01371   2.09232   2.11077   2.14869   2.16942
 Alpha virt. eigenvalues --    2.20446   2.27488   2.30386   2.32154   2.35995
 Alpha virt. eigenvalues --    2.40078   2.47362   2.50503   2.52884   2.54078
 Alpha virt. eigenvalues --    2.59789   2.61994   2.69090   2.73386   2.76097
 Alpha virt. eigenvalues --    2.78920   2.80951   2.81982   2.83976   2.84836
 Alpha virt. eigenvalues --    2.86241   2.91158   2.91966   2.95263   2.97674
 Alpha virt. eigenvalues --    2.99764   3.01580   3.02605   3.07724   3.09446
 Alpha virt. eigenvalues --    3.12193   3.14675   3.17443   3.18123   3.20759
 Alpha virt. eigenvalues --    3.22199   3.23381   3.26045   3.28191   3.30321
 Alpha virt. eigenvalues --    3.31689   3.33978   3.35648   3.36308   3.39790
 Alpha virt. eigenvalues --    3.40872   3.43809   3.46331   3.46941   3.55583
 Alpha virt. eigenvalues --    3.57741   3.60621   3.63217   3.65255   3.69810
 Alpha virt. eigenvalues --    3.70195   3.74182   3.75166   3.79139   3.80807
 Alpha virt. eigenvalues --    3.83710   3.83764   3.86797   3.89279   3.92886
 Alpha virt. eigenvalues --    3.96701   3.99052   3.99485   4.00513   4.03474
 Alpha virt. eigenvalues --    4.06045   4.12373   4.17050   4.20195   4.24720
 Alpha virt. eigenvalues --    4.25113   4.26944   4.35041   4.44091   4.45633
 Alpha virt. eigenvalues --    4.50746   4.59044   4.59375   4.59673   4.71427
 Alpha virt. eigenvalues --    4.74537   4.75754   4.85181   4.86862   4.87827
 Alpha virt. eigenvalues --    4.91195   4.94085   4.94893   5.00407   5.03807
 Alpha virt. eigenvalues --    5.10109   5.12177   5.15753   5.25114   5.26217
 Alpha virt. eigenvalues --    5.38352   5.39482   5.44646   5.50944   5.66805
 Alpha virt. eigenvalues --    5.70035   5.72135   5.75104   5.78997   5.87441
 Alpha virt. eigenvalues --    5.92266   5.97087   6.14299   6.27961   6.33271
 Alpha virt. eigenvalues --    6.40912   6.48795   6.59015   6.69098   6.71324
 Alpha virt. eigenvalues --    6.74255   6.76503   6.80536   6.87382   7.00825
 Alpha virt. eigenvalues --    7.11056   7.25634   7.28588   7.34928  10.46513
 Alpha virt. eigenvalues --   10.85161  11.61646  12.85369  14.12155
          Condensed to atoms (all electrons):
               1          2          3          4          5          6
     1  O    7.855819   0.002227   0.310594   0.320142  -0.062834  -0.047198
     2  O    0.002227   7.797224  -0.000094  -0.073848   0.353552  -0.000040
     3  C    0.310594  -0.000094   4.711838  -0.066229   0.001277   0.392096
     4  C    0.320142  -0.073848  -0.066229   4.946391   0.619746  -0.008276
     5  C   -0.062834   0.353552   0.001277   0.619746   4.787122   0.000079
     6  H   -0.047198  -0.000040   0.392096  -0.008276   0.000079   0.685687
     7  H   -0.047399  -0.000037   0.391225  -0.006477   0.001702  -0.075931
     8  H   -0.027884   0.000004   0.397518   0.007757   0.000169  -0.031301
     9  H   -0.051062  -0.001657  -0.000946   0.385863  -0.055811   0.003820
    10  H    0.006143  -0.033685   0.000098  -0.069516   0.404987   0.000016
    11  H    0.000004   0.322255   0.000056  -0.009401  -0.049557   0.000024
               7          8          9         10         11
     1  O   -0.047399  -0.027884  -0.051062   0.006143   0.000004
     2  O   -0.000037   0.000004  -0.001657  -0.033685   0.322255
     3  C    0.391225   0.397518  -0.000946   0.000098   0.000056
     4  C   -0.006477   0.007757   0.385863  -0.069516  -0.009401
     5  C    0.001702   0.000169  -0.055811   0.404987  -0.049557
     6  H   -0.075931  -0.031301   0.003820   0.000016   0.000024
     7  H    0.683732  -0.033280   0.003410   0.000176  -0.000030
     8  H   -0.033280   0.567095  -0.000660  -0.000054   0.000000
     9  H    0.003410  -0.000660   0.599411   0.006897   0.005608
    10  H    0.000176  -0.000054   0.006897   0.520981   0.007497
    11  H   -0.000030   0.000000   0.005608   0.007497   0.461232
 Mulliken charges:
               1
     1  O   -0.258552
     2  O   -0.365899
     3  C   -0.137432
     4  C   -0.046152
     5  C   -0.000434
     6  H    0.081023
     7  H    0.082909
     8  H    0.120637
     9  H    0.105126
    10  H    0.156461
    11  H    0.262313
 Sum of Mulliken charges =  -0.00000
 Mulliken charges with hydrogens summed into heavy atoms:
               1
     1  O   -0.258552
     2  O   -0.103586
     3  C    0.147137
     4  C    0.058974
     5  C    0.156027
 APT charges:
               1
     1  O   -0.178367
     2  O   -0.399420
     3  C   -0.967951
     4  C   -0.331084
     5  C   -0.324703
     6  H    0.281736
     7  H    0.293898
     8  H    0.523036
     9  H    0.254481
    10  H    0.381575
    11  H    0.466799
 Sum of APT charges =  -0.00000
 APT charges with hydrogens summed into heavy atoms:
               1
     1  O   -0.178367
     2  O    0.067379
     3  C    0.130718
     4  C   -0.076603
     5  C    0.056872
 Electronic spatial extent (au):  <R**2>=            564.7608
 Charge=             -0.0000 electrons
 Dipole moment (field-independent basis, Debye):
    X=              1.3935    Y=              2.1637    Z=              0.3922  Tot=              2.6033
 Quadrupole moment (field-independent basis, Debye-Ang):
   XX=            -30.3253   YY=            -27.1490   ZZ=            -32.1940
   XY=             -0.5796   XZ=             -1.1831   YZ=              0.6031
 Traceless Quadrupole moment (field-independent basis, Debye-Ang):
   XX=             -0.4359   YY=              2.7404   ZZ=             -2.3046
   XY=             -0.5796   XZ=             -1.1831   YZ=              0.6031
 Octapole moment (field-independent basis, Debye-Ang**2):
  XXX=             21.1733  YYY=              1.8481  ZZZ=              0.1305  XYY=            -10.1640
  XXY=              5.9259  XXZ=              2.5089  XZZ=             -0.2653  YZZ=              0.5855
  YYZ=              0.7433  XYZ=             -1.5031
 Hexadecapole moment (field-independent basis, Debye-Ang**3):
 XXXX=           -598.9245 YYYY=            -70.7120 ZZZZ=            -40.3913 XXXY=            -24.8765
 XXXZ=             -6.4915 YYYX=            -10.4952 YYYZ=              0.9892 ZZZX=             -0.1868
 ZZZY=              0.3299 XXYY=            -94.9232 XXZZ=           -107.2577 YYZZ=            -19.6439
 XXYZ=              3.9243 YYXZ=             -1.9544 ZZXY=             -0.8726
 N-N= 1.711934097851D+02 E-N=-9.707007910806D+02  KE= 2.666638983209D+02
  Exact polarizability:   0.000   0.000   0.000   0.000   0.000   0.000
 Approx polarizability:  66.524   5.356  51.531  -0.119   0.560  39.189
 No NMR shielding tensors so no spin-rotation constants.
 Leave Link  601 at Tue Sep 24 17:32:31 2019, MaxMem=   671088640 cpu:              53.2 elap:              26.6
 (Enter /shared/centos7/gaussian/g16/l701.exe)
 SCFChk:  SCF convergence  2.05D-09 required  1.00D-08
 ... and contract with generalized density number  0.
 Compute integral second derivatives.
 Entering OneElI...
 Calculate overlap and kinetic energy integrals
    NBasis = 265  MinDer = 2  MaxDer = 2
 Requested accuracy = 0.1000D-12
 PrmmSu-InSpLW:  IPartL=    0 NPrtUS=   20 NPrtUL=    1 DoSpLW=F IThBeg=    0 IThEnd=   19 NThAct=   20.
 PrsmSu:  NPrtUS=  20 ThrOK=T IAlg=1 NPAlg=1 LenDen=           0 ISkipM=0 DoSpLW=F IThBeg=    0 IThEnd=   19.
 Prism:   IPart=     0 DynPar=F LinDyn=F Incr=           1.
 PRISM was handed    33441202 working-precision words and  3708 shell-pairs
 PRISM was handed    33441202 working-precision words and  3708 shell-pairs
 PRISM was handed    33441202 working-precision words and  3708 shell-pairs
 PRISM was handed    33441202 working-precision words and  3708 shell-pairs
 PRISM was handed    33441202 working-precision words and  3708 shell-pairs
 PRISM was handed    33441202 working-precision words and  3708 shell-pairs
 PRISM was handed    33441202 working-precision words and  3708 shell-pairs
 PRISM was handed    33441202 working-precision words and  3708 shell-pairs
 PRISM was handed    33441202 working-precision words and  3708 shell-pairs
 PRISM was handed    33441202 working-precision words and  3708 shell-pairs
 PRISM was handed    33441202 working-precision words and  3708 shell-pairs
 PRISM was handed    33441202 working-precision words and  3708 shell-pairs
 PRISM was handed    33441202 working-precision words and  3708 shell-pairs
 IPart=  4 NShTot=         203 NBatch=          47 AvBLen=         4.3
 PRISM was handed    33441202 working-precision words and  3708 shell-pairs
 PRISM was handed    33441202 working-precision words and  3708 shell-pairs
 IPart=  0 NShTot=         231 NBatch=          69 AvBLen=         3.3
 IPart=  2 NShTot=         211 NBatch=          52 AvBLen=         4.1
 PRISM was handed    33441202 working-precision words and  3708 shell-pairs
 IPart= 12 NShTot=         175 NBatch=          26 AvBLen=         6.7
 IPart= 14 NShTot=         170 NBatch=          26 AvBLen=         6.5
 PRISM was handed    33441202 working-precision words and  3708 shell-pairs
 IPart=  7 NShTot=         188 NBatch=          35 AvBLen=         5.4
 IPart=  3 NShTot=         209 NBatch=          50 AvBLen=         4.2
 IPart= 18 NShTot=         165 NBatch=          25 AvBLen=         6.6
 PRISM was handed    33441202 working-precision words and  3708 shell-pairs
 PRISM was handed    33441202 working-precision words and  3708 shell-pairs
 IPart=  8 NShTot=         180 NBatch=          28 AvBLen=         6.4
 PRISM was handed    33441202 working-precision words and  3708 shell-pairs
 IPart= 15 NShTot=         168 NBatch=          25 AvBLen=         6.7
 IPart= 11 NShTot=         177 NBatch=          27 AvBLen=         6.6
 IPart=  1 NShTot=         222 NBatch=          60 AvBLen=         3.7
 IPart=  9 NShTot=         180 NBatch=          28 AvBLen=         6.4
 IPart= 10 NShTot=         178 NBatch=          27 AvBLen=         6.6
 IPart=  5 NShTot=         195 NBatch=          40 AvBLen=         4.9
 IPart= 17 NShTot=         165 NBatch=          25 AvBLen=         6.6
 IPart= 19 NShTot=         164 NBatch=          25 AvBLen=         6.6
 IPart=  6 NShTot=         191 NBatch=          37 AvBLen=         5.2
 IPart= 16 NShTot=         165 NBatch=          25 AvBLen=         6.6
 IPart= 13 NShTot=         171 NBatch=          26 AvBLen=         6.6
 PrSmSu:  NxtVal=             21.
 Entering OneElI...
 Calculate potential energy integrals
    NBasis = 265  MinDer = 2  MaxDer = 2
 Requested accuracy = 0.1000D-12
 PrmmSu-InSpLW:  IPartL=    0 NPrtUS=   20 NPrtUL=    1 DoSpLW=F IThBeg=    0 IThEnd=   19 NThAct=   20.
 PrsmSu:  NPrtUS=  20 ThrOK=T IAlg=1 NPAlg=1 LenDen=           0 ISkipM=0 DoSpLW=F IThBeg=    0 IThEnd=   19.
 Prism:   IPart=     0 DynPar=F LinDyn=F Incr=          18.
 PRISM was handed    33457925 working-precision words and  3444 shell-pairs
 PRISM was handed    33457925 working-precision words and  3444 shell-pairs
 PRISM was handed    33457925 working-precision words and  3444 shell-pairs
 PRISM was handed    33457925 working-precision words and  3444 shell-pairs
 PRISM was handed    33457925 working-precision words and  3444 shell-pairs
 PRISM was handed    33457925 working-precision words and  3444 shell-pairs
 PRISM was handed    33457925 working-precision words and  3444 shell-pairs
 PRISM was handed    33457925 working-precision words and  3444 shell-pairs
 PRISM was handed    33457925 working-precision words and  3444 shell-pairs
 PRISM was handed    33457925 working-precision words and  3444 shell-pairs
 PRISM was handed    33457925 working-precision words and  3444 shell-pairs
 PRISM was handed    33457925 working-precision words and  3444 shell-pairs
 PRISM was handed    33457925 working-precision words and  3444 shell-pairs
 PRISM was handed    33457925 working-precision words and  3444 shell-pairs
 PRISM was handed    33457925 working-precision words and  3444 shell-pairs
 PRISM was handed    33457925 working-precision words and  3444 shell-pairs
 PRISM was handed    33457925 working-precision words and  3444 shell-pairs
 PRISM was handed    33457925 working-precision words and  3444 shell-pairs
 PRISM was handed    33457925 working-precision words and  3444 shell-pairs
 PRISM was handed    33457925 working-precision words and  3444 shell-pairs
 IPart=  4 NShTot=        2035 NBatch=         185 AvBLen=        11.0
 IPart=  8 NShTot=        1870 NBatch=         170 AvBLen=        11.0
 IPart= 12 NShTot=        1815 NBatch=         165 AvBLen=        11.0
 IPart= 10 NShTot=        1826 NBatch=         166 AvBLen=        11.0
 IPart=  9 NShTot=        1837 NBatch=         167 AvBLen=        11.0
 IPart= 18 NShTot=        1716 NBatch=         156 AvBLen=        11.0
 IPart=  1 NShTot=        2233 NBatch=         203 AvBLen=        11.0
 IPart=  7 NShTot=        1870 NBatch=         170 AvBLen=        11.0
 IPart= 11 NShTot=        1826 NBatch=         166 AvBLen=        11.0
 IPart=  0 NShTot=        2354 NBatch=         214 AvBLen=        11.0
 IPart= 16 NShTot=        1738 NBatch=         158 AvBLen=        11.0
 IPart=  2 NShTot=        2167 NBatch=         197 AvBLen=        11.0
 IPart=  6 NShTot=        1892 NBatch=         172 AvBLen=        11.0
 IPart= 13 NShTot=        1793 NBatch=         163 AvBLen=        11.0
 IPart= 17 NShTot=        1738 NBatch=         158 AvBLen=        11.0
 IPart=  5 NShTot=        1903 NBatch=         173 AvBLen=        11.0
 IPart= 14 NShTot=        1771 NBatch=         161 AvBLen=        11.0
 IPart=  3 NShTot=        2057 NBatch=         187 AvBLen=        11.0
 IPart= 19 NShTot=        1694 NBatch=         154 AvBLen=        11.0
 IPart= 15 NShTot=        1749 NBatch=         159 AvBLen=        11.0
 PrSmSu:  NxtVal=            361.
 Polarizability after L701:
                1             2             3 
      1  0.000000D+00
      2  0.000000D+00  0.000000D+00
      3  0.000000D+00  0.000000D+00  0.000000D+00
 Dipole Derivatives after L701:
                 1             2             3             4             5 
      1  -0.218017D+00 -0.894142D-01  0.583259D-02  0.268215D+00  0.108120D+01
      2   0.192699D-03 -0.704173D-01 -0.686880D-02 -0.526495D-02 -0.103072D+01
      3  -0.674874D-03 -0.475593D-02 -0.246666D+00  0.191055D-01 -0.154968D+00
                 6             7             8             9            10 
      1   0.324267D+00 -0.130529D+01 -0.350845D+00  0.732066D-02 -0.425505D+00
      2  -0.171996D+00 -0.739949D-01 -0.792624D+00  0.111773D-02  0.884129D-01
      3  -0.435760D+00 -0.165225D-02  0.144488D-02 -0.805936D+00 -0.271918D-01
                11            12            13            14            15 
      1   0.287401D-03 -0.886377D-01 -0.437924D+00 -0.420628D+00  0.629011D-01
      2  -0.616188D+00  0.172685D-01 -0.156591D+00 -0.606434D+00  0.194969D-02
      3   0.228101D-01  0.484401D-01  0.824810D-02  0.628678D-01  0.702489D-01
                16            17            18            19            20 
      1   0.144230D+00  0.492829D+00 -0.513068D+00  0.180168D+00  0.490491D+00
      2   0.280509D-01  0.293667D+00 -0.236088D+00  0.438702D-01  0.284497D+00
      3   0.200721D-01 -0.201094D+00  0.407312D+00 -0.373318D-02  0.193441D+00
                21            22            23            24            25 
      1   0.539946D+00  0.120131D+01 -0.699573D+00 -0.360586D-01  0.107474D+00
      2   0.234467D+00 -0.138869D+00  0.263837D+00  0.677841D-02  0.658278D-01
      3   0.417028D+00 -0.110270D-01  0.977307D-02  0.103959D+00 -0.345205D-02
                26            27            28            29            30 
      1   0.402142D-01 -0.233294D-02  0.242243D+00  0.576678D+00  0.799417D-02
      2   0.617422D+00 -0.200637D-01  0.113222D+00  0.809743D+00  0.438126D-02
      3  -0.215416D-01  0.385476D-01 -0.148515D-01 -0.296688D-01  0.927387D-01
                31            32            33 
      1   0.243098D+00 -0.112124D+01 -0.308164D+00
      2   0.351434D-01  0.847212D+00  0.169054D+00
      3   0.151569D-01  0.121691D+00  0.310087D+00
 Hessian after L701:
                1             2             3             4             5 
      1  0.168601D+01
      2  0.486947D+00  0.105883D+02
      3 -0.611854D-01  0.111739D+00  0.146595D+02
      4  0.452838D+00 -0.165906D+00  0.140501D-01  0.468609D+01
      5 -0.111981D+00 -0.201105D+00 -0.732506D-02  0.302667D+01  0.709348D+01
      6  0.169692D-01 -0.666022D-02 -0.210330D+00 -0.312219D+00 -0.118978D+01
      7 -0.123497D+01  0.386661D+01 -0.958555D-01  0.137172D+00  0.136166D-01
      8  0.368045D+01 -0.437635D+01 -0.691687D-01 -0.625102D-03 -0.852390D-01
      9 -0.878476D-01 -0.690423D-01 -0.739361D+01  0.255038D-02 -0.106278D-02
     10 -0.108133D+01 -0.392557D+01  0.225060D+00  0.392177D+00  0.208091D+00
     11 -0.389007D+01 -0.581624D+01 -0.775439D-01  0.124934D+00 -0.197045D+00
     12  0.179237D+00 -0.688493D-01 -0.794577D+01  0.159105D-02 -0.238637D-01
     13  0.180307D+00  0.101717D+00 -0.626644D-01 -0.758859D+00 -0.347761D+01
     14  0.132483D+00 -0.186739D+00  0.291978D-01 -0.360385D+01 -0.597128D+01
     15 -0.250230D-01  0.123558D-01  0.794149D-01  0.110792D+00  0.397036D-01
     16 -0.964732D-01 -0.207388D+00 -0.568774D-01  0.188901D-01  0.752551D-02
     17 -0.162031D+00 -0.247479D-01 -0.166084D+00  0.147265D-01 -0.394674D-02
     18 -0.399904D-01 -0.134508D+00  0.367508D+00 -0.191989D-01 -0.749842D-02
     19 -0.110365D+00 -0.204094D+00  0.713776D-01  0.189468D-01  0.771477D-02
     20 -0.162877D+00 -0.169648D-01  0.171785D+00  0.135984D-01 -0.377404D-02
     21  0.516326D-01  0.143192D+00  0.369534D+00  0.192884D-01  0.715088D-02
     22  0.491898D-01 -0.183721D+00 -0.108912D-01  0.270656D-01  0.261535D-02
     23 -0.240894D+00  0.460370D-02  0.560101D-02 -0.115874D-01 -0.751935D-02
     24 -0.944413D-02  0.390317D-02  0.114242D-01 -0.448954D-03 -0.206443D-03
     25 -0.964710D-02  0.221754D+00 -0.842466D-02  0.484689D-01  0.579010D-01
     26  0.222475D+00  0.662169D-01  0.513095D-02  0.892815D-01  0.145400D-01
     27 -0.848227D-02  0.487803D-02  0.158866D+00  0.644268D-02  0.868798D-03
     28  0.145230D+00  0.294169D-01 -0.136653D-01 -0.948536D-01  0.197751D+00
     29  0.106001D+00 -0.529341D-01 -0.738525D-02  0.151331D+00  0.101298D-01
     30 -0.435234D-02 -0.370434D-02 -0.811337D-01  0.194606D-01 -0.350835D-01
     31  0.192131D-01 -0.197632D-01 -0.923617D-03 -0.492793D+01  0.677044D-01
     32 -0.605006D-01  0.159506D-01  0.405328D-02  0.361424D+00 -0.648243D+00
     33 -0.115133D-01  0.669635D-02 -0.153786D-01  0.157692D+00  0.121709D+01
                6             7             8             9            10 
      6  0.127296D+02
      7  0.615780D-02  0.884230D+01
      8 -0.143334D-02 -0.319938D+01  0.124108D+02
      9 -0.745176D-01  0.545753D-01  0.583063D-01  0.146326D+02
     10 -0.191393D-01  0.322627D+00 -0.117699D-01  0.124983D-01  0.574036D+01
     11 -0.224537D-01 -0.728907D-01 -0.183810D+00  0.295622D-02  0.660060D+00
     12  0.152964D+00  0.573218D-02  0.260579D-02 -0.831365D-01 -0.241684D+00
     13  0.187516D+00  0.286524D+00  0.690853D-01 -0.536891D-02 -0.169199D+01
     14  0.273813D-01  0.872138D-01 -0.128928D+00  0.959259D-03  0.321523D+01
     15 -0.776741D+01  0.991110D-03 -0.745450D-03 -0.117914D+00  0.198809D-01
     16 -0.555831D-02 -0.330133D+01  0.195451D+00 -0.276896D+00  0.161337D-01
     17 -0.217820D-02  0.853303D-01 -0.237982D+01 -0.120990D+01  0.348450D-01
     18 -0.636329D-02 -0.130033D+00 -0.115776D+01 -0.177164D+01  0.302086D-02
     19  0.745745D-02 -0.326430D+01  0.242523D+00  0.354660D+00  0.720348D-02
     20  0.333845D-02  0.141392D+00 -0.241335D+01  0.118945D+01  0.276336D-01
     21 -0.368420D-02  0.210440D+00  0.113688D+01 -0.173383D+01  0.118483D-02
     22  0.151378D-02 -0.184455D+01 -0.972594D+00 -0.538807D-01  0.166265D+00
     23 -0.817621D-03 -0.870146D+00 -0.282768D+01  0.299963D-01 -0.620755D-01
     24 -0.639581D-02 -0.491015D-01  0.308374D-01 -0.338276D+01 -0.205100D-02
     25  0.131240D-01  0.289855D-01 -0.150699D-01  0.174587D-02 -0.386169D+01
     26  0.691853D-02 -0.619753D-01 -0.201839D-01 -0.165287D-02  0.149306D+00
     27 -0.541841D-01  0.270688D-02 -0.128679D-02 -0.536749D-01 -0.119422D-01
     28  0.261951D-01  0.164546D-01  0.167254D-01 -0.136154D-02  0.116374D-01
     29 -0.582868D-01  0.289415D-01  0.298739D-02 -0.122137D-02 -0.284627D+00
     30  0.526034D-01  0.883522D-04 -0.401265D-03 -0.148028D-01  0.405223D-01
     31  0.779833D-01  0.110995D-01 -0.479809D-02 -0.675719D-03 -0.213895D-01
     32  0.124397D+01 -0.187117D-01  0.154346D-02  0.121718D-02 -0.111192D-01
     33 -0.481232D+01 -0.570213D-02  0.216175D-02 -0.674144D-02 -0.273509D-01
               11            12            13            14            15 
     11  0.151268D+02
     12  0.249774D+00  0.241887D+02
     13  0.330666D+01  0.287685D-01  0.563787D+01
     14 -0.736889D+01 -0.138646D+00  0.365753D-01  0.152507D+02
     15 -0.130807D+00 -0.125182D+02 -0.174589D+00  0.824237D-01  0.240259D+02
     16  0.274235D-01  0.418696D-01  0.273018D-01  0.164807D-01  0.757139D-02
     17 -0.210049D-03  0.356593D-02  0.291342D-01 -0.487195D-02  0.143291D-02
     18 -0.107644D-01 -0.257504D-01 -0.163169D-01 -0.519131D-02 -0.156721D-01
     19  0.192265D-01 -0.374590D-01  0.467979D-01  0.206731D-01 -0.341291D-03
     20 -0.901085D-02 -0.491514D-02  0.345293D-01 -0.837630D-02  0.180380D-02
     21  0.910586D-02 -0.273854D-01  0.231311D-01  0.631362D-02 -0.150560D-01
     22 -0.680740D-01 -0.139722D-02  0.439724D-01  0.171014D-02  0.145016D-02
     23 -0.305366D-01  0.136757D-02 -0.123940D-01 -0.719819D-02 -0.610046D-03
     24  0.922938D-03 -0.447892D-01 -0.793297D-03  0.596373D-04 -0.977617D-02
     25  0.125606D+00 -0.120220D-01 -0.836824D-02 -0.275456D+00  0.155676D-01
     26 -0.135048D+01 -0.844791D-01 -0.271581D+00 -0.175828D+00  0.233946D-01
     27 -0.768653D-01 -0.389569D+01  0.155324D-01  0.181135D-01  0.152278D+00
     28 -0.302980D+00  0.436557D-01 -0.389236D+01  0.304027D+00  0.559543D-02
     29 -0.134484D+00  0.619871D-01  0.246893D+00 -0.143731D+01  0.652511D-02
     30  0.505691D-01  0.195365D+00  0.146229D-02 -0.407859D-02 -0.389170D+01
     31  0.701014D-01 -0.829184D-02  0.128810D+00  0.649182D-01  0.381053D-01
     32 -0.361242D-01  0.145286D-02 -0.630098D-01  0.387338D-01 -0.354765D-01
     33  0.510682D-02  0.370822D-02  0.332258D-02 -0.165332D-01  0.781621D-01
               16            17            18            19            20 
     16  0.303293D+01
     17 -0.114529D+00  0.224849D+01
     18  0.364255D+00  0.122707D+01  0.187881D+01
     19  0.228432D+00  0.807693D-02 -0.549119D-01  0.299642D+01
     20  0.590316D-02  0.245806D+00 -0.215877D-01 -0.164327D+00  0.227936D+01
     21  0.214067D-01  0.346207D-01 -0.433960D+00 -0.435760D+00 -0.121609D+01
     22  0.357429D-01  0.997366D-01 -0.785491D-01  0.463495D-01  0.982500D-01
     23  0.857631D-01 -0.599207D-01  0.982948D-01  0.830383D-01 -0.570995D-01
     24 -0.774154D-01  0.113557D+00  0.180800D-01  0.804587D-01 -0.124888D+00
     25  0.346062D-01  0.183682D-03 -0.237817D-01  0.253956D-01  0.521707D-04
     26 -0.176558D-01 -0.216393D-01  0.126419D-01 -0.154796D-01 -0.180281D-01
     27 -0.165507D-01 -0.595836D-03 -0.108388D-01  0.143780D-01  0.731636D-03
     28  0.176437D-02  0.379391D-02 -0.283430D-02  0.384649D-02  0.515659D-02
     29  0.438272D-02  0.504880D-02 -0.535146D-02  0.617755D-02  0.549111D-02
     30 -0.102277D-03 -0.465629D-03 -0.964586D-03  0.803911D-03  0.108532D-02
     31  0.199880D-02  0.732933D-03 -0.166034D-02  0.128000D-02  0.688902D-03
     32 -0.335697D-02 -0.418767D-02  0.465558D-02 -0.353051D-02 -0.405657D-02
     33 -0.170332D-02 -0.101859D-02  0.794815D-03 -0.664226D-03 -0.707283D-03
               21            22            23            24            25 
     21  0.184748D+01
     22  0.841791D-01  0.147409D+01
     23 -0.110212D+00  0.102941D+01  0.298110D+01
     24  0.707585D-02  0.589991D-01 -0.243230D-01  0.341052D+01
     25  0.197280D-01 -0.395849D-02  0.781887D-03  0.345620D-04  0.370289D+01
     26 -0.121366D-01 -0.805026D-02  0.467996D-02  0.112534D-03 -0.147697D+00
     27 -0.759750D-02  0.203096D-03 -0.142433D-03 -0.171110D-02  0.666289D-02
     28  0.339402D-02  0.400498D-02 -0.101494D-02 -0.159557D-03 -0.565832D-02
     29  0.569311D-02  0.784175D-02 -0.334647D-02 -0.247691D-03  0.448776D-01
     30 -0.751968D-03  0.283067D-03 -0.989997D-04 -0.120290D-02 -0.111576D-02
     31  0.137465D-02  0.182800D-02 -0.879088D-03 -0.786512D-04  0.489725D-01
     32 -0.451811D-02 -0.712197D-02  0.291313D-02  0.272696D-03 -0.129335D-01
     33 -0.182125D-02 -0.191012D-02  0.944944D-03 -0.462382D-03 -0.115188D-01
               26            27            28            29            30 
     26  0.145590D+01
     27  0.570099D-01  0.374624D+01
     28  0.467855D-01 -0.166976D-02  0.382720D+01
     29  0.794195D-01 -0.327621D-02 -0.270254D+00  0.141537D+01
     30 -0.134625D-02 -0.127455D-01 -0.546200D-01 -0.143824D-01  0.377703D+01
     31  0.145910D-01 -0.728103D-02 -0.172629D-01 -0.415646D-01 -0.243011D-02
     32 -0.345932D-01  0.564670D-03 -0.294075D-01  0.109633D+00  0.790647D-02
     33 -0.559362D-02 -0.209367D-01 -0.452969D-02  0.159459D-01 -0.216965D-01
               31            32            33 
     31  0.475338D+01
     32 -0.151732D+00  0.558431D+00
     33 -0.961219D-01 -0.122410D+01  0.479670D+01
 Leave Link  701 at Tue Sep 24 17:32:51 2019, MaxMem=   671088640 cpu:              40.4 elap:              20.2
 (Enter /shared/centos7/gaussian/g16/l702.exe)
 L702 exits ... SP integral derivatives will be done elsewhere.
 Leave Link  702 at Tue Sep 24 17:32:52 2019, MaxMem=   671088640 cpu:               1.4 elap:               0.7
 (Enter /shared/centos7/gaussian/g16/l703.exe)
 Integral derivatives from FoFJK, PRISM(SPDF).
 Compute integral second derivatives, UseDBF=F ICtDFT=           0.
 ICntrl=    100147.
 Calling FoFJK, ICntrl=    100147 FMM=F ISym2X=0 I1Cent= 0 IOpClX= 0 NMat=1 NMatS=1 NMatT=0.
 FoFJK:  IHMeth= 1 ICntrl=  100147 DoSepK=F KAlg= 0 I1Cent=           0 FoldK=F
 IRaf=         0 NMat=       1 IRICut=       1 DoRegI=T DoRafI=F ISym2E= 0 IDoP0=0 IntGTp=1.
 FoFCou: FMM=F IPFlag=           0 FMFlag=      100000 FMFlg1=         800
         NFxFlg=           0 DoJE=F BraDBF=F KetDBF=F FulRan=T
         wScrn=  0.000000 ICntrl=    100147 IOpCl=  0 I1Cent=           0 NGrid=           0
         NMat0=    1 NMatS0=      1 NMatT0=    0 NMatD0=    1 NMtDS0=    0 NMtDT0=    0
 Symmetry not used in FoFCou.
 FoFCou:  KetSym=F NOpSet=  1 NOpAb=1 NOp=  1.
 FoFCou:  CnvScl= 1.00D+00 Thresh= 1.00D-08 IAcrcy=      12.
 PrismS was handed   670746837 working-precision words and  3552 shell-pairs
 FoFCou: LinMIO=F DoNuc=F BraDBF=F KetDBF=F HaveP=T PDBF=F HaveZ=T HaveW=F
         NIJTC =      10 NIJTAt=       0 NIJTCD=       0 NIJTT =      10
         IJTBeg=       1 IJTEnd=      10 KLTBeg=       1 KLTEnd=      10
         IPTBeg=       1 IPTEnd=      10 IPTBCv=       1 IPTECv=      10
         IZTBeg=       1 IZTEnd=      10 IZTBCv=       1 IZTECv=      10
         IWTBeg=      11 IWTEnd=      10 IWTBCv=      11 IWTECv=      10
         INTBeg=       1 INTEnd=       0 IFTBCv=       1 IFTECv=      10
 NCel replicated for PrismC:     1
 CoulSu-InSpLW:  IPartL=    0 NPrtUS=   20 NPrtUL=    1 DoSpLW=F IThBeg=    0 IThEnd=   19 NThAct=   20.
 CoulSu:  IncDef=  1024 NBBP=        6310128 NTPThr=   100 NPartT=   20 Incr=        1024 LDynOK=F GPUOK=T.
 CoulSu:  NPrtUS=  20 ThrOK=T IAlg=1 NPAlg=1 LenDen=           0 LWGrdD=           0 DoCopy=F ISkipM=0
          DoSpLW=F IThBeg=    0 IThEnd=   19.
 Enter PrismC:  IPart=  0 JobTyp=22 DoJE=F Cont=F.
 PrismC:  IPart=     0 DynPar=T LinDyn=F Incr=        1024 UseFst=F UseS4=T ISplat=2.
 PrismC was handed    33459233 working-precision words and  3552 shell-pairs
 Enter PrismC:  IPart=  1 JobTyp=22 DoJE=F Cont=F.
 PrismC:  IPart=     1 DynPar=T LinDyn=F Incr=        1024 UseFst=F UseS4=T ISplat=2.
 PrismC was handed    33459233 working-precision words and  3552 shell-pairs
 Enter PrismC:  IPart=  2 JobTyp=22 DoJE=F Cont=F.
 PrismC:  IPart=     2 DynPar=T LinDyn=F Incr=        1024 UseFst=F UseS4=T ISplat=2.
 PrismC was handed    33459233 working-precision words and  3552 shell-pairs
 Enter PrismC:  IPart= 10 JobTyp=22 DoJE=F Cont=F.
 PrismC:  IPart=    10 DynPar=T LinDyn=F Incr=        1024 UseFst=F UseS4=T ISplat=2.
 PrismC was handed    33459233 working-precision words and  3552 shell-pairs
 Enter PrismC:  IPart= 11 JobTyp=22 DoJE=F Cont=F.
 Enter PrismC:  IPart=  5 JobTyp=22 DoJE=F Cont=F.
 PrismC:  IPart=     5 DynPar=T LinDyn=F Incr=        1024 UseFst=F UseS4=T ISplat=2.
 PrismC was handed    33459233 working-precision words and  3552 shell-pairs
 Enter PrismC:  IPart= 17 JobTyp=22 DoJE=F Cont=F.
 PrismC:  IPart=    17 DynPar=T LinDyn=F Incr=        1024 UseFst=F UseS4=T ISplat=2.
 PrismC was handed    33459233 working-precision words and  3552 shell-pairs
 PrismC:  IPart=    11 DynPar=T LinDyn=F Incr=        1024 UseFst=F UseS4=T ISplat=2.
 PrismC was handed    33459233 working-precision words and  3552 shell-pairs
 Enter PrismC:  IPart=  9 JobTyp=22 DoJE=F Cont=F.
 PrismC:  IPart=     9 DynPar=T LinDyn=F Incr=        1024 UseFst=F UseS4=T ISplat=2.
 PrismC was handed    33459233 working-precision words and  3552 shell-pairs
 Enter PrismC:  IPart= 16 JobTyp=22 DoJE=F Cont=F.
 PrismC:  IPart=    16 DynPar=T LinDyn=F Incr=        1024 UseFst=F UseS4=T ISplat=2.
 PrismC was handed    33459233 working-precision words and  3552 shell-pairs
 Enter PrismC:  IPart= 18 JobTyp=22 DoJE=F Cont=F.
 PrismC:  IPart=    18 DynPar=T LinDyn=F Incr=        1024 UseFst=F UseS4=T ISplat=2.
 PrismC was handed    33459233 working-precision words and  3552 shell-pairs
 Enter PrismC:  IPart= 19 JobTyp=22 DoJE=F Cont=F.
 Enter PrismC:  IPart= 12 JobTyp=22 DoJE=F Cont=F.
 PrismC:  IPart=    19 DynPar=T LinDyn=F Incr=        1024 UseFst=F UseS4=T ISplat=2.
 PrismC was handed    33459233 working-precision words and  3552 shell-pairs
 PrismC:  IPart=    12 DynPar=T LinDyn=F Incr=        1024 UseFst=F UseS4=T ISplat=2.
 PrismC was handed    33459233 working-precision words and  3552 shell-pairs
 Enter PrismC:  IPart=  4 JobTyp=22 DoJE=F Cont=F.
 PrismC:  IPart=     4 DynPar=T LinDyn=F Incr=        1024 UseFst=F UseS4=T ISplat=2.
 PrismC was handed    33459233 working-precision words and  3552 shell-pairs
 Enter PrismC:  IPart= 14 JobTyp=22 DoJE=F Cont=F.
 PrismC:  IPart=    14 DynPar=T LinDyn=F Incr=        1024 UseFst=F UseS4=T ISplat=2.
 PrismC was handed    33459233 working-precision words and  3552 shell-pairs
 Enter PrismC:  IPart=  7 JobTyp=22 DoJE=F Cont=F.
 PrismC:  IPart=     7 DynPar=T LinDyn=F Incr=        1024 UseFst=F UseS4=T ISplat=2.
 PrismC was handed    33459233 working-precision words and  3552 shell-pairs
 Enter PrismC:  IPart= 15 JobTyp=22 DoJE=F Cont=F.
 PrismC:  IPart=    15 DynPar=T LinDyn=F Incr=        1024 UseFst=F UseS4=T ISplat=2.
 PrismC was handed    33459233 working-precision words and  3552 shell-pairs
 Enter PrismC:  IPart= 13 JobTyp=22 DoJE=F Cont=F.
 PrismC:  IPart=    13 DynPar=T LinDyn=F Incr=        1024 UseFst=F UseS4=T ISplat=2.
 PrismC was handed    33459233 working-precision words and  3552 shell-pairs
 Enter PrismC:  IPart=  3 JobTyp=22 DoJE=F Cont=F.
 PrismC:  IPart=     3 DynPar=T LinDyn=F Incr=        1024 UseFst=F UseS4=T ISplat=2.
 PrismC was handed    33459233 working-precision words and  3552 shell-pairs
 Enter PrismC:  IPart=  8 JobTyp=22 DoJE=F Cont=F.
 PrismC:  IPart=     8 DynPar=T LinDyn=F Incr=        1024 UseFst=F UseS4=T ISplat=2.
 PrismC was handed    33459233 working-precision words and  3552 shell-pairs
 Enter PrismC:  IPart=  6 JobTyp=22 DoJE=F Cont=F.
 PrismC:  IPart=     6 DynPar=T LinDyn=F Incr=        1024 UseFst=F UseS4=T ISplat=2.
 PrismC was handed    33459233 working-precision words and  3552 shell-pairs
 IPart= 13 NShTot=      262745 NShNF=      262745 NShFF=           0 MinMC=       7
           NShCPU=      262745 NBCPU=       10938 AvBCPU=        24.0
           NShGPU=           0 NBGPU=           0 AvBGPU=         0.0
 IPart=  5 NShTot=      161872 NShNF=      161872 NShFF=           0 MinMC=       7
           NShCPU=      161872 NBCPU=        6779 AvBCPU=        23.9
           NShGPU=           0 NBGPU=           0 AvBGPU=         0.0
 IPart= 10 NShTot=      267583 NShNF=      267583 NShFF=           0 MinMC=       7
           NShCPU=      267583 NBCPU=       11488 AvBCPU=        23.3
           NShGPU=           0 NBGPU=           0 AvBGPU=         0.0
 IPart= 14 NShTot=      169174 NShNF=      169174 NShFF=           0 MinMC=       7
           NShCPU=      169174 NBCPU=        7146 AvBCPU=        23.7
           NShGPU=           0 NBGPU=           0 AvBGPU=         0.0
 IPart=  1 NShTot=      159627 NShNF=      159627 NShFF=           0 MinMC=       7
           NShCPU=      159627 NBCPU=        6409 AvBCPU=        24.9
           NShGPU=           0 NBGPU=           0 AvBGPU=         0.0
 IPart=  9 NShTot=      170214 NShNF=      170214 NShFF=           0 MinMC=       7
           NShCPU=      170214 NBCPU=        7415 AvBCPU=        23.0
           NShGPU=           0 NBGPU=           0 AvBGPU=         0.0
 IPart= 18 NShTot=      164729 NShNF=      164729 NShFF=           0 MinMC=       7
           NShCPU=      164729 NBCPU=        7189 AvBCPU=        22.9
           NShGPU=           0 NBGPU=           0 AvBGPU=         0.0
 IPart= 17 NShTot=      264809 NShNF=      264809 NShFF=           0 MinMC=       7
           NShCPU=      264809 NBCPU=       11107 AvBCPU=        23.8
           NShGPU=           0 NBGPU=           0 AvBGPU=         0.0
 IPart=  2 NShTot=      162064 NShNF=      162064 NShFF=           0 MinMC=       7
           NShCPU=      162064 NBCPU=        7097 AvBCPU=        22.8
           NShGPU=           0 NBGPU=           0 AvBGPU=         0.0
 IPart= 16 NShTot=      159148 NShNF=      159148 NShFF=           0 MinMC=       7
           NShCPU=      159148 NBCPU=        7209 AvBCPU=        22.1
           NShGPU=           0 NBGPU=           0 AvBGPU=         0.0
 IPart=  8 NShTot=      276238 NShNF=      276238 NShFF=           0 MinMC=       7
           NShCPU=      276238 NBCPU=       11604 AvBCPU=        23.8
           NShGPU=           0 NBGPU=           0 AvBGPU=         0.0
 IPart=  7 NShTot=      173317 NShNF=      173317 NShFF=           0 MinMC=       7
           NShCPU=      173317 NBCPU=        6819 AvBCPU=        25.4
           NShGPU=           0 NBGPU=           0 AvBGPU=         0.0
 IPart= 11 NShTot=      270159 NShNF=      270159 NShFF=           0 MinMC=       7
           NShCPU=      270159 NBCPU=       11064 AvBCPU=        24.4
           NShGPU=           0 NBGPU=           0 AvBGPU=         0.0
 IPart=  4 NShTot=      163410 NShNF=      163410 NShFF=           0 MinMC=       7
           NShCPU=      163410 NBCPU=        6979 AvBCPU=        23.4
           NShGPU=           0 NBGPU=           0 AvBGPU=         0.0
 IPart= 15 NShTot=      262139 NShNF=      262139 NShFF=           0 MinMC=       7
           NShCPU=      262139 NBCPU=       10887 AvBCPU=        24.1
           NShGPU=           0 NBGPU=           0 AvBGPU=         0.0
 IPart=  0 NShTot=      264357 NShNF=      264357 NShFF=           0 MinMC=       7
           NShCPU=      264357 NBCPU=       10799 AvBCPU=        24.5
           NShGPU=           0 NBGPU=           0 AvBGPU=         0.0
 IPart= 12 NShTot=      169050 NShNF=      169050 NShFF=           0 MinMC=       7
           NShCPU=      169050 NBCPU=        7149 AvBCPU=        23.6
           NShGPU=           0 NBGPU=           0 AvBGPU=         0.0
 IPart= 19 NShTot=      163912 NShNF=      163912 NShFF=           0 MinMC=       7
           NShCPU=      163912 NBCPU=        6740 AvBCPU=        24.3
           NShGPU=           0 NBGPU=           0 AvBGPU=         0.0
 IPart=  3 NShTot=      270439 NShNF=      270439 NShFF=           0 MinMC=       7
           NShCPU=      270439 NBCPU=       10755 AvBCPU=        25.1
           NShGPU=           0 NBGPU=           0 AvBGPU=         0.0
 IPart=  6 NShTot=      167497 NShNF=      167497 NShFF=           0 MinMC=       7
           NShCPU=      167497 NBCPU=        7236 AvBCPU=        23.1
           NShGPU=           0 NBGPU=           0 AvBGPU=         0.0
 CoulSu:  NxtVal=        6739969 LenVP=       33459234 MinMC=       7.
 ReadGW:  IGet=0 IStart=           1 Next=           1 LGW=           0.
 Remaining memory in FofDFT      639.93 Mw
 CkSvGd:  ISavGI=        -1 IRadAn=       5 IRASav=       5 ISavGd=        -1.
 CalDSu-InSpLW:  IPartL=    0 NPrtUS=   20 NPrtUL=    1 DoSpLW=F IThBeg=    0 IThEnd=   19 NThAct=   20.
 CalDSu:  NPrtUS=  20 ThrOK=T IAlg=1 NPAlg=2 DoDPD=T LenP=       35245 LenD1P=             0 GPUOK=F
          ISkipM=0 DoSpLW=F IThBeg=    0 IThEnd=   19.
 IPart=  0 IRanGd=          0 ScrnBf=T ScrnGd=T RCrit=4.00D+00 DoMicB=T.
 IPart=  4        11413 of        13440 points in      16 batches and       53 microbatches, Max-NSigAt=      11 Max-NSgAt2=      11
 IPart=  0        15429 of        16864 points in      17 batches and       61 microbatches, Max-NSigAt=      11 Max-NSgAt2=      11
 IPart=  1         9906 of        11088 points in      12 batches and       70 microbatches, Max-NSigAt=      11 Max-NSgAt2=      11
 IPart= 19         9978 of        11080 points in      11 batches and       73 microbatches, Max-NSigAt=      11 Max-NSgAt2=      11
 IPart=  5        10577 of        11392 points in      12 batches and       70 microbatches, Max-NSigAt=      11 Max-NSgAt2=      11
 IPart= 12         8401 of         9552 points in      11 batches and      100 microbatches, Max-NSigAt=      11 Max-NSgAt2=      11
 IPart=  6        10396 of        11176 points in      11 batches and       69 microbatches, Max-NSigAt=      11 Max-NSgAt2=      11
 IPart= 18         9100 of        10124 points in      11 batches and       68 microbatches, Max-NSigAt=      11 Max-NSgAt2=      11
 IPart= 17        14255 of        14518 points in      12 batches and       46 microbatches, Max-NSigAt=      11 Max-NSgAt2=      11
 IPart= 16        11232 of        12990 points in      14 batches and       80 microbatches, Max-NSigAt=      11 Max-NSgAt2=      11
 IPart=  8        11603 of        12416 points in      12 batches and       79 microbatches, Max-NSigAt=      11 Max-NSgAt2=      11
 IPart= 13        12214 of        12832 points in      12 batches and       57 microbatches, Max-NSigAt=      11 Max-NSgAt2=      11
 IPart=  3        14638 of        16158 points in      18 batches and       78 microbatches, Max-NSigAt=      11 Max-NSgAt2=      11
 IPart=  2         9092 of         9758 points in      11 batches and       62 microbatches, Max-NSigAt=      11 Max-NSgAt2=      11
 IPart= 10        12226 of        12432 points in      11 batches and       44 microbatches, Max-NSigAt=      11 Max-NSgAt2=      11
 IPart=  7        10127 of        12274 points in      16 batches and       90 microbatches, Max-NSigAt=      11 Max-NSgAt2=      11
 IPart= 11        12164 of        12776 points in      11 batches and       53 microbatches, Max-NSigAt=      11 Max-NSgAt2=      11
 IPart= 14        10104 of        10712 points in      11 batches and       58 microbatches, Max-NSigAt=      11 Max-NSgAt2=      11
 IPart= 15        12791 of        13502 points in      13 batches and       66 microbatches, Max-NSigAt=      11 Max-NSgAt2=      11
 IPart=  9         9665 of        11316 points in      13 batches and       76 microbatches, Max-NSigAt=      11 Max-NSgAt2=      11
 Polarizability after L703:
                1             2             3 
      1  0.000000D+00
      2  0.000000D+00  0.000000D+00
      3  0.000000D+00  0.000000D+00  0.000000D+00
 Dipole Derivatives after L703:
                 1             2             3             4             5 
      1  -0.218017D+00 -0.894142D-01  0.583259D-02  0.268215D+00  0.108120D+01
      2   0.192699D-03 -0.704173D-01 -0.686880D-02 -0.526495D-02 -0.103072D+01
      3  -0.674874D-03 -0.475593D-02 -0.246666D+00  0.191055D-01 -0.154968D+00
                 6             7             8             9            10 
      1   0.324267D+00 -0.130529D+01 -0.350845D+00  0.732066D-02 -0.425505D+00
      2  -0.171996D+00 -0.739949D-01 -0.792624D+00  0.111773D-02  0.884129D-01
      3  -0.435760D+00 -0.165225D-02  0.144488D-02 -0.805936D+00 -0.271918D-01
                11            12            13            14            15 
      1   0.287401D-03 -0.886377D-01 -0.437924D+00 -0.420628D+00  0.629011D-01
      2  -0.616188D+00  0.172685D-01 -0.156591D+00 -0.606434D+00  0.194969D-02
      3   0.228101D-01  0.484401D-01  0.824810D-02  0.628678D-01  0.702489D-01
                16            17            18            19            20 
      1   0.144230D+00  0.492829D+00 -0.513068D+00  0.180168D+00  0.490491D+00
      2   0.280509D-01  0.293667D+00 -0.236088D+00  0.438702D-01  0.284497D+00
      3   0.200721D-01 -0.201094D+00  0.407312D+00 -0.373318D-02  0.193441D+00
                21            22            23            24            25 
      1   0.539946D+00  0.120131D+01 -0.699573D+00 -0.360586D-01  0.107474D+00
      2   0.234467D+00 -0.138869D+00  0.263837D+00  0.677841D-02  0.658278D-01
      3   0.417028D+00 -0.110270D-01  0.977307D-02  0.103959D+00 -0.345205D-02
                26            27            28            29            30 
      1   0.402142D-01 -0.233294D-02  0.242243D+00  0.576678D+00  0.799417D-02
      2   0.617422D+00 -0.200637D-01  0.113222D+00  0.809743D+00  0.438126D-02
      3  -0.215416D-01  0.385476D-01 -0.148515D-01 -0.296688D-01  0.927387D-01
                31            32            33 
      1   0.243098D+00 -0.112124D+01 -0.308164D+00
      2   0.351434D-01  0.847212D+00  0.169054D+00
      3   0.151569D-01  0.121691D+00  0.310087D+00
 Hessian after L703:
                1             2             3             4             5 
      1  0.505363D+00
      2  0.461930D-02  0.322516D+00
      3  0.229273D-02 -0.749330D-02  0.662040D-01
      4 -0.218938D-01  0.179074D-02 -0.736466D-03  0.393042D+00
      5  0.880179D-02 -0.541883D-02 -0.175550D-03 -0.650241D-01  0.462491D+00
      6 -0.240903D-02  0.187961D-02  0.878931D-02  0.265221D-01  0.935857D-01
      7 -0.164884D+00 -0.467192D-01  0.408705D-03  0.626947D-02 -0.409283D-02
      8 -0.862537D-01 -0.145891D+00  0.171997D-02  0.706894D-02 -0.227868D-02
      9  0.198000D-02  0.184442D-02 -0.570610D-01 -0.184623D-03  0.290317D-03
     10 -0.220298D+00  0.538665D-01 -0.275886D-02 -0.375726D-01 -0.945752D-02
     11  0.974995D-01 -0.157800D+00  0.373613D-02  0.200184D-01  0.197705D-01
     12 -0.503198D-02  0.544183D-02 -0.345747D-01 -0.128412D-02  0.260623D-03
     13 -0.347571D-01 -0.101485D-01  0.171963D-02 -0.268448D+00  0.102160D+00
     14  0.217996D-01  0.240124D-01 -0.514010D-03  0.601041D-01 -0.143955D+00
     15  0.120768D-02 -0.205581D-02  0.565594D-02 -0.139280D-01 -0.217739D-02
     16 -0.131479D-01 -0.242541D-01  0.224073D-01 -0.514873D-04  0.465027D-04
     17 -0.134887D-01 -0.168083D-01  0.156694D-01 -0.111962D-02  0.564434D-03
     18  0.547263D-02  0.172746D-02  0.624202D-02  0.675247D-03 -0.364760D-03
     19 -0.141869D-01 -0.242485D-01 -0.223640D-01 -0.124525D-03  0.359716D-04
     20 -0.143140D-01 -0.161756D-01 -0.151274D-01 -0.119288D-02  0.656305D-03
     21 -0.496367D-02 -0.103906D-02  0.754729D-02 -0.658238D-03  0.340767D-03
     22 -0.301145D-01  0.133624D-01  0.301664D-03 -0.106713D-02  0.870311D-04
     23 -0.235423D-01  0.139613D-01  0.487463D-03 -0.486279D-03 -0.140837D-03
     24  0.476501D-03 -0.171316D-05  0.397018D-03  0.175133D-04 -0.266558D-05
     25 -0.851573D-02  0.315471D-01 -0.977955D-03  0.321994D-02 -0.796264D-03
     26  0.732289D-02 -0.189540D-01  0.695490D-03  0.307123D-04  0.265140D-02
     27 -0.270752D-03  0.897702D-03  0.208631D-02 -0.465842D-03  0.107318D-02
     28  0.257388D-02  0.606527D-03  0.000000D+00 -0.245304D-02  0.377470D-01
     29  0.731524D-03  0.312143D-03 -0.618067D-05  0.600297D-02 -0.172757D-01
     30  0.348126D-03 -0.564582D-03 -0.491461D-02  0.117852D-02 -0.414012D-03
     31 -0.138897D-03 -0.422350D-03 -0.293438D-03 -0.709207D-01 -0.695075D-01
     32 -0.317606D-02  0.245563D-03  0.100799D-02 -0.271930D-01 -0.317065D+00
     33  0.897760D-03 -0.636571D-03 -0.371665D-03 -0.111361D-01 -0.924162D-01
                6             7             8             9            10 
      6  0.801258D-01
      7  0.834036D-03  0.543209D+00
      8  0.643242D-03 -0.878476D-01  0.518769D+00
      9  0.269815D-02 -0.335945D-03  0.253843D-02  0.492546D+00
     10  0.175356D-02 -0.559249D-01  0.180812D-01 -0.263382D-03  0.850512D+00
     11 -0.304739D-02 -0.112580D-01  0.153926D-01 -0.708629D-03  0.185966D+00
     12  0.417751D-02  0.780311D-03 -0.351265D-03 -0.564445D-02 -0.385310D-02
     13 -0.363260D-02 -0.412626D-02 -0.218789D-03  0.379513D-03 -0.486549D+00
     14 -0.961307D-02  0.364843D-02 -0.353578D-02  0.942252D-04 -0.211457D+00
     15 -0.388637D-01 -0.841287D-03 -0.218913D-03 -0.151993D-02  0.500618D-02
     16 -0.514309D-03 -0.566755D-01  0.108892D-01 -0.985306D-02  0.512785D-02
     17 -0.190435D-03  0.668411D-02 -0.114815D+00  0.852085D-01  0.356837D-02
     18  0.268931D-04 -0.700672D-02  0.885532D-01 -0.188414D+00 -0.108353D-02
[...]
 ITU=  0
     Eigenvalues ---    0.00481   0.00521   0.00580   0.02433   0.02896
     Eigenvalues ---    0.04506   0.08689   0.08753   0.10040   0.12730
     Eigenvalues ---    0.13604   0.15635   0.17816   0.18082   0.18948
     Eigenvalues ---    0.21695   0.23493   0.32984   0.33422   0.34683
     Eigenvalues ---    0.35055   0.36978   0.39795   0.43896   0.46229
     Eigenvalues ---    0.54047   0.65356
 Angle between quadratic step and forces=  64.80 degrees.
 Linear search not attempted -- first point.
 Iteration  1 RMS(Cart)=  0.00000184 RMS(Int)=  0.00000000
 Iteration  2 RMS(Cart)=  0.00000000 RMS(Int)=  0.00000000
 ITry= 1 IFail=0 DXMaxC= 5.08D-06 DCOld= 1.00D+10 DXMaxT= 3.00D-01 DXLimC= 3.00D+00 Rises=F
 Variable       Old X    -DE/DX   Delta X   Delta X   Delta X     New X
                                 (Linear)    (Quad)   (Total)
    R1        2.66967   0.00000   0.00000   0.00000   0.00000   2.66967
    R2        2.58409   0.00000   0.00000   0.00000   0.00000   2.58409
    R3        2.57255  -0.00000   0.00000  -0.00000  -0.00000   2.57255
    R4        1.81729  -0.00000   0.00000  -0.00000  -0.00000   1.81729
    R5        2.06849   0.00000   0.00000   0.00000   0.00000   2.06849
    R6        2.06548   0.00000   0.00000   0.00000   0.00000   2.06548
    R7        2.05367   0.00000   0.00000   0.00000   0.00000   2.05367
    R8        2.50349   0.00000   0.00000   0.00000   0.00000   2.50350
    R9        2.05853  -0.00000   0.00000  -0.00000  -0.00000   2.05853
   R10        2.04186  -0.00000   0.00000  -0.00000  -0.00000   2.04186
    A1        1.97247   0.00000   0.00000   0.00000   0.00000   1.97247
    A2        1.91328  -0.00000   0.00000  -0.00000  -0.00000   1.91328
    A3        1.93549   0.00000   0.00000   0.00000   0.00000   1.93549
    A4        1.93602  -0.00000   0.00000  -0.00000  -0.00000   1.93602
    A5        1.87134   0.00000   0.00000   0.00000   0.00000   1.87134
    A6        1.90058   0.00000   0.00000   0.00000   0.00000   1.90058
    A7        1.90571  -0.00000   0.00000  -0.00000  -0.00000   1.90571
    A8        1.91438  -0.00000   0.00000  -0.00000  -0.00000   1.91438
    A9        2.11248  -0.00000   0.00000  -0.00000  -0.00000   2.11248
   A10        2.03047   0.00000   0.00000   0.00000   0.00000   2.03047
   A11        2.13941  -0.00000   0.00000   0.00000   0.00000   2.13941
   A12        2.19770  -0.00000   0.00000  -0.00000  -0.00000   2.19770
   A13        1.96888   0.00000   0.00000   0.00000   0.00000   1.96888
   A14        2.11635   0.00000   0.00000   0.00000   0.00000   2.11635
    D1       -1.00894  -0.00000   0.00000   0.00000   0.00000  -1.00893
    D2        1.10531   0.00000   0.00000   0.00000   0.00000   1.10531
    D3       -3.08799   0.00000   0.00000   0.00000   0.00000  -3.08799
    D4       -2.27483   0.00000   0.00000   0.00000   0.00000  -2.27483
    D5        0.90917  -0.00000   0.00000   0.00000   0.00000   0.90917
    D6        0.00001   0.00000   0.00000   0.00000   0.00000   0.00002
    D7       -3.11727   0.00000   0.00000   0.00000   0.00000  -3.11727
    D8       -3.06124  -0.00000   0.00000  -0.00000  -0.00000  -3.06125
    D9        0.05414  -0.00000   0.00000  -0.00000  -0.00000   0.05414
   D10        0.03525  -0.00000   0.00000  -0.00000  -0.00000   0.03525
   D11       -3.13255  -0.00000   0.00000  -0.00000  -0.00000  -3.13255
         Item               Value     Threshold  Converged?
 Maximum Force            0.000001     0.000015     YES
 RMS     Force            0.000000     0.000010     YES
 Maximum Displacement     0.000005     0.000060     YES
 RMS     Displacement     0.000002     0.000040     YES
 Predicted change in Energy=-1.700596D-12
 Optimization completed.
    -- Stationary point found.
                           ----------------------------
                           !   Optimized Parameters   !
                           ! (Angstroms and Degrees)  !
 --------------------------                            --------------------------
 ! Name  Definition              Value          Derivative Info.                !
 --------------------------------------------------------------------------------
 ! R1    R(1,3)                  1.4127         -DE/DX =    0.0                 !
 ! R2    R(1,4)                  1.3674         -DE/DX =    0.0                 !
 ! R3    R(2,5)                  1.3613         -DE/DX =    0.0                 !
 ! R4    R(2,11)                 0.9617         -DE/DX =    0.0                 !
 ! R5    R(3,6)                  1.0946         -DE/DX =    0.0                 !
 ! R6    R(3,7)                  1.093          -DE/DX =    0.0                 !
 ! R7    R(3,8)                  1.0868         -DE/DX =    0.0                 !
 ! R8    R(4,5)                  1.3248         -DE/DX =    0.0                 !
 ! R9    R(4,9)                  1.0893         -DE/DX =    0.0                 !
 ! R10   R(5,10)                 1.0805         -DE/DX =    0.0                 !
 ! A1    A(3,1,4)              113.0141         -DE/DX =    0.0                 !
 ! A2    A(5,2,11)             109.6227         -DE/DX =    0.0                 !
 ! A3    A(1,3,6)              110.8952         -DE/DX =    0.0                 !
 ! A4    A(1,3,7)              110.9258         -DE/DX =    0.0                 !
 ! A5    A(1,3,8)              107.2199         -DE/DX =    0.0                 !
 ! A6    A(6,3,7)              108.8952         -DE/DX =    0.0                 !
 ! A7    A(6,3,8)              109.189          -DE/DX =    0.0                 !
 ! A8    A(7,3,8)              109.686          -DE/DX =    0.0                 !
 ! A9    A(1,4,5)              121.0364         -DE/DX =    0.0                 !
 ! A10   A(1,4,9)              116.3376         -DE/DX =    0.0                 !
 ! A11   A(5,4,9)              122.579          -DE/DX =    0.0                 !
 ! A12   A(2,5,4)              125.9188         -DE/DX =    0.0                 !
 ! A13   A(2,5,10)             112.8087         -DE/DX =    0.0                 !
 ! A14   A(4,5,10)             121.2577         -DE/DX =    0.0                 !
 ! D1    D(4,1,3,6)            -57.8078         -DE/DX =    0.0                 !
 ! D2    D(4,1,3,7)             63.3296         -DE/DX =    0.0                 !
 ! D3    D(4,1,3,8)           -176.9287         -DE/DX =    0.0                 !
 ! D4    D(3,1,4,5)           -130.3381         -DE/DX =    0.0                 !
 ! D5    D(3,1,4,9)             52.0914         -DE/DX =    0.0                 !
 ! D6    D(11,2,5,4)             0.0008         -DE/DX =    0.0                 !
 ! D7    D(11,2,5,10)         -178.6066         -DE/DX =    0.0                 !
 ! D8    D(1,4,5,2)           -175.3964         -DE/DX =    0.0                 !
 ! D9    D(1,4,5,10)             3.102          -DE/DX =    0.0                 !
 ! D10   D(9,4,5,2)              2.0197         -DE/DX =    0.0                 !
 ! D11   D(9,4,5,10)          -179.482          -DE/DX =    0.0                 !
 --------------------------------------------------------------------------------
 GradGradGradGradGradGradGradGradGradGradGradGradGradGradGradGradGradGrad

 Leave Link  103 at Tue Sep 24 19:25:13 2019, MaxMem=   671088640 cpu:             117.4 elap:              59.9
 (Enter /shared/centos7/gaussian/g16/l9999.exe)

 ----------------------------------------------------------------------

 Electric dipole moment (input orientation):
 (Debye = 10**-18 statcoulomb cm , SI units = C m)
                  (au)            (Debye)         (10**-30 SI)
   Tot        0.850860D+00      0.216267D+01      0.721389D+01
   x         -0.740560D+00     -0.188232D+01     -0.627873D+01
   y          0.298705D+00      0.759232D+00      0.253252D+01
   z         -0.293783D+00     -0.746722D+00     -0.249080D+01

 Dipole polarizability, Alpha (input orientation).
 (esu units = cm**3 , SI units = C**2 m**2 J**-1)
 Alpha(0;0):
               (au)            (10**-24 esu)      (10**-40 SI)
   iso        0.451720D+02      0.669379D+01      0.744785D+01
   aniso      0.264873D+02      0.392502D+01      0.436717D+01
   xx         0.570382D+02      0.845219D+01      0.940433D+01
   yx         0.856407D+01      0.126906D+01      0.141202D+01
   yy         0.462004D+02      0.684620D+01      0.761742D+01
   zx        -0.238382D+01     -0.353246D+00     -0.393039D+00
   zy        -0.873787D+00     -0.129482D+00     -0.144068D+00
   zz         0.322772D+02      0.478299D+01      0.532179D+01

 ----------------------------------------------------------------------

 Dipole orientation:
     8         -2.70542650         -0.13931179         -1.40495779
     8          1.86731359         -4.90954175         -3.23322487
     6         -2.57847482          1.41410601          0.76251523
     6         -1.17488116         -2.21565925         -1.25084361
     6          0.38910311         -2.80748109         -3.11395580
     1         -3.08083810          0.34969010          2.46348054
     1         -0.68173658          2.19681353          0.99908882
     1         -3.92809553          2.93916343          0.49739817
     1         -1.37676371         -3.37576965          0.43763311
     1          0.56884766         -1.61873780         -4.76434229
     1          1.61001568         -5.92174780         -1.74601890

 Electric dipole moment (dipole orientation):
 (Debye = 10**-18 statcoulomb cm , SI units = C m)
                  (au)            (Debye)         (10**-30 SI)
   Tot        0.850860D+00      0.216267D+01      0.721389D+01
   x          0.000000D+00      0.000000D+00      0.000000D+00
   y          0.000000D+00      0.000000D+00      0.000000D+00
   z          0.850860D+00      0.216267D+01      0.721389D+01

 Dipole polarizability, Alpha (dipole orientation).
 (esu units = cm**3 , SI units = C**2 m**2 J**-1)
 Alpha(0;0):
               (au)            (10**-24 esu)      (10**-40 SI)
   iso        0.451720D+02      0.669379D+01      0.744785D+01
   aniso      0.264873D+02      0.392502D+01      0.436717D+01
   xx         0.415797D+02      0.616148D+01      0.685557D+01
   yx        -0.989712D+01     -0.146660D+01     -0.163181D+01
   yy         0.476400D+02      0.705952D+01      0.785478D+01
   zx        -0.979552D+01     -0.145155D+01     -0.161506D+01
   zy         0.546123D+01      0.809271D+00      0.900436D+00
   zz         0.462961D+02      0.686038D+01      0.763320D+01

 ----------------------------------------------------------------------

 Test job not archived.
 1\1\GINC-C0207\Freq\RM062X\CC-pVTZ\C3H6O2\HARMS.N\24-Sep-2019\0\\#P Ge
 om=AllCheck Guess=TCheck SCRF=Check Test GenChk RM062X/CC-pVTZ Freq\\G
 aussian input prepared by ASE\\0,1\O,0.0383630472,-0.5192087713,1.5286
 455463\O,2.5109502072,1.983792432,0.6427741428\C,-1.1172863299,-0.8480
 141865,0.7855638582\C,0.5707924498,0.6914766641,1.1812825196\C,1.86161
 53019,0.8178245002,0.9113053311\H,-1.8889224151,-0.0807365085,0.903893
 9259\H,-0.8818106034,-0.9523378142,-0.2766646383\H,-1.4905011115,-1.79
 25714891,1.1722940385\H,-0.1141210522,1.5385498149,1.1812770538\H,2.52
 04256831,-0.0385970514,0.9092282436\H,1.8881491116,2.7157169045,0.6775
 897759\\Version=EM64L-G16RevA.03\State=1-A\HF=-268.3171465\RMSD=1.876e
 -09\RMSF=2.020e-06\ZeroPoint=0.0903549\Thermal=0.0964586\Dipole=-0.740
 5603,0.2987048,-0.2937829\DipoleDeriv=-1.0573306,-0.3568608,-0.0751141
 ,-0.6881578,-0.9273711,0.0572244,0.0127331,0.0632719,-0.4410539,-0.653
 5928,-0.3400966,0.0526921,-0.8429753,-1.0162019,0.1818701,0.1482792,0.
 1317457,-0.3911058,0.8183996,0.2145749,0.1351988,0.0685755,0.3470946,0
 .0797933,0.2643417,0.1734669,0.4395251,0.2094803,0.0067161,-0.1277339,
 0.5990107,0.722616,-0.1334282,-0.2829418,-0.1999518,-0.1412443,0.57729
 95,0.3022205,-0.1153791,0.6883497,0.786245,-0.2368302,-0.2106744,-0.15
 97607,-0.0278573,-0.0917929,0.0324045,-0.0103884,0.1462644,-0.070413,-
 0.0202428,-0.0020618,-0.0636316,0.0270189,-0.0205781,-0.0138756,0.0822
 45,0.0091636,0.0470081,-0.0018004,-0.0561296,-0.0774068,-0.1442384,0.0
 01515,-0.0600141,-0.0045317,-0.0975027,-0.0757229,0.0396006,0.0138999,
 0.0638909,0.041452,-0.000895,0.0935087,0.0221338,0.0127581,-0.114483,0
 .0193952,0.0786434,0.0568551,0.1510017,0.0572858,0.0374176,0.0183595,0
 .0187593,-0.0159315,0.0199623,0.0131907,0.0243457,0.1657771,0.1602092,
 0.0840048,0.022518,0.0857546,0.3171595,-0.0055442,0.0207195,-0.0128251
 ,0.3207248\Polar=57.0382216,8.564069,46.2004323,-2.3838226,-0.8737867,
 32.2771977\Quadrupole=-0.4896872,2.8141027,-2.3244154,-0.7796046,0.802
 951,0.8286452\PG=C01 [X(C3H6O2)]\NImag=0\\0.37668703,0.16381861,0.3981
 8689,0.10245385,-0.06505329,0.20155210,-0.01105121,-0.00687073,0.00404
 008,0.42637263,-0.01218115,-0.01095197,0.00540836,-0.11046675,0.623376
 29,0.00393689,0.00064746,0.01361204,-0.06555142,-0.04942230,0.04801309
 ,-0.18532207,-0.03836723,-0.07581387,0.00383597,0.00676481,0.00023940,
 0.51268459,-0.01487005,-0.08555604,0.00128417,-0.00021423,0.00017548,0
 .00251215,0.00050500,0.61088186,-0.09425531,-0.01897351,-0.12314010,0.
 00306052,0.00268748,-0.00088770,-0.04625558,-0.03053917,0.55401360,-0.
 12160298,-0.06351345,0.00701507,-0.01369808,-0.01392150,0.00706235,-0.
 02914178,-0.04231873,0.00900712,0.89333045,-0.08754768,-0.26457546,0.0
 5647385,-0.04357224,-0.00524782,0.01051619,-0.02327126,-0.02446028,-0.
 00340974,0.00479625,0.60284421,0.02630168,0.07995189,-0.06920630,0.007
 72053,0.00150470,0.00125369,-0.00503751,-0.01761739,0.00418191,-0.1259
 6874,-0.07577026,0.16131674,-0.01148246,-0.01212957,0.00519852,-0.1632
 9619,-0.11512764,0.03645806,-0.00010070,0.00189309,0.00006889,-0.54885
 644,-0.01313270,0.09670754,0.89851635,-0.04231152,-0.00492183,0.006829
 66,-0.06806864,-0.27286931,0.04157104,-0.00309181,-0.00221872,0.003847
 00,-0.01335504,-0.12307078,0.01460450,-0.02642655,0.66632881,0.0135701
 5,0.00809824,-0.00449161,0.03313507,0.05094795,-0.05057449,-0.00276708
 ,-0.00198074,0.00004869,0.09233600,0.01033427,-0.07063829,-0.14187474,
 -0.06735119,0.16039158,-0.03611816,0.01154385,-0.00834998,-0.00041980,
 -0.00056638,-0.00004153,-0.16272811,0.12009337,0.02549797,0.00222997,0
 .00708979,-0.00106758,-0.00006659,-0.00091199,0.00039503,0.19103500,-0
 .00770829,0.00900763,0.00257550,0.00014837,0.00020991,-0.00027557,0.12
 464416,-0.18586663,-0.02443033,-0.00221009,0.00392314,-0.00017069,-0.0
 0012618,-0.00014425,0.00014767,-0.13617971,0.19197108,-0.02363823,0.01
 215760,0.00079422,-0.00020803,-0.00021274,-0.00006488,0.02724575,-0.02
 734441,-0.05676672,0.00120557,0.00274999,-0.00047660,-0.00008821,-0.00
 030185,-0.00002383,-0.01775018,0.02720961,0.05655816,-0.00355249,-0.00
 979587,-0.03932403,-0.00005296,-0.00012719,0.00009835,-0.06812044,0.00
 631001,0.07094402,0.00414492,0.00428701,-0.00251821,-0.00064756,0.0004
 8647,0.00097849,-0.00372940,0.00105025,0.02125700,0.07400248,-0.004533
 39,-0.00015466,-0.00998535,0.00027567,0.00042885,0.00007011,0.00623186
 ,-0.05608520,-0.01914139,0.00245751,0.00188787,-0.00198730,-0.00077345
 ,-0.00015584,0.00053574,0.00720966,-0.00154231,-0.02310378,-0.00427826
 ,0.05108575,-0.01150195,-0.00642958,-0.02144759,-0.00083821,-0.0012757
 0,0.00000047,0.06482624,-0.02142992,-0.28613121,0.00124827,0.00375238,
 0.00098818,0.00004924,-0.00012365,0.00040610,0.00251765,0.00041098,-0.
 00253396,-0.06023528,0.02680247,0.31784589,-0.01788684,-0.03189060,0.0
 0682530,-0.00080200,-0.00079071,0.00076661,-0.07495411,-0.06867758,0.0
 3130079,-0.00442701,0.00109144,-0.00304306,0.00076681,-0.00100996,-0.0
 0042705,0.00948654,0.01887708,-0.00859124,-0.00157271,-0.00688216,0.00
 393682,0.08934294,-0.00582139,-0.00706459,0.00044373,-0.00041041,-0.00
 061532,0.00029630,-0.07786267,-0.25860298,0.08779943,-0.00169219,0.001
 70552,-0.00132235,0.00035053,0.00015768,-0.00038789,-0.00685129,-0.017
 85365,0.00918705,0.00247881,0.00491257,-0.00127016,0.08967004,0.276943
 67,-0.01106677,-0.02137151,0.00627573,-0.00028233,-0.00005861,0.000320
 29,0.03795293,0.09635536,-0.09152710,-0.00293960,-0.00061473,-0.000542
 93,-0.00042029,-0.00091978,0.00028638,-0.00144149,-0.00551474,0.002280
 92,0.00876358,0.02714202,-0.00887011,-0.03061838,-0.09488939,0.0920932
 5,0.00917843,-0.01334389,-0.00045335,0.00248177,0.00098771,-0.00134079
 ,0.00426847,-0.00215260,0.00078132,-0.17234590,0.12978049,0.00631807,-
 0.01253351,0.02578346,0.00032502,0.00010271,0.00155290,0.00048106,-0.0
 0045867,0.00027210,0.00000631,0.00012079,0.00014938,0.00010586,0.17425
 548,0.00906237,-0.03651588,0.00329771,0.00012147,0.00372757,-0.0010481
 0,0.00551437,0.00165650,0.00287473,0.13117441,-0.20137709,0.00009824,-
 0.00348617,0.00226754,0.00115351,-0.00149344,0.00050421,-0.00035220,-0
 .00045659,-0.00031693,-0.00055681,-0.00055727,0.00031188,-0.00019047,-
 0.14048016,0.22956031,-0.00470024,0.01250883,0.00325809,-0.00102692,0.
 00011114,-0.00497528,-0.00031452,-0.00070911,-0.00013243,0.00643258,-0
 .00107749,-0.03607868,0.00504397,-0.00558438,0.00663149,0.00033239,-0.
 00021197,0.00018965,0.00027259,-0.00018338,-0.00020811,0.00006951,0.00
 015059,-0.00015920,-0.00866906,-0.00662875,0.02369192,0.00283592,0.000
 08095,-0.00195548,0.01345568,-0.01754541,0.00013616,-0.00057723,-0.000
 28930,-0.00001300,-0.01142146,0.02559963,0.00022283,-0.17601173,0.1476
 3937,0.00499735,0.00028156,-0.00000451,0.00006361,-0.00003411,-0.00000
 287,0.00004658,-0.00002412,-0.00002535,-0.00005178,-0.00424860,-0.0010
 2532,0.00248564,0.17617748,0.00025273,0.00069817,-0.00096490,0.0143467
 9,-0.03012311,0.00147931,-0.00019487,0.00005389,-0.00012404,-0.0018595
 1,0.00513996,0.00121355,0.14196104,-0.22586065,-0.00112346,-0.00000997
 ,-0.00012855,-0.00002997,0.00000787,-0.00000087,-0.00001185,-0.0000043
 9,0.00000082,0.00001521,-0.00123292,0.00034531,0.00139445,-0.15009863,
 0.25254779,-0.00083475,-0.00159561,-0.00597326,-0.00413294,0.00655096,
 0.00161547,-0.00015744,-0.00034994,-0.00000536,0.00520845,-0.00320984,
 0.00920881,0.00461051,-0.00145024,-0.04161100,-0.00009979,0.00024117,0
 .00002747,-0.00025666,-0.00008610,0.00002436,-0.00014910,0.00002813,-0
 .00010277,0.00210553,0.00171277,0.00766964,-0.00711045,-0.00340109,0.0
 2653493,-0.00168516,0.00046795,0.00036388,-0.25682583,0.26297421,0.018
 23592,0.00015541,-0.00027897,-0.00013673,0.00178830,-0.00512072,0.0003
 6446,0.01371202,-0.01873379,-0.00066824,-0.00007371,-0.00004397,0.0000
 2290,0.00002094,0.00002333,-0.00005568,-0.00005029,0.00001454,-0.00000
 174,-0.00082098,0.00162633,0.00007406,-0.00043338,-0.00316814,0.000816
 64,0.24421268,0.00183978,0.00184775,-0.00030944,0.21471071,-0.30811056
 ,-0.00634659,-0.00087236,0.00002212,-0.00059047,0.00044236,0.00323073,
 -0.00050488,0.02699760,-0.03951264,-0.00037411,0.00007611,-0.00008057,
 0.00004070,0.00003749,-0.00005923,0.00013183,0.00017411,0.00010440,0.0
 0004663,-0.00131647,-0.00016341,0.00023006,-0.00432856,-0.00267277,0.0
 0155979,-0.23776078,0.34539418,-0.00026532,0.00005947,-0.00123333,0.02
 408365,-0.01624122,-0.00831269,0.00008168,-0.00018100,0.00034642,-0.00
 060707,0.00025536,-0.00000653,-0.00575349,0.00887889,-0.00042502,0.000
 00751,0.00001837,0.00001558,0.00002014,-0.00006303,-0.00007403,-0.0000
 7018,-0.00003546,-0.00005445,0.00034003,-0.00036063,0.00011291,0.00117
 854,0.00155280,0.00261172,-0.01901550,0.00611646,0.00701942\\0.0000013
 2,-0.00000120,-0.00000155,0.00000054,-0.00000064,-0.00000062,-0.000000
 84,0.00000126,-0.00000003,0.00000086,-0.00000146,0.00000045,0.00000008
 ,-0.00000083,-0.00000218,0.00000023,0.00000063,0.00000424,-0.00000350,
 0.00000379,-0.00000002,-0.00000024,0.00000004,-0.00000131,0.00000126,-
 0.00000066,0.00000445,-0.00000008,-0.00000112,-0.00000625,0.00000036,0
 .00000019,0.00000283\\\@


 ON A CLEAR DISK YOU CAN SEEK FOREVER.
 Job cpu time:       0 days  1 hours  7 minutes 48.2 seconds.
 Elapsed time:       0 days  0 hours 33 minutes 56.5 seconds.
 File lengths (MBytes):  RWF=   1312 Int=      0 D2E=      0 Chk=     32 Scr=     32
 Normal termination of Gaussian 16 at Tue Sep 24 19:25:14 2019.
