 Entering Gaussian System, Link 0=g16
 Input=loose/species/COC=CO/conformers/COC=CO_30.com
 Output=loose/species/COC=CO/conformers/COC=CO_30.log
 Initial command:
 /shared/centos7/gaussian/g16/l1.exe "/scratch/harms.n/gauss_scrdir/Gau-20436.inp" -scrdir="/scratch/harms.n/gauss_scrdir/"
 Entering Link 1 = /shared/centos7/gaussian/g16/l1.exe PID=     20437.
  
 Copyright (c) 1988,1990,1992,1993,1995,1998,2003,2009,2016,
            Gaussian, Inc.  All Rights Reserved.
  
 This is part of the Gaussian(R) 16 program.  It is based on
 the Gaussian(R) 09 system (copyright 2009, Gaussian, Inc.),
 the Gaussian(R) 03 system (copyright 2003, Gaussian, Inc.),
 the Gaussian(R) 98 system (copyright 1998, Gaussian, Inc.),
 the Gaussian(R) 94 system (copyright 1995, Gaussian, Inc.),
 the Gaussian 92(TM) system (copyright 1992, Gaussian, Inc.),
 the Gaussian 90(TM) system (copyright 1990, Gaussian, Inc.),
 the Gaussian 88(TM) system (copyright 1988, Gaussian, Inc.),
 the Gaussian 86(TM) system (copyright 1986, Carnegie Mellon
 University), and the Gaussian 82(TM) system (copyright 1983,
 Carnegie Mellon University). Gaussian is a federally registered
 trademark of Gaussian, Inc.
  
 This software contains proprietary and confidential information,
 including trade secrets, belonging to Gaussian, Inc.
  
 This software is provided under written license and may be
 used, copied, transmitted, or stored only in accord with that
 written license.
  
 The following legend is applicable only to US Government
 contracts under FAR:
  
                    RESTRICTED RIGHTS LEGEND
  
 Use, reproduction and disclosure by the US Government is
 subject to restrictions as set forth in subparagraphs (a)
 and (c) of the Commercial Computer Software - Restricted
 Rights clause in FAR 52.227-19.
  
 Gaussian, Inc.
 340 Quinnipiac St., Bldg. 40, Wallingford CT 06492
  
  
 ---------------------------------------------------------------
 Warning -- This program may not be used in any manner that
 competes with the business of Gaussian, Inc. or will provide
 assistance to any competitor of Gaussian, Inc.  The licensee
 of this program is prohibited from giving any competitor of
 Gaussian, Inc. access to this program.  By using this program,
 the user acknowledges that Gaussian, Inc. is engaged in the
 business of creating and licensing software in the field of
 computational chemistry and represents and warrants to the
 licensee that it is not a competitor of Gaussian, Inc. and that
 it will not use this program in any manner prohibited above.
 ---------------------------------------------------------------
  

 Cite this work as:
 Gaussian 16, Revision A.03,
 M. J. Frisch, G. W. Trucks, H. B. Schlegel, G. E. Scuseria, 
 M. A. Robb, J. R. Cheeseman, G. Scalmani, V. Barone, 
 G. A. Petersson, H. Nakatsuji, X. Li, M. Caricato, A. V. Marenich, 
 J. Bloino, B. G. Janesko, R. Gomperts, B. Mennucci, H. P. Hratchian, 
 J. V. Ortiz, A. F. Izmaylov, J. L. Sonnenberg, D. Williams-Young, 
 F. Ding, F. Lipparini, F. Egidi, J. Goings, B. Peng, A. Petrone, 
 T. Henderson, D. Ranasinghe, V. G. Zakrzewski, J. Gao, N. Rega, 
 G. Zheng, W. Liang, M. Hada, M. Ehara, K. Toyota, R. Fukuda, 
 J. Hasegawa, M. Ishida, T. Nakajima, Y. Honda, O. Kitao, H. Nakai, 
 T. Vreven, K. Throssell, J. A. Montgomery, Jr., J. E. Peralta, 
 F. Ogliaro, M. J. Bearpark, J. J. Heyd, E. N. Brothers, K. N. Kudin, 
 V. N. Staroverov, T. A. Keith, R. Kobayashi, J. Normand, 
 K. Raghavachari, A. P. Rendell, J. C. Burant, S. S. Iyengar, 
 J. Tomasi, M. Cossi, J. M. Millam, M. Klene, C. Adamo, R. Cammi, 
 J. W. Ochterski, R. L. Martin, K. Morokuma, O. Farkas, 
 J. B. Foresman, and D. J. Fox, Gaussian, Inc., Wallingford CT, 2016.
 
 ******************************************
 Gaussian 16:  EM64L-G16RevA.03 25-Dec-2016
                24-Sep-2019 
 ******************************************
 %nprocshared=20
 Will use up to   20 processors via shared memory.
 %mem=5GB
 ----------------------------------------------------------------------
 #p m062x/cc-pVTZ opt=(calcfc,maxcycles=900,Tight) freq IOP(7/33=1,2/16
 =3) scf=(maxcycle=900)
 ----------------------------------------------------------------------
 1/6=900,7=10,10=4,18=20,19=15,26=3,38=1/1,3;
 2/9=110,12=2,16=3,17=6,18=5,40=1/2;
 3/5=16,6=1,11=2,25=1,30=1,71=2,74=-55,140=1/1,2,3;
 4//1;
 5/5=2,7=900,38=5/2;
 8/6=4,10=90,11=11/1;
 11/6=1,8=1,9=11,15=111,16=1/1,2,10;
 10/6=1,13=1/2;
 6/7=2,8=2,9=2,10=2,28=1/1;
 7/10=1,18=20,25=1,33=1/1,2,3,16;
 1/6=900,7=10,10=4,18=20,19=15,26=3/3(2);
 2/9=110,16=3/2;
 99//99;
 2/9=110,16=3/2;
 3/5=16,6=1,11=2,25=1,30=1,71=1,74=-55/1,2,3;
 4/5=5,16=3,69=1/1;
 5/5=2,7=900,38=5/2;
 7/33=1/1,2,3,16;
 1/6=900,7=10,18=20,19=15,26=3/3(-5);
 2/9=110,16=3/2;
 6/7=2,8=2,9=2,10=2,19=2,28=1/1;
 99/9=1/99;
 Leave Link    1 at Tue Sep 24 17:45:24 2019, MaxMem=   671088640 cpu:               4.5 elap:               2.3
 (Enter /shared/centos7/gaussian/g16/l101.exe)
 ------------------------------
 Gaussian input prepared by ASE
 ------------------------------
 Symbolic Z-matrix:
 Charge =  0 Multiplicity = 1
 O                     0.19616  -0.77601   1.14009 
 O                     0.07653   0.7147   -1.40287 
 C                    -1.20765  -0.88644   0.89417 
 C                     0.66138   0.51325   0.91432 
 C                     0.63836   1.15965  -0.227 
 H                    -1.49518  -1.95208   1.12695 
 H                    -1.79089  -0.19288   1.56461 
 H                    -1.45545  -0.66868  -0.1449 
 H                     1.14767   0.95748   1.7807 
 H                     1.02639   2.15167  -0.31753 
 H                     0.00481  -0.29733  -1.33461 
 
 ITRead=  0  0  0  0  0  0  0  0  0  0  0
 MicOpt= -1 -1 -1 -1 -1 -1 -1 -1 -1 -1 -1
 NAtoms=     11 NQM=       11 NQMF=       0 NMMI=      0 NMMIF=      0
                NMic=       0 NMicF=      0.
                    Isotopes and Nuclear Properties:
 (Nuclear quadrupole moments (NQMom) in fm**2, nuclear magnetic moments (NMagM)
  in nuclear magnetons)

  Atom         1           2           3           4           5           6           7           8           9          10
 IAtWgt=          16          16          12          12          12           1           1           1           1           1
 AtmWgt=  15.9949146  15.9949146  12.0000000  12.0000000  12.0000000   1.0078250   1.0078250   1.0078250   1.0078250   1.0078250
 NucSpn=           0           0           0           0           0           1           1           1           1           1
 AtZEff=  -0.0000000  -0.0000000  -0.0000000  -0.0000000  -0.0000000  -0.0000000  -0.0000000  -0.0000000  -0.0000000  -0.0000000
 NQMom=    0.0000000   0.0000000   0.0000000   0.0000000   0.0000000   0.0000000   0.0000000   0.0000000   0.0000000   0.0000000
 NMagM=    0.0000000   0.0000000   0.0000000   0.0000000   0.0000000   2.7928460   2.7928460   2.7928460   2.7928460   2.7928460
 AtZNuc=   8.0000000   8.0000000   6.0000000   6.0000000   6.0000000   1.0000000   1.0000000   1.0000000   1.0000000   1.0000000

  Atom        11
 IAtWgt=           1
 AtmWgt=   1.0078250
 NucSpn=           1
 AtZEff=  -0.0000000
 NQMom=    0.0000000
 NMagM=    2.7928460
 AtZNuc=   1.0000000
 Leave Link  101 at Tue Sep 24 17:45:25 2019, MaxMem=   671088640 cpu:               2.1 elap:               1.1
 (Enter /shared/centos7/gaussian/g16/l103.exe)

 GradGradGradGradGradGradGradGradGradGradGradGradGradGradGradGradGradGrad
 Berny optimization.
 Initialization pass.
                           ----------------------------
                           !    Initial Parameters    !
                           ! (Angstroms and Degrees)  !
 --------------------------                            --------------------------
 ! Name  Definition              Value          Derivative Info.                !
 --------------------------------------------------------------------------------
 ! R1    R(1,3)                  1.4295         calculate D2E/DX2 analytically  !
 ! R2    R(1,4)                  1.3891         calculate D2E/DX2 analytically  !
 ! R3    R(2,5)                  1.3771         calculate D2E/DX2 analytically  !
 ! R4    R(2,11)                 1.0169         calculate D2E/DX2 analytically  !
 ! R5    R(3,6)                  1.128          calculate D2E/DX2 analytically  !
 ! R6    R(3,7)                  1.1272         calculate D2E/DX2 analytically  !
 ! R7    R(3,8)                  1.0902         calculate D2E/DX2 analytically  !
 ! R8    R(4,5)                  1.3119         calculate D2E/DX2 analytically  !
 ! R9    R(4,9)                  1.0883         calculate D2E/DX2 analytically  !
 ! R10   R(5,10)                 1.0691         calculate D2E/DX2 analytically  !
 ! A1    A(3,1,4)              111.8786         calculate D2E/DX2 analytically  !
 ! A2    A(5,2,11)             107.0395         calculate D2E/DX2 analytically  !
 ! A3    A(1,3,6)              106.7268         calculate D2E/DX2 analytically  !
 ! A4    A(1,3,7)              110.9938         calculate D2E/DX2 analytically  !
 ! A5    A(1,3,8)              111.8244         calculate D2E/DX2 analytically  !
 ! A6    A(6,3,7)              109.0643         calculate D2E/DX2 analytically  !
 ! A7    A(6,3,8)              109.1136         calculate D2E/DX2 analytically  !
 ! A8    A(7,3,8)              109.0482         calculate D2E/DX2 analytically  !
 ! A9    A(1,4,5)              126.3592         calculate D2E/DX2 analytically  !
 ! A10   A(1,4,9)              113.5226         calculate D2E/DX2 analytically  !
 ! A11   A(5,4,9)              119.9534         calculate D2E/DX2 analytically  !
 ! A12   A(2,5,4)              126.2171         calculate D2E/DX2 analytically  !
 ! A13   A(2,5,10)             112.0612         calculate D2E/DX2 analytically  !
 ! A14   A(4,5,10)             121.6375         calculate D2E/DX2 analytically  !
 ! D1    D(4,1,3,6)           -178.6181         calculate D2E/DX2 analytically  !
 ! D2    D(4,1,3,7)            -59.8914         calculate D2E/DX2 analytically  !
 ! D3    D(4,1,3,8)             62.1296         calculate D2E/DX2 analytically  !
 ! D4    D(3,1,4,5)            -62.0941         calculate D2E/DX2 analytically  !
 ! D5    D(3,1,4,9)            122.6122         calculate D2E/DX2 analytically  !
 ! D6    D(11,2,5,4)           -20.8837         calculate D2E/DX2 analytically  !
 ! D7    D(11,2,5,10)          162.4299         calculate D2E/DX2 analytically  !
 ! D8    D(1,4,5,2)              4.1378         calculate D2E/DX2 analytically  !
 ! D9    D(1,4,5,10)          -179.4696         calculate D2E/DX2 analytically  !
 ! D10   D(9,4,5,2)            179.1567         calculate D2E/DX2 analytically  !
 ! D11   D(9,4,5,10)            -4.4508         calculate D2E/DX2 analytically  !
 --------------------------------------------------------------------------------
 Trust Radius=3.00D-01 FncErr=1.00D-07 GrdErr=1.00D-06 EigMax=2.50D+02 EigMin=1.00D-04
 Number of steps in this run=    100 maximum allowed number of steps=    100.
 GradGradGradGradGradGradGradGradGradGradGradGradGradGradGradGradGradGrad

 Leave Link  103 at Tue Sep 24 17:45:26 2019, MaxMem=   671088640 cpu:               1.4 elap:               0.7
 (Enter /shared/centos7/gaussian/g16/l202.exe)
                          Input orientation:                          
 ---------------------------------------------------------------------
 Center     Atomic      Atomic             Coordinates (Angstroms)
 Number     Number       Type             X           Y           Z
 ---------------------------------------------------------------------
      1          8           0        0.196162   -0.776010    1.140093
      2          8           0        0.076531    0.714703   -1.402869
      3          6           0       -1.207652   -0.886444    0.894174
      4          6           0        0.661382    0.513246    0.914324
      5          6           0        0.638359    1.159645   -0.226995
      6          1           0       -1.495184   -1.952076    1.126945
      7          1           0       -1.790895   -0.192876    1.564609
      8          1           0       -1.455452   -0.668681   -0.144895
      9          1           0        1.147671    0.957483    1.780699
     10          1           0        1.026386    2.151669   -0.317534
     11          1           0        0.004807   -0.297330   -1.334609
 ---------------------------------------------------------------------
                    Distance matrix (angstroms):
                    1          2          3          4          5
     1  O    0.000000
     2  O    2.950118   0.000000
     3  C    1.429464   3.080455   0.000000
     4  C    1.389094   2.398336   2.335128   0.000000
     5  C    2.410650   1.377063   2.975106   1.311858   0.000000
     6  H    2.060087   3.997744   1.128020   3.282347   4.008488
     7  H    2.113919   3.621727   1.127250   2.633465   3.307633
     8  H    2.095363   2.417275   1.090179   2.645729   2.780928
     9  H    2.078639   3.367697   3.119862   1.088314   2.081130
    10  H    3.374204   2.035939   3.960971   2.082098   1.069052
    11  H    2.527826   1.016866   2.604723   2.479078   1.936743
                    6          7          8          9         10
     6  H    0.000000
     7  H    1.836785   0.000000
     8  H    1.807280   1.805912   0.000000
     9  H    3.984672   3.163098   3.623337   0.000000
    10  H    5.028475   4.120245   3.760811   2.417306   0.000000
    11  H    3.323764   3.411879   1.919811   3.547652   2.841771
                   11
    11  H    0.000000
 Stoichiometry    C3H6O2
 Framework group  C1[X(C3H6O2)]
 Deg. of freedom    27
 Full point group                 C1      NOp   1
 Largest Abelian subgroup         C1      NOp   1
 Largest concise Abelian subgroup C1      NOp   1
                         Standard orientation:                         
 ---------------------------------------------------------------------
 Center     Atomic      Atomic             Coordinates (Angstroms)
 Number     Number       Type             X           Y           Z
 ---------------------------------------------------------------------
      1          8           0        1.079050    0.458831   -0.478324
      2          8           0       -1.511889   -0.902975   -0.109928
      3          6           0        1.532642   -0.657949    0.290066
      4          6           0       -0.079607    1.014083    0.049683
      5          6           0       -1.239797    0.415617    0.179181
      6          1           0        2.483153   -1.021995   -0.196175
      7          1           0        1.755675   -0.353466    1.352252
      8          1           0        0.802833   -1.467769    0.297861
      9          1           0        0.017935    2.069533    0.296541
     10          1           0       -2.088086    0.919859    0.590301
     11          1           0       -0.788224   -1.223513   -0.748348
 ---------------------------------------------------------------------
 Rotational constants (GHZ):           9.3868356           4.0305425           3.1021218
 Leave Link  202 at Tue Sep 24 17:45:28 2019, MaxMem=   671088640 cpu:               3.7 elap:               1.9
 (Enter /shared/centos7/gaussian/g16/l301.exe)
 Standard basis: CC-pVTZ (5D, 7F)
 Ernie: Thresh=  0.10000D-02 Tol=  0.10000D-05 Strict=F.
 Ernie:  15 primitive shells out of 178 were deleted.
 There are   265 symmetry adapted cartesian basis functions of A   symmetry.
 There are   234 symmetry adapted basis functions of A   symmetry.
   234 basis functions,   362 primitive gaussians,   265 cartesian basis functions
    20 alpha electrons       20 beta electrons
       nuclear repulsion energy       179.5051776302 Hartrees.
 IExCor= 4336 DFT=T Ex+Corr=M062X ExCW=0 ScaHFX=  0.540000
 ScaDFX=  1.000000  1.000000  1.000000  1.000000 ScalE2=  1.000000  1.000000
 IRadAn=      5 IRanWt=     -1 IRanGd=            0 ICorTp=0 IEmpDi=  4
 NAtoms=   11 NActive=   11 NUniq=   11 SFac= 1.00D+00 NAtFMM=   60 NAOKFM=F Big=F
 Integral buffers will be    131072 words long.
 Raffenetti 2 integral format.
 Two-electron integral symmetry is turned on.
 Leave Link  301 at Tue Sep 24 17:45:29 2019, MaxMem=   671088640 cpu:               1.8 elap:               0.9
 (Enter /shared/centos7/gaussian/g16/l302.exe)
 NPDir=0 NMtPBC=     1 NCelOv=     1 NCel=       1 NClECP=     1 NCelD=      1
         NCelK=      1 NCelE2=     1 NClLst=     1 CellRange=     0.0.
 One-electron integrals computed using PRISM.
 One-electron integral symmetry used in STVInt
 NBasis=   234 RedAO= T EigKep=  3.76D-04  NBF=   234
 NBsUse=   234 1.00D-06 EigRej= -1.00D+00 NBFU=   234
 Precomputing XC quadrature grid using
 IXCGrd= 4 IRadAn=           5 IRanWt=          -1 IRanGd=           0 AccXCQ= 0.00D+00.
 Generated NRdTot=       0 NPtTot=           0 NUsed=           0 NTot=          32
 NSgBfM=   265   265   265   265   265 MxSgAt=    11 MxSgA2=    11.
 Leave Link  302 at Tue Sep 24 17:46:18 2019, MaxMem=   671088640 cpu:              97.2 elap:              48.6
 (Enter /shared/centos7/gaussian/g16/l303.exe)
 DipDrv:  MaxL=1.
 Leave Link  303 at Tue Sep 24 17:46:22 2019, MaxMem=   671088640 cpu:               9.5 elap:               4.7
 (Enter /shared/centos7/gaussian/g16/l401.exe)
 ExpMin= 1.03D-01 ExpMax= 1.53D+04 ExpMxC= 5.22D+02 IAcc=3 IRadAn=         5 AccDes= 0.00D+00
 Harris functional with IExCor= 1009 and IRadAn=       5 diagonalized for initial guess.
 HarFok:  IExCor= 1009 AccDes= 0.00D+00 IRadAn=         5 IDoV= 1 UseB2=F ITyADJ=14
 ICtDFT=  3500011 ScaDFX=  1.000000  1.000000  1.000000  1.000000
 FoFCou: FMM=F IPFlag=           0 FMFlag=      100000 FMFlg1=           0
         NFxFlg=           0 DoJE=T BraDBF=F KetDBF=T FulRan=T
         wScrn=  0.000000 ICntrl=       500 IOpCl=  0 I1Cent=   200000004 NGrid=           0
         NMat0=    1 NMatS0=      1 NMatT0=    0 NMatD0=    1 NMtDS0=    0 NMtDT0=    0
 Petite list used in FoFCou.
 Harris En= -268.195457448979    
 JPrj=0 DoOrth=F DoCkMO=F.
 Leave Link  401 at Tue Sep 24 17:46:45 2019, MaxMem=   671088640 cpu:              46.2 elap:              23.1
 (Enter /shared/centos7/gaussian/g16/l502.exe)
 Keep R1 ints in memory in canonical form, NReq=399924305.
 FoFCou: FMM=F IPFlag=           0 FMFlag=           0 FMFlg1=           0
         NFxFlg=           0 DoJE=F BraDBF=F KetDBF=F FulRan=T
         wScrn=  0.000000 ICntrl=       600 IOpCl=  0 I1Cent=           0 NGrid=           0
         NMat0=    1 NMatS0=  27495 NMatT0=    0 NMatD0=    1 NMtDS0=    0 NMtDT0=    0
 Symmetry not used in FoFCou.
 Two-electron integral symmetry not used.
 Closed shell SCF:
 Using DIIS extrapolation, IDIIS=  1040.
 NGot=   671088640 LenX=   292939207 LenY=   292868541
 Requested convergence on RMS density matrix=1.00D-08 within 900 cycles.
 Requested convergence on MAX density matrix=1.00D-06.
 Requested convergence on             energy=1.00D-06.
 No special actions if energy rises.
 Integral accuracy reduced to 1.0D-05 until final iterations.

 Cycle   1  Pass 0  IDiag  1:
 E= -268.191733655852    
 DIIS: error= 1.68D-02 at cycle   1 NSaved=   1.
 NSaved= 1 IEnMin= 1 EnMin= -268.191733655852     IErMin= 1 ErrMin= 1.68D-02
 ErrMax= 1.68D-02  0.00D+00 EMaxC= 1.00D-01 BMatC= 1.68D-01 BMatP= 1.68D-01
 IDIUse=3 WtCom= 8.32D-01 WtEn= 1.68D-01
 Coeff-Com:  0.100D+01
 Coeff-En:   0.100D+01
 Coeff:      0.100D+01
 Gap=     0.365 Goal=   None    Shift=    0.000
 GapD=    0.365 DampG=1.000 DampE=0.500 DampFc=0.5000 IDamp=-1.
 Damping current iteration by 5.00D-01
 RMSDP=2.18D-03 MaxDP=8.53D-02              OVMax= 1.14D-01

 Cycle   2  Pass 0  IDiag  1:
 E= -268.255020379853     Delta-E=       -0.063286724001 Rises=F Damp=T
 DIIS: error= 4.61D-03 at cycle   2 NSaved=   2.
 NSaved= 2 IEnMin= 2 EnMin= -268.255020379853     IErMin= 2 ErrMin= 4.61D-03
 ErrMax= 4.61D-03  0.00D+00 EMaxC= 1.00D-01 BMatC= 1.65D-02 BMatP= 1.68D-01
 IDIUse=3 WtCom= 9.54D-01 WtEn= 4.61D-02
 Coeff-Com: -0.192D+00 0.119D+01
 Coeff-En:   0.000D+00 0.100D+01
 Coeff:     -0.183D+00 0.118D+01
 Gap=     0.347 Goal=   None    Shift=    0.000
 RMSDP=4.28D-04 MaxDP=9.32D-03 DE=-6.33D-02 OVMax= 5.03D-02

 Cycle   3  Pass 0  IDiag  1:
 E= -268.309583196377     Delta-E=       -0.054562816525 Rises=F Damp=F
 DIIS: error= 2.40D-03 at cycle   3 NSaved=   3.
 NSaved= 3 IEnMin= 3 EnMin= -268.309583196377     IErMin= 3 ErrMin= 2.40D-03
 ErrMax= 2.40D-03  0.00D+00 EMaxC= 1.00D-01 BMatC= 3.64D-03 BMatP= 1.65D-02
 IDIUse=3 WtCom= 9.76D-01 WtEn= 2.40D-02
 Coeff-Com: -0.122D+00 0.399D+00 0.723D+00
 Coeff-En:   0.000D+00 0.000D+00 0.100D+01
 Coeff:     -0.119D+00 0.390D+00 0.730D+00
 Gap=     0.348 Goal=   None    Shift=    0.000
 RMSDP=1.99D-04 MaxDP=6.28D-03 DE=-5.46D-02 OVMax= 1.29D-02

 Cycle   4  Pass 0  IDiag  1:
 E= -268.311413125489     Delta-E=       -0.001829929111 Rises=F Damp=F
 DIIS: error= 1.26D-03 at cycle   4 NSaved=   4.
 NSaved= 4 IEnMin= 4 EnMin= -268.311413125489     IErMin= 4 ErrMin= 1.26D-03
 ErrMax= 1.26D-03  0.00D+00 EMaxC= 1.00D-01 BMatC= 7.63D-04 BMatP= 3.64D-03
 IDIUse=3 WtCom= 9.87D-01 WtEn= 1.26D-02
 Coeff-Com: -0.380D-01 0.953D-01 0.362D+00 0.581D+00
 Coeff-En:   0.000D+00 0.000D+00 0.149D+00 0.851D+00
 Coeff:     -0.375D-01 0.941D-01 0.359D+00 0.585D+00
 Gap=     0.343 Goal=   None    Shift=    0.000
 RMSDP=6.69D-05 MaxDP=1.81D-03 DE=-1.83D-03 OVMax= 6.41D-03

 Cycle   5  Pass 0  IDiag  1:
 E= -268.311969866829     Delta-E=       -0.000556741340 Rises=F Damp=F
 DIIS: error= 2.19D-04 at cycle   5 NSaved=   5.
 NSaved= 5 IEnMin= 5 EnMin= -268.311969866829     IErMin= 5 ErrMin= 2.19D-04
 ErrMax= 2.19D-04  0.00D+00 EMaxC= 1.00D-01 BMatC= 2.04D-05 BMatP= 7.63D-04
 IDIUse=3 WtCom= 9.98D-01 WtEn= 2.19D-03
 Coeff-Com: -0.716D-02 0.138D-01 0.941D-01 0.224D+00 0.675D+00
 Coeff-En:   0.000D+00 0.000D+00 0.000D+00 0.000D+00 0.100D+01
 Coeff:     -0.714D-02 0.137D-01 0.939D-01 0.223D+00 0.676D+00
 Gap=     0.343 Goal=   None    Shift=    0.000
 RMSDP=1.42D-05 MaxDP=4.16D-04 DE=-5.57D-04 OVMax= 1.36D-03

 Cycle   6  Pass 0  IDiag  1:
 E= -268.311985933626     Delta-E=       -0.000016066797 Rises=F Damp=F
 DIIS: error= 3.93D-05 at cycle   6 NSaved=   6.
 NSaved= 6 IEnMin= 6 EnMin= -268.311985933626     IErMin= 6 ErrMin= 3.93D-05
 ErrMax= 3.93D-05  0.00D+00 EMaxC= 1.00D-01 BMatC= 9.46D-07 BMatP= 2.04D-05
 IDIUse=1 WtCom= 1.00D+00 WtEn= 0.00D+00
 Coeff-Com: -0.993D-03 0.115D-02 0.195D-01 0.625D-01 0.234D+00 0.684D+00
 Coeff:     -0.993D-03 0.115D-02 0.195D-01 0.625D-01 0.234D+00 0.684D+00
 Gap=     0.343 Goal=   None    Shift=    0.000
 RMSDP=4.05D-06 MaxDP=1.30D-04 DE=-1.61D-05 OVMax= 5.78D-04

 Initial convergence to 1.0D-05 achieved.  Increase integral accuracy.
 Cycle   7  Pass 1  IDiag  1:
 E= -268.312015949219     Delta-E=       -0.000030015594 Rises=F Damp=F
 DIIS: error= 2.26D-05 at cycle   1 NSaved=   1.
 NSaved= 1 IEnMin= 1 EnMin= -268.312015949219     IErMin= 1 ErrMin= 2.26D-05
 ErrMax= 2.26D-05  0.00D+00 EMaxC= 1.00D-01 BMatC= 4.17D-07 BMatP= 4.17D-07
 IDIUse=1 WtCom= 1.00D+00 WtEn= 0.00D+00
 Coeff-Com:  0.100D+01
 Coeff:      0.100D+01
 Gap=     0.343 Goal=   None    Shift=    0.000
 RMSDP=4.05D-06 MaxDP=1.30D-04 DE=-3.00D-05 OVMax= 4.59D-04

 Cycle   8  Pass 1  IDiag  1:
 E= -268.312015879893     Delta-E=        0.000000069326 Rises=F Damp=F
 DIIS: error= 2.85D-05 at cycle   2 NSaved=   2.
 NSaved= 2 IEnMin= 1 EnMin= -268.312015949219     IErMin= 1 ErrMin= 2.26D-05
 ErrMax= 2.85D-05  0.00D+00 EMaxC= 1.00D-01 BMatC= 4.95D-07 BMatP= 4.17D-07
 IDIUse=1 WtCom= 1.00D+00 WtEn= 0.00D+00
 Coeff-Com:  0.524D+00 0.476D+00
 Coeff:      0.524D+00 0.476D+00
 Gap=     0.343 Goal=   None    Shift=    0.000
 RMSDP=2.30D-06 MaxDP=7.02D-05 DE= 6.93D-08 OVMax= 3.21D-04

 Cycle   9  Pass 1  IDiag  1:
 E= -268.312016293143     Delta-E=       -0.000000413250 Rises=F Damp=F
 DIIS: error= 4.77D-06 at cycle   3 NSaved=   3.
 NSaved= 3 IEnMin= 3 EnMin= -268.312016293143     IErMin= 3 ErrMin= 4.77D-06
 ErrMax= 4.77D-06  0.00D+00 EMaxC= 1.00D-01 BMatC= 1.44D-08 BMatP= 4.17D-07
 IDIUse=1 WtCom= 1.00D+00 WtEn= 0.00D+00
 Coeff-Com: -0.288D-01 0.124D+00 0.905D+00
 Coeff:     -0.288D-01 0.124D+00 0.905D+00
 Gap=     0.343 Goal=   None    Shift=    0.000
 RMSDP=5.48D-07 MaxDP=1.68D-05 DE=-4.13D-07 OVMax= 3.45D-05

 Cycle  10  Pass 1  IDiag  1:
 E= -268.312016305226     Delta-E=       -0.000000012083 Rises=F Damp=F
 DIIS: error= 1.42D-06 at cycle   4 NSaved=   4.
 NSaved= 4 IEnMin= 4 EnMin= -268.312016305226     IErMin= 4 ErrMin= 1.42D-06
 ErrMax= 1.42D-06  0.00D+00 EMaxC= 1.00D-01 BMatC= 1.16D-09 BMatP= 1.44D-08
 IDIUse=1 WtCom= 1.00D+00 WtEn= 0.00D+00
 Coeff-Com: -0.256D-01 0.460D-01 0.399D+00 0.581D+00
 Coeff:     -0.256D-01 0.460D-01 0.399D+00 0.581D+00
 Gap=     0.343 Goal=   None    Shift=    0.000
 RMSDP=9.45D-08 MaxDP=3.16D-06 DE=-1.21D-08 OVMax= 7.94D-06

 Cycle  11  Pass 1  IDiag  1:
 E= -268.312016306156     Delta-E=       -0.000000000930 Rises=F Damp=F
 DIIS: error= 3.76D-07 at cycle   5 NSaved=   5.
 NSaved= 5 IEnMin= 5 EnMin= -268.312016306156     IErMin= 5 ErrMin= 3.76D-07
 ErrMax= 3.76D-07  0.00D+00 EMaxC= 1.00D-01 BMatC= 7.34D-11 BMatP= 1.16D-09
 IDIUse=1 WtCom= 1.00D+00 WtEn= 0.00D+00
 Coeff-Com: -0.822D-03-0.937D-02-0.642D-01 0.125D+00 0.950D+00
 Coeff:     -0.822D-03-0.937D-02-0.642D-01 0.125D+00 0.950D+00
 Gap=     0.343 Goal=   None    Shift=    0.000
 RMSDP=5.56D-08 MaxDP=1.14D-06 DE=-9.30D-10 OVMax= 5.51D-06

 Cycle  12  Pass 1  IDiag  1:
 E= -268.312016306261     Delta-E=       -0.000000000105 Rises=F Damp=F
 DIIS: error= 1.43D-07 at cycle   6 NSaved=   6.
 NSaved= 6 IEnMin= 6 EnMin= -268.312016306261     IErMin= 6 ErrMin= 1.43D-07
 ErrMax= 1.43D-07  0.00D+00 EMaxC= 1.00D-01 BMatC= 8.51D-12 BMatP= 7.34D-11
 IDIUse=1 WtCom= 1.00D+00 WtEn= 0.00D+00
 Coeff-Com:  0.189D-02-0.692D-02-0.567D-01-0.114D-01 0.328D+00 0.745D+00
 Coeff:      0.189D-02-0.692D-02-0.567D-01-0.114D-01 0.328D+00 0.745D+00
 Gap=     0.343 Goal=   None    Shift=    0.000
 RMSDP=1.69D-08 MaxDP=4.14D-07 DE=-1.05D-10 OVMax= 1.58D-06

 Cycle  13  Pass 1  IDiag  1:
 E= -268.312016306276     Delta-E=       -0.000000000015 Rises=F Damp=F
 DIIS: error= 4.03D-08 at cycle   7 NSaved=   7.
 NSaved= 7 IEnMin= 7 EnMin= -268.312016306276     IErMin= 7 ErrMin= 4.03D-08
 ErrMax= 4.03D-08  0.00D+00 EMaxC= 1.00D-01 BMatC= 1.01D-12 BMatP= 8.51D-12
 IDIUse=1 WtCom= 1.00D+00 WtEn= 0.00D+00
 Coeff-Com:  0.852D-03-0.201D-02-0.182D-01-0.178D-01 0.502D-01 0.292D+00
 Coeff-Com:  0.695D+00
 Coeff:      0.852D-03-0.201D-02-0.182D-01-0.178D-01 0.502D-01 0.292D+00
 Coeff:      0.695D+00
 Gap=     0.343 Goal=   None    Shift=    0.000
 RMSDP=4.55D-09 MaxDP=1.39D-07 DE=-1.47D-11 OVMax= 4.19D-07

 SCF Done:  E(RM062X) =  -268.312016306     A.U. after   13 cycles
            NFock= 13  Conv=0.45D-08     -V/T= 2.0061
 KE= 2.666863699937D+02 PE=-9.871972322571D+02 EE= 2.726936683269D+02
 Leave Link  502 at Tue Sep 24 17:51:19 2019, MaxMem=   671088640 cpu:             538.8 elap:             273.1
 (Enter /shared/centos7/gaussian/g16/l801.exe)
 DoSCS=F DFT=T ScalE2(SS,OS)=  1.000000  1.000000
 Range of M.O.s used for correlation:     1   234
 NBasis=   234 NAE=    20 NBE=    20 NFC=     0 NFV=     0
 NROrb=    234 NOA=    20 NOB=    20 NVA=   214 NVB=   214

 **** Warning!!: The largest alpha MO coefficient is  0.11513205D+02

 Leave Link  801 at Tue Sep 24 17:51:19 2019, MaxMem=   671088640 cpu:               1.7 elap:               0.8
 (Enter /shared/centos7/gaussian/g16/l1101.exe)
 Using compressed storage, NAtomX=    11.
 Will process     12 centers per pass.
 Leave Link 1101 at Tue Sep 24 17:51:43 2019, MaxMem=   671088640 cpu:              46.5 elap:              23.3
 (Enter /shared/centos7/gaussian/g16/l1102.exe)
 Symmetrizing basis deriv contribution to polar:
 IMax=3 JMax=2 DiffMx= 0.00D+00
 Leave Link 1102 at Tue Sep 24 17:51:45 2019, MaxMem=   671088640 cpu:               5.3 elap:               2.7
 (Enter /shared/centos7/gaussian/g16/l1110.exe)
 Forming Gx(P) for the SCF density, NAtomX=    11.
 Integral derivatives from FoFJK, PRISM(SPDF).
 Do as many integral derivatives as possible in FoFJK.
 G2DrvN: MDV=     671087712.
 G2DrvN: will do    12 centers at a time, making    1 passes.
 Calling FoFCou, ICntrl=  3107 FMM=F I1Cent=   0 AccDes= 0.00D+00.
 FoFJK:  IHMeth= 1 ICntrl=    3107 DoSepK=F KAlg= 0 I1Cent=           0 FoldK=F
 IRaf=         0 NMat=       1 IRICut=       1 DoRegI=T DoRafI=F ISym2E= 0 IDoP0=0 IntGTp=1.
 FoFCou: FMM=F IPFlag=           0 FMFlag=      100000 FMFlg1=           0
         NFxFlg=           0 DoJE=F BraDBF=F KetDBF=F FulRan=T
         wScrn=  0.000000 ICntrl=      3107 IOpCl=  0 I1Cent=           0 NGrid=           0
         NMat0=    1 NMatS0=      1 NMatT0=    0 NMatD0=    1 NMtDS0=    0 NMtDT0=    0
 Symmetry not used in FoFCou.
 End of G2Drv F.D. properties file   721 does not exist.
 End of G2Drv F.D. properties file   722 does not exist.
 End of G2Drv F.D. properties file   788 does not exist.
 Leave Link 1110 at Tue Sep 24 17:59:45 2019, MaxMem=   671088640 cpu:             958.9 elap:             479.5
 (Enter /shared/centos7/gaussian/g16/l1002.exe)
 Minotr:  Closed shell wavefunction.
          IDoAtm=11111111111
          Direct CPHF calculation.
          Differentiating once with respect to nuclear coordinates.
          Requested convergence is 1.0D-08 RMS, and 1.0D-07 maximum.
          Secondary convergence is 1.0D-12 RMS, and 1.0D-12 maximum.
          NewPWx=T KeepS1=F KeepF1=F KeepIn=T MapXYZ=F SortEE=F KeepMc=T.
         3265 words used for storage of precomputed grid.
 Keep R1 ints in memory in canonical form, NReq=399865264.
 FoFCou: FMM=F IPFlag=           0 FMFlag=           0 FMFlg1=           0
         NFxFlg=           0 DoJE=F BraDBF=F KetDBF=F FulRan=T
         wScrn=  0.000000 ICntrl=       600 IOpCl=  0 I1Cent=           0 NGrid=           0
         NMat0=    1 NMatS0=  27495 NMatT0=    0 NMatD0=    1 NMtDS0=    0 NMtDT0=    0
 Symmetry not used in FoFCou.
 Two-electron integral symmetry not used.
          MDV=     671088640 using IRadAn=       1.
          Solving linear equations simultaneously, MaxMat=       0.
          There are    36 degrees of freedom in the 1st order CPHF.  IDoFFX=6 NUNeed=     0.
     30 vectors produced by pass  0 Test12= 1.19D-14 2.78D-09 XBig12= 5.77D-02 6.30D-02.
 AX will form    30 AO Fock derivatives at one time.
     30 vectors produced by pass  1 Test12= 1.19D-14 2.78D-09 XBig12= 1.02D-02 2.40D-02.
     30 vectors produced by pass  2 Test12= 1.19D-14 2.78D-09 XBig12= 3.74D-04 4.96D-03.
     30 vectors produced by pass  3 Test12= 1.19D-14 2.78D-09 XBig12= 3.69D-06 2.78D-04.
     30 vectors produced by pass  4 Test12= 1.19D-14 2.78D-09 XBig12= 2.70D-08 2.13D-05.
     30 vectors produced by pass  5 Test12= 1.19D-14 2.78D-09 XBig12= 1.54D-10 1.53D-06.
     18 vectors produced by pass  6 Test12= 1.19D-14 2.78D-09 XBig12= 7.97D-13 9.32D-08.
      3 vectors produced by pass  7 Test12= 1.19D-14 2.78D-09 XBig12= 3.15D-15 5.95D-09.
 InvSVY:  IOpt=1 It=  1 EMax= 1.11D-15
 Solved reduced A of dimension   201 with    30 vectors.
 End of Minotr F.D. properties file   721 does not exist.
 End of Minotr F.D. properties file   722 does not exist.
 End of Minotr F.D. properties file   788 does not exist.
 Leave Link 1002 at Tue Sep 24 18:10:45 2019, MaxMem=   671088640 cpu:            1320.7 elap:             660.4
 (Enter /shared/centos7/gaussian/g16/l601.exe)
 Copying SCF densities to generalized density rwf, IOpCl= 0 IROHF=0.

 **********************************************************************

            Population analysis using the SCF density.

 **********************************************************************

 Orbital symmetries:
       Occupied  (A) (A) (A) (A) (A) (A) (A) (A) (A) (A) (A) (A)
                 (A) (A) (A) (A) (A) (A) (A) (A)
       Virtual   (A) (A) (A) (A) (A) (A) (A) (A) (A) (A) (A) (A)
                 (A) (A) (A) (A) (A) (A) (A) (A) (A) (A) (A) (A)
                 (A) (A) (A) (A) (A) (A) (A) (A) (A) (A) (A) (A)
                 (A) (A) (A) (A) (A) (A) (A) (A) (A) (A) (A) (A)
                 (A) (A) (A) (A) (A) (A) (A) (A) (A) (A) (A) (A)
                 (A) (A) (A) (A) (A) (A) (A) (A) (A) (A) (A) (A)
                 (A) (A) (A) (A) (A) (A) (A) (A) (A) (A) (A) (A)
                 (A) (A) (A) (A) (A) (A) (A) (A) (A) (A) (A) (A)
                 (A) (A) (A) (A) (A) (A) (A) (A) (A) (A) (A) (A)
                 (A) (A) (A) (A) (A) (A) (A) (A) (A) (A) (A) (A)
                 (A) (A) (A) (A) (A) (A) (A) (A) (A) (A) (A) (A)
                 (A) (A) (A) (A) (A) (A) (A) (A) (A) (A) (A) (A)
                 (A) (A) (A) (A) (A) (A) (A) (A) (A) (A) (A) (A)
                 (A) (A) (A) (A) (A) (A) (A) (A) (A) (A) (A) (A)
                 (A) (A) (A) (A) (A) (A) (A) (A) (A) (A) (A) (A)
                 (A) (A) (A) (A) (A) (A) (A) (A) (A) (A) (A) (A)
                 (A) (A) (A) (A) (A) (A) (A) (A) (A) (A) (A) (A)
                 (A) (A) (A) (A) (A) (A) (A) (A) (A) (A)
 The electronic state is 1-A.
 Alpha  occ. eigenvalues --  -19.65798 -19.64996 -10.59728 -10.59038 -10.57989
 Alpha  occ. eigenvalues --   -1.18540  -1.16131  -0.85964  -0.78312  -0.68392
 Alpha  occ. eigenvalues --   -0.60383  -0.58783  -0.53698  -0.51789  -0.49675
 Alpha  occ. eigenvalues --   -0.46600  -0.45532  -0.41909  -0.36286  -0.28998
 Alpha virt. eigenvalues --    0.05330   0.06798   0.09408   0.11120   0.13133
 Alpha virt. eigenvalues --    0.13814   0.13835   0.18015   0.20664   0.26544
 Alpha virt. eigenvalues --    0.28807   0.30549   0.33214   0.34900   0.35624
 Alpha virt. eigenvalues --    0.38167   0.39279   0.41168   0.42776   0.44740
 Alpha virt. eigenvalues --    0.46281   0.46849   0.48310   0.49849   0.51282
 Alpha virt. eigenvalues --    0.54424   0.56801   0.57602   0.60473   0.62001
 Alpha virt. eigenvalues --    0.64500   0.68972   0.70110   0.73799   0.75177
 Alpha virt. eigenvalues --    0.79854   0.80602   0.83079   0.84761   0.85063
 Alpha virt. eigenvalues --    0.91541   0.93922   0.97286   0.99224   1.03727
 Alpha virt. eigenvalues --    1.05514   1.07041   1.08376   1.09561   1.13276
 Alpha virt. eigenvalues --    1.14008   1.14881   1.18471   1.22892   1.23941
 Alpha virt. eigenvalues --    1.25949   1.27438   1.30812   1.32654   1.35561
 Alpha virt. eigenvalues --    1.36554   1.38717   1.40355   1.44375   1.48940
 Alpha virt. eigenvalues --    1.50549   1.52907   1.54664   1.61831   1.83577
 Alpha virt. eigenvalues --    1.88784   1.92835   1.96713   1.99742   2.02641
 Alpha virt. eigenvalues --    2.06543   2.08379   2.11136   2.14552   2.15731
 Alpha virt. eigenvalues --    2.20093   2.22323   2.25920   2.31505   2.36333
 Alpha virt. eigenvalues --    2.36512   2.39984   2.48727   2.53193   2.57556
 Alpha virt. eigenvalues --    2.62486   2.64013   2.68162   2.74406   2.76766
 Alpha virt. eigenvalues --    2.78231   2.80264   2.82270   2.85484   2.85959
 Alpha virt. eigenvalues --    2.89975   2.90631   2.93892   2.96957   2.98258
 Alpha virt. eigenvalues --    3.00986   3.03541   3.04353   3.07398   3.08726
 Alpha virt. eigenvalues --    3.10779   3.14674   3.16581   3.19290   3.20334
 Alpha virt. eigenvalues --    3.24042   3.25879   3.27712   3.29163   3.32112
 Alpha virt. eigenvalues --    3.33464   3.33723   3.35120   3.37743   3.42303
 Alpha virt. eigenvalues --    3.42822   3.45601   3.48795   3.49887   3.55723
 Alpha virt. eigenvalues --    3.61040   3.64224   3.66696   3.68490   3.69246
 Alpha virt. eigenvalues --    3.71940   3.74810   3.76481   3.77548   3.81826
 Alpha virt. eigenvalues --    3.83232   3.86803   3.89224   3.90907   3.95519
 Alpha virt. eigenvalues --    3.96398   3.99280   4.01158   4.06512   4.07729
 Alpha virt. eigenvalues --    4.09626   4.11974   4.17222   4.21061   4.25138
 Alpha virt. eigenvalues --    4.28802   4.34995   4.38150   4.40582   4.45867
 Alpha virt. eigenvalues --    4.49828   4.56790   4.62885   4.64969   4.68998
 Alpha virt. eigenvalues --    4.72937   4.76242   4.80266   4.80726   4.84482
 Alpha virt. eigenvalues --    4.89318   4.95050   4.97810   4.99038   5.04140
 Alpha virt. eigenvalues --    5.05442   5.09916   5.12701   5.16465   5.28897
 Alpha virt. eigenvalues --    5.36132   5.40242   5.49529   5.50390   5.59368
 Alpha virt. eigenvalues --    5.68137   5.70493   5.73943   5.79353   5.87901
 Alpha virt. eigenvalues --    5.97065   6.13628   6.20320   6.26986   6.32120
 Alpha virt. eigenvalues --    6.34753   6.50568   6.60384   6.70011   6.71350
 Alpha virt. eigenvalues --    6.73916   6.77745   6.82402   6.95648   7.00670
 Alpha virt. eigenvalues --    7.12489   7.20877   7.25503   7.30325   9.93889
 Alpha virt. eigenvalues --   10.69967  11.88174  12.80682  14.00517
          Condensed to atoms (all electrons):
               1          2          3          4          5          6
     1  O    7.859994   0.001334   0.304074   0.343053  -0.074613  -0.029204
     2  O    0.001334   7.790950  -0.007164  -0.072052   0.339750   0.000141
     3  C    0.304074  -0.007164   4.746703  -0.071934  -0.010132   0.396957
     4  C    0.343053  -0.072052  -0.071934   5.060164   0.474415   0.006247
     5  C   -0.074613   0.339750  -0.010132   0.474415   5.002354  -0.000410
     6  H   -0.029204   0.000141   0.396957   0.006247  -0.000410   0.584501
     7  H   -0.048015  -0.000244   0.397008   0.016926  -0.008259  -0.026004
     8  H   -0.047851   0.011740   0.381916  -0.050075   0.029862  -0.042888
     9  H   -0.047339   0.005105   0.003977   0.420968  -0.086039  -0.000384
    10  H    0.004026  -0.035742  -0.000406  -0.061375   0.408790   0.000054
    11  H    0.012837   0.325558   0.000815  -0.001070  -0.064799   0.000480
               7          8          9         10         11
     1  O   -0.048015  -0.047851  -0.047339   0.004026   0.012837
     2  O   -0.000244   0.011740   0.005105  -0.035742   0.325558
     3  C    0.397008   0.381916   0.003977  -0.000406   0.000815
     4  C    0.016926  -0.050075   0.420968  -0.061375  -0.001070
     5  C   -0.008259   0.029862  -0.086039   0.408790  -0.064799
     6  H   -0.026004  -0.042888  -0.000384   0.000054   0.000480
     7  H    0.643152  -0.076707   0.005752  -0.000149   0.002610
     8  H   -0.076707   0.730935  -0.003232  -0.000237  -0.019295
     9  H    0.005752  -0.003232   0.573849  -0.005101   0.001410
    10  H   -0.000149  -0.000237  -0.005101   0.526755   0.006002
    11  H    0.002610  -0.019295   0.001410   0.006002   0.458468
 Mulliken charges:
               1
     1  O   -0.278296
     2  O   -0.359376
     3  C   -0.141814
     4  C   -0.065268
     5  C   -0.010920
     6  H    0.110508
     7  H    0.093930
     8  H    0.085831
     9  H    0.131035
    10  H    0.157385
    11  H    0.276984
 Sum of Mulliken charges =  -0.00000
 Mulliken charges with hydrogens summed into heavy atoms:
               1
     1  O   -0.278296
     2  O   -0.082392
     3  C    0.148456
     4  C    0.065767
     5  C    0.146466
 APT charges:
               1
     1  O   -0.190637
     2  O   -0.341129
     3  C   -0.874743
     4  C   -0.447750
     5  C   -0.384186
     6  H    0.463171
     7  H    0.311270
     8  H    0.209646
     9  H    0.423080
    10  H    0.485135
    11  H    0.346145
 Sum of APT charges =  -0.00000
 APT charges with hydrogens summed into heavy atoms:
               1
     1  O   -0.190637
     2  O    0.005016
     3  C    0.109343
     4  C   -0.024670
     5  C    0.100949
 Electronic spatial extent (au):  <R**2>=            422.8325
 Charge=             -0.0000 electrons
 Dipole moment (field-independent basis, Debye):
    X=              0.6729    Y=             -0.3569    Z=              0.4766  Tot=              0.8985
 Quadrupole moment (field-independent basis, Debye-Ang):
   XX=            -31.4563   YY=            -28.6488   ZZ=            -31.2624
   XY=             -4.1241   XZ=              0.8641   YZ=              2.5394
 Traceless Quadrupole moment (field-independent basis, Debye-Ang):
   XX=             -1.0005   YY=              1.8071   ZZ=             -0.8066
   XY=             -4.1241   XZ=              0.8641   YZ=              2.5394
 Octapole moment (field-independent basis, Debye-Ang**2):
  XXX=              3.2426  YYY=             -0.5810  ZZZ=             -3.0503  XYY=              1.0935
  XXY=              1.5889  XXZ=              3.0261  XZZ=             -0.8194  YZZ=             -3.1730
  YYZ=             -1.6234  XYZ=             -1.1042
 Hexadecapole moment (field-independent basis, Debye-Ang**3):
 XXXX=           -318.1366 YYYY=           -144.9983 ZZZZ=            -55.2079 XXXY=            -13.4301
 XXXZ=             -8.2406 YYYX=              6.4145 YYYZ=              6.2192 ZZZX=              1.2610
 ZZZY=              1.5365 XXYY=            -83.7810 XXZZ=            -62.9449 YYZZ=            -34.9700
 XXYZ=              4.1660 YYXZ=             -0.2421 ZZXY=              2.7755
 N-N= 1.795051776302D+02 E-N=-9.871972231171D+02  KE= 2.666863699937D+02
  Exact polarizability:   0.000   0.000   0.000   0.000   0.000   0.000
 Approx polarizability:  61.262   4.191  52.304  -3.085   1.735  42.259
 No NMR shielding tensors so no spin-rotation constants.
 Leave Link  601 at Tue Sep 24 18:11:13 2019, MaxMem=   671088640 cpu:              55.2 elap:              27.6
 (Enter /shared/centos7/gaussian/g16/l701.exe)
 SCFChk:  SCF convergence  4.55D-09 required  1.00D-08
 ... and contract with generalized density number  0.
 Compute integral second derivatives.
 Entering OneElI...
 Calculate overlap and kinetic energy integrals
    NBasis = 265  MinDer = 2  MaxDer = 2
 Requested accuracy = 0.1000D-12
 PrmmSu-InSpLW:  IPartL=    0 NPrtUS=   20 NPrtUL=    1 DoSpLW=F IThBeg=    0 IThEnd=   19 NThAct=   20.
 PrsmSu:  NPrtUS=  20 ThrOK=T IAlg=1 NPAlg=1 LenDen=           0 ISkipM=0 DoSpLW=F IThBeg=    0 IThEnd=   19.
 Prism:   IPart=     0 DynPar=F LinDyn=F Incr=           1.
 PRISM was handed    33437954 working-precision words and  3740 shell-pairs
 PRISM was handed    33437954 working-precision words and  3740 shell-pairs
 PRISM was handed    33437954 working-precision words and  3740 shell-pairs
 PRISM was handed    33437954 working-precision words and  3740 shell-pairs
 PRISM was handed    33437954 working-precision words and  3740 shell-pairs
 PRISM was handed    33437954 working-precision words and  3740 shell-pairs
 PRISM was handed    33437954 working-precision words and  3740 shell-pairs
 PRISM was handed    33437954 working-precision words and  3740 shell-pairs
 PRISM was handed    33437954 working-precision words and  3740 shell-pairs
 PRISM was handed    33437954 working-precision words and  3740 shell-pairs
 PRISM was handed    33437954 working-precision words and  3740 shell-pairs
 PRISM was handed    33437954 working-precision words and  3740 shell-pairs
 PRISM was handed    33437954 working-precision words and  3740 shell-pairs
 IPart=  8 NShTot=         186 NBatch=          31 AvBLen=         6.0
 PRISM was handed    33437954 working-precision words and  3740 shell-pairs
 IPart=  0 NShTot=         226 NBatch=          66 AvBLen=         3.4
 PRISM was handed    33437954 working-precision words and  3740 shell-pairs
 IPart= 14 NShTot=         173 NBatch=          27 AvBLen=         6.4
 PRISM was handed    33437954 working-precision words and  3740 shell-pairs
 PRISM was handed    33437954 working-precision words and  3740 shell-pairs
 PRISM was handed    33437954 working-precision words and  3740 shell-pairs
 PRISM was handed    33437954 working-precision words and  3740 shell-pairs
 PRISM was handed    33437954 working-precision words and  3740 shell-pairs
 IPart= 16 NShTot=         169 NBatch=          26 AvBLen=         6.5
 IPart=  9 NShTot=         184 NBatch=          29 AvBLen=         6.3
 IPart= 12 NShTot=         175 NBatch=          28 AvBLen=         6.3
 IPart= 17 NShTot=         168 NBatch=          26 AvBLen=         6.5
 IPart= 15 NShTot=         170 NBatch=          26 AvBLen=         6.5
 IPart=  5 NShTot=         195 NBatch=          39 AvBLen=         5.0
 IPart= 10 NShTot=         178 NBatch=          28 AvBLen=         6.4
 IPart= 19 NShTot=         166 NBatch=          26 AvBLen=         6.4
 IPart=  4 NShTot=         205 NBatch=          46 AvBLen=         4.5
 IPart=  6 NShTot=         194 NBatch=          39 AvBLen=         5.0
 IPart=  2 NShTot=         211 NBatch=          52 AvBLen=         4.1
 IPart=  3 NShTot=         208 NBatch=          49 AvBLen=         4.2
 IPart= 13 NShTot=         173 NBatch=          27 AvBLen=         6.4
 IPart=  1 NShTot=         223 NBatch=          63 AvBLen=         3.5
 IPart= 11 NShTot=         178 NBatch=          28 AvBLen=         6.4
 IPart=  7 NShTot=         190 NBatch=          35 AvBLen=         5.4
 IPart= 18 NShTot=         168 NBatch=          26 AvBLen=         6.5
 PrSmSu:  NxtVal=             21.
 Entering OneElI...
 Calculate potential energy integrals
    NBasis = 265  MinDer = 2  MaxDer = 2
 Requested accuracy = 0.1000D-12
 PrmmSu-InSpLW:  IPartL=    0 NPrtUS=   20 NPrtUL=    1 DoSpLW=F IThBeg=    0 IThEnd=   19 NThAct=   20.
 PrsmSu:  NPrtUS=  20 ThrOK=T IAlg=1 NPAlg=1 LenDen=           0 ISkipM=0 DoSpLW=F IThBeg=    0 IThEnd=   19.
 Prism:   IPart=     0 DynPar=F LinDyn=F Incr=          19.
 PRISM was handed    33454277 working-precision words and  3604 shell-pairs
 PRISM was handed    33454277 working-precision words and  3604 shell-pairs
 PRISM was handed    33454277 working-precision words and  3604 shell-pairs
 PRISM was handed    33454277 working-precision words and  3604 shell-pairs
 PRISM was handed    33454277 working-precision words and  3604 shell-pairs
 PRISM was handed    33454277 working-precision words and  3604 shell-pairs
 PRISM was handed    33454277 working-precision words and  3604 shell-pairs
 PRISM was handed    33454277 working-precision words and  3604 shell-pairs
 PRISM was handed    33454277 working-precision words and  3604 shell-pairs
 PRISM was handed    33454277 working-precision words and  3604 shell-pairs
 PRISM was handed    33454277 working-precision words and  3604 shell-pairs
 PRISM was handed    33454277 working-precision words and  3604 shell-pairs
 PRISM was handed    33454277 working-precision words and  3604 shell-pairs
 PRISM was handed    33454277 working-precision words and  3604 shell-pairs
 PRISM was handed    33454277 working-precision words and  3604 shell-pairs
 PRISM was handed    33454277 working-precision words and  3604 shell-pairs
 PRISM was handed    33454277 working-precision words and  3604 shell-pairs
 PRISM was handed    33454277 working-precision words and  3604 shell-pairs
 PRISM was handed    33454277 working-precision words and  3604 shell-pairs
 PRISM was handed    33454277 working-precision words and  3604 shell-pairs
 IPart=  4 NShTot=        2145 NBatch=         195 AvBLen=        11.0
 IPart= 12 NShTot=        1859 NBatch=         169 AvBLen=        11.0
 IPart= 18 NShTot=        1804 NBatch=         164 AvBLen=        11.0
 IPart= 19 NShTot=        1793 NBatch=         163 AvBLen=        11.0
 IPart= 15 NShTot=        1815 NBatch=         165 AvBLen=        11.0
 IPart= 11 NShTot=        1859 NBatch=         169 AvBLen=        11.0
 IPart=  3 NShTot=        2189 NBatch=         199 AvBLen=        11.0
 IPart=  7 NShTot=        1958 NBatch=         178 AvBLen=        11.0
 IPart= 16 NShTot=        1815 NBatch=         165 AvBLen=        11.0
 IPart=  0 NShTot=        2453 NBatch=         223 AvBLen=        11.0
 IPart=  8 NShTot=        1936 NBatch=         176 AvBLen=        11.0
 IPart=  6 NShTot=        1991 NBatch=         181 AvBLen=        11.0
 IPart=  5 NShTot=        2035 NBatch=         185 AvBLen=        11.0
 IPart= 17 NShTot=        1815 NBatch=         165 AvBLen=        11.0
 IPart=  1 NShTot=        2398 NBatch=         218 AvBLen=        11.0
 IPart= 13 NShTot=        1848 NBatch=         168 AvBLen=        11.0
 IPart=  9 NShTot=        1914 NBatch=         174 AvBLen=        11.0
 IPart= 14 NShTot=        1848 NBatch=         168 AvBLen=        11.0
 IPart= 10 NShTot=        1870 NBatch=         170 AvBLen=        11.0
 IPart=  2 NShTot=        2299 NBatch=         209 AvBLen=        11.0
 PrSmSu:  NxtVal=            381.
 Polarizability after L701:
                1             2             3 
      1  0.000000D+00
      2  0.000000D+00  0.000000D+00
      3  0.000000D+00  0.000000D+00  0.000000D+00
 Dipole Derivatives after L701:
                 1             2             3             4             5 
      1  -0.165959D+00  0.443125D-01 -0.104552D+00  0.115965D+00  0.192961D+00
      2   0.133211D+00 -0.246582D+00 -0.593639D-01  0.552713D+00 -0.455119D+00
      3  -0.140712D+00 -0.484527D-02 -0.159371D+00  0.297225D+00 -0.207033D+00
                 6             7             8             9            10 
      1  -0.175245D+00 -0.998963D+00  0.357804D+00 -0.210979D+00 -0.456910D+00
      2  -0.374181D+00  0.536736D-01 -0.827487D+00  0.171934D-01  0.214680D-01
      3  -0.684232D+00 -0.793707D-01  0.215143D-01 -0.797780D+00  0.219864D+00
                11            12            13            14            15 
      1  -0.195837D+00  0.259054D+00 -0.694976D+00  0.196105D+00  0.229496D+00
      2  -0.711886D+00 -0.384400D+00 -0.353832D-01 -0.539811D+00  0.288469D-01
      3  -0.299478D+00 -0.174455D+00  0.142656D+00 -0.131089D-01  0.822284D-01
                16            17            18            19            20 
      1   0.957108D+00 -0.373463D+00 -0.468163D+00  0.207863D+00  0.140082D+00
      2  -0.330235D+00  0.270103D+00  0.157473D+00 -0.384192D-02  0.139454D+00
      3  -0.946046D-01  0.476640D-02  0.162302D+00  0.121249D+00  0.122962D+00
                21            22            23            24            25 
      1   0.601917D+00  0.760173D-02 -0.157463D+00  0.662703D-01  0.183076D+00
      2  -0.877238D-01  0.294588D+00  0.453296D+00  0.441696D-02  0.609872D-01
      3   0.586492D+00  0.854730D-02 -0.576414D-01  0.168039D+00 -0.321082D-03
                26            27            28            29            30 
      1   0.346037D-01 -0.621870D-02  0.887340D+00 -0.410346D+00 -0.400211D+00
      2   0.997636D+00  0.182848D+00 -0.293288D+00  0.358708D+00  0.193037D+00
      3   0.152974D+00  0.885280D-01 -0.200556D+00  0.141411D+00  0.209357D+00
                31            32            33 
      1  -0.421462D-01  0.171242D+00  0.208631D+00
      2  -0.453893D+00  0.561688D+00  0.321853D+00
      3  -0.273975D+00  0.138479D+00  0.518893D+00
 Hessian after L701:
                1             2             3             4             5 
      1  0.645965D+01
      2  0.424668D+01  0.915713D+01
      3  0.159379D+01  0.174462D+01  0.123504D+02
      4  0.585253D+00  0.525681D+00 -0.166272D+00  0.918453D+01
      5  0.461696D+00 -0.136613D+00 -0.705448D-01 -0.119119D+01  0.506656D+01
      6 -0.220068D+00 -0.114028D+00 -0.386181D+00  0.190094D+01 -0.295635D+01
      7 -0.624850D+01 -0.245806D+01  0.130188D+01  0.446774D+00  0.373305D-01
      8 -0.227735D+01 -0.228302D+01 -0.340735D+01  0.160282D+00 -0.243513D+00
      9  0.119759D+01 -0.334039D+01 -0.507058D+01  0.103321D+00 -0.494778D-02
     10 -0.198510D+01 -0.337708D+01 -0.285711D+01  0.342423D+00  0.258304D+00
     11 -0.358959D+01 -0.664651D+01  0.112813D+01  0.186396D+00 -0.118589D+00
     12 -0.268991D+01  0.104780D+01 -0.698059D+01  0.181090D+00 -0.112549D+00
     13  0.603652D+00  0.369363D+00  0.266592D+00 -0.783730D+01  0.152651D+01
     14  0.463568D+00 -0.119077D+00 -0.126399D+00  0.177338D+01  0.214141D+00
     15  0.177139D+00 -0.771510D-01 -0.188581D-01  0.236710D+00  0.200908D+01
     16  0.169711D+00 -0.218423D-01 -0.792155D-01  0.707482D-01 -0.247633D-02
     17 -0.512642D-02 -0.912501D-01  0.858003D-01 -0.178217D-01 -0.153076D-01
     18 -0.119597D+00  0.128116D+00 -0.318961D-02 -0.151176D-01 -0.313354D-03
     19  0.104439D+00  0.124551D+00  0.122246D-02  0.442054D-01  0.985047D-02
     20  0.883863D-01 -0.992863D-01  0.261106D+00  0.966495D-02 -0.194329D-01
     21  0.293359D-01  0.264114D+00  0.219966D+00  0.655889D-01  0.791416D-02
     22  0.253878D+00  0.289168D+00 -0.596633D-01  0.923607D-01  0.116082D-01
     23  0.233435D+00  0.120988D+00  0.378769D+00 -0.675021D-01 -0.105752D+00
     24 -0.169856D-01  0.313768D+00 -0.113625D+00 -0.276341D-01  0.682067D-02
     25 -0.100170D+00  0.227837D+00  0.738795D-01 -0.107423D-01  0.690559D-01
     26  0.241055D+00  0.793169D-01  0.890917D-02  0.108674D+00  0.143346D+00
     27  0.795386D-01 -0.122716D-01  0.127259D+00  0.232246D-01  0.282391D-01
     28  0.143580D+00 -0.347449D-01 -0.552824D-01  0.151264D+00 -0.173210D-01
     29 -0.534378D-01 -0.336364D-01  0.142500D-01  0.830273D-02 -0.189930D+00
     30 -0.727632D-01  0.106352D-01 -0.113579D-01 -0.150659D-01 -0.884716D-01
     31  0.136121D-01  0.108452D+00 -0.198266D-01 -0.306952D+01 -0.116337D+01
     32  0.190684D+00  0.519558D-01 -0.172884D-01 -0.149586D+01 -0.459491D+01
     33  0.419353D-01  0.347873D-01 -0.113288D+00 -0.228679D+01  0.118112D+01
                6             7             8             9            10 
      6  0.119911D+02
      7  0.615314D-01  0.135042D+02
      8 -0.158855D-02  0.209360D+01  0.108086D+02
      9 -0.255707D+00 -0.126735D+01  0.271615D+01  0.136247D+02
     10  0.235299D+00  0.112034D+00 -0.332516D+00  0.124216D+00  0.764448D+01
     11 -0.518400D-01 -0.263899D+00  0.237512D+00 -0.666283D-01 -0.413893D+00
     12  0.125043D+00  0.107440D+00 -0.388817D-01 -0.646251D-01  0.424239D+01
     13  0.110204D+00  0.228798D+00 -0.158316D+00  0.447442D-01 -0.220321D+01
     14  0.189902D+01 -0.148402D+00 -0.144681D+00 -0.873272D-02  0.367034D+01
     15 -0.765408D+01  0.612179D-01  0.537814D-02 -0.154296D+00 -0.201358D+01
     16 -0.122532D-01 -0.175973D+01 -0.717663D+00 -0.789802D+00  0.908097D-01
     17  0.136240D-02 -0.751904D+00 -0.301761D+01  0.374466D+00 -0.933887D-01
     18 -0.151579D-01 -0.714228D+00  0.317955D+00 -0.299389D+01 -0.270429D-01
     19  0.319032D-01 -0.334585D+01  0.163003D+00  0.643417D+00  0.738299D-01
     20  0.463560D-02  0.108816D+00 -0.337959D+01  0.398297D+00 -0.604556D-01
     21 -0.175662D-03  0.519688D+00  0.524106D+00 -0.119720D+01  0.129600D+00
     22 -0.504082D-01 -0.294197D+01  0.114423D+01 -0.677444D-01  0.519369D-01
     23  0.170883D-01  0.144578D+01 -0.205996D+01 -0.885675D-01  0.128652D+00
     24 -0.131995D+00 -0.124007D+00 -0.139573D+00 -0.381951D+01  0.239413D-02
     25  0.171578D-01 -0.161258D-01 -0.502605D-01  0.122914D-02 -0.381146D+01
     26  0.261404D-01 -0.701199D-01  0.117639D+00  0.712531D-02  0.170667D+00
     27 -0.354526D-01 -0.528559D-02  0.964302D-02 -0.464424D-01  0.329270D-01
     28 -0.117906D-01  0.251597D-01 -0.126690D-01 -0.644946D-02 -0.314589D+00
     29 -0.119600D+00 -0.200151D-01 -0.624779D-02  0.509989D-02 -0.884366D-02
     30  0.230351D-01 -0.798864D-02  0.207595D-02 -0.109731D-01  0.794570D-01
     31 -0.206252D+01 -0.480225D-02 -0.123446D-01  0.168275D-01 -0.115670D-02
     32  0.129517D+01  0.268716D-01 -0.291263D-01  0.812696D-02  0.582157D-01
     33 -0.366040D+01  0.670952D-01  0.120802D-01 -0.115069D-01  0.514472D-01
               11            12            13            14            15 
     11  0.148755D+02
     12 -0.186836D+01  0.218891D+02
     13  0.403000D+01 -0.202527D+01  0.113223D+02
     14 -0.695985D+01  0.373113D+00 -0.434046D+01  0.103039D+02
     15  0.256790D+00 -0.115289D+02  0.236538D+01 -0.242376D+01  0.225808D+02
     16 -0.950579D-01 -0.257032D-01  0.293602D-01 -0.800388D-02 -0.111640D-01
     17  0.263419D-01  0.194638D-01 -0.171600D-01 -0.118513D-01  0.358308D-02
     18  0.203288D-01 -0.381980D-01 -0.147727D-01  0.277931D-02 -0.675963D-02
     19 -0.745733D-01  0.873022D-01 -0.264040D-01  0.139439D-01 -0.420561D-01
     20 -0.682119D-01 -0.221043D-01  0.191428D-01 -0.510567D-02  0.145897D-01
     21 -0.563790D-01 -0.808887D-02 -0.268553D-01  0.144184D-01 -0.217323D-01
     22  0.146031D+00  0.159732D-01  0.504523D-01 -0.209708D+00  0.744141D-01
     23 -0.127018D+00 -0.566117D-01 -0.265280D+00  0.137098D+00 -0.710449D-01
     24 -0.101500D-01  0.116833D+00  0.670430D-01 -0.581554D-01 -0.108965D+00
     25  0.127101D+00  0.217850D-01  0.484464D-01 -0.324326D+00 -0.769141D-01
     26 -0.131027D+01  0.618513D+00 -0.381605D+00 -0.222653D+00 -0.952997D-01
     27  0.605649D+00 -0.368292D+01 -0.879359D-01 -0.772786D-01  0.230943D+00
     28 -0.357453D-01  0.659742D-01 -0.235520D+01 -0.872648D+00 -0.755577D+00
     29  0.202070D+00  0.226797D-01 -0.902619D+00 -0.327968D+01  0.455040D+00
     30  0.175024D-01  0.152630D+00 -0.746045D+00  0.437631D+00 -0.342860D+01
     31 -0.167654D-01  0.189269D-01  0.139060D+00 -0.176811D-01 -0.155665D-01
     32 -0.111008D+00  0.169336D-01  0.120428D+00  0.877923D-01 -0.772124D-01
     33  0.249605D-01  0.197837D-01  0.469152D-01 -0.326350D-01  0.110492D+00
               16            17            18            19            20 
     16  0.155599D+01
     17  0.939403D+00  0.295078D+01
     18  0.723837D+00 -0.440197D+00  0.304907D+01
     19  0.504176D-01  0.358217D-01  0.845151D-01  0.301243D+01
     20  0.285836D-01  0.369596D-01 -0.670541D-01  0.129645D-01  0.350737D+01
     21  0.789100D-01 -0.774617D-01 -0.924163D-01 -0.624576D+00 -0.358023D+00
     22 -0.216819D+00 -0.885213D-01  0.842946D-01  0.625654D-01 -0.180095D+00
     23 -0.118122D+00  0.122113D+00  0.336860D-01 -0.248055D+00 -0.169776D-02
     24  0.110212D+00  0.324609D-01  0.105021D+00 -0.217248D+00 -0.221960D+00
     25 -0.925646D-03  0.147085D-02 -0.138650D-02  0.875826D-02 -0.317537D-01
     26 -0.704427D-02  0.319124D-02  0.431563D-02 -0.462382D-01  0.350697D-01
     27 -0.147220D-02  0.349251D-03 -0.256323D-03  0.131948D-01 -0.165017D-01
     28  0.825533D-02 -0.423184D-02 -0.319842D-02  0.476666D-02 -0.168093D-04
     29 -0.487801D-02  0.159210D-02  0.153033D-02 -0.311635D-02 -0.848996D-03
     30 -0.330122D-02  0.138033D-02  0.427452D-03 -0.839643D-03 -0.794903D-04
     31  0.218246D-02  0.145773D-02  0.269701D-02  0.108439D-01  0.476296D-02
     32  0.710161D-02 -0.495924D-02 -0.114667D-02  0.118481D-01 -0.522352D-02
     33  0.995274D-02 -0.120754D-02 -0.464282D-02  0.231648D-01  0.709414D-02
               21            22            23            24            25 
     21  0.107957D+01
     22 -0.210383D+00  0.266615D+01
     23 -0.290460D+00 -0.113478D+01  0.191715D+01
     24  0.165024D-01  0.239116D+00  0.707241D-01  0.391996D+01
     25  0.183306D-01  0.339607D-02  0.992858D-02 -0.673236D-03  0.391105D+01
     26 -0.382458D-01  0.158825D-01 -0.316594D-01  0.175534D-02 -0.159700D-01
     27 -0.857271D-02  0.112917D-02 -0.146152D-02  0.575936D-02 -0.580006D-01
     28  0.643930D-02 -0.330648D-02 -0.471008D-02 -0.620622D-03 -0.262545D-01
     29 -0.357078D-02  0.149186D-02  0.262500D-02  0.482653D-03 -0.194923D-01
     30 -0.312669D-02  0.999177D-03  0.288163D-02 -0.105516D-02  0.138284D-02
     31  0.139219D-01 -0.186494D-01  0.206535D-01 -0.315967D-01 -0.597380D-02
     32  0.135880D-01  0.468963D-02  0.261150D-01  0.382699D-02  0.641029D-02
     33  0.152743D-01 -0.277272D-01  0.499735D-02  0.110820D-01  0.320948D-02
               26            27            28            29            30 
     26  0.116377D+01
     27 -0.550466D+00  0.340885D+01
     28 -0.130100D-01  0.263134D-02  0.235202D+01
     29 -0.517757D-02  0.398256D-02  0.104906D+01  0.326721D+01
     30 -0.284040D-03  0.200161D-02  0.794531D+00 -0.426812D+00  0.326640D+01
     31 -0.229131D-02  0.486614D-04  0.142950D-01 -0.464528D-01 -0.303663D-01
     32  0.274299D-01  0.101165D-01 -0.539640D-01  0.420242D-01  0.435402D-01
     33  0.175358D-01 -0.117049D-02 -0.366577D-01  0.469170D-01  0.106187D-01
               31            32            33 
     31  0.292010D+01
     32  0.112358D+01  0.450991D+01
     33  0.210745D+01 -0.129565D+01  0.362376D+01
 Leave Link  701 at Tue Sep 24 18:11:35 2019, MaxMem=   671088640 cpu:              43.9 elap:              22.0
 (Enter /shared/centos7/gaussian/g16/l702.exe)
 L702 exits ... SP integral derivatives will be done elsewhere.
 Leave Link  702 at Tue Sep 24 18:11:36 2019, MaxMem=   671088640 cpu:               1.7 elap:               0.9
 (Enter /shared/centos7/gaussian/g16/l703.exe)
 Integral derivatives from FoFJK, PRISM(SPDF).
 Compute integral second derivatives, UseDBF=F ICtDFT=           0.
 ICntrl=    100147.
 Calling FoFJK, ICntrl=    100147 FMM=F ISym2X=0 I1Cent= 0 IOpClX= 0 NMat=1 NMatS=1 NMatT=0.
 FoFJK:  IHMeth= 1 ICntrl=  100147 DoSepK=F KAlg= 0 I1Cent=           0 FoldK=F
 IRaf=         0 NMat=       1 IRICut=       1 DoRegI=T DoRafI=F ISym2E= 0 IDoP0=0 IntGTp=1.
 FoFCou: FMM=F IPFlag=           0 FMFlag=      100000 FMFlg1=         800
         NFxFlg=           0 DoJE=F BraDBF=F KetDBF=F FulRan=T
         wScrn=  0.000000 ICntrl=    100147 IOpCl=  0 I1Cent=           0 NGrid=           0
         NMat0=    1 NMatS0=      1 NMatT0=    0 NMatD0=    1 NMtDS0=    0 NMtDT0=    0
 Symmetry not used in FoFCou.
 FoFCou:  KetSym=F NOpSet=  1 NOpAb=1 NOp=  1.
 FoFCou:  CnvScl= 1.00D+00 Thresh= 1.00D-08 IAcrcy=      12.
 PrismS was handed   670738275 working-precision words and  3698 shell-pairs
 FoFCou: LinMIO=F DoNuc=F BraDBF=F KetDBF=F HaveP=T PDBF=F HaveZ=T HaveW=F
         NIJTC =      10 NIJTAt=       0 NIJTCD=       0 NIJTT =      10
         IJTBeg=       1 IJTEnd=      10 KLTBeg=       1 KLTEnd=      10
         IPTBeg=       1 IPTEnd=      10 IPTBCv=       1 IPTECv=      10
         IZTBeg=       1 IZTEnd=      10 IZTBCv=       1 IZTECv=      10
         IWTBeg=      11 IWTEnd=      10 IWTBCv=      11 IWTECv=      10
         INTBeg=       1 INTEnd=       0 IFTBCv=       1 IFTECv=      10
 NCel replicated for PrismC:     1
 CoulSu-InSpLW:  IPartL=    0 NPrtUS=   20 NPrtUL=    1 DoSpLW=F IThBeg=    0 IThEnd=   19 NThAct=   20.
 CoulSu:  IncDef=  1024 NBBP=        6839451 NTPThr=   100 NPartT=   20 Incr=        1024 LDynOK=F GPUOK=T.
 CoulSu:  NPrtUS=  20 ThrOK=T IAlg=1 NPAlg=1 LenDen=           0 LWGrdD=           0 DoCopy=F ISkipM=0
          DoSpLW=F IThBeg=    0 IThEnd=   19.
 Enter PrismC:  IPart=  0 JobTyp=22 DoJE=F Cont=F.
 PrismC:  IPart=     0 DynPar=T LinDyn=F Incr=        1024 UseFst=F UseS4=T ISplat=2.
 Enter PrismC:  IPart=  8 JobTyp=22 DoJE=F Cont=F.
 PrismC:  IPart=     8 DynPar=T LinDyn=F Incr=        1024 UseFst=F UseS4=T ISplat=2.
 PrismC was handed    33455180 working-precision words and  3698 shell-pairs
 PrismC was handed    33455180 working-precision words and  3698 shell-pairs
 Enter PrismC:  IPart= 10 JobTyp=22 DoJE=F Cont=F.
 PrismC:  IPart=    10 DynPar=T LinDyn=F Incr=        1024 UseFst=F UseS4=T ISplat=2.
 PrismC was handed    33455180 working-precision words and  3698 shell-pairs
 Enter PrismC:  IPart= 14 JobTyp=22 DoJE=F Cont=F.
 PrismC:  IPart=    14 DynPar=T LinDyn=F Incr=        1024 UseFst=F UseS4=T ISplat=2.
 PrismC was handed    33455180 working-precision words and  3698 shell-pairs
 Enter PrismC:  IPart= 11 JobTyp=22 DoJE=F Cont=F.
 PrismC:  IPart=    11 DynPar=T LinDyn=F Incr=        1024 UseFst=F UseS4=T ISplat=2.
 PrismC was handed    33455180 working-precision words and  3698 shell-pairs
 Enter PrismC:  IPart=  9 JobTyp=22 DoJE=F Cont=F.
 PrismC:  IPart=     9 DynPar=T LinDyn=F Incr=        1024 UseFst=F UseS4=T ISplat=2.
 PrismC was handed    33455180 working-precision words and  3698 shell-pairs
 Enter PrismC:  IPart=  3 JobTyp=22 DoJE=F Cont=F.
 Enter PrismC:  IPart=  6 JobTyp=22 DoJE=F Cont=F.
 PrismC:  IPart=     6 DynPar=T LinDyn=F Incr=        1024 UseFst=F UseS4=T ISplat=2.
 PrismC was handed    33455180 working-precision words and  3698 shell-pairs
 Enter PrismC:  IPart= 15 JobTyp=22 DoJE=F Cont=F.
 PrismC:  IPart=    15 DynPar=T LinDyn=F Incr=        1024 UseFst=F UseS4=T ISplat=2.
 PrismC was handed    33455180 working-precision words and  3698 shell-pairs
 PrismC:  IPart=     3 DynPar=T LinDyn=F Incr=        1024 UseFst=F UseS4=T ISplat=2.
 PrismC was handed    33455180 working-precision words and  3698 shell-pairs
 Enter PrismC:  IPart= 17 JobTyp=22 DoJE=F Cont=F.
 PrismC:  IPart=    17 DynPar=T LinDyn=F Incr=        1024 UseFst=F UseS4=T ISplat=2.
 PrismC was handed    33455180 working-precision words and  3698 shell-pairs
 Enter PrismC:  IPart= 13 JobTyp=22 DoJE=F Cont=F.
 PrismC:  IPart=    13 DynPar=T LinDyn=F Incr=        1024 UseFst=F UseS4=T ISplat=2.
 PrismC was handed    33455180 working-precision words and  3698 shell-pairs
 Enter PrismC:  IPart= 12 JobTyp=22 DoJE=F Cont=F.
 PrismC:  IPart=    12 DynPar=T LinDyn=F Incr=        1024 UseFst=F UseS4=T ISplat=2.
 PrismC was handed    33455180 working-precision words and  3698 shell-pairs
 Enter PrismC:  IPart=  1 JobTyp=22 DoJE=F Cont=F.
 Enter PrismC:  IPart=  7 JobTyp=22 DoJE=F Cont=F.
 PrismC:  IPart=     7 DynPar=T LinDyn=F Incr=        1024 UseFst=F UseS4=T ISplat=2.
 PrismC was handed    33455180 working-precision words and  3698 shell-pairs
 PrismC:  IPart=     1 DynPar=T LinDyn=F Incr=        1024 UseFst=F UseS4=T ISplat=2.
 PrismC was handed    33455180 working-precision words and  3698 shell-pairs
 Enter PrismC:  IPart=  5 JobTyp=22 DoJE=F Cont=F.
 PrismC:  IPart=     5 DynPar=T LinDyn=F Incr=        1024 UseFst=F UseS4=T ISplat=2.
 PrismC was handed    33455180 working-precision words and  3698 shell-pairs
 Enter PrismC:  IPart=  4 JobTyp=22 DoJE=F Cont=F.
 PrismC:  IPart=     4 DynPar=T LinDyn=F Incr=        1024 UseFst=F UseS4=T ISplat=2.
 PrismC was handed    33455180 working-precision words and  3698 shell-pairs
 Enter PrismC:  IPart= 16 JobTyp=22 DoJE=F Cont=F.
 PrismC:  IPart=    16 DynPar=T LinDyn=F Incr=        1024 UseFst=F UseS4=T ISplat=2.
 PrismC was handed    33455180 working-precision words and  3698 shell-pairs
 Enter PrismC:  IPart= 19 JobTyp=22 DoJE=F Cont=F.
 PrismC:  IPart=    19 DynPar=T LinDyn=F Incr=        1024 UseFst=F UseS4=T ISplat=2.
 PrismC was handed    33455180 working-precision words and  3698 shell-pairs
 Enter PrismC:  IPart=  2 JobTyp=22 DoJE=F Cont=F.
 PrismC:  IPart=     2 DynPar=T LinDyn=F Incr=        1024 UseFst=F UseS4=T ISplat=2.
 PrismC was handed    33455180 working-precision words and  3698 shell-pairs
 Enter PrismC:  IPart= 18 JobTyp=22 DoJE=F Cont=F.
 PrismC:  IPart=    18 DynPar=T LinDyn=F Incr=        1024 UseFst=F UseS4=T ISplat=2.
 PrismC was handed    33455180 working-precision words and  3698 shell-pairs
 IPart=  7 NShTot=      221356 NShNF=      221356 NShFF=           0 MinMC=       7
           NShCPU=      221356 NBCPU=        9570 AvBCPU=        23.1
           NShGPU=           0 NBGPU=           0 AvBGPU=         0.0
 IPart=  9 NShTot=      235005 NShNF=      235005 NShFF=           0 MinMC=       7
           NShCPU=      235005 NBCPU=        9933 AvBCPU=        23.7
           NShGPU=           0 NBGPU=           0 AvBGPU=         0.0
 IPart=  3 NShTot=      231216 NShNF=      231216 NShFF=           0 MinMC=       7
           NShCPU=      231216 NBCPU=       10138 AvBCPU=        22.8
           NShGPU=           0 NBGPU=           0 AvBGPU=         0.0
 IPart=  5 NShTot=      225837 NShNF=      225837 NShFF=           0 MinMC=       7
           NShCPU=      225837 NBCPU=        9626 AvBCPU=        23.5
           NShGPU=           0 NBGPU=           0 AvBGPU=         0.0
 IPart= 17 NShTot=      235029 NShNF=      235029 NShFF=           0 MinMC=       7
           NShCPU=      235029 NBCPU=        9818 AvBCPU=        23.9
           NShGPU=           0 NBGPU=           0 AvBGPU=         0.0
 IPart=  2 NShTot=      227688 NShNF=      227688 NShFF=           0 MinMC=       7
           NShCPU=      227688 NBCPU=        9578 AvBCPU=        23.8
           NShGPU=           0 NBGPU=           0 AvBGPU=         0.0
 IPart= 12 NShTot=      228845 NShNF=      228845 NShFF=           0 MinMC=       7
           NShCPU=      228845 NBCPU=        9588 AvBCPU=        23.9
           NShGPU=           0 NBGPU=           0 AvBGPU=         0.0
 IPart= 11 NShTot=      243376 NShNF=      243376 NShFF=           0 MinMC=       7
           NShCPU=      243376 NBCPU=       10415 AvBCPU=        23.4
           NShGPU=           0 NBGPU=           0 AvBGPU=         0.0
 IPart= 19 NShTot=      237851 NShNF=      237851 NShFF=           0 MinMC=       7
           NShCPU=      237851 NBCPU=       10180 AvBCPU=        23.4
           NShGPU=           0 NBGPU=           0 AvBGPU=         0.0
 IPart= 16 NShTot=      234044 NShNF=      234044 NShFF=           0 MinMC=       7
           NShCPU=      234044 NBCPU=        9288 AvBCPU=        25.2
           NShGPU=           0 NBGPU=           0 AvBGPU=         0.0
 IPart= 10 NShTot=      247193 NShNF=      247193 NShFF=           0 MinMC=       7
           NShCPU=      247193 NBCPU=       10183 AvBCPU=        24.3
           NShGPU=           0 NBGPU=           0 AvBGPU=         0.0
 IPart= 15 NShTot=      243987 NShNF=      243987 NShFF=           0 MinMC=       7
           NShCPU=      243987 NBCPU=        9820 AvBCPU=        24.8
           NShGPU=           0 NBGPU=           0 AvBGPU=         0.0
 IPart=  6 NShTot=      251643 NShNF=      251643 NShFF=           0 MinMC=       7
           NShCPU=      251643 NBCPU=        9909 AvBCPU=        25.4
           NShGPU=           0 NBGPU=           0 AvBGPU=         0.0
 IPart=  0 NShTot=      236728 NShNF=      236728 NShFF=           0 MinMC=       7
           NShCPU=      236728 NBCPU=        9962 AvBCPU=        23.8
           NShGPU=           0 NBGPU=           0 AvBGPU=         0.0
 IPart= 13 NShTot=      258724 NShNF=      258724 NShFF=           0 MinMC=       7
           NShCPU=      258724 NBCPU=       10560 AvBCPU=        24.5
           NShGPU=           0 NBGPU=           0 AvBGPU=         0.0
 IPart=  1 NShTot=      255589 NShNF=      255589 NShFF=           0 MinMC=       7
           NShCPU=      255589 NBCPU=       10360 AvBCPU=        24.7
           NShGPU=           0 NBGPU=           0 AvBGPU=         0.0
 IPart=  4 NShTot=      230987 NShNF=      230987 NShFF=           0 MinMC=       7
           NShCPU=      230987 NBCPU=        9817 AvBCPU=        23.5
           NShGPU=           0 NBGPU=           0 AvBGPU=         0.0
 IPart=  8 NShTot=      233323 NShNF=      233323 NShFF=           0 MinMC=       7
           NShCPU=      233323 NBCPU=        9959 AvBCPU=        23.4
           NShGPU=           0 NBGPU=           0 AvBGPU=         0.0
 IPart= 18 NShTot=      226375 NShNF=      226375 NShFF=           0 MinMC=       7
           NShCPU=      226375 NBCPU=       10274 AvBCPU=        22.0
           NShGPU=           0 NBGPU=           0 AvBGPU=         0.0
 IPart= 14 NShTot=      235454 NShNF=      235454 NShFF=           0 MinMC=       7
           NShCPU=      235454 NBCPU=       10000 AvBCPU=        23.5
           NShGPU=           0 NBGPU=           0 AvBGPU=         0.0
 CoulSu:  NxtVal=        7291905 LenVP=       33455181 MinMC=       7.
 ReadGW:  IGet=0 IStart=           1 Next=           1 LGW=           0.
 Remaining memory in FofDFT      639.93 Mw
 CkSvGd:  ISavGI=        -1 IRadAn=       5 IRASav=       5 ISavGd=        -1.
 CalDSu-InSpLW:  IPartL=    0 NPrtUS=   20 NPrtUL=    1 DoSpLW=F IThBeg=    0 IThEnd=   19 NThAct=   20.
 CalDSu:  NPrtUS=  20 ThrOK=T IAlg=1 NPAlg=2 DoDPD=T LenP=       35245 LenD1P=             0 GPUOK=F
          ISkipM=0 DoSpLW=F IThBeg=    0 IThEnd=   19.
 IPart=  0 IRanGd=          0 ScrnBf=T ScrnGd=T RCrit=4.00D+00 DoMicB=T.
 IPart= 15        13661 of        16218 points in      20 batches and      117 microbatches, Max-NSigAt=      11 Max-NSgAt2=      11
 IPart= 11        12036 of        13972 points in      16 batches and      101 microbatches, Max-NSigAt=      11 Max-NSgAt2=      11
 IPart=  9        10613 of        11576 points in      12 batches and       49 microbatches, Max-NSigAt=      11 Max-NSgAt2=      11
 IPart=  6        10984 of        11830 points in      11 batches and       65 microbatches, Max-NSigAt=      11 Max-NSgAt2=      11
 IPart= 19         7808 of         8344 points in       9 batches and       50 microbatches, Max-NSigAt=      11 Max-NSgAt2=      11
 IPart=  7        12006 of        12472 points in      11 batches and       39 microbatches, Max-NSigAt=      11 Max-NSgAt2=      11
 IPart= 17        10603 of        11308 points in      11 batches and       64 microbatches, Max-NSigAt=      11 Max-NSgAt2=      11
 IPart=  0        11094 of        11864 points in      12 batches and       75 microbatches, Max-NSigAt=      11 Max-NSgAt2=      11
 IPart=  8        11147 of        11856 points in      12 batches and       75 microbatches, Max-NSigAt=      11 Max-NSgAt2=      11
 IPart=  4        11471 of        12242 points in      12 batches and       65 microbatches, Max-NSigAt=      11 Max-NSgAt2=      11
 IPart= 13         9356 of         9702 points in       9 batches and       46 microbatches, Max-NSigAt=      11 Max-NSgAt2=      11
 IPart= 18        12583 of        13142 points in      12 batches and       46 microbatches, Max-NSigAt=      11 Max-NSgAt2=      11
 IPart= 14         9753 of        10700 points in      11 batches and       51 microbatches, Max-NSigAt=      11 Max-NSgAt2=      11
 IPart= 12        15147 of        17256 points in      19 batches and       57 microbatches, Max-NSigAt=      11 Max-NSgAt2=      11
 IPart=  1        10355 of        11226 points in      12 batches and       71 microbatches, Max-NSigAt=      11 Max-NSgAt2=      11
 IPart= 10         8945 of         9496 points in      10 batches and       54 microbatches, Max-NSigAt=      11 Max-NSgAt2=      11
 IPart=  2        10646 of        11984 points in      12 batches and       61 microbatches, Max-NSigAt=      11 Max-NSgAt2=      11
 IPart=  3         9323 of        10410 points in      11 batches and       82 microbatches, Max-NSigAt=      11 Max-NSgAt2=      11
 IPart=  5        12346 of        13870 points in      15 batches and       71 microbatches, Max-NSigAt=      11 Max-NSgAt2=      11
 IPart= 16        14669 of        16630 points in      18 batches and       84 microbatches, Max-NSigAt=      11 Max-NSgAt2=      11
 Polarizability after L703:
                1             2             3 
      1  0.000000D+00
      2  0.000000D+00  0.000000D+00
      3  0.000000D+00  0.000000D+00  0.000000D+00
 Dipole Derivatives after L703:
                 1             2             3             4             5 
      1  -0.165959D+00  0.443125D-01 -0.104552D+00  0.115965D+00  0.192961D+00
      2   0.133211D+00 -0.246582D+00 -0.593639D-01  0.552713D+00 -0.455119D+00
      3  -0.140712D+00 -0.484527D-02 -0.159371D+00  0.297225D+00 -0.207033D+00
                 6             7             8             9            10 
      1  -0.175245D+00 -0.998963D+00  0.357804D+00 -0.210979D+00 -0.456910D+00
      2  -0.374181D+00  0.536736D-01 -0.827487D+00  0.171934D-01  0.214680D-01
      3  -0.684232D+00 -0.793707D-01  0.215143D-01 -0.797780D+00  0.219864D+00
                11            12            13            14            15 
      1  -0.195837D+00  0.259054D+00 -0.694976D+00  0.196105D+00  0.229496D+00
      2  -0.711886D+00 -0.384400D+00 -0.353832D-01 -0.539811D+00  0.288469D-01
      3  -0.299478D+00 -0.174455D+00  0.142656D+00 -0.131089D-01  0.822284D-01
                16            17            18            19            20 
      1   0.957108D+00 -0.373463D+00 -0.468163D+00  0.207863D+00  0.140082D+00
      2  -0.330235D+00  0.270103D+00  0.157473D+00 -0.384192D-02  0.139454D+00
      3  -0.946046D-01  0.476640D-02  0.162302D+00  0.121249D+00  0.122962D+00
                21            22            23            24            25 
      1   0.601917D+00  0.760173D-02 -0.157463D+00  0.662703D-01  0.183076D+00
      2  -0.877238D-01  0.294588D+00  0.453296D+00  0.441696D-02  0.609872D-01
      3   0.586492D+00  0.854730D-02 -0.576414D-01  0.168039D+00 -0.321082D-03
                26            27            28            29            30 
      1   0.346037D-01 -0.621870D-02  0.887340D+00 -0.410346D+00 -0.400211D+00
      2   0.997636D+00  0.182848D+00 -0.293288D+00  0.358708D+00  0.193037D+00
      3   0.152974D+00  0.885280D-01 -0.200556D+00  0.141411D+00  0.209357D+00
                31            32            33 
      1  -0.421462D-01  0.171242D+00  0.208631D+00
      2  -0.453893D+00  0.561688D+00  0.321853D+00
      3  -0.273975D+00  0.138479D+00  0.518893D+00
 Hessian after L703:
                1             2             3             4             5 
      1  0.344357D+00
      2 -0.157606D+00  0.311729D+00
      3 -0.728318D-01 -0.841890D-01  0.221009D+00
      4  0.568594D-02 -0.854264D-03 -0.432339D-02  0.305921D+00
      5 -0.599116D-02  0.178095D-01  0.965210D-02  0.149410D-01  0.413679D+00
      6 -0.135167D-02  0.382699D-02 -0.329718D-02 -0.155230D+00  0.134228D+00
      7 -0.837564D-01  0.236787D-01 -0.142332D-02 -0.927612D-04  0.423305D-03
      8  0.397411D-01 -0.153948D+00  0.678304D-01  0.425624D-02 -0.107392D-01
      9 -0.228364D-01  0.830894D-01 -0.120288D+00 -0.602891D-03  0.317413D-02
     10 -0.210742D+00  0.728079D-01  0.646663D-01  0.294851D-03 -0.559381D-02
     11  0.496193D-01 -0.114100D+00 -0.127771D-01 -0.412635D-01 -0.533425D-01
     12  0.849287D-01 -0.311426D-01 -0.925627D-01 -0.732249D-02 -0.213711D-01
     13 -0.449959D-01 -0.171662D-02  0.117043D-01 -0.107254D+00 -0.642066D-01
     14  0.331949D-01 -0.293809D-02 -0.109077D-01 -0.299662D-01 -0.273146D+00
     15  0.260765D-01 -0.105989D-02 -0.222861D-04  0.182549D-01 -0.410519D-01
     16 -0.103993D-01  0.832706D-02  0.219656D-02 -0.537406D-03 -0.190940D-04
     17  0.285193D-01 -0.155113D-01 -0.891933D-02 -0.100804D-02  0.194714D-02
     18 -0.195379D-01  0.995973D-02  0.769860D-02 -0.131535D-03 -0.522302D-04
     19 -0.314750D-02  0.527464D-02 -0.122031D-01 -0.518539D-03  0.790399D-03
     20  0.126252D-01 -0.101257D-02  0.335000D-01 -0.449992D-03  0.557615D-03
     21 -0.871400D-02  0.101530D-01 -0.195440D-01  0.186626D-03 -0.822389D-03
     22  0.115692D-01  0.148302D-01 -0.150621D-02 -0.399293D-02  0.104360D-03
     23 -0.702973D-02 -0.312823D-01  0.110473D-01 -0.192092D-02  0.312211D-02
     24  0.105344D-01  0.232153D-01 -0.217226D-02 -0.814751D-03 -0.775490D-03
     25 -0.649925D-02  0.337969D-01  0.850356D-02 -0.371142D-02 -0.307987D-02
     26  0.961352D-02 -0.108551D-01 -0.442200D-02 -0.260634D-02  0.268341D-02
     27  0.638088D-02 -0.127254D-01  0.185227D-02  0.388421D-02 -0.191408D-02
     28 -0.231750D-02 -0.396798D-02  0.238591D-02  0.102111D-01 -0.443627D-02
     29 -0.406179D-02  0.473887D-03 -0.258061D-02  0.244219D-01 -0.233664D-01
     30  0.495084D-03 -0.225280D-02  0.968516D-02  0.471246D-02 -0.782827D-02
     31  0.245431D-03  0.542940D-02  0.283119D-02 -0.206006D+00  0.670677D-01
     32  0.137544D-02 -0.365189D-03  0.176601D-02  0.344501D-01 -0.792046D-01
     33 -0.314377D-02  0.112526D-02 -0.235870D-02  0.141386D+00 -0.732383D-01
                6             7             8             9            10 
      6  0.217105D+00
      7 -0.192149D-02  0.553545D+00
      8  0.218594D-02  0.442752D-01  0.509052D+00
      9 -0.929320D-03 -0.226669D-01  0.279928D-01  0.486587D+00
     10 -0.876270D-03 -0.269005D-01  0.242155D-01 -0.895386D-03  0.790751D+00
     11 -0.644818D-02  0.339827D-01 -0.286870D-01 -0.997999D-02  0.181637D+00
     12  0.109287D-01 -0.154795D-01 -0.157494D-02  0.752039D-02 -0.124240D+00
     13  0.905844D-02 -0.242069D-03 -0.539611D-02  0.275636D-02 -0.493348D+00
     14 -0.669987D-01  0.217806D-02  0.132992D-01 -0.473861D-02 -0.216902D+00
     15 -0.737312D-01 -0.460163D-03  0.518102D-02  0.261310D-03  0.592896D-01
     16 -0.631221D-03 -0.194383D+00  0.464678D-01  0.724192D-01  0.137282D-02
     17 -0.138327D-03  0.402929D-01 -0.712832D-01 -0.238846D-01  0.902158D-03
     18 -0.206311D-03  0.810704D-01 -0.308577D-01 -0.100231D+00 -0.181094D-03
[...]
     Eigenvalues ---    0.22138   0.23301   0.33222   0.33591   0.35088
     Eigenvalues ---    0.36355   0.37354   0.39844   0.45085   0.45698
     Eigenvalues ---    0.53342   0.66236
 Angle between quadratic step and forces=  43.08 degrees.
 Linear search not attempted -- first point.
 Iteration  1 RMS(Cart)=  0.00006791 RMS(Int)=  0.00000000
 Iteration  2 RMS(Cart)=  0.00000000 RMS(Int)=  0.00000000
 ITry= 1 IFail=0 DXMaxC= 1.49D-04 DCOld= 1.00D+10 DXMaxT= 3.00D-01 DXLimC= 3.00D+00 Rises=F
 Variable       Old X    -DE/DX   Delta X   Delta X   Delta X     New X
                                 (Linear)    (Quad)   (Total)
    R1        2.67120  -0.00000   0.00000  -0.00000  -0.00000   2.67120
    R2        2.59481  -0.00000   0.00000  -0.00000  -0.00000   2.59481
    R3        2.56333   0.00000   0.00000   0.00000   0.00000   2.56333
    R4        1.82347  -0.00000   0.00000  -0.00000  -0.00000   1.82347
    R5        2.05345  -0.00000   0.00000  -0.00000  -0.00000   2.05345
    R6        2.06653  -0.00000   0.00000  -0.00000  -0.00000   2.06653
    R7        2.06457  -0.00000   0.00000   0.00000   0.00000   2.06457
    R8        2.50502  -0.00000   0.00000  -0.00000  -0.00000   2.50502
    R9        2.04478  -0.00000   0.00000  -0.00000  -0.00000   2.04478
   R10        2.03835   0.00000   0.00000  -0.00000  -0.00000   2.03835
    A1        1.98208  -0.00000   0.00000   0.00001   0.00001   1.98208
    A2        1.87243  -0.00000   0.00000   0.00000   0.00000   1.87243
    A3        1.87229  -0.00000   0.00000   0.00000   0.00000   1.87229
    A4        1.93109   0.00000   0.00000   0.00000   0.00000   1.93110
    A5        1.93727   0.00000   0.00000   0.00000   0.00000   1.93727
    A6        1.90554  -0.00000   0.00000  -0.00000  -0.00000   1.90554
    A7        1.91450   0.00000   0.00000  -0.00000  -0.00000   1.91450
    A8        1.90277  -0.00000   0.00000  -0.00000  -0.00000   1.90277
    A9        2.08155  -0.00000   0.00000  -0.00000  -0.00000   2.08155
   A10        2.05343   0.00000   0.00000   0.00000   0.00000   2.05344
   A11        2.14729  -0.00000   0.00000  -0.00000  -0.00000   2.14729
   A12        2.16215  -0.00000   0.00000  -0.00000  -0.00000   2.16215
   A13        1.98815  -0.00000   0.00000   0.00000   0.00000   1.98815
   A14        2.13269   0.00000   0.00000   0.00000   0.00000   2.13269
    D1       -3.10489   0.00000   0.00000   0.00007   0.00007  -3.10483
    D2       -1.02795   0.00000   0.00000   0.00006   0.00006  -1.02788
    D3        1.08695   0.00000   0.00000   0.00007   0.00007   1.08701
    D4       -2.45344  -0.00000   0.00000  -0.00014  -0.00014  -2.45358
    D5        0.73266  -0.00000   0.00000  -0.00014  -0.00014   0.73252
    D6       -0.00099   0.00000   0.00000   0.00002   0.00002  -0.00098
    D7        3.11979   0.00000   0.00000   0.00002   0.00002   3.11981
    D8        0.03797   0.00000   0.00000   0.00000   0.00000   0.03797
    D9       -3.08114  -0.00000   0.00000  -0.00000  -0.00000  -3.08114
   D10        3.13254  -0.00000   0.00000   0.00000   0.00000   3.13254
   D11        0.01342  -0.00000   0.00000  -0.00000  -0.00000   0.01342
         Item               Value     Threshold  Converged?
 Maximum Force            0.000001     0.000015     YES
 RMS     Force            0.000000     0.000010     YES
 Maximum Displacement     0.000149     0.000060     NO 
 RMS     Displacement     0.000068     0.000040     NO 
 Predicted change in Energy=-1.036252D-10
                           ----------------------------
                           ! Non-Optimized Parameters !
                           ! (Angstroms and Degrees)  !
 --------------------------                            --------------------------
 ! Name  Definition              Value          Derivative Info.                !
 --------------------------------------------------------------------------------
 ! R1    R(1,3)                  1.4135         -DE/DX =    0.0                 !
 ! R2    R(1,4)                  1.3731         -DE/DX =    0.0                 !
 ! R3    R(2,5)                  1.3565         -DE/DX =    0.0                 !
 ! R4    R(2,11)                 0.9649         -DE/DX =    0.0                 !
 ! R5    R(3,6)                  1.0866         -DE/DX =    0.0                 !
 ! R6    R(3,7)                  1.0936         -DE/DX =    0.0                 !
 ! R7    R(3,8)                  1.0925         -DE/DX =    0.0                 !
 ! R8    R(4,5)                  1.3256         -DE/DX =    0.0                 !
 ! R9    R(4,9)                  1.0821         -DE/DX =    0.0                 !
 ! R10   R(5,10)                 1.0786         -DE/DX =    0.0                 !
 ! A1    A(3,1,4)              113.565          -DE/DX =    0.0                 !
 ! A2    A(5,2,11)             107.2822         -DE/DX =    0.0                 !
 ! A3    A(1,3,6)              107.2744         -DE/DX =    0.0                 !
 ! A4    A(1,3,7)              110.6436         -DE/DX =    0.0                 !
 ! A5    A(1,3,8)              110.9976         -DE/DX =    0.0                 !
 ! A6    A(6,3,7)              109.1795         -DE/DX =    0.0                 !
 ! A7    A(6,3,8)              109.6929         -DE/DX =    0.0                 !
 ! A8    A(7,3,8)              109.021          -DE/DX =    0.0                 !
 ! A9    A(1,4,5)              119.2639         -DE/DX =    0.0                 !
 ! A10   A(1,4,9)              117.6532         -DE/DX =    0.0                 !
 ! A11   A(5,4,9)              123.0306         -DE/DX =    0.0                 !
 ! A12   A(2,5,4)              123.8823         -DE/DX =    0.0                 !
 ! A13   A(2,5,10)             113.9126         -DE/DX =    0.0                 !
 ! A14   A(4,5,10)             122.194          -DE/DX =    0.0                 !
 ! D1    D(4,1,3,6)           -177.8935         -DE/DX =    0.0                 !
 ! D2    D(4,1,3,7)            -58.8933         -DE/DX =    0.0                 !
 ! D3    D(4,1,3,8)             62.2813         -DE/DX =    0.0                 !
 ! D4    D(3,1,4,5)           -140.5798         -DE/DX =    0.0                 !
 ! D5    D(3,1,4,9)             41.9703         -DE/DX =    0.0                 !
 ! D6    D(11,2,5,4)            -0.0559         -DE/DX =    0.0                 !
 ! D7    D(11,2,5,10)          178.752          -DE/DX =    0.0                 !
 ! D8    D(1,4,5,2)              2.1756         -DE/DX =    0.0                 !
 ! D9    D(1,4,5,10)          -176.5366         -DE/DX =    0.0                 !
 ! D10   D(9,4,5,2)            179.4813         -DE/DX =    0.0                 !
 ! D11   D(9,4,5,10)             0.769          -DE/DX =    0.0                 !
 --------------------------------------------------------------------------------
 GradGradGradGradGradGradGradGradGradGradGradGradGradGradGradGradGradGrad

 Leave Link  103 at Tue Sep 24 21:33:52 2019, MaxMem=   671088640 cpu:             203.8 elap:             104.6
 (Enter /shared/centos7/gaussian/g16/l9999.exe)

 ----------------------------------------------------------------------

 Electric dipole moment (input orientation):
 (Debye = 10**-18 statcoulomb cm , SI units = C m)
                  (au)            (Debye)         (10**-30 SI)
   Tot        0.864507D+00      0.219736D+01      0.732959D+01
   x         -0.600677D+00     -0.152677D+01     -0.509275D+01
   y         -0.122752D+00     -0.312005D+00     -0.104074D+01
   z          0.609501D+00      0.154920D+01      0.516756D+01

 Dipole polarizability, Alpha (input orientation).
 (esu units = cm**3 , SI units = C**2 m**2 J**-1)
 Alpha(0;0):
               (au)            (10**-24 esu)      (10**-40 SI)
   iso        0.445368D+02      0.659967D+01      0.734312D+01
   aniso      0.248245D+02      0.367861D+01      0.409300D+01
   xx         0.407218D+02      0.603435D+01      0.671411D+01
   yx         0.924583D+01      0.137009D+01      0.152443D+01
   yy         0.437363D+02      0.648105D+01      0.721114D+01
   zx        -0.894904D+01     -0.132611D+01     -0.147550D+01
   zy        -0.464745D+01     -0.688681D+00     -0.766261D+00
   zz         0.491523D+02      0.728362D+01      0.810412D+01

 ----------------------------------------------------------------------

 Dipole orientation:
     8          0.55132562         -1.14951223          1.04319422
     8         -0.89515862          0.59463704         -3.64261264
     6         -0.18141871         -1.27064988          3.60907529
     6          1.19372637          1.23924698          0.25947801
     6          0.50153074          2.00693717         -2.02233288
     1         -0.57516323         -3.23971827          4.03846965
     1          1.34173450         -0.60006100          4.83417339
     1         -1.87001696         -0.13295629          3.95072887
     1          2.32173186          2.38211240          1.52541706
     1          1.04578177          3.82413120         -2.76830316
     1         -1.24641635         -0.99143247         -2.81434263

 Electric dipole moment (dipole orientation):
 (Debye = 10**-18 statcoulomb cm , SI units = C m)
                  (au)            (Debye)         (10**-30 SI)
   Tot        0.864507D+00      0.219736D+01      0.732959D+01
   x          0.000000D+00      0.000000D+00      0.000000D+00
   y          0.000000D+00      0.000000D+00      0.000000D+00
   z          0.864507D+00      0.219736D+01      0.732959D+01

 Dipole polarizability, Alpha (dipole orientation).
 (esu units = cm**3 , SI units = C**2 m**2 J**-1)
 Alpha(0;0):
               (au)            (10**-24 esu)      (10**-40 SI)
   iso        0.445368D+02      0.659967D+01      0.734312D+01
   aniso      0.248245D+02      0.367861D+01      0.409300D+01
   xx         0.354939D+02      0.525965D+01      0.585215D+01
   yx         0.353597D+01      0.523977D+00      0.583003D+00
   yy         0.416209D+02      0.616758D+01      0.686236D+01
   zx         0.403084D+01      0.597309D+00      0.664596D+00
   zy        -0.774743D+01     -0.114805D+01     -0.127738D+01
   zz         0.564956D+02      0.837178D+01      0.931486D+01

 ----------------------------------------------------------------------

 Test job not archived.
 1\1\GINC-C0302\Freq\RM062X\CC-pVTZ\C3H6O2\HARMS.N\24-Sep-2019\0\\#P Ge
 om=AllCheck Guess=TCheck SCRF=Check Test GenChk RM062X/CC-pVTZ Freq\\G
 aussian input prepared by ASE\\0,1\O,-0.1392260481,-0.6963682116,0.505
 5400158\O,0.9815479602,0.612057226,-1.6434564294\C,-1.3569081692,-0.93
 00731818,1.1843104718\C,0.3194790529,0.5919783572,0.6288351142\C,0.872
 3768337,1.1860653466,-0.4192984523\H,-1.603860336,-1.9799457346,1.0517
 849895\H,-1.2500936222,-0.7180995819,2.2517999514\H,-2.1579202067,-0.3
 091173103,0.7763917215\H,0.2469200142,1.0599453716,1.6017587212\H,1.29
 74723495,2.1756983034,-0.360955414\H,0.5923256549,-0.2688094225,-1.582
 7680436\\Version=EM64L-G16RevA.03\State=1-A\HF=-268.3241864\RMSD=7.373
 e-09\RMSF=9.469e-07\ZeroPoint=0.0911285\Thermal=0.0969968\Dipole=-0.60
 06767,-0.1227522,0.6095008\DipoleDeriv=-0.8175974,-0.3881692,0.3747111
 ,-0.5916641,-1.0241436,0.4253963,0.2365676,0.0525902,-0.5659622,-0.343
 1789,-0.0000349,0.0459539,0.1549572,-0.362709,-0.5240647,0.2940396,-0.
 0340194,-1.2244956,0.7899169,0.2192017,-0.267284,0.083553,0.3249702,-0
 .0756455,-0.2621479,-0.1734863,0.5329767,-0.0612739,0.3175807,-0.04026
 49,0.5468912,0.7372679,-0.2311047,0.0630039,0.0412604,-0.0578132,-0.02
 50183,0.0647419,-0.1487946,-0.0728262,0.1301915,0.4206452,-0.353322,0.
 1162168,1.0770114,0.0246835,-0.035816,0.0326037,-0.0772779,-0.1059307,
 0.0074281,0.011367,-0.0267702,0.0558452,-0.0114746,-0.0463095,-0.04629
 44,0.0018377,0.0475045,-0.0650871,0.0363371,0.002785,-0.1608797,-0.108
 6878,-0.0012579,0.009917,0.1339882,-0.0002018,0.0246095,-0.05232,0.073
 73,-0.0084977,0.1521187,-0.0126584,0.0196057,-0.0786788,0.0035627,-0.0
 040858,0.0146072,-0.0724039,-0.0404739,0.1134425,-0.0737903,0.0094309,
 -0.0545797,0.0006516,-0.0441196,0.0228417,-0.0230481,0.054242,0.287069
 2,-0.0434883,0.0104158,-0.0462005,0.2488366,0.0660283,-0.0109743,0.043
 1456,0.338047\Polar=40.7217826,9.2458274,43.7362653,-8.9490406,-4.6474
 485,49.1522793\Quadrupole=-0.3891101,1.106075,-0.7169649,1.7272617,-0.
 1088865,1.5266135\PG=C01 [X(C3H6O2)]\NImag=0\\0.35330659,0.14632504,0.
 42018135,-0.14537044,0.01570911,0.19770877,-0.00553896,0.00483467,-0.0
 0152422,0.13736964,0.00494263,0.01266727,0.00463343,0.19718112,0.56193
 163,0.00191271,0.01176259,0.00517128,-0.07022572,0.08595183,0.40147076
 ,-0.19981221,-0.03345816,0.07736436,0.00007787,-0.00030023,-0.00427521
 ,0.50725667,-0.00278782,-0.08307642,-0.00949319,0.00024072,0.00032164,
 -0.00096877,-0.00228567,0.62451018,0.08605255,0.00982775,-0.11243055,-
 0.00022778,0.00401055,0.00340318,0.04060127,0.01618473,0.55098785,-0.0
 8602793,-0.05755848,0.02046533,0.01193967,-0.00315916,0.00860718,-0.02
 340016,-0.04320606,-0.00016410,0.28038223,-0.09018551,-0.27856180,-0.0
 2222553,0.00772848,0.00190712,-0.03749995,-0.01927861,-0.02224272,0.00
 806732,0.20558341,0.57613777,0.01254484,-0.03820834,-0.08604979,0.0206
 8685,-0.00312607,-0.06415713,0.00629227,0.02375318,-0.00036957,-0.2308
 1503,-0.02503860,0.81942936,-0.00193651,-0.01964233,0.01516202,-0.0607
 9950,-0.00791541,0.04353729,0.00161398,-0.00164963,-0.00005473,-0.1488
 1583,-0.10997153,0.15889631,0.29578039,-0.03652952,-0.05285747,0.03390
 866,-0.02236188,-0.14087683,-0.06859197,0.00594064,-0.00278562,-0.0067
 4046,-0.09831530,-0.18316391,0.14579544,0.26277658,0.69711666,-0.00333
 621,-0.00989421,0.00490414,0.02563018,-0.11409407,-0.29397981,0.001860
 27,-0.00319846,-0.00411544,0.16777090,0.17524883,-0.38178859,-0.200575
 55,-0.04482556,0.74717382,-0.01578723,-0.03617586,-0.00068990,-0.00010
 273,0.00044110,0.00044406,-0.05890795,-0.04390849,-0.00770954,-0.00362
 025,0.00058030,0.00408257,-0.00053831,-0.00197385,-0.00107488,0.071735
 54,-0.00442948,-0.00417513,0.00141015,0.00001895,0.00039135,0.00081597
 ,-0.05597253,-0.31042140,-0.03590540,-0.00099308,0.00215437,0.00142637
 ,-0.00017425,-0.00027351,-0.00118166,0.06430028,0.33159380,0.00925211,
 0.02082485,0.00112739,0.00003135,-0.00031316,-0.00016386,-0.01127964,-
 0.04249965,-0.05616081,0.00246776,-0.00055318,-0.00173764,0.00018827,0
 .00107286,0.00101004,0.00260629,0.03771688,0.05550733,-0.00927457,0.00
 124903,0.04140091,0.00006404,-0.00070993,0.00014792,-0.05536177,-0.008
 86296,-0.04213339,0.00236956,0.00541066,0.00211084,-0.00048237,-0.0002
 8948,0.00017248,-0.00009398,0.00024334,-0.00605717,0.06345276,-0.00193
 428,0.00192307,0.00637100,0.00008337,-0.00035111,-0.00019820,-0.006345
 12,-0.06409012,-0.05127950,0.00070544,0.00237893,0.00314962,-0.0000308
 2,-0.00000112,0.00010959,-0.00452537,-0.00388143,-0.03051046,0.0086904
 3,0.05914056,0.01459900,0.00093208,-0.01900502,0.00026449,0.00016640,0
 .00016976,-0.03658203,-0.04921630,-0.28886553,-0.00187770,-0.00382077,
 0.00057743,0.00014880,0.00094540,-0.00000253,-0.00177323,-0.00064174,-
 0.00208392,0.02818897,0.05404571,0.31995286,-0.03890370,0.01040083,0.0
 0047835,-0.00001482,0.00035948,0.00053452,-0.17468924,0.10230541,-0.07
 372919,0.00293377,0.00570488,-0.00025383,-0.00014131,-0.00176265,0.000
 04025,0.00729410,-0.00327475,0.00263982,-0.00095359,0.00324044,-0.0032
 9768,0.20515079,-0.00725435,0.00656272,-0.00316333,-0.00034892,-0.0005
 1023,-0.00099660,0.10775231,-0.14266918,0.06014625,-0.00036600,0.00299
 075,-0.00203916,0.00044738,0.00071292,0.00176161,0.02167238,-0.0152509
 9,0.01352884,-0.00560528,0.00468287,-0.00369565,-0.11663921,0.14353385
 ,0.02227658,-0.00950218,0.00811744,0.00012391,-0.00031448,-0.00036751,
 -0.07748347,0.06186315,-0.09537631,-0.00089966,-0.00259484,0.00080342,
 -0.00041949,0.00035189,-0.00015248,0.00404412,-0.00370427,0.00249794,-
 0.02207269,0.01908303,-0.01121666,0.07433987,-0.06553555,0.09604762,-0
 .00025406,-0.00878637,-0.00850126,0.00745825,-0.00592307,0.00309447,0.
 00216407,-0.00029522,-0.00333132,-0.03530586,-0.00010527,0.02707756,0.
 00073369,0.00983611,0.01031501,-0.00007961,0.00029646,0.00017325,0.000
 44111,0.00023108,0.00055823,-0.00047693,-0.00009613,-0.00003974,0.0292
 9465,-0.00456205,-0.02435459,-0.02829848,-0.00524981,0.00125818,0.0029
 4579,0.00430777,0.00138262,-0.00359704,-0.00017950,-0.09829372,-0.1065
 5775,0.00157410,0.00994310,0.01231514,-0.00006908,0.00007880,0.0004786
 5,-0.00028032,0.00020794,0.00139420,-0.00047755,-0.00003639,0.00035950
 ,0.00353618,0.11141972,-0.00129530,-0.00323783,0.00197285,0.00456662,0
 .00161867,0.00005791,0.00107338,0.00103390,0.00234595,0.02879089,-0.10
 758000,-0.29187768,-0.00237983,-0.01296939,-0.01507560,-0.00029042,0.0
 0012887,0.00025009,-0.00106097,-0.00071828,-0.00000999,-0.00035942,-0.
 00007268,-0.00043213,-0.02789822,0.12039538,0.30252903,0.00620600,-0.0
 0609653,0.00329585,0.00341816,0.00461762,-0.00008094,0.00183248,0.0007
 6721,0.00039984,-0.00179060,-0.00856868,-0.00421066,-0.08810361,-0.118
 44918,0.00199642,0.00009346,0.00008672,-0.00008884,-0.00027404,-0.0001
 3826,0.00007012,-0.00008604,0.00027728,-0.00006202,-0.00342623,0.00174
 582,-0.00082637,0.08033957,-0.00376479,0.00451637,0.00082884,-0.004589
 12,-0.01290368,-0.00581888,-0.00017403,-0.00094315,-0.00015137,-0.0028
 5719,-0.00810776,-0.00370125,-0.11556108,-0.30174777,-0.00868754,-0.00
 022881,-0.00004397,0.00014126,0.00002396,0.00002986,0.00006556,0.00001
 581,-0.00012251,-0.00000384,0.00132889,-0.00053909,0.00102620,0.125557
 46,0.31813016,0.00507706,-0.00034183,-0.00334128,-0.01343143,-0.034648
 14,-0.00462588,-0.00032389,0.00137715,0.00026611,0.00677008,0.02140834
 ,0.00900332,0.00334772,-0.00403560,-0.05541581,0.00044964,0.00007679,-
 0.00027881,0.00006669,0.00001038,-0.00010640,0.00005735,0.00002950,0.0
 0000493,-0.00098577,0.00011576,-0.00037013,-0.00197236,0.01855531,0.06
 015163,-0.00197743,-0.00109182,-0.00208100,-0.09387163,-0.18953414,0.0
 1630371,-0.00077374,-0.00031749,0.00029639,0.00133539,0.00310187,0.003
 58828,0.00268939,0.00112853,-0.00279887,0.00000695,-0.00010166,0.00006
 681,0.00011285,0.00002309,-0.00029896,-0.00011304,0.00016055,0.0001925
 8,-0.00054909,-0.00034555,-0.00032037,0.00179084,0.00024889,0.00094492
 ,0.09134949,0.00018014,-0.00282535,0.00031935,-0.17753759,-0.42383533,
 0.01259821,-0.00018636,0.00001417,-0.00056282,0.00034591,0.00480098,0.
 00454655,-0.00985300,-0.02606644,-0.00755368,-0.00011260,-0.00017189,0
 .00011311,0.00013055,-0.00003945,-0.00017488,0.00012732,0.00010618,-0.
 00000240,-0.00002266,-0.00106657,0.00037517,0.00020055,0.00173156,-0.0
 0254767,0.18672773,0.44735214,-0.00171290,0.00212802,0.00182477,0.0341
 0573,0.05611505,-0.04697872,0.00275269,0.00116427,0.00031513,-0.001115
 67,-0.00541162,-0.00383312,-0.01785083,-0.04491127,-0.00255773,-0.0000
 8870,-0.00014195,0.00003224,-0.00076359,-0.00006288,0.00058999,-0.0004
 5002,0.00003675,0.00007375,-0.00046220,0.00044886,0.00060972,0.0014789
 7,-0.00225429,-0.00528769,-0.01589348,-0.00711094,0.05521167\\-0.00000
 007,-0.00000083,0.00000011,-0.00000123,0.00000127,0.00000004,-0.000000
 64,0.00000037,-0.00000046,0.00000060,-0.00000015,-0.00000043,0.0000002
 9,-0.00000015,-0.00000051,-0.00000137,0.00000052,-0.00000097,0.0000008
 6,-0.00000098,0.00000020,0.,0.00000146,0.00000125,0.00000202,-0.000001
 68,0.00000080,0.00000129,-0.00000084,0.00000087,-0.00000175,0.00000101
 ,-0.00000090\\\@


 IT IS A PROFOUNDLY ERRONEOUS TRUISM ... THAT WE SHOULD CULTIVATE
 THE HABIT OF THINKING OF WHAT WE ARE DOING.
 THE PRECISE OPPOSITE IS THE CASE.
 CIVILIZATION ADVANCES BY EXTENDING THE NUMBER OF IMPORTANT OPERATIONS
 WHICH WE CAN PERFORM WITHOUT THINKING ABOUT THEM.

                                    -- ALFRED NORTH WHITEHEAD
 Job cpu time:       0 days  1 hours  9 minutes  5.3 seconds.
 Elapsed time:       0 days  0 hours 34 minutes 36.9 seconds.
 File lengths (MBytes):  RWF=   1312 Int=      0 D2E=      0 Chk=     32 Scr=     32
 Normal termination of Gaussian 16 at Tue Sep 24 21:33:53 2019.
