 Entering Gaussian System, Link 0=g16
 Input=med/species/CCCCCCC/conformers/CCCCCCC_999.com
 Output=med/species/CCCCCCC/conformers/CCCCCCC_999.log
 Initial command:
 /shared/centos7/gaussian/g16/l1.exe "/scratch/harms.n/gauss_scrdir/Gau-34380.inp" -scrdir="/scratch/harms.n/gauss_scrdir/"
 Entering Link 1 = /shared/centos7/gaussian/g16/l1.exe PID=     34381.
  
 Copyright (c) 1988,1990,1992,1993,1995,1998,2003,2009,2016,
            Gaussian, Inc.  All Rights Reserved.
  
 This is part of the Gaussian(R) 16 program.  It is based on
 the Gaussian(R) 09 system (copyright 2009, Gaussian, Inc.),
 the Gaussian(R) 03 system (copyright 2003, Gaussian, Inc.),
 the Gaussian(R) 98 system (copyright 1998, Gaussian, Inc.),
 the Gaussian(R) 94 system (copyright 1995, Gaussian, Inc.),
 the Gaussian 92(TM) system (copyright 1992, Gaussian, Inc.),
 the Gaussian 90(TM) system (copyright 1990, Gaussian, Inc.),
 the Gaussian 88(TM) system (copyright 1988, Gaussian, Inc.),
 the Gaussian 86(TM) system (copyright 1986, Carnegie Mellon
 University), and the Gaussian 82(TM) system (copyright 1983,
 Carnegie Mellon University). Gaussian is a federally registered
 trademark of Gaussian, Inc.
  
 This software contains proprietary and confidential information,
 including trade secrets, belonging to Gaussian, Inc.
  
 This software is provided under written license and may be
 used, copied, transmitted, or stored only in accord with that
 written license.
  
 The following legend is applicable only to US Government
 contracts under FAR:
  
                    RESTRICTED RIGHTS LEGEND
  
 Use, reproduction and disclosure by the US Government is
 subject to restrictions as set forth in subparagraphs (a)
 and (c) of the Commercial Computer Software - Restricted
 Rights clause in FAR 52.227-19.
  
 Gaussian, Inc.
 340 Quinnipiac St., Bldg. 40, Wallingford CT 06492
  
  
 ---------------------------------------------------------------
 Warning -- This program may not be used in any manner that
 competes with the business of Gaussian, Inc. or will provide
 assistance to any competitor of Gaussian, Inc.  The licensee
 of this program is prohibited from giving any competitor of
 Gaussian, Inc. access to this program.  By using this program,
 the user acknowledges that Gaussian, Inc. is engaged in the
 business of creating and licensing software in the field of
 computational chemistry and represents and warrants to the
 licensee that it is not a competitor of Gaussian, Inc. and that
 it will not use this program in any manner prohibited above.
 ---------------------------------------------------------------
  

 Cite this work as:
 Gaussian 16, Revision A.03,
 M. J. Frisch, G. W. Trucks, H. B. Schlegel, G. E. Scuseria, 
 M. A. Robb, J. R. Cheeseman, G. Scalmani, V. Barone, 
 G. A. Petersson, H. Nakatsuji, X. Li, M. Caricato, A. V. Marenich, 
 J. Bloino, B. G. Janesko, R. Gomperts, B. Mennucci, H. P. Hratchian, 
 J. V. Ortiz, A. F. Izmaylov, J. L. Sonnenberg, D. Williams-Young, 
 F. Ding, F. Lipparini, F. Egidi, J. Goings, B. Peng, A. Petrone, 
 T. Henderson, D. Ranasinghe, V. G. Zakrzewski, J. Gao, N. Rega, 
 G. Zheng, W. Liang, M. Hada, M. Ehara, K. Toyota, R. Fukuda, 
 J. Hasegawa, M. Ishida, T. Nakajima, Y. Honda, O. Kitao, H. Nakai, 
 T. Vreven, K. Throssell, J. A. Montgomery, Jr., J. E. Peralta, 
 F. Ogliaro, M. J. Bearpark, J. J. Heyd, E. N. Brothers, K. N. Kudin, 
 V. N. Staroverov, T. A. Keith, R. Kobayashi, J. Normand, 
 K. Raghavachari, A. P. Rendell, J. C. Burant, S. S. Iyengar, 
 J. Tomasi, M. Cossi, J. M. Millam, M. Klene, C. Adamo, R. Cammi, 
 J. W. Ochterski, R. L. Martin, K. Morokuma, O. Farkas, 
 J. B. Foresman, and D. J. Fox, Gaussian, Inc., Wallingford CT, 2016.
 
 ******************************************
 Gaussian 16:  EM64L-G16RevA.03 25-Dec-2016
                28-Sep-2019 
 ******************************************
 %nprocshared=20
 Will use up to   20 processors via shared memory.
 %mem=5GB
 ----------------------------------------------------------------------
 #p m062x/cc-pVTZ opt=(calcfc,maxcycles=900,Tight) freq IOP(7/33=1,2/16
 =3) scf=(maxcycle=900)
 ----------------------------------------------------------------------
 1/6=900,7=10,10=4,18=20,19=15,26=3,38=1/1,3;
 2/9=110,12=2,16=3,17=6,18=5,40=1/2;
 3/5=16,6=1,11=2,25=1,30=1,71=2,74=-55,140=1/1,2,3;
 4//1;
 5/5=2,7=900,38=5/2;
 8/6=4,10=90,11=11/1;
 11/6=1,8=1,9=11,15=111,16=1/1,2,10;
 10/6=1,13=1/2;
 6/7=2,8=2,9=2,10=2,28=1/1;
 7/10=1,18=20,25=1,33=1/1,2,3,16;
 1/6=900,7=10,10=4,18=20,19=15,26=3/3(2);
 2/9=110,16=3/2;
 99//99;
 2/9=110,16=3/2;
 3/5=16,6=1,11=2,25=1,30=1,71=1,74=-55/1,2,3;
 4/5=5,16=3,69=1/1;
 5/5=2,7=900,38=5/2;
 7/33=1/1,2,3,16;
 1/6=900,7=10,18=20,19=15,26=3/3(-5);
 2/9=110,16=3/2;
 6/7=2,8=2,9=2,10=2,19=2,28=1/1;
 99/9=1/99;
 Leave Link    1 at Sat Sep 28 01:51:43 2019, MaxMem=   671088640 cpu:               4.3 elap:               2.2
 (Enter /shared/centos7/gaussian/g16/l101.exe)
 ------------------------------
 Gaussian input prepared by ASE
 ------------------------------
 Symbolic Z-matrix:
 Charge =  0 Multiplicity = 1
 C                     1.38686  -1.13577   0.5249 
 C                     0.1609   -0.39201   0.93211 
 C                     0.0905   -0.0942    2.40905 
 C                     2.16714  -0.50996  -0.58169 
 C                    -1.1225   -0.70169   3.07335 
 C                     2.66661   0.85378  -0.33609 
 C                    -2.05191   0.31301   3.68696 
 H                     1.52795  -0.50878  -1.50936 
 H                     3.022    -1.18645  -0.82115 
 H                     1.09677  -2.15719   0.19915 
 H                     2.04808  -1.28581   1.40292 
 H                    -0.72569  -0.97742   0.6424 
 H                     0.07203   0.558     0.36391 
 H                     0.10294   0.99755   2.56729 
 H                     1.00975  -0.46661   2.90647 
 H                    -1.68496  -1.30274   2.31184 
 H                    -0.8106   -1.42773   3.84331 
 H                     2.36885   1.24574   0.65466 
 H                     3.79538   0.88571  -0.38507 
 H                     2.29009   1.56779  -1.09893 
 H                    -2.07021   1.23729   3.10821 
 H                    -1.74109   0.56946   4.73742 
 H                    -3.10596  -0.08511   3.73562 
 
 ITRead=  0  0  0  0  0  0  0  0  0  0  0  0  0  0  0  0  0  0  0  0
 ITRead=  0  0  0
 MicOpt= -1 -1 -1 -1 -1 -1 -1 -1 -1 -1 -1 -1 -1 -1 -1 -1 -1 -1 -1 -1
 MicOpt= -1 -1 -1
 NAtoms=     23 NQM=       23 NQMF=       0 NMMI=      0 NMMIF=      0
                NMic=       0 NMicF=      0.
                    Isotopes and Nuclear Properties:
 (Nuclear quadrupole moments (NQMom) in fm**2, nuclear magnetic moments (NMagM)
  in nuclear magnetons)

  Atom         1           2           3           4           5           6           7           8           9          10
 IAtWgt=          12          12          12          12          12          12          12           1           1           1
 AtmWgt=  12.0000000  12.0000000  12.0000000  12.0000000  12.0000000  12.0000000  12.0000000   1.0078250   1.0078250   1.0078250
 NucSpn=           0           0           0           0           0           0           0           1           1           1
 AtZEff=  -0.0000000  -0.0000000  -0.0000000  -0.0000000  -0.0000000  -0.0000000  -0.0000000  -0.0000000  -0.0000000  -0.0000000
 NQMom=    0.0000000   0.0000000   0.0000000   0.0000000   0.0000000   0.0000000   0.0000000   0.0000000   0.0000000   0.0000000
 NMagM=    0.0000000   0.0000000   0.0000000   0.0000000   0.0000000   0.0000000   0.0000000   2.7928460   2.7928460   2.7928460
 AtZNuc=   6.0000000   6.0000000   6.0000000   6.0000000   6.0000000   6.0000000   6.0000000   1.0000000   1.0000000   1.0000000

  Atom        11          12          13          14          15          16          17          18          19          20
 IAtWgt=           1           1           1           1           1           1           1           1           1           1
 AtmWgt=   1.0078250   1.0078250   1.0078250   1.0078250   1.0078250   1.0078250   1.0078250   1.0078250   1.0078250   1.0078250
 NucSpn=           1           1           1           1           1           1           1           1           1           1
 AtZEff=  -0.0000000  -0.0000000  -0.0000000  -0.0000000  -0.0000000  -0.0000000  -0.0000000  -0.0000000  -0.0000000  -0.0000000
 NQMom=    0.0000000   0.0000000   0.0000000   0.0000000   0.0000000   0.0000000   0.0000000   0.0000000   0.0000000   0.0000000
 NMagM=    2.7928460   2.7928460   2.7928460   2.7928460   2.7928460   2.7928460   2.7928460   2.7928460   2.7928460   2.7928460
 AtZNuc=   1.0000000   1.0000000   1.0000000   1.0000000   1.0000000   1.0000000   1.0000000   1.0000000   1.0000000   1.0000000

  Atom        21          22          23
 IAtWgt=           1           1           1
 AtmWgt=   1.0078250   1.0078250   1.0078250
 NucSpn=           1           1           1
 AtZEff=  -0.0000000  -0.0000000  -0.0000000
 NQMom=    0.0000000   0.0000000   0.0000000
 NMagM=    2.7928460   2.7928460   2.7928460
 AtZNuc=   1.0000000   1.0000000   1.0000000
 Leave Link  101 at Sat Sep 28 01:51:44 2019, MaxMem=   671088640 cpu:               2.6 elap:               1.3
 (Enter /shared/centos7/gaussian/g16/l103.exe)

 GradGradGradGradGradGradGradGradGradGradGradGradGradGradGradGradGradGrad
 Berny optimization.
 Initialization pass.
                           ----------------------------
                           !    Initial Parameters    !
                           ! (Angstroms and Degrees)  !
 --------------------------                            --------------------------
 ! Name  Definition              Value          Derivative Info.                !
 --------------------------------------------------------------------------------
 ! R1    R(1,2)                  1.4906         calculate D2E/DX2 analytically  !
 ! R2    R(1,4)                  1.4917         calculate D2E/DX2 analytically  !
 ! R3    R(1,10)                 1.1107         calculate D2E/DX2 analytically  !
 ! R4    R(1,11)                 1.1093         calculate D2E/DX2 analytically  !
 ! R5    R(2,3)                  1.5083         calculate D2E/DX2 analytically  !
 ! R6    R(2,12)                 1.1012         calculate D2E/DX2 analytically  !
 ! R7    R(2,13)                 1.1105         calculate D2E/DX2 analytically  !
 ! R8    R(3,5)                  1.5105         calculate D2E/DX2 analytically  !
 ! R9    R(3,14)                 1.1032         calculate D2E/DX2 analytically  !
 ! R10   R(3,15)                 1.1096         calculate D2E/DX2 analytically  !
 ! R11   R(4,6)                  1.473          calculate D2E/DX2 analytically  !
 ! R12   R(4,8)                  1.1266         calculate D2E/DX2 analytically  !
 ! R13   R(4,9)                  1.1161         calculate D2E/DX2 analytically  !
 ! R14   R(5,7)                  1.5066         calculate D2E/DX2 analytically  !
 ! R15   R(5,16)                 1.1214         calculate D2E/DX2 analytically  !
 ! R16   R(5,17)                 1.1033         calculate D2E/DX2 analytically  !
 ! R17   R(6,18)                 1.1063         calculate D2E/DX2 analytically  !
 ! R18   R(6,19)                 1.1303         calculate D2E/DX2 analytically  !
 ! R19   R(6,20)                 1.1106         calculate D2E/DX2 analytically  !
 ! R20   R(7,21)                 1.0907         calculate D2E/DX2 analytically  !
 ! R21   R(7,22)                 1.1251         calculate D2E/DX2 analytically  !
 ! R22   R(7,23)                 1.1278         calculate D2E/DX2 analytically  !
 ! A1    A(2,1,4)              115.0589         calculate D2E/DX2 analytically  !
 ! A2    A(2,1,10)             108.9157         calculate D2E/DX2 analytically  !
 ! A3    A(2,1,11)             109.9674         calculate D2E/DX2 analytically  !
 ! A4    A(4,1,10)             107.7506         calculate D2E/DX2 analytically  !
 ! A5    A(4,1,11)             109.3972         calculate D2E/DX2 analytically  !
 ! A6    A(10,1,11)            105.2736         calculate D2E/DX2 analytically  !
 ! A7    A(1,2,3)              113.8538         calculate D2E/DX2 analytically  !
 ! A8    A(1,2,12)             108.9676         calculate D2E/DX2 analytically  !
 ! A9    A(1,2,13)             110.6635         calculate D2E/DX2 analytically  !
 ! A10   A(3,2,12)             108.965          calculate D2E/DX2 analytically  !
 ! A11   A(3,2,13)             109.1697         calculate D2E/DX2 analytically  !
 ! A12   A(12,2,13)            104.8172         calculate D2E/DX2 analytically  !
 ! A13   A(2,3,5)              112.8743         calculate D2E/DX2 analytically  !
 ! A14   A(2,3,14)             109.5917         calculate D2E/DX2 analytically  !
 ! A15   A(2,3,15)             109.5143         calculate D2E/DX2 analytically  !
 ! A16   A(5,3,14)             110.1181         calculate D2E/DX2 analytically  !
 ! A17   A(5,3,15)             109.4607         calculate D2E/DX2 analytically  !
 ! A18   A(14,3,15)            104.9805         calculate D2E/DX2 analytically  !
 ! A19   A(1,4,6)              116.239          calculate D2E/DX2 analytically  !
 ! A20   A(1,4,8)              108.332          calculate D2E/DX2 analytically  !
 ! A21   A(1,4,9)              107.7898         calculate D2E/DX2 analytically  !
 ! A22   A(6,4,8)              109.1915         calculate D2E/DX2 analytically  !
 ! A23   A(6,4,9)              109.7078         calculate D2E/DX2 analytically  !
 ! A24   A(8,4,9)              104.9832         calculate D2E/DX2 analytically  !
 ! A25   A(3,5,7)              113.8055         calculate D2E/DX2 analytically  !
 ! A26   A(3,5,16)             108.6439         calculate D2E/DX2 analytically  !
 ! A27   A(3,5,17)             110.1539         calculate D2E/DX2 analytically  !
 ! A28   A(7,5,16)             109.1561         calculate D2E/DX2 analytically  !
 ! A29   A(7,5,17)             109.4732         calculate D2E/DX2 analytically  !
 ! A30   A(16,5,17)            105.2475         calculate D2E/DX2 analytically  !
 ! A31   A(4,6,18)             112.7117         calculate D2E/DX2 analytically  !
 ! A32   A(4,6,19)             110.9504         calculate D2E/DX2 analytically  !
 ! A33   A(4,6,20)             111.4531         calculate D2E/DX2 analytically  !
 ! A34   A(18,6,19)            107.3126         calculate D2E/DX2 analytically  !
 ! A35   A(18,6,20)            107.2236         calculate D2E/DX2 analytically  !
 ! A36   A(19,6,20)            106.8963         calculate D2E/DX2 analytically  !
 ! A37   A(5,7,21)             111.4058         calculate D2E/DX2 analytically  !
 ! A38   A(5,7,22)             111.306          calculate D2E/DX2 analytically  !
 ! A39   A(5,7,23)             110.8781         calculate D2E/DX2 analytically  !
 ! A40   A(21,7,22)            107.8727         calculate D2E/DX2 analytically  !
 ! A41   A(21,7,23)            107.8406         calculate D2E/DX2 analytically  !
 ! A42   A(22,7,23)            107.3603         calculate D2E/DX2 analytically  !
 ! D1    D(4,1,2,3)           -126.8377         calculate D2E/DX2 analytically  !
 ! D2    D(4,1,2,12)           111.3108         calculate D2E/DX2 analytically  !
 ! D3    D(4,1,2,13)            -3.4375         calculate D2E/DX2 analytically  !
 ! D4    D(10,1,2,3)           112.0986         calculate D2E/DX2 analytically  !
 ! D5    D(10,1,2,12)           -9.7529         calculate D2E/DX2 analytically  !
 ! D6    D(10,1,2,13)         -124.5012         calculate D2E/DX2 analytically  !
 ! D7    D(11,1,2,3)            -2.7854         calculate D2E/DX2 analytically  !
 ! D8    D(11,1,2,12)         -124.6369         calculate D2E/DX2 analytically  !
 ! D9    D(11,1,2,13)          120.6148         calculate D2E/DX2 analytically  !
 ! D10   D(2,1,4,6)             59.2132         calculate D2E/DX2 analytically  !
 ! D11   D(2,1,4,8)            -64.1128         calculate D2E/DX2 analytically  !
 ! D12   D(2,1,4,9)           -177.2137         calculate D2E/DX2 analytically  !
 ! D13   D(10,1,4,6)          -179.0901         calculate D2E/DX2 analytically  !
 ! D14   D(10,1,4,8)            57.5839         calculate D2E/DX2 analytically  !
 ! D15   D(10,1,4,9)           -55.517          calculate D2E/DX2 analytically  !
 ! D16   D(11,1,4,6)           -65.1392         calculate D2E/DX2 analytically  !
 ! D17   D(11,1,4,8)           171.5348         calculate D2E/DX2 analytically  !
 ! D18   D(11,1,4,9)            58.4339         calculate D2E/DX2 analytically  !
 ! D19   D(1,2,3,5)           -120.1098         calculate D2E/DX2 analytically  !
 ! D20   D(1,2,3,14)           116.7688         calculate D2E/DX2 analytically  !
 ! D21   D(1,2,3,15)             2.1087         calculate D2E/DX2 analytically  !
 ! D22   D(12,2,3,5)             1.7431         calculate D2E/DX2 analytically  !
 ! D23   D(12,2,3,14)         -121.3783         calculate D2E/DX2 analytically  !
 ! D24   D(12,2,3,15)          123.9616         calculate D2E/DX2 analytically  !
 ! D25   D(13,2,3,5)           115.6816         calculate D2E/DX2 analytically  !
 ! D26   D(13,2,3,14)           -7.4397         calculate D2E/DX2 analytically  !
 ! D27   D(13,2,3,15)         -122.0999         calculate D2E/DX2 analytically  !
 ! D28   D(2,3,5,7)           -118.6119         calculate D2E/DX2 analytically  !
 ! D29   D(2,3,5,16)             3.2158         calculate D2E/DX2 analytically  !
 ! D30   D(2,3,5,17)           118.0179         calculate D2E/DX2 analytically  !
 ! D31   D(14,3,5,7)             4.2165         calculate D2E/DX2 analytically  !
 ! D32   D(14,3,5,16)          126.0442         calculate D2E/DX2 analytically  !
 ! D33   D(14,3,5,17)         -119.1537         calculate D2E/DX2 analytically  !
 ! D34   D(15,3,5,7)           119.1395         calculate D2E/DX2 analytically  !
 ! D35   D(15,3,5,16)         -119.0328         calculate D2E/DX2 analytically  !
 ! D36   D(15,3,5,17)           -4.2307         calculate D2E/DX2 analytically  !
 ! D37   D(1,4,6,18)            -1.2042         calculate D2E/DX2 analytically  !
 ! D38   D(1,4,6,19)           119.1728         calculate D2E/DX2 analytically  !
 ! D39   D(1,4,6,20)          -121.8254         calculate D2E/DX2 analytically  !
 ! D40   D(8,4,6,18)           121.674          calculate D2E/DX2 analytically  !
 ! D41   D(8,4,6,19)          -117.9491         calculate D2E/DX2 analytically  !
 ! D42   D(8,4,6,20)             1.0527         calculate D2E/DX2 analytically  !
 ! D43   D(9,4,6,18)          -123.7776         calculate D2E/DX2 analytically  !
 ! D44   D(9,4,6,19)            -3.4006         calculate D2E/DX2 analytically  !
 ! D45   D(9,4,6,20)           115.6012         calculate D2E/DX2 analytically  !
 ! D46   D(3,5,7,21)            33.7788         calculate D2E/DX2 analytically  !
 ! D47   D(3,5,7,22)           -86.6662         calculate D2E/DX2 analytically  !
 ! D48   D(3,5,7,23)           153.8925         calculate D2E/DX2 analytically  !
 ! D49   D(16,5,7,21)          -87.7648         calculate D2E/DX2 analytically  !
 ! D50   D(16,5,7,22)          151.7902         calculate D2E/DX2 analytically  !
 ! D51   D(16,5,7,23)           32.3489         calculate D2E/DX2 analytically  !
 ! D52   D(17,5,7,21)          157.5188         calculate D2E/DX2 analytically  !
 ! D53   D(17,5,7,22)           37.0737         calculate D2E/DX2 analytically  !
 ! D54   D(17,5,7,23)          -82.3676         calculate D2E/DX2 analytically  !
 --------------------------------------------------------------------------------
 Trust Radius=3.00D-01 FncErr=1.00D-07 GrdErr=1.00D-06 EigMax=2.50D+02 EigMin=1.00D-04
 Number of steps in this run=    138 maximum allowed number of steps=    138.
 GradGradGradGradGradGradGradGradGradGradGradGradGradGradGradGradGradGrad

 Leave Link  103 at Sat Sep 28 01:51:45 2019, MaxMem=   671088640 cpu:               1.7 elap:               0.9
 (Enter /shared/centos7/gaussian/g16/l202.exe)
                          Input orientation:                          
 ---------------------------------------------------------------------
 Center     Atomic      Atomic             Coordinates (Angstroms)
 Number     Number       Type             X           Y           Z
 ---------------------------------------------------------------------
      1          6           0        1.386857   -1.135768    0.524903
      2          6           0        0.160901   -0.392010    0.932112
      3          6           0        0.090499   -0.094204    2.409047
      4          6           0        2.167142   -0.509962   -0.581690
      5          6           0       -1.122502   -0.701687    3.073348
      6          6           0        2.666607    0.853784   -0.336090
      7          6           0       -2.051913    0.313007    3.686958
      8          1           0        1.527947   -0.508780   -1.509356
      9          1           0        3.021999   -1.186449   -0.821150
     10          1           0        1.096765   -2.157193    0.199150
     11          1           0        2.048078   -1.285813    1.402923
     12          1           0       -0.725690   -0.977424    0.642404
     13          1           0        0.072035    0.557995    0.363915
     14          1           0        0.102940    0.997551    2.567290
     15          1           0        1.009754   -0.466606    2.906471
     16          1           0       -1.684956   -1.302740    2.311836
     17          1           0       -0.810598   -1.427727    3.843310
     18          1           0        2.368854    1.245743    0.654663
     19          1           0        3.795375    0.885706   -0.385068
     20          1           0        2.290089    1.567791   -1.098928
     21          1           0       -2.070208    1.237286    3.108208
     22          1           0       -1.741091    0.569461    4.737424
     23          1           0       -3.105963   -0.085108    3.735618
 ---------------------------------------------------------------------
                    Distance matrix (angstroms):
                    1          2          3          4          5
     1  C    0.000000
     2  C    1.490625   0.000000
     3  C    2.513046   1.508304   0.000000
     4  C    1.491652   2.516051   3.664670   0.000000
     5  C    3.602760   2.515535   1.510531   4.921160   0.000000
     6  C    2.517417   3.072279   3.882111   1.472952   5.329268
     7  C    4.891082   3.603161   2.527609   6.057975   1.506627
     8  H    2.133361   2.800574   4.194283   1.126559   5.297477
     9  H    2.118517   3.448324   4.496761   1.116134   5.707801
    10  H    1.110665   2.128132   3.186242   2.113951   3.912117
    11  H    1.109344   2.140556   2.502865   2.134200   3.630991
    12  H    2.121730   1.101220   2.137117   3.175753   2.478503
    13  H    2.150235   1.110520   2.146688   2.534596   3.217879
    14  H    3.220378   2.146636   1.103233   4.055810   2.155275
    15  H    2.502369   2.150398   1.109570   3.675418   2.151657
    16  H    3.557674   2.477954   2.149942   4.882586   1.121392
    17  H    3.990723   3.239073   2.155776   5.412010   1.103295
    18  H    2.579293   2.763018   3.172416   2.156793   4.672482
    19  H    3.273433   4.071476   4.742721   2.153530   6.218197
    20  H    3.280531   3.535446   4.461648   2.144693   5.848434
    21  H    4.925053   3.516795   2.632555   5.884161   2.158466
    22  H    5.516992   4.361468   3.035871   6.688230   2.183488
    23  H    5.621211   4.315813   3.460816   6.828272   2.180113
                    6          7          8          9         10
     6  C    0.000000
     7  C    6.224290   0.000000
     8  H    2.128304   6.363364   0.000000
     9  H    2.127002   6.950970   1.779060   0.000000
    10  H    3.437567   5.308565   2.412919   2.385347   0.000000
    11  H    2.825707   4.958121   3.058706   2.429999   1.764473
    12  H    3.977242   3.562778   3.150965   4.028753   2.215778
    13  H    2.703572   3.951429   2.601313   3.626258   2.906797
    14  H    3.875909   2.523024   4.573698   4.977176   4.067946
    15  H    3.873344   3.254345   4.446328   4.296796   3.192999
    16  H    5.531565   2.153197   5.055158   5.655488   3.596040
    17  H    5.896069   2.143704   5.913060   6.041870   4.177326
    18  H    1.106291   5.441323   2.910060   2.918935   3.661376
    19  H    1.130281   7.148437   2.889609   2.254353   4.108898
    20  H    1.110627   6.582717   2.249768   2.863335   4.121229
    21  H    5.869214   1.090678   6.108793   6.873493   5.478578
    22  H    6.726752   1.125104   7.132424   7.527814   6.006996
    23  H    7.126211   1.127778   7.011589   7.715504   5.870526
                   11         12         13         14         15
    11  H    0.000000
    12  H    2.892625   0.000000
    13  H    2.895499   1.752551   0.000000
    14  H    3.217617   2.879642   2.247004   0.000000
    15  H    2.002467   2.898052   2.897192   1.755310   0.000000
    16  H    3.842128   1.952696   3.216170   2.924580   2.883431
    17  H    3.761337   3.233540   4.102234   2.888728   2.261659
    18  H    2.659242   3.810358   2.415142   2.975585   3.138461
    19  H    3.311413   4.996697   3.812038   4.728953   4.519144
    20  H    3.802746   4.313384   2.842421   4.306964   4.671322
    21  H    5.121943   3.576710   3.547081   2.252252   3.525637
    22  H    5.377615   4.493671   4.734463   2.879791   3.463088
    23  H    5.783364   4.003736   4.677781   3.582485   4.215704
                   16         17         18         19         20
    16  H    0.000000
    17  H    1.767919   0.000000
    18  H    5.066988   5.236777   0.000000
    19  H    6.488190   6.666793   1.801563   0.000000
    20  H    5.972791   6.558437   1.784656   1.800201   0.000000
    21  H    2.689677   3.037974   5.072004   6.836055   6.068064
    22  H    3.064599   2.377818   5.832491   7.549331   7.163105
    23  H    2.351393   2.661377   6.421610   8.096357   7.431170
                   21         22         23
    21  H    0.000000
    22  H    1.791272   0.000000
    23  H    1.793086   1.815200   0.000000
 Stoichiometry    C7H16
 Framework group  C1[X(C7H16)]
 Deg. of freedom    63
 Full point group                 C1      NOp   1
 Largest Abelian subgroup         C1      NOp   1
 Largest concise Abelian subgroup C1      NOp   1
                         Standard orientation:                         
 ---------------------------------------------------------------------
 Center     Atomic      Atomic             Coordinates (Angstroms)
 Number     Number       Type             X           Y           Z
 ---------------------------------------------------------------------
      1          6           0        1.257825   -0.913806    0.203512
      2          6           0        0.102024   -0.285262   -0.497216
      3          6           0       -0.973709    0.219092    0.431982
      4          6           0        2.594742   -0.364083   -0.164569
      5          6           0       -2.313095   -0.436067    0.190081
      6          6           0        2.796269    1.074826    0.077332
      7          6           0       -3.396961    0.527991   -0.217045
      8          1           0        2.781818   -0.586392   -1.253016
      9          1           0        3.368085   -0.950370    0.386760
     10          1           0        1.265901   -2.001765   -0.019773
     11          1           0        1.119591   -0.841917    1.301860
     12          1           0       -0.338657   -1.019106   -1.190006
     13          1           0        0.443592    0.548571   -1.146299
     14          1           0       -1.063726    1.314256    0.333817
     15          1           0       -0.664046    0.049911    1.483948
     16          1           0       -2.192806   -1.213423   -0.609149
     17          1           0       -2.632744   -0.990783    1.088621
     18          1           0        1.896808    1.568489    0.491029
     19          1           0        3.640882    1.247342    0.808360
     20          1           0        3.064457    1.610315   -0.857986
     21          1           0       -2.997656    1.344321   -0.820153
     22          1           0       -3.902578    0.977962    0.681697
     23          1           0       -4.191488    0.006447   -0.824172
 ---------------------------------------------------------------------
 Rotational constants (GHZ):           6.7992639           0.9484385           0.8931275
 Leave Link  202 at Sat Sep 28 01:51:47 2019, MaxMem=   671088640 cpu:               3.7 elap:               1.8
 (Enter /shared/centos7/gaussian/g16/l301.exe)
 Standard basis: CC-pVTZ (5D, 7F)
 Ernie: Thresh=  0.10000D-02 Tol=  0.10000D-05 Strict=F.
 Ernie:  21 primitive shells out of 310 were deleted.
 There are   485 symmetry adapted cartesian basis functions of A   symmetry.
 There are   434 symmetry adapted basis functions of A   symmetry.
   434 basis functions,   636 primitive gaussians,   485 cartesian basis functions
    29 alpha electrons       29 beta electrons
       nuclear repulsion energy       318.7914315329 Hartrees.
 IExCor= 4336 DFT=T Ex+Corr=M062X ExCW=0 ScaHFX=  0.540000
 ScaDFX=  1.000000  1.000000  1.000000  1.000000 ScalE2=  1.000000  1.000000
 IRadAn=      5 IRanWt=     -1 IRanGd=            0 ICorTp=0 IEmpDi=  4
 NAtoms=   23 NActive=   23 NUniq=   23 SFac= 1.00D+00 NAtFMM=   60 NAOKFM=F Big=F
 Integral buffers will be    131072 words long.
 Raffenetti 2 integral format.
 Two-electron integral symmetry is turned on.
 Leave Link  301 at Sat Sep 28 01:51:48 2019, MaxMem=   671088640 cpu:               1.9 elap:               1.0
 (Enter /shared/centos7/gaussian/g16/l302.exe)
 NPDir=0 NMtPBC=     1 NCelOv=     1 NCel=       1 NClECP=     1 NCelD=      1
         NCelK=      1 NCelE2=     1 NClLst=     1 CellRange=     0.0.
 One-electron integrals computed using PRISM.
 One-electron integral symmetry used in STVInt
 NBasis=   434 RedAO= T EigKep=  3.21D-04  NBF=   434
 NBsUse=   434 1.00D-06 EigRej= -1.00D+00 NBFU=   434
 Precomputing XC quadrature grid using
 IXCGrd= 4 IRadAn=           5 IRanWt=          -1 IRanGd=           0 AccXCQ= 0.00D+00.
 Generated NRdTot=       0 NPtTot=           0 NUsed=           0 NTot=          32
 NSgBfM=   485   485   485   485   485 MxSgAt=    23 MxSgA2=    23.
 Leave Link  302 at Sat Sep 28 01:53:07 2019, MaxMem=   671088640 cpu:             159.5 elap:              79.8
 (Enter /shared/centos7/gaussian/g16/l303.exe)
 DipDrv:  MaxL=1.
 Leave Link  303 at Sat Sep 28 01:53:12 2019, MaxMem=   671088640 cpu:               8.0 elap:               4.1
 (Enter /shared/centos7/gaussian/g16/l401.exe)
 ExpMin= 1.03D-01 ExpMax= 8.24D+03 ExpMxC= 2.81D+02 IAcc=3 IRadAn=         5 AccDes= 0.00D+00
 Harris functional with IExCor= 1009 and IRadAn=       5 diagonalized for initial guess.
 HarFok:  IExCor= 1009 AccDes= 0.00D+00 IRadAn=         5 IDoV= 1 UseB2=F ITyADJ=14
 ICtDFT=  3500011 ScaDFX=  1.000000  1.000000  1.000000  1.000000
 FoFCou: FMM=F IPFlag=           0 FMFlag=      100000 FMFlg1=           0
         NFxFlg=           0 DoJE=T BraDBF=F KetDBF=T FulRan=T
         wScrn=  0.000000 ICntrl=       500 IOpCl=  0 I1Cent=   200000004 NGrid=           0
         NMat0=    1 NMatS0=      1 NMatT0=    0 NMatD0=    1 NMtDS0=    0 NMtDT0=    0
 Petite list used in FoFCou.
 Harris En= -276.317160930787    
 JPrj=0 DoOrth=F DoCkMO=F.
 Leave Link  401 at Sat Sep 28 01:54:02 2019, MaxMem=   671088640 cpu:             100.6 elap:              50.3
 (Enter /shared/centos7/gaussian/g16/l502.exe)
 Integral symmetry usage will be decided dynamically.
 Closed shell SCF:
 Using DIIS extrapolation, IDIIS=  1040.
 NGot=   671088640 LenX=   670604095 LenY=   670368385
 Requested convergence on RMS density matrix=1.00D-08 within 900 cycles.
 Requested convergence on MAX density matrix=1.00D-06.
 Requested convergence on             energy=1.00D-06.
 No special actions if energy rises.
 Fock matrices will be formed incrementally for  20 cycles.
 Integral accuracy reduced to 1.0D-05 until final iterations.

 Cycle   1  Pass 0  IDiag  1:
 FoFJK:  IHMeth= 1 ICntrl=       0 DoSepK=F KAlg= 0 I1Cent=           0 FoldK=F
 IRaf= 910000000 NMat=       1 IRICut=       1 DoRegI=T DoRafI=F ISym2E= 0 IDoP0=0 IntGTp=1.
 FoFCou: FMM=F IPFlag=           0 FMFlag=      100000 FMFlg1=           0
         NFxFlg=           0 DoJE=F BraDBF=F KetDBF=F FulRan=T
         wScrn=  0.000000 ICntrl=         0 IOpCl=  0 I1Cent=           0 NGrid=           0
         NMat0=    1 NMatS0=      1 NMatT0=    0 NMatD0=    1 NMtDS0=    0 NMtDT0=    0
 Symmetry not used in FoFCou.
 E= -275.938597549026    
 DIIS: error= 2.95D-02 at cycle   1 NSaved=   1.
 NSaved= 1 IEnMin= 1 EnMin= -275.938597549026     IErMin= 1 ErrMin= 2.95D-02
 ErrMax= 2.95D-02  0.00D+00 EMaxC= 1.00D-01 BMatC= 3.77D-01 BMatP= 3.77D-01
 IDIUse=3 WtCom= 7.05D-01 WtEn= 2.95D-01
 Coeff-Com:  0.100D+01
 Coeff-En:   0.100D+01
 Coeff:      0.100D+01
 Gap=     0.399 Goal=   None    Shift=    0.000
 GapD=    0.399 DampG=1.000 DampE=0.500 DampFc=0.5000 IDamp=-1.
 Damping current iteration by 5.00D-01
 RMSDP=1.92D-03 MaxDP=6.59D-02              OVMax= 1.64D-01

 Cycle   2  Pass 0  IDiag  1:
 RMSU=  9.57D-04    CP:  9.90D-01
 E= -276.120325832622     Delta-E=       -0.181728283597 Rises=F Damp=T
 DIIS: error= 5.35D-03 at cycle   2 NSaved=   2.
 NSaved= 2 IEnMin= 2 EnMin= -276.120325832622     IErMin= 2 ErrMin= 5.35D-03
 ErrMax= 5.35D-03  0.00D+00 EMaxC= 1.00D-01 BMatC= 1.79D-02 BMatP= 3.77D-01
 IDIUse=3 WtCom= 9.47D-01 WtEn= 5.35D-02
 Coeff-Com: -0.563D-01 0.106D+01
 Coeff-En:   0.000D+00 0.100D+01
 Coeff:     -0.532D-01 0.105D+01
 Gap=     0.441 Goal=   None    Shift=    0.000
 RMSDP=5.06D-04 MaxDP=1.95D-02 DE=-1.82D-01 OVMax= 9.29D-02

 Cycle   3  Pass 0  IDiag  1:
 RMSU=  4.97D-04    CP:  9.98D-01  9.21D-01
 E= -276.301111043925     Delta-E=       -0.180785211302 Rises=F Damp=F
 DIIS: error= 1.84D-03 at cycle   3 NSaved=   3.
 NSaved= 3 IEnMin= 3 EnMin= -276.301111043925     IErMin= 3 ErrMin= 1.84D-03
 ErrMax= 1.84D-03  0.00D+00 EMaxC= 1.00D-01 BMatC= 1.92D-03 BMatP= 1.79D-02
 IDIUse=3 WtCom= 9.82D-01 WtEn= 1.84D-02
 Coeff-Com: -0.475D-01 0.205D+00 0.843D+00
 Coeff-En:   0.000D+00 0.000D+00 0.100D+01
 Coeff:     -0.467D-01 0.201D+00 0.846D+00
 Gap=     0.423 Goal=   None    Shift=    0.000
 RMSDP=8.15D-05 MaxDP=2.80D-03 DE=-1.81D-01 OVMax= 8.95D-03

 Cycle   4  Pass 0  IDiag  1:
 RMSU=  6.51D-05    CP:  9.97D-01  9.65D-01  9.49D-01
 E= -276.302824912200     Delta-E=       -0.001713868275 Rises=F Damp=F
 DIIS: error= 5.24D-04 at cycle   4 NSaved=   4.
 NSaved= 4 IEnMin= 4 EnMin= -276.302824912200     IErMin= 4 ErrMin= 5.24D-04
 ErrMax= 5.24D-04  0.00D+00 EMaxC= 1.00D-01 BMatC= 1.81D-04 BMatP= 1.92D-03
 IDIUse=3 WtCom= 9.95D-01 WtEn= 5.24D-03
 Coeff-Com: -0.119D-01 0.320D-01 0.273D+00 0.707D+00
 Coeff-En:   0.000D+00 0.000D+00 0.000D+00 0.100D+01
 Coeff:     -0.118D-01 0.319D-01 0.271D+00 0.709D+00
 Gap=     0.423 Goal=   None    Shift=    0.000
 RMSDP=2.76D-05 MaxDP=1.25D-03 DE=-1.71D-03 OVMax= 2.57D-03

 Cycle   5  Pass 0  IDiag  1:
 RMSU=  1.70D-05    CP:  9.97D-01  9.59D-01  9.80D-01  7.82D-01
 E= -276.302989635073     Delta-E=       -0.000164722873 Rises=F Damp=F
 DIIS: error= 1.37D-04 at cycle   5 NSaved=   5.
 NSaved= 5 IEnMin= 5 EnMin= -276.302989635073     IErMin= 5 ErrMin= 1.37D-04
 ErrMax= 1.37D-04  0.00D+00 EMaxC= 1.00D-01 BMatC= 1.55D-05 BMatP= 1.81D-04
 IDIUse=3 WtCom= 9.99D-01 WtEn= 1.37D-03
 Coeff-Com: -0.102D-02-0.340D-03 0.474D-01 0.263D+00 0.691D+00
 Coeff-En:   0.000D+00 0.000D+00 0.000D+00 0.000D+00 0.100D+01
 Coeff:     -0.102D-02-0.340D-03 0.474D-01 0.262D+00 0.691D+00
 Gap=     0.422 Goal=   None    Shift=    0.000
 RMSDP=6.21D-06 MaxDP=3.76D-04 DE=-1.65D-04 OVMax= 7.15D-04

 Initial convergence to 1.0D-05 achieved.  Increase integral accuracy.
 Cycle   6  Pass 1  IDiag  1:
 E= -276.302977648907     Delta-E=        0.000011986166 Rises=F Damp=F
 DIIS: error= 4.51D-05 at cycle   1 NSaved=   1.
 NSaved= 1 IEnMin= 1 EnMin= -276.302977648907     IErMin= 1 ErrMin= 4.51D-05
 ErrMax= 4.51D-05  0.00D+00 EMaxC= 1.00D-01 BMatC= 1.90D-06 BMatP= 1.90D-06
 IDIUse=1 WtCom= 1.00D+00 WtEn= 0.00D+00
 Coeff-Com:  0.100D+01
 Coeff:      0.100D+01
 Gap=     0.423 Goal=   None    Shift=    0.000
 RMSDP=6.21D-06 MaxDP=3.76D-04 DE= 1.20D-05 OVMax= 2.96D-04

 Cycle   7  Pass 1  IDiag  1:
 RMSU=  1.27D-05    CP:  1.00D+00
 E= -276.302978494682     Delta-E=       -0.000000845776 Rises=F Damp=F
 DIIS: error= 3.31D-05 at cycle   2 NSaved=   2.
 NSaved= 2 IEnMin= 2 EnMin= -276.302978494682     IErMin= 2 ErrMin= 3.31D-05
 ErrMax= 3.31D-05  0.00D+00 EMaxC= 1.00D-01 BMatC= 4.86D-07 BMatP= 1.90D-06
 IDIUse=1 WtCom= 1.00D+00 WtEn= 0.00D+00
 Coeff-Com:  0.286D+00 0.714D+00
 Coeff:      0.286D+00 0.714D+00
 Gap=     0.423 Goal=   None    Shift=    0.000
 RMSDP=1.41D-06 MaxDP=5.47D-05 DE=-8.46D-07 OVMax= 1.51D-04

 Cycle   8  Pass 1  IDiag  1:
 RMSU=  1.41D-06    CP:  1.00D+00  1.01D+00
 E= -276.302978882554     Delta-E=       -0.000000387872 Rises=F Damp=F
 DIIS: error= 1.54D-05 at cycle   3 NSaved=   3.
 NSaved= 3 IEnMin= 3 EnMin= -276.302978882554     IErMin= 3 ErrMin= 1.54D-05
 ErrMax= 1.54D-05  0.00D+00 EMaxC= 1.00D-01 BMatC= 9.26D-08 BMatP= 4.86D-07
 IDIUse=1 WtCom= 1.00D+00 WtEn= 0.00D+00
 Coeff-Com: -0.482D-02 0.297D+00 0.708D+00
 Coeff:     -0.482D-02 0.297D+00 0.708D+00
 Gap=     0.423 Goal=   None    Shift=    0.000
 RMSDP=4.90D-07 MaxDP=1.70D-05 DE=-3.88D-07 OVMax= 5.19D-05

 Cycle   9  Pass 1  IDiag  1:
 RMSU=  3.03D-07    CP:  1.00D+00  1.02D+00  7.60D-01
 E= -276.302978971975     Delta-E=       -0.000000089421 Rises=F Damp=F
 DIIS: error= 2.04D-06 at cycle   4 NSaved=   4.
 NSaved= 4 IEnMin= 4 EnMin= -276.302978971975     IErMin= 4 ErrMin= 2.04D-06
 ErrMax= 2.04D-06  0.00D+00 EMaxC= 1.00D-01 BMatC= 1.65D-09 BMatP= 9.26D-08
 IDIUse=1 WtCom= 1.00D+00 WtEn= 0.00D+00
 Coeff-Com: -0.850D-02 0.836D-01 0.239D+00 0.685D+00
 Coeff:     -0.850D-02 0.836D-01 0.239D+00 0.685D+00
 Gap=     0.423 Goal=   None    Shift=    0.000
 RMSDP=8.56D-08 MaxDP=2.82D-06 DE=-8.94D-08 OVMax= 7.50D-06

 Cycle  10  Pass 1  IDiag  1:
 RMSU=  7.87D-08    CP:  1.00D+00  1.02D+00  7.61D-01  9.10D-01
 E= -276.302978973676     Delta-E=       -0.000000001702 Rises=F Damp=F
 DIIS: error= 3.03D-07 at cycle   5 NSaved=   5.
 NSaved= 5 IEnMin= 5 EnMin= -276.302978973676     IErMin= 5 ErrMin= 3.03D-07
 ErrMax= 3.03D-07  0.00D+00 EMaxC= 1.00D-01 BMatC= 4.96D-11 BMatP= 1.65D-09
 IDIUse=1 WtCom= 1.00D+00 WtEn= 0.00D+00
 Coeff-Com: -0.180D-03-0.181D-01-0.404D-01 0.365D-01 0.102D+01
 Coeff:     -0.180D-03-0.181D-01-0.404D-01 0.365D-01 0.102D+01
 Gap=     0.423 Goal=   None    Shift=    0.000
 RMSDP=3.10D-08 MaxDP=9.06D-07 DE=-1.70D-09 OVMax= 2.55D-06

 Cycle  11  Pass 1  IDiag  1:
 RMSU=  1.48D-08    CP:  1.00D+00  1.02D+00  7.63D-01  9.92D-01  1.12D+00
 E= -276.302978973756     Delta-E=       -0.000000000079 Rises=F Damp=F
 DIIS: error= 1.27D-07 at cycle   6 NSaved=   6.
 NSaved= 6 IEnMin= 6 EnMin= -276.302978973756     IErMin= 6 ErrMin= 1.27D-07
 ErrMax= 1.27D-07  0.00D+00 EMaxC= 1.00D-01 BMatC= 1.25D-11 BMatP= 4.96D-11
 IDIUse=1 WtCom= 1.00D+00 WtEn= 0.00D+00
 Coeff-Com:  0.406D-03-0.124D-01-0.307D-01-0.237D-01 0.443D+00 0.623D+00
 Coeff:      0.406D-03-0.124D-01-0.307D-01-0.237D-01 0.443D+00 0.623D+00
 Gap=     0.423 Goal=   None    Shift=    0.000
 RMSDP=5.70D-09 MaxDP=2.86D-07 DE=-7.91D-11 OVMax= 6.09D-07

 SCF Done:  E(RM062X) =  -276.302978974     A.U. after   11 cycles
            NFock= 11  Conv=0.57D-08     -V/T= 2.0065
 KE= 2.745281646384D+02 PE=-1.276061173157D+03 EE= 4.064385980124D+02
 Leave Link  502 at Sat Sep 28 02:13:11 2019, MaxMem=   671088640 cpu:            2297.9 elap:            1149.3
 (Enter /shared/centos7/gaussian/g16/l801.exe)
 DoSCS=F DFT=T ScalE2(SS,OS)=  1.000000  1.000000
 Range of M.O.s used for correlation:     1   434
 NBasis=   434 NAE=    29 NBE=    29 NFC=     0 NFV=     0
 NROrb=    434 NOA=    29 NOB=    29 NVA=   405 NVB=   405

 **** Warning!!: The largest alpha MO coefficient is  0.10332065D+02

 Leave Link  801 at Sat Sep 28 02:13:12 2019, MaxMem=   671088640 cpu:               1.7 elap:               0.9
 (Enter /shared/centos7/gaussian/g16/l1101.exe)
 Using compressed storage, NAtomX=    23.
 Will process     24 centers per pass.
 Leave Link 1101 at Sat Sep 28 02:13:52 2019, MaxMem=   671088640 cpu:              80.5 elap:              40.3
 (Enter /shared/centos7/gaussian/g16/l1102.exe)
 Symmetrizing basis deriv contribution to polar:
 IMax=3 JMax=2 DiffMx= 0.00D+00
 Leave Link 1102 at Sat Sep 28 02:13:55 2019, MaxMem=   671088640 cpu:               6.1 elap:               3.1
 (Enter /shared/centos7/gaussian/g16/l1110.exe)
 Forming Gx(P) for the SCF density, NAtomX=    23.
 Integral derivatives from FoFJK, PRISM(SPDF).
 Do as many integral derivatives as possible in FoFJK.
 G2DrvN: MDV=     671086848.
 G2DrvN: will do    24 centers at a time, making    1 passes.
 Calling FoFCou, ICntrl=  3107 FMM=F I1Cent=   0 AccDes= 0.00D+00.
 FoFJK:  IHMeth= 1 ICntrl=    3107 DoSepK=F KAlg= 0 I1Cent=           0 FoldK=F
 IRaf=         0 NMat=       1 IRICut=       1 DoRegI=T DoRafI=F ISym2E= 0 IDoP0=0 IntGTp=1.
 FoFCou: FMM=F IPFlag=           0 FMFlag=      100000 FMFlg1=           0
         NFxFlg=           0 DoJE=F BraDBF=F KetDBF=F FulRan=T
         wScrn=  0.000000 ICntrl=      3107 IOpCl=  0 I1Cent=           0 NGrid=           0
         NMat0=    1 NMatS0=      1 NMatT0=    0 NMatD0=    1 NMtDS0=    0 NMtDT0=    0
 Symmetry not used in FoFCou.
 End of G2Drv F.D. properties file   721 does not exist.
 End of G2Drv F.D. properties file   722 does not exist.
 End of G2Drv F.D. properties file   788 does not exist.
 Leave Link 1110 at Sat Sep 28 03:05:27 2019, MaxMem=   671088640 cpu:            6182.2 elap:            3091.8
 (Enter /shared/centos7/gaussian/g16/l1002.exe)
 Minotr:  Closed shell wavefunction.
          IDoAtm=11111111111111111111111
          Direct CPHF calculation.
          Differentiating once with respect to nuclear coordinates.
          Requested convergence is 1.0D-08 RMS, and 1.0D-07 maximum.
          Secondary convergence is 1.0D-12 RMS, and 1.0D-12 maximum.
          NewPWx=T KeepS1=F KeepF1=F KeepIn=T MapXYZ=F SortEE=F KeepMc=T.
         6939 words used for storage of precomputed grid.
 Two-electron integrals replicated using symmetry.
          MDV=     671088640 using IRadAn=       1.
          Solving linear equations simultaneously, MaxMat=     380.
 FoF2E skips out because all densities are zero.
 CalDSu exits because no D1Ps are significant.
 FoFJK:  IHMeth= 1 ICntrl=       0 DoSepK=F KAlg= 0 I1Cent=           0 FoldK=F
 IRaf= 890000000 NMat=      69 IRICut=     172 DoRegI=T DoRafI=T ISym2E= 2 IDoP0=3 IntGTp=3.
 FoFCou: FMM=F IPFlag=           0 FMFlag=      100000 FMFlg1=           0
         NFxFlg=           0 DoJE=F BraDBF=F KetDBF=F FulRan=T
         wScrn=  0.000000 ICntrl=         0 IOpCl=  0 I1Cent=           0 NGrid=           0
         NMat0=   69 NMatS0=     69 NMatT0=    0 NMatD0=   69 NMtDS0=    0 NMtDT0=    0
 Integrals replicated using symmetry in FoFCou.
 Raff kept on since  84.79% of shell-pairs survive, threshold=   0.20 IRatSp=85.
          There are    72 degrees of freedom in the 1st order CPHF.  IDoFFX=6 NUNeed=     0.
     66 vectors produced by pass  0 Test12= 1.63D-14 1.39D-09 XBig12= 5.56D-02 4.59D-02.
 AX will form    66 AO Fock derivatives at one time.
     66 vectors produced by pass  1 Test12= 1.63D-14 1.39D-09 XBig12= 3.78D-03 8.44D-03.
     66 vectors produced by pass  2 Test12= 1.63D-14 1.39D-09 XBig12= 5.44D-05 1.03D-03.
     66 vectors produced by pass  3 Test12= 1.63D-14 1.39D-09 XBig12= 4.42D-07 7.32D-05.
     66 vectors produced by pass  4 Test12= 1.63D-14 1.39D-09 XBig12= 2.02D-09 4.72D-06.
     66 vectors produced by pass  5 Test12= 1.63D-14 1.39D-09 XBig12= 8.88D-12 2.84D-07.
     22 vectors produced by pass  6 Test12= 1.63D-14 1.39D-09 XBig12= 3.00D-14 1.60D-08.
 InvSVY:  IOpt=1 It=  1 EMax= 3.61D-16
 Solved reduced A of dimension   418 with    72 vectors.
 End of Minotr F.D. properties file   721 does not exist.
 End of Minotr F.D. properties file   722 does not exist.
 End of Minotr F.D. properties file   788 does not exist.
 Leave Link 1002 at Sat Sep 28 04:31:46 2019, MaxMem=   671088640 cpu:           10355.2 elap:            5178.8
 (Enter /shared/centos7/gaussian/g16/l601.exe)
 Copying SCF densities to generalized density rwf, IOpCl= 0 IROHF=0.

 **********************************************************************

            Population analysis using the SCF density.

 **********************************************************************

 Orbital symmetries:
       Occupied  (A) (A) (A) (A) (A) (A) (A) (A) (A) (A) (A) (A)
                 (A) (A) (A) (A) (A) (A) (A) (A) (A) (A) (A) (A)
                 (A) (A) (A) (A) (A)
       Virtual   (A) (A) (A) (A) (A) (A) (A) (A) (A) (A) (A) (A)
                 (A) (A) (A) (A) (A) (A) (A) (A) (A) (A) (A) (A)
                 (A) (A) (A) (A) (A) (A) (A) (A) (A) (A) (A) (A)
                 (A) (A) (A) (A) (A) (A) (A) (A) (A) (A) (A) (A)
                 (A) (A) (A) (A) (A) (A) (A) (A) (A) (A) (A) (A)
                 (A) (A) (A) (A) (A) (A) (A) (A) (A) (A) (A) (A)
                 (A) (A) (A) (A) (A) (A) (A) (A) (A) (A) (A) (A)
                 (A) (A) (A) (A) (A) (A) (A) (A) (A) (A) (A) (A)
                 (A) (A) (A) (A) (A) (A) (A) (A) (A) (A) (A) (A)
                 (A) (A) (A) (A) (A) (A) (A) (A) (A) (A) (A) (A)
                 (A) (A) (A) (A) (A) (A) (A) (A) (A) (A) (A) (A)
                 (A) (A) (A) (A) (A) (A) (A) (A) (A) (A) (A) (A)
                 (A) (A) (A) (A) (A) (A) (A) (A) (A) (A) (A) (A)
                 (A) (A) (A) (A) (A) (A) (A) (A) (A) (A) (A) (A)
                 (A) (A) (A) (A) (A) (A) (A) (A) (A) (A) (A) (A)
                 (A) (A) (A) (A) (A) (A) (A) (A) (A) (A) (A) (A)
                 (A) (A) (A) (A) (A) (A) (A) (A) (A) (A) (A) (A)
                 (A) (A) (A) (A) (A) (A) (A) (A) (A) (A) (A) (A)
                 (A) (A) (A) (A) (A) (A) (A) (A) (A) (A) (A) (A)
                 (A) (A) (A) (A) (A) (A) (A) (A) (A) (A) (A) (A)
                 (A) (A) (A) (A) (A) (A) (A) (A) (A) (A) (A) (A)
                 (A) (A) (A) (A) (A) (A) (A) (A) (A) (A) (A) (A)
                 (A) (A) (A) (A) (A) (A) (A) (A) (A) (A) (A) (A)
                 (A) (A) (A) (A) (A) (A) (A) (A) (A) (A) (A) (A)
                 (A) (A) (A) (A) (A) (A) (A) (A) (A) (A) (A) (A)
                 (A) (A) (A) (A) (A) (A) (A) (A) (A) (A) (A) (A)
                 (A) (A) (A) (A) (A) (A) (A) (A) (A) (A) (A) (A)
                 (A) (A) (A) (A) (A) (A) (A) (A) (A) (A) (A) (A)
                 (A) (A) (A) (A) (A) (A) (A) (A) (A) (A) (A) (A)
                 (A) (A) (A) (A) (A) (A) (A) (A) (A) (A) (A) (A)
                 (A) (A) (A) (A) (A) (A) (A) (A) (A) (A) (A) (A)
                 (A) (A) (A) (A) (A) (A) (A) (A) (A) (A) (A) (A)
                 (A) (A) (A) (A) (A) (A) (A) (A) (A) (A) (A) (A)
                 (A) (A) (A) (A) (A) (A) (A) (A) (A)
 The electronic state is 1-A.
 Alpha  occ. eigenvalues --  -10.52609 -10.52499 -10.52477 -10.52301 -10.52243
 Alpha  occ. eigenvalues --  -10.52145 -10.52059  -0.92112  -0.88347  -0.82648
 Alpha  occ. eigenvalues --   -0.76388  -0.70300  -0.65548  -0.63807  -0.54083
 Alpha  occ. eigenvalues --   -0.52561  -0.52443  -0.49818  -0.47609  -0.46293
 Alpha  occ. eigenvalues --   -0.44609  -0.42841  -0.41558  -0.40509  -0.39517
 Alpha  occ. eigenvalues --   -0.37623  -0.36575  -0.35558  -0.35322
 Alpha virt. eigenvalues --    0.06934   0.07602   0.08284   0.08718   0.10617
 Alpha virt. eigenvalues --    0.11003   0.11703   0.12009   0.13556   0.14528
 Alpha virt. eigenvalues --    0.15828   0.16817   0.17523   0.18588   0.19199
 Alpha virt. eigenvalues --    0.21870   0.22569   0.23469   0.24817   0.25535
 Alpha virt. eigenvalues --    0.27590   0.27845   0.29220   0.31216   0.31645
 Alpha virt. eigenvalues --    0.32310   0.33628   0.34068   0.35473   0.36636
 Alpha virt. eigenvalues --    0.38169   0.40020   0.40849   0.41988   0.43407
 Alpha virt. eigenvalues --    0.43663   0.45584   0.46089   0.46677   0.47376
 Alpha virt. eigenvalues --    0.48818   0.49317   0.49862   0.50196   0.50928
 Alpha virt. eigenvalues --    0.51503   0.51740   0.52268   0.53242   0.53582
 Alpha virt. eigenvalues --    0.54255   0.54865   0.55147   0.55705   0.56318
 Alpha virt. eigenvalues --    0.57103   0.58226   0.59121   0.59985   0.60820
 Alpha virt. eigenvalues --    0.63126   0.65459   0.69058   0.73216   0.74415
 Alpha virt. eigenvalues --    0.78301   0.81498   0.83239   0.84154   0.84692
 Alpha virt. eigenvalues --    0.85692   0.88565   0.89222   0.90315   0.92022
 Alpha virt. eigenvalues --    0.93054   0.94869   0.96620   0.97986   0.98275
 Alpha virt. eigenvalues --    0.99890   1.01444   1.02164   1.03618   1.04073
 Alpha virt. eigenvalues --    1.05286   1.06079   1.06879   1.07999   1.09970
 Alpha virt. eigenvalues --    1.10114   1.10672   1.11444   1.11821   1.13929
 Alpha virt. eigenvalues --    1.14747   1.15974   1.16574   1.17813   1.18760
 Alpha virt. eigenvalues --    1.20085   1.20762   1.21737   1.22441   1.23349
 Alpha virt. eigenvalues --    1.24944   1.25778   1.27884   1.28414   1.30552
 Alpha virt. eigenvalues --    1.30909   1.31255   1.32330   1.32786   1.33804
 Alpha virt. eigenvalues --    1.34731   1.35052   1.36048   1.37049   1.37375
 Alpha virt. eigenvalues --    1.39194   1.39838   1.40002   1.42078   1.43272
 Alpha virt. eigenvalues --    1.45037   1.45626   1.47092   1.48642   1.49581
 Alpha virt. eigenvalues --    1.50139   1.51422   1.52289   1.53343   1.54657
 Alpha virt. eigenvalues --    1.55221   1.56433   1.57440   1.58809   1.59272
 Alpha virt. eigenvalues --    1.61371   1.62793   1.65646   1.69036   1.71369
 Alpha virt. eigenvalues --    1.73037   1.75150   1.78374   1.81309   2.17992
 Alpha virt. eigenvalues --    2.22160   2.25357   2.25969   2.29214   2.32472
 Alpha virt. eigenvalues --    2.34653   2.36702   2.39273   2.40221   2.42463
 Alpha virt. eigenvalues --    2.45298   2.47334   2.48347   2.49686   2.53190
 Alpha virt. eigenvalues --    2.53939   2.56704   2.57140   2.58955   2.59214
 Alpha virt. eigenvalues --    2.59993   2.61576   2.63685   2.65023   2.65972
 Alpha virt. eigenvalues --    2.67530   2.69334   2.69510   2.71906   2.73238
 Alpha virt. eigenvalues --    2.74156   2.76298   2.77572   2.78296   2.79778
 Alpha virt. eigenvalues --    2.81325   2.81773   2.82814   2.84479   2.84873
 Alpha virt. eigenvalues --    2.86432   2.87565   2.89888   2.90940   2.92718
 Alpha virt. eigenvalues --    2.93199   2.94144   2.95614   2.96184   2.97663
 Alpha virt. eigenvalues --    2.98981   2.99642   3.00485   3.01030   3.01643
 Alpha virt. eigenvalues --    3.04634   3.05025   3.06172   3.06353   3.07191
 Alpha virt. eigenvalues --    3.08344   3.09730   3.09894   3.11070   3.11681
 Alpha virt. eigenvalues --    3.12263   3.13735   3.14630   3.15803   3.16028
 Alpha virt. eigenvalues --    3.17480   3.18475   3.19890   3.21112   3.23088
 Alpha virt. eigenvalues --    3.23556   3.24295   3.27109   3.28202   3.30246
 Alpha virt. eigenvalues --    3.31548   3.31965   3.32496   3.34317   3.35457
 Alpha virt. eigenvalues --    3.36504   3.38787   3.39605   3.39910   3.41566
 Alpha virt. eigenvalues --    3.42610   3.42975   3.44223   3.45976   3.46748
 Alpha virt. eigenvalues --    3.47413   3.49382   3.50746   3.51970   3.53172
 Alpha virt. eigenvalues --    3.55130   3.55423   3.57115   3.57576   3.58769
 Alpha virt. eigenvalues --    3.60068   3.60796   3.62034   3.62837   3.65597
 Alpha virt. eigenvalues --    3.66501   3.67222   3.68570   3.70416   3.73338
 Alpha virt. eigenvalues --    3.74410   3.75092   3.75267   3.76759   3.77666
 Alpha virt. eigenvalues --    3.77851   3.79299   3.80551   3.81588   3.82109
 Alpha virt. eigenvalues --    3.84433   3.85999   3.87428   3.88586   3.90095
 Alpha virt. eigenvalues --    3.92025   3.92667   3.94377   3.94768   3.95743
 Alpha virt. eigenvalues --    3.97920   3.98073   3.99074   3.99782   4.00423
 Alpha virt. eigenvalues --    4.02167   4.03236   4.04469   4.05240   4.06359
 Alpha virt. eigenvalues --    4.07016   4.07748   4.07976   4.09643   4.11009
 Alpha virt. eigenvalues --    4.12482   4.13540   4.13860   4.15545   4.17258
 Alpha virt. eigenvalues --    4.18602   4.19088   4.20243   4.22248   4.23301
 Alpha virt. eigenvalues --    4.23905   4.25069   4.25614   4.27681   4.29472
 Alpha virt. eigenvalues --    4.30476   4.31504   4.32228   4.33608   4.34427
 Alpha virt. eigenvalues --    4.35930   4.39513   4.40630   4.42981   4.43807
 Alpha virt. eigenvalues --    4.45943   4.48357   4.51490   4.52749   4.53776
 Alpha virt. eigenvalues --    4.57030   4.58250   4.59630   4.62018   4.66580
 Alpha virt. eigenvalues --    4.67265   4.70282   4.71136   4.73079   4.74223
 Alpha virt. eigenvalues --    4.75744   4.77358   4.81284   4.81772   4.82806
 Alpha virt. eigenvalues --    4.83765   4.86006   4.88143   4.89185   4.90295
 Alpha virt. eigenvalues --    4.94414   4.95905   4.96675   4.97762   4.99539
 Alpha virt. eigenvalues --    5.02238   5.04426   5.05013   5.07163   5.08073
 Alpha virt. eigenvalues --    5.09018   5.10161   5.11971   5.13314   5.16433
 Alpha virt. eigenvalues --    5.18683   5.22005   5.22651   5.24174   5.25494
 Alpha virt. eigenvalues --    5.26409   5.27456   5.28915   5.29725   5.31023
 Alpha virt. eigenvalues --    5.33857   5.35775   5.38307   5.41948   5.42528
 Alpha virt. eigenvalues --    5.43709   5.44806   5.46921   5.51169   5.53835
 Alpha virt. eigenvalues --    5.55942   5.65934   5.69380   5.73638   5.77205
 Alpha virt. eigenvalues --    5.78401   5.80415   5.82988   5.90545   5.92796
 Alpha virt. eigenvalues --    5.94315   5.95890   6.01865  11.42807  11.64113
 Alpha virt. eigenvalues --   12.14095  12.82648  13.31280  13.56692  13.92738
          Condensed to atoms (all electrons):
               1          2          3          4          5          6
     1  C    5.085822   0.289358  -0.052215   0.321331   0.004272  -0.046008
     2  C    0.289358   5.177870   0.303485  -0.050242  -0.054473  -0.005796
     3  C   -0.052215   0.303485   5.119429   0.006852   0.302361  -0.001369
     4  C    0.321331  -0.050242   0.006852   5.046841  -0.000518   0.281950
     5  C    0.004272  -0.054473   0.302361  -0.000518   5.037495   0.000097
     6  C   -0.046008  -0.005796  -0.001369   0.281950   0.000097   5.004775
     7  C   -0.000258   0.003684  -0.050572   0.000018   0.309475  -0.000000
     8  H   -0.042702  -0.007355   0.000217   0.411950  -0.000020  -0.053220
     9  H   -0.049102   0.011445  -0.000784   0.419626   0.000047  -0.045375
    10  H    0.414076  -0.049158   0.006307  -0.041343   0.000259   0.009442
    11  H    0.419711  -0.061166  -0.014635  -0.044812   0.000505  -0.005795
    12  H   -0.042989   0.412401  -0.037560   0.004074  -0.022752  -0.000145
    13  H   -0.055014   0.411831  -0.050598  -0.004412   0.008946   0.000074
    14  H    0.007377  -0.046167   0.408085  -0.000414  -0.042282  -0.000226
    15  H   -0.017646  -0.046987   0.412707   0.001007  -0.041076   0.000167
    16  H   -0.000271  -0.015422  -0.058514  -0.000058   0.423546  -0.000018
    17  H    0.000128   0.006087  -0.042005   0.000018   0.403717  -0.000001
    18  H   -0.003540   0.004206  -0.003064  -0.059897   0.000201   0.404826
    19  H    0.004914  -0.000388   0.000089  -0.042238  -0.000001   0.402591
    20  H    0.005809  -0.000680   0.000096  -0.044599  -0.000007   0.407867
    21  H   -0.000027  -0.000214  -0.005555   0.000003  -0.050420  -0.000001
    22  H   -0.000015  -0.000026  -0.001861  -0.000000  -0.039332  -0.000000
    23  H    0.000035  -0.000461   0.009531  -0.000001  -0.042816   0.000000
               7          8          9         10         11         12
     1  C   -0.000258  -0.042702  -0.049102   0.414076   0.419711  -0.042989
     2  C    0.003684  -0.007355   0.011445  -0.049158  -0.061166   0.412401
     3  C   -0.050572   0.000217  -0.000784   0.006307  -0.014635  -0.037560
     4  C    0.000018   0.411950   0.419626  -0.041343  -0.044812   0.004074
     5  C    0.309475  -0.000020   0.000047   0.000259   0.000505  -0.022752
     6  C   -0.000000  -0.053220  -0.045375   0.009442  -0.005795  -0.000145
     7  C    4.942191  -0.000001  -0.000001   0.000033  -0.000106   0.001043
     8  H   -0.000001   0.619729  -0.035934  -0.008624   0.009319   0.001499
     9  H   -0.000001  -0.035934   0.606541  -0.006175  -0.008579  -0.000478
    10  H    0.000033  -0.008624  -0.006175   0.599949  -0.035424  -0.019633
    11  H   -0.000106   0.009319  -0.008579  -0.035424   0.599635   0.006441
    12  H    0.001043   0.001499  -0.000478  -0.019633   0.006441   0.586163
    13  H   -0.000185  -0.000259   0.000595   0.007207   0.005329  -0.037483
    14  H   -0.012588   0.000063   0.000033  -0.000646   0.001193   0.006598
    15  H    0.006904  -0.000055  -0.000112   0.001756   0.002466   0.005028
    16  H   -0.045030  -0.000012   0.000009   0.000158   0.000223   0.003506
    17  H   -0.035505   0.000003  -0.000004  -0.000066   0.000005   0.001614
    18  H   -0.000010   0.006422   0.005974   0.000333   0.000184   0.000251
    19  H    0.000000   0.007281  -0.020158  -0.000481   0.001538   0.000009
    20  H   -0.000000  -0.019759   0.006363  -0.000578  -0.000278   0.000030
    21  H    0.407490  -0.000001  -0.000000   0.000007  -0.000017   0.000393
    22  H    0.402873  -0.000000   0.000000   0.000001   0.000004  -0.000105
    23  H    0.404471   0.000000   0.000000  -0.000007   0.000008  -0.000125
              13         14         15         16         17         18
     1  C   -0.055014   0.007377  -0.017646  -0.000271   0.000128  -0.003540
     2  C    0.411831  -0.046167  -0.046987  -0.015422   0.006087   0.004206
     3  C   -0.050598   0.408085   0.412707  -0.058514  -0.042005  -0.003064
     4  C   -0.004412  -0.000414   0.001007  -0.000058   0.000018  -0.059897
     5  C    0.008946  -0.042282  -0.041076   0.423546   0.403717   0.000201
     6  C    0.000074  -0.000226   0.000167  -0.000018  -0.000001   0.404826
     7  C   -0.000185  -0.012588   0.006904  -0.045030  -0.035505  -0.000010
     8  H   -0.000259   0.000063  -0.000055  -0.000012   0.000003   0.006422
     9  H    0.000595   0.000033  -0.000112   0.000009  -0.000004   0.005974
    10  H    0.007207  -0.000646   0.001756   0.000158  -0.000066   0.000333
    11  H    0.005329   0.001193   0.002466   0.000223   0.000005   0.000184
    12  H   -0.037483   0.006598   0.005028   0.003506   0.001614   0.000251
    13  H    0.588633  -0.019213   0.006452   0.001372  -0.000636  -0.002202
    14  H   -0.019213   0.598376  -0.042477   0.005627   0.005732   0.001567
    15  H    0.006452  -0.042477   0.600952   0.005893  -0.016454  -0.000664
    16  H    0.001372   0.005627   0.005893   0.624096  -0.042252   0.000004
    17  H   -0.000636   0.005732  -0.016454  -0.042252   0.607278  -0.000001
    18  H   -0.002202   0.001567  -0.000664   0.000004  -0.000001   0.602082
    19  H    0.000094  -0.000048   0.000046  -0.000000   0.000000  -0.031947
    20  H   -0.001178   0.000063  -0.000020   0.000001  -0.000000  -0.039048
    21  H   -0.000106   0.000387   0.000503  -0.000610   0.007700   0.000002
    22  H    0.000061   0.001000   0.000251   0.008356  -0.014060  -0.000000
    23  H   -0.000003   0.000858  -0.000594  -0.012496   0.000759   0.000000
              19         20         21         22         23
     1  C    0.004914   0.005809  -0.000027  -0.000015   0.000035
     2  C   -0.000388  -0.000680  -0.000214  -0.000026  -0.000461
     3  C    0.000089   0.000096  -0.005555  -0.001861   0.009531
     4  C   -0.042238  -0.044599   0.000003  -0.000000  -0.000001
     5  C   -0.000001  -0.000007  -0.050420  -0.039332  -0.042816
     6  C    0.402591   0.407867  -0.000001  -0.000000   0.000000
     7  C    0.000000  -0.000000   0.407490   0.402873   0.404471
     8  H    0.007281  -0.019759  -0.000001  -0.000000   0.000000
     9  H   -0.020158   0.006363  -0.000000   0.000000   0.000000
    10  H   -0.000481  -0.000578   0.000007   0.000001  -0.000007
    11  H    0.001538  -0.000278  -0.000017   0.000004   0.000008
    12  H    0.000009   0.000030   0.000393  -0.000105  -0.000125
    13  H    0.000094  -0.001178  -0.000106   0.000061  -0.000003
    14  H   -0.000048   0.000063   0.000387   0.001000   0.000858
    15  H    0.000046  -0.000020   0.000503   0.000251  -0.000594
    16  H   -0.000000   0.000001  -0.000610   0.008356  -0.012496
    17  H    0.000000  -0.000000   0.007700  -0.014060   0.000759
    18  H   -0.031947  -0.039048   0.000002  -0.000000   0.000000
    19  H    0.603951  -0.029876   0.000000   0.000000  -0.000000
    20  H   -0.029876   0.600018  -0.000000   0.000000  -0.000000
    21  H    0.000000  -0.000000   0.603680  -0.038886  -0.034149
    22  H    0.000000   0.000000  -0.038886   0.606915  -0.030835
    23  H   -0.000000  -0.000000  -0.034149  -0.030835   0.606787
 Mulliken charges:
               1
     1  C   -0.243047
     2  C   -0.281830
     3  C   -0.250427
     4  C   -0.205136
     5  C   -0.197226
     6  C   -0.353835
     7  C   -0.333925
     8  H    0.111460
     9  H    0.116069
    10  H    0.122607
    11  H    0.124250
    12  H    0.132220
    13  H    0.140694
    14  H    0.127103
    15  H    0.121950
    16  H    0.101894
    17  H    0.117944
    18  H    0.114321
    19  H    0.104621
    20  H    0.115775
    21  H    0.109823
    22  H    0.105659
    23  H    0.099037
 Sum of Mulliken charges =  -0.00000
 Mulliken charges with hydrogens summed into heavy atoms:
               1
     1  C    0.003810
     2  C   -0.008917
     3  C   -0.001373
     4  C    0.022393
     5  C    0.022611
     6  C   -0.019119
     7  C   -0.019406
 APT charges:
               1
     1  C   -0.616661
     2  C   -0.524740
     3  C   -0.500536
     4  C   -0.897265
     5  C   -0.600233
     6  C   -1.112514
     7  C   -1.380129
     8  H    0.359191
     9  H    0.511034
    10  H    0.376585
    11  H    0.277155
    12  H    0.343287
    13  H    0.303395
    14  H    0.303626
    15  H    0.293685
    16  H    0.261831
    17  H    0.397504
    18  H    0.080640
    19  H    0.547845
    20  H    0.392902
    21  H    0.195262
    22  H    0.458314
    23  H    0.529822
 Sum of APT charges =  -0.00000
 APT charges with hydrogens summed into heavy atoms:
               1
     1  C    0.037079
     2  C    0.121942
     3  C    0.096774
     4  C   -0.027040
     5  C    0.059102
     6  C   -0.091126
     7  C   -0.196732
 Electronic spatial extent (au):  <R**2>=           1401.6286
 Charge=             -0.0000 electrons
 Dipole moment (field-independent basis, Debye):
    X=              0.0521    Y=             -0.1219    Z=             -0.0025  Tot=              0.1326
 Quadrupole moment (field-independent basis, Debye-Ang):
   XX=            -50.0816   YY=            -49.4163   ZZ=            -48.5077
   XY=              0.1939   XZ=             -0.0882   YZ=             -0.0631
 Traceless Quadrupole moment (field-independent basis, Debye-Ang):
   XX=             -0.7464   YY=             -0.0811   ZZ=              0.8275
   XY=              0.1939   XZ=             -0.0882   YZ=             -0.0631
 Octapole moment (field-independent basis, Debye-Ang**2):
  XXX=              4.3024  YYY=             -1.4059  ZZZ=              0.7520  XYY=             -0.8708
  XXY=             -2.2355  XXZ=              2.0095  XZZ=              0.1432  YZZ=             -0.4400
  YYZ=             -1.5140  XYZ=             -1.3171
 Hexadecapole moment (field-independent basis, Debye-Ang**3):
 XXXX=          -1640.5884 YYYY=           -243.5838 ZZZZ=           -136.1382 XXXY=              7.6905
 XXXZ=              5.1511 YYYX=             -3.8176 YYYZ=              0.1919 ZZZX=             -4.1682
 ZZZY=             -1.4019 XXYY=           -317.5032 XXZZ=           -284.3500 YYZZ=            -61.9951
 XXYZ=              1.1935 YYXZ=             -0.7495 ZZXY=              2.2576
 N-N= 3.187914315329D+02 E-N=-1.276061129966D+03  KE= 2.745281646384D+02
  Exact polarizability:   0.000   0.000   0.000   0.000   0.000   0.000
 Approx polarizability:  97.403   0.113  97.179   0.152   0.659  98.867
 No NMR shielding tensors so no spin-rotation constants.
 Leave Link  601 at Sat Sep 28 04:32:19 2019, MaxMem=   671088640 cpu:              66.6 elap:              33.3
 (Enter /shared/centos7/gaussian/g16/l701.exe)
 SCFChk:  SCF convergence  5.70D-09 required  1.00D-08
 ... and contract with generalized density number  0.
 Compute integral second derivatives.
 Entering OneElI...
 Calculate overlap and kinetic energy integrals
    NBasis = 485  MinDer = 2  MaxDer = 2
 Requested accuracy = 0.1000D-12
 PrmmSu-InSpLW:  IPartL=    0 NPrtUS=   20 NPrtUL=    1 DoSpLW=F IThBeg=    0 IThEnd=   19 NThAct=   20.
 PrsmSu:  NPrtUS=  20 ThrOK=T IAlg=1 NPAlg=1 LenDen=           0 ISkipM=0 DoSpLW=F IThBeg=    0 IThEnd=   19.
 Prism:   IPart=     0 DynPar=F LinDyn=F Incr=           6.
 PRISM was handed    33208853 working-precision words and 13415 shell-pairs
 PRISM was handed    33208853 working-precision words and 13415 shell-pairs
 PRISM was handed    33208853 working-precision words and 13415 shell-pairs
 PRISM was handed    33208853 working-precision words and 13415 shell-pairs
 PRISM was handed    33208853 working-precision words and 13415 shell-pairs
 PRISM was handed    33208853 working-precision words and 13415 shell-pairs
 PRISM was handed    33208853 working-precision words and 13415 shell-pairs
 PRISM was handed    33208853 working-precision words and 13415 shell-pairs
 PRISM was handed    33208853 working-precision words and 13415 shell-pairs
 PRISM was handed    33208853 working-precision words and 13415 shell-pairs
 PRISM was handed    33208853 working-precision words and 13415 shell-pairs
 PRISM was handed    33208853 working-precision words and 13415 shell-pairs
 PRISM was handed    33208853 working-precision words and 13415 shell-pairs
 PRISM was handed    33208853 working-precision words and 13415 shell-pairs
 PRISM was handed    33208853 working-precision words and 13415 shell-pairs
 PRISM was handed    33208853 working-precision words and 13415 shell-pairs
 IPart=  2 NShTot=         699 NBatch=          75 AvBLen=         9.3
 IPart= 14 NShTot=         654 NBatch=          51 AvBLen=        12.8
 PRISM was handed    33208853 working-precision words and 13415 shell-pairs
 PRISM was handed    33208853 working-precision words and 13415 shell-pairs
 PRISM was handed    33208853 working-precision words and 13415 shell-pairs
 PRISM was handed    33208853 working-precision words and 13415 shell-pairs
 IPart=  3 NShTot=         693 NBatch=          73 AvBLen=         9.5
 IPart=  7 NShTot=         675 NBatch=          61 AvBLen=        11.1
 IPart=  5 NShTot=         684 NBatch=          67 AvBLen=        10.2
 IPart= 15 NShTot=         654 NBatch=          51 AvBLen=        12.8
 IPart=  1 NShTot=         704 NBatch=          79 AvBLen=         8.9
 IPart= 16 NShTot=         650 NBatch=          49 AvBLen=        13.3
 IPart= 12 NShTot=         661 NBatch=          53 AvBLen=        12.5
 IPart=  0 NShTot=         706 NBatch=          80 AvBLen=         8.8
 IPart= 10 NShTot=         667 NBatch=          57 AvBLen=        11.7
 IPart= 19 NShTot=         640 NBatch=          45 AvBLen=        14.2
 IPart=  8 NShTot=         673 NBatch=          61 AvBLen=        11.0
 IPart= 17 NShTot=         648 NBatch=          49 AvBLen=        13.2
 IPart=  9 NShTot=         670 NBatch=          60 AvBLen=        11.2
 IPart=  6 NShTot=         682 NBatch=          66 AvBLen=        10.3
 IPart= 11 NShTot=         665 NBatch=          56 AvBLen=        11.9
 IPart= 18 NShTot=         643 NBatch=          47 AvBLen=        13.7
 IPart= 13 NShTot=         659 NBatch=          52 AvBLen=        12.7
 IPart=  4 NShTot=         688 NBatch=          69 AvBLen=        10.0
 PrSmSu:  NxtVal=            121.
 Entering OneElI...
 Calculate potential energy integrals
    NBasis = 485  MinDer = 2  MaxDer = 2
 Requested accuracy = 0.1000D-12
 PrmmSu-InSpLW:  IPartL=    0 NPrtUS=   20 NPrtUL=    1 DoSpLW=F IThBeg=    0 IThEnd=   19 NThAct=   20.
 PrsmSu:  NPrtUS=  20 ThrOK=T IAlg=1 NPAlg=1 LenDen=           0 ISkipM=0 DoSpLW=F IThBeg=    0 IThEnd=   19.
 Prism:   IPart=     0 DynPar=F LinDyn=F Incr=         135.
 PRISM was handed    33275336 working-precision words and 11759 shell-pairs
 PRISM was handed    33275336 working-precision words and 11759 shell-pairs
 PRISM was handed    33275336 working-precision words and 11759 shell-pairs
 PRISM was handed    33275336 working-precision words and 11759 shell-pairs
 PRISM was handed    33275336 working-precision words and 11759 shell-pairs
 PRISM was handed    33275336 working-precision words and 11759 shell-pairs
 PRISM was handed    33275336 working-precision words and 11759 shell-pairs
 PRISM was handed    33275336 working-precision words and 11759 shell-pairs
 PRISM was handed    33275336 working-precision words and 11759 shell-pairs
 PRISM was handed    33275336 working-precision words and 11759 shell-pairs
 PRISM was handed    33275336 working-precision words and 11759 shell-pairs
 PRISM was handed    33275336 working-precision words and 11759 shell-pairs
 PRISM was handed    33275336 working-precision words and 11759 shell-pairs
 PRISM was handed    33275336 working-precision words and 11759 shell-pairs
 PRISM was handed    33275336 working-precision words and 11759 shell-pairs
 PRISM was handed    33275336 working-precision words and 11759 shell-pairs
 PRISM was handed    33275336 working-precision words and 11759 shell-pairs
 PRISM was handed    33275336 working-precision words and 11759 shell-pairs
 PRISM was handed    33275336 working-precision words and 11759 shell-pairs
 PRISM was handed    33275336 working-precision words and 11759 shell-pairs
 IPart= 16 NShTot=       13064 NBatch=         569 AvBLen=        23.0
 IPart=  1 NShTot=       14168 NBatch=         618 AvBLen=        22.9
 IPart=  7 NShTot=       13478 NBatch=         587 AvBLen=        23.0
 IPart=  3 NShTot=       14099 NBatch=         615 AvBLen=        22.9
 IPart= 12 NShTot=       13294 NBatch=         579 AvBLen=        23.0
 IPart=  5 NShTot=       13938 NBatch=         607 AvBLen=        23.0
 IPart=  2 NShTot=       14122 NBatch=         616 AvBLen=        22.9
 IPart= 14 NShTot=       13179 NBatch=         574 AvBLen=        23.0
 IPart= 15 NShTot=       13133 NBatch=         572 AvBLen=        23.0
 IPart= 18 NShTot=       12995 NBatch=         566 AvBLen=        23.0
 IPart= 19 NShTot=       12926 NBatch=         563 AvBLen=        23.0
 IPart= 17 NShTot=       12995 NBatch=         566 AvBLen=        23.0
 IPart=  8 NShTot=       13478 NBatch=         587 AvBLen=        23.0
 IPart= 11 NShTot=       13363 NBatch=         582 AvBLen=        23.0
 IPart= 10 NShTot=       13432 NBatch=         585 AvBLen=        23.0
 IPart= 13 NShTot=       13271 NBatch=         578 AvBLen=        23.0
 IPart=  0 NShTot=       14283 NBatch=         623 AvBLen=        22.9
 IPart=  9 NShTot=       13455 NBatch=         586 AvBLen=        23.0
 IPart=  4 NShTot=       14053 NBatch=         613 AvBLen=        22.9
 IPart=  6 NShTot=       13731 NBatch=         598 AvBLen=        23.0
 PrSmSu:  NxtVal=           2701.
 Polarizability after L701:
                1             2             3 
      1  0.000000D+00
      2  0.000000D+00  0.000000D+00
      3  0.000000D+00  0.000000D+00  0.000000D+00
 Dipole Derivatives after L701:
                 1             2             3             4             5 
      1   0.361977D-01  0.560479D+00 -0.518597D+00 -0.169046D+00 -0.346812D+00
      2  -0.831308D-01 -0.115760D+01  0.247612D+00 -0.338244D+00 -0.618574D+00
      3   0.813894D-01 -0.639364D-01 -0.728580D+00 -0.660326D-01  0.350587D-01
                 6             7             8             9            10 
      1   0.401736D-01  0.201028D-01  0.580097D+00  0.310310D+00 -0.167795D+01
      2  -0.188295D+00  0.122183D+00 -0.728230D+00  0.423131D-01  0.451051D+00
      3  -0.786599D+00 -0.197303D+00 -0.453720D-01 -0.793482D+00 -0.659158D-01
                11            12            13            14            15 
      1   0.157807D+01  0.640064D+00 -0.353261D+00 -0.163622D+01  0.294703D+00
      2  -0.207002D+00 -0.503022D-01 -0.160289D+00 -0.723408D+00 -0.491221D-01
      3  -0.347147D-01 -0.806839D+00  0.240849D+00  0.552959D-01 -0.724029D+00
                16            17            18            19            20 
      1  -0.121522D+01 -0.185366D+01 -0.315803D+00 -0.223706D+01  0.103160D+01
      2  -0.596201D-01 -0.117285D+01 -0.113500D-01 -0.106799D-01 -0.916731D+00
      3   0.200054D-02  0.745003D-01 -0.949480D+00 -0.564921D-02  0.545203D-02
                21            22            23            24            25 
      1  -0.380081D+00  0.292376D+00 -0.124152D+00 -0.936313D+00  0.994988D+00
      2  -0.103337D-01 -0.153588D-01  0.194013D+00  0.184669D+00 -0.224286D+00
      3  -0.986592D+00 -0.830720D-01  0.548104D-01  0.591184D+00  0.128608D+00
                26            27            28            29            30 
      1  -0.571225D+00  0.647723D+00  0.145426D+00 -0.424442D+00 -0.914271D-01
      2   0.319838D+00 -0.176406D+00  0.172828D-01  0.842457D+00  0.204659D+00
      3  -0.704036D-01  0.218277D+00  0.227571D-01  0.293300D-01  0.141873D+00
                31            32            33            34            35 
      1   0.107485D+00 -0.359488D-02  0.382036D+00  0.221647D+00  0.896770D-01
      2   0.226593D-01  0.109477D+00 -0.269648D+00  0.144398D+00  0.429518D+00
      3  -0.705699D-01  0.402937D-01  0.614503D+00  0.176216D+00  0.314607D+00
                36            37            38            39            40 
      1   0.839852D-01  0.210830D+00  0.129641D+00 -0.101222D+00  0.161083D+00
      2   0.228502D+00  0.588256D-01  0.343427D+00 -0.112226D+00 -0.330971D-01
      3   0.378695D+00 -0.121179D+00 -0.320507D+00  0.355928D+00 -0.123515D-01
                41            42            43            44            45 
      1  -0.378204D+00  0.271468D-01  0.993867D-01  0.260941D-01 -0.218619D+00
      2   0.620967D+00 -0.775074D-01 -0.929856D-03  0.127336D+00 -0.187887D-01
      3   0.813529D-01  0.128828D+00  0.139577D+00 -0.109282D+00  0.654332D+00
                46            47            48            49            50 
      1   0.805854D-01  0.546062D+00  0.535584D+00  0.399981D+00  0.462566D+00
      2  -0.469529D-01  0.403222D+00  0.323608D+00  0.930685D-01  0.292359D+00
      3  -0.258874D-01  0.175425D+00  0.301684D+00 -0.111220D+00 -0.202177D+00
                51            52            53            54            55 
      1  -0.744658D+00 -0.307336D+00  0.305994D+00  0.159955D+00  0.115307D+01
      2  -0.290565D+00 -0.431892D+00  0.377607D+00  0.187763D+00  0.335711D+00
      3   0.500173D+00 -0.177934D+00  0.958138D-01  0.171650D+00  0.274828D+00
                56            57            58            59            60 
      1   0.112086D+00  0.910133D+00  0.317674D+00  0.502163D+00 -0.962666D+00
      2   0.178850D+00  0.286584D+00  0.125814D+00  0.394093D+00 -0.496198D+00
      3   0.199103D-01  0.311616D+00 -0.910618D-01 -0.142265D+00  0.466941D+00
                61            62            63            64            65 
      1  -0.194302D+00 -0.768703D+00  0.469888D+00  0.743538D+00 -0.543284D+00
      2   0.192371D+00  0.501542D+00 -0.273676D+00 -0.179628D+00  0.246955D+00
      3  -0.131063D+00 -0.264666D+00  0.278545D+00 -0.135352D+00  0.990019D-01
                66            67            68            69 
      1  -0.113249D+01  0.116981D+01  0.725781D+00  0.900171D+00
      2   0.286638D+00  0.207450D-01  0.142731D+00  0.320694D-01
      3   0.384449D+00  0.228367D+00  0.172472D+00  0.276924D+00
 Hessian after L701:
                1             2             3             4             5 
      1  0.145751D+02
      2 -0.474798D+00  0.166489D+02
      3 -0.114297D+00  0.350503D+00  0.176389D+02
      4 -0.356868D+01 -0.124321D+01  0.138317D+01  0.145332D+02
      5 -0.123430D+01 -0.536093D+01 -0.612442D+00  0.590089D+00  0.175927D+02
      6  0.138255D+01 -0.613672D+00 -0.545286D+01  0.949423D-01 -0.564759D-01
      7  0.264921D+00 -0.145971D+00 -0.873281D-01 -0.390580D+01 -0.101702D+01
      8 -0.173403D+00 -0.239221D-01  0.242735D-01 -0.982245D+00 -0.553347D+01
      9  0.599584D-01 -0.323594D-01 -0.588616D-01 -0.179693D+01  0.751419D+00
     10 -0.285512D+01  0.142615D+01 -0.798393D+00  0.408547D+00 -0.457583D-01
     11  0.145317D+01 -0.552776D+01 -0.299937D+00 -0.311379D-01 -0.101921D+00
     12 -0.801780D+00 -0.299878D+00 -0.590021D+01  0.239428D+00 -0.208837D-01
     13  0.265378D+00 -0.353190D-01 -0.343690D-01  0.349609D+00  0.966132D-01
     14 -0.104716D+00 -0.149566D+00  0.107715D-01 -0.649398D-02 -0.690450D-01
     15 -0.505870D-02 -0.681445D-03 -0.151172D+00 -0.128509D+00 -0.183005D-02
     16  0.324597D-01  0.257898D+00  0.426955D-01  0.189831D+00  0.211879D+00
     17  0.223724D+00  0.249772D+00  0.339614D-01  0.106984D+00 -0.109379D+00
     18 -0.165318D-01 -0.183431D-01 -0.166252D+00  0.678583D-01  0.349990D-01
     19  0.558566D-01 -0.277743D-01 -0.804661D-03  0.237877D+00 -0.889144D-01
     20 -0.252311D-01 -0.431366D-01 -0.358349D-02 -0.644264D-01 -0.134206D+00
     21  0.903524D-02 -0.439340D-02 -0.520146D-01 -0.601735D-01  0.158005D-01
     22 -0.920104D-02 -0.685593D-01  0.108396D+00 -0.410612D-02  0.219282D-01
     23 -0.473011D-01  0.694981D-01  0.599966D-01  0.818308D-02 -0.108139D-01
     24  0.585138D-01  0.760626D-01  0.680966D-01 -0.987977D-02 -0.786945D-02
     25 -0.107802D+00 -0.182517D-01 -0.502723D-02  0.188000D+00 -0.542878D-01
     26 -0.160434D-01  0.122984D+00 -0.256105D-01 -0.716075D-01 -0.444840D-01
     27  0.822152D-02 -0.250936D-01  0.118600D+00  0.715115D-01 -0.133388D-01
     28 -0.433605D+01 -0.175500D-01 -0.201854D-02 -0.915658D-03  0.133466D+00
     29  0.348788D-01 -0.185696D+01  0.386927D+00  0.127176D+00  0.889981D-01
     30  0.459588D-02  0.369437D+00 -0.420458D+01 -0.684186D-01  0.909732D-01
     31 -0.451953D+01 -0.669626D-02 -0.251987D+00  0.521959D-01  0.832226D-01
     32  0.699333D-02 -0.448128D+01 -0.677514D-01  0.903210D-01  0.126116D+00
     33 -0.359564D+00  0.464920D-01 -0.172477D+01 -0.191739D+00  0.129386D+00
     34 -0.130371D-01  0.728150D-01 -0.110618D+00 -0.427132D+01  0.602517D+00
     35  0.743250D-01  0.155772D+00  0.650468D-01  0.669112D+00 -0.349950D+01
     36 -0.103764D+00  0.789804D-01  0.214124D-01  0.705818D+00  0.112519D+01
     37  0.765462D-01  0.163388D+00 -0.158736D+00 -0.441547D+01  0.514041D+00
     38  0.147188D+00  0.833162D-01  0.118950D+00  0.575382D+00 -0.313115D+01
     39 -0.158783D+00  0.132093D+00  0.473872D-04 -0.509227D+00 -0.125106D+01
     40  0.403338D-01 -0.891905D-01 -0.652781D-02  0.361011D-01  0.103488D+00
     41 -0.112164D+00  0.553609D-01  0.119265D-01  0.868576D-01  0.800533D-01
     42 -0.464371D-02  0.285880D-03 -0.513529D-01  0.867573D-01 -0.114054D+00
     43 -0.372573D-01  0.383292D-01  0.526429D-01  0.592314D-01  0.359425D-01
     44  0.331739D-01  0.540416D-02 -0.277372D-01  0.333080D-01  0.103918D+00
     45  0.272154D-01 -0.297005D-01  0.148949D-01  0.138981D+00 -0.907211D-01
     46  0.206649D-01  0.101962D-01  0.443135D-02 -0.353492D-01 -0.408222D-01
     47  0.196321D-01 -0.988213D-02 -0.363795D-03 -0.840238D-02  0.298667D-02
     48  0.272929D-01  0.978576D-02 -0.170191D-01  0.218169D-01  0.740441D-02
     49  0.327752D-01  0.646312D-02 -0.133779D-01  0.701489D-01  0.294098D-01
     50  0.105340D-01 -0.106244D-01 -0.581850D-02  0.431608D-01 -0.356996D-01
[...]
 .14699385,-0.08717241,0.00030913,0.00012626,0.00012593,0.00569779,0.00
 527310,0.00469309,-0.00003445,0.00000556,-0.00001472,-0.00011907,0.000
 19191,0.00043044,-0.00006787,0.00000093,0.00012807,0.00004250,-0.00001
 575,-0.00008005,-0.00008093,-0.00014619,-0.00008889,0.00042264,0.00009
 979,-0.00026114,0.00015564,0.00147415,0.00069456,0.00052348,0.00066266
 ,-0.00027592,0.09506510,0.15549877,-0.00178925,-0.00022811,0.00106325,
 -0.01699867,-0.02104152,-0.02066485,-0.07874350,-0.08661275,-0.1253232
 1,0.00022756,0.00028112,0.00002001,0.00171426,0.00214315,0.00083155,-0
 .00009646,-0.00000095,-0.00000598,0.00053834,0.00066546,0.00106834,-0.
 00004071,0.00015951,0.00030792,0.00010097,0.00005594,-0.00000516,0.000
 15899,-0.00001532,-0.00002216,0.00108933,0.00026657,0.00016382,0.00225
 346,0.00077213,-0.00568171,-0.00043554,0.00040545,0.00123135,0.0848907
 3,0.09669490,0.14017853,0.00091213,-0.00138461,0.00016662,0.00019115,-
 0.00935898,0.00354918,-0.05188809,0.03133715,-0.01294073,0.00004171,0.
 00009711,0.00000947,-0.00705055,0.03234360,-0.01022346,-0.00002929,-0.
 00003037,0.00007065,0.00148173,0.00041073,-0.00140488,-0.00000330,-0.0
 0001435,-0.00002452,-0.00001707,0.00000651,0.00000733,-0.00012463,0.00
 041918,0.00013475,-0.00001931,-0.00005039,-0.00000158,0.00019360,0.000
 53257,-0.00043059,-0.00028664,0.00022228,0.00209504,0.00228460,-0.0169
 4318,0.00664172,0.05908743,0.00019857,0.00026956,-0.00048733,0.0003145
 6,-0.00169044,0.00074410,0.03171575,-0.26871320,0.07997087,-0.00025641
 ,0.00043701,-0.00001016,0.00169913,-0.00820336,0.00270779,0.00015635,-
 0.00006191,-0.00016141,-0.00060428,0.00034416,0.00014298,0.00000784,-0
 .00002358,0.00001162,-0.00006353,-0.00000917,0.00008136,-0.00066062,0.
 00031430,0.00017079,0.00006034,-0.00001934,0.00005497,-0.00007090,0.00
 072541,0.00043827,0.00024258,0.00160964,0.00018163,0.00264011,-0.01912
 823,0.00657970,-0.03771402,0.29145472,-0.00176248,0.00091076,0.0009575
 8,-0.00295409,0.03113270,-0.01352379,-0.01306594,0.07918670,-0.0762189
 8,-0.00012165,-0.00025770,-0.00001796,0.00038394,-0.00283705,0.0001109
 4,-0.00017060,0.00007324,-0.00016501,0.00002835,-0.00101453,0.00079481
 ,-0.00003047,-0.00000608,-0.00005084,0.00002173,-0.00004177,-0.0000042
 1,0.00073452,-0.00073756,0.00031139,0.00005367,-0.00010320,0.00000207,
 -0.00070351,-0.00028968,0.00126409,0.00214820,0.00018020,-0.00579635,0
 .00306718,-0.01702686,0.00616153,0.01135933,-0.08938649,0.08557229,-0.
 00018291,-0.00008648,-0.00003783,0.00139255,0.00061461,-0.00154708,-0.
 00702416,0.03264546,-0.01025845,0.00005243,-0.00014369,0.00002675,-0.0
 5223063,0.03159668,-0.01326861,-0.00003237,0.00003797,0.00003938,0.000
 90834,-0.01050654,0.00414103,0.00000010,-0.00000150,-0.00000130,0.0000
 0671,0.00000153,-0.00002428,0.00017382,-0.00025949,0.00007686,-0.00003
 772,0.00000208,-0.00002366,-0.00001455,-0.00008297,0.00010964,-0.00004
 021,-0.00062799,0.00072035,0.00144719,-0.00057655,-0.00039124,-0.00622
 289,0.00166489,0.00092448,0.05919112,0.00005498,0.00044277,-0.00032666
 ,-0.00063235,0.00010575,0.00037850,0.00192904,-0.00833571,0.00258329,0
 .00004454,-0.00000145,0.00000548,0.03219087,-0.27262019,0.08057724,0.0
 0005792,-0.00003505,-0.00000587,-0.00024305,-0.00025617,0.00011288,0.0
 0000230,0.00000090,-0.00000354,0.00000861,0.00000479,-0.00002353,-0.00
 026333,0.00009481,0.00006068,0.00000617,-0.00002521,0.00001092,0.00006
 822,-0.00005873,0.00003148,0.00039078,0.00031079,-0.00073866,0.0002755
 0,0.00079294,-0.00000962,0.00172904,0.00135635,-0.00016171,-0.03767189
 ,0.29482484,0.00011972,-0.00013978,0.00002149,-0.00000252,-0.00095136,
 0.00073247,0.00023858,-0.00276140,0.00014793,-0.00002128,0.00000660,-0
 .00000843,-0.01332108,0.07961209,-0.07648908,0.00002203,0.00000083,0.0
 0001273,-0.00363681,0.03097955,-0.01284926,0.00000391,-0.00000286,-0.0
 0000081,-0.00000878,0.00000619,0.00001190,0.00003975,0.00006847,-0.000
 11045,-0.00004018,0.00000439,-0.00001712,-0.00007314,-0.00007416,-0.00
 001324,0.00019008,0.00018360,0.00016838,-0.00015873,0.00038980,-0.0000
 7339,0.00080727,-0.00008832,0.00033241,0.01127107,-0.08950242,0.085368
 08,0.00002655,0.00032102,0.00024778,0.00118162,-0.00079116,-0.00173963
 ,-0.02153022,-0.02091134,-0.01783158,0.00004736,0.00005616,0.00003739,
 -0.12557902,-0.08757575,-0.08074018,-0.00003006,0.00001227,0.00001740,
 0.00619943,0.00754061,0.00714315,-0.00002462,0.00002497,0.00007395,-0.
 00000335,-0.00000029,-0.00000356,-0.00000695,-0.00003728,-0.00005714,0
 .00036135,0.00009479,0.00003343,0.00004418,0.00046209,0.00110856,-0.00
 002905,0.00001436,0.00010046,-0.00590966,0.00223574,0.00103994,0.00143
 595,0.00030015,-0.00015117,0.00227016,0.00260880,0.00317206,0.14083249
 ,0.00010506,0.00016606,0.00030539,-0.00007112,0.00016008,0.00031371,0.
 00547314,0.00533539,0.00483526,-0.00009478,-0.00002506,-0.00002961,-0.
 08814734,-0.14783453,-0.08871744,-0.00002383,0.00000800,0.00001033,0.0
 0192244,0.00164224,0.00191976,-0.00000092,0.00001541,-0.00000499,-0.00
 000600,0.00000210,0.00002721,0.00003065,-0.00002804,0.00001108,0.00008
 502,-0.00007239,-0.00005158,-0.00033724,0.00009406,0.00022570,-0.00008
 630,-0.00007178,-0.00010447,0.00219048,0.00101526,0.00001352,-0.000563
 86,0.00076231,0.00039646,-0.01702839,-0.01911506,-0.01717788,0.0955426
 7,0.15603167,0.00018094,0.00018245,0.00013824,0.00048143,0.00055808,0.
 00094297,0.00158598,0.00214658,0.00097833,-0.00006113,-0.00000778,-0.0
 0001562,-0.08046380,-0.08780880,-0.12772795,0.00000409,0.00000141,0.00
 000592,-0.01719452,-0.02030529,-0.02005966,0.00000325,-0.00000352,-0.0
 0000703,-0.00001583,-0.00000112,0.00002052,-0.00003873,0.00000932,-0.0
 0000916,0.00006160,-0.00006491,-0.00012255,-0.00004900,-0.00024599,0.0
 0028086,-0.00008081,0.00010712,-0.00000744,0.00094651,-0.00000287,0.00
 039232,-0.00038703,-0.00000584,-0.00008390,0.00668468,0.00636318,0.006
 30950,0.08618305,0.09782419,0.14226469,-0.00024521,0.00044543,0.000156
 40,-0.00056075,0.00108284,0.00069193,0.00028103,-0.00053881,0.00001158
 ,-0.00078722,0.00073735,-0.00048297,0.00003523,0.00002387,-0.00006364,
 -0.29470280,0.06765625,-0.02661011,0.00001265,-0.00001470,-0.00000187,
 0.00070749,0.00049326,-0.00012491,0.00168522,0.00015319,0.00014872,0.0
 0010450,0.00001586,-0.00016869,0.00001521,0.00001470,0.00003914,-0.000
 11666,-0.00005158,-0.00031214,-0.00019135,-0.00112331,0.00141679,0.000
 00309,0.00002458,-0.00000146,-0.00005720,-0.00004356,0.00020315,0.0000
 1728,-0.00001664,-0.00000848,0.00000096,-0.00000139,-0.00000077,0.3198
 3741,-0.00002107,0.00070699,-0.00088008,0.00008788,0.00032045,0.000141
 04,-0.00025171,0.00010597,-0.00005575,0.03023050,-0.00868549,0.0024159
 7,-0.00003537,0.00003339,0.00003370,0.06676632,-0.06520861,0.00651300,
 -0.00000141,-0.00001136,0.00000339,-0.00009990,0.00118481,-0.00090420,
 0.00010310,-0.00515357,0.00359920,-0.00011730,0.00004670,-0.00011280,-
 0.00007157,-0.00000445,0.00007485,-0.00019236,-0.00027507,-0.00000466,
 -0.00024090,0.00043423,0.00017134,0.00001097,-0.00001676,-0.00009276,0
 .00005983,0.00000884,-0.00008920,0.00000425,-0.00000512,0.00000752,-0.
 00001356,-0.00001493,0.00000482,-0.07517903,0.07149445,-0.00094720,-0.
 00042054,0.00059597,0.00024836,0.00032143,-0.00038933,0.00011360,-0.00
 027340,-0.00003014,-0.01577720,0.00341670,-0.00179867,0.00006027,0.000
 01864,0.00002061,-0.02555053,0.00658196,-0.04997762,-0.00002414,-0.000
 00197,-0.00001592,0.00058239,-0.00062183,0.00055305,-0.00004681,0.0029
 9004,-0.00096924,0.00029205,-0.00008549,0.00011789,0.00003949,0.000054
 24,-0.00005299,0.00006167,-0.00002706,0.00003474,0.00110298,0.00008592
 ,-0.00176047,-0.00001229,0.00003726,0.00004334,-0.00006571,-0.00003146
 ,0.00015312,0.00001915,-0.00001871,-0.00001306,0.00000021,-0.00000693,
 -0.00000605,0.02714586,-0.00962868,0.05163336,0.00017823,-0.00023616,-
 0.00013178,-0.00003335,-0.00019813,0.00013777,0.00001561,0.00006713,-0
 .00001674,0.00142256,0.00225188,0.00216376,-0.00000578,-0.00002535,0.0
 0001603,-0.10827629,-0.08997165,-0.06442740,-0.00000266,0.00000642,0.0
 0000023,0.00117034,0.00076215,-0.00028830,0.00033958,-0.00012227,0.000
 61104,-0.00000579,0.00015370,0.00015657,-0.00005100,-0.00021634,0.0003
 2191,0.00008987,0.00022385,-0.00006599,-0.00025691,0.00005054,-0.00012
 996,0.00001090,-0.00000132,0.00007052,0.00001665,0.00000584,-0.0000243
 5,-0.00001772,0.00000731,-0.00000771,0.00001520,0.00001782,-0.00000117
 ,-0.01396141,-0.02304402,-0.01649505,0.11266252,-0.00000673,0.00140339
 ,-0.00173290,-0.00012879,0.00007186,0.00027100,-0.00007975,0.00002379,
 -0.00002555,-0.01515389,-0.02296987,-0.01480907,0.00000657,-0.00001585
 ,0.00003418,-0.08977693,-0.18086292,-0.09675616,-0.00001496,0.00000352
 ,-0.00000359,0.00130021,-0.00458734,0.00357428,0.00046255,0.00077323,-
 0.00040028,0.00042613,0.00042499,-0.00006530,0.00002322,0.00038343,0.0
 0114231,0.00021396,0.00002580,-0.00004157,-0.00021614,-0.00016358,0.00
 007905,-0.00000466,0.00000733,0.00004886,0.00000623,0.00000141,-0.0000
 0585,-0.00000605,0.00000757,-0.00000259,0.00001094,0.00000284,0.,0.003
 81815,0.00669074,0.00529154,0.09932465,0.20032811,0.00079777,0.0007359
 6,0.00188565,-0.00001831,-0.00006379,0.00003851,-0.00000914,-0.0000591
 3,-0.00004715,0.00881620,0.01232183,0.00777107,0.00001554,-0.00001992,
 0.00001783,-0.06442379,-0.09724816,-0.11607919,-0.00001539,0.00000697,
 -0.00000810,0.00010877,0.00364938,-0.00108876,0.00000758,-0.00089733,0
 .00038417,-0.00013935,-0.00015372,0.00020900,-0.00047893,-0.00043698,0
 .00001207,-0.00012836,0.00000280,0.00003292,-0.00003610,-0.00021107,0.
 00007506,0.00000888,-0.00000277,-0.00001106,-0.00000902,0.00000281,0.0
 0002386,-0.00000450,0.00000385,-0.00000303,-0.00000423,0.00000350,-0.0
 0000032,-0.00061074,-0.00115215,-0.00227820,0.07145346,0.10415031,0.12
 339012,0.00020239,0.00095068,-0.00062229,-0.00010617,0.00059547,0.0001
 5321,0.00017541,-0.00033531,-0.00002935,0.00053149,-0.00019301,-0.0046
 2751,0.00004851,0.00000342,-0.00000733,-0.09167544,0.00658497,0.100472
 31,-0.00001180,-0.00000412,-0.00001033,-0.00017071,-0.00017094,0.00029
 662,0.00047075,-0.00042232,-0.00029791,0.00029949,0.00023921,-0.000197
 33,0.00002401,0.00010440,0.00032283,0.00002257,-0.00000096,-0.00007053
 ,0.00015249,-0.00058303,0.00000208,-0.00000463,0.00001889,0.00003699,-
 0.00006106,-0.00001054,0.00015835,0.00001014,-0.00001036,-0.00001185,0
 .00000013,-0.00000073,-0.00000478,-0.01207636,0.00200175,0.02926538,0.
 00668625,-0.00020380,-0.01532724,0.09548990,0.00110079,-0.00585395,0.0
 0127755,0.00065444,-0.00041260,-0.00004658,-0.00023267,0.00014133,-0.0
 0001684,-0.01272477,0.00270549,0.02869882,0.00001184,0.00000496,0.0000
 5275,0.00704736,-0.04746066,-0.01743385,-0.00002676,0.00001147,-0.0000
 0853,-0.00046004,0.00088080,-0.00080565,0.00022317,0.00145191,-0.00061
 288,-0.00045509,0.00003393,0.00179080,0.00021913,0.00007242,0.00011005
 ,-0.00004905,0.00004767,-0.00003661,-0.00020002,0.00029731,-0.00008017
 ,0.00002100,-0.00001597,0.00000494,0.00002976,0.00006335,-0.00009260,-
 0.00002776,0.00002125,0.00000179,-0.00000598,-0.00000167,-0.00000167,0
 .00249924,-0.00165139,-0.00768198,0.01094153,-0.00155201,-0.02063244,-
 0.00856629,0.05121639,-0.00083448,0.00385803,0.00011076,-0.00048125,0.
 00010859,0.00025865,0.00011237,-0.00001288,0.00002904,0.00541066,-0.00
 223819,-0.01325885,-0.00004468,-0.00000209,-0.00005090,0.09989585,-0.0
 1634271,-0.27123632,0.00003634,-0.00001123,0.00001602,0.00018333,0.000
 23506,0.00048368,-0.00055359,-0.00027783,0.00031841,0.00058958,0.00008
 323,-0.00100913,-0.00001135,-0.00002569,0.00047205,0.00007791,0.000062
 93,-0.00002812,-0.00010243,-0.00011261,0.00005153,-0.00000930,-0.00000
 448,0.00001584,0.00000312,-0.00002902,0.00001970,0.00000880,-0.0000108
 1,0.00000030,0.00001012,0.00000764,0.00000359,-0.00143206,-0.00003585,
 0.00411008,0.00665249,-0.00075657,-0.01433712,-0.10952093,0.01550303,0
 .29405534,-0.00003218,-0.00002239,-0.00009801,0.00010866,0.00008446,0.
 00023428,0.00150596,0.00078300,0.00040196,0.00002545,-0.00001115,0.000
 01343,0.00502087,0.00726410,0.00591248,0.00000058,-0.00000698,-0.00001
 007,-0.12491198,-0.08915667,-0.08193959,-0.00000109,0.00000082,-0.0000
 0665,0.00001343,-0.00000064,-0.00001628,-0.00000298,0.00000282,0.00000
 507,-0.00002353,-0.00000090,0.00000150,-0.00015250,-0.00006397,-0.0000
 3484,0.00000586,0.00001166,-0.00002963,0.00008584,-0.00040026,-0.00014
 114,-0.00003417,0.00004396,-0.00009338,0.00018971,0.00004218,-0.000796
 29,0.00006728,0.00032514,0.00240342,0.00000023,-0.00000266,0.00000531,
 0.00000081,0.00000157,0.00000472,0.00000421,0.00000303,-0.00000803,0.1
 3215806,-0.00000666,-0.00001906,-0.00006656,0.00030387,0.00014423,0.00
 011863,-0.00010798,-0.00006188,0.00009331,0.00002326,-0.00000296,0.000
 00268,0.00185724,0.00176298,0.00183851,-0.00000595,0.00000060,-0.00000
 068,-0.08892399,-0.15087433,-0.09417124,-0.00000060,0.00000177,0.00000
 700,0.00000513,-0.00000276,-0.00000854,-0.00000050,-0.00001202,-0.0000
 0464,0.00001363,0.00001995,-0.00000530,-0.00005857,-0.00001752,0.00012
 275,-0.00000713,-0.00002716,0.00002976,0.00041208,0.00003459,-0.000297
 40,-0.00007681,-0.00008742,-0.00008991,0.00057830,0.00059942,-0.000281
 16,-0.00008816,0.00135503,0.00089620,0.00000370,-0.00000026,0.00000241
 ,-0.00000013,0.00000261,0.00000012,0.00000131,-0.00000133,0.00000007,0
 .09839646,0.15991954,0.00004929,0.00007688,0.00004334,0.00020161,0.000
 26083,0.00004021,-0.00181384,-0.00019860,0.00123681,-0.00000632,0.0000
 0103,0.00001117,-0.01761530,-0.02109973,-0.02022047,-0.00001435,-0.000
 00252,-0.00000635,-0.08122861,-0.09356579,-0.13143013,-0.00000601,0.00
 000818,0.00000713,0.00000473,-0.00000300,-0.00000481,0.00000333,-0.000
 00605,-0.00000314,0.00007601,0.00000023,-0.00000824,-0.00002263,0.0001
 3382,0.00032174,-0.00004325,-0.00000642,-0.00003624,0.00109889,0.00019
 536,0.00024705,0.00012750,0.00002358,-0.00000909,-0.00044706,0.0004276
 4,0.00122236,0.00275159,0.00095961,-0.00576777,0.00000153,-0.00000699,
 0.00000251,0.00000892,0.00000498,0.00000334,0.00000364,0.00000220,-0.0
 0000129,0.08829855,0.10334726,0.14661148,-0.00001204,0.00002841,-0.000
 04720,-0.00005703,0.00002071,0.00015679,0.00092128,-0.00140944,-0.0000
 8188,0.00001523,0.00001089,0.00001216,0.00024371,-0.00954399,0.0032501
 4,0.00000608,-0.00000936,-0.00001181,-0.05151020,0.02982185,-0.0115091
 3,-0.00000332,-0.00000161,-0.00000415,0.00000765,-0.00000096,-0.000009
 03,-0.00002779,0.00002664,0.00000658,-0.00000104,-0.00000309,0.0000022
 6,-0.00000043,-0.00001469,-0.00004328,-0.00006060,0.00013022,-0.000086
 56,-0.00003762,-0.00005207,-0.00004920,-0.00000960,0.00041925,0.000123
 57,-0.00000292,-0.00012203,0.00209358,0.00011498,0.00045138,-0.0005273
 4,-0.00000145,-0.00000093,0.00000331,0.00000018,0.00000038,0.00000279,
 0.00000278,0.00000502,-0.00000718,0.00192856,-0.01699623,0.00719320,0.
 05106936,-0.00000696,-0.00003100,0.00008875,-0.00018402,0.00042231,-0.
 00013964,0.00004278,0.00046500,-0.00049235,-0.00003356,0.00001010,-0.0
 0001218,0.00023373,-0.00099965,0.00067886,0.00000463,-0.00000130,-0.00
 000030,0.02941792,-0.27827327,0.08512236,0.00000583,0.00000003,0.00000
 156,-0.00001482,0.00000172,0.00001536,-0.00000872,0.00001834,0.0000074
 5,-0.00000612,-0.00000588,0.00000004,0.00000348,-0.00002084,0.00000201
 ,0.00012254,-0.00002834,-0.00017836,0.00001481,-0.00008691,0.00009773,
 -0.00065575,0.00017348,0.00025646,0.00018844,0.00171173,0.00007608,-0.
 00010361,0.00067168,0.00048026,-0.00000282,0.00000028,-0.00000722,0.00
 000450,0.00000102,-0.00000103,-0.00000285,0.00000133,0.00000482,0.0031
 3727,-0.01820435,0.00676665,-0.03269268,0.30083885,0.00000015,-0.00011
 827,0.00004425,-0.00001042,-0.00021027,-0.00008021,-0.00156815,0.00080
 406,0.00125792,-0.00000317,0.00000375,0.00000932,-0.00349168,0.0317901
 4,-0.01262795,-0.00001694,0.00000761,-0.00000514,-0.01126061,0.0842326
 0,-0.07723192,-0.00000389,-0.00000118,-0.00000538,0.00000547,-0.000001
 21,-0.00000138,0.00006715,-0.00002343,-0.00000929,-0.00000137,0.000001
 66,0.00000150,-0.00002850,0.00001965,-0.00004172,-0.00007134,-0.000198
 80,0.00023778,0.00010058,-0.00011074,-0.00000246,0.00070024,-0.0007186
 5,0.00019177,0.00247381,-0.00018018,-0.00607202,-0.00074748,-0.0002655
 7,0.00123356,0.00000593,0.00000122,0.00000915,-0.00000343,-0.00000290,
 0.00000037,0.00000552,-0.00000363,-0.00000173,0.00351061,-0.01759923,0
 .00655434,0.01059807,-0.09446221,0.08655845,0.00009651,-0.00005375,0.0
 0031464,-0.00050761,0.00035647,-0.00049784,0.00084583,-0.00056364,0.00
 283803,-0.00011170,0.00002111,-0.00007725,-0.00742687,0.00167563,-0.00
 066495,-0.00000242,0.00002090,0.00002398,-0.29882183,0.06476759,0.0211
 7959,0.00001418,-0.00000115,0.00000730,-0.00004047,-0.00000146,0.00005
 887,0.00000488,0.00000661,-0.00001261,-0.00001098,-0.00000642,-0.00001
 360,-0.00000402,0.00004108,0.00010668,-0.00000770,-0.00006138,0.000033
 97,0.00042196,0.00004935,-0.00007565,0.00015884,-0.00004545,-0.0001288
 2,0.00014652,-0.00045663,0.00012880,0.00051528,0.00021810,0.00028993,0
 .00000013,0.00000719,-0.00002110,0.00000221,-0.00000287,-0.00001061,-0
 .00001433,-0.00000788,0.00002470,-0.01595709,0.00467773,0.00137858,-0.
 00258578,0.00053597,-0.00026055,0.32328447,-0.00002180,-0.00000175,0.0
 0002968,0.00000526,0.00059007,0.00013889,-0.00012745,0.00024906,0.0002
 5574,-0.00000894,0.00000263,0.00000807,-0.00312478,-0.00072320,0.00012
 831,-0.00000219,-0.00000280,-0.00000581,0.06496332,-0.06418602,-0.0055
 7301,-0.00000150,-0.00000242,-0.00000354,0.00000029,-0.00000254,-0.000
 00060,0.00000165,0.00000172,0.00000754,0.00000113,0.00000264,-0.000003
 82,-0.00003113,-0.00002141,0.00005924,0.00003499,-0.00000833,-0.000108
 10,0.00039525,0.00006224,0.00010946,-0.00040168,0.00041611,0.00000363,
 -0.00031492,0.00017878,-0.00035499,0.00030255,-0.00009868,-0.00012584,
 0.00000341,0.00000017,0.00000511,-0.00000195,-0.00000006,0.00000095,0.
 00000416,-0.00000002,-0.00000343,-0.02043086,0.00547033,0.00268084,0.0
 2993231,-0.00666432,-0.00296442,-0.07117712,0.06473784,-0.00004824,0.0
 0009416,-0.00079645,0.00206504,-0.00052054,0.00056541,-0.00014524,0.00
 105491,-0.00675021,0.00025450,-0.00005348,0.00009140,0.03253191,-0.008
 81498,-0.00123752,0.00000448,-0.00003099,-0.00001619,0.01993676,-0.005
 24425,-0.04832722,-0.00001670,-0.00000328,-0.00000477,0.00005832,-0.00
 000456,-0.00010457,-0.00002488,-0.00002322,0.00001222,0.00000683,0.000
 03165,0.00001572,-0.00006039,-0.00008531,0.00002049,-0.00001450,0.0000
 8461,0.00003880,0.00007169,0.00028409,0.00006511,-0.00018470,-0.000191
 81,-0.00002540,-0.00049200,0.00042657,0.00132236,-0.00064410,-0.000494
 89,0.00123692,-0.00000319,-0.00000293,0.00001785,-0.00000085,0.0000058
 0,0.00000896,0.00001043,0.00001149,-0.00002150,-0.01761739,0.00606596,
 0.00118604,-0.01106571,0.00169488,-0.00001921,-0.02462208,0.00571612,0
 .05272177\\-0.00000069,-0.00000131,-0.00000018,0.00000011,0.00000002,-
 0.00000020,-0.00000063,-0.00000045,-0.00000037,-0.00000060,-0.00000046
 ,-0.00000041,0.00000009,0.00000132,0.00000024,0.00000092,-0.00000004,0
 .00000073,-0.00000018,0.00000032,-0.00000011,-0.00000127,0.00000052,-0
 .00000097,-0.00000088,-0.00000159,-0.00000061,-0.00000161,-0.00000175,
 -0.00000108,0.00000042,-0.00000239,0.00000022,-0.00000058,0.00000159,-
 0.00000083,0.00000089,0.00000074,0.00000072,0.00000057,-0.00000144,0.0
 0000024,-0.00000158,-0.00000074,-0.00000060,0.00000119,0.00000147,0.00
 000092,-0.00000050,0.00000228,-0.00000049,0.00000135,0.00000142,0.0000
 0092,0.00000184,-0.00000085,0.00000135,0.00000097,0.00000031,0.0000008
 0,0.00000075,-0.00000063,0.00000056,-0.00000112,0.00000020,-0.00000093
 ,0.00000055,0.00000146,0.00000009\\\@


 THE SECRET OF SUCCESS IN LIFE IS TO EAT WHAT YOU LIKE, AND LET THE FOOD
 FIGHT IT OUT INSIDE YOU. -- FROM A FORTUNE COOKIE
 Job cpu time:       0 days  6 hours 42 minutes 51.8 seconds.
 Elapsed time:       0 days  3 hours 21 minutes 30.5 seconds.
 File lengths (MBytes):  RWF=   1488 Int=      0 D2E=      0 Chk=     32 Scr=     32
 Normal termination of Gaussian 16 at Sat Sep 28 21:01:28 2019.
