 Entering Gaussian System, Link 0=g16
 Input=med/species/CCCCCCC/conformers/CCCCCCC_1000.com
 Output=med/species/CCCCCCC/conformers/CCCCCCC_1000.log
 Initial command:
 /shared/centos7/gaussian/g16/l1.exe "/scratch/harms.n/gauss_scrdir/Gau-27937.inp" -scrdir="/scratch/harms.n/gauss_scrdir/"
 Entering Link 1 = /shared/centos7/gaussian/g16/l1.exe PID=     27938.
  
 Copyright (c) 1988,1990,1992,1993,1995,1998,2003,2009,2016,
            Gaussian, Inc.  All Rights Reserved.
  
 This is part of the Gaussian(R) 16 program.  It is based on
 the Gaussian(R) 09 system (copyright 2009, Gaussian, Inc.),
 the Gaussian(R) 03 system (copyright 2003, Gaussian, Inc.),
 the Gaussian(R) 98 system (copyright 1998, Gaussian, Inc.),
 the Gaussian(R) 94 system (copyright 1995, Gaussian, Inc.),
 the Gaussian 92(TM) system (copyright 1992, Gaussian, Inc.),
 the Gaussian 90(TM) system (copyright 1990, Gaussian, Inc.),
 the Gaussian 88(TM) system (copyright 1988, Gaussian, Inc.),
 the Gaussian 86(TM) system (copyright 1986, Carnegie Mellon
 University), and the Gaussian 82(TM) system (copyright 1983,
 Carnegie Mellon University). Gaussian is a federally registered
 trademark of Gaussian, Inc.
  
 This software contains proprietary and confidential information,
 including trade secrets, belonging to Gaussian, Inc.
  
 This software is provided under written license and may be
 used, copied, transmitted, or stored only in accord with that
 written license.
  
 The following legend is applicable only to US Government
 contracts under FAR:
  
                    RESTRICTED RIGHTS LEGEND
  
 Use, reproduction and disclosure by the US Government is
 subject to restrictions as set forth in subparagraphs (a)
 and (c) of the Commercial Computer Software - Restricted
 Rights clause in FAR 52.227-19.
  
 Gaussian, Inc.
 340 Quinnipiac St., Bldg. 40, Wallingford CT 06492
  
  
 ---------------------------------------------------------------
 Warning -- This program may not be used in any manner that
 competes with the business of Gaussian, Inc. or will provide
 assistance to any competitor of Gaussian, Inc.  The licensee
 of this program is prohibited from giving any competitor of
 Gaussian, Inc. access to this program.  By using this program,
 the user acknowledges that Gaussian, Inc. is engaged in the
 business of creating and licensing software in the field of
 computational chemistry and represents and warrants to the
 licensee that it is not a competitor of Gaussian, Inc. and that
 it will not use this program in any manner prohibited above.
 ---------------------------------------------------------------
  

 Cite this work as:
 Gaussian 16, Revision A.03,
 M. J. Frisch, G. W. Trucks, H. B. Schlegel, G. E. Scuseria, 
 M. A. Robb, J. R. Cheeseman, G. Scalmani, V. Barone, 
 G. A. Petersson, H. Nakatsuji, X. Li, M. Caricato, A. V. Marenich, 
 J. Bloino, B. G. Janesko, R. Gomperts, B. Mennucci, H. P. Hratchian, 
 J. V. Ortiz, A. F. Izmaylov, J. L. Sonnenberg, D. Williams-Young, 
 F. Ding, F. Lipparini, F. Egidi, J. Goings, B. Peng, A. Petrone, 
 T. Henderson, D. Ranasinghe, V. G. Zakrzewski, J. Gao, N. Rega, 
 G. Zheng, W. Liang, M. Hada, M. Ehara, K. Toyota, R. Fukuda, 
 J. Hasegawa, M. Ishida, T. Nakajima, Y. Honda, O. Kitao, H. Nakai, 
 T. Vreven, K. Throssell, J. A. Montgomery, Jr., J. E. Peralta, 
 F. Ogliaro, M. J. Bearpark, J. J. Heyd, E. N. Brothers, K. N. Kudin, 
 V. N. Staroverov, T. A. Keith, R. Kobayashi, J. Normand, 
 K. Raghavachari, A. P. Rendell, J. C. Burant, S. S. Iyengar, 
 J. Tomasi, M. Cossi, J. M. Millam, M. Klene, C. Adamo, R. Cammi, 
 J. W. Ochterski, R. L. Martin, K. Morokuma, O. Farkas, 
 J. B. Foresman, and D. J. Fox, Gaussian, Inc., Wallingford CT, 2016.
 
 ******************************************
 Gaussian 16:  EM64L-G16RevA.03 25-Dec-2016
                28-Sep-2019 
 ******************************************
 %nprocshared=20
 Will use up to   20 processors via shared memory.
 %mem=5GB
 ----------------------------------------------------------------------
 #p m062x/cc-pVTZ opt=(calcfc,maxcycles=900,Tight) freq IOP(7/33=1,2/16
 =3) scf=(maxcycle=900)
 ----------------------------------------------------------------------
 1/6=900,7=10,10=4,18=20,19=15,26=3,38=1/1,3;
 2/9=110,12=2,16=3,17=6,18=5,40=1/2;
 3/5=16,6=1,11=2,25=1,30=1,71=2,74=-55,140=1/1,2,3;
 4//1;
 5/5=2,7=900,38=5/2;
 8/6=4,10=90,11=11/1;
 11/6=1,8=1,9=11,15=111,16=1/1,2,10;
 10/6=1,13=1/2;
 6/7=2,8=2,9=2,10=2,28=1/1;
 7/10=1,18=20,25=1,33=1/1,2,3,16;
 1/6=900,7=10,10=4,18=20,19=15,26=3/3(2);
 2/9=110,16=3/2;
 99//99;
 2/9=110,16=3/2;
 3/5=16,6=1,11=2,25=1,30=1,71=1,74=-55/1,2,3;
 4/5=5,16=3,69=1/1;
 5/5=2,7=900,38=5/2;
 7/33=1/1,2,3,16;
 1/6=900,7=10,18=20,19=15,26=3/3(-5);
 2/9=110,16=3/2;
 6/7=2,8=2,9=2,10=2,19=2,28=1/1;
 99/9=1/99;
 Leave Link    1 at Sat Sep 28 01:51:43 2019, MaxMem=   671088640 cpu:               4.1 elap:               2.0
 (Enter /shared/centos7/gaussian/g16/l101.exe)
 ------------------------------
 Gaussian input prepared by ASE
 ------------------------------
 Symbolic Z-matrix:
 Charge =  0 Multiplicity = 1
 C                     1.40025  -1.12775   0.47244 
 C                     0.15573  -0.40832   0.86685 
 C                    -0.13897   0.9392    0.25667 
 C                     2.22589  -0.62076  -0.66171 
 C                    -0.25156   2.06693   1.2553 
 C                     3.58173  -0.1802   -0.29134 
 C                    -0.43146   3.40067   0.57804 
 H                     1.69088   0.21373  -1.19699 
 H                     2.30972  -1.42777  -1.42817 
 H                     1.11801  -2.1771    0.24267 
 H                     2.04646  -1.21326   1.37008 
 H                     0.14644  -0.31077   1.9637 
 H                    -0.70671  -1.07212   0.64592 
 H                    -1.09289   0.88055  -0.29443 
 H                     0.62643   1.20391  -0.50177 
 H                    -1.1201    1.87349   1.93776 
 H                     0.64565   2.10042   1.89652 
 H                     3.82668  -0.40525   0.76376 
 H                     4.36492  -0.68681  -0.92969 
 H                     3.72125   0.91276  -0.43088 
 H                    -1.04031   3.30717  -0.32203 
 H                     0.56718   3.81872   0.27174 
 H                    -0.92293   4.15134   1.2613 
 
 ITRead=  0  0  0  0  0  0  0  0  0  0  0  0  0  0  0  0  0  0  0  0
 ITRead=  0  0  0
 MicOpt= -1 -1 -1 -1 -1 -1 -1 -1 -1 -1 -1 -1 -1 -1 -1 -1 -1 -1 -1 -1
 MicOpt= -1 -1 -1
 NAtoms=     23 NQM=       23 NQMF=       0 NMMI=      0 NMMIF=      0
                NMic=       0 NMicF=      0.
                    Isotopes and Nuclear Properties:
 (Nuclear quadrupole moments (NQMom) in fm**2, nuclear magnetic moments (NMagM)
  in nuclear magnetons)

  Atom         1           2           3           4           5           6           7           8           9          10
 IAtWgt=          12          12          12          12          12          12          12           1           1           1
 AtmWgt=  12.0000000  12.0000000  12.0000000  12.0000000  12.0000000  12.0000000  12.0000000   1.0078250   1.0078250   1.0078250
 NucSpn=           0           0           0           0           0           0           0           1           1           1
 AtZEff=  -0.0000000  -0.0000000  -0.0000000  -0.0000000  -0.0000000  -0.0000000  -0.0000000  -0.0000000  -0.0000000  -0.0000000
 NQMom=    0.0000000   0.0000000   0.0000000   0.0000000   0.0000000   0.0000000   0.0000000   0.0000000   0.0000000   0.0000000
 NMagM=    0.0000000   0.0000000   0.0000000   0.0000000   0.0000000   0.0000000   0.0000000   2.7928460   2.7928460   2.7928460
 AtZNuc=   6.0000000   6.0000000   6.0000000   6.0000000   6.0000000   6.0000000   6.0000000   1.0000000   1.0000000   1.0000000

  Atom        11          12          13          14          15          16          17          18          19          20
 IAtWgt=           1           1           1           1           1           1           1           1           1           1
 AtmWgt=   1.0078250   1.0078250   1.0078250   1.0078250   1.0078250   1.0078250   1.0078250   1.0078250   1.0078250   1.0078250
 NucSpn=           1           1           1           1           1           1           1           1           1           1
 AtZEff=  -0.0000000  -0.0000000  -0.0000000  -0.0000000  -0.0000000  -0.0000000  -0.0000000  -0.0000000  -0.0000000  -0.0000000
 NQMom=    0.0000000   0.0000000   0.0000000   0.0000000   0.0000000   0.0000000   0.0000000   0.0000000   0.0000000   0.0000000
 NMagM=    2.7928460   2.7928460   2.7928460   2.7928460   2.7928460   2.7928460   2.7928460   2.7928460   2.7928460   2.7928460
 AtZNuc=   1.0000000   1.0000000   1.0000000   1.0000000   1.0000000   1.0000000   1.0000000   1.0000000   1.0000000   1.0000000

  Atom        21          22          23
 IAtWgt=           1           1           1
 AtmWgt=   1.0078250   1.0078250   1.0078250
 NucSpn=           1           1           1
 AtZEff=  -0.0000000  -0.0000000  -0.0000000
 NQMom=    0.0000000   0.0000000   0.0000000
 NMagM=    2.7928460   2.7928460   2.7928460
 AtZNuc=   1.0000000   1.0000000   1.0000000
 Leave Link  101 at Sat Sep 28 01:51:44 2019, MaxMem=   671088640 cpu:               2.9 elap:               1.5
 (Enter /shared/centos7/gaussian/g16/l103.exe)

 GradGradGradGradGradGradGradGradGradGradGradGradGradGradGradGradGradGrad
 Berny optimization.
 Initialization pass.
                           ----------------------------
                           !    Initial Parameters    !
                           ! (Angstroms and Degrees)  !
 --------------------------                            --------------------------
 ! Name  Definition              Value          Derivative Info.                !
 --------------------------------------------------------------------------------
 ! R1    R(1,2)                  1.4906         calculate D2E/DX2 analytically  !
 ! R2    R(1,4)                  1.4917         calculate D2E/DX2 analytically  !
 ! R3    R(1,10)                 1.1107         calculate D2E/DX2 analytically  !
 ! R4    R(1,11)                 1.1093         calculate D2E/DX2 analytically  !
 ! R5    R(2,3)                  1.5083         calculate D2E/DX2 analytically  !
 ! R6    R(2,12)                 1.1012         calculate D2E/DX2 analytically  !
 ! R7    R(2,13)                 1.1105         calculate D2E/DX2 analytically  !
 ! R8    R(3,5)                  1.5105         calculate D2E/DX2 analytically  !
 ! R9    R(3,14)                 1.1032         calculate D2E/DX2 analytically  !
 ! R10   R(3,15)                 1.1096         calculate D2E/DX2 analytically  !
 ! R11   R(4,6)                  1.473          calculate D2E/DX2 analytically  !
 ! R12   R(4,8)                  1.1266         calculate D2E/DX2 analytically  !
 ! R13   R(4,9)                  1.1161         calculate D2E/DX2 analytically  !
 ! R14   R(5,7)                  1.5066         calculate D2E/DX2 analytically  !
 ! R15   R(5,16)                 1.1214         calculate D2E/DX2 analytically  !
 ! R16   R(5,17)                 1.1033         calculate D2E/DX2 analytically  !
 ! R17   R(6,18)                 1.1063         calculate D2E/DX2 analytically  !
 ! R18   R(6,19)                 1.1303         calculate D2E/DX2 analytically  !
 ! R19   R(6,20)                 1.1106         calculate D2E/DX2 analytically  !
 ! R20   R(7,21)                 1.0907         calculate D2E/DX2 analytically  !
 ! R21   R(7,22)                 1.1251         calculate D2E/DX2 analytically  !
 ! R22   R(7,23)                 1.1278         calculate D2E/DX2 analytically  !
 ! A1    A(2,1,4)              119.9506         calculate D2E/DX2 analytically  !
 ! A2    A(2,1,10)             107.3717         calculate D2E/DX2 analytically  !
 ! A3    A(2,1,11)             108.0259         calculate D2E/DX2 analytically  !
 ! A4    A(4,1,10)             107.7268         calculate D2E/DX2 analytically  !
 ! A5    A(4,1,11)             108.6026         calculate D2E/DX2 analytically  !
 ! A6    A(10,1,11)            104.0401         calculate D2E/DX2 analytically  !
 ! A7    A(1,2,3)              119.1619         calculate D2E/DX2 analytically  !
 ! A8    A(1,2,12)             108.2605         calculate D2E/DX2 analytically  !
 ! A9    A(1,2,13)             107.8941         calculate D2E/DX2 analytically  !
 ! A10   A(3,2,12)             108.7929         calculate D2E/DX2 analytically  !
 ! A11   A(3,2,13)             107.5661         calculate D2E/DX2 analytically  !
 ! A12   A(12,2,13)            104.1554         calculate D2E/DX2 analytically  !
 ! A13   A(2,3,5)              114.463          calculate D2E/DX2 analytically  !
 ! A14   A(2,3,14)             108.8762         calculate D2E/DX2 analytically  !
 ! A15   A(2,3,15)             110.786          calculate D2E/DX2 analytically  !
 ! A16   A(5,3,14)             107.7875         calculate D2E/DX2 analytically  !
 ! A17   A(5,3,15)             108.9786         calculate D2E/DX2 analytically  !
 ! A18   A(14,3,15)            105.5271         calculate D2E/DX2 analytically  !
 ! A19   A(1,4,6)              114.833          calculate D2E/DX2 analytically  !
 ! A20   A(1,4,8)              110.498          calculate D2E/DX2 analytically  !
 ! A21   A(1,4,9)              108.539          calculate D2E/DX2 analytically  !
 ! A22   A(6,4,8)              109.5767         calculate D2E/DX2 analytically  !
 ! A23   A(6,4,9)              108.6508         calculate D2E/DX2 analytically  !
 ! A24   A(8,4,9)              104.1799         calculate D2E/DX2 analytically  !
 ! A25   A(3,5,7)              111.8775         calculate D2E/DX2 analytically  !
 ! A26   A(3,5,16)             109.3471         calculate D2E/DX2 analytically  !
 ! A27   A(3,5,17)             110.2596         calculate D2E/DX2 analytically  !
 ! A28   A(7,5,16)             109.4989         calculate D2E/DX2 analytically  !
 ! A29   A(7,5,17)             109.3586         calculate D2E/DX2 analytically  !
 ! A30   A(16,5,17)            106.343          calculate D2E/DX2 analytically  !
 ! A31   A(4,6,18)             112.5056         calculate D2E/DX2 analytically  !
 ! A32   A(4,6,19)             111.2078         calculate D2E/DX2 analytically  !
 ! A33   A(4,6,20)             112.2334         calculate D2E/DX2 analytically  !
 ! A34   A(18,6,19)            107.1001         calculate D2E/DX2 analytically  !
 ! A35   A(18,6,20)            106.9901         calculate D2E/DX2 analytically  !
 ! A36   A(19,6,20)            106.4445         calculate D2E/DX2 analytically  !
 ! A37   A(5,7,21)             111.2061         calculate D2E/DX2 analytically  !
 ! A38   A(5,7,22)             110.2017         calculate D2E/DX2 analytically  !
 ! A39   A(5,7,23)             111.6495         calculate D2E/DX2 analytically  !
 ! A40   A(21,7,22)            107.6185         calculate D2E/DX2 analytically  !
 ! A41   A(21,7,23)            108.2858         calculate D2E/DX2 analytically  !
 ! A42   A(22,7,23)            107.7236         calculate D2E/DX2 analytically  !
 ! D1    D(4,1,2,3)             -9.4442         calculate D2E/DX2 analytically  !
 ! D2    D(4,1,2,12)          -134.3752         calculate D2E/DX2 analytically  !
 ! D3    D(4,1,2,13)           113.4678         calculate D2E/DX2 analytically  !
 ! D4    D(10,1,2,3)          -132.7056         calculate D2E/DX2 analytically  !
 ! D5    D(10,1,2,12)          102.3634         calculate D2E/DX2 analytically  !
 ! D6    D(10,1,2,13)           -9.7936         calculate D2E/DX2 analytically  !
 ! D7    D(11,1,2,3)           115.633          calculate D2E/DX2 analytically  !
 ! D8    D(11,1,2,12)           -9.298          calculate D2E/DX2 analytically  !
 ! D9    D(11,1,2,13)         -121.455          calculate D2E/DX2 analytically  !
 ! D10   D(2,1,4,6)            116.2635         calculate D2E/DX2 analytically  !
 ! D11   D(2,1,4,8)             -8.2892         calculate D2E/DX2 analytically  !
 ! D12   D(2,1,4,9)           -121.9431         calculate D2E/DX2 analytically  !
 ! D13   D(10,1,4,6)          -120.6468         calculate D2E/DX2 analytically  !
 ! D14   D(10,1,4,8)           114.8004         calculate D2E/DX2 analytically  !
 ! D15   D(10,1,4,9)             1.1466         calculate D2E/DX2 analytically  !
 ! D16   D(11,1,4,6)            -8.5405         calculate D2E/DX2 analytically  !
 ! D17   D(11,1,4,8)          -133.0932         calculate D2E/DX2 analytically  !
 ! D18   D(11,1,4,9)           113.2529         calculate D2E/DX2 analytically  !
 ! D19   D(1,2,3,5)           -119.856          calculate D2E/DX2 analytically  !
 ! D20   D(1,2,3,14)           119.464          calculate D2E/DX2 analytically  !
 ! D21   D(1,2,3,15)             3.8447         calculate D2E/DX2 analytically  !
 ! D22   D(12,2,3,5)             4.8183         calculate D2E/DX2 analytically  !
 ! D23   D(12,2,3,14)         -115.8617         calculate D2E/DX2 analytically  !
 ! D24   D(12,2,3,15)          128.519          calculate D2E/DX2 analytically  !
 ! D25   D(13,2,3,5)           117.0705         calculate D2E/DX2 analytically  !
 ! D26   D(13,2,3,14)           -3.6095         calculate D2E/DX2 analytically  !
 ! D27   D(13,2,3,15)         -119.2288         calculate D2E/DX2 analytically  !
 ! D28   D(2,3,5,7)            175.24           calculate D2E/DX2 analytically  !
 ! D29   D(2,3,5,16)           -63.2794         calculate D2E/DX2 analytically  !
 ! D30   D(2,3,5,17)            53.3038         calculate D2E/DX2 analytically  !
 ! D31   D(14,3,5,7)           -63.4792         calculate D2E/DX2 analytically  !
 ! D32   D(14,3,5,16)           58.0014         calculate D2E/DX2 analytically  !
 ! D33   D(14,3,5,17)          174.5846         calculate D2E/DX2 analytically  !
 ! D34   D(15,3,5,7)            50.5768         calculate D2E/DX2 analytically  !
 ! D35   D(15,3,5,16)          172.0574         calculate D2E/DX2 analytically  !
 ! D36   D(15,3,5,17)          -71.3594         calculate D2E/DX2 analytically  !
 ! D37   D(1,4,6,18)             6.8138         calculate D2E/DX2 analytically  !
 ! D38   D(1,4,6,19)           126.9579         calculate D2E/DX2 analytically  !
 ! D39   D(1,4,6,20)          -113.9211         calculate D2E/DX2 analytically  !
 ! D40   D(8,4,6,18)           131.8501         calculate D2E/DX2 analytically  !
 ! D41   D(8,4,6,19)          -108.0058         calculate D2E/DX2 analytically  !
 ! D42   D(8,4,6,20)            11.1152         calculate D2E/DX2 analytically  !
 ! D43   D(9,4,6,18)          -114.9189         calculate D2E/DX2 analytically  !
 ! D44   D(9,4,6,19)             5.2252         calculate D2E/DX2 analytically  !
 ! D45   D(9,4,6,20)           124.3462         calculate D2E/DX2 analytically  !
 ! D46   D(3,5,7,21)            35.6787         calculate D2E/DX2 analytically  !
 ! D47   D(3,5,7,22)           -83.5772         calculate D2E/DX2 analytically  !
 ! D48   D(3,5,7,23)           156.7494         calculate D2E/DX2 analytically  !
 ! D49   D(16,5,7,21)          -85.7143         calculate D2E/DX2 analytically  !
 ! D50   D(16,5,7,22)          155.0297         calculate D2E/DX2 analytically  !
 ! D51   D(16,5,7,23)           35.3564         calculate D2E/DX2 analytically  !
 ! D52   D(17,5,7,21)          158.1304         calculate D2E/DX2 analytically  !
 ! D53   D(17,5,7,22)           38.8745         calculate D2E/DX2 analytically  !
 ! D54   D(17,5,7,23)          -80.7989         calculate D2E/DX2 analytically  !
 --------------------------------------------------------------------------------
 Trust Radius=3.00D-01 FncErr=1.00D-07 GrdErr=1.00D-06 EigMax=2.50D+02 EigMin=1.00D-04
 Number of steps in this run=    138 maximum allowed number of steps=    138.
 GradGradGradGradGradGradGradGradGradGradGradGradGradGradGradGradGradGrad

 Leave Link  103 at Sat Sep 28 01:51:45 2019, MaxMem=   671088640 cpu:               1.7 elap:               0.8
 (Enter /shared/centos7/gaussian/g16/l202.exe)
                          Input orientation:                          
 ---------------------------------------------------------------------
 Center     Atomic      Atomic             Coordinates (Angstroms)
 Number     Number       Type             X           Y           Z
 ---------------------------------------------------------------------
      1          6           0        1.400250   -1.127754    0.472444
      2          6           0        0.155732   -0.408320    0.866846
      3          6           0       -0.138968    0.939204    0.256670
      4          6           0        2.225888   -0.620763   -0.661711
      5          6           0       -0.251559    2.066927    1.255302
      6          6           0        3.581734   -0.180201   -0.291338
      7          6           0       -0.431455    3.400674    0.578042
      8          1           0        1.690877    0.213726   -1.196992
      9          1           0        2.309718   -1.427774   -1.428171
     10          1           0        1.118012   -2.177098    0.242671
     11          1           0        2.046459   -1.213259    1.370078
     12          1           0        0.146441   -0.310768    1.963697
     13          1           0       -0.706711   -1.072125    0.645915
     14          1           0       -1.092894    0.880548   -0.294426
     15          1           0        0.626434    1.203906   -0.501774
     16          1           0       -1.120099    1.873493    1.937756
     17          1           0        0.645649    2.100418    1.896517
     18          1           0        3.826677   -0.405253    0.763760
     19          1           0        4.364923   -0.686812   -0.929693
     20          1           0        3.721247    0.912757   -0.430878
     21          1           0       -1.040315    3.307170   -0.322027
     22          1           0        0.567181    3.818721    0.271738
     23          1           0       -0.922928    4.151336    1.261304
 ---------------------------------------------------------------------
                    Distance matrix (angstroms):
                    1          2          3          4          5
     1  C    0.000000
     2  C    1.490625   0.000000
     3  C    2.586129   1.508304   0.000000
     4  C    1.491652   2.582085   2.978164   0.000000
     5  C    3.680669   2.538430   1.510531   4.127513   0.000000
     6  C    2.498018   3.623661   3.923901   1.472952   4.704872
     7  C    4.885996   3.864794   2.499533   4.976989   1.506627
     8  H    2.161262   2.646326   2.446994   1.126559   3.636091
     9  H    2.128258   3.308481   3.799649   1.116134   5.096480
    10  H    1.110665   2.108117   3.360288   2.113640   4.573062
    11  H    1.109344   2.115660   3.263260   2.124008   4.006705
    12  H    2.112662   1.101220   2.134907   3.363475   2.512699
    13  H    2.114822   1.110520   2.125862   3.242492   3.229885
    14  H    3.291981   2.137475   1.103233   3.661032   2.125323
    15  H    2.642827   2.166554   1.109570   2.431718   2.145459
    16  H    4.184111   2.825113   2.159066   4.916724   1.121392
    17  H    3.608116   2.755722   2.157114   4.055430   1.103295
    18  H    2.548415   3.672393   4.217943   2.154283   4.794299
    19  H    3.309034   4.585019   4.933195   2.156767   5.802516
    20  H    3.219736   4.017739   3.921055   2.154313   4.467494
    21  H    5.124070   4.080295   2.598958   5.119778   2.155993
    22  H    5.020150   4.288510   2.964877   4.830286   2.169451
    23  H    5.821361   4.702080   3.455673   6.032077   2.189870
                    6          7          8          9         10
     6  C    0.000000
     7  C    5.448319   0.000000
     8  H    2.133243   4.220389   0.000000
     9  H    2.113492   5.903629   1.769444   0.000000
    10  H    3.216005   5.798696   2.849008   2.184803   0.000000
    11  H    2.486882   5.296769   2.958475   2.818780   1.749870
    12  H    4.111383   4.003599   3.556731   4.175194   2.718285
    13  H    4.479367   4.481775   3.286054   3.677930   2.170988
    14  H    4.793469   2.747679   3.001443   4.265150   3.811271
    15  H    3.270142   2.666632   1.611466   3.258435   3.496719
    16  H    5.594082   2.157622   4.525821   5.830221   4.928463
    17  H    4.313760   2.142241   3.771194   5.125506   4.610366
    18  H    1.106291   5.714129   2.964680   2.855044   3.278389
    19  H    1.130281   6.479664   2.834244   2.240841   3.760029
    20  H    1.110627   4.944956   2.279907   2.909483   4.096059
    21  H    5.790167   1.090678   4.218337   5.904741   5.920681
    22  H    5.039441   1.125104   4.051648   5.783757   6.021139
    23  H    6.439324   1.127778   5.327285   6.986397   6.726970
                   11         12         13         14         15
    11  H    0.000000
    12  H    2.185622   0.000000
    13  H    2.850311   1.744730   0.000000
    14  H    4.124335   2.838011   2.201434   0.000000
    15  H    3.370904   2.933118   2.876593   1.761716   0.000000
    16  H    4.458407   2.525033   3.242901   2.443218   3.074090
    17  H    3.635913   2.463237   3.668502   3.051368   2.560450
    18  H    2.046868   3.872068   4.583689   5.193768   3.799017
    19  H    3.307774   5.129201   5.324704   5.713838   4.211202
    20  H    3.250892   4.473281   4.970518   4.816182   3.109286
    21  H    5.729369   4.440991   4.497380   2.427348   2.689624
    22  H    5.358679   4.482458   5.067858   3.421879   2.727470
    23  H    6.132534   4.641904   5.264028   3.625911   3.767799
                   16         17         18         19         20
    16  H    0.000000
    17  H    1.780747   0.000000
    18  H    5.571494   4.204815   0.000000
    19  H    6.697976   5.439587   1.799102   0.000000
    20  H    5.474675   4.035667   1.781973   1.794925   0.000000
    21  H    2.677389   3.036554   6.216802   6.748166   5.330810
    22  H    3.066992   2.366142   5.358019   6.013827   4.345852
    23  H    2.384330   2.658984   6.600667   7.494632   5.909334
                   21         22         23
    21  H    0.000000
    22  H    1.788375   0.000000
    23  H    1.798147   1.819422   0.000000
 Stoichiometry    C7H16
 Framework group  C1[X(C7H16)]
 Deg. of freedom    63
 Full point group                 C1      NOp   1
 Largest Abelian subgroup         C1      NOp   1
 Largest concise Abelian subgroup C1      NOp   1
                         Standard orientation:                         
 ---------------------------------------------------------------------
 Center     Atomic      Atomic             Coordinates (Angstroms)
 Number     Number       Type             X           Y           Z
 ---------------------------------------------------------------------
      1          6           0       -1.516770    0.956947    0.171312
      2          6           0       -0.091254    1.389845    0.121671
      3          6           0        0.939243    0.459598   -0.467989
      4          6           0       -1.944378   -0.281116   -0.542396
      5          6           0        2.038328    0.057546    0.487034
      6          6           0       -2.446384   -1.356189    0.330413
      7          6           0        2.968439   -0.958549   -0.123187
      8          1           0       -1.106689   -0.675920   -1.183911
      9          1           0       -2.744229   -0.011451   -1.272653
     10          1           0       -2.132325    1.798104   -0.212254
     11          1           0       -1.812553    0.871109    1.237046
     12          1           0        0.221415    1.665275    1.141015
     13          1           0       -0.043991    2.344264   -0.444108
     14          1           0        1.410115    0.952387   -1.335492
     15          1           0        0.458697   -0.455705   -0.871029
     16          1           0        2.621934    0.967251    0.785967
     17          1           0        1.606398   -0.353146    1.415489
     18          1           0       -2.542579   -1.035432    1.384804
     19          1           0       -3.466256   -1.711142   -0.003362
     20          1           0       -1.784643   -2.248105    0.321608
     21          1           0        3.110514   -0.773618   -1.188641
     22          1           0        2.540946   -1.993230   -0.011176
     23          1           0        3.979902   -0.949129    0.375549
 ---------------------------------------------------------------------
 Rotational constants (GHZ):           3.9986557           1.2043721           1.0229123
 Leave Link  202 at Sat Sep 28 01:51:48 2019, MaxMem=   671088640 cpu:               5.2 elap:               2.6
 (Enter /shared/centos7/gaussian/g16/l301.exe)
 Standard basis: CC-pVTZ (5D, 7F)
 Ernie: Thresh=  0.10000D-02 Tol=  0.10000D-05 Strict=F.
 Ernie:  21 primitive shells out of 310 were deleted.
 There are   485 symmetry adapted cartesian basis functions of A   symmetry.
 There are   434 symmetry adapted basis functions of A   symmetry.
   434 basis functions,   636 primitive gaussians,   485 cartesian basis functions
    29 alpha electrons       29 beta electrons
       nuclear repulsion energy       321.8750853300 Hartrees.
 IExCor= 4336 DFT=T Ex+Corr=M062X ExCW=0 ScaHFX=  0.540000
 ScaDFX=  1.000000  1.000000  1.000000  1.000000 ScalE2=  1.000000  1.000000
 IRadAn=      5 IRanWt=     -1 IRanGd=            0 ICorTp=0 IEmpDi=  4
 NAtoms=   23 NActive=   23 NUniq=   23 SFac= 1.00D+00 NAtFMM=   60 NAOKFM=F Big=F
 Integral buffers will be    131072 words long.
 Raffenetti 2 integral format.
 Two-electron integral symmetry is turned on.
 Leave Link  301 at Sat Sep 28 01:51:49 2019, MaxMem=   671088640 cpu:               1.9 elap:               1.0
 (Enter /shared/centos7/gaussian/g16/l302.exe)
 NPDir=0 NMtPBC=     1 NCelOv=     1 NCel=       1 NClECP=     1 NCelD=      1
         NCelK=      1 NCelE2=     1 NClLst=     1 CellRange=     0.0.
 One-electron integrals computed using PRISM.
 One-electron integral symmetry used in STVInt
 NBasis=   434 RedAO= T EigKep=  2.07D-04  NBF=   434
 NBsUse=   434 1.00D-06 EigRej= -1.00D+00 NBFU=   434
 Precomputing XC quadrature grid using
 IXCGrd= 4 IRadAn=           5 IRanWt=          -1 IRanGd=           0 AccXCQ= 0.00D+00.
 Generated NRdTot=       0 NPtTot=           0 NUsed=           0 NTot=          32
 NSgBfM=   485   485   485   485   485 MxSgAt=    23 MxSgA2=    23.
 Leave Link  302 at Sat Sep 28 01:53:07 2019, MaxMem=   671088640 cpu:             157.0 elap:              78.5
 (Enter /shared/centos7/gaussian/g16/l303.exe)
 DipDrv:  MaxL=1.
 Leave Link  303 at Sat Sep 28 01:53:13 2019, MaxMem=   671088640 cpu:              11.7 elap:               5.9
 (Enter /shared/centos7/gaussian/g16/l401.exe)
 ExpMin= 1.03D-01 ExpMax= 8.24D+03 ExpMxC= 2.81D+02 IAcc=3 IRadAn=         5 AccDes= 0.00D+00
 Harris functional with IExCor= 1009 and IRadAn=       5 diagonalized for initial guess.
 HarFok:  IExCor= 1009 AccDes= 0.00D+00 IRadAn=         5 IDoV= 1 UseB2=F ITyADJ=14
 ICtDFT=  3500011 ScaDFX=  1.000000  1.000000  1.000000  1.000000
 FoFCou: FMM=F IPFlag=           0 FMFlag=      100000 FMFlg1=           0
         NFxFlg=           0 DoJE=T BraDBF=F KetDBF=T FulRan=T
         wScrn=  0.000000 ICntrl=       500 IOpCl=  0 I1Cent=   200000004 NGrid=           0
         NMat0=    1 NMatS0=      1 NMatT0=    0 NMatD0=    1 NMtDS0=    0 NMtDT0=    0
 Petite list used in FoFCou.
 Harris En= -276.311668416971    
 JPrj=0 DoOrth=F DoCkMO=F.
 Leave Link  401 at Sat Sep 28 01:54:12 2019, MaxMem=   671088640 cpu:             118.0 elap:              59.0
 (Enter /shared/centos7/gaussian/g16/l502.exe)
 Integral symmetry usage will be decided dynamically.
 Closed shell SCF:
 Using DIIS extrapolation, IDIIS=  1040.
 NGot=   671088640 LenX=   670604095 LenY=   670368385
 Requested convergence on RMS density matrix=1.00D-08 within 900 cycles.
 Requested convergence on MAX density matrix=1.00D-06.
 Requested convergence on             energy=1.00D-06.
 No special actions if energy rises.
 Fock matrices will be formed incrementally for  20 cycles.
 Integral accuracy reduced to 1.0D-05 until final iterations.

 Cycle   1  Pass 0  IDiag  1:
 FoFJK:  IHMeth= 1 ICntrl=       0 DoSepK=F KAlg= 0 I1Cent=           0 FoldK=F
 IRaf= 930000000 NMat=       1 IRICut=       1 DoRegI=T DoRafI=F ISym2E= 0 IDoP0=0 IntGTp=1.
 FoFCou: FMM=F IPFlag=           0 FMFlag=      100000 FMFlg1=           0
         NFxFlg=           0 DoJE=F BraDBF=F KetDBF=F FulRan=T
         wScrn=  0.000000 ICntrl=         0 IOpCl=  0 I1Cent=           0 NGrid=           0
         NMat0=    1 NMatS0=      1 NMatT0=    0 NMatD0=    1 NMtDS0=    0 NMtDT0=    0
 Symmetry not used in FoFCou.
 E= -275.937024754767    
 DIIS: error= 2.75D-02 at cycle   1 NSaved=   1.
 NSaved= 1 IEnMin= 1 EnMin= -275.937024754767     IErMin= 1 ErrMin= 2.75D-02
 ErrMax= 2.75D-02  0.00D+00 EMaxC= 1.00D-01 BMatC= 3.74D-01 BMatP= 3.74D-01
 IDIUse=3 WtCom= 7.25D-01 WtEn= 2.75D-01
 Coeff-Com:  0.100D+01
 Coeff-En:   0.100D+01
 Coeff:      0.100D+01
 Gap=     0.350 Goal=   None    Shift=    0.000
 GapD=    0.350 DampG=1.000 DampE=0.500 DampFc=0.5000 IDamp=-1.
 Damping current iteration by 5.00D-01
 RMSDP=1.94D-03 MaxDP=7.53D-02              OVMax= 1.63D-01

 Cycle   2  Pass 0  IDiag  1:
 RMSU=  9.67D-04    CP:  9.91D-01
 E= -276.116559361758     Delta-E=       -0.179534606991 Rises=F Damp=T
 DIIS: error= 4.59D-03 at cycle   2 NSaved=   2.
 NSaved= 2 IEnMin= 2 EnMin= -276.116559361758     IErMin= 2 ErrMin= 4.59D-03
 ErrMax= 4.59D-03  0.00D+00 EMaxC= 1.00D-01 BMatC= 1.82D-02 BMatP= 3.74D-01
 IDIUse=3 WtCom= 9.54D-01 WtEn= 4.59D-02
 Coeff-Com: -0.593D-01 0.106D+01
 Coeff-En:   0.000D+00 0.100D+01
 Coeff:     -0.566D-01 0.106D+01
 Gap=     0.432 Goal=   None    Shift=    0.000
 RMSDP=5.29D-04 MaxDP=2.06D-02 DE=-1.80D-01 OVMax= 8.92D-02

 Cycle   3  Pass 0  IDiag  1:
 RMSU=  5.20D-04    CP:  9.98D-01  9.19D-01
 E= -276.294166492832     Delta-E=       -0.177607131075 Rises=F Damp=F
 DIIS: error= 2.34D-03 at cycle   3 NSaved=   3.
 NSaved= 3 IEnMin= 3 EnMin= -276.294166492832     IErMin= 3 ErrMin= 2.34D-03
 ErrMax= 2.34D-03  0.00D+00 EMaxC= 1.00D-01 BMatC= 2.34D-03 BMatP= 1.82D-02
 IDIUse=3 WtCom= 9.77D-01 WtEn= 2.34D-02
 Coeff-Com: -0.500D-01 0.229D+00 0.821D+00
 Coeff-En:   0.000D+00 0.000D+00 0.100D+01
 Coeff:     -0.488D-01 0.223D+00 0.825D+00
 Gap=     0.398 Goal=   None    Shift=    0.000
 RMSDP=9.41D-05 MaxDP=2.61D-03 DE=-1.78D-01 OVMax= 1.02D-02

 Cycle   4  Pass 0  IDiag  1:
 RMSU=  7.77D-05    CP:  9.97D-01  9.64D-01  9.42D-01
 E= -276.296186596703     Delta-E=       -0.002020103870 Rises=F Damp=F
 DIIS: error= 7.68D-04 at cycle   4 NSaved=   4.
 NSaved= 4 IEnMin= 4 EnMin= -276.296186596703     IErMin= 4 ErrMin= 7.68D-04
 ErrMax= 7.68D-04  0.00D+00 EMaxC= 1.00D-01 BMatC= 2.75D-04 BMatP= 2.34D-03
 IDIUse=3 WtCom= 9.92D-01 WtEn= 7.68D-03
 Coeff-Com: -0.136D-01 0.379D-01 0.294D+00 0.682D+00
 Coeff-En:   0.000D+00 0.000D+00 0.000D+00 0.100D+01
 Coeff:     -0.135D-01 0.377D-01 0.292D+00 0.684D+00
 Gap=     0.398 Goal=   None    Shift=    0.000
 RMSDP=3.18D-05 MaxDP=1.32D-03 DE=-2.02D-03 OVMax= 2.84D-03

 Cycle   5  Pass 0  IDiag  1:
 RMSU=  1.76D-05    CP:  9.97D-01  9.58D-01  9.75D-01  7.50D-01
 E= -276.296442144225     Delta-E=       -0.000255547522 Rises=F Damp=F
 DIIS: error= 1.37D-04 at cycle   5 NSaved=   5.
 NSaved= 5 IEnMin= 5 EnMin= -276.296442144225     IErMin= 5 ErrMin= 1.37D-04
 ErrMax= 1.37D-04  0.00D+00 EMaxC= 1.00D-01 BMatC= 1.50D-05 BMatP= 2.75D-04
 IDIUse=3 WtCom= 9.99D-01 WtEn= 1.37D-03
 Coeff-Com: -0.120D-02 0.222D-03 0.499D-01 0.233D+00 0.718D+00
 Coeff-En:   0.000D+00 0.000D+00 0.000D+00 0.000D+00 0.100D+01
 Coeff:     -0.120D-02 0.222D-03 0.498D-01 0.233D+00 0.719D+00
 Gap=     0.398 Goal=   None    Shift=    0.000
 RMSDP=6.29D-06 MaxDP=3.55D-04 DE=-2.56D-04 OVMax= 7.07D-04

 Initial convergence to 1.0D-05 achieved.  Increase integral accuracy.
 Cycle   6  Pass 1  IDiag  1:
 E= -276.296404895629     Delta-E=        0.000037248596 Rises=F Damp=F
 DIIS: error= 3.24D-05 at cycle   1 NSaved=   1.
 NSaved= 1 IEnMin= 1 EnMin= -276.296404895629     IErMin= 1 ErrMin= 3.24D-05
 ErrMax= 3.24D-05  0.00D+00 EMaxC= 1.00D-01 BMatC= 1.74D-06 BMatP= 1.74D-06
 IDIUse=1 WtCom= 1.00D+00 WtEn= 0.00D+00
 Coeff-Com:  0.100D+01
 Coeff:      0.100D+01
 Gap=     0.398 Goal=   None    Shift=    0.000
 RMSDP=6.29D-06 MaxDP=3.55D-04 DE= 3.72D-05 OVMax= 2.53D-04

 Cycle   7  Pass 1  IDiag  1:
 RMSU=  1.20D-05    CP:  1.00D+00
 E= -276.296405676643     Delta-E=       -0.000000781015 Rises=F Damp=F
 DIIS: error= 2.55D-05 at cycle   2 NSaved=   2.
 NSaved= 2 IEnMin= 2 EnMin= -276.296405676643     IErMin= 2 ErrMin= 2.55D-05
 ErrMax= 2.55D-05  0.00D+00 EMaxC= 1.00D-01 BMatC= 5.01D-07 BMatP= 1.74D-06
 IDIUse=1 WtCom= 1.00D+00 WtEn= 0.00D+00
 Coeff-Com:  0.309D+00 0.691D+00
 Coeff:      0.309D+00 0.691D+00
 Gap=     0.398 Goal=   None    Shift=    0.000
 RMSDP=1.45D-06 MaxDP=6.14D-05 DE=-7.81D-07 OVMax= 1.48D-04

 Cycle   8  Pass 1  IDiag  1:
 RMSU=  1.45D-06    CP:  1.00D+00  1.00D+00
 E= -276.296406104859     Delta-E=       -0.000000428216 Rises=F Damp=F
 DIIS: error= 1.07D-05 at cycle   3 NSaved=   3.
 NSaved= 3 IEnMin= 3 EnMin= -276.296406104859     IErMin= 3 ErrMin= 1.07D-05
 ErrMax= 1.07D-05  0.00D+00 EMaxC= 1.00D-01 BMatC= 7.23D-08 BMatP= 5.01D-07
 IDIUse=1 WtCom= 1.00D+00 WtEn= 0.00D+00
 Coeff-Com: -0.241D-02 0.267D+00 0.735D+00
 Coeff:     -0.241D-02 0.267D+00 0.735D+00
 Gap=     0.398 Goal=   None    Shift=    0.000
 RMSDP=4.45D-07 MaxDP=1.72D-05 DE=-4.28D-07 OVMax= 4.50D-05

 Cycle   9  Pass 1  IDiag  1:
 RMSU=  3.00D-07    CP:  1.00D+00  1.02D+00  8.22D-01
 E= -276.296406174204     Delta-E=       -0.000000069345 Rises=F Damp=F
 DIIS: error= 2.88D-06 at cycle   4 NSaved=   4.
 NSaved= 4 IEnMin= 4 EnMin= -276.296406174204     IErMin= 4 ErrMin= 2.88D-06
 ErrMax= 2.88D-06  0.00D+00 EMaxC= 1.00D-01 BMatC= 2.25D-09 BMatP= 7.23D-08
 IDIUse=1 WtCom= 1.00D+00 WtEn= 0.00D+00
 Coeff-Com: -0.102D-01 0.799D-01 0.274D+00 0.656D+00
 Coeff:     -0.102D-01 0.799D-01 0.274D+00 0.656D+00
 Gap=     0.398 Goal=   None    Shift=    0.000
 RMSDP=8.90D-08 MaxDP=3.39D-06 DE=-6.93D-08 OVMax= 8.56D-06

 Cycle  10  Pass 1  IDiag  1:
 RMSU=  8.02D-08    CP:  1.00D+00  1.02D+00  8.18D-01  8.89D-01
 E= -276.296406176469     Delta-E=       -0.000000002265 Rises=F Damp=F
 DIIS: error= 3.84D-07 at cycle   5 NSaved=   5.
 NSaved= 5 IEnMin= 5 EnMin= -276.296406176469     IErMin= 5 ErrMin= 3.84D-07
 ErrMax= 3.84D-07  0.00D+00 EMaxC= 1.00D-01 BMatC= 5.50D-11 BMatP= 2.25D-09
 IDIUse=1 WtCom= 1.00D+00 WtEn= 0.00D+00
 Coeff-Com: -0.379D-03-0.166D-01-0.425D-01 0.309D-01 0.103D+01
 Coeff:     -0.379D-03-0.166D-01-0.425D-01 0.309D-01 0.103D+01
 Gap=     0.398 Goal=   None    Shift=    0.000
 RMSDP=3.35D-08 MaxDP=8.93D-07 DE=-2.27D-09 OVMax= 2.48D-06

 Cycle  11  Pass 1  IDiag  1:
 RMSU=  1.65D-08    CP:  1.00D+00  1.02D+00  8.22D-01  9.76D-01  1.13D+00
 E= -276.296406176528     Delta-E=       -0.000000000059 Rises=F Damp=F
 DIIS: error= 1.26D-07 at cycle   6 NSaved=   6.
 NSaved= 6 IEnMin= 6 EnMin= -276.296406176528     IErMin= 6 ErrMin= 1.26D-07
 ErrMax= 1.26D-07  0.00D+00 EMaxC= 1.00D-01 BMatC= 1.26D-11 BMatP= 5.50D-11
 IDIUse=1 WtCom= 1.00D+00 WtEn= 0.00D+00
 Coeff-Com:  0.428D-03-0.116D-01-0.335D-01-0.258D-01 0.431D+00 0.639D+00
 Coeff:      0.428D-03-0.116D-01-0.335D-01-0.258D-01 0.431D+00 0.639D+00
 Gap=     0.398 Goal=   None    Shift=    0.000
 RMSDP=6.15D-09 MaxDP=2.79D-07 DE=-5.89D-11 OVMax= 6.06D-07

 SCF Done:  E(RM062X) =  -276.296406177     A.U. after   11 cycles
            NFock= 11  Conv=0.61D-08     -V/T= 2.0064
 KE= 2.745327287816D+02 PE=-1.282220048368D+03 EE= 4.095158280800D+02
 Leave Link  502 at Sat Sep 28 02:14:06 2019, MaxMem=   671088640 cpu:            2386.9 elap:            1194.0
 (Enter /shared/centos7/gaussian/g16/l801.exe)
 DoSCS=F DFT=T ScalE2(SS,OS)=  1.000000  1.000000
 Range of M.O.s used for correlation:     1   434
 NBasis=   434 NAE=    29 NBE=    29 NFC=     0 NFV=     0
 NROrb=    434 NOA=    29 NOB=    29 NVA=   405 NVB=   405

 **** Warning!!: The largest alpha MO coefficient is  0.12643715D+02

 Leave Link  801 at Sat Sep 28 02:14:07 2019, MaxMem=   671088640 cpu:               1.9 elap:               1.0
 (Enter /shared/centos7/gaussian/g16/l1101.exe)
 Using compressed storage, NAtomX=    23.
 Will process     24 centers per pass.
 Leave Link 1101 at Sat Sep 28 02:14:49 2019, MaxMem=   671088640 cpu:              82.5 elap:              41.3
 (Enter /shared/centos7/gaussian/g16/l1102.exe)
 Symmetrizing basis deriv contribution to polar:
 IMax=3 JMax=2 DiffMx= 0.00D+00
 Leave Link 1102 at Sat Sep 28 02:14:51 2019, MaxMem=   671088640 cpu:               5.3 elap:               2.7
 (Enter /shared/centos7/gaussian/g16/l1110.exe)
 Forming Gx(P) for the SCF density, NAtomX=    23.
 Integral derivatives from FoFJK, PRISM(SPDF).
 Do as many integral derivatives as possible in FoFJK.
 G2DrvN: MDV=     671086848.
 G2DrvN: will do    24 centers at a time, making    1 passes.
 Calling FoFCou, ICntrl=  3107 FMM=F I1Cent=   0 AccDes= 0.00D+00.
 FoFJK:  IHMeth= 1 ICntrl=    3107 DoSepK=F KAlg= 0 I1Cent=           0 FoldK=F
 IRaf=         0 NMat=       1 IRICut=       1 DoRegI=T DoRafI=F ISym2E= 0 IDoP0=0 IntGTp=1.
 FoFCou: FMM=F IPFlag=           0 FMFlag=      100000 FMFlg1=           0
         NFxFlg=           0 DoJE=F BraDBF=F KetDBF=F FulRan=T
         wScrn=  0.000000 ICntrl=      3107 IOpCl=  0 I1Cent=           0 NGrid=           0
         NMat0=    1 NMatS0=      1 NMatT0=    0 NMatD0=    1 NMtDS0=    0 NMtDT0=    0
 Symmetry not used in FoFCou.
 End of G2Drv F.D. properties file   721 does not exist.
 End of G2Drv F.D. properties file   722 does not exist.
 End of G2Drv F.D. properties file   788 does not exist.
 Leave Link 1110 at Sat Sep 28 03:07:42 2019, MaxMem=   671088640 cpu:            6340.4 elap:            3170.7
 (Enter /shared/centos7/gaussian/g16/l1002.exe)
 Minotr:  Closed shell wavefunction.
          IDoAtm=11111111111111111111111
          Direct CPHF calculation.
          Differentiating once with respect to nuclear coordinates.
          Requested convergence is 1.0D-08 RMS, and 1.0D-07 maximum.
          Secondary convergence is 1.0D-12 RMS, and 1.0D-12 maximum.
          NewPWx=T KeepS1=F KeepF1=F KeepIn=T MapXYZ=F SortEE=F KeepMc=T.
         6932 words used for storage of precomputed grid.
 Two-electron integrals replicated using symmetry.
          MDV=     671088640 using IRadAn=       1.
          Solving linear equations simultaneously, MaxMat=     380.
 FoF2E skips out because all densities are zero.
 CalDSu exits because no D1Ps are significant.
 FoFJK:  IHMeth= 1 ICntrl=       0 DoSepK=F KAlg= 0 I1Cent=           0 FoldK=F
 IRaf= 910000000 NMat=      69 IRICut=     172 DoRegI=T DoRafI=T ISym2E= 2 IDoP0=3 IntGTp=3.
 FoFCou: FMM=F IPFlag=           0 FMFlag=      100000 FMFlg1=           0
         NFxFlg=           0 DoJE=F BraDBF=F KetDBF=F FulRan=T
         wScrn=  0.000000 ICntrl=         0 IOpCl=  0 I1Cent=           0 NGrid=           0
         NMat0=   69 NMatS0=     69 NMatT0=    0 NMatD0=   69 NMtDS0=    0 NMtDT0=    0
 Integrals replicated using symmetry in FoFCou.
 Raff kept on since  86.66% of shell-pairs survive, threshold=   0.20 IRatSp=87.
          There are    72 degrees of freedom in the 1st order CPHF.  IDoFFX=6 NUNeed=     0.
     66 vectors produced by pass  0 Test12= 1.63D-14 1.39D-09 XBig12= 5.70D-02 3.53D-02.
 AX will form    66 AO Fock derivatives at one time.
     66 vectors produced by pass  1 Test12= 1.63D-14 1.39D-09 XBig12= 3.64D-03 5.76D-03.
     66 vectors produced by pass  2 Test12= 1.63D-14 1.39D-09 XBig12= 6.12D-05 9.52D-04.
     66 vectors produced by pass  3 Test12= 1.63D-14 1.39D-09 XBig12= 4.97D-07 6.82D-05.
     66 vectors produced by pass  4 Test12= 1.63D-14 1.39D-09 XBig12= 2.25D-09 5.05D-06.
     66 vectors produced by pass  5 Test12= 1.63D-14 1.39D-09 XBig12= 1.11D-11 3.63D-07.
     22 vectors produced by pass  6 Test12= 1.63D-14 1.39D-09 XBig12= 4.37D-14 1.79D-08.
 InvSVY:  IOpt=1 It=  1 EMax= 2.78D-16
 Solved reduced A of dimension   418 with    72 vectors.
 End of Minotr F.D. properties file   721 does not exist.
 End of Minotr F.D. properties file   722 does not exist.
 End of Minotr F.D. properties file   788 does not exist.
 Leave Link 1002 at Sat Sep 28 04:33:29 2019, MaxMem=   671088640 cpu:           10292.7 elap:            5147.0
 (Enter /shared/centos7/gaussian/g16/l601.exe)
 Copying SCF densities to generalized density rwf, IOpCl= 0 IROHF=0.

 **********************************************************************

            Population analysis using the SCF density.

 **********************************************************************

 Orbital symmetries:
       Occupied  (A) (A) (A) (A) (A) (A) (A) (A) (A) (A) (A) (A)
                 (A) (A) (A) (A) (A) (A) (A) (A) (A) (A) (A) (A)
                 (A) (A) (A) (A) (A)
       Virtual   (A) (A) (A) (A) (A) (A) (A) (A) (A) (A) (A) (A)
                 (A) (A) (A) (A) (A) (A) (A) (A) (A) (A) (A) (A)
                 (A) (A) (A) (A) (A) (A) (A) (A) (A) (A) (A) (A)
                 (A) (A) (A) (A) (A) (A) (A) (A) (A) (A) (A) (A)
                 (A) (A) (A) (A) (A) (A) (A) (A) (A) (A) (A) (A)
                 (A) (A) (A) (A) (A) (A) (A) (A) (A) (A) (A) (A)
                 (A) (A) (A) (A) (A) (A) (A) (A) (A) (A) (A) (A)
                 (A) (A) (A) (A) (A) (A) (A) (A) (A) (A) (A) (A)
                 (A) (A) (A) (A) (A) (A) (A) (A) (A) (A) (A) (A)
                 (A) (A) (A) (A) (A) (A) (A) (A) (A) (A) (A) (A)
                 (A) (A) (A) (A) (A) (A) (A) (A) (A) (A) (A) (A)
                 (A) (A) (A) (A) (A) (A) (A) (A) (A) (A) (A) (A)
                 (A) (A) (A) (A) (A) (A) (A) (A) (A) (A) (A) (A)
                 (A) (A) (A) (A) (A) (A) (A) (A) (A) (A) (A) (A)
                 (A) (A) (A) (A) (A) (A) (A) (A) (A) (A) (A) (A)
                 (A) (A) (A) (A) (A) (A) (A) (A) (A) (A) (A) (A)
                 (A) (A) (A) (A) (A) (A) (A) (A) (A) (A) (A) (A)
                 (A) (A) (A) (A) (A) (A) (A) (A) (A) (A) (A) (A)
                 (A) (A) (A) (A) (A) (A) (A) (A) (A) (A) (A) (A)
                 (A) (A) (A) (A) (A) (A) (A) (A) (A) (A) (A) (A)
                 (A) (A) (A) (A) (A) (A) (A) (A) (A) (A) (A) (A)
                 (A) (A) (A) (A) (A) (A) (A) (A) (A) (A) (A) (A)
                 (A) (A) (A) (A) (A) (A) (A) (A) (A) (A) (A) (A)
                 (A) (A) (A) (A) (A) (A) (A) (A) (A) (A) (A) (A)
                 (A) (A) (A) (A) (A) (A) (A) (A) (A) (A) (A) (A)
                 (A) (A) (A) (A) (A) (A) (A) (A) (A) (A) (A) (A)
                 (A) (A) (A) (A) (A) (A) (A) (A) (A) (A) (A) (A)
                 (A) (A) (A) (A) (A) (A) (A) (A) (A) (A) (A) (A)
                 (A) (A) (A) (A) (A) (A) (A) (A) (A) (A) (A) (A)
                 (A) (A) (A) (A) (A) (A) (A) (A) (A) (A) (A) (A)
                 (A) (A) (A) (A) (A) (A) (A) (A) (A) (A) (A) (A)
                 (A) (A) (A) (A) (A) (A) (A) (A) (A) (A) (A) (A)
                 (A) (A) (A) (A) (A) (A) (A) (A) (A) (A) (A) (A)
                 (A) (A) (A) (A) (A) (A) (A) (A) (A)
 The electronic state is 1-A.
 Alpha  occ. eigenvalues --  -10.52824 -10.52497 -10.52288 -10.52287 -10.52209
 Alpha  occ. eigenvalues --  -10.52154 -10.52109  -0.91988  -0.88220  -0.82997
 Alpha  occ. eigenvalues --   -0.76418  -0.70052  -0.66858  -0.62223  -0.55455
 Alpha  occ. eigenvalues --   -0.52738  -0.51397  -0.50032  -0.47348  -0.46153
 Alpha  occ. eigenvalues --   -0.45601  -0.42548  -0.41720  -0.40511  -0.38969
 Alpha  occ. eigenvalues --   -0.37250  -0.37030  -0.36238  -0.34178
 Alpha virt. eigenvalues --    0.05608   0.07340   0.08640   0.08876   0.10867
 Alpha virt. eigenvalues --    0.11939   0.12068   0.12324   0.14162   0.15429
 Alpha virt. eigenvalues --    0.16322   0.16967   0.17846   0.18686   0.20805
 Alpha virt. eigenvalues --    0.21138   0.22305   0.22516   0.24594   0.24956
 Alpha virt. eigenvalues --    0.27016   0.28079   0.28838   0.31369   0.32266
 Alpha virt. eigenvalues --    0.33513   0.34855   0.36309   0.36465   0.37538
 Alpha virt. eigenvalues --    0.39425   0.40307   0.40544   0.41588   0.42642
 Alpha virt. eigenvalues --    0.43268   0.44959   0.45150   0.46551   0.47604
 Alpha virt. eigenvalues --    0.48473   0.48583   0.49150   0.50517   0.50682
 Alpha virt. eigenvalues --    0.51602   0.51918   0.52382   0.53588   0.53744
 Alpha virt. eigenvalues --    0.54650   0.55710   0.55907   0.56902   0.57492
 Alpha virt. eigenvalues --    0.57766   0.58777   0.59958   0.61212   0.61600
 Alpha virt. eigenvalues --    0.63425   0.65053   0.70146   0.73505   0.76018
 Alpha virt. eigenvalues --    0.79803   0.81299   0.83160   0.84354   0.84793
 Alpha virt. eigenvalues --    0.85915   0.88156   0.89848   0.90653   0.91927
 Alpha virt. eigenvalues --    0.92314   0.94272   0.95651   0.97270   0.97811
 Alpha virt. eigenvalues --    1.00530   1.01047   1.02148   1.04237   1.04924
 Alpha virt. eigenvalues --    1.06484   1.07062   1.07771   1.08607   1.09253
 Alpha virt. eigenvalues --    1.10359   1.11258   1.12630   1.13402   1.13592
 Alpha virt. eigenvalues --    1.14194   1.16400   1.17076   1.18011   1.18790
 Alpha virt. eigenvalues --    1.19471   1.20639   1.20859   1.22275   1.23026
 Alpha virt. eigenvalues --    1.23909   1.24778   1.26306   1.27724   1.28731
 Alpha virt. eigenvalues --    1.29992   1.30779   1.31599   1.32333   1.32982
 Alpha virt. eigenvalues --    1.34838   1.35255   1.36183   1.36485   1.37822
 Alpha virt. eigenvalues --    1.38193   1.40422   1.42441   1.42685   1.43266
 Alpha virt. eigenvalues --    1.44444   1.45439   1.48131   1.48618   1.49756
 Alpha virt. eigenvalues --    1.50789   1.53100   1.53638   1.54423   1.55584
 Alpha virt. eigenvalues --    1.56835   1.58805   1.59728   1.59998   1.63409
 Alpha virt. eigenvalues --    1.64855   1.65540   1.67417   1.68784   1.70207
 Alpha virt. eigenvalues --    1.73209   1.76614   1.83922   1.93419   2.16653
 Alpha virt. eigenvalues --    2.21381   2.24326   2.25036   2.27871   2.32524
 Alpha virt. eigenvalues --    2.34671   2.36063   2.39438   2.40672   2.42053
 Alpha virt. eigenvalues --    2.43668   2.46080   2.46848   2.50788   2.53431
 Alpha virt. eigenvalues --    2.54199   2.56010   2.58191   2.58306   2.59236
 Alpha virt. eigenvalues --    2.60132   2.61452   2.61818   2.65010   2.65446
 Alpha virt. eigenvalues --    2.67556   2.69680   2.70171   2.71152   2.74684
 Alpha virt. eigenvalues --    2.75321   2.76403   2.77226   2.79638   2.80184
 Alpha virt. eigenvalues --    2.80871   2.81395   2.83006   2.84353   2.84848
 Alpha virt. eigenvalues --    2.85039   2.87859   2.89719   2.90620   2.91528
 Alpha virt. eigenvalues --    2.92744   2.94182   2.96187   2.98042   2.98785
 Alpha virt. eigenvalues --    2.99595   3.00571   3.00995   3.01938   3.03416
 Alpha virt. eigenvalues --    3.04053   3.04557   3.06339   3.07234   3.08549
 Alpha virt. eigenvalues --    3.08605   3.08913   3.10577   3.12005   3.12674
 Alpha virt. eigenvalues --    3.13091   3.14318   3.15443   3.15839   3.16998
 Alpha virt. eigenvalues --    3.18096   3.18479   3.19817   3.20689   3.23059
 Alpha virt. eigenvalues --    3.24057   3.25325   3.26660   3.27223   3.29776
 Alpha virt. eigenvalues --    3.31569   3.32258   3.32968   3.33415   3.34449
 Alpha virt. eigenvalues --    3.36492   3.36968   3.37817   3.39121   3.40301
 Alpha virt. eigenvalues --    3.41282   3.42230   3.43687   3.45339   3.46295
 Alpha virt. eigenvalues --    3.47893   3.49699   3.51380   3.52105   3.53055
 Alpha virt. eigenvalues --    3.54099   3.56244   3.56379   3.58555   3.58708
 Alpha virt. eigenvalues --    3.61388   3.63322   3.64380   3.64640   3.65887
 Alpha virt. eigenvalues --    3.66438   3.67687   3.69880   3.72216   3.73856
 Alpha virt. eigenvalues --    3.74530   3.75077   3.77185   3.77935   3.78807
 Alpha virt. eigenvalues --    3.80378   3.81037   3.82632   3.83219   3.84909
 Alpha virt. eigenvalues --    3.85016   3.86624   3.87827   3.89148   3.90496
 Alpha virt. eigenvalues --    3.91292   3.91834   3.93515   3.94300   3.95059
 Alpha virt. eigenvalues --    3.96628   3.97983   3.98670   4.00468   4.01502
 Alpha virt. eigenvalues --    4.01821   4.03000   4.03966   4.05045   4.06574
 Alpha virt. eigenvalues --    4.07473   4.08194   4.09277   4.11075   4.11323
 Alpha virt. eigenvalues --    4.13797   4.14003   4.14403   4.14670   4.16963
 Alpha virt. eigenvalues --    4.17368   4.18717   4.21295   4.21820   4.22481
 Alpha virt. eigenvalues --    4.23536   4.24285   4.24630   4.26051   4.27154
 Alpha virt. eigenvalues --    4.28662   4.31721   4.32692   4.34446   4.35596
 Alpha virt. eigenvalues --    4.37641   4.40761   4.42342   4.44351   4.46591
 Alpha virt. eigenvalues --    4.48602   4.50677   4.51649   4.54994   4.57484
 Alpha virt. eigenvalues --    4.58231   4.58255   4.61373   4.63992   4.65689
 Alpha virt. eigenvalues --    4.66549   4.68426   4.69803   4.72266   4.72931
 Alpha virt. eigenvalues --    4.75048   4.77694   4.79190   4.82077   4.82965
 Alpha virt. eigenvalues --    4.84680   4.85419   4.88054   4.91127   4.92227
 Alpha virt. eigenvalues --    4.93390   4.94715   4.95776   4.96584   4.99921
 Alpha virt. eigenvalues --    5.02485   5.03777   5.05396   5.06355   5.07698
 Alpha virt. eigenvalues --    5.07798   5.09439   5.13494   5.14836   5.17060
 Alpha virt. eigenvalues --    5.19416   5.22359   5.24430   5.25105   5.26914
 Alpha virt. eigenvalues --    5.28120   5.28301   5.30037   5.33358   5.35157
 Alpha virt. eigenvalues --    5.37495   5.38228   5.40040   5.40940   5.42813
 Alpha virt. eigenvalues --    5.44691   5.50718   5.54932   5.55798   5.57515
 Alpha virt. eigenvalues --    5.58276   5.63910   5.67596   5.76802   5.79582
 Alpha virt. eigenvalues --    5.80151   5.81379   5.82547   5.84979   5.88642
 Alpha virt. eigenvalues --    5.96241   6.02941   6.06660  11.00965  12.04100
 Alpha virt. eigenvalues --   12.25663  12.80232  13.22830  13.57162  13.98232
          Condensed to atoms (all electrons):
               1          2          3          4          5          6
     1  C    5.085003   0.282510  -0.036637   0.296456   0.004656  -0.059342
     2  C    0.282510   5.083060   0.298250  -0.037432  -0.051039   0.006962
     3  C   -0.036637   0.298250   5.142614  -0.033040   0.309589  -0.000409
     4  C    0.296456  -0.037432  -0.033040   5.123818   0.001119   0.296713
     5  C    0.004656  -0.051039   0.309589   0.001119   5.036195   0.000138
     6  C   -0.059342   0.006962  -0.000409   0.296713   0.000138   4.958980
     7  C   -0.000626   0.009726  -0.055971   0.000072   0.313969  -0.000043
     8  H   -0.046508  -0.006105  -0.017245   0.418184   0.000955  -0.046389
     9  H   -0.044883   0.005744   0.001477   0.413048  -0.000041  -0.043217
    10  H    0.420612  -0.046592   0.007035  -0.049746  -0.000440   0.008439
    11  H    0.423556  -0.051490   0.004659  -0.053099   0.000195  -0.019349
    12  H   -0.050956   0.427245  -0.059524   0.007753  -0.007408  -0.000115
    13  H   -0.046543   0.419270  -0.047230   0.004142   0.005653  -0.000564
    14  H    0.004409  -0.036276   0.408587   0.001327  -0.037111   0.000064
    15  H   -0.008817  -0.046555   0.412091  -0.011860  -0.046891  -0.001232
    16  H    0.000495  -0.006463  -0.043636  -0.000160   0.410332  -0.000004
    17  H   -0.000854  -0.000113  -0.043111   0.000180   0.405835   0.000169
    18  H   -0.010168   0.000394   0.000139  -0.055884   0.000042   0.410765
    19  H    0.007308  -0.000541  -0.000103  -0.045417   0.000008   0.407915
    20  H    0.004841   0.000007   0.000801  -0.045681  -0.000180   0.400797
    21  H   -0.000082   0.000792  -0.000178   0.000004  -0.052296   0.000001
    22  H    0.000096  -0.000560  -0.003695  -0.000066  -0.042394   0.000010
    23  H    0.000024  -0.000592   0.008221  -0.000001  -0.039628   0.000001
               7          8          9         10         11         12
     1  C   -0.000626  -0.046508  -0.044883   0.420612   0.423556  -0.050956
     2  C    0.009726  -0.006105   0.005744  -0.046592  -0.051490   0.427245
     3  C   -0.055971  -0.017245   0.001477   0.007035   0.004659  -0.059524
     4  C    0.000072   0.418184   0.413048  -0.049746  -0.053099   0.007753
     5  C    0.313969   0.000955  -0.000041  -0.000440   0.000195  -0.007408
     6  C   -0.000043  -0.046389  -0.043217   0.008439  -0.019349  -0.000115
     7  C    4.953123   0.000381  -0.000005   0.000030  -0.000010   0.000945
     8  H    0.000381   0.616061  -0.040642   0.005899   0.005711   0.000050
     9  H   -0.000005  -0.040642   0.611933  -0.021697   0.006187  -0.000496
    10  H    0.000030   0.005899  -0.021697   0.618898  -0.040663   0.005542
    11  H   -0.000010   0.005711   0.006187  -0.040663   0.618906  -0.020046
    12  H    0.000945   0.000050  -0.000496   0.005542  -0.020046   0.600311
    13  H   -0.000524   0.000013   0.000304  -0.023098   0.008513  -0.041258
    14  H   -0.007150   0.000300  -0.000036  -0.000008  -0.000537   0.006100
    15  H   -0.002373  -0.007763   0.001032   0.000005   0.000447   0.005389
    16  H   -0.037263  -0.000198   0.000007  -0.000025  -0.000010   0.001323
    17  H   -0.038778   0.000254   0.000007  -0.000034  -0.000005  -0.000200
    18  H    0.000003   0.006727   0.004528   0.001215   0.003421  -0.000241
    19  H   -0.000000   0.005997  -0.021402  -0.000351   0.000845   0.000026
    20  H   -0.000003  -0.020131   0.008652  -0.000763   0.001347  -0.000015
    21  H    0.405173   0.000191  -0.000000   0.000002   0.000001   0.000073
    22  H    0.403997  -0.000176   0.000003  -0.000002  -0.000002  -0.000030
    23  H    0.404879  -0.000020  -0.000000  -0.000001  -0.000001  -0.000061
              13         14         15         16         17         18
     1  C   -0.046543   0.004409  -0.008817   0.000495  -0.000854  -0.010168
     2  C    0.419270  -0.036276  -0.046555  -0.006463  -0.000113   0.000394
     3  C   -0.047230   0.408587   0.412091  -0.043636  -0.043111   0.000139
     4  C    0.004142   0.001327  -0.011860  -0.000160   0.000180  -0.055884
     5  C    0.005653  -0.037111  -0.046891   0.410332   0.405835   0.000042
     6  C   -0.000564   0.000064  -0.001232  -0.000004   0.000169   0.410765
     7  C   -0.000524  -0.007150  -0.002373  -0.037263  -0.038778   0.000003
     8  H    0.000013   0.000300  -0.007763  -0.000198   0.000254   0.006727
     9  H    0.000304  -0.000036   0.001032   0.000007   0.000007   0.004528
    10  H   -0.023098  -0.000008   0.000005  -0.000025  -0.000034   0.001215
    11  H    0.008513  -0.000537   0.000447  -0.000010  -0.000005   0.003421
    12  H   -0.041258   0.006100   0.005389   0.001323  -0.000200  -0.000241
    13  H    0.620285  -0.019814   0.006099   0.000627   0.000039  -0.000111
    14  H   -0.019814   0.591927  -0.044515  -0.009316   0.007857   0.000002
    15  H    0.006099  -0.044515   0.608800   0.009348  -0.007180  -0.000454
    16  H    0.000627  -0.009316   0.009348   0.604300  -0.041006  -0.000008
    17  H    0.000039   0.007857  -0.007180  -0.041006   0.601175   0.000056
    18  H   -0.000111   0.000002  -0.000454  -0.000008   0.000056   0.610974
    19  H    0.000026   0.000003  -0.000011  -0.000001   0.000000  -0.034754
    20  H    0.000073  -0.000041   0.001916   0.000019  -0.000047  -0.038283
    21  H   -0.000048   0.003516  -0.003607  -0.000667   0.007800   0.000000
    22  H   -0.000005  -0.000086   0.003442   0.007868  -0.012643  -0.000004
    23  H    0.000041   0.000064   0.000224  -0.011053   0.000166  -0.000000
              19         20         21         22         23
     1  C    0.007308   0.004841  -0.000082   0.000096   0.000024
     2  C   -0.000541   0.000007   0.000792  -0.000560  -0.000592
     3  C   -0.000103   0.000801  -0.000178  -0.003695   0.008221
     4  C   -0.045417  -0.045681   0.000004  -0.000066  -0.000001
     5  C    0.000008  -0.000180  -0.052296  -0.042394  -0.039628
     6  C    0.407915   0.400797   0.000001   0.000010   0.000001
     7  C   -0.000000  -0.000003   0.405173   0.403997   0.404879
     8  H    0.005997  -0.020131   0.000191  -0.000176  -0.000020
     9  H   -0.021402   0.008652  -0.000000   0.000003  -0.000000
    10  H   -0.000351  -0.000763   0.000002  -0.000002  -0.000001
    11  H    0.000845   0.001347   0.000001  -0.000002  -0.000001
    12  H    0.000026  -0.000015   0.000073  -0.000030  -0.000061
    13  H    0.000026   0.000073  -0.000048  -0.000005   0.000041
    14  H    0.000003  -0.000041   0.003516  -0.000086   0.000064
    15  H   -0.000011   0.001916  -0.003607   0.003442   0.000224
    16  H   -0.000001   0.000019  -0.000667   0.007868  -0.011053
    17  H    0.000000  -0.000047   0.007800  -0.012643   0.000166
    18  H   -0.034754  -0.038283   0.000000  -0.000004  -0.000000
    19  H    0.611394  -0.033075   0.000000  -0.000002   0.000000
    20  H   -0.033075   0.617089  -0.000006   0.000101  -0.000000
    21  H    0.000000  -0.000006   0.593527  -0.038522  -0.031758
    22  H   -0.000002   0.000101  -0.038522   0.609117  -0.029819
    23  H    0.000000  -0.000000  -0.031758  -0.029819   0.596106
 Mulliken charges:
               1
     1  C   -0.224548
     2  C   -0.250203
     3  C   -0.252686
     4  C   -0.230431
     5  C   -0.211257
     6  C   -0.320291
     7  C   -0.349549
     8  H    0.124455
     9  H    0.119499
    10  H    0.115741
    11  H    0.111424
    12  H    0.125593
    13  H    0.114109
    14  H    0.130734
    15  H    0.132467
    16  H    0.115491
    17  H    0.120433
    18  H    0.101638
    19  H    0.102135
    20  H    0.102584
    21  H    0.116085
    22  H    0.103372
    23  H    0.103207
 Sum of Mulliken charges =  -0.00000
 Mulliken charges with hydrogens summed into heavy atoms:
               1
     1  C    0.002617
     2  C   -0.010501
     3  C    0.010514
     4  C    0.013523
     5  C    0.024667
     6  C   -0.013935
     7  C   -0.026885
 APT charges:
               1
     1  C   -0.828410
     2  C   -0.768735
     3  C   -0.470497
     4  C   -0.477571
     5  C   -0.581770
     6  C   -1.253984
     7  C   -1.302161
     8  H    0.155105
     9  H    0.490052
    10  H    0.457684
    11  H    0.331019
    12  H    0.336123
    13  H    0.414269
    14  H    0.400202
    15  H    0.222646
    16  H    0.431884
    17  H    0.244518
    18  H    0.274215
    19  H    0.571384
    20  H    0.222636
    21  H    0.308892
    22  H    0.230823
    23  H    0.591679
 Sum of APT charges =  -0.00000
 APT charges with hydrogens summed into heavy atoms:
               1
     1  C   -0.039707
     2  C   -0.018343
     3  C    0.152351
     4  C    0.167585
     5  C    0.094632
     6  C   -0.185749
     7  C   -0.170767
 Electronic spatial extent (au):  <R**2>=           1262.1341
 Charge=              0.0000 electrons
 Dipole moment (field-independent basis, Debye):
    X=             -0.0452    Y=              0.1598    Z=             -0.0661  Tot=              0.1787
 Quadrupole moment (field-independent basis, Debye-Ang):
   XX=            -49.6085   YY=            -49.4197   ZZ=            -48.9406
   XY=              0.0609   XZ=              0.3812   YZ=             -0.3058
 Traceless Quadrupole moment (field-independent basis, Debye-Ang):
   XX=             -0.2855   YY=             -0.0968   ZZ=              0.3823
   XY=              0.0609   XZ=              0.3812   YZ=             -0.3058
 Octapole moment (field-independent basis, Debye-Ang**2):
  XXX=             -1.7502  YYY=              1.6790  ZZZ=              0.7961  XYY=              0.2185
  XXY=              3.5363  XXZ=             -1.1688  XZZ=             -0.1664  YZZ=              1.2750
  YYZ=             -1.4396  XYZ=             -0.6634
 Hexadecapole moment (field-independent basis, Debye-Ang**3):
 XXXX=          -1256.2312 YYYY=           -383.0157 ZZZZ=           -153.6845 XXXY=              7.5965
 XXXZ=             15.4737 YYYX=             -2.6138 YYYZ=             -3.0636 ZZZX=             -4.0769
 ZZZY=             -0.2500 XXYY=           -281.7142 XXZZ=           -235.3172 YYZZ=            -90.2096
 XXYZ=             -1.0500 YYXZ=              3.5008 ZZXY=             -0.6141
 N-N= 3.218750853300D+02 E-N=-1.282219999113D+03  KE= 2.745327287816D+02
  Exact polarizability:   0.000   0.000   0.000   0.000   0.000   0.000
 Approx polarizability:  98.585   0.272  97.200   0.485   0.557  97.531
 No NMR shielding tensors so no spin-rotation constants.
 Leave Link  601 at Sat Sep 28 04:33:56 2019, MaxMem=   671088640 cpu:              54.9 elap:              27.5
 (Enter /shared/centos7/gaussian/g16/l701.exe)
 SCFChk:  SCF convergence  6.15D-09 required  1.00D-08
 ... and contract with generalized density number  0.
 Compute integral second derivatives.
 Entering OneElI...
 Calculate overlap and kinetic energy integrals
    NBasis = 485  MinDer = 2  MaxDer = 2
 Requested accuracy = 0.1000D-12
 PrmmSu-InSpLW:  IPartL=    0 NPrtUS=   20 NPrtUL=    1 DoSpLW=F IThBeg=    0 IThEnd=   19 NThAct=   20.
 PrsmSu:  NPrtUS=  20 ThrOK=T IAlg=1 NPAlg=1 LenDen=           0 ISkipM=0 DoSpLW=F IThBeg=    0 IThEnd=   19.
 Prism:   IPart=     0 DynPar=F LinDyn=F Incr=           6.
 PRISM was handed    33205546 working-precision words and 13586 shell-pairs
 PRISM was handed    33205546 working-precision words and 13586 shell-pairs
 PRISM was handed    33205546 working-precision words and 13586 shell-pairs
 PRISM was handed    33205546 working-precision words and 13586 shell-pairs
 PRISM was handed    33205546 working-precision words and 13586 shell-pairs
 PRISM was handed    33205546 working-precision words and 13586 shell-pairs
 PRISM was handed    33205546 working-precision words and 13586 shell-pairs
 PRISM was handed    33205546 working-precision words and 13586 shell-pairs
 PRISM was handed    33205546 working-precision words and 13586 shell-pairs
 PRISM was handed    33205546 working-precision words and 13586 shell-pairs
 PRISM was handed    33205546 working-precision words and 13586 shell-pairs
 PRISM was handed    33205546 working-precision words and 13586 shell-pairs
 PRISM was handed    33205546 working-precision words and 13586 shell-pairs
 PRISM was handed    33205546 working-precision words and 13586 shell-pairs
 PRISM was handed    33205546 working-precision words and 13586 shell-pairs
 PRISM was handed    33205546 working-precision words and 13586 shell-pairs
 PRISM was handed    33205546 working-precision words and 13586 shell-pairs
 PRISM was handed    33205546 working-precision words and 13586 shell-pairs
 PRISM was handed    33205546 working-precision words and 13586 shell-pairs
 PRISM was handed    33205546 working-precision words and 13586 shell-pairs
 IPart= 16 NShTot=         658 NBatch=          50 AvBLen=        13.2
 IPart=  9 NShTot=         675 NBatch=          58 AvBLen=        11.6
 IPart= 17 NShTot=         656 NBatch=          50 AvBLen=        13.1
 IPart= 13 NShTot=         667 NBatch=          54 AvBLen=        12.4
 IPart=  5 NShTot=         698 NBatch=          71 AvBLen=         9.8
 IPart= 15 NShTot=         662 NBatch=          51 AvBLen=        13.0
 IPart= 18 NShTot=         651 NBatch=          48 AvBLen=        13.6
 IPart=  0 NShTot=         714 NBatch=          80 AvBLen=         8.9
 IPart= 10 NShTot=         673 NBatch=          58 AvBLen=        11.6
 IPart= 19 NShTot=         649 NBatch=          48 AvBLen=        13.5
 IPart=  2 NShTot=         706 NBatch=          75 AvBLen=         9.4
 IPart= 11 NShTot=         672 NBatch=          58 AvBLen=        11.6
 IPart=  4 NShTot=         702 NBatch=          73 AvBLen=         9.6
 IPart= 14 NShTot=         664 NBatch=          53 AvBLen=        12.5
 IPart=  1 NShTot=         713 NBatch=          79 AvBLen=         9.0
 IPart=  3 NShTot=         703 NBatch=          74 AvBLen=         9.5
 IPart=  7 NShTot=         683 NBatch=          61 AvBLen=        11.2
 IPart=  8 NShTot=         678 NBatch=          59 AvBLen=        11.5
 IPart=  6 NShTot=         693 NBatch=          67 AvBLen=        10.3
 IPart= 12 NShTot=         669 NBatch=          55 AvBLen=        12.2
 PrSmSu:  NxtVal=            121.
 Entering OneElI...
 Calculate potential energy integrals
    NBasis = 485  MinDer = 2  MaxDer = 2
 Requested accuracy = 0.1000D-12
 PrmmSu-InSpLW:  IPartL=    0 NPrtUS=   20 NPrtUL=    1 DoSpLW=F IThBeg=    0 IThEnd=   19 NThAct=   20.
 PrsmSu:  NPrtUS=  20 ThrOK=T IAlg=1 NPAlg=1 LenDen=           0 ISkipM=0 DoSpLW=F IThBeg=    0 IThEnd=   19.
 Prism:   IPart=     0 DynPar=F LinDyn=F Incr=         137.
 PRISM was handed    33271105 working-precision words and 11991 shell-pairs
 PRISM was handed    33271105 working-precision words and 11991 shell-pairs
 PRISM was handed    33271105 working-precision words and 11991 shell-pairs
 PRISM was handed    33271105 working-precision words and 11991 shell-pairs
 PRISM was handed    33271105 working-precision words and 11991 shell-pairs
 PRISM was handed    33271105 working-precision words and 11991 shell-pairs
 PRISM was handed    33271105 working-precision words and 11991 shell-pairs
 PRISM was handed    33271105 working-precision words and 11991 shell-pairs
 PRISM was handed    33271105 working-precision words and 11991 shell-pairs
 PRISM was handed    33271105 working-precision words and 11991 shell-pairs
 PRISM was handed    33271105 working-precision words and 11991 shell-pairs
 PRISM was handed    33271105 working-precision words and 11991 shell-pairs
 PRISM was handed    33271105 working-precision words and 11991 shell-pairs
 PRISM was handed    33271105 working-precision words and 11991 shell-pairs
 PRISM was handed    33271105 working-precision words and 11991 shell-pairs
 PRISM was handed    33271105 working-precision words and 11991 shell-pairs
 PRISM was handed    33271105 working-precision words and 11991 shell-pairs
 PRISM was handed    33271105 working-precision words and 11991 shell-pairs
 PRISM was handed    33271105 working-precision words and 11991 shell-pairs
 PRISM was handed    33271105 working-precision words and 11991 shell-pairs
 IPart= 16 NShTot=       13248 NBatch=         577 AvBLen=        23.0
 IPart= 18 NShTot=       13202 NBatch=         575 AvBLen=        23.0
 IPart= 10 NShTot=       13685 NBatch=         596 AvBLen=        23.0
 IPart=  9 NShTot=       13754 NBatch=         599 AvBLen=        23.0
 IPart= 19 NShTot=       13202 NBatch=         575 AvBLen=        23.0
 IPart= 13 NShTot=       13524 NBatch=         589 AvBLen=        23.0
 IPart= 17 NShTot=       13202 NBatch=         575 AvBLen=        23.0
 IPart= 11 NShTot=       13616 NBatch=         593 AvBLen=        23.0
 IPart= 15 NShTot=       13317 NBatch=         580 AvBLen=        23.0
 IPart=  2 NShTot=       14421 NBatch=         629 AvBLen=        22.9
 IPart=  5 NShTot=       14260 NBatch=         622 AvBLen=        22.9
 IPart= 12 NShTot=       13547 NBatch=         590 AvBLen=        23.0
 IPart=  0 NShTot=       14559 NBatch=         635 AvBLen=        22.9
 IPart=  1 NShTot=       14444 NBatch=         630 AvBLen=        22.9
 IPart=  8 NShTot=       13800 NBatch=         601 AvBLen=        23.0
 IPart=  6 NShTot=       14030 NBatch=         611 AvBLen=        23.0
 IPart=  4 NShTot=       14306 NBatch=         624 AvBLen=        22.9
 IPart=  3 NShTot=       14398 NBatch=         628 AvBLen=        22.9
 IPart=  7 NShTot=       13846 NBatch=         603 AvBLen=        23.0
 IPart= 14 NShTot=       13432 NBatch=         585 AvBLen=        23.0
 PrSmSu:  NxtVal=           2741.
 Polarizability after L701:
                1             2             3 
      1  0.000000D+00
      2  0.000000D+00  0.000000D+00
      3  0.000000D+00  0.000000D+00  0.000000D+00
 Dipole Derivatives after L701:
                 1             2             3             4             5 
      1  -0.109212D+01  0.921265D+00  0.655370D+00  0.507495D-02 -0.524997D-01
      2   0.854827D+00 -0.679808D+00 -0.943738D-01 -0.470688D+00 -0.151403D+01
      3   0.183938D+00  0.198389D+00 -0.713301D+00 -0.232966D+00  0.357179D-01
                 6             7             8             9            10 
      1  -0.177035D+00 -0.310101D+00 -0.879780D-01  0.754055D+00 -0.535081D+00
      2  -0.167876D+00 -0.324605D+00 -0.370400D+00  0.372660D+00  0.262999D+00
      3  -0.797247D+00  0.164922D+00  0.122569D-01 -0.730991D+00 -0.955195D-01
                11            12            13            14            15 
      1   0.147114D+00 -0.155105D+01 -0.468497D+00 -0.910380D+00 -0.115836D+01
      2  -0.753213D-01 -0.277136D+00 -0.365559D+00 -0.539413D+00  0.897612D-01
      3  -0.101763D+00 -0.822312D+00  0.311333D-01  0.725252D-02 -0.737399D+00
                16            17            18            19            20 
      1  -0.154949D+01 -0.113784D+01  0.857238D+00 -0.184700D+01  0.104348D+01
      2  -0.217224D+00 -0.135442D+01  0.315719D+00  0.114210D+00 -0.114348D+01
      3  -0.360953D-01 -0.475487D-01 -0.858040D+00 -0.735710D-01  0.736422D-01
                21            22            23            24            25 
      1   0.517521D+00 -0.134001D+00  0.156188D+00  0.201571D+00  0.888387D+00
      2  -0.662104D-01 -0.211670D+00  0.248902D+00  0.119458D+00  0.120784D-01
      3  -0.916003D+00 -0.369169D+00  0.159279D+00  0.350413D+00  0.345382D+00
                26            27            28            29            30 
      1  -0.223135D+00  0.629087D+00  0.566909D+00 -0.525882D+00  0.303180D+00
      2   0.182215D+00 -0.910732D-02 -0.333001D+00  0.632894D+00 -0.257269D+00
      3  -0.118682D+00  0.399552D+00  0.703781D-01 -0.804028D-01  0.173248D+00
                31            32            33            34            35 
      1   0.287280D+00  0.560567D-01 -0.593854D+00  0.174691D+00  0.176152D-01
      2  -0.435381D-01  0.119567D+00  0.274973D+00  0.134023D+00  0.273833D+00
      3  -0.958774D-01 -0.330613D-01  0.586211D+00  0.958521D-01  0.978309D-01
                36            37            38            39            40 
      1   0.721110D-01  0.175785D+00 -0.361237D-01 -0.206290D-02  0.353606D+00
      2   0.518840D+00  0.353967D-02  0.833124D+00 -0.443831D+00  0.132749D+00
      3   0.559845D+00 -0.146869D-01 -0.168858D+00  0.233897D+00 -0.198478D+00
                41            42            43            44            45 
      1   0.242702D+00 -0.393607D+00  0.119631D+00 -0.867586D-01 -0.810494D-01
      2   0.347521D+00 -0.282266D+00  0.114444D+00  0.296098D+00  0.645887D-01
      3  -0.257203D+00  0.499478D+00  0.146999D+00  0.234688D+00  0.252210D+00
                46            47            48            49            50 
      1   0.668917D+00  0.733325D+00  0.272821D+00 -0.413517D-01 -0.191045D+00
      2   0.204471D+00  0.431497D+00  0.876034D-01  0.582083D-01  0.214839D+00
      3   0.153519D+00  0.202575D+00  0.195237D+00 -0.198230D+00 -0.208416D+00
                51            52            53            54            55 
      1   0.436455D+00  0.142915D+00 -0.207672D+00 -0.854527D+00  0.130175D+01
      2  -0.126236D+00  0.303322D-01  0.496564D-01 -0.298725D+00  0.579644D+00
      3   0.560066D+00 -0.394148D-01  0.166189D+00  0.630073D+00  0.476932D-01
                56            57            58            59            60 
      1   0.350198D+00  0.432121D+00 -0.200218D+00  0.435264D+00 -0.184222D-01
      2   0.278744D+00  0.171690D+00 -0.501423D+00  0.760628D+00  0.196029D-01
      3  -0.184259D-01  0.133659D+00  0.299301D-01 -0.894435D-01  0.107497D+00
                61            62            63            64            65 
      1   0.222468D+00  0.791740D-01 -0.105326D+01 -0.220736D+00 -0.769412D+00
      2  -0.277593D-01  0.102167D+00  0.215634D+00  0.310335D+00  0.803816D+00
      3  -0.547859D-01 -0.771503D-01  0.602040D+00 -0.272979D-01 -0.949474D-02
                66            67            68            69 
      1   0.674660D-01  0.149118D+01  0.463410D-01  0.684236D+00
      2  -0.915727D-01 -0.316392D+00  0.101377D+00 -0.135928D+00
      3   0.109389D+00  0.166345D+00  0.226282D-01  0.182478D+00
 Hessian after L701:
                1             2             3             4             5 
      1  0.149848D+02
      2 -0.748280D+00  0.160305D+02
      3 -0.128847D+00 -0.355541D+00  0.173581D+02
      4 -0.254572D+01  0.106607D+01 -0.217703D-01  0.146425D+02
      5  0.100109D+01 -0.568321D+01 -0.158078D+00  0.162952D+00  0.164700D+02
      6 -0.768565D-01 -0.177584D+00 -0.581325D+01  0.159540D+00 -0.279709D+00
      7  0.290082D+00 -0.145161D+00 -0.959771D-01 -0.385673D+01 -0.176345D+01
      8 -0.125525D+00 -0.527250D-01  0.674821D-01 -0.175085D+01 -0.470697D+01
      9 -0.600027D-01  0.699998D-01 -0.114607D+00 -0.112634D+01  0.760712D+00
     10 -0.558093D+01  0.115950D+01  0.714627D+00  0.112300D+00  0.214056D+00
     11  0.114618D+01 -0.321514D+01  0.141022D+01  0.209244D+00  0.895928D-01
     12  0.702996D+00  0.139732D+01 -0.530290D+01  0.687924D-01  0.116640D+00
     13  0.246637D+00 -0.796882D-01  0.485518D-01  0.204818D+00 -0.204872D+00
     14 -0.763999D-01 -0.120370D+00 -0.833752D-02 -0.321048D+00  0.444520D-01
     15  0.347583D-03  0.239872D-02 -0.146937D+00 -0.982819D-03  0.113804D-01
     16 -0.226149D-01  0.103547D+00 -0.520386D-01  0.262036D-01  0.213120D+00
     17  0.188989D+00  0.195217D+00 -0.114784D+00  0.197581D+00  0.975719D-01
     18  0.726706D-02  0.191450D-01 -0.586929D-01 -0.260401D-02 -0.709556D-02
     19  0.388063D-01 -0.378930D-01  0.246203D-02  0.159828D+00 -0.211676D+00
     20 -0.290968D-01 -0.332219D-01  0.488181D-02 -0.216895D+00  0.167410D-01
     21 -0.153820D-04  0.469006D-02 -0.500506D-01 -0.299733D-01  0.262280D-01
     22  0.176689D+00 -0.291160D-01 -0.332693D-01  0.900496D-03 -0.670928D-02
     23  0.219702D-01 -0.346704D-01 -0.148992D+00  0.274116D-01 -0.202163D-01
     24  0.859360D-02 -0.148346D+00 -0.166231D-01  0.203207D-01 -0.140974D-02
     25  0.117836D+00 -0.952794D-01 -0.222435D-01  0.718347D-01  0.553862D-01
     26 -0.873273D-01 -0.230437D-02 -0.110016D+00  0.450247D-01 -0.139637D-01
     27  0.228647D-02 -0.111289D+00  0.534510D-01  0.659712D-01  0.309706D-01
     28 -0.343941D+01 -0.111698D+01  0.412444D+00 -0.117643D+00 -0.349713D-01
     29 -0.111234D+01 -0.290135D+01 -0.531784D+00 -0.154500D-01  0.158692D+00
     30  0.397724D+00 -0.516734D+00 -0.407087D+01  0.365723D-01 -0.336635D-01
     31 -0.422597D+01  0.774343D-02 -0.796546D+00 -0.118626D+00 -0.785175D-01
     32 -0.264804D-01 -0.447059D+01  0.209888D-01 -0.467971D-01  0.120885D+00
     33 -0.753292D+00 -0.916184D-01 -0.204225D+01  0.851258D-01  0.258715D-01
     34 -0.838566D-01 -0.114867D+00 -0.515006D-01 -0.436781D+01  0.245598D+00
     35 -0.142679D+00  0.673698D-01 -0.377821D-01  0.298910D+00 -0.425249D+01
     36 -0.688804D-01 -0.331410D-01  0.183208D+00  0.721176D+00  0.739401D+00
     37 -0.800321D-01 -0.914892D-01  0.278629D-01 -0.437250D+01  0.159249D+00
     38 -0.116567D+00  0.129868D+00 -0.305728D-01  0.177843D+00 -0.236881D+01
     39  0.255508D-01 -0.456707D-01  0.137365D+00 -0.792905D-01 -0.978032D+00
     40  0.736291D-01  0.946045D-04 -0.547621D-01  0.966022D-02  0.104541D+00
     41  0.694966D-02 -0.334593D-01 -0.569258D-02  0.100639D+00  0.533265D-01
     42 -0.686305D-01 -0.301614D-02 -0.570163D-02  0.146240D-01 -0.104473D+00
     43 -0.933583D-02  0.371857D-01  0.157250D-01  0.105455D+00  0.160353D+00
     44  0.549954D-02 -0.196367D-01 -0.100265D-01  0.112433D+00 -0.900216D-02
     45 -0.231634D-02 -0.138092D-01 -0.604539D-02  0.652178D-01 -0.115105D+00
     46  0.329476D-01  0.429322D-02  0.116501D-01 -0.755566D-02 -0.474462D-02
     47  0.105466D-01 -0.858921D-02  0.553262D-02  0.880515D-02  0.252219D-02
     48  0.923439D-02  0.946733D-03 -0.984300D-02  0.147046D-01 -0.259943D-02
     49  0.798662D-03 -0.715336D-02  0.954930D-02  0.225841D-01 -0.238605D-01
     50 -0.123125D-01 -0.767879D-02 -0.112028D-01 -0.511584D-01 -0.198959D-01
[...]
 74108,0.00814021,0.04766593,-0.05547693,0.01376932,-0.00051409,-0.0000
 8138,0.00028221,-0.02033945,0.00193175,-0.00610130,-0.00008658,-0.0001
 3762,-0.00009969,-0.00121062,0.00160601,-0.00021051,-0.00003469,0.0000
 8819,-0.00014391,0.00005726,0.00007167,-0.00009923,0.00179448,-0.00083
 419,0.00065443,-0.00003645,0.00008709,0.00018242,-0.00043646,0.0013001
 0,0.00015446,0.00010042,0.00105774,-0.00075609,-0.05218776,0.06624399,
 0.00098369,0.00155610,0.00016605,-0.00840908,0.00235925,-0.00294409,-0
 .06162030,0.01362172,-0.06458460,-0.00002638,0.00018169,0.00005332,-0.
 02651289,0.00316061,-0.00916786,0.00011050,0.00027021,0.00012955,0.000
 24382,0.00134273,0.00057137,-0.00008681,0.00017012,0.00011081,-0.00003
 138,-0.00007943,0.00009409,-0.00048710,0.00019375,0.00001684,0.0001775
 2,-0.00019849,0.00008944,-0.00024766,-0.00037935,-0.00008847,0.0005016
 3,-0.00025243,0.00041687,0.07058074,-0.01279353,0.07060392,0.00030677,
 -0.00030322,-0.00056618,0.00148555,0.00009969,-0.00246840,-0.13160249,
 -0.02664032,0.11775905,0.00011214,-0.00020792,0.00009400,0.00543712,0.
 00138049,-0.00756739,-0.00160808,0.00010791,-0.00038212,0.00027571,0.0
 0046913,-0.00009782,0.00008291,0.00000268,0.00009504,0.00004585,-0.000
 12853,-0.00002425,0.00006184,-0.00011402,0.00008963,-0.00000458,0.0000
 4621,0.00000382,0.00108422,0.00062003,-0.00080437,-0.00008811,-0.00052
 761,0.00011635,-0.01828735,-0.00572117,0.02471476,0.14471010,-0.000422
 86,0.00143202,-0.00041372,-0.01997166,-0.00731711,0.02721424,-0.026162
 87,-0.05539776,0.03789472,0.00083141,0.00006173,0.00068931,0.01230420,
 0.00170672,-0.01686596,0.00017233,-0.00001044,-0.00036532,0.00084664,0
 .00158799,-0.00077124,0.00014116,-0.00042962,-0.00052036,-0.00017805,0
 .00004033,-0.00024566,-0.00015613,0.00019436,-0.00030696,0.00010960,-0
 .00008102,-0.00000553,0.00075788,-0.00638131,0.00168577,-0.00012732,0.
 00109856,-0.00067709,0.00356369,0.00065826,-0.00550369,0.03069850,0.06
 414007,0.00077203,-0.00025146,-0.00026445,0.00409506,0.00238179,-0.006
 62397,0.11582445,0.03740954,-0.21062734,-0.00006238,0.00037005,0.00017
 543,0.01502959,0.00321490,-0.02254610,0.00021451,0.00053466,0.00028820
 ,0.00017900,0.00140961,0.00089418,-0.00016200,0.00015670,-0.00003188,-
 0.00006417,-0.00015478,0.00010904,-0.00015124,-0.00003254,0.00012849,-
 0.00003298,0.00008161,0.00000249,-0.00008237,0.00139647,0.00083559,-0.
 00024906,0.00033254,0.00049851,-0.00423755,-0.00197796,0.00686999,-0.1
 2859709,-0.03995705,0.23143323,0.00001153,0.00019683,0.00002687,0.0002
 4793,0.00036002,0.00008611,0.00535411,0.00100561,-0.00807984,-0.000152
 65,-0.00018473,-0.00020372,-0.14285586,-0.02503751,0.12135705,0.000057
 39,-0.00032302,0.00041460,0.00180953,0.00062203,-0.00301989,0.00008871
 ,0.00002342,0.00002616,0.00005903,0.00007735,-0.00000803,0.00002357,0.
 00006793,0.00002463,-0.00019104,-0.00005200,0.00004140,0.00000322,0.00
 034812,0.00022794,-0.00000276,0.00021294,-0.00012961,0.00078655,0.0006
 0282,0.00022727,0.00063753,-0.00131232,-0.00188324,0.15101651,-0.00004
 998,-0.00003344,0.00007245,0.00089604,0.00154483,-0.00078625,0.0128513
 2,0.00162407,-0.01721891,-0.00005741,0.00006493,-0.00010751,-0.0243599
 0,-0.05292132,0.03296169,0.00001117,0.00011020,-0.00010461,-0.02065292
 ,-0.00733380,0.02634555,0.00002191,0.00002694,0.00008425,0.00000762,-0
 .00001791,0.00007653,0.00002970,-0.00002738,0.00004466,0.00005986,0.00
 006960,0.00010410,-0.00043396,-0.00018301,0.00044505,-0.00016974,0.000
 22902,0.00022071,-0.00011181,0.00063664,0.00091450,-0.00117716,-0.0023
 7736,-0.00335748,0.02858966,0.06201064,0.00002423,-0.00020879,0.000088
 24,0.00028846,0.00138434,0.00074870,0.01551439,0.00256680,-0.02266043,
 -0.00006514,0.00002696,-0.00012044,0.12021771,0.03366257,-0.20384306,-
 0.00011445,0.00005771,0.00014014,0.00485926,0.00181379,-0.00653092,-0.
 00000449,0.00007231,0.00007191,0.00000342,-0.00002560,0.00006004,0.000
 06972,-0.00005886,-0.00000432,0.00011650,-0.00012859,-0.00015980,-0.00
 021941,-0.00087927,0.00062757,-0.00037757,0.00010111,0.00035769,-0.000
 22459,0.00067417,0.00074608,-0.00195840,-0.00330583,-0.00301755,-0.132
 12164,-0.03517701,0.22456944,-0.00051730,0.00044626,-0.00078973,-0.000
 24953,0.00048628,-0.00042762,-0.00836094,0.00019375,-0.00325464,0.0002
 1535,-0.00008994,-0.00020136,-0.27748842,0.04647174,-0.07052838,-0.000
 34181,-0.00010909,0.00126567,-0.00051543,0.00056076,-0.00008344,-0.000
 04173,-0.00001143,0.00015534,-0.00000785,-0.00000593,-0.00001524,0.000
 25878,0.00016482,0.00043704,0.00054943,0.00082435,0.00077199,-0.000017
 40,-0.00001317,-0.00004104,0.00013265,-0.00015957,0.00007644,0.0011504
 1,-0.00116155,-0.00125988,0.00045390,-0.00020905,-0.00000367,-0.018656
 25,0.00355113,-0.00510183,0.30176049,0.00040967,-0.00093066,-0.0000049
 7,-0.00046412,0.00098684,0.00039690,-0.02077380,0.00371621,-0.00560220
 ,0.00016393,-0.00010791,-0.00007864,0.04626970,-0.05540500,0.01481141,
 -0.00004657,0.00006098,-0.00028661,0.03182822,-0.00893219,0.00999459,-
 0.00007548,0.00004242,0.00008534,-0.00002677,0.00000373,0.00004841,-0.
 00000476,0.00017958,0.00012327,0.00058183,-0.00218092,0.00004889,-0.00
 004734,-0.00008868,0.00005777,0.00026348,0.00020942,0.00010762,-0.0010
 3569,-0.00249957,-0.00356709,0.00068371,0.00060679,0.00051593,-0.00521
 444,0.00051693,-0.00202293,-0.05225425,0.06726130,0.00011802,0.0000529
 8,0.00033302,0.00017396,0.00089870,0.00044878,-0.02503761,0.00437331,-
 0.00811308,-0.00019873,-0.00022073,-0.00021663,-0.06895412,0.01448791,
 -0.07065952,0.00039666,-0.00054962,0.00019406,-0.00869785,0.00237550,-
 0.00306224,0.00007232,0.00003651,0.00006188,0.00007137,0.00014870,0.00
 000755,0.00016260,0.00012298,0.00009719,0.00011553,0.00018942,0.000429
 96,0.00006180,-0.00012273,0.00001991,0.00011840,0.00011067,-0.00000085
 ,-0.00136752,-0.00328089,-0.00346325,0.00020751,0.00084952,0.00071274,
 0.02416306,-0.00530968,0.00786147,0.07828172,-0.01579847,0.07597094,0.
 00065037,0.00049254,-0.00187287,-0.00013104,0.00020276,0.00016785,-0.0
 0004933,0.00002018,-0.00055787,-0.00938116,-0.00170316,-0.01505686,-0.
 00035086,-0.00001498,-0.00032927,-0.10517972,-0.00581149,-0.10915710,0
 .00015700,0.00007395,0.00000249,-0.00099036,-0.00343792,0.00021419,0.0
 0073728,0.00028828,0.00057312,0.00018623,0.00018384,0.00015305,-0.0003
 1822,0.00008611,0.00094337,-0.00004328,-0.00000652,0.00008198,0.000164
 85,0.00002636,0.00012730,-0.00010523,-0.00001230,0.00020939,-0.0000868
 4,-0.00015013,0.00033193,0.00010829,-0.00000135,0.00008892,0.00001978,
 0.00009628,0.00011284,0.11214273,0.00131682,0.00098155,-0.00148541,-0.
 00011840,-0.00001519,0.00003414,0.00012030,-0.00001895,0.00048203,-0.0
 1547754,-0.00336066,-0.02635416,0.00011507,0.00000160,0.00025264,-0.00
 543246,-0.04686818,-0.01191175,-0.00008576,-0.00006127,0.00005410,-0.0
 0334778,-0.00498673,0.00005927,0.00085733,0.00116704,-0.00010582,0.000
 24939,0.00004801,-0.00007971,0.00005689,0.00041473,0.00081008,-0.00004
 448,0.00010810,0.00002214,0.00016244,0.00002520,0.00011413,0.00011027,
 0.00000969,-0.00015753,0.00000332,-0.00000685,-0.00027908,-0.00007693,
 0.00000188,-0.00005960,-0.00013740,0.00007549,-0.00004441,0.01017190,0
 .05181598,0.00063315,0.00033569,0.00108363,0.00030731,0.00007789,0.000
 18971,0.00010129,0.00006990,-0.00014897,-0.00035380,-0.00031921,-0.001
 90216,-0.00015533,-0.00003791,-0.00001184,-0.10987141,-0.01307785,-0.2
 5333710,0.00005426,0.00000795,0.00000020,0.00054788,-0.00043973,0.0013
 5206,0.00006038,-0.00058936,0.00017388,-0.00000786,0.00005430,0.000265
 20,-0.00041698,-0.00007182,0.00046144,-0.00006043,0.00000082,0.0000118
 2,0.00015846,-0.00004491,-0.00008706,-0.00000587,0.00003134,0.00006289
 ,0.00001733,-0.00003619,0.00007712,0.00001611,0.00001156,0.00002456,-0
 .00016978,0.00004740,0.00002969,0.12095549,0.01459569,0.27385872,0.000
 34131,-0.00370035,-0.00136653,0.00024866,0.00007711,0.00020468,-0.0000
 7600,0.00016104,-0.00022752,-0.01183926,0.00058699,0.01213609,0.000104
 76,-0.00010391,0.00002057,-0.17405820,-0.00406062,0.13358906,-0.000029
 77,-0.00006216,0.00004297,-0.00006772,0.00048046,-0.00030236,0.0009288
 3,0.00007575,-0.00022115,-0.00084663,-0.00011090,0.00072708,0.00011108
 ,0.00013306,-0.00007678,-0.00009883,0.00004899,0.00000259,-0.00001270,
 -0.00004603,-0.00002609,-0.00012599,0.00000530,0.00008773,-0.00015118,
 0.00004054,0.00025573,-0.00008754,0.00003581,-0.00001256,-0.00018421,-
 0.00001172,-0.00016708,0.01185337,0.00047089,-0.01144436,0.18708847,-0
 .00223368,-0.00489378,-0.00147571,-0.00004634,-0.00045369,0.00052718,-
 0.00001155,-0.00025877,0.00003224,-0.01997874,-0.00040245,0.02241997,-
 0.00017973,0.00012960,-0.00041379,-0.00328515,-0.04711074,0.00383145,0
 .00007437,0.00010984,0.00002324,0.00041100,0.00112097,-0.00043261,0.00
 081964,0.00102445,0.00046894,-0.00116238,-0.00033057,0.00098742,0.0002
 0103,-0.00007843,-0.00021000,-0.00024172,0.00016912,-0.00007505,-0.000
 04202,0.00004742,-0.00001911,0.00009092,0.00012374,-0.00005726,0.00006
 913,0.00004609,-0.00024426,0.00023814,-0.00007823,0.00001685,0.0003173
 3,-0.00007635,0.00030596,0.00128380,-0.00122920,-0.00077940,0.00699997
 ,0.05082037,-0.00010540,-0.00039060,0.00022202,0.00004307,0.00022962,0
 .00004627,-0.00006215,0.00002631,-0.00007934,-0.00347108,-0.00057430,0
 .00227390,-0.00024004,0.00001976,-0.00009006,0.13375028,0.00510500,-0.
 18889069,0.00007762,0.00002380,-0.00000613,0.00014302,0.00047959,0.000
 44254,0.00004300,0.00052376,0.00000032,0.00017849,0.00002609,0.0002919
 1,-0.00007575,0.00006558,0.00062212,0.00001460,0.00000954,-0.00000708,
 0.00008053,-0.00002495,0.00003353,0.00000842,-0.00001133,0.00004481,-0
 .00001804,0.00001477,0.00001608,0.00004269,-0.00001156,0.00001807,0.00
 003080,0.00006818,0.00007377,0.02015950,0.00021236,-0.01988943,-0.1472
 1461,-0.00489750,0.20199108,0.00100625,0.00089695,-0.00016270,0.000147
 24,-0.00023267,-0.00013581,-0.00182832,0.00019240,0.00027035,0.0124921
 0,-0.01549372,0.00202254,-0.00057866,0.00019926,0.00072731,-0.14132983
 ,0.12947290,-0.01558633,-0.00014432,-0.00006310,-0.00002340,0.00073663
 ,0.00111191,0.00001117,-0.00120222,-0.00430321,-0.00031595,0.00012200,
 0.00018072,-0.00004892,0.00006445,0.00023150,0.00006872,0.00003827,0.0
 0005087,-0.00002609,0.00000815,0.00001810,0.00000943,0.00004498,0.0000
 7434,0.00000718,-0.00281220,-0.00030407,-0.00055637,-0.00005757,-0.000
 08411,-0.00016297,-0.00050746,0.00024779,0.00045582,-0.00933970,0.0110
 2407,-0.00034737,-0.01311646,0.01670123,-0.00338774,0.15599912,0.00045
 064,0.00094246,-0.00027754,-0.00025842,-0.00031436,0.00025736,0.000245
 33,-0.00052407,0.00074412,0.01745778,-0.02262800,0.00230036,0.00034588
 ,0.00040415,-0.00044127,0.12751140,-0.21920036,0.02156574,0.00012761,0
 .00026374,-0.00028914,0.00022986,0.00123846,-0.00031171,-0.00409908,-0
 .00411181,-0.00047242,-0.00002577,0.00025731,0.00000810,-0.00020070,0.
 00007086,0.00030278,-0.00013754,0.00018046,-0.00010370,0.00003671,0.00
 004259,-0.00000038,0.00035085,0.00012675,-0.00038095,0.00017762,0.0004
 2873,-0.00065047,0.00020768,-0.00016780,-0.00003707,0.00040542,0.00014
 513,0.00016666,-0.00168911,0.00182385,0.00017551,-0.00104721,0.0012997
 3,-0.00083967,-0.13990364,0.23987919,-0.00045090,0.00021994,0.00019427
 ,0.00011504,0.00001271,0.00009198,-0.00014931,0.00022755,0.00045123,0.
 00136811,-0.00207277,-0.00045439,0.00094962,-0.00021244,-0.00004793,-0
 .01527234,0.02117162,-0.04979472,-0.00018056,-0.00020510,-0.00002335,0
 .00056676,-0.00014441,0.00007836,-0.00029392,-0.00055155,0.00096626,0.
 00000548,-0.00010771,-0.00012106,-0.00014147,0.00002641,-0.00011201,-0
 .00007061,0.00003481,-0.00003151,0.00000431,-0.00010212,-0.00002943,-0
 .00008999,-0.00006748,-0.00011575,-0.00080105,-0.00002008,0.00014927,-
 0.00029682,-0.00000576,-0.00007934,0.00057787,-0.00006312,-0.00123525,
 -0.01722118,0.02391124,-0.00223012,0.01400696,-0.02001289,0.00286379,0
 .01736047,-0.02212109,0.04943847,-0.00007380,-0.00020677,-0.00004488,0
 .00037819,0.00010624,0.00017233,0.00056113,-0.00059805,0.00026146,-0.0
 0005269,0.00000189,-0.00000473,-0.00129382,0.00059766,-0.00066240,0.00
 008432,-0.00005217,0.00000162,-0.27889999,0.05233760,-0.07192484,0.000
 01369,0.00000992,0.00001887,0.00001460,0.00003981,-0.00000242,0.000060
 19,-0.00001067,0.00000280,0.00000903,-0.00000265,0.00004287,-0.0000176
 2,-0.00001242,-0.00000602,-0.00001683,0.00009064,0.00001135,0.00017641
 ,0.00057570,0.00041212,-0.00012646,0.00010785,-0.00003478,0.00061666,0
 .00045099,-0.00017442,0.00165573,0.00005130,-0.00023787,0.00001625,-0.
 00000224,0.00001603,-0.00001672,0.00002834,0.00001370,0.00001594,-0.00
 005598,-0.00008946,0.30158295,0.00012474,0.00001497,0.00018681,-0.0002
 3635,0.00003629,0.00016809,0.00144518,0.00194409,0.00093040,-0.0000533
 3,0.00003299,0.00001873,0.03169854,-0.00839640,0.00923400,0.00005575,0
 .00004616,-0.00005493,0.05144396,-0.05788727,0.01544966,0.00001586,-0.
 00001754,-0.00004094,-0.00000278,-0.00000863,-0.00000263,-0.00007849,-
 0.00006201,-0.00013545,-0.00016030,0.00000305,-0.00021764,0.00002630,0
 .00001689,0.00002112,-0.00003917,-0.00000076,-0.00002203,-0.00085192,-
 0.00023727,-0.00049142,-0.00003879,-0.00003786,-0.00013921,-0.00047776
 ,0.00144092,-0.00017642,-0.00010535,-0.00621716,0.00178705,-0.00006746
 ,0.00002378,-0.00001368,0.00002153,-0.00005016,-0.00003843,-0.00003217
 ,-0.00000884,0.00009137,-0.05817881,0.06495593,-0.00003553,-0.00005126
 ,-0.00013723,0.00008655,-0.00005529,-0.00005756,0.00068980,-0.00071112
 ,0.00025653,0.00007269,-0.00002644,0.00001189,-0.00981088,0.00261869,-
 0.00377930,-0.00009676,0.00000127,0.00004255,-0.07178569,0.01565304,-0
 .07003156,-0.00000441,-0.00000248,0.00000777,-0.00002230,-0.00001216,0
 .00000148,0.00001029,0.00001904,0.00003535,0.00002282,0.00001508,0.000
 06968,-0.00000279,0.00004455,-0.00004726,0.00000984,0.00001142,0.00000
 618,0.00007018,0.00004060,0.00045618,0.00014714,0.00007836,-0.00001158
 ,-0.00022977,-0.00038800,-0.00012677,0.00029742,0.00202649,0.00021923,
 0.00004065,-0.00003374,0.00000476,-0.00001377,0.00002050,0.00001946,-0
 .00004603,0.00013935,-0.00001198,0.07984634,-0.01974128,0.07185687,0.0
 0001086,-0.00000277,0.00003398,0.00015763,-0.00006030,-0.00030438,-0.0
 0013241,0.00011994,0.00009343,0.00002262,-0.00002188,0.00002420,0.0019
 4287,0.00048066,-0.00275340,-0.00008013,0.00012865,-0.00011343,-0.1492
 3472,-0.02918896,0.12513585,-0.00000829,-0.00002027,-0.00001933,-0.000
 01100,-0.00001614,-0.00000664,-0.00001022,-0.00001293,-0.00001037,-0.0
 0002375,0.00000754,-0.00003345,-0.00001834,0.00013355,-0.00001706,-0.0
 0000696,-0.00007466,0.00000588,-0.00006236,-0.00002329,0.00011246,0.00
 006405,-0.00048573,-0.00020073,0.00125943,0.00087760,-0.00046537,0.000
 53060,-0.00052303,-0.00031642,-0.00003143,0.00002775,-0.00001680,0.000
 03452,-0.00005253,-0.00000421,0.00017146,-0.00009230,0.00006202,-0.018
 18156,-0.00533118,0.02398699,0.15830581,0.00001092,0.00004306,0.000060
 18,0.00020451,-0.00014205,-0.00004951,-0.00052624,0.00199414,0.0015532
 6,-0.00012363,0.00001293,0.00000010,-0.02134268,-0.00739060,0.02557932
 ,0.00019337,-0.00023444,0.00002363,-0.02881045,-0.05437060,0.03466449,
 0.00001927,-0.00001527,-0.00001499,0.00004350,0.00006326,-0.00001804,-
 0.00000004,0.00000432,-0.00003048,-0.00006829,0.00000761,-0.00001706,0
 .00013923,0.00020164,-0.00020670,0.00006639,-0.00000704,-0.00009414,-0
 .00000076,-0.00005175,-0.00009123,0.00030840,-0.00015211,-0.00085647,0
 .00067013,-0.00633045,0.00150963,0.00025425,0.00154301,-0.00043561,-0.
 00006442,0.00007259,-0.00002530,-0.00003416,0.00006356,-0.00000747,0.0
 0009146,-0.00011218,-0.00001254,0.00371807,0.00016742,-0.00581703,0.03
 168588,0.06111812,0.00003921,0.00001099,-0.00006419,-0.00022482,-0.000
 07997,0.00025402,-0.00056990,-0.00077429,0.00073907,0.00013244,0.00001
 280,0.00000139,0.00562037,0.00235565,-0.00839151,-0.00013896,-0.000032
 19,0.00001632,0.12507735,0.03512738,-0.20146426,-0.00001996,-0.0000171
 2,-0.00000719,-0.00005068,-0.00004665,0.00000609,-0.00003639,0.0000123
 3,0.00002031,0.00003764,-0.00000272,0.00001254,-0.00002711,-0.00020026
 ,-0.00004444,-0.00001524,0.00008040,0.00002457,-0.00005719,0.00007876,
 -0.00000645,0.00023594,0.00033402,0.00059510,-0.00078732,0.00192387,0.
 00063895,-0.00016899,-0.00013432,-0.00003878,0.00000789,0.00000345,-0.
 00001591,-0.00001238,-0.00000568,0.00001060,-0.00007912,0.00026675,0.0
 0008802,-0.00630137,-0.00239455,0.00822812,-0.13806011,-0.04130863,0.2
 1757630,-0.00001158,-0.00014549,0.00005169,0.00059849,0.00017498,-0.00
 007404,0.00023678,0.00027430,-0.00005758,-0.00002519,0.00000531,-0.000
 00573,-0.00065107,0.00197330,0.00277708,0.00002093,-0.00002820,0.00000
 386,-0.06372722,-0.04021318,-0.05018925,-0.00000554,-0.00000842,-0.000
 00572,0.00000653,0.00000380,-0.00000256,0.00003833,-0.00002562,0.00000
 210,-0.00001039,0.00000409,-0.00001988,-0.00001048,0.00006584,0.000003
 14,-0.00000214,0.00004792,-0.00002130,0.00044707,0.00023969,0.00031267
 ,0.00000956,-0.00009360,-0.00038467,-0.00007632,-0.00028448,-0.0001797
 7,0.00016121,-0.00011796,0.00046558,-0.00002899,0.00003657,-0.00001770
 ,0.00000019,-0.00000107,-0.00000671,0.00007014,-0.00003703,0.00004099,
 -0.00650561,-0.01917801,-0.02323277,0.00530132,0.01356530,0.01539870,0
 .06416398,-0.00020915,0.00000037,-0.00008330,-0.00070295,-0.00049566,-
 0.00202209,0.00138448,-0.00572611,0.00431597,-0.00003596,-0.00000895,0
 .00006105,-0.00810122,-0.01785867,-0.02525800,0.00001268,0.00000802,-0
 .00003503,-0.03982957,-0.14561581,-0.12345159,-0.00001702,0.00003126,0
 .00002818,0.00005473,-0.00000278,-0.00001266,0.00009715,-0.00003128,0.
 00003660,0.00006723,0.00005485,0.00005085,-0.00004792,0.00000581,0.000
 07581,0.00003236,-0.00077391,0.00012918,-0.00011917,0.00016661,0.00018
 172,0.00019192,0.00018979,0.00009696,-0.00054395,0.00119412,0.00019375
 ,0.00058062,0.00109062,-0.00014374,0.00003284,-0.00002246,0.00002731,0
 .00003960,0.00000748,-0.00000856,-0.00007682,-0.00003598,0.00000340,0.
 00100373,0.00424140,0.00617040,0.00244442,0.00351486,0.00479001,0.0437
 4197,0.16006640,0.00000311,-0.00006743,0.00001895,0.00001895,0.0005849
 8,0.00057827,-0.00013788,0.00147135,-0.00026155,0.00002314,-0.00000181
 ,0.00000287,0.00347796,0.00772586,0.00924049,-0.00003750,0.00006480,-0
 .00000865,-0.05023809,-0.12464736,-0.20205763,0.00000587,0.00002150,0.
 00000468,0.00000336,-0.00001738,0.00000345,0.00001840,-0.00001857,-0.0
 0000566,-0.00001758,0.00000105,-0.00001214,0.00000919,-0.00011589,0.00
 002220,-0.00000332,0.00018285,-0.00003694,0.00013736,0.00011627,-0.000
 06176,-0.00019546,0.00023397,0.00033741,0.00010601,-0.00073815,0.00058
 974,0.00015128,-0.00077384,0.00032940,0.00002521,-0.00004007,0.0000269
 1,0.00001172,-0.00001049,-0.00000754,-0.00005420,-0.00000133,-0.000034
 82,-0.00131629,-0.00441861,-0.00701281,-0.00713310,-0.01440542,-0.0181
 7867,0.05514186,0.13485375,0.21652376\\0.00000082,0.00000010,0.0000000
 5,0.00000038,-0.00000056,0.00000108,-0.00000044,-0.00000037,0.00000103
 ,-0.00000003,0.00000032,-0.00000073,0.00000022,0.,0.00000044,-0.000000
 42,0.00000032,-0.00000182,-0.00000030,-0.00000030,0.00000021,-0.000001
 02,0.00000008,-0.00000055,-0.00000003,0.00000029,-0.00000128,0.0000017
 1,0.00000018,0.00000061,0.00000146,0.00000069,-0.00000039,0.00000149,-
 0.00000023,0.00000215,-0.00000042,-0.00000066,0.00000194,-0.00000069,-
 0.00000094,0.00000191,-0.00000121,-0.00000027,0.00000055,0.00000121,0.
 00000014,0.00000117,0.00000078,0.00000018,-0.00000038,0.00000053,0.000
 00079,-0.00000243,-0.00000135,0.00000063,-0.00000280,-0.00000085,0.000
 00025,-0.00000133,-0.00000078,-0.00000061,0.00000101,-0.00000113,-0.00
 000016,-0.00000040,0.00000005,0.00000012,-0.00000005\\\@


 IF YOU GIVE A BOY AND A PIG EVERYTHING THEY WANT,
 YOU'LL GET A BAD BOY AND A GOOD PIG.
 Job cpu time:       0 days  7 hours 49 minutes 45.0 seconds.
 Elapsed time:       0 days  3 hours 54 minutes 57.7 seconds.
 File lengths (MBytes):  RWF=   1488 Int=      0 D2E=      0 Chk=     32 Scr=     32
 Normal termination of Gaussian 16 at Sat Sep 28 21:01:30 2019.
