 Entering Gaussian System, Link 0=g16
 Input=med/species/CCCCCCC/conformers/CCCCCCC_806.com
 Output=med/species/CCCCCCC/conformers/CCCCCCC_806.log
 Initial command:
 /shared/centos7/gaussian/g16/l1.exe "/scratch/harms.n/gauss_scrdir/Gau-32981.inp" -scrdir="/scratch/harms.n/gauss_scrdir/"
 Entering Link 1 = /shared/centos7/gaussian/g16/l1.exe PID=     32982.
  
 Copyright (c) 1988,1990,1992,1993,1995,1998,2003,2009,2016,
            Gaussian, Inc.  All Rights Reserved.
  
 This is part of the Gaussian(R) 16 program.  It is based on
 the Gaussian(R) 09 system (copyright 2009, Gaussian, Inc.),
 the Gaussian(R) 03 system (copyright 2003, Gaussian, Inc.),
 the Gaussian(R) 98 system (copyright 1998, Gaussian, Inc.),
 the Gaussian(R) 94 system (copyright 1995, Gaussian, Inc.),
 the Gaussian 92(TM) system (copyright 1992, Gaussian, Inc.),
 the Gaussian 90(TM) system (copyright 1990, Gaussian, Inc.),
 the Gaussian 88(TM) system (copyright 1988, Gaussian, Inc.),
 the Gaussian 86(TM) system (copyright 1986, Carnegie Mellon
 University), and the Gaussian 82(TM) system (copyright 1983,
 Carnegie Mellon University). Gaussian is a federally registered
 trademark of Gaussian, Inc.
  
 This software contains proprietary and confidential information,
 including trade secrets, belonging to Gaussian, Inc.
  
 This software is provided under written license and may be
 used, copied, transmitted, or stored only in accord with that
 written license.
  
 The following legend is applicable only to US Government
 contracts under FAR:
  
                    RESTRICTED RIGHTS LEGEND
  
 Use, reproduction and disclosure by the US Government is
 subject to restrictions as set forth in subparagraphs (a)
 and (c) of the Commercial Computer Software - Restricted
 Rights clause in FAR 52.227-19.
  
 Gaussian, Inc.
 340 Quinnipiac St., Bldg. 40, Wallingford CT 06492
  
  
 ---------------------------------------------------------------
 Warning -- This program may not be used in any manner that
 competes with the business of Gaussian, Inc. or will provide
 assistance to any competitor of Gaussian, Inc.  The licensee
 of this program is prohibited from giving any competitor of
 Gaussian, Inc. access to this program.  By using this program,
 the user acknowledges that Gaussian, Inc. is engaged in the
 business of creating and licensing software in the field of
 computational chemistry and represents and warrants to the
 licensee that it is not a competitor of Gaussian, Inc. and that
 it will not use this program in any manner prohibited above.
 ---------------------------------------------------------------
  

 Cite this work as:
 Gaussian 16, Revision A.03,
 M. J. Frisch, G. W. Trucks, H. B. Schlegel, G. E. Scuseria, 
 M. A. Robb, J. R. Cheeseman, G. Scalmani, V. Barone, 
 G. A. Petersson, H. Nakatsuji, X. Li, M. Caricato, A. V. Marenich, 
 J. Bloino, B. G. Janesko, R. Gomperts, B. Mennucci, H. P. Hratchian, 
 J. V. Ortiz, A. F. Izmaylov, J. L. Sonnenberg, D. Williams-Young, 
 F. Ding, F. Lipparini, F. Egidi, J. Goings, B. Peng, A. Petrone, 
 T. Henderson, D. Ranasinghe, V. G. Zakrzewski, J. Gao, N. Rega, 
 G. Zheng, W. Liang, M. Hada, M. Ehara, K. Toyota, R. Fukuda, 
 J. Hasegawa, M. Ishida, T. Nakajima, Y. Honda, O. Kitao, H. Nakai, 
 T. Vreven, K. Throssell, J. A. Montgomery, Jr., J. E. Peralta, 
 F. Ogliaro, M. J. Bearpark, J. J. Heyd, E. N. Brothers, K. N. Kudin, 
 V. N. Staroverov, T. A. Keith, R. Kobayashi, J. Normand, 
 K. Raghavachari, A. P. Rendell, J. C. Burant, S. S. Iyengar, 
 J. Tomasi, M. Cossi, J. M. Millam, M. Klene, C. Adamo, R. Cammi, 
 J. W. Ochterski, R. L. Martin, K. Morokuma, O. Farkas, 
 J. B. Foresman, and D. J. Fox, Gaussian, Inc., Wallingford CT, 2016.
 
 ******************************************
 Gaussian 16:  EM64L-G16RevA.03 25-Dec-2016
                28-Sep-2019 
 ******************************************
 %nprocshared=20
 Will use up to   20 processors via shared memory.
 %mem=5GB
 ----------------------------------------------------------------------
 #p m062x/cc-pVTZ opt=(calcfc,maxcycles=900,Tight) freq IOP(7/33=1,2/16
 =3) scf=(maxcycle=900)
 ----------------------------------------------------------------------
 1/6=900,7=10,10=4,18=20,19=15,26=3,38=1/1,3;
 2/9=110,12=2,16=3,17=6,18=5,40=1/2;
 3/5=16,6=1,11=2,25=1,30=1,71=2,74=-55,140=1/1,2,3;
 4//1;
 5/5=2,7=900,38=5/2;
 8/6=4,10=90,11=11/1;
 11/6=1,8=1,9=11,15=111,16=1/1,2,10;
 10/6=1,13=1/2;
 6/7=2,8=2,9=2,10=2,28=1/1;
 7/10=1,18=20,25=1,33=1/1,2,3,16;
 1/6=900,7=10,10=4,18=20,19=15,26=3/3(2);
 2/9=110,16=3/2;
 99//99;
 2/9=110,16=3/2;
 3/5=16,6=1,11=2,25=1,30=1,71=1,74=-55/1,2,3;
 4/5=5,16=3,69=1/1;
 5/5=2,7=900,38=5/2;
 7/33=1/1,2,3,16;
 1/6=900,7=10,18=20,19=15,26=3/3(-5);
 2/9=110,16=3/2;
 6/7=2,8=2,9=2,10=2,19=2,28=1/1;
 99/9=1/99;
 Leave Link    1 at Sat Sep 28 01:52:37 2019, MaxMem=   671088640 cpu:               4.3 elap:               2.1
 (Enter /shared/centos7/gaussian/g16/l101.exe)
 ------------------------------
 Gaussian input prepared by ASE
 ------------------------------
 Symbolic Z-matrix:
 Charge =  0 Multiplicity = 1
 C                     1.35952  -1.1022    0.50063 
 C                     0.09656  -0.42345   0.9083 
 C                    -0.95839  -0.33286  -0.16587 
 C                     2.1996   -0.46174  -0.55251 
 C                    -1.27194  -1.65562  -0.82443 
 C                     1.76975   0.83849  -1.09493 
 C                    -0.88418  -1.72411  -2.27869 
 H                     2.31687  -1.19084  -1.40327 
 H                     3.23503  -0.35784  -0.14896 
 H                     1.10636  -2.13487   0.17957 
 H                     1.97932  -1.2272    1.41216 
 H                     0.29978   0.59247   1.28151 
 H                    -0.31608  -0.98395   1.77365 
 H                    -0.62009   0.39954  -0.91838 
 H                    -1.8841    0.0862    0.27976 
 H                    -0.73607  -2.47556  -0.27846 
 H                    -2.3492   -1.87333  -0.72768 
 H                     0.90584   1.27078  -0.55581 
 H                     2.6076    1.59567  -1.04776 
 H                     1.48827   0.75378  -2.16595 
 H                     0.04614  -1.18735  -2.46836 
 H                    -1.68708  -1.27665  -2.92755 
 H                    -0.73635  -2.7956   -2.59797 
 
 ITRead=  0  0  0  0  0  0  0  0  0  0  0  0  0  0  0  0  0  0  0  0
 ITRead=  0  0  0
 MicOpt= -1 -1 -1 -1 -1 -1 -1 -1 -1 -1 -1 -1 -1 -1 -1 -1 -1 -1 -1 -1
 MicOpt= -1 -1 -1
 NAtoms=     23 NQM=       23 NQMF=       0 NMMI=      0 NMMIF=      0
                NMic=       0 NMicF=      0.
                    Isotopes and Nuclear Properties:
 (Nuclear quadrupole moments (NQMom) in fm**2, nuclear magnetic moments (NMagM)
  in nuclear magnetons)

  Atom         1           2           3           4           5           6           7           8           9          10
 IAtWgt=          12          12          12          12          12          12          12           1           1           1
 AtmWgt=  12.0000000  12.0000000  12.0000000  12.0000000  12.0000000  12.0000000  12.0000000   1.0078250   1.0078250   1.0078250
 NucSpn=           0           0           0           0           0           0           0           1           1           1
 AtZEff=  -0.0000000  -0.0000000  -0.0000000  -0.0000000  -0.0000000  -0.0000000  -0.0000000  -0.0000000  -0.0000000  -0.0000000
 NQMom=    0.0000000   0.0000000   0.0000000   0.0000000   0.0000000   0.0000000   0.0000000   0.0000000   0.0000000   0.0000000
 NMagM=    0.0000000   0.0000000   0.0000000   0.0000000   0.0000000   0.0000000   0.0000000   2.7928460   2.7928460   2.7928460
 AtZNuc=   6.0000000   6.0000000   6.0000000   6.0000000   6.0000000   6.0000000   6.0000000   1.0000000   1.0000000   1.0000000

  Atom        11          12          13          14          15          16          17          18          19          20
 IAtWgt=           1           1           1           1           1           1           1           1           1           1
 AtmWgt=   1.0078250   1.0078250   1.0078250   1.0078250   1.0078250   1.0078250   1.0078250   1.0078250   1.0078250   1.0078250
 NucSpn=           1           1           1           1           1           1           1           1           1           1
 AtZEff=  -0.0000000  -0.0000000  -0.0000000  -0.0000000  -0.0000000  -0.0000000  -0.0000000  -0.0000000  -0.0000000  -0.0000000
 NQMom=    0.0000000   0.0000000   0.0000000   0.0000000   0.0000000   0.0000000   0.0000000   0.0000000   0.0000000   0.0000000
 NMagM=    2.7928460   2.7928460   2.7928460   2.7928460   2.7928460   2.7928460   2.7928460   2.7928460   2.7928460   2.7928460
 AtZNuc=   1.0000000   1.0000000   1.0000000   1.0000000   1.0000000   1.0000000   1.0000000   1.0000000   1.0000000   1.0000000

  Atom        21          22          23
 IAtWgt=           1           1           1
 AtmWgt=   1.0078250   1.0078250   1.0078250
 NucSpn=           1           1           1
 AtZEff=  -0.0000000  -0.0000000  -0.0000000
 NQMom=    0.0000000   0.0000000   0.0000000
 NMagM=    2.7928460   2.7928460   2.7928460
 AtZNuc=   1.0000000   1.0000000   1.0000000
 Leave Link  101 at Sat Sep 28 01:52:38 2019, MaxMem=   671088640 cpu:               2.2 elap:               1.1
 (Enter /shared/centos7/gaussian/g16/l103.exe)

 GradGradGradGradGradGradGradGradGradGradGradGradGradGradGradGradGradGrad
 Berny optimization.
 Initialization pass.
                           ----------------------------
                           !    Initial Parameters    !
                           ! (Angstroms and Degrees)  !
 --------------------------                            --------------------------
 ! Name  Definition              Value          Derivative Info.                !
 --------------------------------------------------------------------------------
 ! R1    R(1,2)                  1.4906         calculate D2E/DX2 analytically  !
 ! R2    R(1,4)                  1.4917         calculate D2E/DX2 analytically  !
 ! R3    R(1,10)                 1.1107         calculate D2E/DX2 analytically  !
 ! R4    R(1,11)                 1.1093         calculate D2E/DX2 analytically  !
 ! R5    R(2,3)                  1.5083         calculate D2E/DX2 analytically  !
 ! R6    R(2,12)                 1.1012         calculate D2E/DX2 analytically  !
 ! R7    R(2,13)                 1.1105         calculate D2E/DX2 analytically  !
 ! R8    R(3,5)                  1.5105         calculate D2E/DX2 analytically  !
 ! R9    R(3,14)                 1.1032         calculate D2E/DX2 analytically  !
 ! R10   R(3,15)                 1.1096         calculate D2E/DX2 analytically  !
 ! R11   R(4,6)                  1.473          calculate D2E/DX2 analytically  !
 ! R12   R(4,8)                  1.1266         calculate D2E/DX2 analytically  !
 ! R13   R(4,9)                  1.1161         calculate D2E/DX2 analytically  !
 ! R14   R(5,7)                  1.5066         calculate D2E/DX2 analytically  !
 ! R15   R(5,16)                 1.1214         calculate D2E/DX2 analytically  !
 ! R16   R(5,17)                 1.1033         calculate D2E/DX2 analytically  !
 ! R17   R(6,18)                 1.1063         calculate D2E/DX2 analytically  !
 ! R18   R(6,19)                 1.1303         calculate D2E/DX2 analytically  !
 ! R19   R(6,20)                 1.1106         calculate D2E/DX2 analytically  !
 ! R20   R(7,21)                 1.0907         calculate D2E/DX2 analytically  !
 ! R21   R(7,22)                 1.1251         calculate D2E/DX2 analytically  !
 ! R22   R(7,23)                 1.1278         calculate D2E/DX2 analytically  !
 ! A1    A(2,1,4)              118.3431         calculate D2E/DX2 analytically  !
 ! A2    A(2,1,10)             108.0167         calculate D2E/DX2 analytically  !
 ! A3    A(2,1,11)             107.4553         calculate D2E/DX2 analytically  !
 ! A4    A(4,1,10)             108.8744         calculate D2E/DX2 analytically  !
 ! A5    A(4,1,11)             108.2917         calculate D2E/DX2 analytically  !
 ! A6    A(10,1,11)            105.0764         calculate D2E/DX2 analytically  !
 ! A7    A(1,2,3)              115.1624         calculate D2E/DX2 analytically  !
 ! A8    A(1,2,12)             110.8793         calculate D2E/DX2 analytically  !
 ! A9    A(1,2,13)             107.3445         calculate D2E/DX2 analytically  !
 ! A10   A(3,2,12)             108.3625         calculate D2E/DX2 analytically  !
 ! A11   A(3,2,13)             108.9878         calculate D2E/DX2 analytically  !
 ! A12   A(12,2,13)            105.6706         calculate D2E/DX2 analytically  !
 ! A13   A(2,3,5)              113.7707         calculate D2E/DX2 analytically  !
 ! A14   A(2,3,14)             108.1296         calculate D2E/DX2 analytically  !
 ! A15   A(2,3,15)             108.6743         calculate D2E/DX2 analytically  !
 ! A16   A(5,3,14)             110.3417         calculate D2E/DX2 analytically  !
 ! A17   A(5,3,15)             109.4302         calculate D2E/DX2 analytically  !
 ! A18   A(14,3,15)            106.2032         calculate D2E/DX2 analytically  !
 ! A19   A(1,4,6)              118.3374         calculate D2E/DX2 analytically  !
 ! A20   A(1,4,8)              108.2959         calculate D2E/DX2 analytically  !
 ! A21   A(1,4,9)              107.8883         calculate D2E/DX2 analytically  !
 ! A22   A(6,4,8)              108.8794         calculate D2E/DX2 analytically  !
 ! A23   A(6,4,9)              108.7658         calculate D2E/DX2 analytically  !
 ! A24   A(8,4,9)              103.6925         calculate D2E/DX2 analytically  !
 ! A25   A(3,5,7)              114.0295         calculate D2E/DX2 analytically  !
 ! A26   A(3,5,16)             109.1979         calculate D2E/DX2 analytically  !
 ! A27   A(3,5,17)             109.7087         calculate D2E/DX2 analytically  !
 ! A28   A(7,5,16)             108.2838         calculate D2E/DX2 analytically  !
 ! A29   A(7,5,17)             109.085          calculate D2E/DX2 analytically  !
 ! A30   A(16,5,17)            106.237          calculate D2E/DX2 analytically  !
 ! A31   A(4,6,18)             113.1638         calculate D2E/DX2 analytically  !
 ! A32   A(4,6,19)             111.079          calculate D2E/DX2 analytically  !
 ! A33   A(4,6,20)             111.208          calculate D2E/DX2 analytically  !
 ! A34   A(18,6,19)            107.2634         calculate D2E/DX2 analytically  !
 ! A35   A(18,6,20)            107.5678         calculate D2E/DX2 analytically  !
 ! A36   A(19,6,20)            106.2136         calculate D2E/DX2 analytically  !
 ! A37   A(5,7,21)             111.4079         calculate D2E/DX2 analytically  !
 ! A38   A(5,7,22)             110.7887         calculate D2E/DX2 analytically  !
 ! A39   A(5,7,23)             110.4987         calculate D2E/DX2 analytically  !
 ! A40   A(21,7,22)            108.2215         calculate D2E/DX2 analytically  !
 ! A41   A(21,7,23)            107.85           calculate D2E/DX2 analytically  !
 ! A42   A(22,7,23)            107.9465         calculate D2E/DX2 analytically  !
 ! D1    D(4,1,2,3)             65.0087         calculate D2E/DX2 analytically  !
 ! D2    D(4,1,2,12)           -58.4756         calculate D2E/DX2 analytically  !
 ! D3    D(4,1,2,13)          -173.4362         calculate D2E/DX2 analytically  !
 ! D4    D(10,1,2,3)           -59.182          calculate D2E/DX2 analytically  !
 ! D5    D(10,1,2,12)          177.3337         calculate D2E/DX2 analytically  !
 ! D6    D(10,1,2,13)           62.3731         calculate D2E/DX2 analytically  !
 ! D7    D(11,1,2,3)          -172.0737         calculate D2E/DX2 analytically  !
 ! D8    D(11,1,2,12)           64.4419         calculate D2E/DX2 analytically  !
 ! D9    D(11,1,2,13)          -50.5186         calculate D2E/DX2 analytically  !
 ! D10   D(2,1,4,6)              2.6338         calculate D2E/DX2 analytically  !
 ! D11   D(2,1,4,8)           -121.8043         calculate D2E/DX2 analytically  !
 ! D12   D(2,1,4,9)            126.5604         calculate D2E/DX2 analytically  !
 ! D13   D(10,1,4,6)           126.4            calculate D2E/DX2 analytically  !
 ! D14   D(10,1,4,8)             1.962          calculate D2E/DX2 analytically  !
 ! D15   D(10,1,4,9)          -109.6734         calculate D2E/DX2 analytically  !
 ! D16   D(11,1,4,6)          -119.8638         calculate D2E/DX2 analytically  !
 ! D17   D(11,1,4,8)           115.6982         calculate D2E/DX2 analytically  !
 ! D18   D(11,1,4,9)             4.0628         calculate D2E/DX2 analytically  !
 ! D19   D(1,2,3,5)             51.6904         calculate D2E/DX2 analytically  !
 ! D20   D(1,2,3,14)           -71.2587         calculate D2E/DX2 analytically  !
 ! D21   D(1,2,3,15)           173.8687         calculate D2E/DX2 analytically  !
 ! D22   D(12,2,3,5)           176.4978         calculate D2E/DX2 analytically  !
 ! D23   D(12,2,3,14)           53.5487         calculate D2E/DX2 analytically  !
 ! D24   D(12,2,3,15)          -61.3239         calculate D2E/DX2 analytically  !
 ! D25   D(13,2,3,5)           -68.9711         calculate D2E/DX2 analytically  !
 ! D26   D(13,2,3,14)          168.0798         calculate D2E/DX2 analytically  !
 ! D27   D(13,2,3,15)           53.2073         calculate D2E/DX2 analytically  !
 ! D28   D(2,3,5,7)           -114.0431         calculate D2E/DX2 analytically  !
 ! D29   D(2,3,5,16)             7.2193         calculate D2E/DX2 analytically  !
 ! D30   D(2,3,5,17)           123.2742         calculate D2E/DX2 analytically  !
 ! D31   D(14,3,5,7)             7.6867         calculate D2E/DX2 analytically  !
 ! D32   D(14,3,5,16)          128.9492         calculate D2E/DX2 analytically  !
 ! D33   D(14,3,5,17)         -114.9959         calculate D2E/DX2 analytically  !
 ! D34   D(15,3,5,7)           124.1968         calculate D2E/DX2 analytically  !
 ! D35   D(15,3,5,16)         -114.5407         calculate D2E/DX2 analytically  !
 ! D36   D(15,3,5,17)            1.5142         calculate D2E/DX2 analytically  !
 ! D37   D(1,4,6,18)             7.2177         calculate D2E/DX2 analytically  !
 ! D38   D(1,4,6,19)           127.938          calculate D2E/DX2 analytically  !
 ! D39   D(1,4,6,20)          -113.9921         calculate D2E/DX2 analytically  !
 ! D40   D(8,4,6,18)           131.368          calculate D2E/DX2 analytically  !
 ! D41   D(8,4,6,19)          -107.9116         calculate D2E/DX2 analytically  !
 ! D42   D(8,4,6,20)            10.1583         calculate D2E/DX2 analytically  !
 ! D43   D(9,4,6,18)          -116.2732         calculate D2E/DX2 analytically  !
 ! D44   D(9,4,6,19)             4.4472         calculate D2E/DX2 analytically  !
 ! D45   D(9,4,6,20)           122.5171         calculate D2E/DX2 analytically  !
 ! D46   D(3,5,7,21)            36.8056         calculate D2E/DX2 analytically  !
 ! D47   D(3,5,7,22)           -83.7313         calculate D2E/DX2 analytically  !
 ! D48   D(3,5,7,23)           156.6781         calculate D2E/DX2 analytically  !
 ! D49   D(16,5,7,21)          -84.9627         calculate D2E/DX2 analytically  !
 ! D50   D(16,5,7,22)          154.5004         calculate D2E/DX2 analytically  !
 ! D51   D(16,5,7,23)           34.9099         calculate D2E/DX2 analytically  !
 ! D52   D(17,5,7,21)          159.8283         calculate D2E/DX2 analytically  !
 ! D53   D(17,5,7,22)           39.2914         calculate D2E/DX2 analytically  !
 ! D54   D(17,5,7,23)          -80.2991         calculate D2E/DX2 analytically  !
 --------------------------------------------------------------------------------
 Trust Radius=3.00D-01 FncErr=1.00D-07 GrdErr=1.00D-06 EigMax=2.50D+02 EigMin=1.00D-04
 Number of steps in this run=    138 maximum allowed number of steps=    138.
 GradGradGradGradGradGradGradGradGradGradGradGradGradGradGradGradGradGrad

 Leave Link  103 at Sat Sep 28 01:52:39 2019, MaxMem=   671088640 cpu:               1.4 elap:               0.7
 (Enter /shared/centos7/gaussian/g16/l202.exe)
                          Input orientation:                          
 ---------------------------------------------------------------------
 Center     Atomic      Atomic             Coordinates (Angstroms)
 Number     Number       Type             X           Y           Z
 ---------------------------------------------------------------------
      1          6           0        1.359523   -1.102198    0.500634
      2          6           0        0.096559   -0.423453    0.908300
      3          6           0       -0.958393   -0.332863   -0.165875
      4          6           0        2.199598   -0.461736   -0.552508
      5          6           0       -1.271936   -1.655624   -0.824430
      6          6           0        1.769753    0.838494   -1.094933
      7          6           0       -0.884183   -1.724109   -2.278694
      8          1           0        2.316874   -1.190836   -1.403269
      9          1           0        3.235028   -0.357842   -0.148965
     10          1           0        1.106357   -2.134866    0.179573
     11          1           0        1.979315   -1.227199    1.412158
     12          1           0        0.299783    0.592468    1.281514
     13          1           0       -0.316084   -0.983950    1.773646
     14          1           0       -0.620095    0.399537   -0.918383
     15          1           0       -1.884103    0.086204    0.279758
     16          1           0       -0.736068   -2.475555   -0.278464
     17          1           0       -2.349202   -1.873333   -0.727676
     18          1           0        0.905838    1.270781   -0.555807
     19          1           0        2.607603    1.595672   -1.047759
     20          1           0        1.488269    0.753781   -2.165952
     21          1           0        0.046139   -1.187353   -2.468355
     22          1           0       -1.687075   -1.276654   -2.927545
     23          1           0       -0.736349   -2.795599   -2.597971
 ---------------------------------------------------------------------
                    Distance matrix (angstroms):
                    1          2          3          4          5
     1  C    0.000000
     2  C    1.490625   0.000000
     3  C    2.531570   1.508304   0.000000
     4  C    1.491652   2.560898   3.184180   0.000000
     5  C    2.997775   2.528513   1.510531   3.681150   0.000000
     6  C    2.545664   2.899143   3.110949   1.472952   3.942800
     7  C    3.625694   3.579174   2.530825   3.752734   1.506627
     8  H    2.132891   3.295759   3.604807   1.126559   3.664784
     9  H    2.119802   3.312416   4.193529   1.116134   4.738483
    10  H    1.110665   2.116522   2.762198   2.128493   2.625637
    11  H    1.109344   2.108234   3.452558   2.119994   3.969447
    12  H    2.145860   1.101220   2.129361   2.843287   3.458211
    13  H    2.107654   1.110520   2.144346   3.465885   2.848649
    14  H    2.861416   2.127834   1.103233   2.970913   2.158104
    15  H    3.461531   2.139588   1.109570   4.203513   2.151266
    16  H    2.623854   2.512528   2.157136   3.570533   1.121392
    17  H    3.982215   3.280292   2.150121   4.766013   1.103295
    18  H    2.636840   2.380960   2.489794   2.162276   3.657691
    19  H    3.351674   3.769399   4.148890   2.155149   5.066717
    20  H    3.251448   3.574040   3.341745   2.141651   3.901749
    21  H    3.247634   3.462352   2.653423   2.972268   2.158493
    22  H    4.589620   4.315439   3.008080   4.627216   2.176937
    23  H    4.106292   4.314481   3.468352   4.272074   2.175280
                    6          7          8          9         10
     6  C    0.000000
     7  C    3.874481   0.000000
     8  H    2.124286   3.361177   0.000000
     9  H    2.114971   4.834287   1.763566   0.000000
    10  H    3.302321   3.189678   2.204979   2.792309   0.000000
    11  H    3.255228   4.697758   2.835824   2.183964   1.762152
    12  H    2.805145   4.409465   3.802222   3.400738   3.050112
    13  H    3.987576   4.158369   4.131351   4.086421   2.426729
    14  H    2.436232   2.535756   3.374935   4.003448   3.257198
    15  H    3.975724   3.289795   4.702299   5.156208   3.726397
    16  H    4.234227   2.141852   3.498020   4.502342   1.928833
    17  H    4.945167   2.138739   4.763874   5.815088   3.582232
    18  H    1.106291   3.891257   2.961211   2.871072   3.489902
    19  H    1.130281   4.972797   2.824099   2.240024   4.204401
    20  H    1.110627   3.432372   2.247177   2.890521   3.740538
    21  H    2.993524   1.090678   2.508118   4.029475   3.005555
    22  H    4.447694   1.125104   4.285136   5.726414   4.265439
    23  H    4.663293   1.127778   3.650307   5.264230   3.398070
                   11         12         13         14         15
    11  H    0.000000
    12  H    2.479735   0.000000
    13  H    2.336386   1.762550   0.000000
    14  H    3.851574   2.392267   3.041953   0.000000
    15  H    4.234780   2.455438   2.415702   1.769586   0.000000
    16  H    3.433643   3.594341   2.571464   2.947728   2.862203
    17  H    4.871595   4.139341   3.343828   2.862188   2.251894
    18  H    3.356359   2.050160   3.464571   1.794157   3.144067
    19  H    3.796648   3.428988   4.812767   3.444635   4.920997
    20  H    4.119258   3.650143   4.668601   2.475301   4.219011
    21  H    4.335567   4.158559   4.262295   2.316140   3.591644
    22  H    5.681363   5.015715   4.905761   2.825738   3.490415
    23  H    5.090760   5.253853   4.750761   3.611568   4.231247
                   16         17         18         19         20
    16  H    0.000000
    17  H    1.779513   0.000000
    18  H    4.099733   4.528827   0.000000
    19  H    5.324175   6.058578   1.800993   0.000000
    20  H    4.351885   4.867910   1.788599   1.792218   0.000000
    21  H    2.658371   3.039440   3.230998   4.040349   2.437045
    22  H    3.059315   2.373576   4.340249   5.498010   3.845192
    23  H    2.341483   2.636261   4.837629   5.733099   4.211135
                   21         22         23
    21  H    0.000000
    22  H    1.795233   0.000000
    23  H    1.793193   1.822003   0.000000
 Stoichiometry    C7H16
 Framework group  C1[X(C7H16)]
 Deg. of freedom    63
 Full point group                 C1      NOp   1
 Largest Abelian subgroup         C1      NOp   1
 Largest concise Abelian subgroup C1      NOp   1
                         Standard orientation:                         
 ---------------------------------------------------------------------
 Center     Atomic      Atomic             Coordinates (Angstroms)
 Number     Number       Type             X           Y           Z
 ---------------------------------------------------------------------
      1          6           0       -0.993347    0.722398   -0.890325
      2          6           0       -0.308262    1.443750    0.219753
      3          6           0        0.859219    0.713382    0.835005
      4          6           0       -1.697834   -0.554469   -0.576744
      5          6           0        1.875693    0.231579   -0.173136
      6          6           0       -1.731719   -1.008514    0.824071
      7          6           0        1.974118   -1.268284   -0.276333
      8          1           0       -1.252144   -1.369911   -1.213573
      9          1           0       -2.745534   -0.469072   -0.951960
     10          1           0       -0.246090    0.533455   -1.690002
     11          1           0       -1.726381    1.423114   -1.340107
     12          1           0       -1.019833    1.697646    1.020933
     13          1           0        0.046149    2.415020   -0.185566
     14          1           0        0.464255   -0.136258    1.417447
     15          1           0        1.354103    1.386135    1.565510
     16          1           0        1.612531    0.637316   -1.184888
     17          1           0        2.869266    0.642081    0.074976
     18          1           0       -1.321594   -0.264540    1.532716
     19          1           0       -2.789042   -1.236752    1.151961
     20          1           0       -1.156362   -1.949356    0.955499
     21          1           0        0.996796   -1.739865   -0.166646
     22          1           0        2.654522   -1.679536    0.519771
     23          1           0        2.392154   -1.568521   -1.279821
 ---------------------------------------------------------------------
 Rotational constants (GHZ):           3.2491790           1.7730693           1.5062506
 Leave Link  202 at Sat Sep 28 01:52:41 2019, MaxMem=   671088640 cpu:               3.5 elap:               1.8
 (Enter /shared/centos7/gaussian/g16/l301.exe)
 Standard basis: CC-pVTZ (5D, 7F)
 Ernie: Thresh=  0.10000D-02 Tol=  0.10000D-05 Strict=F.
 Ernie:  21 primitive shells out of 310 were deleted.
 There are   485 symmetry adapted cartesian basis functions of A   symmetry.
 There are   434 symmetry adapted basis functions of A   symmetry.
   434 basis functions,   636 primitive gaussians,   485 cartesian basis functions
    29 alpha electrons       29 beta electrons
       nuclear repulsion energy       338.1054488251 Hartrees.
 IExCor= 4336 DFT=T Ex+Corr=M062X ExCW=0 ScaHFX=  0.540000
 ScaDFX=  1.000000  1.000000  1.000000  1.000000 ScalE2=  1.000000  1.000000
 IRadAn=      5 IRanWt=     -1 IRanGd=            0 ICorTp=0 IEmpDi=  4
 NAtoms=   23 NActive=   23 NUniq=   23 SFac= 1.00D+00 NAtFMM=   60 NAOKFM=F Big=F
 Integral buffers will be    131072 words long.
 Raffenetti 2 integral format.
 Two-electron integral symmetry is turned on.
 Leave Link  301 at Sat Sep 28 01:52:41 2019, MaxMem=   671088640 cpu:               1.4 elap:               0.7
 (Enter /shared/centos7/gaussian/g16/l302.exe)
 NPDir=0 NMtPBC=     1 NCelOv=     1 NCel=       1 NClECP=     1 NCelD=      1
         NCelK=      1 NCelE2=     1 NClLst=     1 CellRange=     0.0.
 One-electron integrals computed using PRISM.
 One-electron integral symmetry used in STVInt
 NBasis=   434 RedAO= T EigKep=  1.94D-04  NBF=   434
 NBsUse=   434 1.00D-06 EigRej= -1.00D+00 NBFU=   434
 Precomputing XC quadrature grid using
 IXCGrd= 4 IRadAn=           5 IRanWt=          -1 IRanGd=           0 AccXCQ= 0.00D+00.
 Generated NRdTot=       0 NPtTot=           0 NUsed=           0 NTot=          32
 NSgBfM=   485   485   485   485   485 MxSgAt=    23 MxSgA2=    23.
 Leave Link  302 at Sat Sep 28 01:53:51 2019, MaxMem=   671088640 cpu:             139.7 elap:              69.9
 (Enter /shared/centos7/gaussian/g16/l303.exe)
 DipDrv:  MaxL=1.
 Leave Link  303 at Sat Sep 28 01:53:55 2019, MaxMem=   671088640 cpu:               7.6 elap:               3.8
 (Enter /shared/centos7/gaussian/g16/l401.exe)
 ExpMin= 1.03D-01 ExpMax= 8.24D+03 ExpMxC= 2.81D+02 IAcc=3 IRadAn=         5 AccDes= 0.00D+00
 Harris functional with IExCor= 1009 and IRadAn=       5 diagonalized for initial guess.
 HarFok:  IExCor= 1009 AccDes= 0.00D+00 IRadAn=         5 IDoV= 1 UseB2=F ITyADJ=14
 ICtDFT=  3500011 ScaDFX=  1.000000  1.000000  1.000000  1.000000
 FoFCou: FMM=F IPFlag=           0 FMFlag=      100000 FMFlg1=           0
         NFxFlg=           0 DoJE=T BraDBF=F KetDBF=T FulRan=T
         wScrn=  0.000000 ICntrl=       500 IOpCl=  0 I1Cent=   200000004 NGrid=           0
         NMat0=    1 NMatS0=      1 NMatT0=    0 NMatD0=    1 NMtDS0=    0 NMtDT0=    0
 Petite list used in FoFCou.
 Harris En= -276.308499467496    
 JPrj=0 DoOrth=F DoCkMO=F.
 Leave Link  401 at Sat Sep 28 01:54:39 2019, MaxMem=   671088640 cpu:              86.9 elap:              43.5
 (Enter /shared/centos7/gaussian/g16/l502.exe)
 Integral symmetry usage will be decided dynamically.
 Closed shell SCF:
 Using DIIS extrapolation, IDIIS=  1040.
 NGot=   671088640 LenX=   670604095 LenY=   670368385
 Requested convergence on RMS density matrix=1.00D-08 within 900 cycles.
 Requested convergence on MAX density matrix=1.00D-06.
 Requested convergence on             energy=1.00D-06.
 No special actions if energy rises.
 Fock matrices will be formed incrementally for  20 cycles.
 Integral accuracy reduced to 1.0D-05 until final iterations.

 Cycle   1  Pass 0  IDiag  1:
 FoFJK:  IHMeth= 1 ICntrl=       0 DoSepK=F KAlg= 0 I1Cent=           0 FoldK=F
 IRaf= 960000000 NMat=       1 IRICut=       1 DoRegI=T DoRafI=F ISym2E= 0 IDoP0=0 IntGTp=1.
 FoFCou: FMM=F IPFlag=           0 FMFlag=      100000 FMFlg1=           0
         NFxFlg=           0 DoJE=F BraDBF=F KetDBF=F FulRan=T
         wScrn=  0.000000 ICntrl=         0 IOpCl=  0 I1Cent=           0 NGrid=           0
         NMat0=    1 NMatS0=      1 NMatT0=    0 NMatD0=    1 NMtDS0=    0 NMtDT0=    0
 Symmetry not used in FoFCou.
 E= -275.943270945233    
 DIIS: error= 2.58D-02 at cycle   1 NSaved=   1.
 NSaved= 1 IEnMin= 1 EnMin= -275.943270945233     IErMin= 1 ErrMin= 2.58D-02
 ErrMax= 2.58D-02  0.00D+00 EMaxC= 1.00D-01 BMatC= 3.76D-01 BMatP= 3.76D-01
 IDIUse=3 WtCom= 7.42D-01 WtEn= 2.58D-01
 Coeff-Com:  0.100D+01
 Coeff-En:   0.100D+01
 Coeff:      0.100D+01
 Gap=     0.359 Goal=   None    Shift=    0.000
 GapD=    0.359 DampG=1.000 DampE=0.500 DampFc=0.5000 IDamp=-1.
 Damping current iteration by 5.00D-01
 RMSDP=1.94D-03 MaxDP=7.43D-02              OVMax= 1.61D-01

 Cycle   2  Pass 0  IDiag  1:
 RMSU=  9.69D-04    CP:  9.90D-01
 E= -276.117904484050     Delta-E=       -0.174633538817 Rises=F Damp=T
 DIIS: error= 4.17D-03 at cycle   2 NSaved=   2.
 NSaved= 2 IEnMin= 2 EnMin= -276.117904484050     IErMin= 2 ErrMin= 4.17D-03
 ErrMax= 4.17D-03  0.00D+00 EMaxC= 1.00D-01 BMatC= 2.01D-02 BMatP= 3.76D-01
 IDIUse=3 WtCom= 9.58D-01 WtEn= 4.17D-02
 Coeff-Com: -0.336D-01 0.103D+01
 Coeff-En:   0.000D+00 0.100D+01
 Coeff:     -0.322D-01 0.103D+01
 Gap=     0.438 Goal=   None    Shift=    0.000
 RMSDP=6.06D-04 MaxDP=2.44D-02 DE=-1.75D-01 OVMax= 9.12D-02

 Cycle   3  Pass 0  IDiag  1:
 RMSU=  5.97D-04    CP:  9.99D-01  9.16D-01
 E= -276.299168641046     Delta-E=       -0.181264156996 Rises=F Damp=F
 DIIS: error= 4.03D-03 at cycle   3 NSaved=   3.
 NSaved= 3 IEnMin= 3 EnMin= -276.299168641046     IErMin= 3 ErrMin= 4.03D-03
 ErrMax= 4.03D-03  0.00D+00 EMaxC= 1.00D-01 BMatC= 4.21D-03 BMatP= 2.01D-02
 IDIUse=3 WtCom= 9.60D-01 WtEn= 4.03D-02
 Coeff-Com: -0.541D-01 0.290D+00 0.764D+00
 Coeff-En:   0.000D+00 0.000D+00 0.100D+01
 Coeff:     -0.519D-01 0.278D+00 0.774D+00
 Gap=     0.404 Goal=   None    Shift=    0.000
 RMSDP=1.28D-04 MaxDP=3.98D-03 DE=-1.81D-01 OVMax= 1.26D-02

 Cycle   4  Pass 0  IDiag  1:
 RMSU=  9.74D-05    CP:  9.98D-01  9.63D-01  8.85D-01
 E= -276.302834067059     Delta-E=       -0.003665426013 Rises=F Damp=F
 DIIS: error= 8.88D-04 at cycle   4 NSaved=   4.
 NSaved= 4 IEnMin= 4 EnMin= -276.302834067059     IErMin= 4 ErrMin= 8.88D-04
 ErrMax= 8.88D-04  0.00D+00 EMaxC= 1.00D-01 BMatC= 3.32D-04 BMatP= 4.21D-03
 IDIUse=3 WtCom= 9.91D-01 WtEn= 8.88D-03
 Coeff-Com: -0.136D-01 0.382D-01 0.254D+00 0.721D+00
 Coeff-En:   0.000D+00 0.000D+00 0.000D+00 0.100D+01
 Coeff:     -0.134D-01 0.378D-01 0.252D+00 0.724D+00
 Gap=     0.405 Goal=   None    Shift=    0.000
 RMSDP=3.58D-05 MaxDP=1.43D-03 DE=-3.67D-03 OVMax= 3.20D-03

 Cycle   5  Pass 0  IDiag  1:
 RMSU=  1.97D-05    CP:  9.98D-01  9.58D-01  9.22D-01  7.98D-01
 E= -276.303139964244     Delta-E=       -0.000305897186 Rises=F Damp=F
 DIIS: error= 1.94D-04 at cycle   5 NSaved=   5.
 NSaved= 5 IEnMin= 5 EnMin= -276.303139964244     IErMin= 5 ErrMin= 1.94D-04
 ErrMax= 1.94D-04  0.00D+00 EMaxC= 1.00D-01 BMatC= 1.87D-05 BMatP= 3.32D-04
 IDIUse=3 WtCom= 9.98D-01 WtEn= 1.94D-03
 Coeff-Com: -0.200D-02 0.165D-02 0.542D-01 0.259D+00 0.687D+00
 Coeff-En:   0.000D+00 0.000D+00 0.000D+00 0.000D+00 0.100D+01
 Coeff:     -0.199D-02 0.164D-02 0.541D-01 0.258D+00 0.688D+00
 Gap=     0.405 Goal=   None    Shift=    0.000
 RMSDP=7.04D-06 MaxDP=4.07D-04 DE=-3.06D-04 OVMax= 7.72D-04

 Initial convergence to 1.0D-05 achieved.  Increase integral accuracy.
 Cycle   6  Pass 1  IDiag  1:
 E= -276.303090162577     Delta-E=        0.000049801667 Rises=F Damp=F
 DIIS: error= 6.80D-05 at cycle   1 NSaved=   1.
 NSaved= 1 IEnMin= 1 EnMin= -276.303090162577     IErMin= 1 ErrMin= 6.80D-05
 ErrMax= 6.80D-05  0.00D+00 EMaxC= 1.00D-01 BMatC= 1.96D-06 BMatP= 1.96D-06
 IDIUse=1 WtCom= 1.00D+00 WtEn= 0.00D+00
 Coeff-Com:  0.100D+01
 Coeff:      0.100D+01
 Gap=     0.405 Goal=   None    Shift=    0.000
 RMSDP=7.04D-06 MaxDP=4.07D-04 DE= 4.98D-05 OVMax= 2.77D-04

 Cycle   7  Pass 1  IDiag  1:
 RMSU=  1.07D-05    CP:  1.00D+00
 E= -276.303090981648     Delta-E=       -0.000000819071 Rises=F Damp=F
 DIIS: error= 2.76D-05 at cycle   2 NSaved=   2.
 NSaved= 2 IEnMin= 2 EnMin= -276.303090981648     IErMin= 2 ErrMin= 2.76D-05
 ErrMax= 2.76D-05  0.00D+00 EMaxC= 1.00D-01 BMatC= 6.15D-07 BMatP= 1.96D-06
 IDIUse=1 WtCom= 1.00D+00 WtEn= 0.00D+00
 Coeff-Com:  0.324D+00 0.676D+00
 Coeff:      0.324D+00 0.676D+00
 Gap=     0.405 Goal=   None    Shift=    0.000
 RMSDP=1.59D-06 MaxDP=6.59D-05 DE=-8.19D-07 OVMax= 1.53D-04

 Cycle   8  Pass 1  IDiag  1:
 RMSU=  1.59D-06    CP:  1.00D+00  9.86D-01
 E= -276.303091521701     Delta-E=       -0.000000540053 Rises=F Damp=F
 DIIS: error= 9.05D-06 at cycle   3 NSaved=   3.
 NSaved= 3 IEnMin= 3 EnMin= -276.303091521701     IErMin= 3 ErrMin= 9.05D-06
 ErrMax= 9.05D-06  0.00D+00 EMaxC= 1.00D-01 BMatC= 6.72D-08 BMatP= 6.15D-07
 IDIUse=1 WtCom= 1.00D+00 WtEn= 0.00D+00
 Coeff-Com: -0.503D-02 0.238D+00 0.767D+00
 Coeff:     -0.503D-02 0.238D+00 0.767D+00
 Gap=     0.405 Goal=   None    Shift=    0.000
 RMSDP=4.57D-07 MaxDP=1.92D-05 DE=-5.40D-07 OVMax= 4.43D-05

 Cycle   9  Pass 1  IDiag  1:
 RMSU=  3.39D-07    CP:  1.00D+00  1.00D+00  8.47D-01
 E= -276.303091586269     Delta-E=       -0.000000064568 Rises=F Damp=F
 DIIS: error= 2.58D-06 at cycle   4 NSaved=   4.
 NSaved= 4 IEnMin= 4 EnMin= -276.303091586269     IErMin= 4 ErrMin= 2.58D-06
 ErrMax= 2.58D-06  0.00D+00 EMaxC= 1.00D-01 BMatC= 2.32D-09 BMatP= 6.72D-08
 IDIUse=1 WtCom= 1.00D+00 WtEn= 0.00D+00
 Coeff-Com: -0.109D-01 0.669D-01 0.277D+00 0.667D+00
 Coeff:     -0.109D-01 0.669D-01 0.277D+00 0.667D+00
 Gap=     0.405 Goal=   None    Shift=    0.000
 RMSDP=9.48D-08 MaxDP=3.59D-06 DE=-6.46D-08 OVMax= 9.35D-06

 Cycle  10  Pass 1  IDiag  1:
 RMSU=  8.66D-08    CP:  1.00D+00  1.01D+00  8.40D-01  9.03D-01
 E= -276.303091588592     Delta-E=       -0.000000002322 Rises=F Damp=F
 DIIS: error= 4.98D-07 at cycle   5 NSaved=   5.
 NSaved= 5 IEnMin= 5 EnMin= -276.303091588592     IErMin= 5 ErrMin= 4.98D-07
 ErrMax= 4.98D-07  0.00D+00 EMaxC= 1.00D-01 BMatC= 8.27D-11 BMatP= 2.32D-09
 IDIUse=1 WtCom= 1.00D+00 WtEn= 0.00D+00
 Coeff-Com: -0.811D-03-0.126D-01-0.328D-01 0.781D-01 0.968D+00
 Coeff:     -0.811D-03-0.126D-01-0.328D-01 0.781D-01 0.968D+00
 Gap=     0.405 Goal=   None    Shift=    0.000
 RMSDP=3.70D-08 MaxDP=1.06D-06 DE=-2.32D-09 OVMax= 2.60D-06

 Cycle  11  Pass 1  IDiag  1:
 RMSU=  1.93D-08    CP:  1.00D+00  1.01D+00  8.43D-01  9.89D-01  1.11D+00
 E= -276.303091588674     Delta-E=       -0.000000000082 Rises=F Damp=F
 DIIS: error= 1.84D-07 at cycle   6 NSaved=   6.
 NSaved= 6 IEnMin= 6 EnMin= -276.303091588674     IErMin= 6 ErrMin= 1.84D-07
 ErrMax= 1.84D-07  0.00D+00 EMaxC= 1.00D-01 BMatC= 2.39D-11 BMatP= 8.27D-11
 IDIUse=1 WtCom= 1.00D+00 WtEn= 0.00D+00
 Coeff-Com:  0.384D-03-0.108D-01-0.356D-01-0.124D-01 0.449D+00 0.610D+00
 Coeff:      0.384D-03-0.108D-01-0.356D-01-0.124D-01 0.449D+00 0.610D+00
 Gap=     0.405 Goal=   None    Shift=    0.000
 RMSDP=7.73D-09 MaxDP=3.16D-07 DE=-8.23D-11 OVMax= 8.19D-07

 SCF Done:  E(RM062X) =  -276.303091589     A.U. after   11 cycles
            NFock= 11  Conv=0.77D-08     -V/T= 2.0064
 KE= 2.745389131483D+02 PE=-1.314654651452D+03 EE= 4.257071978903D+02
 Leave Link  502 at Sat Sep 28 02:10:44 2019, MaxMem=   671088640 cpu:            1930.0 elap:             965.2
 (Enter /shared/centos7/gaussian/g16/l801.exe)
 DoSCS=F DFT=T ScalE2(SS,OS)=  1.000000  1.000000
 Range of M.O.s used for correlation:     1   434
 NBasis=   434 NAE=    29 NBE=    29 NFC=     0 NFV=     0
 NROrb=    434 NOA=    29 NOB=    29 NVA=   405 NVB=   405

 **** Warning!!: The largest alpha MO coefficient is  0.13180044D+02

 Leave Link  801 at Sat Sep 28 02:10:44 2019, MaxMem=   671088640 cpu:               1.4 elap:               0.7
 (Enter /shared/centos7/gaussian/g16/l1101.exe)
 Using compressed storage, NAtomX=    23.
 Will process     24 centers per pass.
 Leave Link 1101 at Sat Sep 28 02:11:19 2019, MaxMem=   671088640 cpu:              69.6 elap:              34.8
 (Enter /shared/centos7/gaussian/g16/l1102.exe)
 Symmetrizing basis deriv contribution to polar:
 IMax=3 JMax=2 DiffMx= 0.00D+00
 Leave Link 1102 at Sat Sep 28 02:11:22 2019, MaxMem=   671088640 cpu:               4.8 elap:               2.4
 (Enter /shared/centos7/gaussian/g16/l1110.exe)
 Forming Gx(P) for the SCF density, NAtomX=    23.
 Integral derivatives from FoFJK, PRISM(SPDF).
 Do as many integral derivatives as possible in FoFJK.
 G2DrvN: MDV=     671086848.
 G2DrvN: will do    24 centers at a time, making    1 passes.
 Calling FoFCou, ICntrl=  3107 FMM=F I1Cent=   0 AccDes= 0.00D+00.
 FoFJK:  IHMeth= 1 ICntrl=    3107 DoSepK=F KAlg= 0 I1Cent=           0 FoldK=F
 IRaf=         0 NMat=       1 IRICut=       1 DoRegI=T DoRafI=F ISym2E= 0 IDoP0=0 IntGTp=1.
 FoFCou: FMM=F IPFlag=           0 FMFlag=      100000 FMFlg1=           0
         NFxFlg=           0 DoJE=F BraDBF=F KetDBF=F FulRan=T
         wScrn=  0.000000 ICntrl=      3107 IOpCl=  0 I1Cent=           0 NGrid=           0
         NMat0=    1 NMatS0=      1 NMatT0=    0 NMatD0=    1 NMtDS0=    0 NMtDT0=    0
 Symmetry not used in FoFCou.
 End of G2Drv F.D. properties file   721 does not exist.
 End of G2Drv F.D. properties file   722 does not exist.
 End of G2Drv F.D. properties file   788 does not exist.
 Leave Link 1110 at Sat Sep 28 02:54:54 2019, MaxMem=   671088640 cpu:            5224.2 elap:            2612.6
 (Enter /shared/centos7/gaussian/g16/l1002.exe)
 Minotr:  Closed shell wavefunction.
          IDoAtm=11111111111111111111111
          Direct CPHF calculation.
          Differentiating once with respect to nuclear coordinates.
          Requested convergence is 1.0D-08 RMS, and 1.0D-07 maximum.
          Secondary convergence is 1.0D-12 RMS, and 1.0D-12 maximum.
          NewPWx=T KeepS1=F KeepF1=F KeepIn=T MapXYZ=F SortEE=F KeepMc=T.
         6890 words used for storage of precomputed grid.
 Two-electron integrals replicated using symmetry.
          MDV=     671088640 using IRadAn=       1.
          Solving linear equations simultaneously, MaxMat=     380.
 FoF2E skips out because all densities are zero.
 CalDSu exits because no D1Ps are significant.
 FoFJK:  IHMeth= 1 ICntrl=       0 DoSepK=F KAlg= 0 I1Cent=           0 FoldK=F
 IRaf= 950000000 NMat=      69 IRICut=     172 DoRegI=T DoRafI=T ISym2E= 2 IDoP0=3 IntGTp=3.
 FoFCou: FMM=F IPFlag=           0 FMFlag=      100000 FMFlg1=           0
         NFxFlg=           0 DoJE=F BraDBF=F KetDBF=F FulRan=T
         wScrn=  0.000000 ICntrl=         0 IOpCl=  0 I1Cent=           0 NGrid=           0
         NMat0=   69 NMatS0=     69 NMatT0=    0 NMatD0=   69 NMtDS0=    0 NMtDT0=    0
 Integrals replicated using symmetry in FoFCou.
 Raff kept on since  92.08% of shell-pairs survive, threshold=   0.20 IRatSp=92.
          There are    72 degrees of freedom in the 1st order CPHF.  IDoFFX=6 NUNeed=     0.
     66 vectors produced by pass  0 Test12= 1.63D-14 1.39D-09 XBig12= 5.51D-02 4.18D-02.
 AX will form    66 AO Fock derivatives at one time.
     66 vectors produced by pass  1 Test12= 1.63D-14 1.39D-09 XBig12= 2.33D-03 6.47D-03.
     66 vectors produced by pass  2 Test12= 1.63D-14 1.39D-09 XBig12= 5.81D-05 1.16D-03.
     66 vectors produced by pass  3 Test12= 1.63D-14 1.39D-09 XBig12= 4.70D-07 7.60D-05.
     66 vectors produced by pass  4 Test12= 1.63D-14 1.39D-09 XBig12= 2.04D-09 5.22D-06.
     66 vectors produced by pass  5 Test12= 1.63D-14 1.39D-09 XBig12= 1.00D-11 2.90D-07.
     23 vectors produced by pass  6 Test12= 1.63D-14 1.39D-09 XBig12= 3.67D-14 1.58D-08.
 InvSVY:  IOpt=1 It=  1 EMax= 3.89D-16
 Solved reduced A of dimension   419 with    72 vectors.
 End of Minotr F.D. properties file   721 does not exist.
 End of Minotr F.D. properties file   722 does not exist.
 End of Minotr F.D. properties file   788 does not exist.
 Leave Link 1002 at Sat Sep 28 04:06:33 2019, MaxMem=   671088640 cpu:            8595.3 elap:            4298.5
 (Enter /shared/centos7/gaussian/g16/l601.exe)
 Copying SCF densities to generalized density rwf, IOpCl= 0 IROHF=0.

 **********************************************************************

            Population analysis using the SCF density.

 **********************************************************************

 Orbital symmetries:
       Occupied  (A) (A) (A) (A) (A) (A) (A) (A) (A) (A) (A) (A)
                 (A) (A) (A) (A) (A) (A) (A) (A) (A) (A) (A) (A)
                 (A) (A) (A) (A) (A)
       Virtual   (A) (A) (A) (A) (A) (A) (A) (A) (A) (A) (A) (A)
                 (A) (A) (A) (A) (A) (A) (A) (A) (A) (A) (A) (A)
                 (A) (A) (A) (A) (A) (A) (A) (A) (A) (A) (A) (A)
                 (A) (A) (A) (A) (A) (A) (A) (A) (A) (A) (A) (A)
                 (A) (A) (A) (A) (A) (A) (A) (A) (A) (A) (A) (A)
                 (A) (A) (A) (A) (A) (A) (A) (A) (A) (A) (A) (A)
                 (A) (A) (A) (A) (A) (A) (A) (A) (A) (A) (A) (A)
                 (A) (A) (A) (A) (A) (A) (A) (A) (A) (A) (A) (A)
                 (A) (A) (A) (A) (A) (A) (A) (A) (A) (A) (A) (A)
                 (A) (A) (A) (A) (A) (A) (A) (A) (A) (A) (A) (A)
                 (A) (A) (A) (A) (A) (A) (A) (A) (A) (A) (A) (A)
                 (A) (A) (A) (A) (A) (A) (A) (A) (A) (A) (A) (A)
                 (A) (A) (A) (A) (A) (A) (A) (A) (A) (A) (A) (A)
                 (A) (A) (A) (A) (A) (A) (A) (A) (A) (A) (A) (A)
                 (A) (A) (A) (A) (A) (A) (A) (A) (A) (A) (A) (A)
                 (A) (A) (A) (A) (A) (A) (A) (A) (A) (A) (A) (A)
                 (A) (A) (A) (A) (A) (A) (A) (A) (A) (A) (A) (A)
                 (A) (A) (A) (A) (A) (A) (A) (A) (A) (A) (A) (A)
                 (A) (A) (A) (A) (A) (A) (A) (A) (A) (A) (A) (A)
                 (A) (A) (A) (A) (A) (A) (A) (A) (A) (A) (A) (A)
                 (A) (A) (A) (A) (A) (A) (A) (A) (A) (A) (A) (A)
                 (A) (A) (A) (A) (A) (A) (A) (A) (A) (A) (A) (A)
                 (A) (A) (A) (A) (A) (A) (A) (A) (A) (A) (A) (A)
                 (A) (A) (A) (A) (A) (A) (A) (A) (A) (A) (A) (A)
                 (A) (A) (A) (A) (A) (A) (A) (A) (A) (A) (A) (A)
                 (A) (A) (A) (A) (A) (A) (A) (A) (A) (A) (A) (A)
                 (A) (A) (A) (A) (A) (A) (A) (A) (A) (A) (A) (A)
                 (A) (A) (A) (A) (A) (A) (A) (A) (A) (A) (A) (A)
                 (A) (A) (A) (A) (A) (A) (A) (A) (A) (A) (A) (A)
                 (A) (A) (A) (A) (A) (A) (A) (A) (A) (A) (A) (A)
                 (A) (A) (A) (A) (A) (A) (A) (A) (A) (A) (A) (A)
                 (A) (A) (A) (A) (A) (A) (A) (A) (A) (A) (A) (A)
                 (A) (A) (A) (A) (A) (A) (A) (A) (A) (A) (A) (A)
                 (A) (A) (A) (A) (A) (A) (A) (A) (A)
 The electronic state is 1-A.
 Alpha  occ. eigenvalues --  -10.52618 -10.52573 -10.52508 -10.52460 -10.52186
 Alpha  occ. eigenvalues --  -10.52175 -10.52137  -0.92572  -0.87710  -0.82618
 Alpha  occ. eigenvalues --   -0.77260  -0.70953  -0.65860  -0.61570  -0.55594
 Alpha  occ. eigenvalues --   -0.54308  -0.50694  -0.49862  -0.48134  -0.45943
 Alpha  occ. eigenvalues --   -0.44884  -0.42758  -0.42189  -0.40489  -0.39817
 Alpha  occ. eigenvalues --   -0.37816  -0.36156  -0.35546  -0.34706
 Alpha virt. eigenvalues --    0.05788   0.07786   0.08627   0.08861   0.10179
 Alpha virt. eigenvalues --    0.12149   0.13067   0.13927   0.14463   0.14603
 Alpha virt. eigenvalues --    0.15544   0.17070   0.18380   0.18992   0.20586
 Alpha virt. eigenvalues --    0.21455   0.22588   0.23795   0.25267   0.26550
 Alpha virt. eigenvalues --    0.27424   0.28756   0.29424   0.29792   0.31556
 Alpha virt. eigenvalues --    0.33039   0.34729   0.35180   0.37467   0.38156
 Alpha virt. eigenvalues --    0.39578   0.39996   0.40819   0.43523   0.44153
 Alpha virt. eigenvalues --    0.45252   0.46153   0.46545   0.47082   0.47694
 Alpha virt. eigenvalues --    0.48466   0.48967   0.49718   0.49962   0.51499
 Alpha virt. eigenvalues --    0.52224   0.52475   0.52924   0.53720   0.54075
 Alpha virt. eigenvalues --    0.54632   0.55324   0.55747   0.56440   0.57846
 Alpha virt. eigenvalues --    0.58441   0.58765   0.61461   0.62535   0.62929
 Alpha virt. eigenvalues --    0.65317   0.65864   0.70061   0.75589   0.77295
 Alpha virt. eigenvalues --    0.78212   0.80498   0.83275   0.83998   0.84986
 Alpha virt. eigenvalues --    0.85889   0.88895   0.89385   0.91144   0.94093
 Alpha virt. eigenvalues --    0.96314   0.97557   0.98772   0.99794   1.01032
 Alpha virt. eigenvalues --    1.01268   1.02212   1.03604   1.04316   1.05857
 Alpha virt. eigenvalues --    1.07368   1.07704   1.08252   1.08941   1.09568
 Alpha virt. eigenvalues --    1.11220   1.11935   1.13434   1.14143   1.14943
 Alpha virt. eigenvalues --    1.16763   1.17210   1.17619   1.18590   1.19553
 Alpha virt. eigenvalues --    1.20332   1.21613   1.22552   1.24000   1.25159
 Alpha virt. eigenvalues --    1.26471   1.27121   1.27888   1.28860   1.30004
 Alpha virt. eigenvalues --    1.30890   1.31302   1.32850   1.33867   1.33949
 Alpha virt. eigenvalues --    1.35281   1.36290   1.36975   1.38568   1.39397
 Alpha virt. eigenvalues --    1.41171   1.41887   1.43133   1.43597   1.44907
 Alpha virt. eigenvalues --    1.46886   1.47225   1.48143   1.50614   1.51097
 Alpha virt. eigenvalues --    1.52547   1.53524   1.54830   1.56995   1.57252
 Alpha virt. eigenvalues --    1.58512   1.59151   1.60802   1.61947   1.65215
 Alpha virt. eigenvalues --    1.65884   1.68917   1.71580   1.73694   1.75258
 Alpha virt. eigenvalues --    1.77220   1.78726   1.84692   1.89114   2.19348
 Alpha virt. eigenvalues --    2.25486   2.27409   2.29191   2.32382   2.34832
 Alpha virt. eigenvalues --    2.37107   2.38676   2.41248   2.41944   2.45471
 Alpha virt. eigenvalues --    2.47506   2.48892   2.51991   2.52509   2.53575
 Alpha virt. eigenvalues --    2.55732   2.57608   2.59745   2.61454   2.62451
 Alpha virt. eigenvalues --    2.63891   2.65776   2.66737   2.67190   2.67800
 Alpha virt. eigenvalues --    2.69789   2.70312   2.71580   2.73195   2.74585
 Alpha virt. eigenvalues --    2.75455   2.76104   2.77872   2.78733   2.80186
 Alpha virt. eigenvalues --    2.82309   2.83361   2.84735   2.85506   2.87621
 Alpha virt. eigenvalues --    2.88809   2.89522   2.90935   2.92043   2.93238
 Alpha virt. eigenvalues --    2.95699   2.95925   2.96511   2.98140   2.98851
 Alpha virt. eigenvalues --    2.99601   3.00916   3.03018   3.03730   3.04268
 Alpha virt. eigenvalues --    3.05605   3.06210   3.07407   3.08229   3.08613
 Alpha virt. eigenvalues --    3.10247   3.10502   3.11250   3.12144   3.13207
 Alpha virt. eigenvalues --    3.14803   3.16315   3.17127   3.17713   3.18671
 Alpha virt. eigenvalues --    3.19802   3.21670   3.22465   3.23210   3.25194
 Alpha virt. eigenvalues --    3.25799   3.27179   3.27799   3.28904   3.31091
 Alpha virt. eigenvalues --    3.32653   3.33277   3.34185   3.35309   3.36988
 Alpha virt. eigenvalues --    3.37130   3.38454   3.39716   3.41343   3.43502
 Alpha virt. eigenvalues --    3.44386   3.46359   3.47351   3.47756   3.49858
 Alpha virt. eigenvalues --    3.50355   3.51436   3.53697   3.54367   3.56096
 Alpha virt. eigenvalues --    3.56856   3.58793   3.59038   3.59786   3.61686
 Alpha virt. eigenvalues --    3.62963   3.64124   3.65403   3.66270   3.66997
 Alpha virt. eigenvalues --    3.68543   3.69731   3.71336   3.72680   3.74061
 Alpha virt. eigenvalues --    3.74461   3.76956   3.77798   3.78710   3.79653
 Alpha virt. eigenvalues --    3.80957   3.82409   3.83245   3.84224   3.85330
 Alpha virt. eigenvalues --    3.86071   3.88002   3.89516   3.89969   3.91909
 Alpha virt. eigenvalues --    3.92629   3.93704   3.94698   3.95719   3.97699
 Alpha virt. eigenvalues --    3.98697   3.99725   4.00742   4.01937   4.02849
 Alpha virt. eigenvalues --    4.03411   4.04934   4.05370   4.06384   4.07379
 Alpha virt. eigenvalues --    4.08091   4.09375   4.11232   4.11697   4.12285
 Alpha virt. eigenvalues --    4.13567   4.15096   4.16381   4.19061   4.19481
 Alpha virt. eigenvalues --    4.20476   4.20956   4.22836   4.23689   4.24902
 Alpha virt. eigenvalues --    4.25677   4.27082   4.30661   4.31383   4.32025
 Alpha virt. eigenvalues --    4.32865   4.35006   4.36412   4.36994   4.40121
 Alpha virt. eigenvalues --    4.40408   4.42022   4.43787   4.44503   4.46161
 Alpha virt. eigenvalues --    4.49320   4.50175   4.51864   4.52701   4.54816
 Alpha virt. eigenvalues --    4.56861   4.59043   4.61264   4.64259   4.67824
 Alpha virt. eigenvalues --    4.70758   4.72152   4.73292   4.76485   4.77536
 Alpha virt. eigenvalues --    4.78132   4.79262   4.81151   4.82152   4.83079
 Alpha virt. eigenvalues --    4.85582   4.87080   4.87596   4.89016   4.92010
 Alpha virt. eigenvalues --    4.94137   4.95458   4.98174   4.98460   5.00090
 Alpha virt. eigenvalues --    5.01350   5.03042   5.05244   5.06519   5.07297
 Alpha virt. eigenvalues --    5.10578   5.12313   5.14163   5.15344   5.19136
 Alpha virt. eigenvalues --    5.22581   5.23034   5.25095   5.25566   5.26897
 Alpha virt. eigenvalues --    5.27694   5.29935   5.30830   5.31215   5.32715
 Alpha virt. eigenvalues --    5.36675   5.37293   5.39214   5.44664   5.45868
 Alpha virt. eigenvalues --    5.46132   5.49980   5.52785   5.53450   5.57767
 Alpha virt. eigenvalues --    5.61533   5.63895   5.76084   5.79778   5.80336
 Alpha virt. eigenvalues --    5.82566   5.86081   5.90525   5.94367   5.96230
 Alpha virt. eigenvalues --    6.03615   6.04914   6.08779  11.25446  11.90115
 Alpha virt. eigenvalues --   12.44129  12.92782  13.23341  13.51972  13.96264
          Condensed to atoms (all electrons):
               1          2          3          4          5          6
     1  C    5.131024   0.296730  -0.050450   0.287756  -0.007861  -0.047091
     2  C    0.296730   5.100753   0.296980  -0.047162  -0.040363  -0.014973
     3  C   -0.050450   0.296980   5.208825   0.011111   0.264122  -0.010578
     4  C    0.287756  -0.047162   0.011111   5.117005  -0.002256   0.266608
     5  C   -0.007861  -0.040363   0.264122  -0.002256   5.113373   0.000042
     6  C   -0.047091  -0.014973  -0.010578   0.266608   0.000042   5.063461
     7  C    0.002688  -0.000235  -0.041163   0.000706   0.298740  -0.001295
     8  H   -0.054588   0.006231  -0.001120   0.421680   0.001041  -0.054882
     9  H   -0.046718   0.006638  -0.001113   0.421120   0.000003  -0.042418
    10  H    0.421872  -0.043116  -0.011470  -0.056831   0.001406   0.007081
    11  H    0.420265  -0.045156   0.008867  -0.046507   0.000065   0.005988
    12  H   -0.043294   0.424593  -0.055543  -0.002789   0.010638  -0.005117
    13  H   -0.047503   0.411499  -0.037256   0.007752  -0.006143   0.000669
    14  H    0.000126  -0.053105   0.429868  -0.001631  -0.058483  -0.006982
    15  H    0.008333  -0.039120   0.406715  -0.000438  -0.040110   0.000620
    16  H   -0.010401   0.000703  -0.063106   0.000470   0.418401  -0.000195
    17  H    0.000424   0.003851  -0.038140   0.000047   0.403495  -0.000031
    18  H   -0.010015   0.005852  -0.019277  -0.053521   0.001385   0.414257
    19  H    0.007141  -0.000726   0.001339  -0.040539  -0.000111   0.404201
    20  H    0.006442  -0.000602  -0.001129  -0.056976   0.000074   0.414699
    21  H    0.000050  -0.001588  -0.001316   0.001589  -0.054446  -0.001469
    22  H   -0.000260   0.000295  -0.002388   0.000071  -0.038001  -0.000083
    23  H    0.000218  -0.000540   0.009025  -0.000215  -0.041940   0.000132
               7          8          9         10         11         12
     1  C    0.002688  -0.054588  -0.046718   0.421872   0.420265  -0.043294
     2  C   -0.000235   0.006231   0.006638  -0.043116  -0.045156   0.424593
     3  C   -0.041163  -0.001120  -0.001113  -0.011470   0.008867  -0.055543
     4  C    0.000706   0.421680   0.421120  -0.056831  -0.046507  -0.002789
     5  C    0.298740   0.001041   0.000003   0.001406   0.000065   0.010638
     6  C   -0.001295  -0.054882  -0.042418   0.007081   0.005988  -0.005117
     7  C    4.973107  -0.001402   0.000119  -0.002064   0.000107  -0.000656
     8  H   -0.001402   0.613678  -0.035447  -0.019658   0.007692  -0.000360
     9  H    0.000119  -0.035447   0.599895   0.007038  -0.022370   0.000672
    10  H   -0.002064  -0.019658   0.007038   0.594551  -0.033333   0.008346
    11  H    0.000107   0.007692  -0.022370  -0.033333   0.590389  -0.006674
    12  H   -0.000656  -0.000360   0.000672   0.008346  -0.006674   0.579040
    13  H    0.000173  -0.000416  -0.000504  -0.006511  -0.008573  -0.027476
    14  H   -0.008585  -0.000853  -0.000073  -0.000017  -0.000448  -0.007943
    15  H    0.006819   0.000043   0.000038  -0.000245  -0.000431  -0.005245
    16  H   -0.044697  -0.000050  -0.000055  -0.003307  -0.000301   0.000339
    17  H   -0.034401  -0.000037   0.000003   0.000543   0.000013  -0.000394
    18  H    0.000398   0.007519   0.004464   0.000081   0.000935  -0.003003
    19  H    0.000051   0.005940  -0.022300  -0.000598   0.000012  -0.000469
    20  H   -0.001283  -0.021529   0.007936   0.000248  -0.000711   0.000616
    21  H    0.403593  -0.001842   0.000340  -0.000390   0.000108  -0.000103
    22  H    0.405637   0.000123  -0.000007  -0.000027  -0.000001   0.000035
    23  H    0.405173  -0.000006  -0.000008   0.000636  -0.000026   0.000036
              13         14         15         16         17         18
     1  C   -0.047503   0.000126   0.008333  -0.010401   0.000424  -0.010015
     2  C    0.411499  -0.053105  -0.039120   0.000703   0.003851   0.005852
     3  C   -0.037256   0.429868   0.406715  -0.063106  -0.038140  -0.019277
     4  C    0.007752  -0.001631  -0.000438   0.000470   0.000047  -0.053521
     5  C   -0.006143  -0.058483  -0.040110   0.418401   0.403495   0.001385
     6  C    0.000669  -0.006982   0.000620  -0.000195  -0.000031   0.414257
     7  C    0.000173  -0.008585   0.006819  -0.044697  -0.034401   0.000398
     8  H   -0.000416  -0.000853   0.000043  -0.000050  -0.000037   0.007519
     9  H   -0.000504  -0.000073   0.000038  -0.000055   0.000003   0.004464
    10  H   -0.006511  -0.000017  -0.000245  -0.003307   0.000543   0.000081
    11  H   -0.008573  -0.000448  -0.000431  -0.000301   0.000013   0.000935
    12  H   -0.027476  -0.007943  -0.005245   0.000339  -0.000394  -0.003003
    13  H    0.571640   0.007662  -0.008885   0.001542   0.000647  -0.000347
    14  H    0.007662   0.574542  -0.031805   0.006988   0.004351  -0.013052
    15  H   -0.008885  -0.031805   0.580767   0.005008  -0.015796   0.001375
    16  H    0.001542   0.006988   0.005008   0.608423  -0.035722  -0.000151
    17  H    0.000647   0.004351  -0.015796  -0.035722   0.589010  -0.000083
    18  H   -0.000347  -0.013052   0.001375  -0.000151  -0.000083   0.614874
    19  H    0.000083   0.001707  -0.000045   0.000016   0.000003  -0.032556
    20  H   -0.000051  -0.000886   0.000137   0.000037  -0.000013  -0.041752
    21  H   -0.000100  -0.002305   0.000453  -0.001381   0.007892  -0.000400
    22  H   -0.000009   0.001917   0.000208   0.008708  -0.014520  -0.000016
    23  H    0.000058   0.000664  -0.000599  -0.012420   0.000432  -0.000023
              19         20         21         22         23
     1  C    0.007141   0.006442   0.000050  -0.000260   0.000218
     2  C   -0.000726  -0.000602  -0.001588   0.000295  -0.000540
     3  C    0.001339  -0.001129  -0.001316  -0.002388   0.009025
     4  C   -0.040539  -0.056976   0.001589   0.000071  -0.000215
     5  C   -0.000111   0.000074  -0.054446  -0.038001  -0.041940
     6  C    0.404201   0.414699  -0.001469  -0.000083   0.000132
     7  C    0.000051  -0.001283   0.403593   0.405637   0.405173
     8  H    0.005940  -0.021529  -0.001842   0.000123  -0.000006
     9  H   -0.022300   0.007936   0.000340  -0.000007  -0.000008
    10  H   -0.000598   0.000248  -0.000390  -0.000027   0.000636
    11  H    0.000012  -0.000711   0.000108  -0.000001  -0.000026
    12  H   -0.000469   0.000616  -0.000103   0.000035   0.000036
    13  H    0.000083  -0.000051  -0.000100  -0.000009   0.000058
    14  H    0.001707  -0.000886  -0.002305   0.001917   0.000664
    15  H   -0.000045   0.000137   0.000453   0.000208  -0.000599
    16  H    0.000016   0.000037  -0.001381   0.008708  -0.012420
    17  H    0.000003  -0.000013   0.007892  -0.014520   0.000432
    18  H   -0.032556  -0.041752  -0.000400  -0.000016  -0.000023
    19  H    0.592759  -0.028396   0.000242   0.000000  -0.000001
    20  H   -0.028396   0.592947   0.000285   0.000138   0.000062
    21  H    0.000242   0.000285   0.606175  -0.037492  -0.036662
    22  H    0.000000   0.000138  -0.037492   0.589327  -0.028135
    23  H   -0.000001   0.000062  -0.036662  -0.028135   0.596740
 Mulliken charges:
               1
     1  C   -0.264888
     2  C   -0.267440
     3  C   -0.302803
     4  C   -0.227050
     5  C   -0.223071
     6  C   -0.392646
     7  C   -0.361531
     8  H    0.128242
     9  H    0.122748
    10  H    0.135768
    11  H    0.130092
    12  H    0.134752
    13  H    0.142048
    14  H    0.158341
    15  H    0.132204
    16  H    0.121150
    17  H    0.128427
    18  H    0.123056
    19  H    0.112245
    20  H    0.129706
    21  H    0.118767
    22  H    0.114481
    23  H    0.107400
 Sum of Mulliken charges =  -0.00000
 Mulliken charges with hydrogens summed into heavy atoms:
               1
     1  C    0.000973
     2  C    0.009361
     3  C   -0.012258
     4  C    0.023940
     5  C    0.026507
     6  C   -0.027639
     7  C   -0.020883
 APT charges:
               1
     1  C   -0.689891
     2  C   -0.812121
     3  C   -0.614708
     4  C   -0.776260
     5  C   -0.705007
     6  C   -1.076974
     7  C   -1.121482
     8  H    0.290812
     9  H    0.508067
    10  H    0.273898
    11  H    0.471349
    12  H    0.366817
    13  H    0.422381
    14  H    0.254786
    15  H    0.451673
    16  H    0.249201
    17  H    0.492476
    18  H    0.170102
    19  H    0.527345
    20  H    0.284305
    21  H    0.153603
    22  H    0.461469
    23  H    0.418160
 Sum of APT charges =  -0.00000
 APT charges with hydrogens summed into heavy atoms:
               1
     1  C    0.055356
     2  C   -0.022923
     3  C    0.091751
     4  C    0.022619
     5  C    0.036670
     6  C   -0.095223
     7  C   -0.088250
 Electronic spatial extent (au):  <R**2>=            981.1780
 Charge=             -0.0000 electrons
 Dipole moment (field-independent basis, Debye):
    X=             -0.0429    Y=              0.1662    Z=             -0.0347  Tot=              0.1751
 Quadrupole moment (field-independent basis, Debye-Ang):
   XX=            -48.6113   YY=            -49.5924   ZZ=            -49.3612
   XY=             -0.0195   XZ=              0.2382   YZ=              0.2145
 Traceless Quadrupole moment (field-independent basis, Debye-Ang):
   XX=              0.5770   YY=             -0.4041   ZZ=             -0.1729
   XY=             -0.0195   XZ=              0.2382   YZ=              0.2145
 Octapole moment (field-independent basis, Debye-Ang**2):
  XXX=             -2.2074  YYY=              2.0214  ZZZ=             -1.0607  XYY=             -0.0530
  XXY=              1.6230  XXZ=              0.7886  XZZ=              1.5461  YZZ=              0.7505
  YYZ=              0.0303  XYZ=              0.2459
 Hexadecapole moment (field-independent basis, Debye-Ang**3):
 XXXX=           -752.9573 YYYY=           -392.9575 ZZZZ=           -240.2416 XXXY=              1.2595
 XXXZ=              7.5011 YYYX=              2.7374 YYYZ=             -1.0396 ZZZX=             -1.6535
 ZZZY=              3.4841 XXYY=           -196.0698 XXZZ=           -167.1672 YYZZ=           -104.4405
 XXYZ=             -0.3730 YYXZ=              2.2785 ZZXY=             -2.6692
 N-N= 3.381054488251D+02 E-N=-1.314654566567D+03  KE= 2.745389131483D+02
  Exact polarizability:   0.000   0.000   0.000   0.000   0.000   0.000
 Approx polarizability:  99.420  -0.224  97.216  -0.074  -0.057  97.945
 No NMR shielding tensors so no spin-rotation constants.
 Leave Link  601 at Sat Sep 28 04:07:03 2019, MaxMem=   671088640 cpu:              59.6 elap:              29.8
 (Enter /shared/centos7/gaussian/g16/l701.exe)
 SCFChk:  SCF convergence  7.73D-09 required  1.00D-08
 ... and contract with generalized density number  0.
 Compute integral second derivatives.
 Entering OneElI...
 Calculate overlap and kinetic energy integrals
    NBasis = 485  MinDer = 2  MaxDer = 2
 Requested accuracy = 0.1000D-12
 PrmmSu-InSpLW:  IPartL=    0 NPrtUS=   20 NPrtUL=    1 DoSpLW=F IThBeg=    0 IThEnd=   19 NThAct=   20.
 PrsmSu:  NPrtUS=  20 ThrOK=T IAlg=1 NPAlg=1 LenDen=           0 ISkipM=0 DoSpLW=F IThBeg=    0 IThEnd=   19.
 Prism:   IPart=     0 DynPar=F LinDyn=F Incr=           6.
 PRISM was handed    33193710 working-precision words and 13809 shell-pairs
 PRISM was handed    33193710 working-precision words and 13809 shell-pairs
 PRISM was handed    33193710 working-precision words and 13809 shell-pairs
 PRISM was handed    33193710 working-precision words and 13809 shell-pairs
 PRISM was handed    33193710 working-precision words and 13809 shell-pairs
 PRISM was handed    33193710 working-precision words and 13809 shell-pairs
 PRISM was handed    33193710 working-precision words and 13809 shell-pairs
 PRISM was handed    33193710 working-precision words and 13809 shell-pairs
 PRISM was handed    33193710 working-precision words and 13809 shell-pairs
 PRISM was handed    33193710 working-precision words and 13809 shell-pairs
 PRISM was handed    33193710 working-precision words and 13809 shell-pairs
 PRISM was handed    33193710 working-precision words and 13809 shell-pairs
 PRISM was handed    33193710 working-precision words and 13809 shell-pairs
 PRISM was handed    33193710 working-precision words and 13809 shell-pairs
 PRISM was handed    33193710 working-precision words and 13809 shell-pairs
 IPart=  0 NShTot=         728 NBatch=          79 AvBLen=         9.2
 PRISM was handed    33193710 working-precision words and 13809 shell-pairs
 IPart=  1 NShTot=         722 NBatch=          77 AvBLen=         9.4
 IPart= 11 NShTot=         681 NBatch=          56 AvBLen=        12.2
 PRISM was handed    33193710 working-precision words and 13809 shell-pairs
 PRISM was handed    33193710 working-precision words and 13809 shell-pairs
 IPart=  8 NShTot=         693 NBatch=          61 AvBLen=        11.4
 IPart= 10 NShTot=         682 NBatch=          56 AvBLen=        12.2
 PRISM was handed    33193710 working-precision words and 13809 shell-pairs
 PRISM was handed    33193710 working-precision words and 13809 shell-pairs
 IPart= 12 NShTot=         676 NBatch=          53 AvBLen=        12.8
 IPart=  5 NShTot=         709 NBatch=          72 AvBLen=         9.8
 IPart= 18 NShTot=         666 NBatch=          48 AvBLen=        13.9
 IPart=  3 NShTot=         715 NBatch=          74 AvBLen=         9.7
 IPart=  6 NShTot=         703 NBatch=          69 AvBLen=        10.2
 IPart=  7 NShTot=         697 NBatch=          63 AvBLen=        11.1
 IPart= 15 NShTot=         671 NBatch=          52 AvBLen=        12.9
 IPart= 13 NShTot=         674 NBatch=          52 AvBLen=        13.0
 IPart= 14 NShTot=         672 NBatch=          52 AvBLen=        12.9
 IPart=  4 NShTot=         712 NBatch=          73 AvBLen=         9.8
 IPart=  2 NShTot=         716 NBatch=          75 AvBLen=         9.5
 IPart=  9 NShTot=         688 NBatch=          60 AvBLen=        11.5
 IPart= 16 NShTot=         670 NBatch=          51 AvBLen=        13.1
 IPart= 19 NShTot=         666 NBatch=          48 AvBLen=        13.9
 IPart= 17 NShTot=         668 NBatch=          49 AvBLen=        13.6
 PrSmSu:  NxtVal=            121.
 Entering OneElI...
 Calculate potential energy integrals
    NBasis = 485  MinDer = 2  MaxDer = 2
 Requested accuracy = 0.1000D-12
 PrmmSu-InSpLW:  IPartL=    0 NPrtUS=   20 NPrtUL=    1 DoSpLW=F IThBeg=    0 IThEnd=   19 NThAct=   20.
 PrsmSu:  NPrtUS=  20 ThrOK=T IAlg=1 NPAlg=1 LenDen=           0 ISkipM=0 DoSpLW=F IThBeg=    0 IThEnd=   19.
 Prism:   IPart=     0 DynPar=F LinDyn=F Incr=         146.
 PRISM was handed    33254806 working-precision words and 12776 shell-pairs
 PRISM was handed    33254806 working-precision words and 12776 shell-pairs
 PRISM was handed    33254806 working-precision words and 12776 shell-pairs
 PRISM was handed    33254806 working-precision words and 12776 shell-pairs
 PRISM was handed    33254806 working-precision words and 12776 shell-pairs
 PRISM was handed    33254806 working-precision words and 12776 shell-pairs
 PRISM was handed    33254806 working-precision words and 12776 shell-pairs
 PRISM was handed    33254806 working-precision words and 12776 shell-pairs
 PRISM was handed    33254806 working-precision words and 12776 shell-pairs
 PRISM was handed    33254806 working-precision words and 12776 shell-pairs
 PRISM was handed    33254806 working-precision words and 12776 shell-pairs
 PRISM was handed    33254806 working-precision words and 12776 shell-pairs
 PRISM was handed    33254806 working-precision words and 12776 shell-pairs
 PRISM was handed    33254806 working-precision words and 12776 shell-pairs
 PRISM was handed    33254806 working-precision words and 12776 shell-pairs
 PRISM was handed    33254806 working-precision words and 12776 shell-pairs
 PRISM was handed    33254806 working-precision words and 12776 shell-pairs
 PRISM was handed    33254806 working-precision words and 12776 shell-pairs
 PRISM was handed    33254806 working-precision words and 12776 shell-pairs
 PRISM was handed    33254806 working-precision words and 12776 shell-pairs
 IPart= 19 NShTot=       14191 NBatch=         618 AvBLen=        23.0
 IPart= 13 NShTot=       14352 NBatch=         625 AvBLen=        23.0
 IPart= 17 NShTot=       14237 NBatch=         620 AvBLen=        23.0
 IPart= 11 NShTot=       14513 NBatch=         632 AvBLen=        23.0
 IPart= 10 NShTot=       14559 NBatch=         634 AvBLen=        23.0
 IPart=  0 NShTot=       15525 NBatch=         677 AvBLen=        22.9
 IPart=  2 NShTot=       15318 NBatch=         668 AvBLen=        22.9
 IPart= 16 NShTot=       14237 NBatch=         620 AvBLen=        23.0
 IPart=  4 NShTot=       15088 NBatch=         658 AvBLen=        22.9
 IPart=  9 NShTot=       14582 NBatch=         635 AvBLen=        23.0
 IPart=  1 NShTot=       15433 NBatch=         673 AvBLen=        22.9
 IPart=  7 NShTot=       14697 NBatch=         641 AvBLen=        22.9
 IPart=  8 NShTot=       14651 NBatch=         638 AvBLen=        23.0
 IPart=  5 NShTot=       15065 NBatch=         657 AvBLen=        22.9
 IPart= 18 NShTot=       14237 NBatch=         620 AvBLen=        23.0
 IPart= 12 NShTot=       14398 NBatch=         627 AvBLen=        23.0
 IPart=  3 NShTot=       15226 NBatch=         664 AvBLen=        22.9
 IPart= 14 NShTot=       14352 NBatch=         625 AvBLen=        23.0
 IPart=  6 NShTot=       14904 NBatch=         650 AvBLen=        22.9
 IPart= 15 NShTot=       14283 NBatch=         622 AvBLen=        23.0
 PrSmSu:  NxtVal=           2921.
 Polarizability after L701:
                1             2             3 
      1  0.000000D+00
      2  0.000000D+00  0.000000D+00
      3  0.000000D+00  0.000000D+00  0.000000D+00
 Dipole Derivatives after L701:
                 1             2             3             4             5 
      1  -0.545403D+00  0.688680D+00 -0.469580D+00 -0.533182D+00  0.989547D-01
      2   0.404096D+00 -0.412163D+00  0.611008D+00  0.146461D+00 -0.147819D+01
      3   0.146310D+00  0.434801D+00 -0.111211D+01  0.503438D+00 -0.121996D+00
                 6             7             8             9            10 
      1   0.489731D+00 -0.236770D+00 -0.216085D+00 -0.771349D+00 -0.132362D+01
      2  -0.257712D+00 -0.367168D+00 -0.590350D+00 -0.484329D+00  0.540507D-02
      3  -0.424996D+00 -0.231728D+00  0.120560D+00 -0.101700D+01 -0.285216D+00
                11            12            13            14            15 
      1  -0.430087D+00 -0.106795D+01 -0.131246D+01 -0.889971D+00  0.539220D+00
      2  -0.569081D+00 -0.707751D+00 -0.208812D+00 -0.190798D+00  0.249468D+00
      3  -0.616178D+00 -0.436074D+00 -0.207862D+00  0.224812D+00 -0.611766D+00
                16            17            18            19            20 
      1  -0.999987D+00 -0.398551D+00  0.118356D+01 -0.114591D+01  0.110550D+01
      2  -0.148817D-01 -0.119637D+01  0.570349D+00  0.786306D-01 -0.120185D+01
      3   0.392760D-01  0.102815D+00 -0.103457D+01  0.129799D-01 -0.167536D+00
                21            22            23            24            25 
      1   0.599801D-01 -0.383516D-01  0.293563D+00  0.199563D+00  0.112942D+01
      2  -0.366071D-01 -0.236763D+00  0.519121D+00  0.231901D+00  0.164288D+00
      3  -0.101668D+01 -0.215116D+00  0.290353D+00  0.391667D+00  0.320702D+00
                26            27            28            29            30 
      1  -0.103449D+00  0.300487D+00  0.122217D+00  0.225992D-01  0.343297D-01
      2   0.140062D+00  0.198893D-01  0.134350D+00  0.140557D+00 -0.111775D+00
      3  -0.692353D-01  0.254721D+00 -0.449956D+00  0.160132D+00  0.558921D+00
                31            32            33            34            35 
      1   0.624021D+00 -0.362964D+00  0.265148D+00  0.412057D+00 -0.612570D-01
      2  -0.343544D+00  0.476991D+00 -0.202018D+00 -0.407988D+00  0.240243D+00
      3   0.351057D+00 -0.286785D+00  0.313034D+00 -0.255877D+00  0.514167D-01
                36            37            38            39            40 
      1  -0.288212D+00  0.167122D+00  0.370324D-01  0.959950D-02  0.110900D+00
      2   0.448450D+00  0.300776D+00  0.905909D+00 -0.341334D+00  0.347121D-01
      3   0.448152D+00 -0.425136D-02 -0.737701D-01  0.194111D+00 -0.287089D+00
                41            42            43            44            45 
      1  -0.123349D+00  0.627206D-01  0.410833D+00  0.294903D+00  0.314267D+00
      2   0.252503D+00 -0.287728D-01  0.244594D+00  0.453804D+00  0.337423D+00
      3  -0.410323D+00  0.400955D+00  0.274979D+00  0.354524D+00  0.490381D+00
                46            47            48            49            50 
      1  -0.174819D-01  0.139362D+00 -0.522572D+00  0.108414D+01  0.377270D+00
      2  -0.899168D-01  0.204521D+00 -0.217266D+00  0.201087D+00  0.238786D+00
      3   0.149531D+00 -0.123196D+00  0.560565D+00  0.415769D-01  0.275358D-01
                51            52            53            54            55 
      1   0.299148D+00 -0.128259D+00 -0.248698D+00 -0.291762D+00  0.117529D+01
      2   0.807592D-01 -0.152455D-01  0.157453D+00 -0.244072D-01  0.456957D+00
      3   0.154506D+00  0.327035D+00  0.383500D+00  0.481111D+00 -0.402588D+00
                56            57            58            59            60 
      1   0.171983D+00 -0.229175D+00 -0.774849D-01  0.275658D+00 -0.345596D-01
      2   0.169939D+00 -0.127256D+00 -0.413741D+00  0.749973D+00 -0.220036D-01
      3  -0.877082D-01  0.236809D+00  0.161197D+00 -0.261633D+00  0.180427D+00
                61            62            63            64            65 
      1  -0.411868D-01 -0.132833D+00  0.303276D-01  0.767173D+00 -0.318967D+00
      2   0.522576D+00  0.393346D+00 -0.728007D-01 -0.397395D+00  0.336941D+00
      3   0.336098D-01  0.300297D-01  0.108649D+00  0.169173D+00 -0.715549D-01
                66            67            68            69 
      1   0.734482D+00  0.396936D+00 -0.219296D+00 -0.847398D+00
      2  -0.443561D+00 -0.198479D+00  0.258642D+00  0.528345D+00
      3   0.280292D+00 -0.191181D+00  0.109436D+00  0.598901D+00
 Hessian after L701:
                1             2             3             4             5 
      1  0.163658D+02
      2 -0.636713D+00  0.168165D+02
      3 -0.619580D+00  0.182802D+00  0.168728D+02
      4 -0.542568D+01  0.967786D+00  0.144560D+01  0.159476D+02
      5  0.991302D+00 -0.538502D+01  0.145744D+01 -0.538157D-01  0.167790D+02
      6  0.148089D+01  0.144785D+01 -0.417417D+01 -0.742594D+00 -0.573775D+00
      7  0.302759D+00  0.548540D-02  0.256863D+00 -0.367132D+01 -0.142648D+01
      8  0.909198D-02 -0.838427D-01  0.383302D-01 -0.137340D+01 -0.524090D+01
      9  0.264072D+00  0.351219D-01  0.808262D-01  0.129090D+01 -0.807800D+00
     10 -0.514105D+01  0.146996D+01 -0.437304D+00  0.427003D-01  0.186195D+00
     11  0.142748D+01 -0.329440D+01 -0.642879D+00  0.244917D+00  0.195739D+00
     12 -0.455510D+00 -0.692023D+00 -0.601758D+01  0.703970D-01  0.515620D-01
     13  0.197507D+00 -0.936963D-01  0.560073D-01  0.338293D+00 -0.139322D+00
     14 -0.143804D+00 -0.141188D+00 -0.100658D-01 -0.264845D+00 -0.989285D-01
     15  0.212943D+00 -0.269145D-01 -0.149634D+00 -0.124785D+00  0.634428D-01
     16 -0.831412D-01  0.685774D-01 -0.607388D-01 -0.369618D-01  0.153353D+00
     17  0.923609D-01  0.645435D-01 -0.190646D+00  0.218758D+00  0.520051D-01
     18 -0.591359D-01 -0.143540D+00  0.124451D+00  0.191018D-02 -0.124651D-01
     19  0.150172D+00 -0.190661D+00  0.309897D-01  0.110186D-01 -0.167183D+00
     20 -0.159809D+00 -0.176716D-01 -0.238052D-01 -0.147623D+00  0.489685D-01
     21  0.673450D-01 -0.390009D-01 -0.143867D+00 -0.167817D-01  0.273333D-01
     22  0.149190D+00 -0.147303D+00 -0.314461D-01 -0.351575D-01  0.309920D-01
     23 -0.109876D+00 -0.133119D+00  0.144060D-01  0.473084D-01  0.877907D-01
     24 -0.308740D-01 -0.242148D-01  0.180151D+00  0.249261D-01  0.702051D-01
     25  0.920810D-01 -0.128032D+00  0.300062D-01  0.872076D-01  0.848270D-01
     26 -0.128305D+00 -0.236440D-01 -0.433539D-02  0.708596D-01  0.663587D-02
     27  0.160742D-01 -0.110383D-01  0.115402D+00  0.616936D-01  0.380999D-01
     28 -0.348750D+01 -0.284910D+00 -0.128830D+01  0.152048D+00 -0.179949D-01
     29 -0.265910D+00 -0.460368D+01  0.258410D+00  0.172107D-02  0.364893D-01
     30 -0.151633D+01  0.328635D+00 -0.307072D+01 -0.101656D-01 -0.143749D+00
     31 -0.337192D+01 -0.100683D+01  0.708758D+00  0.368376D-01 -0.562034D-01
     32 -0.999564D+00 -0.338025D+01 -0.718560D+00 -0.508778D-01  0.141523D+00
     33  0.719998D+00 -0.735826D+00 -0.384397D+01 -0.976585D-01 -0.381091D-01
     34  0.151188D+00 -0.279689D-01 -0.667825D-01 -0.346787D+01 -0.438698D+00
     35 -0.205604D-01  0.817246D-01 -0.117302D+00 -0.557137D+00 -0.437486D+01
     36 -0.594520D-01 -0.572702D-01 -0.961488D-01 -0.128736D+01  0.469377D+00
     37  0.551273D-01 -0.719780D-01 -0.595515D-01 -0.415182D+01  0.649653D+00
     38 -0.987893D-01  0.121982D-01 -0.119445D+00  0.726502D+00 -0.230645D+01
     39 -0.721259D-01 -0.115105D+00  0.907875D-01 -0.278673D+00 -0.731130D+00
     40 -0.998555D-02 -0.460904D-02  0.211104D-01  0.111448D+00  0.177395D+00
     41 -0.258552D-01 -0.177815D-01 -0.274818D-01  0.129418D+00 -0.924722D-02
     42  0.519629D-01 -0.156242D-01  0.237899D-01 -0.107188D+00  0.164950D+00
     43  0.576315D-01  0.362601D-01  0.103469D+00 -0.244295D-01  0.523788D-01
     44  0.464838D-01 -0.360600D-01  0.388431D-01  0.468237D-01  0.121346D+00
     45  0.116959D+00  0.372455D-01  0.597777D-01 -0.748477D-01  0.636052D-01
     46 -0.480647D-01  0.620246D-02 -0.368907D-01  0.327085D-01 -0.351146D-01
     47  0.196356D-01 -0.270978D-02 -0.366558D-02 -0.281805D-01 -0.306100D-01
     48 -0.578129D-01 -0.615165D-03  0.199488D-01 -0.612538D-01  0.126703D-01
     49  0.436394D-01  0.388525D-02  0.852239D-02  0.110588D+00 -0.254050D-01
     50  0.768863D-02 -0.130391D-01 -0.435572D-03 -0.194953D-01 -0.290675D-01
[...]
 1979151,0.00027658,-0.00001945,-0.00003057,-0.00777648,-0.02099052,0.0
 1685059,-0.00127504,-0.00097734,0.00062196,-0.00006236,0.00153884,0.00
 221885,-0.00004597,0.00001459,-0.00001625,-0.00004318,0.00001726,-0.00
 006279,0.00006805,-0.00021051,-0.00003134,-0.00001119,-0.00001115,-0.0
 0019794,0.00035014,0.00034569,-0.00008065,0.00051086,0.00081948,0.0003
 6127,0.05533643,0.16902824,0.00036810,-0.00054082,0.00055010,0.0059334
 8,0.01333193,-0.01715351,0.05472613,0.12130799,-0.18262843,-0.00046707
 ,0.00023054,-0.00009459,-0.00398843,-0.01043662,0.00823875,0.00105121,
 0.00168520,-0.00003758,-0.00057597,-0.00219870,0.00085984,-0.00005845,
 -0.00020795,0.00012826,0.00002674,0.00003950,-0.00000479,-0.00022256,0
 .00020909,0.00027581,0.00008281,-0.00011382,0.00013879,0.00032701,-0.0
 0040229,0.00030506,-0.00400634,0.00013790,-0.00190486,-0.05774220,-0.1
 2926168,0.20321051,-0.00159427,0.00055226,-0.00532951,-0.02150028,0.01
 005706,0.01226081,-0.19854972,0.08624757,0.10008677,0.00010038,0.00037
 554,-0.00001396,0.00689067,-0.00705426,-0.00726203,-0.00011563,-0.0002
 6161,0.00002826,0.00004711,-0.00128999,-0.00040665,-0.00011208,-0.0001
 2548,0.00009443,-0.00006930,-0.00005083,-0.00003301,0.00047441,-0.0002
 0609,-0.00012720,-0.00149578,0.00045920,0.00044194,0.00030504,-0.00073
 897,0.00031718,0.00126699,0.00033914,0.00003761,-0.00733009,0.00334404
 ,0.00455129,0.21973139,0.00049603,0.00077418,0.00079529,0.00422793,-0.
 00232304,-0.00236584,0.08490624,-0.09494398,-0.05250499,0.00030547,-0.
 00026096,0.00012812,0.01859280,-0.01239973,-0.01453674,-0.00022994,-0.
 00023053,0.00015154,-0.00115234,-0.00357769,-0.00003810,0.00003110,0.0
 0007765,-0.00004753,0.00000450,0.00003696,-0.00003219,-0.00021074,0.00
 004551,0.00011661,0.00022555,0.00006093,-0.00010056,-0.00029490,0.0004
 8808,0.00025203,0.00000015,-0.00019194,-0.00031631,-0.01640868,0.00961
 623,0.00938177,-0.09045855,0.10305929,-0.00278769,0.00032105,-0.003190
 99,-0.02039765,0.00999270,0.01065207,0.10058021,-0.05360268,-0.1108820
 3,-0.00023884,0.00047043,-0.00004764,0.00841743,-0.00480799,-0.0069080
 4,0.00016080,0.00017534,-0.00024322,-0.00123819,-0.00288588,-0.0006044
 2,-0.00009261,-0.00018736,0.00010804,0.00000641,-0.00003277,0.00003101
 ,0.00008511,0.00012658,-0.00002701,-0.00100402,0.00050208,0.00029047,0
 .00074538,-0.00027669,0.00097827,0.00076717,0.00007522,0.00108222,0.01
 866699,-0.01060093,-0.01163034,-0.10345991,0.06140897,0.12044209,-0.00
 010656,-0.00061151,-0.00020079,0.00030369,-0.00073629,-0.00035197,0.00
 307487,-0.00967282,0.00592261,-0.00002377,-0.00011515,0.00007424,-0.08
 540778,0.07775393,-0.04961924,0.00001957,-0.00007664,0.00001044,0.0040
 6207,-0.00797398,0.00533550,0.00001632,0.00001895,-0.00002405,0.000012
 27,0.00006805,0.00001151,-0.00071622,-0.00009645,0.00035006,0.00009241
 ,0.00008802,0.00008280,0.00006550,0.00008562,0.00022923,0.00027163,0.0
 0006044,0.00014020,-0.00071036,-0.00207569,-0.00061274,0.00014347,-0.0
 0025082,-0.00009183,0.09085724,-0.00021558,0.00038144,-0.00055636,0.00
 166856,0.00083905,0.00200621,0.00713296,-0.02338441,0.01139945,0.00006
 968,0.00006199,0.00037943,0.07586755,-0.20265529,0.10199116,0.00005281
 ,-0.00017325,0.00000218,-0.00166659,0.00304509,-0.00204998,0.00000207,
 0.00002988,-0.00004245,0.00010584,0.00011559,-0.00008658,-0.00037129,0
 .00008390,0.00043870,-0.00018436,0.00006359,0.00005034,0.00047384,0.00
 052544,-0.00004048,-0.00031049,0.00039898,-0.00121736,-0.00022544,-0.0
 0337088,-0.00212900,-0.00067037,-0.00199552,-0.00040051,-0.08155697,0.
 22297334,-0.00023886,0.00016456,0.00045426,-0.00061869,-0.00127935,0.0
 0128188,0.00426590,-0.01079543,0.00528849,0.00006004,-0.00012199,-0.00
 022335,-0.04813474,0.10132672,-0.11064299,-0.00004135,-0.00010050,-0.0
 0006270,-0.01319122,0.02547444,-0.01907757,0.00003071,0.00001790,-0.00
 000068,-0.00005677,-0.00008178,0.00004434,0.00021172,0.00003654,-0.000
 23955,-0.00004212,-0.00001693,0.00000413,0.00007259,-0.00006836,-0.000
 00724,0.00045418,-0.00003952,-0.00010214,-0.00038162,-0.00150139,-0.00
 057363,-0.00002874,-0.00086385,-0.00060781,0.05508636,-0.10814427,0.12
 639420,0.00034470,-0.00003570,0.00027085,0.00005192,-0.00186836,-0.000
 28663,-0.00749474,0.00082305,0.00063896,0.00002590,-0.00002970,-0.0001
 4279,-0.31034848,-0.01447907,0.01774252,-0.00002129,-0.00000129,0.0000
 1819,-0.00805559,0.00011171,0.00152014,-0.00002310,0.00000907,0.000026
 84,-0.00004104,-0.00005274,0.00002619,0.00020911,-0.00011540,-0.000108
 40,-0.00001643,-0.00002797,-0.00007099,-0.00048121,0.00000265,-0.00038
 283,-0.00005763,0.00001667,0.00005882,-0.00029047,-0.00046656,-0.00063
 559,0.00194975,0.00016384,-0.00024916,-0.01277930,0.00010391,0.0006103
 3,0.33473324,0.00039867,-0.00021952,-0.00049898,-0.00061254,-0.0036778
 2,-0.00004876,-0.02743687,-0.00386487,-0.00089208,-0.00001986,0.000086
 02,0.00020518,-0.01339871,-0.04822156,0.00301633,-0.00001184,-0.000123
 70,-0.00002003,0.00178791,0.00002344,0.00010318,-0.00003608,-0.0000020
 0,0.00001837,0.00007343,0.00007708,-0.00000897,-0.00005548,0.00010561,
 0.00027239,-0.00006963,0.00005354,0.00001739,-0.00068927,0.00020017,-0
 .00087525,0.00016510,0.00019391,-0.00013014,-0.00092430,-0.00182457,-0
 .00044378,-0.00048840,0.00151435,-0.00013113,0.02591040,0.00126170,-0.
 00263754,0.01560489,0.05326534,0.00022584,-0.00033608,-0.00007465,-0.0
 0095901,-0.00216273,-0.00049216,-0.01314095,-0.00179008,-0.00097486,-0
 .00000555,-0.00001822,-0.00015305,0.01724485,0.00328584,-0.04686998,-0
 .00004294,-0.00007654,-0.00014656,0.03595525,0.00074018,-0.00543285,-0
 .00003744,0.00000058,0.00002248,-0.00002626,-0.00003079,0.00006949,0.0
 0008781,0.00006334,-0.00018837,-0.00001885,0.00005521,0.00006999,-0.00
 052841,-0.00012836,-0.00059203,0.00009349,0.00004205,0.00002844,-0.000
 43446,-0.00038846,-0.00025758,-0.00065679,-0.00019632,0.00084522,-0.01
 725210,-0.00124011,0.00145026,-0.02107922,0.00245589,0.05637884,0.0001
 9891,-0.00045274,-0.00021582,0.00025141,0.00037299,-0.00007267,-0.0008
 4982,-0.00064302,-0.00013833,-0.00870987,0.00636022,0.00320761,-0.0001
 2810,-0.00007298,0.00000834,-0.18488835,0.11536814,0.06972431,-0.00001
 055,-0.00000251,0.00001713,0.00054492,0.00121118,-0.00211410,0.0000820
 6,-0.00026159,-0.00001138,0.00001319,0.00000527,-0.00004217,0.00004258
 ,0.00003380,-0.00004555,0.00012229,0.00006763,-0.00009891,0.00001424,-
 0.00002825,-0.00011345,-0.00183979,-0.00176166,0.00049956,-0.00010124,
 -0.00006447,0.00014145,-0.00003136,-0.00001139,-0.00001593,0.00001047,
 -0.00002277,0.00000076,0.20308573,0.00073895,0.00035535,-0.00081298,-0
 .00016054,-0.00045717,0.00017157,-0.00017634,-0.00030908,0.00071482,0.
 01480869,-0.01248662,-0.00780356,0.00000021,-0.00002497,-0.00029131,0.
 11404547,-0.14256752,-0.05750989,0.00014360,-0.00001276,-0.00003763,0.
 00097502,-0.00161628,0.00354255,-0.00062262,0.00106242,0.00000486,-0.0
 0001286,0.00000865,0.00009454,-0.00020009,0.00021687,0.00012453,-0.000
 05559,-0.00000644,0.00041002,-0.00009083,0.00024680,-0.00006712,-0.001
 13831,-0.00007190,-0.00065160,0.00006975,0.00014205,-0.00022647,0.0000
 5790,0.00016125,0.00002106,0.00003429,0.00010695,0.00005580,-0.1266863
 2,0.15313684,0.00028550,-0.00071371,0.00071760,0.00047564,0.00060698,0
 .00046301,0.00053639,-0.00028497,0.00022546,-0.01969301,0.01516179,0.0
 0965792,-0.00006414,0.00005327,-0.00015937,0.06961674,-0.05847132,-0.0
 8154861,0.00010612,-0.00007363,0.00003218,-0.00184631,0.00399871,-0.00
 327806,0.00021634,-0.00085707,0.00134080,0.00004490,0.00002315,-0.0000
 7613,-0.00005580,-0.00026899,0.00004147,0.00003310,-0.00021348,-0.0005
 1658,-0.00015220,-0.00019290,-0.00008048,0.00015520,0.00029026,-0.0001
 2283,0.00015918,0.00013867,-0.00014100,0.00003896,0.00007101,0.0000097
 4,-0.00001590,0.00002310,0.00001656,-0.07504296,0.06062606,0.08733942,
 -0.00052947,0.00146735,-0.00178742,-0.00005247,0.00021216,-0.00032840,
 -0.00022960,0.00040134,-0.00053102,0.01024292,0.00890848,-0.00465605,-
 0.00002522,0.00002319,0.00014766,-0.19879029,-0.11707578,0.06702733,0.
 00009636,-0.00007096,-0.00000930,0.00095296,-0.00035561,0.00045794,0.0
 0026097,-0.00052482,0.00057844,-0.00004267,0.00009557,0.00000418,0.000
 31103,0.00051565,-0.00029286,0.00004428,-0.00001461,-0.00012960,0.0000
 8854,-0.00011936,0.00005924,-0.00004391,-0.00049629,0.00061532,-0.0001
 0545,-0.00017211,0.00019596,-0.00003786,-0.00009784,-0.00001232,-0.000
 03599,-0.00006600,-0.00000311,-0.01709063,-0.01363643,0.00658257,0.213
 85556,0.00349212,-0.00146879,0.00342787,0.00031042,-0.00008199,-0.0000
 7397,0.00015583,0.00014628,0.00009428,-0.01591521,-0.01286532,0.005699
 96,0.00002389,0.00004327,-0.00009992,-0.11605911,-0.13530858,0.0497142
 6,0.00013487,-0.00006626,-0.00005514,-0.00013025,0.00023530,-0.0008015
 0,0.00020359,0.00067137,-0.00001625,0.00022610,0.00037206,-0.00017495,
 -0.00099290,-0.00091871,0.00071563,-0.00005067,0.00008459,0.00016719,-
 0.00010308,0.00010685,0.00001544,-0.00002443,0.00007369,-0.00026701,-0
 .00001336,0.00002894,-0.00004933,0.00005125,0.00006513,0.00001475,-0.0
 0002577,0.00002697,0.00001363,0.01470765,0.01242097,-0.00633650,0.1261
 8690,0.14624119,-0.00316364,0.00197287,-0.00298265,-0.00045925,-0.0000
 2201,0.00019387,-0.00017690,0.00019021,-0.00001762,0.01895606,0.013322
 13,-0.00771330,0.00000889,0.00005364,-0.00010934,0.06614912,0.04964679
 ,-0.07626598,0.00018032,-0.00012022,-0.00007354,-0.00012293,-0.0004994
 5,0.00119624,0.00038995,-0.00076892,0.00017971,0.00000102,0.00020143,0
 .00013146,0.00092383,0.00120566,-0.00029158,-0.00000970,-0.00012340,0.
 00015639,0.00003922,-0.00000508,-0.00000285,0.00001410,-0.00009535,0.0
 0000103,0.00001601,-0.00007634,0.00011373,-0.00000536,-0.00003023,0.00
 003691,0.00001021,0.00000798,0.00005245,0.00860600,0.00702175,-0.00483
 196,-0.07172072,-0.05803127,0.08058924,0.00068801,0.00006158,0.0009913
 7,0.00006271,0.00024456,0.00031325,0.00005798,-0.00007490,0.00016591,-
 0.00470095,-0.00629375,-0.00884639,-0.00002595,-0.00000803,-0.00004392
 ,-0.08321567,-0.05032840,-0.07514841,-0.00004184,-0.00009208,0.0001031
 2,-0.00022401,-0.00036341,0.00018098,0.00007579,0.00180592,-0.00126675
 ,0.00036714,0.00039008,-0.00016921,-0.00010867,0.00002687,0.00014133,-
 0.00006255,-0.00008489,-0.00006016,-0.00003423,-0.00009522,-0.00010014
 ,-0.00027413,0.00034041,0.00024274,0.00009447,0.00005446,-0.00008529,0
 .00001254,0.00003168,-0.00001731,0.00002204,0.00001362,-0.00000542,0.0
 0923843,0.01200660,0.01870158,-0.00878204,-0.01201421,-0.01948212,0.08
 707739,0.00025839,0.00205080,-0.00003054,-0.00018043,-0.00020066,-0.00
 017386,-0.00017958,0.00043258,-0.00020926,0.00776297,0.01164706,0.0178
 8598,0.00011270,-0.00000051,0.00000963,-0.05009532,-0.11776102,-0.1064
 8299,-0.00029980,-0.00010459,-0.00003013,-0.00026547,0.00072531,-0.000
 84011,0.00161230,-0.00211860,0.00396170,0.00001554,-0.00009842,-0.0006
 9238,0.00018052,0.00016053,-0.00028911,0.00013356,0.00001359,0.0000603
 7,0.00004317,0.00004333,0.00005785,-0.00008954,-0.00026821,0.00009537,
 -0.00005128,-0.00013108,0.00013048,-0.00002592,-0.00004745,0.00003350,
 0.00001605,-0.00002401,-0.00002507,-0.00815871,-0.01036122,-0.01366087
 ,-0.00523007,-0.00987139,-0.01397404,0.05477989,0.12646456,0.00011731,
 -0.00139019,0.00105582,-0.00001251,-0.00006513,-0.00038846,-0.00010622
 ,0.00048603,-0.00032558,-0.00855483,-0.01222758,-0.01992637,0.00009975
 ,0.00009565,-0.00006930,-0.07428673,-0.10607194,-0.20383790,0.00029843
 ,-0.00030637,-0.00012236,0.00000375,0.00015856,0.00077343,-0.00196036,
 0.00388168,-0.00228994,0.00052965,0.00078923,-0.00008045,0.00001741,0.
 00005387,0.00048472,-0.00010394,0.00015417,0.00018993,0.00013389,0.000
 04979,0.00006573,0.00027045,-0.00033508,-0.00010600,-0.00007121,-0.000
 14208,0.00022364,-0.00001035,-0.00006344,0.00002383,-0.00003160,-0.000
 00770,0.00005856,-0.00426620,-0.00543590,-0.00905442,0.00378730,0.0059
 5511,0.00956719,0.08456063,0.11428172,0.22353158,-0.00028700,0.0009754
 0,0.00000020,0.00002824,0.00019630,0.00020966,0.00049710,-0.00045344,-
 0.00004006,0.00004617,-0.00009889,-0.00007498,-0.00802532,-0.00056656,
 0.00138766,-0.00013702,0.00007200,0.00038677,-0.30987894,-0.01157291,0
 .02824584,-0.00000674,0.00002738,0.00000173,-0.00005753,-0.00002019,-0
 .00005680,-0.00055877,-0.00032963,-0.00172828,-0.00006233,-0.00021316,
 -0.00027788,0.00014853,-0.00005272,0.00002541,-0.00000618,0.00002451,-
 0.00006140,0.00011081,0.00051644,0.00023877,0.00011764,0.00010509,-0.0
 0013007,0.00036672,-0.00011008,0.00020128,0.00140960,0.00009096,0.0016
 7383,0.00005972,-0.00001720,0.00000689,-0.00006358,-0.00007541,-0.0001
 0782,-0.00017991,-0.00053973,-0.00025427,0.33835455,0.00011291,0.00006
 292,0.00009512,-0.00011201,0.00014034,-0.00006353,0.00076694,0.0005400
 8,0.00020263,-0.00006386,0.00009963,-0.00012325,0.00210153,-0.00061142
 ,-0.00024146,-0.00011731,-0.00019694,-0.00038926,-0.01189379,-0.048296
 97,0.00114195,0.00004050,-0.00001696,0.00000947,0.00000611,-0.00008856
 ,0.00008435,0.00011280,0.00032558,0.00014322,0.00001150,-0.00002781,0.
 00005834,0.00006593,-0.00003160,0.00003327,0.00000184,-0.00003319,0.00
 004825,0.00011906,-0.00024296,0.00026720,-0.00009441,-0.00009018,0.000
 20286,-0.00059411,-0.00002142,-0.00000867,0.00023807,0.00088993,-0.000
 56338,0.00003578,0.00002140,0.00005242,0.00007258,0.00006800,0.0001323
 9,-0.00055563,-0.00054930,0.00010113,0.01316196,0.04718389,-0.00011819
 ,-0.00057963,-0.00066773,0.00020681,-0.00008229,-0.00016033,-0.0000178
 4,0.00108448,0.00154642,-0.00017057,-0.00004239,0.00016386,0.03418039,
 0.00110124,-0.00452826,0.00005679,-0.00000034,-0.00002599,0.02698421,0
 .00070465,-0.04846393,-0.00000021,-0.00001008,-0.00000923,0.00008221,0
 .00013939,-0.00002742,-0.00106219,0.00048942,-0.00118145,0.00005724,0.
 00017141,0.00023624,-0.00010680,0.00007685,0.00001874,-0.00000775,0.00
 001004,0.00007754,-0.00036770,-0.00033454,0.00035078,-0.00012788,0.000
 08047,0.00037302,-0.00064936,0.00034882,0.00161359,0.00165005,-0.00047
 640,-0.00680069,-0.00000930,0.00002555,0.00000792,0.00000648,0.0000810
 6,0.00000451,-0.00005870,-0.00014258,0.00018469,-0.03134731,-0.0013771
 1,0.05556241,0.00001923,0.00047598,0.00013512,-0.00021152,-0.00013470,
 0.00020061,0.00001207,0.00004217,-0.00053230,0.00007034,0.00012021,-0.
 00009164,0.00375026,-0.00768121,0.00604483,0.00001040,-0.00013836,-0.0
 0009106,-0.09173353,0.08169855,-0.05731534,0.00003337,-0.00001224,0.00
 001921,-0.00002277,-0.00009975,0.00005060,0.00011594,-0.00020445,-0.00
 007478,-0.00005781,-0.00012934,-0.00012931,0.00005488,-0.00003445,-0.0
 0005583,0.00007631,0.00001359,-0.00000132,-0.00019392,-0.00026184,-0.0
 0035463,-0.00011090,-0.00010828,0.00006297,0.00034301,0.00015323,0.002
 30284,0.00063088,-0.00056595,-0.00052834,-0.00001002,-0.00004785,-0.00
 005319,0.00002937,-0.00001474,0.00005061,-0.00007820,0.00019315,0.0000
 5567,-0.01275009,0.02516037,-0.01686335,0.09583482,0.00001410,-0.00006
 096,-0.00011691,-0.00008710,0.00012038,-0.00032374,-0.00046497,0.00122
 576,-0.00037040,-0.00000568,0.00000187,0.00002619,-0.00154602,0.001560
 73,-0.00183129,0.00002021,0.00000980,-0.00004953,0.08150033,-0.1979986
 1,0.10406998,0.00000522,-0.00000186,-0.00000506,0.00000728,0.00001545,
 -0.00000085,0.00001812,0.00000512,0.00008278,0.00002192,0.00000693,-0.
 00001207,0.00004127,-0.00000411,0.00005703,-0.00014421,-0.00012821,-0.
 00005619,-0.00000111,0.00028896,0.00018241,0.00013031,0.00021725,0.000
 04890,-0.00039153,0.00109285,-0.00100968,-0.00043041,0.00015744,0.0005
 4081,0.00000114,-0.00001239,0.00000518,0.00002019,0.00001188,0.0000066
 7,0.00009765,0.00004198,0.00009823,-0.00108058,0.00126307,-0.00195222,
 -0.08985688,0.21224668,0.00001759,0.00006354,0.00012675,-0.00022132,-0
 .00015285,0.00006798,0.00055706,0.00217818,0.00126229,0.00001157,0.000
 02150,-0.00007519,-0.01331263,0.02455759,-0.01965556,-0.00002816,-0.00
 000975,-0.00000560,-0.05671124,0.10270964,-0.11638504,-0.00000914,-0.0
 0001410,0.00001432,-0.00001181,-0.00002807,0.00002034,0.00009806,-0.00
 004222,-0.00015530,0.00002367,-0.00002025,-0.00000665,-0.00009741,-0.0
 0010763,0.00001705,0.00008097,-0.00012531,0.00030024,-0.00049611,-0.00
 105293,0.00040994,0.00000359,-0.00005008,0.00006551,0.00229507,-0.0011
 9374,-0.00610724,0.00009472,-0.00010058,0.00168984,-0.00001221,-0.0000
 2737,-0.00003479,0.00001750,-0.00000949,0.00001908,-0.00007134,0.00001
 033,0.00000254,0.00112212,-0.00340048,0.00123024,0.06028461,-0.1138692
 6,0.13049069,-0.00012717,0.00045338,0.00017880,-0.00010291,0.00038431,
 0.00032107,0.00090431,-0.00032429,0.00191849,0.00007683,-0.00005098,-0
 .00000386,0.00241451,0.00876563,0.00316559,0.00000318,0.00008662,0.000
 32992,-0.07650175,-0.07577389,-0.03366379,-0.00000736,0.00001342,0.000
 00333,-0.00003456,-0.00000827,-0.00004637,-0.00004594,-0.00034246,-0.0
 0020361,-0.00002250,-0.00010028,-0.00016408,0.00013391,-0.00004606,0.0
 0007539,0.00003814,-0.00000370,-0.00000217,-0.00007227,0.00005018,0.00
 000082,-0.00003658,0.00023765,-0.00005462,0.00017189,-0.00024173,-0.00
 051629,0.00025766,0.00035270,-0.00056299,-0.00000422,-0.00003550,-0.00
 003560,-0.00005283,-0.00007345,-0.00009691,0.00003165,0.00000760,-0.00
 021602,-0.00912568,-0.02857677,-0.01231704,0.00418789,0.01213075,0.006
 36483,0.07791379,0.00005117,0.00003182,0.00005129,0.00032653,-0.000126
 77,-0.00020576,-0.00020624,0.00052212,-0.00014096,0.00000654,-0.000019
 93,-0.00000299,0.00005179,-0.00038135,0.00109788,0.00001202,0.00003012
 ,0.00006148,-0.07516984,-0.24860823,-0.08883893,-0.00003377,0.00000777
 ,0.00000762,-0.00000526,0.00000323,-0.00002183,-0.00002195,-0.00007227
 ,-0.00003543,-0.00003882,0.00000760,-0.00002084,-0.00004786,-0.0000013
 8,-0.00005576,-0.00008360,0.00003091,-0.00009332,0.00023382,0.00064483
 ,-0.00021563,-0.00007128,0.00008322,-0.00025287,0.00008332,0.00054900,
 -0.00042022,0.00040876,-0.00000439,-0.00029720,0.00000260,0.00004680,0
 .00002283,-0.00004354,-0.00001545,-0.00001519,0.00005719,-0.00004330,-
 0.00005974,-0.00003954,-0.00038753,0.00068421,-0.00856720,-0.02005999,
 -0.00933667,0.08309514,0.26776319,0.00003591,0.00008309,-0.00002703,0.
 00018484,-0.00092134,-0.00007044,0.00298525,0.00088409,-0.00518056,0.0
 0001189,0.00010035,-0.00000847,-0.01162299,-0.02831129,-0.01109270,0.0
 0001479,-0.00009388,-0.00009405,-0.03322246,-0.08773219,-0.08617500,-0
 .00004091,-0.00001585,0.00002222,0.00002594,-0.00001931,0.00001579,-0.
 00006605,-0.00001590,-0.00001344,-0.00008737,0.00000484,-0.00000775,-0
 .00034664,0.00004564,-0.00021962,0.00003709,0.00002759,-0.00002119,0.0
 0006805,0.00023551,0.00004526,-0.00048017,-0.00118256,-0.00092281,-0.0
 0075918,0.00050721,0.00104327,0.00033528,0.00015154,0.00130065,-0.0000
 0619,0.00005072,-0.00000784,-0.00000912,0.00001615,0.00004701,-0.00004
 575,0.00002403,0.00003911,0.00057870,0.00359452,0.00049508,0.00688400,
 0.01447903,0.00670855,0.03552509,0.09808802,0.09412397\\0.00000049,0.0
 0000037,-0.00000072,0.00000092,-0.00000033,-0.00000017,0.00000057,-0.0
 0000061,0.00000104,0.00000011,-0.00000025,-0.00000137,0.00000013,0.000
 00009,0.00000089,-0.00000059,0.00000036,-0.00000053,-0.00000103,0.0000
 0032,0.00000094,0.00000007,-0.00000006,-0.00000191,0.00000082,-0.00000
 013,-0.00000130,0.00000020,-0.00000004,-0.00000086,0.00000113,-0.00000
 039,-0.00000126,0.00000112,-0.00000048,0.00000026,0.00000151,-0.000000
 57,0.00000036,-0.00000029,0.00000013,0.00000091,0.00000057,-0.00000021
 ,0.00000163,0.00000019,-0.00000017,0.00000043,-0.00000011,-0.00000006,
 0.00000165,-0.00000023,0.00000009,-0.00000005,-0.00000068,0.00000035,-
 0.00000108,-0.00000105,0.00000031,-0.00000068,-0.00000106,0.00000039,0
 .,-0.00000149,0.00000051,0.00000111,-0.00000133,0.00000039,0.00000070\
 \\@


 THERE'S A SUCKER BORN EVERY MINUTE

              -- PHINEAS TAYLOR (P.T.) BARNUM
 Job cpu time:       0 days  7 hours 56 minutes  2.9 seconds.
 Elapsed time:       0 days  3 hours 58 minutes  7.4 seconds.
 File lengths (MBytes):  RWF=   1488 Int=      0 D2E=      0 Chk=     32 Scr=     32
 Normal termination of Gaussian 16 at Sat Sep 28 20:07:06 2019.
