 Entering Gaussian System, Link 0=g16
 Input=med/species/CCCCCCC/conformers/CCCCCCC_801.com
 Output=med/species/CCCCCCC/conformers/CCCCCCC_801.log
 Initial command:
 /shared/centos7/gaussian/g16/l1.exe "/scratch/harms.n/gauss_scrdir/Gau-7740.inp" -scrdir="/scratch/harms.n/gauss_scrdir/"
 Entering Link 1 = /shared/centos7/gaussian/g16/l1.exe PID=      7741.
  
 Copyright (c) 1988,1990,1992,1993,1995,1998,2003,2009,2016,
            Gaussian, Inc.  All Rights Reserved.
  
 This is part of the Gaussian(R) 16 program.  It is based on
 the Gaussian(R) 09 system (copyright 2009, Gaussian, Inc.),
 the Gaussian(R) 03 system (copyright 2003, Gaussian, Inc.),
 the Gaussian(R) 98 system (copyright 1998, Gaussian, Inc.),
 the Gaussian(R) 94 system (copyright 1995, Gaussian, Inc.),
 the Gaussian 92(TM) system (copyright 1992, Gaussian, Inc.),
 the Gaussian 90(TM) system (copyright 1990, Gaussian, Inc.),
 the Gaussian 88(TM) system (copyright 1988, Gaussian, Inc.),
 the Gaussian 86(TM) system (copyright 1986, Carnegie Mellon
 University), and the Gaussian 82(TM) system (copyright 1983,
 Carnegie Mellon University). Gaussian is a federally registered
 trademark of Gaussian, Inc.
  
 This software contains proprietary and confidential information,
 including trade secrets, belonging to Gaussian, Inc.
  
 This software is provided under written license and may be
 used, copied, transmitted, or stored only in accord with that
 written license.
  
 The following legend is applicable only to US Government
 contracts under FAR:
  
                    RESTRICTED RIGHTS LEGEND
  
 Use, reproduction and disclosure by the US Government is
 subject to restrictions as set forth in subparagraphs (a)
 and (c) of the Commercial Computer Software - Restricted
 Rights clause in FAR 52.227-19.
  
 Gaussian, Inc.
 340 Quinnipiac St., Bldg. 40, Wallingford CT 06492
  
  
 ---------------------------------------------------------------
 Warning -- This program may not be used in any manner that
 competes with the business of Gaussian, Inc. or will provide
 assistance to any competitor of Gaussian, Inc.  The licensee
 of this program is prohibited from giving any competitor of
 Gaussian, Inc. access to this program.  By using this program,
 the user acknowledges that Gaussian, Inc. is engaged in the
 business of creating and licensing software in the field of
 computational chemistry and represents and warrants to the
 licensee that it is not a competitor of Gaussian, Inc. and that
 it will not use this program in any manner prohibited above.
 ---------------------------------------------------------------
  

 Cite this work as:
 Gaussian 16, Revision A.03,
 M. J. Frisch, G. W. Trucks, H. B. Schlegel, G. E. Scuseria, 
 M. A. Robb, J. R. Cheeseman, G. Scalmani, V. Barone, 
 G. A. Petersson, H. Nakatsuji, X. Li, M. Caricato, A. V. Marenich, 
 J. Bloino, B. G. Janesko, R. Gomperts, B. Mennucci, H. P. Hratchian, 
 J. V. Ortiz, A. F. Izmaylov, J. L. Sonnenberg, D. Williams-Young, 
 F. Ding, F. Lipparini, F. Egidi, J. Goings, B. Peng, A. Petrone, 
 T. Henderson, D. Ranasinghe, V. G. Zakrzewski, J. Gao, N. Rega, 
 G. Zheng, W. Liang, M. Hada, M. Ehara, K. Toyota, R. Fukuda, 
 J. Hasegawa, M. Ishida, T. Nakajima, Y. Honda, O. Kitao, H. Nakai, 
 T. Vreven, K. Throssell, J. A. Montgomery, Jr., J. E. Peralta, 
 F. Ogliaro, M. J. Bearpark, J. J. Heyd, E. N. Brothers, K. N. Kudin, 
 V. N. Staroverov, T. A. Keith, R. Kobayashi, J. Normand, 
 K. Raghavachari, A. P. Rendell, J. C. Burant, S. S. Iyengar, 
 J. Tomasi, M. Cossi, J. M. Millam, M. Klene, C. Adamo, R. Cammi, 
 J. W. Ochterski, R. L. Martin, K. Morokuma, O. Farkas, 
 J. B. Foresman, and D. J. Fox, Gaussian, Inc., Wallingford CT, 2016.
 
 ******************************************
 Gaussian 16:  EM64L-G16RevA.03 25-Dec-2016
                28-Sep-2019 
 ******************************************
 %nprocshared=20
 Will use up to   20 processors via shared memory.
 %mem=5GB
 ----------------------------------------------------------------------
 #p m062x/cc-pVTZ opt=(calcfc,maxcycles=900,Tight) freq IOP(7/33=1,2/16
 =3) scf=(maxcycle=900)
 ----------------------------------------------------------------------
 1/6=900,7=10,10=4,18=20,19=15,26=3,38=1/1,3;
 2/9=110,12=2,16=3,17=6,18=5,40=1/2;
 3/5=16,6=1,11=2,25=1,30=1,71=2,74=-55,140=1/1,2,3;
 4//1;
 5/5=2,7=900,38=5/2;
 8/6=4,10=90,11=11/1;
 11/6=1,8=1,9=11,15=111,16=1/1,2,10;
 10/6=1,13=1/2;
 6/7=2,8=2,9=2,10=2,28=1/1;
 7/10=1,18=20,25=1,33=1/1,2,3,16;
 1/6=900,7=10,10=4,18=20,19=15,26=3/3(2);
 2/9=110,16=3/2;
 99//99;
 2/9=110,16=3/2;
 3/5=16,6=1,11=2,25=1,30=1,71=1,74=-55/1,2,3;
 4/5=5,16=3,69=1/1;
 5/5=2,7=900,38=5/2;
 7/33=1/1,2,3,16;
 1/6=900,7=10,18=20,19=15,26=3/3(-5);
 2/9=110,16=3/2;
 6/7=2,8=2,9=2,10=2,19=2,28=1/1;
 99/9=1/99;
 Leave Link    1 at Sat Sep 28 00:09:58 2019, MaxMem=   671088640 cpu:               4.3 elap:               2.2
 (Enter /shared/centos7/gaussian/g16/l101.exe)
 ------------------------------
 Gaussian input prepared by ASE
 ------------------------------
 Symbolic Z-matrix:
 Charge =  0 Multiplicity = 1
 C                     1.50568  -1.04961   0.47183 
 C                     0.19074  -0.47434   0.87428 
 C                    -1.03864  -1.33112   0.70247 
 C                     2.23127  -0.30584  -0.59839 
 C                    -0.85777  -2.72212   0.14201 
 C                     3.44824  -0.98095  -1.08087 
 C                    -0.08965  -3.66468   1.03167 
 H                     2.50322   0.71459  -0.20611 
 H                     1.54469  -0.10674  -1.45555 
 H                     1.37994  -2.10877   0.1621 
 H                     2.16067  -1.08452   1.36649 
 H                     0.0204    0.4709    0.33558 
 H                     0.2467   -0.18148   1.94403 
 H                    -1.74906  -0.80749   0.04046 
 H                    -1.55849  -1.41382   1.67923 
 H                    -1.87607  -3.15539  -0.0393 
 H                    -0.37238  -2.66495  -0.84712 
 H                     3.67974  -1.88598  -0.48824 
 H                     3.3388   -1.31027  -2.15656 
 H                     4.33723  -0.31709  -1.03108 
 H                    -0.33599  -3.50789   2.08253 
 H                     1.01796  -3.51682   0.90057 
 H                    -0.32964  -4.73426   0.76653 
 
 ITRead=  0  0  0  0  0  0  0  0  0  0  0  0  0  0  0  0  0  0  0  0
 ITRead=  0  0  0
 MicOpt= -1 -1 -1 -1 -1 -1 -1 -1 -1 -1 -1 -1 -1 -1 -1 -1 -1 -1 -1 -1
 MicOpt= -1 -1 -1
 NAtoms=     23 NQM=       23 NQMF=       0 NMMI=      0 NMMIF=      0
                NMic=       0 NMicF=      0.
                    Isotopes and Nuclear Properties:
 (Nuclear quadrupole moments (NQMom) in fm**2, nuclear magnetic moments (NMagM)
  in nuclear magnetons)

  Atom         1           2           3           4           5           6           7           8           9          10
 IAtWgt=          12          12          12          12          12          12          12           1           1           1
 AtmWgt=  12.0000000  12.0000000  12.0000000  12.0000000  12.0000000  12.0000000  12.0000000   1.0078250   1.0078250   1.0078250
 NucSpn=           0           0           0           0           0           0           0           1           1           1
 AtZEff=  -0.0000000  -0.0000000  -0.0000000  -0.0000000  -0.0000000  -0.0000000  -0.0000000  -0.0000000  -0.0000000  -0.0000000
 NQMom=    0.0000000   0.0000000   0.0000000   0.0000000   0.0000000   0.0000000   0.0000000   0.0000000   0.0000000   0.0000000
 NMagM=    0.0000000   0.0000000   0.0000000   0.0000000   0.0000000   0.0000000   0.0000000   2.7928460   2.7928460   2.7928460
 AtZNuc=   6.0000000   6.0000000   6.0000000   6.0000000   6.0000000   6.0000000   6.0000000   1.0000000   1.0000000   1.0000000

  Atom        11          12          13          14          15          16          17          18          19          20
 IAtWgt=           1           1           1           1           1           1           1           1           1           1
 AtmWgt=   1.0078250   1.0078250   1.0078250   1.0078250   1.0078250   1.0078250   1.0078250   1.0078250   1.0078250   1.0078250
 NucSpn=           1           1           1           1           1           1           1           1           1           1
 AtZEff=  -0.0000000  -0.0000000  -0.0000000  -0.0000000  -0.0000000  -0.0000000  -0.0000000  -0.0000000  -0.0000000  -0.0000000
 NQMom=    0.0000000   0.0000000   0.0000000   0.0000000   0.0000000   0.0000000   0.0000000   0.0000000   0.0000000   0.0000000
 NMagM=    2.7928460   2.7928460   2.7928460   2.7928460   2.7928460   2.7928460   2.7928460   2.7928460   2.7928460   2.7928460
 AtZNuc=   1.0000000   1.0000000   1.0000000   1.0000000   1.0000000   1.0000000   1.0000000   1.0000000   1.0000000   1.0000000

  Atom        21          22          23
 IAtWgt=           1           1           1
 AtmWgt=   1.0078250   1.0078250   1.0078250
 NucSpn=           1           1           1
 AtZEff=  -0.0000000  -0.0000000  -0.0000000
 NQMom=    0.0000000   0.0000000   0.0000000
 NMagM=    2.7928460   2.7928460   2.7928460
 AtZNuc=   1.0000000   1.0000000   1.0000000
 Leave Link  101 at Sat Sep 28 00:10:00 2019, MaxMem=   671088640 cpu:               2.9 elap:               1.4
 (Enter /shared/centos7/gaussian/g16/l103.exe)

 GradGradGradGradGradGradGradGradGradGradGradGradGradGradGradGradGradGrad
 Berny optimization.
 Initialization pass.
                           ----------------------------
                           !    Initial Parameters    !
                           ! (Angstroms and Degrees)  !
 --------------------------                            --------------------------
 ! Name  Definition              Value          Derivative Info.                !
 --------------------------------------------------------------------------------
 ! R1    R(1,2)                  1.4906         calculate D2E/DX2 analytically  !
 ! R2    R(1,4)                  1.4917         calculate D2E/DX2 analytically  !
 ! R3    R(1,10)                 1.1107         calculate D2E/DX2 analytically  !
 ! R4    R(1,11)                 1.1093         calculate D2E/DX2 analytically  !
 ! R5    R(2,3)                  1.5083         calculate D2E/DX2 analytically  !
 ! R6    R(2,12)                 1.1012         calculate D2E/DX2 analytically  !
 ! R7    R(2,13)                 1.1105         calculate D2E/DX2 analytically  !
 ! R8    R(3,5)                  1.5105         calculate D2E/DX2 analytically  !
 ! R9    R(3,14)                 1.1032         calculate D2E/DX2 analytically  !
 ! R10   R(3,15)                 1.1096         calculate D2E/DX2 analytically  !
 ! R11   R(4,6)                  1.473          calculate D2E/DX2 analytically  !
 ! R12   R(4,8)                  1.1266         calculate D2E/DX2 analytically  !
 ! R13   R(4,9)                  1.1161         calculate D2E/DX2 analytically  !
 ! R14   R(5,7)                  1.5066         calculate D2E/DX2 analytically  !
 ! R15   R(5,16)                 1.1214         calculate D2E/DX2 analytically  !
 ! R16   R(5,17)                 1.1033         calculate D2E/DX2 analytically  !
 ! R17   R(6,18)                 1.1063         calculate D2E/DX2 analytically  !
 ! R18   R(6,19)                 1.1303         calculate D2E/DX2 analytically  !
 ! R19   R(6,20)                 1.1106         calculate D2E/DX2 analytically  !
 ! R20   R(7,21)                 1.0907         calculate D2E/DX2 analytically  !
 ! R21   R(7,22)                 1.1251         calculate D2E/DX2 analytically  !
 ! R22   R(7,23)                 1.1278         calculate D2E/DX2 analytically  !
 ! A1    A(2,1,4)              115.4917         calculate D2E/DX2 analytically  !
 ! A2    A(2,1,10)             110.0873         calculate D2E/DX2 analytically  !
 ! A3    A(2,1,11)             108.3758         calculate D2E/DX2 analytically  !
 ! A4    A(4,1,10)             109.2984         calculate D2E/DX2 analytically  !
 ! A5    A(4,1,11)             107.8852         calculate D2E/DX2 analytically  !
 ! A6    A(10,1,11)            105.1729         calculate D2E/DX2 analytically  !
 ! A7    A(1,2,3)              117.9718         calculate D2E/DX2 analytically  !
 ! A8    A(1,2,12)             109.6114         calculate D2E/DX2 analytically  !
 ! A9    A(1,2,13)             108.5057         calculate D2E/DX2 analytically  !
 ! A10   A(3,2,12)             107.8052         calculate D2E/DX2 analytically  !
 ! A11   A(3,2,13)             107.4935         calculate D2E/DX2 analytically  !
 ! A12   A(12,2,13)            104.6346         calculate D2E/DX2 analytically  !
 ! A13   A(2,3,5)              117.8889         calculate D2E/DX2 analytically  !
 ! A14   A(2,3,14)             108.881          calculate D2E/DX2 analytically  !
 ! A15   A(2,3,15)             108.9009         calculate D2E/DX2 analytically  !
 ! A16   A(5,3,14)             106.9499         calculate D2E/DX2 analytically  !
 ! A17   A(5,3,15)             108.3056         calculate D2E/DX2 analytically  !
 ! A18   A(14,3,15)            105.1843         calculate D2E/DX2 analytically  !
 ! A19   A(1,4,6)              114.1031         calculate D2E/DX2 analytically  !
 ! A20   A(1,4,8)              108.6173         calculate D2E/DX2 analytically  !
 ! A21   A(1,4,9)              109.9211         calculate D2E/DX2 analytically  !
 ! A22   A(6,4,8)              109.255          calculate D2E/DX2 analytically  !
 ! A23   A(6,4,9)              109.7817         calculate D2E/DX2 analytically  !
 ! A24   A(8,4,9)              104.7335         calculate D2E/DX2 analytically  !
 ! A25   A(3,5,7)              114.7121         calculate D2E/DX2 analytically  !
 ! A26   A(3,5,16)             107.8818         calculate D2E/DX2 analytically  !
 ! A27   A(3,5,17)             109.7309         calculate D2E/DX2 analytically  !
 ! A28   A(7,5,16)             108.4642         calculate D2E/DX2 analytically  !
 ! A29   A(7,5,17)             109.7257         calculate D2E/DX2 analytically  !
 ! A30   A(16,5,17)            105.9361         calculate D2E/DX2 analytically  !
 ! A31   A(4,6,18)             111.8618         calculate D2E/DX2 analytically  !
 ! A32   A(4,6,19)             111.425          calculate D2E/DX2 analytically  !
 ! A33   A(4,6,20)             111.881          calculate D2E/DX2 analytically  !
 ! A34   A(18,6,19)            106.9614         calculate D2E/DX2 analytically  !
 ! A35   A(18,6,20)            107.3066         calculate D2E/DX2 analytically  !
 ! A36   A(19,6,20)            107.1171         calculate D2E/DX2 analytically  !
 ! A37   A(5,7,21)             111.3372         calculate D2E/DX2 analytically  !
 ! A38   A(5,7,22)             110.5411         calculate D2E/DX2 analytically  !
 ! A39   A(5,7,23)             110.2434         calculate D2E/DX2 analytically  !
 ! A40   A(21,7,22)            108.4045         calculate D2E/DX2 analytically  !
 ! A41   A(21,7,23)            108.3484         calculate D2E/DX2 analytically  !
 ! A42   A(22,7,23)            107.8622         calculate D2E/DX2 analytically  !
 ! D1    D(4,1,2,3)            119.7947         calculate D2E/DX2 analytically  !
 ! D2    D(4,1,2,12)            -4.0386         calculate D2E/DX2 analytically  !
 ! D3    D(4,1,2,13)          -117.748          calculate D2E/DX2 analytically  !
 ! D4    D(10,1,2,3)            -4.5527         calculate D2E/DX2 analytically  !
 ! D5    D(10,1,2,12)         -128.386          calculate D2E/DX2 analytically  !
 ! D6    D(10,1,2,13)          117.9047         calculate D2E/DX2 analytically  !
 ! D7    D(11,1,2,3)          -119.0807         calculate D2E/DX2 analytically  !
 ! D8    D(11,1,2,12)          117.086          calculate D2E/DX2 analytically  !
 ! D9    D(11,1,2,13)            3.3766         calculate D2E/DX2 analytically  !
 ! D10   D(2,1,4,6)           -173.3464         calculate D2E/DX2 analytically  !
 ! D11   D(2,1,4,8)             64.5175         calculate D2E/DX2 analytically  !
 ! D12   D(2,1,4,9)            -49.5325         calculate D2E/DX2 analytically  !
 ! D13   D(10,1,4,6)           -48.589          calculate D2E/DX2 analytically  !
 ! D14   D(10,1,4,8)          -170.7251         calculate D2E/DX2 analytically  !
 ! D15   D(10,1,4,9)            75.2249         calculate D2E/DX2 analytically  !
 ! D16   D(11,1,4,6)            65.2644         calculate D2E/DX2 analytically  !
 ! D17   D(11,1,4,8)           -56.8717         calculate D2E/DX2 analytically  !
 ! D18   D(11,1,4,9)          -170.9217         calculate D2E/DX2 analytically  !
 ! D19   D(1,2,3,5)              0.4146         calculate D2E/DX2 analytically  !
 ! D20   D(1,2,3,14)          -121.5638         calculate D2E/DX2 analytically  !
 ! D21   D(1,2,3,15)           124.2504         calculate D2E/DX2 analytically  !
 ! D22   D(12,2,3,5)           125.1452         calculate D2E/DX2 analytically  !
 ! D23   D(12,2,3,14)            3.1668         calculate D2E/DX2 analytically  !
 ! D24   D(12,2,3,15)         -111.019          calculate D2E/DX2 analytically  !
 ! D25   D(13,2,3,5)          -122.5548         calculate D2E/DX2 analytically  !
 ! D26   D(13,2,3,14)          115.4668         calculate D2E/DX2 analytically  !
 ! D27   D(13,2,3,15)            1.281          calculate D2E/DX2 analytically  !
 ! D28   D(2,3,5,7)             66.2795         calculate D2E/DX2 analytically  !
 ! D29   D(2,3,5,16)          -172.7351         calculate D2E/DX2 analytically  !
 ! D30   D(2,3,5,17)           -57.7606         calculate D2E/DX2 analytically  !
 ! D31   D(14,3,5,7)          -170.7609         calculate D2E/DX2 analytically  !
 ! D32   D(14,3,5,16)          -49.7755         calculate D2E/DX2 analytically  !
 ! D33   D(14,3,5,17)           65.199          calculate D2E/DX2 analytically  !
 ! D34   D(15,3,5,7)           -57.8535         calculate D2E/DX2 analytically  !
 ! D35   D(15,3,5,16)           63.1318         calculate D2E/DX2 analytically  !
 ! D36   D(15,3,5,17)          178.1063         calculate D2E/DX2 analytically  !
 ! D37   D(1,4,6,18)            -5.9973         calculate D2E/DX2 analytically  !
 ! D38   D(1,4,6,19)           113.6795         calculate D2E/DX2 analytically  !
 ! D39   D(1,4,6,20)          -126.4321         calculate D2E/DX2 analytically  !
 ! D40   D(8,4,6,18)           115.7881         calculate D2E/DX2 analytically  !
 ! D41   D(8,4,6,19)          -124.5351         calculate D2E/DX2 analytically  !
 ! D42   D(8,4,6,20)            -4.6467         calculate D2E/DX2 analytically  !
 ! D43   D(9,4,6,18)          -129.8863         calculate D2E/DX2 analytically  !
 ! D44   D(9,4,6,19)           -10.2095         calculate D2E/DX2 analytically  !
 ! D45   D(9,4,6,20)           109.6789         calculate D2E/DX2 analytically  !
 ! D46   D(3,5,7,21)            37.7519         calculate D2E/DX2 analytically  !
 ! D47   D(3,5,7,22)           -82.8017         calculate D2E/DX2 analytically  !
 ! D48   D(3,5,7,23)           158.0348         calculate D2E/DX2 analytically  !
 ! D49   D(16,5,7,21)          -82.913          calculate D2E/DX2 analytically  !
 ! D50   D(16,5,7,22)          156.5334         calculate D2E/DX2 analytically  !
 ! D51   D(16,5,7,23)           37.3698         calculate D2E/DX2 analytically  !
 ! D52   D(17,5,7,21)          161.7948         calculate D2E/DX2 analytically  !
 ! D53   D(17,5,7,22)           41.2413         calculate D2E/DX2 analytically  !
 ! D54   D(17,5,7,23)          -77.9223         calculate D2E/DX2 analytically  !
 --------------------------------------------------------------------------------
 Trust Radius=3.00D-01 FncErr=1.00D-07 GrdErr=1.00D-06 EigMax=2.50D+02 EigMin=1.00D-04
 Number of steps in this run=    138 maximum allowed number of steps=    138.
 GradGradGradGradGradGradGradGradGradGradGradGradGradGradGradGradGradGrad

 Leave Link  103 at Sat Sep 28 00:10:01 2019, MaxMem=   671088640 cpu:               1.6 elap:               0.8
 (Enter /shared/centos7/gaussian/g16/l202.exe)
                          Input orientation:                          
 ---------------------------------------------------------------------
 Center     Atomic      Atomic             Coordinates (Angstroms)
 Number     Number       Type             X           Y           Z
 ---------------------------------------------------------------------
      1          6           0        1.505681   -1.049607    0.471829
      2          6           0        0.190742   -0.474339    0.874278
      3          6           0       -1.038644   -1.331119    0.702465
      4          6           0        2.231268   -0.305845   -0.598389
      5          6           0       -0.857774   -2.722119    0.142011
      6          6           0        3.448242   -0.980953   -1.080873
      7          6           0       -0.089653   -3.664681    1.031670
      8          1           0        2.503222    0.714595   -0.206114
      9          1           0        1.544694   -0.106740   -1.455551
     10          1           0        1.379940   -2.108774    0.162101
     11          1           0        2.160670   -1.084518    1.366488
     12          1           0        0.020403    0.470901    0.335584
     13          1           0        0.246697   -0.181482    1.944025
     14          1           0       -1.749057   -0.807492    0.040460
     15          1           0       -1.558486   -1.413819    1.679230
     16          1           0       -1.876067   -3.155390   -0.039300
     17          1           0       -0.372383   -2.664949   -0.847124
     18          1           0        3.679738   -1.885982   -0.488241
     19          1           0        3.338803   -1.310269   -2.156563
     20          1           0        4.337228   -0.317088   -1.031080
     21          1           0       -0.335988   -3.507887    2.082532
     22          1           0        1.017962   -3.516825    0.900566
     23          1           0       -0.329642   -4.734256    0.766531
 ---------------------------------------------------------------------
                    Distance matrix (angstroms):
                    1          2          3          4          5
     1  C    0.000000
     2  C    1.490625   0.000000
     3  C    2.570220   1.508304   0.000000
     4  C    1.491652   2.522080   3.665479   0.000000
     5  C    2.914102   2.586139   1.510531   3.991084   0.000000
     6  C    2.487798   3.832829   4.840977   1.472952   4.803007
     7  C    3.114020   3.206505   2.540565   4.396083   1.506627
     8  H    2.137078   2.815737   4.189902   1.126559   4.819594
     9  H    2.146000   2.719636   3.581867   1.116134   3.894132
    10  H    1.110665   2.143074   2.597362   2.133930   2.320335
    11  H    1.109344   2.120190   3.276789   2.114724   3.645831
    12  H    2.129920   1.101220   2.122136   2.522611   3.317233
    13  H    2.122744   1.110520   2.124909   3.227671   3.304837
    14  H    3.292115   2.137537   1.103233   4.062360   2.114354
    15  H    3.313546   2.142515   1.109570   4.558223   2.136747
    16  H    4.016441   3.506332   2.139967   5.030179   1.121392
    17  H    2.806437   2.842377   2.150403   3.522249   1.103295
    18  H    2.519480   4.002785   4.897834   2.146399   4.656753
    19  H    3.215078   4.449164   5.228434   2.159492   4.988789
    20  H    3.288310   4.566012   5.738767   2.149980   5.843660
    21  H    3.468321   3.307527   2.671447   4.902165   2.157618
    22  H    2.551244   3.153047   3.007687   3.745580   2.173786
    23  H    4.126972   4.292936   3.476799   5.294534   2.172014
                    6          7          8          9         10
     6  C    0.000000
     7  C    4.917513   0.000000
     8  H    2.129119   5.237668   0.000000
     9  H    2.127941   4.638567   1.776080   0.000000
    10  H    2.663614   2.310130   3.060842   2.579163   0.000000
    11  H    2.767335   3.439956   2.413965   3.049489   1.763289
    12  H    3.983003   4.195198   2.552883   2.421837   2.921157
    13  H    4.476500   3.616380   3.243140   3.639712   2.859012
    14  H    5.319718   3.449587   4.523209   3.684819   3.390981
    15  H    5.733487   2.764631   4.958038   4.600547   3.379200
    16  H    5.844769   2.144209   5.846605   4.796003   3.426011
    17  H    4.181825   2.146920   4.483449   3.254197   2.097260
    18  H    1.106291   4.436463   2.868237   2.942755   2.400344
    19  H    1.130281   5.240457   2.933006   2.271284   3.138623
    20  H    1.110627   5.921030   2.260203   2.832432   3.657783
    21  H    5.541924   1.090678   5.579280   5.255740   2.930867
    22  H    4.032742   1.125104   4.619053   4.178207   1.630634
    23  H    5.636718   1.127778   6.217808   5.464859   3.190793
                   11         12         13         14         15
    11  H    0.000000
    12  H    2.839513   0.000000
    13  H    2.193699   1.750399   0.000000
    14  H    4.137760   2.202811   2.828160   0.000000
    15  H    3.746781   2.801865   2.201695   1.757703   0.000000
    16  H    4.749737   4.109395   4.157384   2.352683   2.467240
    17  H    3.716745   3.374408   3.787002   2.476526   3.058534
    18  H    2.527831   4.429934   4.539494   5.560079   5.688573
    19  H    3.721673   4.516098   5.258336   5.564711   6.221533
    20  H    3.327866   4.596050   5.059850   6.199319   6.580885
    21  H    3.552286   4.360000   3.379893   3.668645   2.458104
    22  H    2.727449   4.149251   3.578850   3.966946   3.415704
    23  H    4.458944   5.234683   4.737765   4.238088   3.656280
                   16         17         18         19         20
    16  H    0.000000
    17  H    1.776001   0.000000
    18  H    5.716635   4.141892   0.000000
    19  H    5.923018   4.162053   1.797492   0.000000
    20  H    6.902509   5.265617   1.785608   1.802769   0.000000
    21  H    2.645425   3.048730   5.036418   6.025242   6.458694
    22  H    3.064211   2.390224   3.416648   4.427328   4.998710
    23  H    2.352363   2.624450   5.075652   5.807378   6.672515
                   21         22         23
    21  H    0.000000
    22  H    1.797305   0.000000
    23  H    1.798856   1.821027   0.000000
 Stoichiometry    C7H16
 Framework group  C1[X(C7H16)]
 Deg. of freedom    63
 Full point group                 C1      NOp   1
 Largest Abelian subgroup         C1      NOp   1
 Largest concise Abelian subgroup C1      NOp   1
                         Standard orientation:                         
 ---------------------------------------------------------------------
 Center     Atomic      Atomic             Coordinates (Angstroms)
 Number     Number       Type             X           Y           Z
 ---------------------------------------------------------------------
      1          6           0        0.712253   -0.186221   -0.506104
      2          6           0       -0.257378   -1.310687   -0.374358
      3          6           0       -1.600034   -1.017886    0.247351
      4          6           0        2.007138   -0.367670    0.211793
      5          6           0       -1.880435    0.399314    0.688513
      6          6           0        2.878153    0.819966    0.190752
      7          6           0       -1.964807    1.402802   -0.432120
      8          1           0        2.554604   -1.238094   -0.248400
      9          1           0        1.816780   -0.677856    1.266925
     10          1           0        0.240790    0.764424   -0.178122
     11          1           0        0.936921   -0.042517   -1.582913
     12          1           0        0.204921   -2.132683    0.194226
     13          1           0       -0.442365   -1.736617   -1.383129
     14          1           0       -1.731543   -1.662418    1.133019
     15          1           0       -2.398173   -1.327524   -0.458512
     16          1           0       -2.856181    0.401222    1.241176
     17          1           0       -1.118044    0.719838    1.418776
     18          1           0        2.466216    1.621631   -0.450747
     19          1           0        3.004573    1.257637    1.225159
     20          1           0        3.893980    0.581560   -0.189709
     21          1           0       -2.454591    0.978003   -1.309181
     22          1           0       -0.936542    1.747553   -0.731580
     23          1           0       -2.550685    2.308130   -0.101949
 ---------------------------------------------------------------------
 Rotational constants (GHZ):           3.9533912           1.3397234           1.1340470
 Leave Link  202 at Sat Sep 28 00:10:03 2019, MaxMem=   671088640 cpu:               3.6 elap:               1.8
 (Enter /shared/centos7/gaussian/g16/l301.exe)
 Standard basis: CC-pVTZ (5D, 7F)
 Ernie: Thresh=  0.10000D-02 Tol=  0.10000D-05 Strict=F.
 Ernie:  21 primitive shells out of 310 were deleted.
 There are   485 symmetry adapted cartesian basis functions of A   symmetry.
 There are   434 symmetry adapted basis functions of A   symmetry.
   434 basis functions,   636 primitive gaussians,   485 cartesian basis functions
    29 alpha electrons       29 beta electrons
       nuclear repulsion energy       327.6101497639 Hartrees.
 IExCor= 4336 DFT=T Ex+Corr=M062X ExCW=0 ScaHFX=  0.540000
 ScaDFX=  1.000000  1.000000  1.000000  1.000000 ScalE2=  1.000000  1.000000
 IRadAn=      5 IRanWt=     -1 IRanGd=            0 ICorTp=0 IEmpDi=  4
 NAtoms=   23 NActive=   23 NUniq=   23 SFac= 1.00D+00 NAtFMM=   60 NAOKFM=F Big=F
 Integral buffers will be    131072 words long.
 Raffenetti 2 integral format.
 Two-electron integral symmetry is turned on.
 Leave Link  301 at Sat Sep 28 00:10:03 2019, MaxMem=   671088640 cpu:               1.9 elap:               0.9
 (Enter /shared/centos7/gaussian/g16/l302.exe)
 NPDir=0 NMtPBC=     1 NCelOv=     1 NCel=       1 NClECP=     1 NCelD=      1
         NCelK=      1 NCelE2=     1 NClLst=     1 CellRange=     0.0.
 One-electron integrals computed using PRISM.
 One-electron integral symmetry used in STVInt
 NBasis=   434 RedAO= T EigKep=  1.87D-04  NBF=   434
 NBsUse=   434 1.00D-06 EigRej= -1.00D+00 NBFU=   434
 Precomputing XC quadrature grid using
 IXCGrd= 4 IRadAn=           5 IRanWt=          -1 IRanGd=           0 AccXCQ= 0.00D+00.
 Generated NRdTot=       0 NPtTot=           0 NUsed=           0 NTot=          32
 NSgBfM=   485   485   485   485   485 MxSgAt=    23 MxSgA2=    23.
 Leave Link  302 at Sat Sep 28 00:11:20 2019, MaxMem=   671088640 cpu:             153.8 elap:              76.9
 (Enter /shared/centos7/gaussian/g16/l303.exe)
 DipDrv:  MaxL=1.
 Leave Link  303 at Sat Sep 28 00:11:25 2019, MaxMem=   671088640 cpu:               9.5 elap:               4.8
 (Enter /shared/centos7/gaussian/g16/l401.exe)
 ExpMin= 1.03D-01 ExpMax= 8.24D+03 ExpMxC= 2.81D+02 IAcc=3 IRadAn=         5 AccDes= 0.00D+00
 Harris functional with IExCor= 1009 and IRadAn=       5 diagonalized for initial guess.
 HarFok:  IExCor= 1009 AccDes= 0.00D+00 IRadAn=         5 IDoV= 1 UseB2=F ITyADJ=14
 ICtDFT=  3500011 ScaDFX=  1.000000  1.000000  1.000000  1.000000
 FoFCou: FMM=F IPFlag=           0 FMFlag=      100000 FMFlg1=           0
         NFxFlg=           0 DoJE=T BraDBF=F KetDBF=T FulRan=T
         wScrn=  0.000000 ICntrl=       500 IOpCl=  0 I1Cent=   200000004 NGrid=           0
         NMat0=    1 NMatS0=      1 NMatT0=    0 NMatD0=    1 NMtDS0=    0 NMtDT0=    0
 Petite list used in FoFCou.
 Harris En= -276.312456791960    
 JPrj=0 DoOrth=F DoCkMO=F.
 Leave Link  401 at Sat Sep 28 00:12:18 2019, MaxMem=   671088640 cpu:             104.8 elap:              52.4
 (Enter /shared/centos7/gaussian/g16/l502.exe)
 Integral symmetry usage will be decided dynamically.
 Closed shell SCF:
 Using DIIS extrapolation, IDIIS=  1040.
 NGot=   671088640 LenX=   670604095 LenY=   670368385
 Requested convergence on RMS density matrix=1.00D-08 within 900 cycles.
 Requested convergence on MAX density matrix=1.00D-06.
 Requested convergence on             energy=1.00D-06.
 No special actions if energy rises.
 Fock matrices will be formed incrementally for  20 cycles.
 Integral accuracy reduced to 1.0D-05 until final iterations.

 Cycle   1  Pass 0  IDiag  1:
 FoFJK:  IHMeth= 1 ICntrl=       0 DoSepK=F KAlg= 0 I1Cent=           0 FoldK=F
 IRaf= 940000000 NMat=       1 IRICut=       1 DoRegI=T DoRafI=F ISym2E= 0 IDoP0=0 IntGTp=1.
 FoFCou: FMM=F IPFlag=           0 FMFlag=      100000 FMFlg1=           0
         NFxFlg=           0 DoJE=F BraDBF=F KetDBF=F FulRan=T
         wScrn=  0.000000 ICntrl=         0 IOpCl=  0 I1Cent=           0 NGrid=           0
         NMat0=    1 NMatS0=      1 NMatT0=    0 NMatD0=    1 NMtDS0=    0 NMtDT0=    0
 Symmetry not used in FoFCou.
 E= -275.943589081532    
 DIIS: error= 2.22D-02 at cycle   1 NSaved=   1.
 NSaved= 1 IEnMin= 1 EnMin= -275.943589081532     IErMin= 1 ErrMin= 2.22D-02
 ErrMax= 2.22D-02  0.00D+00 EMaxC= 1.00D-01 BMatC= 3.73D-01 BMatP= 3.73D-01
 IDIUse=3 WtCom= 7.78D-01 WtEn= 2.22D-01
 Coeff-Com:  0.100D+01
 Coeff-En:   0.100D+01
 Coeff:      0.100D+01
 Gap=     0.359 Goal=   None    Shift=    0.000
 GapD=    0.359 DampG=1.000 DampE=0.500 DampFc=0.5000 IDamp=-1.
 Damping current iteration by 5.00D-01
 RMSDP=1.96D-03 MaxDP=7.53D-02              OVMax= 1.65D-01

 Cycle   2  Pass 0  IDiag  1:
 RMSU=  9.76D-04    CP:  9.90D-01
 E= -276.121815737141     Delta-E=       -0.178226655609 Rises=F Damp=T
 DIIS: error= 3.76D-03 at cycle   2 NSaved=   2.
 NSaved= 2 IEnMin= 2 EnMin= -276.121815737141     IErMin= 2 ErrMin= 3.76D-03
 ErrMax= 3.76D-03  0.00D+00 EMaxC= 1.00D-01 BMatC= 1.86D-02 BMatP= 3.73D-01
 IDIUse=3 WtCom= 9.62D-01 WtEn= 3.76D-02
 Coeff-Com: -0.547D-01 0.105D+01
 Coeff-En:   0.000D+00 0.100D+01
 Coeff:     -0.527D-01 0.105D+01
 Gap=     0.447 Goal=   None    Shift=    0.000
 RMSDP=5.56D-04 MaxDP=1.81D-02 DE=-1.78D-01 OVMax= 9.01D-02

 Cycle   3  Pass 0  IDiag  1:
 RMSU=  5.46D-04    CP:  9.98D-01  9.08D-01
 E= -276.299793663721     Delta-E=       -0.177977926579 Rises=F Damp=F
 DIIS: error= 2.14D-03 at cycle   3 NSaved=   3.
 NSaved= 3 IEnMin= 3 EnMin= -276.299793663721     IErMin= 3 ErrMin= 2.14D-03
 ErrMax= 2.14D-03  0.00D+00 EMaxC= 1.00D-01 BMatC= 2.68D-03 BMatP= 1.86D-02
 IDIUse=3 WtCom= 9.79D-01 WtEn= 2.14D-02
 Coeff-Com: -0.516D-01 0.243D+00 0.808D+00
 Coeff-En:   0.000D+00 0.000D+00 0.100D+01
 Coeff:     -0.505D-01 0.238D+00 0.812D+00
 Gap=     0.407 Goal=   None    Shift=    0.000
 RMSDP=9.54D-05 MaxDP=3.00D-03 DE=-1.78D-01 OVMax= 1.09D-02

 Cycle   4  Pass 0  IDiag  1:
 RMSU=  7.63D-05    CP:  9.97D-01  9.54D-01  9.37D-01
 E= -276.302138256289     Delta-E=       -0.002344592568 Rises=F Damp=F
 DIIS: error= 7.70D-04 at cycle   4 NSaved=   4.
 NSaved= 4 IEnMin= 4 EnMin= -276.302138256289     IErMin= 4 ErrMin= 7.70D-04
 ErrMax= 7.70D-04  0.00D+00 EMaxC= 1.00D-01 BMatC= 2.83D-04 BMatP= 2.68D-03
 IDIUse=3 WtCom= 9.92D-01 WtEn= 7.70D-03
 Coeff-Com: -0.139D-01 0.388D-01 0.282D+00 0.693D+00
 Coeff-En:   0.000D+00 0.000D+00 0.000D+00 0.100D+01
 Coeff:     -0.138D-01 0.385D-01 0.280D+00 0.695D+00
 Gap=     0.407 Goal=   None    Shift=    0.000
 RMSDP=3.30D-05 MaxDP=1.34D-03 DE=-2.34D-03 OVMax= 3.02D-03

 Cycle   5  Pass 0  IDiag  1:
 RMSU=  1.94D-05    CP:  9.97D-01  9.47D-01  9.70D-01  7.58D-01
 E= -276.302397473912     Delta-E=       -0.000259217623 Rises=F Damp=F
 DIIS: error= 1.42D-04 at cycle   5 NSaved=   5.
 NSaved= 5 IEnMin= 5 EnMin= -276.302397473912     IErMin= 5 ErrMin= 1.42D-04
 ErrMax= 1.42D-04  0.00D+00 EMaxC= 1.00D-01 BMatC= 1.92D-05 BMatP= 2.83D-04
 IDIUse=3 WtCom= 9.99D-01 WtEn= 1.42D-03
 Coeff-Com: -0.165D-02 0.100D-02 0.553D-01 0.256D+00 0.689D+00
 Coeff-En:   0.000D+00 0.000D+00 0.000D+00 0.000D+00 0.100D+01
 Coeff:     -0.165D-02 0.100D-02 0.553D-01 0.256D+00 0.690D+00
 Gap=     0.407 Goal=   None    Shift=    0.000
 RMSDP=6.97D-06 MaxDP=3.56D-04 DE=-2.59D-04 OVMax= 7.70D-04

 Initial convergence to 1.0D-05 achieved.  Increase integral accuracy.
 Cycle   6  Pass 1  IDiag  1:
 E= -276.302366925133     Delta-E=        0.000030548779 Rises=F Damp=F
 DIIS: error= 3.35D-05 at cycle   1 NSaved=   1.
 NSaved= 1 IEnMin= 1 EnMin= -276.302366925133     IErMin= 1 ErrMin= 3.35D-05
 ErrMax= 3.35D-05  0.00D+00 EMaxC= 1.00D-01 BMatC= 1.68D-06 BMatP= 1.68D-06
 IDIUse=1 WtCom= 1.00D+00 WtEn= 0.00D+00
 Coeff-Com:  0.100D+01
 Coeff:      0.100D+01
 Gap=     0.407 Goal=   None    Shift=    0.000
 RMSDP=6.97D-06 MaxDP=3.56D-04 DE= 3.05D-05 OVMax= 2.71D-04

 Cycle   7  Pass 1  IDiag  1:
 RMSU=  1.08D-05    CP:  1.00D+00
 E= -276.302367720978     Delta-E=       -0.000000795845 Rises=F Damp=F
 DIIS: error= 2.31D-05 at cycle   2 NSaved=   2.
 NSaved= 2 IEnMin= 2 EnMin= -276.302367720978     IErMin= 2 ErrMin= 2.31D-05
 ErrMax= 2.31D-05  0.00D+00 EMaxC= 1.00D-01 BMatC= 5.11D-07 BMatP= 1.68D-06
 IDIUse=1 WtCom= 1.00D+00 WtEn= 0.00D+00
 Coeff-Com:  0.316D+00 0.684D+00
 Coeff:      0.316D+00 0.684D+00
 Gap=     0.407 Goal=   None    Shift=    0.000
 RMSDP=1.39D-06 MaxDP=5.22D-05 DE=-7.96D-07 OVMax= 1.51D-04

 Cycle   8  Pass 1  IDiag  1:
 RMSU=  1.39D-06    CP:  1.00D+00  1.00D+00
 E= -276.302368153762     Delta-E=       -0.000000432784 Rises=F Damp=F
 DIIS: error= 1.04D-05 at cycle   3 NSaved=   3.
 NSaved= 3 IEnMin= 3 EnMin= -276.302368153762     IErMin= 3 ErrMin= 1.04D-05
 ErrMax= 1.04D-05  0.00D+00 EMaxC= 1.00D-01 BMatC= 6.93D-08 BMatP= 5.11D-07
 IDIUse=1 WtCom= 1.00D+00 WtEn= 0.00D+00
 Coeff-Com: -0.257D-02 0.260D+00 0.743D+00
 Coeff:     -0.257D-02 0.260D+00 0.743D+00
 Gap=     0.407 Goal=   None    Shift=    0.000
 RMSDP=4.58D-07 MaxDP=1.58D-05 DE=-4.33D-07 OVMax= 4.38D-05

 Cycle   9  Pass 1  IDiag  1:
 RMSU=  3.16D-07    CP:  1.00D+00  1.02D+00  8.17D-01
 E= -276.302368219654     Delta-E=       -0.000000065892 Rises=F Damp=F
 DIIS: error= 2.13D-06 at cycle   4 NSaved=   4.
 NSaved= 4 IEnMin= 4 EnMin= -276.302368219654     IErMin= 4 ErrMin= 2.13D-06
 ErrMax= 2.13D-06  0.00D+00 EMaxC= 1.00D-01 BMatC= 2.38D-09 BMatP= 6.93D-08
 IDIUse=1 WtCom= 1.00D+00 WtEn= 0.00D+00
 Coeff-Com: -0.120D-01 0.709D-01 0.269D+00 0.672D+00
 Coeff:     -0.120D-01 0.709D-01 0.269D+00 0.672D+00
 Gap=     0.407 Goal=   None    Shift=    0.000
 RMSDP=9.62D-08 MaxDP=4.27D-06 DE=-6.59D-08 OVMax= 1.00D-05

 Cycle  10  Pass 1  IDiag  1:
 RMSU=  8.81D-08    CP:  1.00D+00  1.03D+00  8.20D-01  9.04D-01
 E= -276.302368222074     Delta-E=       -0.000000002420 Rises=F Damp=F
 DIIS: error= 3.13D-07 at cycle   5 NSaved=   5.
 NSaved= 5 IEnMin= 5 EnMin= -276.302368222074     IErMin= 5 ErrMin= 3.13D-07
 ErrMax= 3.13D-07  0.00D+00 EMaxC= 1.00D-01 BMatC= 5.83D-11 BMatP= 2.38D-09
 IDIUse=1 WtCom= 1.00D+00 WtEn= 0.00D+00
 Coeff-Com: -0.593D-03-0.142D-01-0.357D-01 0.402D-01 0.101D+01
 Coeff:     -0.593D-03-0.142D-01-0.357D-01 0.402D-01 0.101D+01
 Gap=     0.407 Goal=   None    Shift=    0.000
 RMSDP=3.40D-08 MaxDP=8.01D-07 DE=-2.42D-09 OVMax= 2.37D-06

 Cycle  11  Pass 1  IDiag  1:
 RMSU=  1.72D-08    CP:  1.00D+00  1.03D+00  8.23D-01  9.87D-01  1.13D+00
 E= -276.302368222121     Delta-E=       -0.000000000047 Rises=F Damp=F
 DIIS: error= 1.51D-07 at cycle   6 NSaved=   6.
 NSaved= 6 IEnMin= 6 EnMin= -276.302368222121     IErMin= 6 ErrMin= 1.51D-07
 ErrMax= 1.51D-07  0.00D+00 EMaxC= 1.00D-01 BMatC= 1.63D-11 BMatP= 5.83D-11
 IDIUse=1 WtCom= 1.00D+00 WtEn= 0.00D+00
 Coeff-Com:  0.456D-03-0.106D-01-0.322D-01-0.240D-01 0.447D+00 0.619D+00
 Coeff:      0.456D-03-0.106D-01-0.322D-01-0.240D-01 0.447D+00 0.619D+00
 Gap=     0.407 Goal=   None    Shift=    0.000
 RMSDP=6.60D-09 MaxDP=2.71D-07 DE=-4.72D-11 OVMax= 6.95D-07

 SCF Done:  E(RM062X) =  -276.302368222     A.U. after   11 cycles
            NFock= 11  Conv=0.66D-08     -V/T= 2.0064
 KE= 2.745320203135D+02 PE=-1.293673662852D+03 EE= 4.152291245526D+02
 Leave Link  502 at Sat Sep 28 00:34:39 2019, MaxMem=   671088640 cpu:            2681.4 elap:            1341.2
 (Enter /shared/centos7/gaussian/g16/l801.exe)
 DoSCS=F DFT=T ScalE2(SS,OS)=  1.000000  1.000000
 Range of M.O.s used for correlation:     1   434
 NBasis=   434 NAE=    29 NBE=    29 NFC=     0 NFV=     0
 NROrb=    434 NOA=    29 NOB=    29 NVA=   405 NVB=   405

 **** Warning!!: The largest alpha MO coefficient is  0.13539560D+02

 Leave Link  801 at Sat Sep 28 00:34:40 2019, MaxMem=   671088640 cpu:               2.4 elap:               1.2
 (Enter /shared/centos7/gaussian/g16/l1101.exe)
 Using compressed storage, NAtomX=    23.
 Will process     24 centers per pass.
 Leave Link 1101 at Sat Sep 28 00:35:20 2019, MaxMem=   671088640 cpu:              79.4 elap:              39.7
 (Enter /shared/centos7/gaussian/g16/l1102.exe)
 Symmetrizing basis deriv contribution to polar:
 IMax=3 JMax=2 DiffMx= 0.00D+00
 Leave Link 1102 at Sat Sep 28 00:35:22 2019, MaxMem=   671088640 cpu:               4.6 elap:               2.3
 (Enter /shared/centos7/gaussian/g16/l1110.exe)
 Forming Gx(P) for the SCF density, NAtomX=    23.
 Integral derivatives from FoFJK, PRISM(SPDF).
 Do as many integral derivatives as possible in FoFJK.
 G2DrvN: MDV=     671086848.
 G2DrvN: will do    24 centers at a time, making    1 passes.
 Calling FoFCou, ICntrl=  3107 FMM=F I1Cent=   0 AccDes= 0.00D+00.
 FoFJK:  IHMeth= 1 ICntrl=    3107 DoSepK=F KAlg= 0 I1Cent=           0 FoldK=F
 IRaf=         0 NMat=       1 IRICut=       1 DoRegI=T DoRafI=F ISym2E= 0 IDoP0=0 IntGTp=1.
 FoFCou: FMM=F IPFlag=           0 FMFlag=      100000 FMFlg1=           0
         NFxFlg=           0 DoJE=F BraDBF=F KetDBF=F FulRan=T
         wScrn=  0.000000 ICntrl=      3107 IOpCl=  0 I1Cent=           0 NGrid=           0
         NMat0=    1 NMatS0=      1 NMatT0=    0 NMatD0=    1 NMtDS0=    0 NMtDT0=    0
 Symmetry not used in FoFCou.
 End of G2Drv F.D. properties file   721 does not exist.
 End of G2Drv F.D. properties file   722 does not exist.
 End of G2Drv F.D. properties file   788 does not exist.
 Leave Link 1110 at Sat Sep 28 01:31:31 2019, MaxMem=   671088640 cpu:            6736.6 elap:            3369.0
 (Enter /shared/centos7/gaussian/g16/l1002.exe)
 Minotr:  Closed shell wavefunction.
          IDoAtm=11111111111111111111111
          Direct CPHF calculation.
          Differentiating once with respect to nuclear coordinates.
          Requested convergence is 1.0D-08 RMS, and 1.0D-07 maximum.
          Secondary convergence is 1.0D-12 RMS, and 1.0D-12 maximum.
          NewPWx=T KeepS1=F KeepF1=F KeepIn=T MapXYZ=F SortEE=F KeepMc=T.
         6911 words used for storage of precomputed grid.
 Two-electron integrals replicated using symmetry.
          MDV=     671088640 using IRadAn=       1.
          Solving linear equations simultaneously, MaxMat=     380.
 FoF2E skips out because all densities are zero.
 CalDSu exits because no D1Ps are significant.
 FoFJK:  IHMeth= 1 ICntrl=       0 DoSepK=F KAlg= 0 I1Cent=           0 FoldK=F
 IRaf= 920000000 NMat=      69 IRICut=     172 DoRegI=T DoRafI=T ISym2E= 2 IDoP0=3 IntGTp=3.
 FoFCou: FMM=F IPFlag=           0 FMFlag=      100000 FMFlg1=           0
         NFxFlg=           0 DoJE=F BraDBF=F KetDBF=F FulRan=T
         wScrn=  0.000000 ICntrl=         0 IOpCl=  0 I1Cent=           0 NGrid=           0
         NMat0=   69 NMatS0=     69 NMatT0=    0 NMatD0=   69 NMtDS0=    0 NMtDT0=    0
 Integrals replicated using symmetry in FoFCou.
 Raff kept on since  88.44% of shell-pairs survive, threshold=   0.20 IRatSp=88.
          There are    72 degrees of freedom in the 1st order CPHF.  IDoFFX=6 NUNeed=     0.
     66 vectors produced by pass  0 Test12= 1.63D-14 1.39D-09 XBig12= 5.41D-02 4.40D-02.
 AX will form    66 AO Fock derivatives at one time.
     66 vectors produced by pass  1 Test12= 1.63D-14 1.39D-09 XBig12= 3.33D-03 6.04D-03.
     66 vectors produced by pass  2 Test12= 1.63D-14 1.39D-09 XBig12= 5.51D-05 1.07D-03.
     66 vectors produced by pass  3 Test12= 1.63D-14 1.39D-09 XBig12= 4.76D-07 6.89D-05.
     66 vectors produced by pass  4 Test12= 1.63D-14 1.39D-09 XBig12= 2.38D-09 4.58D-06.
     66 vectors produced by pass  5 Test12= 1.63D-14 1.39D-09 XBig12= 1.18D-11 3.58D-07.
     22 vectors produced by pass  6 Test12= 1.63D-14 1.39D-09 XBig12= 4.63D-14 1.87D-08.
 InvSVY:  IOpt=1 It=  1 EMax= 3.61D-16
 Solved reduced A of dimension   418 with    72 vectors.
 End of Minotr F.D. properties file   721 does not exist.
 End of Minotr F.D. properties file   722 does not exist.
 End of Minotr F.D. properties file   788 does not exist.
 Leave Link 1002 at Sat Sep 28 03:06:43 2019, MaxMem=   671088640 cpu:           11420.2 elap:            5711.4
 (Enter /shared/centos7/gaussian/g16/l601.exe)
 Copying SCF densities to generalized density rwf, IOpCl= 0 IROHF=0.

 **********************************************************************

            Population analysis using the SCF density.

 **********************************************************************

 Orbital symmetries:
       Occupied  (A) (A) (A) (A) (A) (A) (A) (A) (A) (A) (A) (A)
                 (A) (A) (A) (A) (A) (A) (A) (A) (A) (A) (A) (A)
                 (A) (A) (A) (A) (A)
       Virtual   (A) (A) (A) (A) (A) (A) (A) (A) (A) (A) (A) (A)
                 (A) (A) (A) (A) (A) (A) (A) (A) (A) (A) (A) (A)
                 (A) (A) (A) (A) (A) (A) (A) (A) (A) (A) (A) (A)
                 (A) (A) (A) (A) (A) (A) (A) (A) (A) (A) (A) (A)
                 (A) (A) (A) (A) (A) (A) (A) (A) (A) (A) (A) (A)
                 (A) (A) (A) (A) (A) (A) (A) (A) (A) (A) (A) (A)
                 (A) (A) (A) (A) (A) (A) (A) (A) (A) (A) (A) (A)
                 (A) (A) (A) (A) (A) (A) (A) (A) (A) (A) (A) (A)
                 (A) (A) (A) (A) (A) (A) (A) (A) (A) (A) (A) (A)
                 (A) (A) (A) (A) (A) (A) (A) (A) (A) (A) (A) (A)
                 (A) (A) (A) (A) (A) (A) (A) (A) (A) (A) (A) (A)
                 (A) (A) (A) (A) (A) (A) (A) (A) (A) (A) (A) (A)
                 (A) (A) (A) (A) (A) (A) (A) (A) (A) (A) (A) (A)
                 (A) (A) (A) (A) (A) (A) (A) (A) (A) (A) (A) (A)
                 (A) (A) (A) (A) (A) (A) (A) (A) (A) (A) (A) (A)
                 (A) (A) (A) (A) (A) (A) (A) (A) (A) (A) (A) (A)
                 (A) (A) (A) (A) (A) (A) (A) (A) (A) (A) (A) (A)
                 (A) (A) (A) (A) (A) (A) (A) (A) (A) (A) (A) (A)
                 (A) (A) (A) (A) (A) (A) (A) (A) (A) (A) (A) (A)
                 (A) (A) (A) (A) (A) (A) (A) (A) (A) (A) (A) (A)
                 (A) (A) (A) (A) (A) (A) (A) (A) (A) (A) (A) (A)
                 (A) (A) (A) (A) (A) (A) (A) (A) (A) (A) (A) (A)
                 (A) (A) (A) (A) (A) (A) (A) (A) (A) (A) (A) (A)
                 (A) (A) (A) (A) (A) (A) (A) (A) (A) (A) (A) (A)
                 (A) (A) (A) (A) (A) (A) (A) (A) (A) (A) (A) (A)
                 (A) (A) (A) (A) (A) (A) (A) (A) (A) (A) (A) (A)
                 (A) (A) (A) (A) (A) (A) (A) (A) (A) (A) (A) (A)
                 (A) (A) (A) (A) (A) (A) (A) (A) (A) (A) (A) (A)
                 (A) (A) (A) (A) (A) (A) (A) (A) (A) (A) (A) (A)
                 (A) (A) (A) (A) (A) (A) (A) (A) (A) (A) (A) (A)
                 (A) (A) (A) (A) (A) (A) (A) (A) (A) (A) (A) (A)
                 (A) (A) (A) (A) (A) (A) (A) (A) (A) (A) (A) (A)
                 (A) (A) (A) (A) (A) (A) (A) (A) (A) (A) (A) (A)
                 (A) (A) (A) (A) (A) (A) (A) (A) (A)
 The electronic state is 1-A.
 Alpha  occ. eigenvalues --  -10.52936 -10.52491 -10.52457 -10.52431 -10.52223
 Alpha  occ. eigenvalues --  -10.52088 -10.51937  -0.92195  -0.88166  -0.82710
 Alpha  occ. eigenvalues --   -0.77048  -0.70217  -0.65941  -0.62625  -0.55747
 Alpha  occ. eigenvalues --   -0.52813  -0.51341  -0.49996  -0.48136  -0.45399
 Alpha  occ. eigenvalues --   -0.44918  -0.43208  -0.42046  -0.40347  -0.39295
 Alpha  occ. eigenvalues --   -0.37782  -0.36688  -0.35531  -0.34805
 Alpha virt. eigenvalues --    0.05912   0.07536   0.08384   0.09024   0.10837
 Alpha virt. eigenvalues --    0.11913   0.11988   0.12800   0.13443   0.15238
 Alpha virt. eigenvalues --    0.15954   0.17005   0.17832   0.19216   0.19955
 Alpha virt. eigenvalues --    0.20790   0.21472   0.24190   0.25654   0.26671
 Alpha virt. eigenvalues --    0.27133   0.27857   0.28422   0.30324   0.30962
 Alpha virt. eigenvalues --    0.33532   0.34475   0.35230   0.35532   0.37213
 Alpha virt. eigenvalues --    0.39151   0.40313   0.40890   0.41320   0.43633
 Alpha virt. eigenvalues --    0.44109   0.45763   0.46152   0.46867   0.47652
 Alpha virt. eigenvalues --    0.48560   0.49894   0.50347   0.50510   0.51030
 Alpha virt. eigenvalues --    0.51687   0.52094   0.53198   0.53702   0.54165
 Alpha virt. eigenvalues --    0.54926   0.55561   0.56352   0.56689   0.56948
 Alpha virt. eigenvalues --    0.58361   0.58779   0.59612   0.61188   0.62516
 Alpha virt. eigenvalues --    0.64013   0.69746   0.71934   0.73347   0.78048
 Alpha virt. eigenvalues --    0.78164   0.80953   0.82563   0.83256   0.85782
 Alpha virt. eigenvalues --    0.87324   0.88145   0.88867   0.91605   0.92024
 Alpha virt. eigenvalues --    0.93664   0.95399   0.96195   0.97129   0.98206
 Alpha virt. eigenvalues --    1.01082   1.02899   1.04542   1.05183   1.06537
 Alpha virt. eigenvalues --    1.06838   1.07608   1.08615   1.09180   1.09835
 Alpha virt. eigenvalues --    1.10075   1.11327   1.12468   1.13090   1.13886
 Alpha virt. eigenvalues --    1.15912   1.15980   1.16932   1.18316   1.19796
 Alpha virt. eigenvalues --    1.20233   1.21928   1.22123   1.23857   1.24110
 Alpha virt. eigenvalues --    1.25158   1.26075   1.26523   1.28411   1.28611
 Alpha virt. eigenvalues --    1.30410   1.32000   1.32831   1.33179   1.33898
 Alpha virt. eigenvalues --    1.34428   1.35383   1.36143   1.36907   1.38858
 Alpha virt. eigenvalues --    1.40229   1.40668   1.41698   1.43580   1.44159
 Alpha virt. eigenvalues --    1.45833   1.46469   1.47565   1.48482   1.51132
 Alpha virt. eigenvalues --    1.52231   1.52674   1.53254   1.54495   1.55420
 Alpha virt. eigenvalues --    1.57637   1.59162   1.61004   1.61741   1.64401
 Alpha virt. eigenvalues --    1.64775   1.67899   1.68940   1.70883   1.74908
 Alpha virt. eigenvalues --    1.76945   1.79856   1.83142   1.85963   2.21127
 Alpha virt. eigenvalues --    2.24956   2.26587   2.29445   2.31103   2.32872
 Alpha virt. eigenvalues --    2.37040   2.38658   2.41077   2.41345   2.44187
 Alpha virt. eigenvalues --    2.44852   2.47180   2.49381   2.50903   2.51858
 Alpha virt. eigenvalues --    2.54764   2.56524   2.59414   2.59616   2.61240
 Alpha virt. eigenvalues --    2.62339   2.63549   2.63809   2.65256   2.66765
 Alpha virt. eigenvalues --    2.67578   2.70171   2.70512   2.73382   2.73460
 Alpha virt. eigenvalues --    2.75297   2.76546   2.77329   2.77708   2.79352
 Alpha virt. eigenvalues --    2.81224   2.83185   2.84410   2.85657   2.86464
 Alpha virt. eigenvalues --    2.87665   2.88077   2.88722   2.91314   2.91924
 Alpha virt. eigenvalues --    2.93916   2.95022   2.95969   2.97277   2.97811
 Alpha virt. eigenvalues --    2.99492   3.00843   3.02539   3.03240   3.03895
 Alpha virt. eigenvalues --    3.06018   3.07166   3.07459   3.08185   3.08444
 Alpha virt. eigenvalues --    3.09673   3.10310   3.11538   3.12685   3.13447
 Alpha virt. eigenvalues --    3.14307   3.15338   3.15855   3.16715   3.17067
 Alpha virt. eigenvalues --    3.19211   3.20211   3.21538   3.22214   3.23655
 Alpha virt. eigenvalues --    3.25100   3.25601   3.28149   3.29200   3.30658
 Alpha virt. eigenvalues --    3.31580   3.32557   3.33051   3.34979   3.36350
 Alpha virt. eigenvalues --    3.36630   3.37933   3.39301   3.39774   3.40465
 Alpha virt. eigenvalues --    3.41699   3.44030   3.44890   3.45930   3.47773
 Alpha virt. eigenvalues --    3.48784   3.49407   3.51982   3.53781   3.54530
 Alpha virt. eigenvalues --    3.56018   3.56548   3.58801   3.60487   3.61175
 Alpha virt. eigenvalues --    3.62186   3.62442   3.64244   3.65404   3.66223
 Alpha virt. eigenvalues --    3.69189   3.69441   3.70983   3.71680   3.72862
 Alpha virt. eigenvalues --    3.73328   3.75245   3.76523   3.78554   3.78817
 Alpha virt. eigenvalues --    3.80741   3.81235   3.83630   3.84090   3.86175
 Alpha virt. eigenvalues --    3.86349   3.87772   3.88804   3.90322   3.91480
 Alpha virt. eigenvalues --    3.91818   3.93783   3.94519   3.95321   3.95497
 Alpha virt. eigenvalues --    3.96879   3.97848   3.99162   4.00239   4.00869
 Alpha virt. eigenvalues --    4.01748   4.02408   4.04185   4.05576   4.05961
 Alpha virt. eigenvalues --    4.08093   4.09770   4.10566   4.11412   4.12599
 Alpha virt. eigenvalues --    4.13560   4.14748   4.15971   4.17879   4.19280
 Alpha virt. eigenvalues --    4.19531   4.20344   4.20638   4.22158   4.23184
 Alpha virt. eigenvalues --    4.24204   4.25645   4.26318   4.28683   4.29971
 Alpha virt. eigenvalues --    4.31934   4.34063   4.34817   4.35633   4.37692
 Alpha virt. eigenvalues --    4.39973   4.41271   4.42515   4.46305   4.48811
 Alpha virt. eigenvalues --    4.50420   4.51519   4.53374   4.54580   4.56671
 Alpha virt. eigenvalues --    4.58010   4.60907   4.62167   4.63301   4.65368
 Alpha virt. eigenvalues --    4.68178   4.69758   4.70555   4.72518   4.75375
 Alpha virt. eigenvalues --    4.77041   4.79370   4.80245   4.81116   4.83353
 Alpha virt. eigenvalues --    4.84372   4.85982   4.87142   4.89559   4.92440
 Alpha virt. eigenvalues --    4.93538   4.95105   4.96366   4.99331   4.99774
 Alpha virt. eigenvalues --    5.03301   5.04341   5.07198   5.09319   5.09957
 Alpha virt. eigenvalues --    5.11191   5.12081   5.13019   5.15776   5.16809
 Alpha virt. eigenvalues --    5.21713   5.22917   5.24884   5.26028   5.26640
 Alpha virt. eigenvalues --    5.27448   5.29270   5.30032   5.32389   5.34262
 Alpha virt. eigenvalues --    5.37004   5.40205   5.40802   5.41948   5.42938
 Alpha virt. eigenvalues --    5.48458   5.49897   5.53840   5.56229   5.58610
 Alpha virt. eigenvalues --    5.60662   5.65160   5.67664   5.76454   5.79758
 Alpha virt. eigenvalues --    5.81164   5.82493   5.85507   5.86105   5.92699
 Alpha virt. eigenvalues --    5.97215   6.03916   6.07718  11.37236  11.90064
 Alpha virt. eigenvalues --   12.37277  12.91953  13.35067  13.52775  13.99677
          Condensed to atoms (all electrons):
               1          2          3          4          5          6
     1  C    5.182365   0.275997  -0.042930   0.308700  -0.013711  -0.047531
     2  C    0.275997   5.116077   0.293346  -0.050564  -0.041285   0.010734
     3  C   -0.042930   0.293346   5.067955   0.005116   0.313000  -0.000640
     4  C    0.308700  -0.050564   0.005116   5.060297  -0.000771   0.288697
     5  C   -0.013711  -0.041285   0.313000  -0.000771   5.059049   0.000215
     6  C   -0.047531   0.010734  -0.000640   0.288697   0.000215   4.975408
     7  C   -0.019464   0.008167  -0.051860   0.001443   0.296411   0.000034
     8  H   -0.046088  -0.005394   0.000332   0.414284  -0.000009  -0.041899
     9  H   -0.047753  -0.000398  -0.000853   0.409254   0.000541  -0.042255
    10  H    0.428836  -0.058864  -0.012514  -0.048114  -0.000106  -0.010607
    11  H    0.405234  -0.037911   0.005441  -0.032640   0.000675  -0.003405
    12  H   -0.059361   0.423043  -0.047236  -0.008286   0.006329   0.000923
    13  H   -0.047977   0.415818  -0.045066   0.005724   0.005658  -0.000626
    14  H    0.006765  -0.048901   0.421249  -0.000225  -0.047580  -0.000003
    15  H    0.006312  -0.055226   0.421094  -0.000537  -0.042882   0.000033
    16  H    0.000484   0.007618  -0.042929   0.000040   0.414077  -0.000005
    17  H    0.000032  -0.006589  -0.038372  -0.001270   0.404101   0.000203
    18  H    0.001451   0.001383  -0.000105  -0.065033  -0.000043   0.410198
    19  H    0.002983  -0.000674   0.000063  -0.043762   0.000014   0.403903
    20  H    0.005404  -0.000651   0.000018  -0.043670  -0.000005   0.407460
    21  H    0.001930  -0.003241  -0.000598  -0.000084  -0.052229   0.000006
    22  H   -0.014897   0.002474   0.002274   0.001583  -0.049204   0.000338
    23  H    0.000823  -0.000756   0.008007  -0.000049  -0.038824   0.000001
               7          8          9         10         11         12
     1  C   -0.019464  -0.046088  -0.047753   0.428836   0.405234  -0.059361
     2  C    0.008167  -0.005394  -0.000398  -0.058864  -0.037911   0.423043
     3  C   -0.051860   0.000332  -0.000853  -0.012514   0.005441  -0.047236
     4  C    0.001443   0.414284   0.409254  -0.048114  -0.032640  -0.008286
     5  C    0.296411  -0.000009   0.000541  -0.000106   0.000675   0.006329
     6  C    0.000034  -0.041899  -0.042255  -0.010607  -0.003405   0.000923
     7  C    5.019041  -0.000132   0.000001  -0.024789   0.000034  -0.001049
     8  H   -0.000132   0.611663  -0.041713   0.010665  -0.012162   0.001551
     9  H    0.000001  -0.041713   0.614684  -0.007949   0.008823   0.000364
    10  H   -0.024789   0.010665  -0.007949   0.648577  -0.050935   0.005805
    11  H    0.000034  -0.012162   0.008823  -0.050935   0.581660   0.005858
    12  H   -0.001049   0.001551   0.000364   0.005805   0.005858   0.592415
    13  H   -0.000133   0.000718   0.000038   0.007556  -0.020737  -0.036438
    14  H    0.009159   0.000041  -0.000134   0.001199  -0.000610  -0.018965
    15  H   -0.009152  -0.000008  -0.000013   0.000263   0.000140   0.006643
    16  H   -0.041303  -0.000000  -0.000004  -0.000108   0.000008  -0.000419
    17  H   -0.044009  -0.000024   0.000456  -0.004703   0.000661   0.000873
    18  H   -0.000029   0.004916   0.006810  -0.003884   0.001835   0.000128
    19  H   -0.000023   0.007459  -0.019385   0.001995  -0.000395  -0.000055
    20  H    0.000003  -0.018987   0.005794   0.000116   0.000890  -0.000082
    21  H    0.401424   0.000005  -0.000001   0.000756   0.000108   0.000037
    22  H    0.417379  -0.000175   0.000107  -0.018973   0.001504  -0.000081
    23  H    0.399818   0.000003   0.000005   0.001866   0.000010   0.000043
              13         14         15         16         17         18
     1  C   -0.047977   0.006765   0.006312   0.000484   0.000032   0.001451
     2  C    0.415818  -0.048901  -0.055226   0.007618  -0.006589   0.001383
     3  C   -0.045066   0.421249   0.421094  -0.042929  -0.038372  -0.000105
     4  C    0.005724  -0.000225  -0.000537   0.000040  -0.001270  -0.065033
     5  C    0.005658  -0.047580  -0.042882   0.414077   0.404101  -0.000043
     6  C   -0.000626  -0.000003   0.000033  -0.000005   0.000203   0.410198
     7  C   -0.000133   0.009159  -0.009152  -0.041303  -0.044009  -0.000029
     8  H    0.000718   0.000041  -0.000008  -0.000000  -0.000024   0.004916
     9  H    0.000038  -0.000134  -0.000013  -0.000004   0.000456   0.006810
    10  H    0.007556   0.001199   0.000263  -0.000108  -0.004703  -0.003884
    11  H   -0.020737  -0.000610   0.000140   0.000008   0.000661   0.001835
    12  H   -0.036438  -0.018965   0.006643  -0.000419   0.000873   0.000128
    13  H    0.608025   0.007044  -0.019211  -0.000430  -0.000341  -0.000084
    14  H    0.007044   0.598159  -0.035447  -0.008565  -0.005422  -0.000001
    15  H   -0.019211  -0.035447   0.598748  -0.006028   0.008493   0.000003
    16  H   -0.000430  -0.008565  -0.006028   0.592857  -0.033955   0.000002
    17  H   -0.000341  -0.005422   0.008493  -0.033955   0.605493   0.000032
    18  H   -0.000084  -0.000001   0.000003   0.000002   0.000032   0.601956
    19  H    0.000008  -0.000005  -0.000002   0.000002   0.000001  -0.036373
    20  H    0.000057  -0.000000  -0.000001  -0.000000  -0.000009  -0.034107
    21  H   -0.000057   0.000427   0.003591  -0.000874   0.008012  -0.000000
    22  H   -0.000779  -0.000643  -0.000049   0.007336  -0.010125   0.000492
    23  H    0.000044  -0.000501   0.000265  -0.012977  -0.000189   0.000012
              19         20         21         22         23
     1  C    0.002983   0.005404   0.001930  -0.014897   0.000823
     2  C   -0.000674  -0.000651  -0.003241   0.002474  -0.000756
     3  C    0.000063   0.000018  -0.000598   0.002274   0.008007
     4  C   -0.043762  -0.043670  -0.000084   0.001583  -0.000049
     5  C    0.000014  -0.000005  -0.052229  -0.049204  -0.038824
     6  C    0.403903   0.407460   0.000006   0.000338   0.000001
     7  C   -0.000023   0.000003   0.401424   0.417379   0.399818
     8  H    0.007459  -0.018987   0.000005  -0.000175   0.000003
     9  H   -0.019385   0.005794  -0.000001   0.000107   0.000005
    10  H    0.001995   0.000116   0.000756  -0.018973   0.001866
    11  H   -0.000395   0.000890   0.000108   0.001504   0.000010
    12  H   -0.000055  -0.000082   0.000037  -0.000081   0.000043
    13  H    0.000008   0.000057  -0.000057  -0.000779   0.000044
    14  H   -0.000005  -0.000000   0.000427  -0.000643  -0.000501
    15  H   -0.000002  -0.000001   0.003591  -0.000049   0.000265
    16  H    0.000002  -0.000000  -0.000874   0.007336  -0.012977
    17  H    0.000001  -0.000009   0.008012  -0.010125  -0.000189
    18  H   -0.036373  -0.034107  -0.000000   0.000492   0.000012
    19  H    0.614934  -0.031709   0.000000  -0.000018   0.000000
    20  H   -0.031709   0.600452  -0.000000  -0.000014  -0.000000
    21  H    0.000000  -0.000000   0.585719  -0.038596  -0.028455
    22  H   -0.000018  -0.000014  -0.038596   0.612434  -0.031057
    23  H    0.000000  -0.000000  -0.028455  -0.031057   0.596186
 Mulliken charges:
               1
     1  C   -0.287605
     2  C   -0.244204
     3  C   -0.254792
     4  C   -0.200133
     5  C   -0.213422
     6  C   -0.351184
     7  C   -0.360972
     8  H    0.114952
     9  H    0.113580
    10  H    0.133912
    11  H    0.145914
    12  H    0.127962
    13  H    0.121188
    14  H    0.122958
    15  H    0.122969
    16  H    0.125171
    17  H    0.116652
    18  H    0.110440
    19  H    0.101038
    20  H    0.109042
    21  H    0.122121
    22  H    0.118688
    23  H    0.105725
 Sum of Mulliken charges =  -0.00000
 Mulliken charges with hydrogens summed into heavy atoms:
               1
     1  C   -0.007780
     2  C    0.004947
     3  C   -0.008866
     4  C    0.028400
     5  C    0.028401
     6  C   -0.030663
     7  C   -0.014438
 APT charges:
               1
     1  C   -0.406317
     2  C   -0.754621
     3  C   -0.930560
     4  C   -0.604546
     5  C   -0.604679
     6  C   -1.330056
     7  C   -1.069425
     8  H    0.427142
     9  H    0.287651
    10  H    0.259083
    11  H    0.368151
    12  H    0.363708
    13  H    0.385051
    14  H    0.400944
    15  H    0.433164
    16  H    0.527147
    17  H    0.181208
    18  H    0.207159
    19  H    0.352849
    20  H    0.550951
    21  H    0.340124
    22  H    0.102578
    23  H    0.513295
 Sum of APT charges =  -0.00000
 APT charges with hydrogens summed into heavy atoms:
               1
     1  C    0.220916
     2  C   -0.005863
     3  C   -0.096452
     4  C    0.110247
     5  C    0.103677
     6  C   -0.219098
     7  C   -0.113428
 Electronic spatial extent (au):  <R**2>=           1166.4300
 Charge=             -0.0000 electrons
 Dipole moment (field-independent basis, Debye):
    X=             -0.1035    Y=             -0.0850    Z=              0.0454  Tot=              0.1414
 Quadrupole moment (field-independent basis, Debye-Ang):
   XX=            -49.2972   YY=            -49.8853   ZZ=            -48.5879
   XY=             -0.2888   XZ=             -0.1475   YZ=              0.3840
 Traceless Quadrupole moment (field-independent basis, Debye-Ang):
   XX=             -0.0404   YY=             -0.6285   ZZ=              0.6689
   XY=             -0.2888   XZ=             -0.1475   YZ=              0.3840
 Octapole moment (field-independent basis, Debye-Ang**2):
  XXX=             -2.2735  YYY=             -0.6525  ZZZ=              0.1065  XYY=             -0.7106
  XXY=             -1.7751  XXZ=             -0.9385  XZZ=              0.2035  YZZ=             -1.3981
  YYZ=              1.0360  XYZ=             -0.5247
 Hexadecapole moment (field-independent basis, Debye-Ang**3):
 XXXX=          -1116.7872 YYYY=           -381.8885 ZZZZ=           -161.6814 XXXY=            -10.8086
 XXXZ=             -7.8991 YYYX=             -2.9784 YYYZ=             -0.0191 ZZZX=              2.9177
 ZZZY=              2.2158 XXYY=           -254.5688 XXZZ=           -211.9315 YYZZ=            -89.9062
 XXYZ=              4.9752 YYXZ=             -2.5889 ZZXY=              3.1614
 N-N= 3.276101497639D+02 E-N=-1.293673598031D+03  KE= 2.745320203135D+02
  Exact polarizability:   0.000   0.000   0.000   0.000   0.000   0.000
 Approx polarizability:  98.334  -1.279  98.147  -0.165   0.024  98.305
 No NMR shielding tensors so no spin-rotation constants.
 Leave Link  601 at Sat Sep 28 03:07:13 2019, MaxMem=   671088640 cpu:              61.3 elap:              30.7
 (Enter /shared/centos7/gaussian/g16/l701.exe)
 SCFChk:  SCF convergence  6.60D-09 required  1.00D-08
 ... and contract with generalized density number  0.
 Compute integral second derivatives.
 Entering OneElI...
 Calculate overlap and kinetic energy integrals
    NBasis = 485  MinDer = 2  MaxDer = 2
 Requested accuracy = 0.1000D-12
 PrmmSu-InSpLW:  IPartL=    0 NPrtUS=   20 NPrtUL=    1 DoSpLW=F IThBeg=    0 IThEnd=   19 NThAct=   20.
 PrsmSu:  NPrtUS=  20 ThrOK=T IAlg=1 NPAlg=1 LenDen=           0 ISkipM=0 DoSpLW=F IThBeg=    0 IThEnd=   19.
 Prism:   IPart=     0 DynPar=F LinDyn=F Incr=           6.
 PRISM was handed    33201597 working-precision words and 13666 shell-pairs
 PRISM was handed    33201597 working-precision words and 13666 shell-pairs
 PRISM was handed    33201597 working-precision words and 13666 shell-pairs
 PRISM was handed    33201597 working-precision words and 13666 shell-pairs
 PRISM was handed    33201597 working-precision words and 13666 shell-pairs
 PRISM was handed    33201597 working-precision words and 13666 shell-pairs
 PRISM was handed    33201597 working-precision words and 13666 shell-pairs
 PRISM was handed    33201597 working-precision words and 13666 shell-pairs
 PRISM was handed    33201597 working-precision words and 13666 shell-pairs
 PRISM was handed    33201597 working-precision words and 13666 shell-pairs
 PRISM was handed    33201597 working-precision words and 13666 shell-pairs
 PRISM was handed    33201597 working-precision words and 13666 shell-pairs
 PRISM was handed    33201597 working-precision words and 13666 shell-pairs
 PRISM was handed    33201597 working-precision words and 13666 shell-pairs
 PRISM was handed    33201597 working-precision words and 13666 shell-pairs
 PRISM was handed    33201597 working-precision words and 13666 shell-pairs
 PRISM was handed    33201597 working-precision words and 13666 shell-pairs
 PRISM was handed    33201597 working-precision words and 13666 shell-pairs
 PRISM was handed    33201597 working-precision words and 13666 shell-pairs
 PRISM was handed    33201597 working-precision words and 13666 shell-pairs
 IPart= 11 NShTot=         672 NBatch=          56 AvBLen=        12.0
 IPart=  3 NShTot=         710 NBatch=          74 AvBLen=         9.6
 IPart=  5 NShTot=         702 NBatch=          71 AvBLen=         9.9
 IPart= 14 NShTot=         666 NBatch=          52 AvBLen=        12.8
 IPart=  8 NShTot=         685 NBatch=          59 AvBLen=        11.6
 IPart= 10 NShTot=         672 NBatch=          56 AvBLen=        12.0
 IPart= 12 NShTot=         669 NBatch=          53 AvBLen=        12.6
 IPart=  2 NShTot=         711 NBatch=          75 AvBLen=         9.5
 IPart=  0 NShTot=         717 NBatch=          79 AvBLen=         9.1
 IPart= 16 NShTot=         665 NBatch=          52 AvBLen=        12.8
 IPart= 19 NShTot=         658 NBatch=          50 AvBLen=        13.2
 IPart=  7 NShTot=         690 NBatch=          61 AvBLen=        11.3
 IPart=  1 NShTot=         715 NBatch=          78 AvBLen=         9.2
 IPart=  6 NShTot=         696 NBatch=          67 AvBLen=        10.4
 IPart= 15 NShTot=         666 NBatch=          52 AvBLen=        12.8
 IPart=  9 NShTot=         676 NBatch=          56 AvBLen=        12.1
 IPart= 18 NShTot=         659 NBatch=          50 AvBLen=        13.2
 IPart= 17 NShTot=         664 NBatch=          52 AvBLen=        12.8
 IPart= 13 NShTot=         667 NBatch=          52 AvBLen=        12.8
 IPart=  4 NShTot=         706 NBatch=          72 AvBLen=         9.8
 PrSmSu:  NxtVal=            121.
 Entering OneElI...
 Calculate potential energy integrals
    NBasis = 485  MinDer = 2  MaxDer = 2
 Requested accuracy = 0.1000D-12
 PrmmSu-InSpLW:  IPartL=    0 NPrtUS=   20 NPrtUL=    1 DoSpLW=F IThBeg=    0 IThEnd=   19 NThAct=   20.
 PrsmSu:  NPrtUS=  20 ThrOK=T IAlg=1 NPAlg=1 LenDen=           0 ISkipM=0 DoSpLW=F IThBeg=    0 IThEnd=   19.
 Prism:   IPart=     0 DynPar=F LinDyn=F Incr=         141.
 PRISM was handed    33265600 working-precision words and 12271 shell-pairs
 PRISM was handed    33265600 working-precision words and 12271 shell-pairs
 PRISM was handed    33265600 working-precision words and 12271 shell-pairs
 PRISM was handed    33265600 working-precision words and 12271 shell-pairs
 PRISM was handed    33265600 working-precision words and 12271 shell-pairs
 PRISM was handed    33265600 working-precision words and 12271 shell-pairs
 PRISM was handed    33265600 working-precision words and 12271 shell-pairs
 PRISM was handed    33265600 working-precision words and 12271 shell-pairs
 PRISM was handed    33265600 working-precision words and 12271 shell-pairs
 PRISM was handed    33265600 working-precision words and 12271 shell-pairs
 PRISM was handed    33265600 working-precision words and 12271 shell-pairs
 PRISM was handed    33265600 working-precision words and 12271 shell-pairs
 PRISM was handed    33265600 working-precision words and 12271 shell-pairs
 PRISM was handed    33265600 working-precision words and 12271 shell-pairs
 PRISM was handed    33265600 working-precision words and 12271 shell-pairs
 PRISM was handed    33265600 working-precision words and 12271 shell-pairs
 PRISM was handed    33265600 working-precision words and 12271 shell-pairs
 PRISM was handed    33265600 working-precision words and 12271 shell-pairs
 PRISM was handed    33265600 working-precision words and 12271 shell-pairs
 PRISM was handed    33265600 working-precision words and 12271 shell-pairs
 IPart=  3 NShTot=       14605 NBatch=         637 AvBLen=        22.9
 IPart= 11 NShTot=       14053 NBatch=         612 AvBLen=        23.0
 IPart= 12 NShTot=       13892 NBatch=         605 AvBLen=        23.0
 IPart= 10 NShTot=       14053 NBatch=         612 AvBLen=        23.0
 IPart= 16 NShTot=       13616 NBatch=         593 AvBLen=        23.0
 IPart=  8 NShTot=       14076 NBatch=         613 AvBLen=        23.0
 IPart= 14 NShTot=       13800 NBatch=         601 AvBLen=        23.0
 IPart=  9 NShTot=       14076 NBatch=         613 AvBLen=        23.0
 IPart= 15 NShTot=       13754 NBatch=         599 AvBLen=        23.0
 IPart= 17 NShTot=       13593 NBatch=         592 AvBLen=        23.0
 IPart=  0 NShTot=       14812 NBatch=         646 AvBLen=        22.9
 IPart=  1 NShTot=       14697 NBatch=         641 AvBLen=        22.9
 IPart= 18 NShTot=       13524 NBatch=         589 AvBLen=        23.0
 IPart= 19 NShTot=       13501 NBatch=         588 AvBLen=        23.0
 IPart=  2 NShTot=       14628 NBatch=         638 AvBLen=        22.9
 IPart= 13 NShTot=       13846 NBatch=         603 AvBLen=        23.0
 IPart=  7 NShTot=       14122 NBatch=         615 AvBLen=        23.0
 IPart=  4 NShTot=       14605 NBatch=         637 AvBLen=        22.9
 IPart=  5 NShTot=       14605 NBatch=         637 AvBLen=        22.9
 IPart=  6 NShTot=       14375 NBatch=         627 AvBLen=        22.9
 PrSmSu:  NxtVal=           2821.
 Polarizability after L701:
                1             2             3 
      1  0.000000D+00
      2  0.000000D+00  0.000000D+00
      3  0.000000D+00  0.000000D+00  0.000000D+00
 Dipole Derivatives after L701:
                 1             2             3             4             5 
      1  -0.108055D+00 -0.344054D+00  0.487503D+00 -0.472237D-01  0.296731D-01
      2   0.115159D+00 -0.259660D+00 -0.161112D+00  0.435332D+00 -0.138588D+01
      3   0.235661D+00  0.185380D+00 -0.851237D+00 -0.193524D+00 -0.257259D+00
                 6             7             8             9            10 
      1  -0.307103D+00 -0.127511D+01 -0.912135D+00 -0.459643D-01 -0.516653D+00
      2  -0.307774D+00 -0.780524D+00 -0.770492D+00  0.370006D+00  0.336682D+00
      3  -0.830762D+00 -0.131674D+00  0.357516D+00 -0.746077D+00  0.142000D+00
                11            12            13            14            15 
      1   0.168119D+01 -0.388963D+00 -0.950863D+00  0.177084D+00  0.116281D+01
      2  -0.517268D+00  0.203694D-01 -0.315713D-01 -0.668317D-01 -0.472846D+00
      3   0.576849D-01 -0.779718D+00  0.659378D-01 -0.309219D+00 -0.796342D+00
                16            17            18            19            20 
      1  -0.193700D+01 -0.135271D+01  0.104079D-01 -0.100224D+01  0.811286D+00
      2  -0.898610D-01 -0.107953D+01 -0.687411D-02  0.310505D-01 -0.135097D+01
      3  -0.674251D-01 -0.115914D+00 -0.973643D+00 -0.234112D-02 -0.601614D-01
                21            22            23            24            25 
      1  -0.845422D+00  0.645867D+00 -0.650994D+00 -0.377207D+00  0.698879D-01
      2   0.363867D+00 -0.233287D+00  0.451711D+00  0.194031D+00  0.438655D-01
      3  -0.855070D+00 -0.674317D-01  0.853271D-01  0.183848D+00 -0.571870D-01
                26            27            28            29            30 
      1  -0.150912D+00  0.573154D+00  0.181580D+00  0.547661D-01 -0.142993D-01
      2   0.197218D+00 -0.197636D+00 -0.176657D+00  0.425924D+00  0.792183D-01
      3  -0.985898D-01  0.595847D+00  0.118564D-01 -0.332830D-01  0.169743D+00
                31            32            33            34            35 
      1   0.219339D+00  0.362506D-01 -0.323475D+00  0.186499D+00 -0.587248D-01
      2   0.109714D-01  0.160281D+00  0.423142D-01 -0.277322D+00  0.705578D+00
      3  -0.948666D-01 -0.737967D-02  0.724833D+00  0.322041D-01 -0.876335D-01
                36            37            38            39            40 
      1   0.456158D-01  0.198454D+00  0.765625D-01  0.147742D+00  0.218897D+00
      2  -0.431021D+00  0.125473D+00  0.330401D+00  0.553739D+00  0.317234D-01
      3   0.199046D+00  0.897981D-01  0.168995D+00  0.626297D+00 -0.457119D-01
                41            42            43            44            45 
      1   0.328456D+00 -0.483272D+00  0.745048D+00  0.250488D+00  0.554054D+00
      2   0.498839D+00 -0.488190D+00  0.312380D+00  0.265697D+00  0.326106D+00
      3  -0.258895D+00  0.485096D+00  0.121688D+00  0.747726D-01  0.288748D+00
                46            47            48            49            50 
      1   0.106846D+01 -0.381886D-01 -0.503220D+00 -0.113295D+00 -0.978576D-01
      2  -0.131523D+00  0.175551D+00  0.529636D-01  0.202384D+00  0.208820D+00
      3  -0.401403D+00 -0.157261D-02  0.337432D+00  0.380167D+00  0.142757D+00
                51            52            53            54            55 
      1  -0.221755D+00 -0.152524D+00  0.613781D+00 -0.411922D+00  0.185511D+00
      2   0.151182D+00 -0.217674D+00  0.553748D+00 -0.342997D+00  0.598854D-01
      3   0.448099D+00  0.959475D-01 -0.159329D+00  0.220252D+00  0.290112D-01
                56            57            58            59            60 
      1   0.412428D+00  0.974238D+00  0.142772D+01 -0.369179D+00 -0.528077D+00
      2   0.274919D+00  0.416700D+00  0.161841D+00  0.997927D-01 -0.491084D-01
      3   0.164058D+00  0.598115D+00 -0.899770D-01  0.420322D-01  0.125344D+00
                61            62            63            64            65 
      1   0.465732D+00  0.337740D+00  0.746889D+00 -0.120198D+00 -0.650389D-01
      2  -0.960695D-01  0.200123D-01 -0.244861D+00  0.644508D+00  0.247766D+00
      3   0.221924D+00  0.199176D+00  0.534628D+00 -0.262591D+00 -0.712447D-01
                66            67            68            69 
      1   0.808405D-01  0.610164D+00 -0.769913D+00 -0.332579D+00
      2  -0.153076D+00 -0.476767D+00  0.814366D+00  0.284998D+00
      3   0.180165D+00 -0.120640D-01 -0.172193D-01  0.115355D+00
 Hessian after L701:
                1             2             3             4             5 
      1  0.148731D+02
      2 -0.822958D+00  0.177444D+02
      3 -0.215825D+00 -0.789273D-01  0.182822D+02
      4 -0.426030D+01  0.190819D+01 -0.251715D+00  0.150139D+02
      5  0.196139D+01 -0.430541D+01 -0.293660D+00 -0.190187D+00  0.165546D+02
      6 -0.260040D+00 -0.305597D+00 -0.597891D+01  0.530650D+00 -0.166588D+00
      7  0.219507D+00  0.112951D+00 -0.835328D-01 -0.282840D+01 -0.654312D+00
      8  0.159666D+00  0.637363D-02 -0.348326D-01 -0.688955D+00 -0.588586D+01
      9 -0.926082D-01 -0.199959D-01 -0.108178D+00 -0.135620D+01  0.240982D+00
     10 -0.300107D+01 -0.148791D+00  0.165339D+01  0.292945D+00  0.106462D+00
     11 -0.178464D+00 -0.625426D+01 -0.362448D-01  0.289813D+00 -0.335355D-01
     12  0.163921D+01 -0.411628D-01 -0.526284D+01  0.134491D+00  0.257525D-01
     13  0.211492D+00 -0.127754D+00 -0.191481D+00  0.117874D+00 -0.188657D+00
     14 -0.336214D-01 -0.137999D+00  0.185863D-01 -0.204651D+00  0.115726D+00
     15 -0.137722D+00  0.281874D-01 -0.111294D+00 -0.113528D+00  0.918186D-01
     16  0.200245D+00  0.283433D+00  0.779853D-01  0.175572D+00  0.215885D+00
     17  0.162774D+00 -0.246012D-01  0.165826D-01  0.220403D+00  0.285480D-02
     18  0.136972D+00  0.795034D-01 -0.148673D+00  0.459479D-01  0.363983D-01
     19  0.125226D+00 -0.256621D+00  0.888810D-02 -0.585506D-01 -0.227416D+00
     20 -0.103917D+00 -0.205734D-01 -0.356725D-02 -0.233105D+00  0.177296D+00
     21 -0.481673D-01  0.368757D-01 -0.138851D+00 -0.213004D-01  0.105713D-01
     22 -0.195852D-01  0.101174D+00 -0.747554D-01  0.342052D-02 -0.833636D-02
     23  0.571909D-01  0.730051D-01  0.653804D-01 -0.108632D-01 -0.354982D-02
     24 -0.722643D-01  0.592000D-01  0.105424D+00  0.576751D-02  0.840701D-02
     25  0.273562D-01  0.442035D-01 -0.171498D+00  0.435645D-01  0.511008D-02
     26  0.309849D-01  0.111278D+00  0.205701D-01  0.576804D-02 -0.342006D-01
     27 -0.135520D+00  0.389370D-01  0.847631D-02  0.647393D-01 -0.958431D-02
     28 -0.453095D+01 -0.104314D+01 -0.280238D+00  0.155919D+00 -0.229107D+00
     29 -0.120224D+01 -0.259084D+01  0.617060D+00 -0.172209D+00 -0.161495D+00
     30 -0.295890D+00  0.557794D+00 -0.478470D+01 -0.159674D-01  0.418122D-01
     31 -0.443633D+01  0.493113D-01 -0.468820D+00  0.339726D-02 -0.114109D+00
     32  0.422236D-01 -0.436755D+01 -0.374988D+00 -0.947793D-01 -0.359895D-01
     33 -0.466007D+00 -0.409549D+00 -0.211705D+01 -0.866488D-02  0.337460D-01
     34  0.156491D+00 -0.138856D+00  0.581876D-01 -0.414508D+01 -0.810023D+00
     35 -0.139255D+00 -0.121061D+00  0.689784D-01 -0.902274D+00 -0.286097D+01
     36  0.508138D-01  0.483575D-01  0.173822D+00  0.500887D+00 -0.929801D+00
     37  0.374380D-01 -0.124583D+00 -0.271819D-01 -0.435984D+01  0.145289D+00
     38 -0.130211D+00 -0.462712D-01 -0.339672D-01  0.156391D+00 -0.388982D+01
     39 -0.282891D-01 -0.471978D-01  0.184331D+00  0.340517D+00  0.940722D+00
     40  0.593058D-01  0.519627D-01 -0.634167D-01 -0.746935D-01 -0.446022D-04
     41  0.762331D-01 -0.123618D-01 -0.484188D-01 -0.200600D-01  0.154404D+00
     42 -0.849767D-01 -0.387621D-01  0.471347D-02  0.121430D+00 -0.501544D-01
     43  0.128201D+00  0.454968D-01  0.244210D-03 -0.145128D+00  0.246483D-01
     44  0.647668D-01 -0.298775D-01  0.164318D-02 -0.147418D-01  0.154951D+00
     45  0.187656D-01 -0.497662D-03 -0.393617D-01  0.912230D-01  0.165488D-01
     46  0.375361D-01 -0.182110D-01 -0.203482D-01  0.794338D-01 -0.725228D-01
     47 -0.650295D-02 -0.131022D-01  0.279695D-02 -0.677059D-01 -0.391769D-02
     48 -0.275784D-01  0.947471D-02 -0.276100D-02 -0.776583D-01  0.450445D-01
     49 -0.138899D-01 -0.201469D-01 -0.214319D-01 -0.209122D-02  0.752543D-02
     50 -0.400565D-01 -0.332460D-02  0.385529D-01 -0.676812D-02 -0.795262D-02
[...]
 .00004423,0.00082655,0.00075818,0.00187142,-0.01818629,0.02916432,-0.0
 0009948,-0.00024673,-0.00031389,-0.00013395,-0.00605492,-0.00386871,0.
 00008485,-0.00026774,0.00003492,-0.00017973,-0.00017714,-0.00029020,-0
 .00003718,0.00006187,0.00000620,0.00012343,-0.00002104,-0.00010731,0.0
 0058637,0.00073979,-0.00004547,-0.00261740,-0.00002783,-0.00152098,-0.
 00869019,0.12866181,0.00057082,-0.00022326,-0.00006456,-0.00206739,0.0
 0760948,-0.01640807,-0.01582911,0.11497871,-0.23840370,0.00038305,-0.0
 0034350,-0.00068555,0.00072969,-0.00507572,0.00718242,0.00016900,0.000
 02782,0.00055594,0.00030528,-0.00134896,0.00045620,-0.00032383,-0.0000
 9928,-0.00006652,0.00130048,0.00030115,0.00029571,0.00003812,-0.000014
 56,0.00004298,-0.00008665,-0.00002269,0.00009584,0.00018391,-0.0003880
 0,0.00038104,-0.00316748,-0.00175396,-0.00052423,0.01854515,-0.1228908
 4,0.26087202,-0.00206958,-0.00312150,-0.00443452,-0.02358869,0.0046283
 7,0.01381982,-0.22411474,0.03987896,0.11322064,0.00027838,0.00015247,-
 0.00064582,-0.00107848,0.00021295,0.00101120,0.00000298,-0.00009587,0.
 00012841,0.00009549,-0.00025748,-0.00030348,-0.00001480,-0.00008479,0.
 00003777,0.00013661,0.00004257,-0.00000250,0.00024080,0.00017557,-0.00
 002537,-0.00161523,0.00039069,0.00067800,0.00063220,-0.00046791,0.0002
 4702,0.00094426,0.00070889,-0.00010038,0.00204612,-0.00111369,-0.00085
 997,0.24590126,-0.00139832,-0.00049324,-0.00134639,-0.00935303,0.00164
 017,0.00624066,0.03941489,-0.05547396,-0.02345764,-0.00007381,0.000272
 30,-0.00013610,0.02827722,-0.00937595,-0.01903902,-0.00003784,-0.00009
 339,-0.00008938,0.00068184,0.00186538,-0.00123650,0.00010727,0.0000278
 3,0.00002224,-0.00002307,-0.00021285,-0.00010617,-0.00025781,0.0000994
 1,-0.00009238,-0.00054205,0.00023488,0.00011479,0.00022765,0.00008547,
 0.00058712,0.00054642,0.00040532,-0.00007708,-0.01440340,0.00278210,0.
 00850959,-0.04190092,0.06317811,-0.00240018,-0.00169883,-0.00218559,-0
 .01789232,0.00348471,0.00905726,0.11436988,-0.02373016,-0.11957312,-0.
 00010638,-0.00030696,-0.00059552,0.00600120,-0.00214826,-0.00523199,0.
 00009687,0.00004581,0.00037458,-0.00107339,0.00044303,0.00077575,-0.00
 004510,-0.00002133,0.00004398,0.00012003,0.00015052,0.00046046,0.00007
 601,0.00010548,-0.00004356,-0.00099708,0.00015172,0.00036009,0.0008875
 5,0.00023718,0.00046397,0.00045289,0.00052187,0.00096094,0.02305919,-0
 .00527488,-0.01512767,-0.12209600,0.03002294,0.12941634,0.00004106,0.0
 0037939,-0.00008027,0.00071216,0.00042387,0.00046158,0.00193921,0.0015
 3124,0.00210714,0.00006468,-0.00004995,-0.00010550,-0.22993351,-0.0536
 6178,-0.10866863,0.00002649,-0.00000721,0.00000339,-0.00091005,0.00021
 267,-0.00047477,-0.00003607,-0.00008106,0.00002354,-0.00006093,0.00005
 569,-0.00012544,0.00031776,-0.00028117,0.00005259,0.00003574,-0.000227
 78,-0.00004726,0.00001194,0.00006886,-0.00005802,-0.00000536,0.0000007
 7,0.00000030,0.00002199,-0.00062918,0.00015407,0.00071322,-0.00036952,
 -0.00009308,0.24665462,0.00080400,-0.00023821,-0.00002420,0.00230613,-
 0.00633139,-0.00002254,-0.02902493,-0.01030390,-0.01727396,-0.00009608
 ,0.00007322,-0.00009285,-0.05318248,-0.06090995,-0.03263925,0.00002665
 ,-0.00003210,0.00007952,0.01789266,0.00342436,0.01123098,0.00001377,0.
 00001954,-0.00005154,0.00002545,0.00000990,0.00001738,-0.00004700,0.00
 021399,0.00015284,-0.00010625,0.00010404,0.00004524,-0.00152838,-0.000
 82718,-0.00121394,0.00008795,0.00005946,-0.00019976,-0.00019815,0.0010
 8081,0.00076234,0.00040315,0.00140729,-0.00008928,0.05769173,0.0720270
 4,0.00032437,-0.00009314,0.00015522,0.00109201,-0.00161718,0.00084766,
 -0.00615053,-0.00248226,-0.00438142,-0.00007897,-0.00000712,-0.0000150
 3,-0.10758935,-0.03232466,-0.11319461,0.00000379,-0.00000565,0.0000452
 7,-0.02400671,-0.00513312,-0.01542942,0.00002337,0.00004168,0.00000781
 ,0.00003532,-0.00004895,0.00008828,-0.00004460,0.00023968,-0.00009460,
 -0.00005655,0.00014250,0.00002924,-0.00053590,-0.00021443,-0.00023880,
 0.00015227,0.00029414,0.00018815,0.00039359,-0.00000577,0.00050682,-0.
 00005974,0.00021885,-0.00016704,0.11950616,0.03320591,0.12362034,-0.00
 100413,-0.00025459,-0.00032405,0.00006789,0.00017213,-0.00047870,-0.00
 089257,0.00167052,0.00037442,-0.00003441,-0.00017236,-0.00002835,-0.20
 388205,0.03699218,0.12101196,-0.00001532,-0.00006402,-0.00011528,0.002
 92058,-0.00095740,-0.00244292,-0.00001684,0.00000340,-0.00007353,0.000
 13688,-0.00000294,-0.00001030,-0.00105056,-0.00113861,-0.00076422,0.00
 022498,-0.00017590,-0.00007107,0.00007155,0.00013008,0.00018786,0.0000
 0964,-0.00009263,-0.00005684,0.00006842,0.00051073,-0.00000252,0.00131
 791,0.00023575,-0.00057465,-0.02173704,0.00502126,0.01618879,0.2218751
 3,-0.00063416,-0.00001349,-0.00038855,0.00069193,0.00119701,0.00045140
 ,0.02728016,-0.00758121,-0.02012201,-0.00055555,-0.00022939,-0.0003240
 2,0.03676367,-0.05587026,-0.02965868,-0.00001590,0.00013157,0.00018250
 ,-0.01589647,0.00300822,0.01303766,0.00020988,0.00022340,0.00009072,-0
 .00003888,-0.00051261,0.00060748,-0.00079491,-0.00003238,-0.00029700,-
 0.00000770,0.00020308,0.00018371,-0.00002822,0.00013497,0.00023630,-0.
 00004682,-0.00006709,-0.00001733,-0.00006956,0.00126989,0.00061206,-0.
 00012825,-0.00657070,-0.00161288,-0.00615781,0.00096538,0.00527582,-0.
 04124711,0.06461097,0.00025648,-0.00072594,0.00005966,0.00084037,0.000
 16975,-0.00031941,0.00525653,-0.00176992,-0.00443930,0.00003329,0.0003
 0861,0.00032504,0.11915553,-0.02966349,-0.14061137,-0.00003803,-0.0000
 0095,-0.00000414,0.02166427,-0.00415207,-0.01856138,0.00006145,0.00011
 727,-0.00007877,0.00000601,0.00007835,0.00006382,-0.00093398,0.0001608
 3,-0.00039909,-0.00001395,0.00041017,0.00001459,-0.00022324,0.00003823
 ,0.00008564,-0.00001470,-0.00002243,0.00006434,-0.00033336,-0.00009803
 ,0.00043180,-0.00009992,-0.00117744,0.00064196,-0.01229627,0.00352498,
 0.01029356,-0.13215639,0.02983661,0.15454219,0.00130304,0.00080321,-0.
 00145211,-0.00012122,-0.00017422,-0.00007495,0.00001588,0.00005505,-0.
 00008109,-0.00777293,0.03251260,0.00140361,-0.00013744,0.00006741,0.00
 015463,-0.05751759,0.05258731,0.00056706,0.00003680,-0.00005523,-0.000
 02988,-0.00576028,0.00055143,0.00273429,0.00124473,-0.00021038,-0.0008
 1045,0.00010845,-0.00075421,0.00046686,-0.00000276,-0.00014794,0.00011
 812,0.00014294,-0.00018289,-0.00013432,-0.00000292,-0.00009692,0.00001
 805,0.00007224,0.00002242,0.00005346,0.00000399,-0.00004319,0.00001367
 ,0.00002790,-0.00001664,-0.00002683,0.00002801,-0.00003038,-0.00006148
 ,0.06413874,-0.00061464,0.00065265,0.00027890,-0.00002297,0.00045475,-
 0.00004547,0.00000704,-0.00004933,0.00004529,0.00145795,-0.00440894,-0
 .00008380,0.00000452,-0.00001558,-0.00003472,0.05328564,-0.30157083,-0
 .00560114,0.00001326,0.00002487,0.00000901,0.00087126,0.00159962,0.000
 05491,0.00043537,0.00054089,0.00005369,0.00022302,0.00028343,-0.000712
 56,0.00012182,-0.00010904,-0.00006686,-0.00017088,-0.00000843,0.000153
 26,0.00008491,-0.00000248,-0.00006755,-0.00004739,0.00001951,-0.000037
 88,0.00001324,0.00002184,-0.00001516,0.00000429,0.00001358,0.00000165,
 0.00007840,-0.00002811,-0.00003420,-0.06027987,0.32699110,-0.00040941,
 -0.00131369,0.00085144,0.00007809,0.00006996,-0.00011767,-0.00000819,0
 .00001029,0.00007464,0.00243033,-0.01179047,-0.00125913,-0.00000996,0.
 00000364,-0.00001761,0.00051785,-0.00523342,-0.04782937,0.00002875,0.0
 0000662,0.00001698,0.00243460,-0.00020283,-0.00022840,-0.00044951,0.00
 059169,0.00021867,0.00023304,0.00041579,-0.00002036,-0.00010351,-0.000
 08565,-0.00006261,-0.00008515,0.00014618,0.00001043,0.00000396,0.00004
 506,-0.00000539,-0.00003944,0.00000271,-0.00002633,-0.00002543,-0.0000
 0604,-0.00002731,-0.00002389,-0.00000044,0.00000068,0.00003507,-0.0000
 0260,0.00003117,-0.00309773,0.00635130,0.04720319,-0.00627957,0.002043
 76,0.00048316,0.00044746,-0.00090487,0.00190190,0.00022497,0.00001112,
 0.00010025,-0.00159959,-0.01279365,0.02989084,-0.00003196,0.00003496,-
 0.00001857,-0.04847735,-0.00804660,0.01967885,0.00001856,-0.00001392,0
 .00000055,0.00125283,0.00032882,-0.00054091,0.00113588,-0.00055874,-0.
 00067914,-0.00003704,-0.00008845,-0.00023017,0.00014504,0.00026535,0.0
 0013995,0.00000994,0.00006107,-0.00000797,-0.00063497,0.00013934,0.000
 34110,-0.00001906,0.00001685,-0.00009141,-0.00004366,-0.00000031,-0.00
 004773,-0.00003061,-0.00003977,-0.00000679,0.00002919,0.00000126,0.000
 02154,-0.00058671,0.00167781,-0.00645500,0.05263499,0.00069122,0.00020
 875,-0.00028079,0.00026333,0.00055589,-0.00017509,0.00003301,-0.000013
 47,-0.00001918,0.00019791,0.00118152,-0.00649260,0.00000723,-0.0000067
 3,-0.00002026,-0.00850843,-0.08311204,0.09140571,0.00001014,-0.0000009
 8,0.00000403,-0.00053346,0.00026323,-0.00019915,-0.00036689,-0.0000444
 5,0.00031491,0.00014143,0.00046908,-0.00033789,0.00017587,-0.00008956,
 0.00027021,-0.00011939,0.00001210,0.00005903,0.00008106,-0.00001350,-0
 .00004634,0.00000158,0.00000828,0.00000821,0.00000451,-0.00000260,0.00
 000728,-0.00002328,-0.00000214,0.00000550,0.00003137,0.00000035,0.0000
 2510,-0.00275632,-0.01064116,0.03021794,0.00841070,0.08567114,0.003019
 48,-0.00123774,0.00037312,-0.00040004,0.00071372,-0.00038521,0.0000149
 6,-0.00005889,-0.00016552,-0.00057775,0.00338757,-0.00904726,0.0000128
 7,-0.00003447,0.00001963,0.02081149,0.09104452,-0.27955439,-0.00002125
 ,0.00000745,-0.00000186,-0.00005660,-0.00044943,0.00005436,0.00024943,
 0.00011161,0.00064193,-0.00010822,0.00005883,0.00009571,0.00004301,-0.
 00000860,0.00052607,0.00001461,-0.00006092,-0.00000133,0.00027417,-0.0
 0005274,-0.00015459,-0.00001141,0.00000407,0.00003926,0.00008752,0.000
 03156,0.00003971,0.00003687,0.00003286,0.00000586,-0.00001766,-0.00001
 537,-0.00002780,-0.00062049,-0.00060963,0.00190676,-0.02452372,-0.0999
 0053,0.30235035,0.00113384,-0.00001149,-0.00203589,0.00016561,0.000327
 53,0.00016256,-0.00006637,0.00008694,-0.00027456,-0.02285876,-0.014863
 69,-0.01825546,0.00009099,0.00000591,0.00001238,-0.16535286,-0.0812748
 8,-0.10416202,-0.00005888,-0.00000104,-0.00000361,0.00123680,0.0003910
 3,-0.00033550,-0.00514752,0.00152469,0.00311766,-0.00000808,0.00001972
 ,0.00009686,0.00037859,-0.00006001,0.00118576,-0.00005146,0.00003246,-
 0.00001004,0.00000175,0.00000844,0.00004619,0.00013340,-0.00014647,0.0
 0018348,0.00003635,-0.00004762,0.00016078,-0.00001600,0.00000884,0.000
 01455,-0.00004228,0.00011176,0.00000710,0.00478291,0.00285236,0.004966
 16,0.00186615,0.00226869,0.00174449,0.18375356,-0.00017991,-0.00019297
 ,-0.00008623,0.00008242,0.00006475,0.00030587,0.00009245,-0.00003607,-
 0.00004910,0.00456100,0.00263772,0.00382455,0.00005132,-0.00002129,-0.
 00003631,-0.08185158,-0.10313678,-0.07057662,-0.00001854,0.00000567,-0
 .00000187,-0.00024151,0.00048051,0.00068440,0.00147817,0.00098309,-0.0
 0039997,-0.00008383,-0.00004226,-0.00008915,-0.00028139,0.00007669,0.0
 0031325,0.00001345,-0.00003433,-0.00001306,-0.00005591,-0.00001833,0.0
 0002142,0.00000207,0.00001554,-0.00000979,0.00002890,0.00003498,0.0000
 0229,-0.00000092,0.00000215,0.00000615,0.00001606,-0.00000336,0.000000
 36,-0.02185464,-0.01377742,-0.01923193,0.00943466,0.00556060,0.0070451
 2,0.08880495,0.10739944,0.00073226,0.00050804,0.00166822,0.00006571,-0
 .00009162,0.00018690,0.00012110,0.00002577,-0.00005676,0.00841124,0.00
 649598,0.00663055,0.00001647,-0.00001067,-0.00002569,-0.10511507,-0.07
 079342,-0.13849549,0.00001649,0.00000170,0.00000198,-0.00084731,0.0001
 8278,0.00036539,0.00280719,0.00010648,-0.00014412,-0.00004717,0.000041
 49,-0.00005538,-0.00026475,-0.00033974,0.00001420,-0.00001714,0.000014
 68,-0.00000402,-0.00006256,-0.00000755,0.00002249,-0.00005858,0.000011
 11,-0.00005999,0.00000419,0.00003568,-0.00004078,-0.00000263,-0.000006
 87,-0.00000368,-0.00000072,-0.00001664,0.00001071,0.00085844,0.0003766
 6,-0.00067869,-0.01992825,-0.01482834,-0.01674116,0.11332699,0.0782848
 8,0.14741850,-0.00013436,0.00033846,-0.00001258,-0.00010211,-0.0000213
 7,0.00031597,0.00052552,-0.00005520,-0.00013180,0.00012846,-0.00017346
 ,-0.00006492,0.00239312,-0.00096117,-0.00187332,0.00000949,0.00002874,
 -0.00000936,-0.19469913,0.04153918,0.12430476,-0.00002821,-0.00004621,
 0.00006640,-0.00000633,0.00001290,0.00000183,0.00026333,-0.00006591,-0
 .00012486,-0.00001134,-0.00007925,0.00000553,0.00003098,-0.00004045,-0
 .00007402,-0.00029900,-0.00003896,-0.00015684,0.00009340,-0.00015408,-
 0.00016397,-0.00008993,-0.00056744,0.00020056,0.00052477,-0.00049458,0
 .00029218,0.00133514,0.00053852,-0.00075743,0.00001324,-0.00000945,-0.
 00001420,0.00000450,-0.00000895,0.00000624,0.00000064,-0.00000387,-0.0
 0000730,0.20855823,-0.00002024,0.00011977,0.00016349,-0.00004403,0.000
 05110,0.00005359,-0.00138115,0.00158090,0.00043495,0.00006783,-0.00008
 152,0.00006072,-0.01546637,0.00308677,0.01262730,-0.00000223,-0.000023
 83,-0.00003943,0.04178576,-0.05909981,-0.03628351,-0.00004650,-0.00005
 292,0.00000507,-0.00004316,0.00002378,-0.00007995,0.00012136,-0.000031
 05,0.00000801,0.00003526,-0.00002978,-0.00002946,0.00003012,0.00001573
 ,-0.00008945,-0.00008751,0.00004634,-0.00020497,0.00018291,0.00025162,
 -0.00018180,0.00057928,-0.00004347,-0.00028853,0.00024497,0.00047213,-
 0.00086195,0.00016479,-0.00195421,0.00377108,0.00001198,0.00000289,0.0
 0000253,0.00000667,0.00000192,-0.00000691,-0.00001477,-0.00000073,0.00
 000434,-0.04618074,0.06114297,-0.00007754,-0.00007156,0.00003264,0.000
 00874,0.00029974,0.00022492,0.00008093,-0.00163895,0.00122940,-0.00011
 517,-0.00004738,-0.00009741,0.02166590,-0.00523384,-0.01901585,0.00000
 654,0.00000863,0.00004491,0.12403753,-0.03598768,-0.15171686,0.0000508
 4,0.00003009,0.00004275,0.00001347,-0.00006350,0.00010895,-0.00003129,
 0.00001201,-0.00011304,-0.00001067,0.00004625,0.00003536,0.00007764,0.
 00004191,0.00002283,0.00017205,0.00020130,-0.00012512,-0.00038734,-0.0
 0022972,0.00018042,-0.00040370,0.00090008,0.00040063,-0.00028531,-0.00
 071664,0.00057963,-0.00133545,0.00362042,-0.00399328,-0.00002301,-0.00
 000020,-0.00000891,-0.00000376,-0.00000045,-0.00000218,0.00002648,0.00
 000981,0.00000150,-0.13736060,0.03624316,0.16708608,0.00028093,-0.0004
 5098,0.00009350,-0.00015676,-0.00040439,-0.00092687,-0.00031834,-0.000
 24886,-0.00048670,-0.00010609,-0.00000344,0.00003659,-0.00057202,0.000
 58987,-0.00057691,0.00002460,0.00000151,0.00005575,-0.24952906,-0.0354
 3672,-0.10881043,-0.00002712,0.00001767,0.00000583,-0.00000487,-0.0000
 0291,0.00005432,0.00001142,0.00014301,0.00017899,0.00001341,-0.0000195
 5,-0.00001914,0.00000956,-0.00008444,0.00037070,0.00010374,-0.00037428
 ,0.00072777,0.00011408,0.00020139,0.00006726,0.00003595,-0.00004362,-0
 .00002338,0.00152678,0.00014492,0.00021388,0.00061999,0.00037816,-0.00
 023070,-0.00000864,0.00000383,-0.00000368,-0.00001516,-0.00000365,0.00
 001141,0.00001629,0.00000189,-0.00000474,-0.02038922,-0.00437617,-0.01
 150388,0.26928199,-0.00011247,-0.00016438,-0.00013232,-0.00018335,-0.0
 0097984,-0.00016387,0.00070380,0.00090691,-0.00029174,0.00012538,0.000
 06993,0.00015672,0.01796289,0.00355678,0.00852101,-0.00004069,0.000044
 83,-0.00006203,-0.03652153,-0.05344404,-0.01989046,-0.00000626,0.00002
 084,-0.00004692,-0.00003631,-0.00000864,-0.00004261,-0.00023373,0.0001
 8478,0.00020833,0.00001251,0.00002771,-0.00000719,0.00002869,0.0002099
 4,-0.00009437,-0.00019004,-0.00199205,-0.00020869,-0.00028504,0.000127
 82,-0.00015065,-0.00002069,-0.00008196,0.00005235,0.00033112,-0.001927
 33,0.00350492,-0.00042993,0.00071519,-0.00088985,0.00000926,-0.0000175
 0,0.00000415,0.00003694,-0.00000428,-0.00002837,-0.00000325,-0.0000022
 8,0.00000863,0.00677633,0.00013731,0.00402014,0.04038788,0.05664082,-0
 .00008083,0.00053314,0.00008803,-0.00017820,0.00004803,0.00028493,0.00
 023519,-0.00092885,0.00046179,0.00002166,-0.00029011,-0.00017687,-0.02
 483655,-0.00494308,-0.01430507,0.00003368,0.00003321,0.00004125,-0.108
 41080,-0.01954451,-0.10509734,-0.00003310,-0.00006691,0.00012569,-0.00
 000966,0.00002505,0.00005822,0.00055432,0.00003604,-0.00032890,0.00001
 534,-0.00017220,-0.00000413,0.00018725,-0.00009781,0.00016843,0.000098
 71,-0.00038582,0.00042041,0.00008128,-0.00002651,0.00005162,0.00004232
 ,0.00005676,0.00001278,0.00009258,0.00401573,-0.00416826,0.00019290,-0
 .00088197,0.00092903,0.00001284,-0.00000896,-0.00003019,-0.00001593,-0
 .00001857,0.00002334,0.00001536,-0.00000041,-0.00000903,0.01826766,0.0
 0409113,0.01058178,0.12043869,0.01967854,0.11542484,0.00007873,0.00004
 191,0.00004000,-0.00000271,-0.00008503,-0.00039916,0.00028926,0.000515
 99,-0.00099719,-0.00001291,-0.00006393,-0.00005850,-0.00128760,0.00294
 820,0.00073439,0.00002696,-0.00002114,0.00002643,-0.04810912,-0.015210
 31,-0.00341380,-0.00001825,-0.00000177,0.00003719,0.00001846,0.0000076
 6,0.00004028,0.00009235,-0.00007076,-0.00009522,0.00001582,-0.00001842
 ,-0.00000139,0.00003307,-0.00008436,0.00019962,-0.00011980,-0.00005430
 ,0.00041935,0.00032953,0.00034299,-0.00009144,0.00022958,-0.00042908,-
 0.00008935,0.00011125,0.00030778,0.00031569,-0.00003009,-0.00032363,-0
 .00014314,-0.00000840,0.00001046,-0.00000276,-0.00001383,0.00000231,0.
 00001058,0.00000532,0.00000477,-0.00000388,0.00187881,0.02443192,0.005
 39760,-0.00091146,-0.02831152,-0.00672470,0.04740500,0.00008854,-0.000
 08504,-0.00002293,0.00036453,0.00043821,0.00021674,0.00002032,-0.00034
 510,0.00444718,-0.00004172,0.00002079,0.00000447,-0.00074620,-0.016545
 63,-0.00555294,0.00002715,-0.00004113,0.00000216,-0.01491924,-0.299555
 78,-0.06505676,0.00000090,0.00002214,0.00000736,0.00002518,-0.00002592
 ,-0.00004446,0.00002843,-0.00001307,0.00000273,-0.00008048,-0.00001064
 ,0.00000929,-0.00004202,-0.00005193,-0.00001134,0.00004989,0.00015133,
 0.00004218,-0.00004580,-0.00130269,-0.00026847,-0.00002846,0.00029303,
 -0.00003891,0.00054503,0.00069932,-0.00014258,-0.00049120,0.00040280,0
 .00009299,-0.00001784,0.00002369,-0.00000080,-0.00002300,-0.00000194,0
 .00002630,-0.00002011,0.00000469,-0.00000335,-0.00033303,-0.00561592,-
 0.00144365,-0.00042111,-0.00402058,-0.00115189,0.01606024,0.32555938,0
 .00004706,0.00000208,0.00011896,-0.00031901,-0.00026087,-0.00069504,-0
 .00027612,0.00203320,-0.00545389,-0.00005670,0.00000056,-0.00002914,0.
 00138050,0.02903165,0.00789952,0.00000829,-0.00000108,0.00003859,-0.00
 334319,-0.06617201,-0.06302276,-0.00000858,-0.00002420,0.00000610,-0.0
 0001714,0.00003070,0.00004393,0.00003288,-0.00004844,-0.00004812,0.000
 05115,-0.00001356,-0.00001675,0.00006191,-0.00007432,0.00024755,0.0001
 1315,-0.00009530,0.00048901,-0.00017263,0.00176920,0.00027455,-0.00022
 005,0.00002385,-0.00001589,-0.00017717,-0.00073651,0.00132434,0.000461
 63,-0.00079765,0.00094102,0.00001133,-0.00000655,-0.00000198,-0.000008
 78,0.00000129,0.00000521,0.00001027,-0.00000365,-0.00000564,-0.0027099
 4,-0.01939941,-0.00549913,0.00033174,-0.01414570,-0.00455235,0.0047993
 9,0.06888672,0.06795190\\0.,0.00000120,-0.00000059,-0.00000171,0.00000
 008,0.00000069,-0.00000076,-0.00000091,-0.00000163,0.00000085,0.000000
 63,0.00000098,0.00000136,-0.00000154,-0.00000108,-0.00000106,0.0000023
 7,0.00000178,0.00000205,-0.00000146,0.00000009,-0.00000157,0.00000066,
 0.00000042,0.00000050,0.00000017,-0.00000005,0.00000043,0.00000096,0.0
 0000055,-0.00000141,0.00000174,0.00000073,-0.00000237,-0.00000050,-0.0
 0000035,-0.00000127,0.00000016,-0.00000055,-0.00000058,-0.00000200,-0.
 00000107,-0.00000111,-0.00000249,-0.00000160,0.00000166,-0.00000243,-0
 .00000120,0.00000156,-0.00000079,-0.00000010,0.00000079,0.00000227,0.0
 0000171,0.00000040,0.00000202,0.00000121,-0.00000108,0.00000310,0.0000
 0182,0.00000060,-0.00000187,-0.00000104,0.00000017,-0.00000031,-0.0000
 0040,0.00000254,-0.00000106,-0.00000032\\\@


 THERE IS NO CURE FOR BIRTH AND DEATH SAVE TO ENJOY THE INTERVAL.

                               -- GEORGE SANTAYANA
 Job cpu time:       0 days  7 hours 38 minutes 39.0 seconds.
 Elapsed time:       0 days  3 hours 49 minutes 24.3 seconds.
 File lengths (MBytes):  RWF=   1488 Int=      0 D2E=      0 Chk=     32 Scr=     32
 Normal termination of Gaussian 16 at Sat Sep 28 19:10:43 2019.
