 Entering Gaussian System, Link 0=g16
 Input=med/species/CCCCCCC/conformers/CCCCCCC_344.com
 Output=med/species/CCCCCCC/conformers/CCCCCCC_344.log
 Initial command:
 /shared/centos7/gaussian/g16/l1.exe "/scratch/harms.n/gauss_scrdir/Gau-23946.inp" -scrdir="/scratch/harms.n/gauss_scrdir/"
 Entering Link 1 = /shared/centos7/gaussian/g16/l1.exe PID=     23947.
  
 Copyright (c) 1988,1990,1992,1993,1995,1998,2003,2009,2016,
            Gaussian, Inc.  All Rights Reserved.
  
 This is part of the Gaussian(R) 16 program.  It is based on
 the Gaussian(R) 09 system (copyright 2009, Gaussian, Inc.),
 the Gaussian(R) 03 system (copyright 2003, Gaussian, Inc.),
 the Gaussian(R) 98 system (copyright 1998, Gaussian, Inc.),
 the Gaussian(R) 94 system (copyright 1995, Gaussian, Inc.),
 the Gaussian 92(TM) system (copyright 1992, Gaussian, Inc.),
 the Gaussian 90(TM) system (copyright 1990, Gaussian, Inc.),
 the Gaussian 88(TM) system (copyright 1988, Gaussian, Inc.),
 the Gaussian 86(TM) system (copyright 1986, Carnegie Mellon
 University), and the Gaussian 82(TM) system (copyright 1983,
 Carnegie Mellon University). Gaussian is a federally registered
 trademark of Gaussian, Inc.
  
 This software contains proprietary and confidential information,
 including trade secrets, belonging to Gaussian, Inc.
  
 This software is provided under written license and may be
 used, copied, transmitted, or stored only in accord with that
 written license.
  
 The following legend is applicable only to US Government
 contracts under FAR:
  
                    RESTRICTED RIGHTS LEGEND
  
 Use, reproduction and disclosure by the US Government is
 subject to restrictions as set forth in subparagraphs (a)
 and (c) of the Commercial Computer Software - Restricted
 Rights clause in FAR 52.227-19.
  
 Gaussian, Inc.
 340 Quinnipiac St., Bldg. 40, Wallingford CT 06492
  
  
 ---------------------------------------------------------------
 Warning -- This program may not be used in any manner that
 competes with the business of Gaussian, Inc. or will provide
 assistance to any competitor of Gaussian, Inc.  The licensee
 of this program is prohibited from giving any competitor of
 Gaussian, Inc. access to this program.  By using this program,
 the user acknowledges that Gaussian, Inc. is engaged in the
 business of creating and licensing software in the field of
 computational chemistry and represents and warrants to the
 licensee that it is not a competitor of Gaussian, Inc. and that
 it will not use this program in any manner prohibited above.
 ---------------------------------------------------------------
  

 Cite this work as:
 Gaussian 16, Revision A.03,
 M. J. Frisch, G. W. Trucks, H. B. Schlegel, G. E. Scuseria, 
 M. A. Robb, J. R. Cheeseman, G. Scalmani, V. Barone, 
 G. A. Petersson, H. Nakatsuji, X. Li, M. Caricato, A. V. Marenich, 
 J. Bloino, B. G. Janesko, R. Gomperts, B. Mennucci, H. P. Hratchian, 
 J. V. Ortiz, A. F. Izmaylov, J. L. Sonnenberg, D. Williams-Young, 
 F. Ding, F. Lipparini, F. Egidi, J. Goings, B. Peng, A. Petrone, 
 T. Henderson, D. Ranasinghe, V. G. Zakrzewski, J. Gao, N. Rega, 
 G. Zheng, W. Liang, M. Hada, M. Ehara, K. Toyota, R. Fukuda, 
 J. Hasegawa, M. Ishida, T. Nakajima, Y. Honda, O. Kitao, H. Nakai, 
 T. Vreven, K. Throssell, J. A. Montgomery, Jr., J. E. Peralta, 
 F. Ogliaro, M. J. Bearpark, J. J. Heyd, E. N. Brothers, K. N. Kudin, 
 V. N. Staroverov, T. A. Keith, R. Kobayashi, J. Normand, 
 K. Raghavachari, A. P. Rendell, J. C. Burant, S. S. Iyengar, 
 J. Tomasi, M. Cossi, J. M. Millam, M. Klene, C. Adamo, R. Cammi, 
 J. W. Ochterski, R. L. Martin, K. Morokuma, O. Farkas, 
 J. B. Foresman, and D. J. Fox, Gaussian, Inc., Wallingford CT, 2016.
 
 ******************************************
 Gaussian 16:  EM64L-G16RevA.03 25-Dec-2016
                28-Sep-2019 
 ******************************************
 %nprocshared=20
 Will use up to   20 processors via shared memory.
 %mem=5GB
 ----------------------------------------------------------------------
 #p m062x/cc-pVTZ opt=(calcfc,maxcycles=900,Tight) freq IOP(7/33=1,2/16
 =3) scf=(maxcycle=900)
 ----------------------------------------------------------------------
 1/6=900,7=10,10=4,18=20,19=15,26=3,38=1/1,3;
 2/9=110,12=2,16=3,17=6,18=5,40=1/2;
 3/5=16,6=1,11=2,25=1,30=1,71=2,74=-55,140=1/1,2,3;
 4//1;
 5/5=2,7=900,38=5/2;
 8/6=4,10=90,11=11/1;
 11/6=1,8=1,9=11,15=111,16=1/1,2,10;
 10/6=1,13=1/2;
 6/7=2,8=2,9=2,10=2,28=1/1;
 7/10=1,18=20,25=1,33=1/1,2,3,16;
 1/6=900,7=10,10=4,18=20,19=15,26=3/3(2);
 2/9=110,16=3/2;
 99//99;
 2/9=110,16=3/2;
 3/5=16,6=1,11=2,25=1,30=1,71=1,74=-55/1,2,3;
 4/5=5,16=3,69=1/1;
 5/5=2,7=900,38=5/2;
 7/33=1/1,2,3,16;
 1/6=900,7=10,18=20,19=15,26=3/3(-5);
 2/9=110,16=3/2;
 6/7=2,8=2,9=2,10=2,19=2,28=1/1;
 99/9=1/99;
 Leave Link    1 at Sat Sep 28 01:51:43 2019, MaxMem=   671088640 cpu:               4.3 elap:               2.2
 (Enter /shared/centos7/gaussian/g16/l101.exe)
 ------------------------------
 Gaussian input prepared by ASE
 ------------------------------
 Symbolic Z-matrix:
 Charge =  0 Multiplicity = 1
 C                     1.34993  -1.11392   0.61973 
 C                     0.1425   -0.27536   0.86651 
 C                     0.42552   1.0511    1.52635 
 C                     2.16594  -0.78269  -0.5842 
 C                     1.11342   2.067     0.64518 
 C                     1.47869  -0.0854   -1.68468 
 C                     0.20872   2.62183  -0.42421 
 H                     2.60285  -1.74492  -0.97453 
 H                     3.0483   -0.17685  -0.26773 
 H                     1.02256  -2.17316   0.5533 
 H                     2.00482  -1.07587   1.51433 
 H                    -0.54453  -0.84093   1.51521 
 H                    -0.39929  -0.11509  -0.08953 
 H                     1.04186   0.87878   2.42499 
 H                    -0.53298   1.48133   1.8832 
 H                     1.48272   2.90777   1.28879 
 H                     2.00484   1.61805   0.175 
 H                     0.39007   0.00636  -1.51042 
 H                     1.87662   0.96408  -1.81796 
 H                     1.61988  -0.60923  -2.65378 
 H                    -0.83968   2.49952  -0.14948 
 H                     0.37887   2.09762  -1.40508 
 H                     0.39342   3.72254  -0.58611 
 
 ITRead=  0  0  0  0  0  0  0  0  0  0  0  0  0  0  0  0  0  0  0  0
 ITRead=  0  0  0
 MicOpt= -1 -1 -1 -1 -1 -1 -1 -1 -1 -1 -1 -1 -1 -1 -1 -1 -1 -1 -1 -1
 MicOpt= -1 -1 -1
 NAtoms=     23 NQM=       23 NQMF=       0 NMMI=      0 NMMIF=      0
                NMic=       0 NMicF=      0.
                    Isotopes and Nuclear Properties:
 (Nuclear quadrupole moments (NQMom) in fm**2, nuclear magnetic moments (NMagM)
  in nuclear magnetons)

  Atom         1           2           3           4           5           6           7           8           9          10
 IAtWgt=          12          12          12          12          12          12          12           1           1           1
 AtmWgt=  12.0000000  12.0000000  12.0000000  12.0000000  12.0000000  12.0000000  12.0000000   1.0078250   1.0078250   1.0078250
 NucSpn=           0           0           0           0           0           0           0           1           1           1
 AtZEff=  -0.0000000  -0.0000000  -0.0000000  -0.0000000  -0.0000000  -0.0000000  -0.0000000  -0.0000000  -0.0000000  -0.0000000
 NQMom=    0.0000000   0.0000000   0.0000000   0.0000000   0.0000000   0.0000000   0.0000000   0.0000000   0.0000000   0.0000000
 NMagM=    0.0000000   0.0000000   0.0000000   0.0000000   0.0000000   0.0000000   0.0000000   2.7928460   2.7928460   2.7928460
 AtZNuc=   6.0000000   6.0000000   6.0000000   6.0000000   6.0000000   6.0000000   6.0000000   1.0000000   1.0000000   1.0000000

  Atom        11          12          13          14          15          16          17          18          19          20
 IAtWgt=           1           1           1           1           1           1           1           1           1           1
 AtmWgt=   1.0078250   1.0078250   1.0078250   1.0078250   1.0078250   1.0078250   1.0078250   1.0078250   1.0078250   1.0078250
 NucSpn=           1           1           1           1           1           1           1           1           1           1
 AtZEff=  -0.0000000  -0.0000000  -0.0000000  -0.0000000  -0.0000000  -0.0000000  -0.0000000  -0.0000000  -0.0000000  -0.0000000
 NQMom=    0.0000000   0.0000000   0.0000000   0.0000000   0.0000000   0.0000000   0.0000000   0.0000000   0.0000000   0.0000000
 NMagM=    2.7928460   2.7928460   2.7928460   2.7928460   2.7928460   2.7928460   2.7928460   2.7928460   2.7928460   2.7928460
 AtZNuc=   1.0000000   1.0000000   1.0000000   1.0000000   1.0000000   1.0000000   1.0000000   1.0000000   1.0000000   1.0000000

  Atom        21          22          23
 IAtWgt=           1           1           1
 AtmWgt=   1.0078250   1.0078250   1.0078250
 NucSpn=           1           1           1
 AtZEff=  -0.0000000  -0.0000000  -0.0000000
 NQMom=    0.0000000   0.0000000   0.0000000
 NMagM=    2.7928460   2.7928460   2.7928460
 AtZNuc=   1.0000000   1.0000000   1.0000000
 Leave Link  101 at Sat Sep 28 01:51:45 2019, MaxMem=   671088640 cpu:               3.3 elap:               1.7
 (Enter /shared/centos7/gaussian/g16/l103.exe)

 GradGradGradGradGradGradGradGradGradGradGradGradGradGradGradGradGradGrad
 Berny optimization.
 Initialization pass.
                           ----------------------------
                           !    Initial Parameters    !
                           ! (Angstroms and Degrees)  !
 --------------------------                            --------------------------
 ! Name  Definition              Value          Derivative Info.                !
 --------------------------------------------------------------------------------
 ! R1    R(1,2)                  1.4906         calculate D2E/DX2 analytically  !
 ! R2    R(1,4)                  1.4917         calculate D2E/DX2 analytically  !
 ! R3    R(1,10)                 1.1107         calculate D2E/DX2 analytically  !
 ! R4    R(1,11)                 1.1093         calculate D2E/DX2 analytically  !
 ! R5    R(2,3)                  1.5083         calculate D2E/DX2 analytically  !
 ! R6    R(2,12)                 1.1012         calculate D2E/DX2 analytically  !
 ! R7    R(2,13)                 1.1105         calculate D2E/DX2 analytically  !
 ! R8    R(3,5)                  1.5105         calculate D2E/DX2 analytically  !
 ! R9    R(3,14)                 1.1032         calculate D2E/DX2 analytically  !
 ! R10   R(3,15)                 1.1096         calculate D2E/DX2 analytically  !
 ! R11   R(4,6)                  1.473          calculate D2E/DX2 analytically  !
 ! R12   R(4,8)                  1.1266         calculate D2E/DX2 analytically  !
 ! R13   R(4,9)                  1.1161         calculate D2E/DX2 analytically  !
 ! R14   R(5,7)                  1.5066         calculate D2E/DX2 analytically  !
 ! R15   R(5,16)                 1.1214         calculate D2E/DX2 analytically  !
 ! R16   R(5,17)                 1.1033         calculate D2E/DX2 analytically  !
 ! R17   R(6,18)                 1.1063         calculate D2E/DX2 analytically  !
 ! R18   R(6,19)                 1.1303         calculate D2E/DX2 analytically  !
 ! R19   R(6,20)                 1.1106         calculate D2E/DX2 analytically  !
 ! R20   R(7,21)                 1.0907         calculate D2E/DX2 analytically  !
 ! R21   R(7,22)                 1.1251         calculate D2E/DX2 analytically  !
 ! R22   R(7,23)                 1.1278         calculate D2E/DX2 analytically  !
 ! A1    A(2,1,4)              116.861          calculate D2E/DX2 analytically  !
 ! A2    A(2,1,10)             107.9181         calculate D2E/DX2 analytically  !
 ! A3    A(2,1,11)             108.9886         calculate D2E/DX2 analytically  !
 ! A4    A(4,1,10)             108.9499         calculate D2E/DX2 analytically  !
 ! A5    A(4,1,11)             108.6815         calculate D2E/DX2 analytically  !
 ! A6    A(10,1,11)            104.7706         calculate D2E/DX2 analytically  !
 ! A7    A(1,2,3)              114.5301         calculate D2E/DX2 analytically  !
 ! A8    A(1,2,12)             108.2978         calculate D2E/DX2 analytically  !
 ! A9    A(1,2,13)             109.5023         calculate D2E/DX2 analytically  !
 ! A10   A(3,2,12)             108.1212         calculate D2E/DX2 analytically  !
 ! A11   A(3,2,13)             109.9524         calculate D2E/DX2 analytically  !
 ! A12   A(12,2,13)            106.074          calculate D2E/DX2 analytically  !
 ! A13   A(2,3,5)              114.9427         calculate D2E/DX2 analytically  !
 ! A14   A(2,3,14)             108.8928         calculate D2E/DX2 analytically  !
 ! A15   A(2,3,15)             108.639          calculate D2E/DX2 analytically  !
 ! A16   A(5,3,14)             109.0138         calculate D2E/DX2 analytically  !
 ! A17   A(5,3,15)             108.6768         calculate D2E/DX2 analytically  !
 ! A18   A(14,3,15)            106.3322         calculate D2E/DX2 analytically  !
 ! A19   A(1,4,6)              116.9289         calculate D2E/DX2 analytically  !
 ! A20   A(1,4,8)              107.5868         calculate D2E/DX2 analytically  !
 ! A21   A(1,4,9)              108.9143         calculate D2E/DX2 analytically  !
 ! A22   A(6,4,8)              109.0525         calculate D2E/DX2 analytically  !
 ! A23   A(6,4,9)              108.8889         calculate D2E/DX2 analytically  !
 ! A24   A(8,4,9)              104.7896         calculate D2E/DX2 analytically  !
 ! A25   A(3,5,7)              112.8471         calculate D2E/DX2 analytically  !
 ! A26   A(3,5,16)             108.6276         calculate D2E/DX2 analytically  !
 ! A27   A(3,5,17)             110.0526         calculate D2E/DX2 analytically  !
 ! A28   A(7,5,16)             109.2091         calculate D2E/DX2 analytically  !
 ! A29   A(7,5,17)             109.4224         calculate D2E/DX2 analytically  !
 ! A30   A(16,5,17)            106.4751         calculate D2E/DX2 analytically  !
 ! A31   A(4,6,18)             112.3779         calculate D2E/DX2 analytically  !
 ! A32   A(4,6,19)             111.3087         calculate D2E/DX2 analytically  !
 ! A33   A(4,6,20)             111.6742         calculate D2E/DX2 analytically  !
 ! A34   A(18,6,19)            106.7382         calculate D2E/DX2 analytically  !
 ! A35   A(18,6,20)            107.5576         calculate D2E/DX2 analytically  !
 ! A36   A(19,6,20)            106.8746         calculate D2E/DX2 analytically  !
 ! A37   A(5,7,21)             110.9231         calculate D2E/DX2 analytically  !
 ! A38   A(5,7,22)             110.8799         calculate D2E/DX2 analytically  !
 ! A39   A(5,7,23)             111.2834         calculate D2E/DX2 analytically  !
 ! A40   A(21,7,22)            108.2228         calculate D2E/DX2 analytically  !
 ! A41   A(21,7,23)            107.6401         calculate D2E/DX2 analytically  !
 ! A42   A(22,7,23)            107.7472         calculate D2E/DX2 analytically  !
 ! D1    D(4,1,2,3)            -80.6088         calculate D2E/DX2 analytically  !
 ! D2    D(4,1,2,12)           158.6607         calculate D2E/DX2 analytically  !
 ! D3    D(4,1,2,13)            43.4159         calculate D2E/DX2 analytically  !
 ! D4    D(10,1,2,3)           156.2752         calculate D2E/DX2 analytically  !
 ! D5    D(10,1,2,12)           35.5447         calculate D2E/DX2 analytically  !
 ! D6    D(10,1,2,13)          -79.7001         calculate D2E/DX2 analytically  !
 ! D7    D(11,1,2,3)            43.0324         calculate D2E/DX2 analytically  !
 ! D8    D(11,1,2,12)          -77.6981         calculate D2E/DX2 analytically  !
 ! D9    D(11,1,2,13)          167.0571         calculate D2E/DX2 analytically  !
 ! D10   D(2,1,4,6)            -24.2513         calculate D2E/DX2 analytically  !
 ! D11   D(2,1,4,8)           -147.2824         calculate D2E/DX2 analytically  !
 ! D12   D(2,1,4,9)             99.6585         calculate D2E/DX2 analytically  !
 ! D13   D(10,1,4,6)            98.332          calculate D2E/DX2 analytically  !
 ! D14   D(10,1,4,8)           -24.699          calculate D2E/DX2 analytically  !
 ! D15   D(10,1,4,9)          -137.7582         calculate D2E/DX2 analytically  !
 ! D16   D(11,1,4,6)          -148.0495         calculate D2E/DX2 analytically  !
 ! D17   D(11,1,4,8)            88.9195         calculate D2E/DX2 analytically  !
 ! D18   D(11,1,4,9)           -24.1397         calculate D2E/DX2 analytically  !
 ! D19   D(1,2,3,5)             71.4663         calculate D2E/DX2 analytically  !
 ! D20   D(1,2,3,14)           -51.1451         calculate D2E/DX2 analytically  !
 ! D21   D(1,2,3,15)          -166.5559         calculate D2E/DX2 analytically  !
 ! D22   D(12,2,3,5)          -167.7057         calculate D2E/DX2 analytically  !
 ! D23   D(12,2,3,14)           69.6829         calculate D2E/DX2 analytically  !
 ! D24   D(12,2,3,15)          -45.7278         calculate D2E/DX2 analytically  !
 ! D25   D(13,2,3,5)           -52.3183         calculate D2E/DX2 analytically  !
 ! D26   D(13,2,3,14)         -174.9297         calculate D2E/DX2 analytically  !
 ! D27   D(13,2,3,15)           69.6595         calculate D2E/DX2 analytically  !
 ! D28   D(2,3,5,7)             71.6502         calculate D2E/DX2 analytically  !
 ! D29   D(2,3,5,16)          -167.0991         calculate D2E/DX2 analytically  !
 ! D30   D(2,3,5,17)           -50.8916         calculate D2E/DX2 analytically  !
 ! D31   D(14,3,5,7)          -165.8034         calculate D2E/DX2 analytically  !
 ! D32   D(14,3,5,16)          -44.5527         calculate D2E/DX2 analytically  !
 ! D33   D(14,3,5,17)           71.6548         calculate D2E/DX2 analytically  !
 ! D34   D(15,3,5,7)           -50.3071         calculate D2E/DX2 analytically  !
 ! D35   D(15,3,5,16)           70.9435         calculate D2E/DX2 analytically  !
 ! D36   D(15,3,5,17)         -172.849          calculate D2E/DX2 analytically  !
 ! D37   D(1,4,6,18)            -6.3007         calculate D2E/DX2 analytically  !
 ! D38   D(1,4,6,19)           113.3627         calculate D2E/DX2 analytically  !
 ! D39   D(1,4,6,20)          -127.2767         calculate D2E/DX2 analytically  !
 ! D40   D(8,4,6,18)           115.973          calculate D2E/DX2 analytically  !
 ! D41   D(8,4,6,19)          -124.3637         calculate D2E/DX2 analytically  !
 ! D42   D(8,4,6,20)            -5.0031         calculate D2E/DX2 analytically  !
 ! D43   D(9,4,6,18)          -130.2234         calculate D2E/DX2 analytically  !
 ! D44   D(9,4,6,19)           -10.5601         calculate D2E/DX2 analytically  !
 ! D45   D(9,4,6,20)           108.8005         calculate D2E/DX2 analytically  !
 ! D46   D(3,5,7,21)            21.8811         calculate D2E/DX2 analytically  !
 ! D47   D(3,5,7,22)           -98.3946         calculate D2E/DX2 analytically  !
 ! D48   D(3,5,7,23)           141.6902         calculate D2E/DX2 analytically  !
 ! D49   D(16,5,7,21)          -99.0389         calculate D2E/DX2 analytically  !
 ! D50   D(16,5,7,22)          140.6854         calculate D2E/DX2 analytically  !
 ! D51   D(16,5,7,23)           20.7701         calculate D2E/DX2 analytically  !
 ! D52   D(17,5,7,21)          144.7749         calculate D2E/DX2 analytically  !
 ! D53   D(17,5,7,22)           24.4992         calculate D2E/DX2 analytically  !
 ! D54   D(17,5,7,23)          -95.4161         calculate D2E/DX2 analytically  !
 --------------------------------------------------------------------------------
 Trust Radius=3.00D-01 FncErr=1.00D-07 GrdErr=1.00D-06 EigMax=2.50D+02 EigMin=1.00D-04
 Number of steps in this run=    138 maximum allowed number of steps=    138.
 GradGradGradGradGradGradGradGradGradGradGradGradGradGradGradGradGradGrad

 Leave Link  103 at Sat Sep 28 01:51:45 2019, MaxMem=   671088640 cpu:               1.7 elap:               0.9
 (Enter /shared/centos7/gaussian/g16/l202.exe)
                          Input orientation:                          
 ---------------------------------------------------------------------
 Center     Atomic      Atomic             Coordinates (Angstroms)
 Number     Number       Type             X           Y           Z
 ---------------------------------------------------------------------
      1          6           0        1.349928   -1.113920    0.619728
      2          6           0        0.142502   -0.275360    0.866515
      3          6           0        0.425516    1.051101    1.526351
      4          6           0        2.165940   -0.782694   -0.584199
      5          6           0        1.113415    2.066996    0.645184
      6          6           0        1.478686   -0.085401   -1.684676
      7          6           0        0.208720    2.621833   -0.424212
      8          1           0        2.602854   -1.744923   -0.974530
      9          1           0        3.048298   -0.176850   -0.267728
     10          1           0        1.022556   -2.173160    0.553296
     11          1           0        2.004821   -1.075873    1.514329
     12          1           0       -0.544525   -0.840930    1.515214
     13          1           0       -0.399295   -0.115089   -0.089532
     14          1           0        1.041862    0.878776    2.424986
     15          1           0       -0.532976    1.481333    1.883197
     16          1           0        1.482715    2.907773    1.288792
     17          1           0        2.004839    1.618048    0.175003
     18          1           0        0.390066    0.006364   -1.510416
     19          1           0        1.876620    0.964083   -1.817963
     20          1           0        1.619876   -0.609226   -2.653781
     21          1           0       -0.839680    2.499519   -0.149485
     22          1           0        0.378869    2.097620   -1.405084
     23          1           0        0.393418    3.722541   -0.586114
 ---------------------------------------------------------------------
                    Distance matrix (angstroms):
                    1          2          3          4          5
     1  C    0.000000
     2  C    1.490625   0.000000
     3  C    2.522661   1.508304   0.000000
     4  C    1.491652   2.540917   3.293373   0.000000
     5  C    3.189798   2.545249   1.510531   3.277183   0.000000
     6  C    2.526798   2.886182   3.565319   1.472952   3.192880
     7  C    4.043268   3.172395   2.513741   3.930282   1.506627
     8  H    2.123593   3.406228   4.337391   1.126559   4.401434
     9  H    2.133105   3.120875   3.406694   1.116134   3.100326
    10  H    1.110665   2.115241   3.420403   2.129464   4.242125
    11  H    1.109344   2.128078   2.649220   2.125025   3.380479
    12  H    2.113143   1.101220   2.126238   3.428928   3.458576
    13  H    2.135531   1.110520   2.156708   2.696446   2.754921
    14  H    2.706418   2.137689   1.103233   3.616522   2.141187
    15  H    3.446305   2.139132   1.109570   4.300931   2.141560
    16  H    4.079129   3.479487   2.149729   4.194573   1.121392
    17  H    2.844352   2.744355   2.154491   2.523074   1.103295
    18  H    2.591116   2.406337   3.211649   2.152724   3.068558
    19  H    3.246204   3.427800   3.646603   2.158035   2.804638
    20  H    3.323169   3.832308   4.653675   2.147429   4.278065
    21  H    4.294533   3.113983   2.550894   4.471650   2.152477
    22  H    3.918777   3.293489   3.112987   3.487648   2.178094
    23  H    5.075463   4.261022   3.405897   4.841383   2.185251
                    6          7          8          9         10
     6  C    0.000000
     7  C    3.245104   0.000000
     8  H    2.126517   5.010318   0.000000
     9  H    2.116551   3.990027   1.776750   0.000000
    10  H    3.094400   4.960828   2.239416   2.960231   0.000000
    11  H    3.389909   4.544991   2.645693   2.252290   1.758543
    12  H    3.860505   4.039737   4.113639   4.065496   2.270653
    13  H    2.464178   2.823550   3.528807   3.452747   2.582740
    14  H    4.243792   3.442427   4.569158   3.520062   3.580211
    15  H    4.385334   2.678617   5.329987   4.494615   4.188513
    16  H    4.219078   2.153882   5.293857   3.793244   5.154473
    17  H    2.576234   2.143055   3.603973   2.122846   3.934622
    18  H    1.106291   2.837852   2.872387   2.940074   3.067454
    19  H    1.130281   2.733600   2.928739   2.253394   4.024251
    20  H    1.110627   4.171581   2.252984   2.814354   3.617737
    21  H    3.796504   1.090678   5.526937   4.721579   5.078952
    22  H    2.460356   1.125104   4.460563   3.686820   4.742273
    23  H    4.109144   1.127778   5.909791   4.728108   6.037662
                   11         12         13         14         15
    11  H    0.000000
    12  H    2.560150   0.000000
    13  H    3.045529   1.767242   0.000000
    14  H    2.361617   2.510319   3.063903   0.000000
    15  H    3.621571   2.351266   2.541278   1.771080   0.000000
    16  H    4.024040   4.267757   3.818302   2.366879   2.539893
    17  H    3.008489   3.787083   2.975500   2.556613   3.062208
    18  H    3.595518   3.278079   1.629955   4.083299   3.813679
    19  H    3.909224   4.497787   3.054812   4.325126   4.446604
    20  H    4.211779   4.703067   3.300999   5.323732   5.439612
    21  H    4.862395   3.743920   2.652114   3.576997   2.294028
    22  H    4.608444   4.244511   2.689293   4.073644   3.467573
    23  H    5.480261   5.110830   3.949986   4.192160   3.461028
                   16         17         18         19         20
    16  H    0.000000
    17  H    1.782282   0.000000
    18  H    4.177035   2.836486   0.000000
    19  H    3.685786   2.101433   1.794897   0.000000
    20  H    5.285071   3.620907   1.788482   1.799948   0.000000
    21  H    2.762034   2.995592   3.095195   3.538315   4.688839
    22  H    3.021885   2.317421   2.093937   1.923183   3.228988
    23  H    2.316396   2.757692   3.829401   3.365476   4.954155
                   21         22         23
    21  H    0.000000
    22  H    1.795248   0.000000
    23  H    1.790798   1.819695   0.000000
 Stoichiometry    C7H16
 Framework group  C1[X(C7H16)]
 Deg. of freedom    63
 Full point group                 C1      NOp   1
 Largest Abelian subgroup         C1      NOp   1
 Largest concise Abelian subgroup C1      NOp   1
                         Standard orientation:                         
 ---------------------------------------------------------------------
 Center     Atomic      Atomic             Coordinates (Angstroms)
 Number     Number       Type             X           Y           Z
 ---------------------------------------------------------------------
      1          6           0        1.489471   -0.930223    0.066909
      2          6           0        0.243050   -1.165314   -0.716118
      3          6           0       -1.010859   -1.261432    0.116621
      4          6           0        1.763493    0.472931    0.492462
      5          6           0       -1.477526    0.043141    0.718298
      6          6           0        1.146730    1.545092   -0.307328
      7          6           0       -2.050202    0.988026   -0.305986
      8          1           0        2.881067    0.614822    0.498121
      9          1           0        1.455461    0.594441    1.558345
     10          1           0        2.346449   -1.298068   -0.536295
     11          1           0        1.478060   -1.578692    0.966910
     12          1           0        0.357394   -2.108346   -1.273166
     13          1           0        0.129825   -0.368182   -1.480982
     14          1           0       -0.846688   -1.992390    0.926480
     15          1           0       -1.825199   -1.672945   -0.514768
     16          1           0       -2.257643   -0.178389    1.492805
     17          1           0       -0.643511    0.535991    1.246292
     18          1           0        0.635060    1.157308   -1.208270
     19          1           0        0.370645    2.108869    0.290486
     20          1           0        1.898515    2.290227   -0.643609
     21          1           0       -2.377550    0.447212   -1.194773
     22          1           0       -1.284987    1.750669   -0.620123
     23          1           0       -2.941835    1.544150    0.103406
 ---------------------------------------------------------------------
 Rotational constants (GHZ):           3.2277221           2.0064824           1.4866235
 Leave Link  202 at Sat Sep 28 01:51:47 2019, MaxMem=   671088640 cpu:               3.9 elap:               1.9
 (Enter /shared/centos7/gaussian/g16/l301.exe)
 Standard basis: CC-pVTZ (5D, 7F)
 Ernie: Thresh=  0.10000D-02 Tol=  0.10000D-05 Strict=F.
 Ernie:  21 primitive shells out of 310 were deleted.
 There are   485 symmetry adapted cartesian basis functions of A   symmetry.
 There are   434 symmetry adapted basis functions of A   symmetry.
   434 basis functions,   636 primitive gaussians,   485 cartesian basis functions
    29 alpha electrons       29 beta electrons
       nuclear repulsion energy       341.1493564863 Hartrees.
 IExCor= 4336 DFT=T Ex+Corr=M062X ExCW=0 ScaHFX=  0.540000
 ScaDFX=  1.000000  1.000000  1.000000  1.000000 ScalE2=  1.000000  1.000000
 IRadAn=      5 IRanWt=     -1 IRanGd=            0 ICorTp=0 IEmpDi=  4
 NAtoms=   23 NActive=   23 NUniq=   23 SFac= 1.00D+00 NAtFMM=   60 NAOKFM=F Big=F
 Integral buffers will be    131072 words long.
 Raffenetti 2 integral format.
 Two-electron integral symmetry is turned on.
 Leave Link  301 at Sat Sep 28 01:51:48 2019, MaxMem=   671088640 cpu:               1.7 elap:               0.9
 (Enter /shared/centos7/gaussian/g16/l302.exe)
 NPDir=0 NMtPBC=     1 NCelOv=     1 NCel=       1 NClECP=     1 NCelD=      1
         NCelK=      1 NCelE2=     1 NClLst=     1 CellRange=     0.0.
 One-electron integrals computed using PRISM.
 One-electron integral symmetry used in STVInt
 NBasis=   434 RedAO= T EigKep=  2.24D-04  NBF=   434
 NBsUse=   434 1.00D-06 EigRej= -1.00D+00 NBFU=   434
 Precomputing XC quadrature grid using
 IXCGrd= 4 IRadAn=           5 IRanWt=          -1 IRanGd=           0 AccXCQ= 0.00D+00.
 Generated NRdTot=       0 NPtTot=           0 NUsed=           0 NTot=          32
 NSgBfM=   485   485   485   485   485 MxSgAt=    23 MxSgA2=    23.
 Leave Link  302 at Sat Sep 28 01:53:04 2019, MaxMem=   671088640 cpu:             151.4 elap:              75.7
 (Enter /shared/centos7/gaussian/g16/l303.exe)
 DipDrv:  MaxL=1.
 Leave Link  303 at Sat Sep 28 01:53:08 2019, MaxMem=   671088640 cpu:               7.9 elap:               4.0
 (Enter /shared/centos7/gaussian/g16/l401.exe)
 ExpMin= 1.03D-01 ExpMax= 8.24D+03 ExpMxC= 2.81D+02 IAcc=3 IRadAn=         5 AccDes= 0.00D+00
 Harris functional with IExCor= 1009 and IRadAn=       5 diagonalized for initial guess.
 HarFok:  IExCor= 1009 AccDes= 0.00D+00 IRadAn=         5 IDoV= 1 UseB2=F ITyADJ=14
 ICtDFT=  3500011 ScaDFX=  1.000000  1.000000  1.000000  1.000000
 FoFCou: FMM=F IPFlag=           0 FMFlag=      100000 FMFlg1=           0
         NFxFlg=           0 DoJE=T BraDBF=F KetDBF=T FulRan=T
         wScrn=  0.000000 ICntrl=       500 IOpCl=  0 I1Cent=   200000004 NGrid=           0
         NMat0=    1 NMatS0=      1 NMatT0=    0 NMatD0=    1 NMtDS0=    0 NMtDT0=    0
 Petite list used in FoFCou.
 Harris En= -276.306737197459    
 JPrj=0 DoOrth=F DoCkMO=F.
 Leave Link  401 at Sat Sep 28 01:54:04 2019, MaxMem=   671088640 cpu:             112.3 elap:              56.1
 (Enter /shared/centos7/gaussian/g16/l502.exe)
 Integral symmetry usage will be decided dynamically.
 Closed shell SCF:
 Using DIIS extrapolation, IDIIS=  1040.
 NGot=   671088640 LenX=   670604095 LenY=   670368385
 Requested convergence on RMS density matrix=1.00D-08 within 900 cycles.
 Requested convergence on MAX density matrix=1.00D-06.
 Requested convergence on             energy=1.00D-06.
 No special actions if energy rises.
 Fock matrices will be formed incrementally for  20 cycles.
 Integral accuracy reduced to 1.0D-05 until final iterations.

 Cycle   1  Pass 0  IDiag  1:
 FoFJK:  IHMeth= 1 ICntrl=       0 DoSepK=F KAlg= 0 I1Cent=           0 FoldK=F
 IRaf= 970000000 NMat=       1 IRICut=       1 DoRegI=T DoRafI=F ISym2E= 0 IDoP0=0 IntGTp=1.
 FoFCou: FMM=F IPFlag=           0 FMFlag=      100000 FMFlg1=           0
         NFxFlg=           0 DoJE=F BraDBF=F KetDBF=F FulRan=T
         wScrn=  0.000000 ICntrl=         0 IOpCl=  0 I1Cent=           0 NGrid=           0
         NMat0=    1 NMatS0=      1 NMatT0=    0 NMatD0=    1 NMtDS0=    0 NMtDT0=    0
 Symmetry not used in FoFCou.
 E= -275.946236223601    
 DIIS: error= 2.70D-02 at cycle   1 NSaved=   1.
 NSaved= 1 IEnMin= 1 EnMin= -275.946236223601     IErMin= 1 ErrMin= 2.70D-02
 ErrMax= 2.70D-02  0.00D+00 EMaxC= 1.00D-01 BMatC= 3.76D-01 BMatP= 3.76D-01
 IDIUse=3 WtCom= 7.30D-01 WtEn= 2.70D-01
 Coeff-Com:  0.100D+01
 Coeff-En:   0.100D+01
 Coeff:      0.100D+01
 Gap=     0.363 Goal=   None    Shift=    0.000
 GapD=    0.363 DampG=1.000 DampE=0.500 DampFc=0.5000 IDamp=-1.
 Damping current iteration by 5.00D-01
 RMSDP=1.93D-03 MaxDP=7.32D-02              OVMax= 1.62D-01

 Cycle   2  Pass 0  IDiag  1:
 RMSU=  9.63D-04    CP:  9.90D-01
 E= -276.119556653448     Delta-E=       -0.173320429847 Rises=F Damp=T
 DIIS: error= 4.09D-03 at cycle   2 NSaved=   2.
 NSaved= 2 IEnMin= 2 EnMin= -276.119556653448     IErMin= 2 ErrMin= 4.09D-03
 ErrMax= 4.09D-03  0.00D+00 EMaxC= 1.00D-01 BMatC= 2.03D-02 BMatP= 3.76D-01
 IDIUse=3 WtCom= 9.59D-01 WtEn= 4.09D-02
 Coeff-Com: -0.313D-01 0.103D+01
 Coeff-En:   0.000D+00 0.100D+01
 Coeff:     -0.300D-01 0.103D+01
 Gap=     0.439 Goal=   None    Shift=    0.000
 RMSDP=5.77D-04 MaxDP=2.19D-02 DE=-1.73D-01 OVMax= 9.41D-02

 Cycle   3  Pass 0  IDiag  1:
 RMSU=  5.69D-04    CP:  9.99D-01  9.20D-01
 E= -276.300404932423     Delta-E=       -0.180848278975 Rises=F Damp=F
 DIIS: error= 3.96D-03 at cycle   3 NSaved=   3.
 NSaved= 3 IEnMin= 3 EnMin= -276.300404932423     IErMin= 3 ErrMin= 3.96D-03
 ErrMax= 3.96D-03  0.00D+00 EMaxC= 1.00D-01 BMatC= 4.42D-03 BMatP= 2.03D-02
 IDIUse=3 WtCom= 9.60D-01 WtEn= 3.96D-02
 Coeff-Com: -0.546D-01 0.295D+00 0.760D+00
 Coeff-En:   0.000D+00 0.000D+00 0.100D+01
 Coeff:     -0.525D-01 0.283D+00 0.769D+00
 Gap=     0.406 Goal=   None    Shift=    0.000
 RMSDP=1.32D-04 MaxDP=3.27D-03 DE=-1.81D-01 OVMax= 1.25D-02

 Cycle   4  Pass 0  IDiag  1:
 RMSU=  1.01D-04    CP:  9.97D-01  9.72D-01  8.82D-01
 E= -276.304263544297     Delta-E=       -0.003858611874 Rises=F Damp=F
 DIIS: error= 8.28D-04 at cycle   4 NSaved=   4.
 NSaved= 4 IEnMin= 4 EnMin= -276.304263544297     IErMin= 4 ErrMin= 8.28D-04
 ErrMax= 8.28D-04  0.00D+00 EMaxC= 1.00D-01 BMatC= 3.32D-04 BMatP= 4.42D-03
 IDIUse=3 WtCom= 9.92D-01 WtEn= 8.28D-03
 Coeff-Com: -0.138D-01 0.382D-01 0.250D+00 0.725D+00
 Coeff-En:   0.000D+00 0.000D+00 0.000D+00 0.100D+01
 Coeff:     -0.137D-01 0.379D-01 0.248D+00 0.727D+00
 Gap=     0.407 Goal=   None    Shift=    0.000
 RMSDP=3.71D-05 MaxDP=1.42D-03 DE=-3.86D-03 OVMax= 3.04D-03

 Cycle   5  Pass 0  IDiag  1:
 RMSU=  1.90D-05    CP:  9.97D-01  9.68D-01  9.22D-01  7.88D-01
 E= -276.304570849625     Delta-E=       -0.000307305328 Rises=F Damp=F
 DIIS: error= 1.54D-04 at cycle   5 NSaved=   5.
 NSaved= 5 IEnMin= 5 EnMin= -276.304570849625     IErMin= 5 ErrMin= 1.54D-04
 ErrMax= 1.54D-04  0.00D+00 EMaxC= 1.00D-01 BMatC= 1.66D-05 BMatP= 3.32D-04
 IDIUse=3 WtCom= 9.98D-01 WtEn= 1.54D-03
 Coeff-Com: -0.194D-02 0.141D-02 0.501D-01 0.247D+00 0.703D+00
 Coeff-En:   0.000D+00 0.000D+00 0.000D+00 0.000D+00 0.100D+01
 Coeff:     -0.193D-02 0.140D-02 0.501D-01 0.247D+00 0.704D+00
 Gap=     0.407 Goal=   None    Shift=    0.000
 RMSDP=6.64D-06 MaxDP=4.05D-04 DE=-3.07D-04 OVMax= 7.81D-04

 Initial convergence to 1.0D-05 achieved.  Increase integral accuracy.
 Cycle   6  Pass 1  IDiag  1:
 E= -276.304497323979     Delta-E=        0.000073525646 Rises=F Damp=F
 DIIS: error= 4.14D-05 at cycle   1 NSaved=   1.
 NSaved= 1 IEnMin= 1 EnMin= -276.304497323979     IErMin= 1 ErrMin= 4.14D-05
 ErrMax= 4.14D-05  0.00D+00 EMaxC= 1.00D-01 BMatC= 1.80D-06 BMatP= 1.80D-06
 IDIUse=1 WtCom= 1.00D+00 WtEn= 0.00D+00
 Coeff-Com:  0.100D+01
 Coeff:      0.100D+01
 Gap=     0.407 Goal=   None    Shift=    0.000
 RMSDP=6.64D-06 MaxDP=4.05D-04 DE= 7.35D-05 OVMax= 3.02D-04

 Cycle   7  Pass 1  IDiag  1:
 RMSU=  9.47D-06    CP:  1.00D+00
 E= -276.304498070839     Delta-E=       -0.000000746860 Rises=F Damp=F
 DIIS: error= 2.69D-05 at cycle   2 NSaved=   2.
 NSaved= 2 IEnMin= 2 EnMin= -276.304498070839     IErMin= 2 ErrMin= 2.69D-05
 ErrMax= 2.69D-05  0.00D+00 EMaxC= 1.00D-01 BMatC= 6.40D-07 BMatP= 1.80D-06
 IDIUse=1 WtCom= 1.00D+00 WtEn= 0.00D+00
 Coeff-Com:  0.345D+00 0.655D+00
 Coeff:      0.345D+00 0.655D+00
 Gap=     0.407 Goal=   None    Shift=    0.000
 RMSDP=1.53D-06 MaxDP=8.08D-05 DE=-7.47D-07 OVMax= 1.57D-04

 Cycle   8  Pass 1  IDiag  1:
 RMSU=  1.53D-06    CP:  1.00D+00  9.86D-01
 E= -276.304498652092     Delta-E=       -0.000000581253 Rises=F Damp=F
 DIIS: error= 7.54D-06 at cycle   3 NSaved=   3.
 NSaved= 3 IEnMin= 3 EnMin= -276.304498652092     IErMin= 3 ErrMin= 7.54D-06
 ErrMax= 7.54D-06  0.00D+00 EMaxC= 1.00D-01 BMatC= 5.38D-08 BMatP= 6.40D-07
 IDIUse=1 WtCom= 1.00D+00 WtEn= 0.00D+00
 Coeff-Com: -0.628D-02 0.212D+00 0.794D+00
 Coeff:     -0.628D-02 0.212D+00 0.794D+00
 Gap=     0.407 Goal=   None    Shift=    0.000
 RMSDP=4.33D-07 MaxDP=1.96D-05 DE=-5.81D-07 OVMax= 4.00D-05

 Cycle   9  Pass 1  IDiag  1:
 RMSU=  3.20D-07    CP:  1.00D+00  1.01D+00  8.61D-01
 E= -276.304498703990     Delta-E=       -0.000000051898 Rises=F Damp=F
 DIIS: error= 2.33D-06 at cycle   4 NSaved=   4.
 NSaved= 4 IEnMin= 4 EnMin= -276.304498703990     IErMin= 4 ErrMin= 2.33D-06
 ErrMax= 2.33D-06  0.00D+00 EMaxC= 1.00D-01 BMatC= 2.10D-09 BMatP= 5.38D-08
 IDIUse=1 WtCom= 1.00D+00 WtEn= 0.00D+00
 Coeff-Com: -0.126D-01 0.564D-01 0.281D+00 0.675D+00
 Coeff:     -0.126D-01 0.564D-01 0.281D+00 0.675D+00
 Gap=     0.407 Goal=   None    Shift=    0.000
 RMSDP=9.08D-08 MaxDP=3.24D-06 DE=-5.19D-08 OVMax= 8.17D-06

 Cycle  10  Pass 1  IDiag  1:
 RMSU=  8.52D-08    CP:  1.00D+00  1.01D+00  8.56D-01  9.15D-01
 E= -276.304498706102     Delta-E=       -0.000000002112 Rises=F Damp=F
 DIIS: error= 4.11D-07 at cycle   5 NSaved=   5.
 NSaved= 5 IEnMin= 5 EnMin= -276.304498706102     IErMin= 5 ErrMin= 4.11D-07
 ErrMax= 4.11D-07  0.00D+00 EMaxC= 1.00D-01 BMatC= 8.13D-11 BMatP= 2.10D-09
 IDIUse=1 WtCom= 1.00D+00 WtEn= 0.00D+00
 Coeff-Com: -0.903D-03-0.124D-01-0.381D-01 0.803D-01 0.971D+00
 Coeff:     -0.903D-03-0.124D-01-0.381D-01 0.803D-01 0.971D+00
 Gap=     0.407 Goal=   None    Shift=    0.000
 RMSDP=3.58D-08 MaxDP=9.47D-07 DE=-2.11D-09 OVMax= 2.73D-06

 Cycle  11  Pass 1  IDiag  1:
 RMSU=  1.84D-08    CP:  1.00D+00  1.01D+00  8.59D-01  1.00D+00  1.09D+00
 E= -276.304498706190     Delta-E=       -0.000000000087 Rises=F Damp=F
 DIIS: error= 2.10D-07 at cycle   6 NSaved=   6.
 NSaved= 6 IEnMin= 6 EnMin= -276.304498706190     IErMin= 6 ErrMin= 2.10D-07
 ErrMax= 2.10D-07  0.00D+00 EMaxC= 1.00D-01 BMatC= 2.32D-11 BMatP= 8.13D-11
 IDIUse=1 WtCom= 1.00D+00 WtEn= 0.00D+00
 Coeff-Com:  0.401D-03-0.968D-02-0.369D-01-0.858D-02 0.456D+00 0.598D+00
 Coeff:      0.401D-03-0.968D-02-0.369D-01-0.858D-02 0.456D+00 0.598D+00
 Gap=     0.407 Goal=   None    Shift=    0.000
 RMSDP=7.41D-09 MaxDP=2.82D-07 DE=-8.74D-11 OVMax= 8.69D-07

 SCF Done:  E(RM062X) =  -276.304498706     A.U. after   11 cycles
            NFock= 11  Conv=0.74D-08     -V/T= 2.0064
 KE= 2.745586136037D+02 PE=-1.320752941004D+03 EE= 4.287404722074D+02
 Leave Link  502 at Sat Sep 28 02:18:16 2019, MaxMem=   671088640 cpu:            2902.8 elap:            1451.9
 (Enter /shared/centos7/gaussian/g16/l801.exe)
 DoSCS=F DFT=T ScalE2(SS,OS)=  1.000000  1.000000
 Range of M.O.s used for correlation:     1   434
 NBasis=   434 NAE=    29 NBE=    29 NFC=     0 NFV=     0
 NROrb=    434 NOA=    29 NOB=    29 NVA=   405 NVB=   405

 **** Warning!!: The largest alpha MO coefficient is  0.10614665D+02

 Leave Link  801 at Sat Sep 28 02:18:17 2019, MaxMem=   671088640 cpu:               1.7 elap:               0.9
 (Enter /shared/centos7/gaussian/g16/l1101.exe)
 Using compressed storage, NAtomX=    23.
 Will process     24 centers per pass.
 Leave Link 1101 at Sat Sep 28 02:19:02 2019, MaxMem=   671088640 cpu:              90.4 elap:              45.2
 (Enter /shared/centos7/gaussian/g16/l1102.exe)
 Symmetrizing basis deriv contribution to polar:
 IMax=3 JMax=2 DiffMx= 0.00D+00
 Leave Link 1102 at Sat Sep 28 02:19:06 2019, MaxMem=   671088640 cpu:               7.6 elap:               3.8
 (Enter /shared/centos7/gaussian/g16/l1110.exe)
 Forming Gx(P) for the SCF density, NAtomX=    23.
 Integral derivatives from FoFJK, PRISM(SPDF).
 Do as many integral derivatives as possible in FoFJK.
 G2DrvN: MDV=     671086848.
 G2DrvN: will do    24 centers at a time, making    1 passes.
 Calling FoFCou, ICntrl=  3107 FMM=F I1Cent=   0 AccDes= 0.00D+00.
 FoFJK:  IHMeth= 1 ICntrl=    3107 DoSepK=F KAlg= 0 I1Cent=           0 FoldK=F
 IRaf=         0 NMat=       1 IRICut=       1 DoRegI=T DoRafI=F ISym2E= 0 IDoP0=0 IntGTp=1.
 FoFCou: FMM=F IPFlag=           0 FMFlag=      100000 FMFlg1=           0
         NFxFlg=           0 DoJE=F BraDBF=F KetDBF=F FulRan=T
         wScrn=  0.000000 ICntrl=      3107 IOpCl=  0 I1Cent=           0 NGrid=           0
         NMat0=    1 NMatS0=      1 NMatT0=    0 NMatD0=    1 NMtDS0=    0 NMtDT0=    0
 Symmetry not used in FoFCou.
 End of G2Drv F.D. properties file   721 does not exist.
 End of G2Drv F.D. properties file   722 does not exist.
 End of G2Drv F.D. properties file   788 does not exist.
 Leave Link 1110 at Sat Sep 28 03:21:21 2019, MaxMem=   671088640 cpu:            7468.8 elap:            3735.0
 (Enter /shared/centos7/gaussian/g16/l1002.exe)
 Minotr:  Closed shell wavefunction.
          IDoAtm=11111111111111111111111
          Direct CPHF calculation.
          Differentiating once with respect to nuclear coordinates.
          Requested convergence is 1.0D-08 RMS, and 1.0D-07 maximum.
          Secondary convergence is 1.0D-12 RMS, and 1.0D-12 maximum.
          NewPWx=T KeepS1=F KeepF1=F KeepIn=T MapXYZ=F SortEE=F KeepMc=T.
         6876 words used for storage of precomputed grid.
 Two-electron integrals replicated using symmetry.
          MDV=     671088640 using IRadAn=       1.
          Solving linear equations simultaneously, MaxMat=     380.
 FoF2E skips out because all densities are zero.
 CalDSu exits because no D1Ps are significant.
 FoFJK:  IHMeth= 1 ICntrl=       0 DoSepK=F KAlg= 0 I1Cent=           0 FoldK=F
 IRaf= 960000000 NMat=      69 IRICut=     172 DoRegI=T DoRafI=T ISym2E= 2 IDoP0=3 IntGTp=3.
 FoFCou: FMM=F IPFlag=           0 FMFlag=      100000 FMFlg1=           0
         NFxFlg=           0 DoJE=F BraDBF=F KetDBF=F FulRan=T
         wScrn=  0.000000 ICntrl=         0 IOpCl=  0 I1Cent=           0 NGrid=           0
         NMat0=   69 NMatS0=     69 NMatT0=    0 NMatD0=   69 NMtDS0=    0 NMtDT0=    0
 Integrals replicated using symmetry in FoFCou.
 Raff kept on since  92.49% of shell-pairs survive, threshold=   0.20 IRatSp=92.
          There are    72 degrees of freedom in the 1st order CPHF.  IDoFFX=6 NUNeed=     0.
     66 vectors produced by pass  0 Test12= 1.63D-14 1.39D-09 XBig12= 5.56D-02 4.39D-02.
 AX will form    66 AO Fock derivatives at one time.
     66 vectors produced by pass  1 Test12= 1.63D-14 1.39D-09 XBig12= 3.10D-03 6.46D-03.
     66 vectors produced by pass  2 Test12= 1.63D-14 1.39D-09 XBig12= 5.68D-05 8.65D-04.
     66 vectors produced by pass  3 Test12= 1.63D-14 1.39D-09 XBig12= 4.49D-07 9.21D-05.
     66 vectors produced by pass  4 Test12= 1.63D-14 1.39D-09 XBig12= 1.94D-09 4.22D-06.
     66 vectors produced by pass  5 Test12= 1.63D-14 1.39D-09 XBig12= 9.88D-12 3.50D-07.
     22 vectors produced by pass  6 Test12= 1.63D-14 1.39D-09 XBig12= 3.50D-14 2.12D-08.
 InvSVY:  IOpt=1 It=  1 EMax= 4.16D-16
 Solved reduced A of dimension   418 with    72 vectors.
 End of Minotr F.D. properties file   721 does not exist.
 End of Minotr F.D. properties file   722 does not exist.
 End of Minotr F.D. properties file   788 does not exist.
 Leave Link 1002 at Sat Sep 28 05:02:43 2019, MaxMem=   671088640 cpu:           12162.8 elap:            6082.3
 (Enter /shared/centos7/gaussian/g16/l601.exe)
 Copying SCF densities to generalized density rwf, IOpCl= 0 IROHF=0.

 **********************************************************************

            Population analysis using the SCF density.

 **********************************************************************

 Orbital symmetries:
       Occupied  (A) (A) (A) (A) (A) (A) (A) (A) (A) (A) (A) (A)
                 (A) (A) (A) (A) (A) (A) (A) (A) (A) (A) (A) (A)
                 (A) (A) (A) (A) (A)
       Virtual   (A) (A) (A) (A) (A) (A) (A) (A) (A) (A) (A) (A)
                 (A) (A) (A) (A) (A) (A) (A) (A) (A) (A) (A) (A)
                 (A) (A) (A) (A) (A) (A) (A) (A) (A) (A) (A) (A)
                 (A) (A) (A) (A) (A) (A) (A) (A) (A) (A) (A) (A)
                 (A) (A) (A) (A) (A) (A) (A) (A) (A) (A) (A) (A)
                 (A) (A) (A) (A) (A) (A) (A) (A) (A) (A) (A) (A)
                 (A) (A) (A) (A) (A) (A) (A) (A) (A) (A) (A) (A)
                 (A) (A) (A) (A) (A) (A) (A) (A) (A) (A) (A) (A)
                 (A) (A) (A) (A) (A) (A) (A) (A) (A) (A) (A) (A)
                 (A) (A) (A) (A) (A) (A) (A) (A) (A) (A) (A) (A)
                 (A) (A) (A) (A) (A) (A) (A) (A) (A) (A) (A) (A)
                 (A) (A) (A) (A) (A) (A) (A) (A) (A) (A) (A) (A)
                 (A) (A) (A) (A) (A) (A) (A) (A) (A) (A) (A) (A)
                 (A) (A) (A) (A) (A) (A) (A) (A) (A) (A) (A) (A)
                 (A) (A) (A) (A) (A) (A) (A) (A) (A) (A) (A) (A)
                 (A) (A) (A) (A) (A) (A) (A) (A) (A) (A) (A) (A)
                 (A) (A) (A) (A) (A) (A) (A) (A) (A) (A) (A) (A)
                 (A) (A) (A) (A) (A) (A) (A) (A) (A) (A) (A) (A)
                 (A) (A) (A) (A) (A) (A) (A) (A) (A) (A) (A) (A)
                 (A) (A) (A) (A) (A) (A) (A) (A) (A) (A) (A) (A)
                 (A) (A) (A) (A) (A) (A) (A) (A) (A) (A) (A) (A)
                 (A) (A) (A) (A) (A) (A) (A) (A) (A) (A) (A) (A)
                 (A) (A) (A) (A) (A) (A) (A) (A) (A) (A) (A) (A)
                 (A) (A) (A) (A) (A) (A) (A) (A) (A) (A) (A) (A)
                 (A) (A) (A) (A) (A) (A) (A) (A) (A) (A) (A) (A)
                 (A) (A) (A) (A) (A) (A) (A) (A) (A) (A) (A) (A)
                 (A) (A) (A) (A) (A) (A) (A) (A) (A) (A) (A) (A)
                 (A) (A) (A) (A) (A) (A) (A) (A) (A) (A) (A) (A)
                 (A) (A) (A) (A) (A) (A) (A) (A) (A) (A) (A) (A)
                 (A) (A) (A) (A) (A) (A) (A) (A) (A) (A) (A) (A)
                 (A) (A) (A) (A) (A) (A) (A) (A) (A) (A) (A) (A)
                 (A) (A) (A) (A) (A) (A) (A) (A) (A) (A) (A) (A)
                 (A) (A) (A) (A) (A) (A) (A) (A) (A) (A) (A) (A)
                 (A) (A) (A) (A) (A) (A) (A) (A) (A)
 The electronic state is 1-A.
 Alpha  occ. eigenvalues --  -10.52621 -10.52602 -10.52432 -10.52311 -10.52176
 Alpha  occ. eigenvalues --  -10.52145 -10.52110  -0.92663  -0.87734  -0.82947
 Alpha  occ. eigenvalues --   -0.76154  -0.72120  -0.65490  -0.61431  -0.55839
 Alpha  occ. eigenvalues --   -0.54840  -0.50504  -0.49387  -0.48548  -0.46706
 Alpha  occ. eigenvalues --   -0.44979  -0.42992  -0.40788  -0.39653  -0.39363
 Alpha  occ. eigenvalues --   -0.38241  -0.36974  -0.36334  -0.34318
 Alpha virt. eigenvalues --    0.06356   0.07929   0.08434   0.08863   0.10431
 Alpha virt. eigenvalues --    0.12480   0.13031   0.13384   0.14051   0.15054
 Alpha virt. eigenvalues --    0.16579   0.17231   0.18831   0.19225   0.20178
 Alpha virt. eigenvalues --    0.20991   0.22849   0.24076   0.25902   0.26698
 Alpha virt. eigenvalues --    0.28204   0.28810   0.29618   0.30743   0.31919
 Alpha virt. eigenvalues --    0.32534   0.34316   0.35287   0.36437   0.37837
 Alpha virt. eigenvalues --    0.38616   0.40262   0.41618   0.42943   0.44160
 Alpha virt. eigenvalues --    0.44598   0.45496   0.46377   0.47130   0.48207
 Alpha virt. eigenvalues --    0.48478   0.49368   0.50443   0.50721   0.51814
 Alpha virt. eigenvalues --    0.52799   0.52936   0.53367   0.53979   0.54134
 Alpha virt. eigenvalues --    0.55214   0.55552   0.57061   0.57260   0.57709
 Alpha virt. eigenvalues --    0.57821   0.59698   0.60785   0.62336   0.63622
 Alpha virt. eigenvalues --    0.65945   0.67183   0.71113   0.75329   0.78569
 Alpha virt. eigenvalues --    0.80005   0.81756   0.82279   0.83844   0.86824
 Alpha virt. eigenvalues --    0.87933   0.90189   0.90915   0.93139   0.94339
 Alpha virt. eigenvalues --    0.95111   0.96309   0.97448   0.98505   0.99104
 Alpha virt. eigenvalues --    1.01817   1.04053   1.04514   1.05683   1.06379
 Alpha virt. eigenvalues --    1.07270   1.08323   1.08857   1.09955   1.11432
 Alpha virt. eigenvalues --    1.12074   1.12882   1.13956   1.14422   1.16418
 Alpha virt. eigenvalues --    1.16973   1.17790   1.18683   1.19630   1.20563
 Alpha virt. eigenvalues --    1.21323   1.21741   1.23952   1.24160   1.24897
 Alpha virt. eigenvalues --    1.25064   1.25853   1.27361   1.28569   1.28905
 Alpha virt. eigenvalues --    1.29921   1.31505   1.32291   1.33902   1.34701
 Alpha virt. eigenvalues --    1.35023   1.36247   1.37114   1.39672   1.40101
 Alpha virt. eigenvalues --    1.41204   1.42266   1.44463   1.45057   1.45894
 Alpha virt. eigenvalues --    1.47037   1.48304   1.49396   1.50665   1.51412
 Alpha virt. eigenvalues --    1.52654   1.53440   1.54662   1.55608   1.56832
 Alpha virt. eigenvalues --    1.59249   1.60175   1.62297   1.63572   1.65696
 Alpha virt. eigenvalues --    1.66908   1.69230   1.72372   1.73839   1.77299
 Alpha virt. eigenvalues --    1.80407   1.81906   1.86342   1.95090   2.22938
 Alpha virt. eigenvalues --    2.25263   2.27031   2.30191   2.32772   2.36871
 Alpha virt. eigenvalues --    2.39884   2.40586   2.42283   2.43634   2.46137
 Alpha virt. eigenvalues --    2.49494   2.51293   2.52405   2.54010   2.55386
 Alpha virt. eigenvalues --    2.56961   2.58763   2.59547   2.60274   2.61657
 Alpha virt. eigenvalues --    2.64207   2.65143   2.66151   2.67260   2.68303
 Alpha virt. eigenvalues --    2.68603   2.69666   2.72612   2.72999   2.74631
 Alpha virt. eigenvalues --    2.75043   2.76798   2.78399   2.78836   2.79196
 Alpha virt. eigenvalues --    2.81007   2.82482   2.85034   2.85671   2.86262
 Alpha virt. eigenvalues --    2.87627   2.88599   2.89510   2.92404   2.94158
 Alpha virt. eigenvalues --    2.94544   2.96283   2.98114   2.98570   2.99101
 Alpha virt. eigenvalues --    3.00381   3.02037   3.02181   3.02385   3.04183
 Alpha virt. eigenvalues --    3.06066   3.06148   3.07721   3.08827   3.09423
 Alpha virt. eigenvalues --    3.10488   3.11464   3.12056   3.12712   3.14516
 Alpha virt. eigenvalues --    3.15574   3.16491   3.17558   3.19351   3.19792
 Alpha virt. eigenvalues --    3.20452   3.21694   3.23030   3.25184   3.25819
 Alpha virt. eigenvalues --    3.25940   3.27225   3.28738   3.30504   3.31528
 Alpha virt. eigenvalues --    3.33148   3.33384   3.35842   3.36670   3.37918
 Alpha virt. eigenvalues --    3.39125   3.40964   3.41759   3.42470   3.43878
 Alpha virt. eigenvalues --    3.45918   3.46877   3.48792   3.49030   3.50358
 Alpha virt. eigenvalues --    3.51666   3.52346   3.53086   3.55029   3.56400
 Alpha virt. eigenvalues --    3.56958   3.58271   3.58811   3.59903   3.61503
 Alpha virt. eigenvalues --    3.62006   3.63792   3.64204   3.66178   3.66771
 Alpha virt. eigenvalues --    3.68842   3.69608   3.70630   3.72330   3.73368
 Alpha virt. eigenvalues --    3.75747   3.76007   3.77255   3.78443   3.79169
 Alpha virt. eigenvalues --    3.81981   3.82967   3.83273   3.86070   3.86400
 Alpha virt. eigenvalues --    3.87907   3.88539   3.89783   3.91130   3.92702
 Alpha virt. eigenvalues --    3.93951   3.95144   3.96894   3.97780   3.98205
 Alpha virt. eigenvalues --    4.00375   4.00836   4.02614   4.03415   4.03631
 Alpha virt. eigenvalues --    4.04949   4.05616   4.06894   4.07721   4.09040
 Alpha virt. eigenvalues --    4.09528   4.10313   4.11007   4.12301   4.12786
 Alpha virt. eigenvalues --    4.15463   4.16340   4.17517   4.18918   4.19490
 Alpha virt. eigenvalues --    4.20355   4.21317   4.22811   4.23175   4.25069
 Alpha virt. eigenvalues --    4.25443   4.27822   4.28729   4.31764   4.31848
 Alpha virt. eigenvalues --    4.33223   4.34310   4.36405   4.37338   4.38787
 Alpha virt. eigenvalues --    4.41259   4.43280   4.45609   4.46635   4.49254
 Alpha virt. eigenvalues --    4.49518   4.51762   4.53218   4.55278   4.58174
 Alpha virt. eigenvalues --    4.58933   4.61638   4.63486   4.64716   4.68194
 Alpha virt. eigenvalues --    4.68509   4.70797   4.72566   4.74619   4.76279
 Alpha virt. eigenvalues --    4.77227   4.78823   4.79160   4.82269   4.83050
 Alpha virt. eigenvalues --    4.87226   4.88004   4.89454   4.91846   4.92188
 Alpha virt. eigenvalues --    4.93480   4.95085   4.96465   4.99746   5.02340
 Alpha virt. eigenvalues --    5.03709   5.04862   5.06138   5.08691   5.09652
 Alpha virt. eigenvalues --    5.11203   5.12238   5.14194   5.15876   5.17683
 Alpha virt. eigenvalues --    5.19647   5.20554   5.22081   5.25748   5.26653
 Alpha virt. eigenvalues --    5.28484   5.29613   5.31588   5.34358   5.35262
 Alpha virt. eigenvalues --    5.37531   5.39860   5.41577   5.44888   5.45712
 Alpha virt. eigenvalues --    5.49161   5.51594   5.52622   5.53924   5.56493
 Alpha virt. eigenvalues --    5.58767   5.65271   5.70255   5.76819   5.80977
 Alpha virt. eigenvalues --    5.82822   5.85176   5.90831   5.95037   5.99744
 Alpha virt. eigenvalues --    6.05597   6.07446   6.09052  11.29645  11.99260
 Alpha virt. eigenvalues --   12.45662  12.95153  13.19674  13.47298  14.08614
          Condensed to atoms (all electrons):
               1          2          3          4          5          6
     1  C    5.085874   0.291813  -0.059398   0.303901   0.006175  -0.046286
     2  C    0.291813   5.141107   0.312080  -0.036545  -0.048796  -0.026251
     3  C   -0.059398   0.312080   5.077971   0.008804   0.297506  -0.002586
     4  C    0.303901  -0.036545   0.008804   5.088290  -0.005924   0.260170
     5  C    0.006175  -0.048796   0.297506  -0.005924   5.143827   0.003599
     6  C   -0.046286  -0.026251  -0.002586   0.260170   0.003599   5.092786
     7  C   -0.001532   0.005046  -0.055385  -0.000848   0.280318  -0.009164
     8  H   -0.045580   0.008205  -0.000895   0.415948   0.000703  -0.042777
     9  H   -0.049978   0.001098   0.001493   0.419493  -0.005542  -0.052737
    10  H    0.422408  -0.053298   0.009789  -0.046298  -0.000644   0.002813
    11  H    0.422285  -0.049593  -0.006328  -0.053171  -0.000727   0.008590
    12  H   -0.044481   0.421822  -0.046037   0.007510   0.009057   0.001179
    13  H   -0.037931   0.406391  -0.038698  -0.009437  -0.010826  -0.014601
    14  H   -0.006751  -0.046840   0.420826  -0.000419  -0.051139   0.000072
    15  H    0.009902  -0.053638   0.420405  -0.000963  -0.039871   0.000035
    16  H   -0.000886   0.008887  -0.042165   0.000424   0.415837   0.000013
    17  H    0.004905  -0.010824  -0.038970  -0.004220   0.404561  -0.006746
    18  H   -0.006429  -0.011214  -0.000972  -0.055723  -0.000398   0.415237
    19  H    0.005348   0.000404  -0.000153  -0.051584  -0.001064   0.417080
    20  H    0.006775   0.000439   0.000027  -0.039201   0.000075   0.403230
    21  H    0.000104  -0.003550  -0.000054   0.000124  -0.058653   0.000004
    22  H    0.000703  -0.000193   0.001960   0.000341  -0.045992  -0.007868
    23  H   -0.000009  -0.000400   0.007566  -0.000030  -0.038210   0.000494
               7          8          9         10         11         12
     1  C   -0.001532  -0.045580  -0.049978   0.422408   0.422285  -0.044481
     2  C    0.005046   0.008205   0.001098  -0.053298  -0.049593   0.421822
     3  C   -0.055385  -0.000895   0.001493   0.009789  -0.006328  -0.046037
     4  C   -0.000848   0.415948   0.419493  -0.046298  -0.053171   0.007510
     5  C    0.280318   0.000703  -0.005542  -0.000644  -0.000727   0.009057
     6  C   -0.009164  -0.042777  -0.052737   0.002813   0.008590   0.001179
     7  C    5.043768  -0.000235   0.000892   0.000087   0.000160  -0.000440
     8  H   -0.000235   0.611214  -0.037386  -0.020561   0.002748  -0.000351
     9  H    0.000892  -0.037386   0.623075   0.009568  -0.017250  -0.000499
    10  H    0.000087  -0.020561   0.009568   0.601496  -0.033377  -0.013827
    11  H    0.000160   0.002748  -0.017250  -0.033377   0.586368  -0.000942
    12  H   -0.000440  -0.000351  -0.000499  -0.013827  -0.000942   0.575105
    13  H    0.007637  -0.000027  -0.000142  -0.001665   0.007748  -0.032172
    14  H    0.009522  -0.000093   0.000046   0.000196   0.004345  -0.004006
    15  H   -0.012569   0.000053  -0.000041  -0.000514   0.000417  -0.010061
    16  H   -0.038217  -0.000021   0.000436   0.000046  -0.000274  -0.000449
    17  H   -0.048858   0.001253  -0.004421  -0.000086   0.000640  -0.000329
    18  H   -0.003211   0.004156   0.008085   0.001990  -0.000268   0.000404
    19  H   -0.011945   0.007105  -0.020697  -0.000694  -0.000067  -0.000040
    20  H    0.001110  -0.019626   0.005576   0.000345  -0.000453  -0.000024
    21  H    0.403905   0.000021  -0.000081  -0.000011  -0.000007  -0.000349
    22  H    0.413383  -0.000170   0.000206  -0.000006  -0.000090   0.000100
    23  H    0.401614   0.000006  -0.000023  -0.000001   0.000011   0.000025
              13         14         15         16         17         18
     1  C   -0.037931  -0.006751   0.009902  -0.000886   0.004905  -0.006429
     2  C    0.406391  -0.046840  -0.053638   0.008887  -0.010824  -0.011214
     3  C   -0.038698   0.420826   0.420405  -0.042165  -0.038970  -0.000972
     4  C   -0.009437  -0.000419  -0.000963   0.000424  -0.004220  -0.055723
     5  C   -0.010826  -0.051139  -0.039871   0.415837   0.404561  -0.000398
     6  C   -0.014601   0.000072   0.000035   0.000013  -0.006746   0.415237
     7  C    0.007637   0.009522  -0.012569  -0.038217  -0.048858  -0.003211
     8  H   -0.000027  -0.000093   0.000053  -0.000021   0.001253   0.004156
     9  H   -0.000142   0.000046  -0.000041   0.000436  -0.004421   0.008085
    10  H   -0.001665   0.000196  -0.000514   0.000046  -0.000086   0.001990
    11  H    0.007748   0.004345   0.000417  -0.000274   0.000640  -0.000268
    12  H   -0.032172  -0.004006  -0.010061  -0.000449  -0.000329   0.000404
    13  H    0.589343   0.007951  -0.002488  -0.000183   0.001556  -0.008473
    14  H    0.007951   0.574875  -0.028663  -0.009405  -0.001923  -0.000207
    15  H   -0.002488  -0.028663   0.578246  -0.004411   0.008057   0.000104
    16  H   -0.000183  -0.009405  -0.004411   0.583228  -0.031818   0.000037
    17  H    0.001556  -0.001923   0.008057  -0.031818   0.589993  -0.000878
    18  H   -0.008473  -0.000207   0.000104   0.000037  -0.000878   0.613272
    19  H    0.000766   0.000065  -0.000001   0.000181  -0.001539  -0.046941
    20  H    0.000826   0.000009   0.000004  -0.000002   0.000561  -0.028882
    21  H    0.001495   0.000663   0.002790   0.002482   0.007428  -0.000278
    22  H   -0.004603  -0.000723   0.000272   0.007011  -0.013819  -0.004731
    23  H    0.000057  -0.000425   0.000585  -0.016287   0.003062   0.000334
              19         20         21         22         23
     1  C    0.005348   0.006775   0.000104   0.000703  -0.000009
     2  C    0.000404   0.000439  -0.003550  -0.000193  -0.000400
     3  C   -0.000153   0.000027  -0.000054   0.001960   0.007566
     4  C   -0.051584  -0.039201   0.000124   0.000341  -0.000030
     5  C   -0.001064   0.000075  -0.058653  -0.045992  -0.038210
     6  C    0.417080   0.403230   0.000004  -0.007868   0.000494
     7  C   -0.011945   0.001110   0.403905   0.413383   0.401614
     8  H    0.007105  -0.019626   0.000021  -0.000170   0.000006
     9  H   -0.020697   0.005576  -0.000081   0.000206  -0.000023
    10  H   -0.000694   0.000345  -0.000011  -0.000006  -0.000001
    11  H   -0.000067  -0.000453  -0.000007  -0.000090   0.000011
    12  H   -0.000040  -0.000024  -0.000349   0.000100   0.000025
    13  H    0.000766   0.000826   0.001495  -0.004603   0.000057
    14  H    0.000065   0.000009   0.000663  -0.000723  -0.000425
    15  H   -0.000001   0.000004   0.002790   0.000272   0.000585
    16  H    0.000181  -0.000002   0.002482   0.007011  -0.016287
    17  H   -0.001539   0.000561   0.007428  -0.013819   0.003062
    18  H   -0.046941  -0.028882  -0.000278  -0.004731   0.000334
    19  H    0.624952  -0.030122   0.000734  -0.008333   0.000586
    20  H   -0.030122   0.579564  -0.000052   0.001613  -0.000048
    21  H    0.000734  -0.000052   0.583716  -0.039649  -0.028395
    22  H   -0.008333   0.001613  -0.039649   0.601200  -0.029313
    23  H    0.000586  -0.000048  -0.028395  -0.029313   0.589843
 Mulliken charges:
               1
     1  C   -0.260931
     2  C   -0.256151
     3  C   -0.266788
     4  C   -0.200641
     5  C   -0.253872
     6  C   -0.396284
     7  C   -0.385040
     8  H    0.116311
     9  H    0.118829
    10  H    0.122247
    11  H    0.129235
    12  H    0.138807
    13  H    0.137476
    14  H    0.132023
    15  H    0.132354
    16  H    0.125535
    17  H    0.142414
    18  H    0.124987
    19  H    0.115959
    20  H    0.118256
    21  H    0.127614
    22  H    0.128701
    23  H    0.108958
 Sum of Mulliken charges =  -0.00000
 Mulliken charges with hydrogens summed into heavy atoms:
               1
     1  C   -0.009448
     2  C    0.020132
     3  C   -0.002410
     4  C    0.034499
     5  C    0.014077
     6  C   -0.037082
     7  C   -0.019767
 APT charges:
               1
     1  C   -0.875638
     2  C   -0.559801
     3  C   -0.872443
     4  C   -0.743389
     5  C   -0.544421
     6  C   -0.974173
     7  C   -1.150627
     8  H    0.500293
     9  H    0.274999
    10  H    0.459001
    11  H    0.350398
    12  H    0.461202
    13  H    0.238711
    14  H    0.377902
    15  H    0.423872
    16  H    0.484039
    17  H    0.201904
    18  H    0.172077
    19  H    0.241514
    20  H    0.511016
    21  H    0.307429
    22  H    0.197769
    23  H    0.518366
 Sum of APT charges =  -0.00000
 APT charges with hydrogens summed into heavy atoms:
               1
     1  C   -0.066239
     2  C    0.140112
     3  C   -0.070669
     4  C    0.031904
     5  C    0.141522
     6  C   -0.049566
     7  C   -0.127064
 Electronic spatial extent (au):  <R**2>=            950.9225
 Charge=             -0.0000 electrons
 Dipole moment (field-independent basis, Debye):
    X=              0.1703    Y=             -0.1129    Z=              0.0274  Tot=              0.2061
 Quadrupole moment (field-independent basis, Debye-Ang):
   XX=            -49.0183   YY=            -49.6360   ZZ=            -49.0973
   XY=              0.3235   XZ=             -0.5228   YZ=              0.2446
 Traceless Quadrupole moment (field-independent basis, Debye-Ang):
   XX=              0.2322   YY=             -0.3855   ZZ=              0.1533
   XY=              0.3235   XZ=             -0.5228   YZ=              0.2446
 Octapole moment (field-independent basis, Debye-Ang**2):
  XXX=              1.8091  YYY=             -2.1495  ZZZ=              0.4957  XYY=              0.9972
  XXY=              0.0827  XXZ=             -0.2340  XZZ=             -0.3641  YZZ=             -1.2769
  YYZ=              0.5051  XYZ=             -1.0963
 Hexadecapole moment (field-independent basis, Debye-Ang**3):
 XXXX=           -714.7474 YYYY=           -451.7242 ZZZZ=           -181.0069 XXXY=              3.5043
 XXXZ=             -9.1141 YYYX=              1.3433 YYYZ=              2.3576 ZZZX=              0.1538
 ZZZY=             -0.3466 XXYY=           -195.9878 XXZZ=           -151.5427 YYZZ=           -103.9170
 XXYZ=              2.5469 YYXZ=             -2.6877 ZZXY=              0.4797
 N-N= 3.411493564863D+02 E-N=-1.320752858233D+03  KE= 2.745586136037D+02
  Exact polarizability:   0.000   0.000   0.000   0.000   0.000   0.000
 Approx polarizability:  99.931   0.398  98.140  -0.548  -0.048  98.018
 No NMR shielding tensors so no spin-rotation constants.
 Leave Link  601 at Sat Sep 28 05:03:10 2019, MaxMem=   671088640 cpu:              53.3 elap:              26.7
 (Enter /shared/centos7/gaussian/g16/l701.exe)
 SCFChk:  SCF convergence  7.41D-09 required  1.00D-08
 ... and contract with generalized density number  0.
 Compute integral second derivatives.
 Entering OneElI...
 Calculate overlap and kinetic energy integrals
    NBasis = 485  MinDer = 2  MaxDer = 2
 Requested accuracy = 0.1000D-12
 PrmmSu-InSpLW:  IPartL=    0 NPrtUS=   20 NPrtUL=    1 DoSpLW=F IThBeg=    0 IThEnd=   19 NThAct=   20.
 PrsmSu:  NPrtUS=  20 ThrOK=T IAlg=1 NPAlg=1 LenDen=           0 ISkipM=0 DoSpLW=F IThBeg=    0 IThEnd=   19.
 Prism:   IPart=     0 DynPar=F LinDyn=F Incr=           6.
 PRISM was handed    33192048 working-precision words and 13825 shell-pairs
 PRISM was handed    33192048 working-precision words and 13825 shell-pairs
 PRISM was handed    33192048 working-precision words and 13825 shell-pairs
 PRISM was handed    33192048 working-precision words and 13825 shell-pairs
 PRISM was handed    33192048 working-precision words and 13825 shell-pairs
 PRISM was handed    33192048 working-precision words and 13825 shell-pairs
 PRISM was handed    33192048 working-precision words and 13825 shell-pairs
 PRISM was handed    33192048 working-precision words and 13825 shell-pairs
 PRISM was handed    33192048 working-precision words and 13825 shell-pairs
 PRISM was handed    33192048 working-precision words and 13825 shell-pairs
 PRISM was handed    33192048 working-precision words and 13825 shell-pairs
 PRISM was handed    33192048 working-precision words and 13825 shell-pairs
 PRISM was handed    33192048 working-precision words and 13825 shell-pairs
 PRISM was handed    33192048 working-precision words and 13825 shell-pairs
 PRISM was handed    33192048 working-precision words and 13825 shell-pairs
 PRISM was handed    33192048 working-precision words and 13825 shell-pairs
 PRISM was handed    33192048 working-precision words and 13825 shell-pairs
 PRISM was handed    33192048 working-precision words and 13825 shell-pairs
 PRISM was handed    33192048 working-precision words and 13825 shell-pairs
 PRISM was handed    33192048 working-precision words and 13825 shell-pairs
 IPart=  4 NShTot=         713 NBatch=          71 AvBLen=        10.0
 IPart=  3 NShTot=         717 NBatch=          73 AvBLen=         9.8
 IPart=  7 NShTot=         693 NBatch=          61 AvBLen=        11.4
 IPart= 14 NShTot=         674 NBatch=          52 AvBLen=        13.0
 IPart= 17 NShTot=         670 NBatch=          49 AvBLen=        13.7
 IPart= 16 NShTot=         672 NBatch=          50 AvBLen=        13.4
 IPart= 13 NShTot=         676 NBatch=          53 AvBLen=        12.8
 IPart=  8 NShTot=         692 NBatch=          61 AvBLen=        11.3
 IPart= 18 NShTot=         669 NBatch=          48 AvBLen=        13.9
 IPart= 12 NShTot=         677 NBatch=          54 AvBLen=        12.5
 IPart=  0 NShTot=         728 NBatch=          80 AvBLen=         9.1
 IPart=  9 NShTot=         688 NBatch=          60 AvBLen=        11.5
 IPart= 19 NShTot=         664 NBatch=          47 AvBLen=        14.1
 IPart=  6 NShTot=         703 NBatch=          67 AvBLen=        10.5
 IPart= 15 NShTot=         674 NBatch=          52 AvBLen=        13.0
 IPart= 10 NShTot=         682 NBatch=          56 AvBLen=        12.2
 IPart=  2 NShTot=         719 NBatch=          75 AvBLen=         9.6
 IPart= 11 NShTot=         682 NBatch=          56 AvBLen=        12.2
 IPart=  1 NShTot=         723 NBatch=          78 AvBLen=         9.3
 IPart=  5 NShTot=         709 NBatch=          70 AvBLen=        10.1
 PrSmSu:  NxtVal=            121.
 Entering OneElI...
 Calculate potential energy integrals
    NBasis = 485  MinDer = 2  MaxDer = 2
 Requested accuracy = 0.1000D-12
 PrmmSu-InSpLW:  IPartL=    0 NPrtUS=   20 NPrtUL=    1 DoSpLW=F IThBeg=    0 IThEnd=   19 NThAct=   20.
 PrsmSu:  NPrtUS=  20 ThrOK=T IAlg=1 NPAlg=1 LenDen=           0 ISkipM=0 DoSpLW=F IThBeg=    0 IThEnd=   19.
 Prism:   IPart=     0 DynPar=F LinDyn=F Incr=         147.
 PRISM was handed    33253127 working-precision words and 12821 shell-pairs
 PRISM was handed    33253127 working-precision words and 12821 shell-pairs
 PRISM was handed    33253127 working-precision words and 12821 shell-pairs
 PRISM was handed    33253127 working-precision words and 12821 shell-pairs
 PRISM was handed    33253127 working-precision words and 12821 shell-pairs
 PRISM was handed    33253127 working-precision words and 12821 shell-pairs
 PRISM was handed    33253127 working-precision words and 12821 shell-pairs
 PRISM was handed    33253127 working-precision words and 12821 shell-pairs
 PRISM was handed    33253127 working-precision words and 12821 shell-pairs
 PRISM was handed    33253127 working-precision words and 12821 shell-pairs
 PRISM was handed    33253127 working-precision words and 12821 shell-pairs
 PRISM was handed    33253127 working-precision words and 12821 shell-pairs
 PRISM was handed    33253127 working-precision words and 12821 shell-pairs
 PRISM was handed    33253127 working-precision words and 12821 shell-pairs
 PRISM was handed    33253127 working-precision words and 12821 shell-pairs
 PRISM was handed    33253127 working-precision words and 12821 shell-pairs
 PRISM was handed    33253127 working-precision words and 12821 shell-pairs
 PRISM was handed    33253127 working-precision words and 12821 shell-pairs
 PRISM was handed    33253127 working-precision words and 12821 shell-pairs
 PRISM was handed    33253127 working-precision words and 12821 shell-pairs
 IPart= 16 NShTot=       14283 NBatch=         622 AvBLen=        23.0
 IPart= 18 NShTot=       14214 NBatch=         619 AvBLen=        23.0
 IPart= 17 NShTot=       14260 NBatch=         621 AvBLen=        23.0
 IPart= 13 NShTot=       14559 NBatch=         634 AvBLen=        23.0
 IPart=  7 NShTot=       14674 NBatch=         640 AvBLen=        22.9
 IPart=  4 NShTot=       15203 NBatch=         663 AvBLen=        22.9
 IPart=  8 NShTot=       14651 NBatch=         638 AvBLen=        23.0
 IPart= 12 NShTot=       14559 NBatch=         634 AvBLen=        23.0
 IPart=  3 NShTot=       15272 NBatch=         666 AvBLen=        22.9
 IPart= 14 NShTot=       14490 NBatch=         631 AvBLen=        23.0
 IPart= 19 NShTot=       14191 NBatch=         618 AvBLen=        23.0
 IPart=  5 NShTot=       15088 NBatch=         658 AvBLen=        22.9
 IPart= 11 NShTot=       14605 NBatch=         636 AvBLen=        23.0
 IPart=  9 NShTot=       14628 NBatch=         637 AvBLen=        23.0
 IPart=  6 NShTot=       14881 NBatch=         649 AvBLen=        22.9
 IPart= 15 NShTot=       14398 NBatch=         627 AvBLen=        23.0
 IPart= 10 NShTot=       14605 NBatch=         636 AvBLen=        23.0
 IPart=  0 NShTot=       15502 NBatch=         676 AvBLen=        22.9
 IPart=  2 NShTot=       15387 NBatch=         671 AvBLen=        22.9
 IPart=  1 NShTot=       15433 NBatch=         673 AvBLen=        22.9
 PrSmSu:  NxtVal=           2941.
 Polarizability after L701:
                1             2             3 
      1  0.000000D+00
      2  0.000000D+00  0.000000D+00
      3  0.000000D+00  0.000000D+00  0.000000D+00
 Dipole Derivatives after L701:
                 1             2             3             4             5 
      1  -0.111826D+01  0.101002D+01  0.101491D+00  0.786923D-01  0.132501D+00
      2   0.650969D+00 -0.871187D+00  0.369960D+00  0.671439D-01 -0.815562D+00
      3   0.264392D+00  0.308386D+00 -0.637464D+00 -0.268289D-02 -0.928954D-01
                 6             7             8             9            10 
      1   0.173886D+00 -0.842004D+00 -0.709859D+00 -0.257233D+00 -0.144253D+01
      2  -0.745554D+00 -0.548793D+00 -0.118416D+01  0.310779D+00 -0.414736D+00
      3  -0.942532D+00 -0.331905D+00  0.285119D+00 -0.591168D+00 -0.150667D-01
                11            12            13            14            15 
      1  -0.350750D+00 -0.861864D+00 -0.647210D+00 -0.122760D+00  0.113081D+01
      2   0.559005D-01 -0.455004D+00 -0.284726D+00 -0.127398D+00 -0.182611D+00
      3  -0.208338D+00 -0.843535D+00  0.136526D+00 -0.221449D+00 -0.858656D+00
                16            17            18            19            20 
      1  -0.500522D+00 -0.747938D+00  0.584753D+00 -0.139702D+01  0.735053D+00
      2   0.314957D+00 -0.153286D+01  0.364250D+00  0.155105D+00 -0.118322D+01
      3   0.925605D-01 -0.251437D-01 -0.889135D+00  0.803881D-01 -0.836529D-01
                21            22            23            24            25 
      1  -0.769160D+00  0.118019D+01  0.135996D+00 -0.713138D-01 -0.312480D-01
      2   0.228835D+00  0.217431D+00  0.201989D+00 -0.165149D-01 -0.960243D-01
      3  -0.871640D+00  0.159760D+00  0.192040D-01  0.118701D+00 -0.223449D+00
                26            27            28            29            30 
      1   0.185718D-01  0.446647D+00  0.832178D+00 -0.247818D+00 -0.431272D+00
      2   0.188229D+00  0.188147D+00 -0.331351D+00  0.296939D+00  0.263660D+00
      3   0.374450D-01  0.668016D+00 -0.163470D+00  0.977964D-01  0.247887D+00
                31            32            33            34            35 
      1   0.119294D+00 -0.274003D+00  0.430252D+00  0.204647D+00 -0.109520D+00
      2   0.809530D-02  0.460671D+00 -0.474831D+00 -0.828221D-01  0.818265D+00
      3  -0.739339D-02 -0.191998D+00  0.471228D+00 -0.531712D-01  0.404973D+00
                36            37            38            39            40 
      1  -0.690776D-01  0.140368D+00  0.515229D-01 -0.278702D-01  0.100116D+00
      2   0.403531D+00  0.168232D-01  0.928947D-01  0.653713D-01 -0.115665D+00
      3   0.360694D+00  0.296406D-01 -0.485290D+00  0.482869D+00  0.378766D-01
                41            42            43            44            45 
      1   0.175572D+00 -0.232905D+00  0.644283D+00  0.240781D+00  0.405885D+00
      2   0.617293D+00 -0.553898D+00  0.423676D+00  0.360022D+00  0.377216D+00
      3  -0.231754D+00  0.416298D+00  0.142266D+00  0.850395D-01  0.267310D+00
                46            47            48            49            50 
      1   0.778298D+00  0.139008D+00 -0.578975D+00  0.142207D-01 -0.945255D-01
      2   0.259870D-01  0.173986D+00 -0.598204D-01  0.186867D+00  0.267156D+00
      3  -0.419691D+00 -0.121388D+00  0.499833D+00  0.383748D+00  0.226298D+00
                51            52            53            54            55 
      1  -0.639600D-01 -0.148249D-01 -0.651433D-01 -0.139061D+00  0.528195D-01
      2   0.613356D-01 -0.240036D+00  0.256985D-01 -0.235339D+00 -0.633676D+00
      3   0.324335D+00  0.286614D+00  0.225642D+00  0.505358D+00 -0.109037D+00
                56            57            58            59            60 
      1   0.249313D-01  0.340212D-01  0.680171D+00  0.472640D+00 -0.190799D+00
      2   0.416853D+00  0.374975D+00  0.627717D+00  0.686421D+00 -0.252818D+00
      3   0.559165D-01  0.254868D+00 -0.173155D+00 -0.180406D+00  0.166457D+00
                61            62            63            64            65 
      1   0.308182D+00  0.370722D+00  0.718318D+00 -0.157434D+00 -0.248734D+00
      2  -0.139564D-01  0.108991D+00 -0.784618D-01  0.559499D+00  0.558758D+00
      3   0.128524D+00  0.229812D+00  0.505113D+00 -0.176958D+00 -0.147563D+00
                66            67            68            69 
      1   0.133893D+00  0.101760D+01 -0.536268D+00 -0.466464D+00
      2  -0.175866D+00 -0.492482D+00  0.384323D+00  0.222658D+00
      3   0.191982D+00 -0.663153D-01  0.142441D-01  0.153180D+00
 Hessian after L701:
                1             2             3             4             5 
      1  0.158269D+02
      2 -0.107229D+00  0.159962D+02
      3 -0.532232D+00 -0.313934D+00  0.178749D+02
      4 -0.351392D+01  0.658077D+00  0.171127D+01  0.159018D+02
      5  0.682610D+00 -0.621405D+01  0.460781D+00 -0.201045D+00  0.175918D+02
      6  0.172295D+01  0.435330D+00 -0.520863D+01  0.192221D+00 -0.461711D+00
      7  0.410058D+00  0.948042D-01 -0.517415D-01 -0.335618D+01  0.122210D+00
      8 -0.255208D-01 -0.677312D-01  0.669686D-02  0.152125D+00 -0.627982D+01
      9  0.150925D-01  0.159135D-01 -0.364291D-01 -0.188577D+01 -0.942691D-01
     10 -0.607634D+01  0.723150D+00  0.113263D+00  0.112317D+00  0.227414D+00
     11  0.698825D+00 -0.273222D+01  0.108061D+01  0.241612D+00  0.161646D+00
     12  0.914093D-01  0.103292D+01 -0.581171D+01  0.154373D+00  0.138120D+00
     13  0.265713D+00 -0.142916D+00 -0.120726D+00  0.198144D+00 -0.172556D+00
     14 -0.134998D+00 -0.153929D+00  0.414354D-01 -0.163926D+00  0.576157D-01
     15 -0.578908D-01  0.336924D-01 -0.193401D+00 -0.168207D+00  0.102983D+00
     16 -0.984195D-01 -0.595686D-01  0.453900D-01 -0.748158D-01  0.109755D+00
     17 -0.372957D-01  0.316094D+00 -0.171103D+00  0.521480D-01  0.406507D-01
     18  0.416672D-01 -0.105622D+00 -0.732708D-01  0.503995D-01  0.117894D+00
     19  0.679111D-01 -0.808412D-01  0.173287D-01  0.494147D-01 -0.271442D+00
     20 -0.707939D-01 -0.442523D-01 -0.618038D-02 -0.245511D+00  0.518481D-01
     21  0.378399D-02 -0.127334D-02 -0.838366D-01 -0.103759D+00  0.100404D+00
     22  0.124833D+00 -0.925098D-01 -0.471016D-01  0.984346D-01  0.105983D+00
     23 -0.828358D-01 -0.371998D-01 -0.641369D-01  0.854303D-01  0.103444D-01
     24 -0.519400D-01 -0.713981D-01  0.695768D-01  0.507243D-01  0.376042D-01
     25  0.152092D+00 -0.334165D-01 -0.524230D-01 -0.169274D-01  0.149292D-01
     26  0.121883D-01 -0.747377D-01 -0.145732D+00  0.181460D-01 -0.171325D-03
     27 -0.676754D-02 -0.162027D+00  0.104112D+00  0.313155D-01  0.490453D-01
     28 -0.277684D+01 -0.750584D+00 -0.101678D+01 -0.116088D+00 -0.324379D-01
     29 -0.770158D+00 -0.400753D+01  0.471517D+00 -0.107274D-01  0.140672D+00
     30 -0.981507D+00  0.442769D+00 -0.372782D+01 -0.711976D-01  0.133974D-01
     31 -0.450697D+01 -0.130649D+00  0.137073D+00  0.669366D-02  0.390128D-01
     32 -0.330663D-01 -0.344437D+01 -0.134749D+01  0.451489D-01  0.146080D+00
     33  0.120362D-01 -0.130839D+01 -0.278204D+01 -0.132032D+00 -0.168674D-04
     34  0.135918D-02 -0.906098D-01 -0.892098D-01 -0.443731D+01 -0.210822D+00
     35 -0.991495D-01  0.107795D+00 -0.288487D-01 -0.205698D+00 -0.269394D+01
     36 -0.100260D+00 -0.281592D-01  0.490442D-01 -0.130893D+00  0.113730D+01
     37 -0.199370D-01  0.597670D-01 -0.105779D+00 -0.479511D+01 -0.213662D+00
     38  0.142423D-01  0.123507D+00 -0.287674D-01 -0.211594D+00 -0.330411D+01
     39 -0.121208D+00  0.307650D-01  0.728297D-02  0.226752D+00 -0.160801D+01
     40 -0.167745D-01  0.644297D-02  0.140348D-02  0.227112D-01 -0.669594D-01
     41  0.155965D-01  0.113943D-01 -0.121795D-01 -0.654575D-01  0.122388D+00
     42 -0.102074D-01 -0.190180D-01  0.208423D-02  0.116147D+00  0.191412D-01
     43  0.180639D+00  0.587181D-01  0.494082D-01 -0.132860D+00 -0.535850D-01
     44  0.685778D-01 -0.372411D-01  0.133165D-01 -0.815076D-01  0.129263D+00
     45  0.599867D-01  0.184677D-01 -0.465705D-01  0.699717D-01  0.237259D-01
     46  0.128952D-01  0.219254D-02 -0.147732D-01  0.806865D-01 -0.502337D-01
     47 -0.512011D-03 -0.802025D-02 -0.164892D-03 -0.381045D-01 -0.389456D-01
     48 -0.126510D-01 -0.200034D-02 -0.614407D-03 -0.118204D+00  0.453870D-01
     49  0.858057D-02 -0.467080D-01 -0.332495D-01  0.121219D-01  0.250656D-01
     50 -0.761918D-01  0.768938D-03  0.497248D-01 -0.340512D-02 -0.798957D-02
[...]
 ,-0.00017564,-0.00015272,0.00038264,-0.00220642,-0.00397478,-0.0021589
 2,-0.05816995,0.07704785,-0.00045960,0.00117720,0.00086169,-0.01284530
 ,0.00224808,-0.01101588,-0.11109618,0.04008146,-0.12863474,-0.00020745
 ,-0.00023538,-0.00026487,-0.01708778,0.00645925,-0.01194434,-0.0000139
 2,0.00026263,0.00000873,0.00301853,0.00284690,-0.00162537,0.00012895,0
 .00011625,0.00011606,0.00045688,0.00010140,-0.00048067,0.00014213,0.00
 025382,0.00044006,0.00046435,-0.00066853,0.00017358,-0.00018697,-0.000
 30525,-0.00025962,-0.00160391,-0.00269674,-0.00069474,0.12462475,-0.04
 335991,0.13986153,-0.00073848,-0.00104781,-0.00120168,0.00895987,-0.00
 785560,-0.00850675,-0.17143919,0.06976413,0.10897674,-0.00008685,-0.00
 036475,-0.00011626,-0.00831820,0.00300823,0.00741546,0.00014094,0.0001
 1222,0.00005944,0.00109213,0.00030265,-0.00132673,0.00010386,0.0001261
 3,-0.00000821,0.00026525,0.00001252,-0.00011594,0.00031939,-0.00045250
 ,0.00010170,0.00003067,-0.00015282,0.00019750,0.00166073,0.00017979,-0
 .00031912,-0.00023849,0.00035571,-0.00019185,-0.01821838,0.00911234,0.
 01566730,0.18562472,-0.00340677,-0.00311778,-0.00299982,0.01761165,-0.
 01348043,-0.01451845,0.06908962,-0.08206123,-0.06078064,-0.00049616,-0
 .00014130,0.00030927,-0.01773540,0.00707576,0.01770040,0.00015868,-0.0
 0001324,0.00001698,-0.00120933,0.00146191,-0.00027269,0.00011045,0.000
 07966,-0.00003431,0.00004603,0.00002863,0.00015704,0.00092607,-0.00133
 918,-0.00046945,-0.00011860,0.00026441,0.00007136,0.00051965,0.0003939
 0,0.00012853,-0.00026798,-0.00027657,-0.00049190,0.00628637,-0.0038573
 8,-0.00540542,-0.07058746,0.09726381,-0.00242879,-0.00107433,-0.000817
 67,0.01050189,-0.00600241,-0.00837796,0.10802616,-0.06139979,-0.145048
 02,-0.00025121,0.00010743,0.00016077,0.01729382,-0.00581105,-0.0164889
 1,0.00003407,0.00008082,0.00006124,0.00067026,-0.00162679,0.00070370,0
 .00002657,-0.00003487,-0.00002438,-0.00002421,0.00012933,-0.00009530,0
 .00061060,-0.00059178,0.00006450,0.00009657,-0.00007751,0.00018215,-0.
 00008307,0.00055198,0.00162168,-0.00021958,-0.00021909,-0.00050743,-0.
 01276540,0.00675918,0.01218243,-0.12125318,0.06442633,0.15681148,-0.00
 031875,-0.00024784,0.00006296,0.00036439,-0.00072603,0.00170978,-0.004
 67243,-0.00747982,-0.00524017,-0.00009270,-0.00004093,0.00010651,-0.09
 926795,-0.08102901,-0.06182163,0.00022296,0.00004927,0.00007348,-0.013
 29560,-0.01772301,-0.01632190,0.00005199,0.00009708,0.00000032,0.00011
 305,0.00004375,0.00009407,0.00010186,-0.00006491,-0.00005126,0.0000455
 4,-0.00001653,-0.00003091,-0.00006103,-0.00042754,-0.00020265,0.000013
 98,0.00032500,0.00005041,0.00074400,0.00047363,0.00014932,-0.00022679,
 0.00021974,-0.00034840,0.10779412,-0.00030861,0.00015492,-0.00006707,-
 0.00154200,-0.00130641,0.00521934,-0.01031807,-0.01969556,-0.01342726,
 0.00014247,-0.00002475,0.00001742,-0.08202328,-0.17646200,-0.10330845,
 -0.00004052,0.00010058,0.00002828,0.00797139,0.01052956,0.00979782,0.0
 0002258,-0.00008723,-0.00007120,-0.00005678,-0.00010098,-0.00015588,0.
 00013029,-0.00011676,-0.00006481,0.00003508,-0.00006551,0.00003970,-0.
 00053644,-0.00143179,-0.00057702,0.00016375,0.00044848,0.00002536,0.00
 076829,0.00032098,-0.00033307,-0.00015277,0.00095738,0.00006221,0.0884
 3358,0.19449303,0.00038108,0.00013070,0.00003273,0.00112092,0.00235760
 ,-0.00281968,0.00976992,0.01772827,0.01111541,0.00010587,0.00006562,-0
 .00015142,-0.06274263,-0.10384159,-0.12702454,-0.00032673,0.00011737,-
 0.00004590,-0.00818288,-0.01087349,-0.01061666,-0.00005164,-0.00012209
 ,0.00004429,-0.00017899,-0.00012870,-0.00011650,-0.00016645,0.00010015
 ,0.00006918,-0.00002342,-0.00000972,0.00002890,0.00050621,0.00087205,0
 .00037914,0.00017510,-0.00002009,0.00003602,-0.00027542,-0.00058252,0.
 00114315,-0.00016539,-0.00077335,0.00073992,0.07139554,0.10766059,0.13
 915020,-0.00007112,-0.00034033,-0.00004161,0.00016613,0.00036088,-0.00
 002809,-0.00663064,0.00278467,0.00663639,-0.00059550,0.00065376,0.0004
 9863,-0.16791475,0.05840104,0.11612960,0.00061221,-0.00013648,-0.00011
 157,-0.01884802,0.00988486,0.01614028,0.00009005,0.00033756,0.00004195
 ,0.00002112,0.00172877,0.00014732,0.00004913,0.00000853,-0.00004119,0.
 00001962,0.00004620,-0.00008375,0.00006750,0.00003261,-0.00021262,-0.0
 0017653,-0.00011953,-0.00012545,0.00031526,-0.00031629,-0.00008832,0.0
 0045648,-0.00146303,0.00114159,0.01068069,-0.00448098,-0.00967791,0.18
 419521,-0.00009876,-0.00002894,0.00025708,0.00039764,0.00152430,-0.000
 66738,-0.01809731,0.00887899,0.01771408,0.00034529,-0.00167771,-0.0004
 5267,0.06009484,-0.07792698,-0.06033849,0.00004749,-0.00050877,-0.0004
 9669,0.00961057,-0.00549329,-0.00838222,0.00006016,0.00013525,-0.00005
 447,0.00111065,-0.00205375,0.00016820,0.00007431,0.00004510,-0.0000411
 7,-0.00000224,0.00004135,-0.00004320,0.00017510,0.00022341,-0.00013600
 ,0.00002304,-0.00001889,-0.00028201,0.00065113,0.00072057,-0.00078288,
 -0.00195500,-0.00329385,0.00406803,0.01567325,-0.00826981,-0.01488807,
 -0.06896485,0.08793102,0.00032095,0.00028466,0.00001079,-0.00064213,-0
 .00027585,0.00078600,0.01358856,-0.00675201,-0.01421370,0.00085742,0.0
 0000996,0.00019297,0.11765165,-0.05904088,-0.16056198,-0.00013841,-0.0
 0086679,-0.00013091,-0.01318349,0.00698867,0.01211306,-0.00025092,-0.0
 0030515,-0.00023006,-0.00059730,-0.00017474,0.00002465,-0.00021899,0.0
 0008314,0.00011051,0.00000900,-0.00002088,-0.00002891,-0.00015816,-0.0
 0005949,0.00003618,0.00008256,0.00028309,0.00017020,-0.00043022,-0.000
 25237,0.00010116,0.00059739,0.00372721,-0.00165405,0.01173306,-0.00609
 213,-0.01232033,-0.12689928,0.06274987,0.17633780,0.00071017,0.0003986
 2,0.00116471,0.00019599,0.00000786,-0.00003086,-0.00004136,0.00006883,
 -0.00006558,-0.00740831,-0.00869346,-0.00530496,0.00024141,0.00010400,
 0.00002788,-0.12659800,-0.10666491,-0.05676990,0.00003574,-0.00004545,
 0.00002415,-0.00018755,-0.00005060,0.00030302,0.00014038,0.00142248,-0
 .00192364,0.00057363,0.00013117,-0.00033480,-0.00002343,0.00019603,0.0
 0011982,0.00001111,-0.00005547,-0.00006301,-0.00007430,0.00002478,-0.0
 0027182,-0.00002497,-0.00001252,0.00004409,0.00000081,-0.00003289,0.00
 000002,-0.00007676,0.00003153,0.00009538,-0.00021966,0.00005145,0.0000
 2666,0.13471755,0.00038547,0.00084518,-0.00011870,-0.00004136,0.000062
 53,-0.00021781,0.00016188,-0.00019031,0.00021857,0.00567598,0.00772287
 ,0.00436496,-0.00048987,0.00005059,0.00018309,-0.10701327,-0.19090040,
 -0.07772313,-0.00002517,0.00003915,-0.00012678,-0.00011544,0.00066406,
 -0.00070898,0.00072026,0.00049262,0.00245879,0.00005629,-0.00008813,-0
 .00055051,0.00021033,0.00008432,-0.00011054,0.00002289,0.00001783,-0.0
 0003381,0.00005487,-0.00023120,-0.00003124,-0.00003578,0.00008364,-0.0
 0000520,0.00002997,0.00006750,-0.00004823,0.00013132,-0.00005406,-0.00
 015113,0.00034474,0.00001821,-0.00002414,0.11745416,0.20496560,-0.0008
 2749,-0.00156799,0.00154702,0.00017926,0.00009645,-0.00007879,-0.00017
 544,0.00000581,0.00000155,-0.01693892,-0.02316790,-0.01397658,-0.00013
 918,0.00001670,0.00014179,-0.05665368,-0.07719351,-0.08743995,0.000017
 67,-0.00000592,-0.00008924,0.00033541,0.00022817,0.00122524,-0.0020941
 3,0.00240887,-0.00525240,0.00070019,0.00079642,-0.00013016,0.00003981,
 0.00031692,0.00051275,0.00008693,-0.00003647,-0.00000900,0.00009797,-0
 .00019516,-0.00004825,0.00004842,0.00000027,0.00010398,0.00007998,0.00
 003533,0.00003553,0.00004507,0.00000083,-0.00004296,0.00003862,0.00015
 550,-0.00016537,0.06564213,0.08390160,0.09683104,0.00003619,-0.0006230
 4,0.00020533,-0.00030178,0.00006588,0.00044191,-0.00015945,0.00022002,
 -0.00009753,-0.00752700,0.00922770,0.00013872,0.00081355,-0.00008379,-
 0.00032949,-0.13282668,0.12411656,0.00960981,0.00037966,0.00019232,0.0
 0051648,0.00019123,0.00019877,-0.00246622,0.00005518,-0.00001810,0.000
 35015,0.00004127,-0.00003803,-0.00000993,-0.00000161,0.00006649,-0.000
 06559,0.00016543,-0.00017198,0.00003566,-0.00065623,-0.00030183,0.0013
 8756,0.00003024,-0.00005045,0.00000385,-0.00006869,-0.00011483,0.00005
 586,-0.00026319,0.00010939,0.00020469,-0.00061563,-0.00022617,-0.00037
 156,0.01130397,-0.01543391,-0.00075194,0.14378086,0.00058676,-0.000196
 82,-0.00032638,0.00083612,-0.00018997,0.00027408,-0.00001321,0.0002426
 7,0.00018605,0.00453730,-0.00696761,0.00019870,-0.00046510,-0.00048983
 ,-0.00054707,0.12406234,-0.22675350,-0.01343598,-0.00029403,-0.0001097
 1,-0.00021842,0.00017991,0.00096506,0.00165880,-0.00026087,0.00045094,
 0.00022795,0.00003760,0.00001495,0.00001628,-0.00017772,0.00013335,0.0
 0007730,-0.00028936,0.00016591,-0.00035342,-0.00062148,0.00031453,-0.0
 0029409,-0.00007532,-0.00008536,-0.00010364,0.00000818,-0.00001404,0.0
 0001859,0.00014902,-0.00010155,-0.00009222,-0.00021604,-0.00063652,-0.
 00105535,0.01390436,-0.01913658,-0.00151441,-0.13778103,0.24585749,-0.
 00030440,0.00006062,0.00145188,0.00079579,-0.00018192,-0.00038914,-0.0
 0000494,0.00005672,-0.00028523,-0.01797049,0.02633726,0.00321507,0.000
 17326,-0.00042085,-0.00053873,0.01024386,-0.01462701,-0.04740064,-0.00
 004098,-0.00013350,-0.00001237,-0.00209185,0.00183709,-0.00581724,0.00
 035896,-0.00075254,0.00144901,0.00007144,0.00003023,-0.00011190,0.0000
 2115,-0.00031891,0.00016190,-0.00003905,-0.00008803,0.00018146,0.00112
 687,0.00010256,-0.00113181,0.00002600,0.00002073,0.00009108,-0.0000272
 3,-0.00003796,0.00010412,-0.00008818,0.00014570,0.00017356,-0.00067042
 ,-0.00076031,-0.00080991,0.00797266,-0.00961821,-0.00178895,-0.0097881
 5,0.01529608,0.05291511,-0.00078915,0.00067588,-0.00219695,-0.00027269
 ,0.00012127,-0.00028766,0.00004715,-0.00011190,-0.00001634,0.01091028,
 0.00311007,-0.00921575,0.00004543,0.00005862,-0.00001363,-0.20525793,-
 0.04037217,0.12771525,-0.00005942,-0.00008527,-0.00004391,0.00069641,-
 0.00028912,0.00071004,0.00043451,-0.00027149,0.00077450,0.00003767,0.0
 0022268,-0.00008678,0.00043869,0.00030396,-0.00048415,0.00011317,-0.00
 009456,0.00017961,0.00033160,-0.00019967,0.00019274,0.00003065,0.00005
 714,0.00004697,-0.00000263,0.00002875,0.00001305,-0.00001359,0.0000424
 0,0.00005200,-0.00014295,0.00001674,0.00013120,-0.01334736,-0.00201986
 ,0.01023142,-0.01394764,-0.00433192,0.01007029,0.22063289,0.00161434,-
 0.00012976,0.00196160,0.00049313,-0.00009746,0.00010907,-0.00009283,0.
 00013643,0.00013683,-0.00735347,-0.00314366,0.00499594,0.00005278,-0.0
 0012775,0.00001432,-0.03973582,-0.05712147,0.03131573,0.00007487,0.000
 06846,0.00002244,-0.00037420,-0.00007751,-0.00022497,0.00036738,0.0003
 2631,-0.00026720,0.00037217,0.00034165,-0.00026803,-0.00045992,0.00014
 024,0.00069557,-0.00013335,0.00009736,-0.00017551,-0.00029825,0.000028
 57,-0.00031289,-0.00003215,-0.00002843,-0.00005191,-0.00000893,0.00000
 545,0.00001440,0.00000998,-0.00002700,-0.00005077,0.00002421,0.0000611
 7,0.00005540,-0.01822901,-0.00450194,0.01575293,0.02079007,0.00631954,
 -0.01713177,0.04307972,0.05777810,-0.00446246,0.00117169,-0.00466337,-
 0.00060396,0.00039255,0.00018177,0.00005759,0.00010596,0.00011782,0.02
 407721,0.00548395,-0.01767419,0.00005416,-0.00006612,-0.00011420,0.126
 69233,0.03147589,-0.14788522,-0.00004104,-0.00000270,0.00005544,-0.000
 01796,0.00020293,0.00137400,0.00007470,-0.00085218,0.00071735,-0.00003
 207,0.00011249,0.00017097,0.00142603,0.00060401,-0.00129172,0.00008036
 ,-0.00006822,0.00001176,0.00000439,-0.00010620,0.00018895,0.00000169,0
 .00005238,0.00003275,-0.00001274,-0.00009668,-0.00002062,0.00000211,-0
 .00005820,-0.00000844,0.00007757,0.00001902,-0.00007147,-0.01065421,-0
 .00165783,0.00858296,0.00114818,-0.00016403,-0.00171507,-0.13785066,-0
 .03650425,0.16204273,-0.00005710,-0.00006523,0.00000887,-0.00001176,0.
 00006852,-0.00006150,0.00115345,-0.00115215,0.00117045,-0.00020088,-0.
 00009574,-0.00008629,-0.01946976,0.00971630,0.01688025,0.00004836,0.00
 007219,-0.00002478,-0.16956898,0.06089024,0.11689367,0.00005445,0.0000
 9163,0.00004879,0.00016967,0.00003718,0.00010000,0.00004512,0.00000379
 ,-0.00001921,-0.00000336,0.00001519,-0.00000531,0.00005450,0.00008798,
 0.00002375,-0.00009924,0.00009791,-0.00003915,0.00022905,-0.00038917,-
 0.00014044,0.00060704,0.00044246,-0.00081905,0.00051732,-0.00071760,0.
 00024110,-0.00314562,0.00188097,-0.00366909,0.00000672,0.00004705,0.00
 002497,-0.00014270,0.00000011,-0.00005990,0.00001697,-0.00003447,-0.00
 001657,0.18646510,0.00007969,0.00003783,-0.00005034,-0.00037661,-0.000
 16255,0.00004850,0.00053441,0.00045989,-0.00156019,0.00016609,-0.00000
 336,-0.00000288,0.00972002,-0.00584440,-0.00853155,-0.00008695,0.00016
 690,0.00001647,0.06077728,-0.07828521,-0.05876772,-0.00003404,-0.00007
 919,0.00003543,-0.00009119,-0.00005440,-0.00004657,-0.00003526,0.00002
 501,0.00001932,-0.00001003,0.00000143,0.00003579,0.00003243,-0.0001345
 9,0.00011539,0.00014438,0.00006350,-0.00009838,-0.00026846,0.00021716,
 0.00008928,-0.00028031,-0.00009436,0.00064758,-0.00057957,0.00044845,0
 .00034429,0.00225155,-0.00023783,0.00178416,0.00001919,-0.00004993,-0.
 00002280,-0.00003963,0.00005853,0.00013608,0.00004030,-0.00005406,0.00
 000771,-0.07004562,0.08122835,-0.00006284,-0.00001936,0.00001921,-0.00
 005177,-0.00009055,-0.00015931,-0.00064406,-0.00015827,0.00166240,-0.0
 0011182,-0.00004247,-0.00009384,-0.01231802,0.00690820,0.01120011,-0.0
 0010845,0.00017200,0.00000401,0.11769685,-0.05904393,-0.15769524,0.000
 05352,0.00002980,0.00007275,0.00007303,0.00006226,0.00006725,0.0000200
 2,-0.00001432,-0.00001981,0.00000372,-0.00000641,0.00001600,0.00004587
 ,-0.00006609,0.00009609,0.00015174,-0.00005310,-0.00000595,-0.00004495
 ,-0.00023515,0.00017704,0.00038547,-0.00046206,-0.00009050,0.00077242,
 -0.00041573,0.00082046,-0.00313125,0.00208887,-0.00103140,0.00002655,-
 0.00004135,0.00001415,-0.00002183,0.00003555,-0.00000031,0.00001959,-0
 .00003088,-0.00000268,-0.12681111,0.06329948,0.16945798,0.00014742,0.0
 0001231,0.00017220,0.00001975,-0.00014735,-0.00027205,0.00046147,-0.00
 052073,0.00068556,-0.00006353,-0.00014669,-0.00017636,-0.01217941,-0.0
 1808988,-0.01585252,-0.00018559,0.00037595,-0.00002094,-0.09784697,-0.
 07708054,-0.07047251,0.00005086,-0.00003266,0.00011923,0.00003974,0.00
 000580,0.00003453,-0.00002201,0.00003737,0.00000391,0.00004986,-0.0001
 0227,0.00002204,0.00011388,0.00001575,0.00027048,0.00074168,0.00013400
 ,0.00032561,0.00004025,0.00002667,0.00011282,-0.00000382,0.00016837,-0
 .00005583,-0.00353792,0.00299776,-0.00271603,0.00075537,-0.00057168,0.
 00067923,0.00006346,-0.00010470,0.00000361,-0.00030037,0.00027190,0.00
 020650,0.00008730,-0.00012204,-0.00001769,0.01078837,0.01567198,0.0133
 4443,0.10622097,0.00016392,-0.00005834,0.00018105,0.00013666,-0.000884
 95,-0.00023799,-0.00076250,0.00042190,-0.00011271,-0.00000709,-0.00006
 171,0.00002932,0.00585389,0.01130870,0.00891515,0.00004368,-0.00017328
 ,0.00016147,-0.07737450,-0.16345406,-0.10800403,-0.00000431,-0.0000023
 3,0.00002859,0.00001836,0.00000671,0.00000682,-0.00001603,0.00003265,0
 .00000988,0.00004438,-0.00004139,0.00000887,-0.00006182,0.00016256,-0.
 00011509,0.00036167,-0.00253000,0.00149673,-0.00007048,0.00009021,-0.0
 0025884,-0.00004877,-0.00002334,0.00002475,0.00264102,-0.00052572,0.00
 222741,-0.00080887,0.00069194,-0.00064510,-0.00000787,-0.00000027,-0.0
 0000371,0.00004925,0.00023903,-0.00009949,-0.00005924,0.00006325,-0.00
 000018,-0.00446238,-0.00756293,-0.00515014,0.08405132,0.17877894,0.000
 08949,0.00005414,0.00044108,-0.00015226,-0.00003389,-0.00071547,-0.000
 10467,-0.00118566,0.00021290,-0.00011875,-0.00010102,0.00004119,-0.006
 76492,-0.01057215,-0.01032342,0.00017193,-0.00001052,-0.00007987,-0.07
 036393,-0.10730805,-0.14583865,0.00004673,0.00000917,-0.00001564,0.000
 06297,0.00001116,0.00001380,-0.00000292,0.00002175,-0.00001404,0.00017
 046,-0.00016709,-0.00003472,0.00013033,0.00002433,0.00021641,0.0002452
 9,0.00109842,0.00057924,0.00015604,0.00018799,0.00014556,0.00001929,0.
 00002459,-0.00005614,-0.00253879,0.00198620,-0.00053791,0.00040221,0.0
 0035526,0.00064775,-0.00002226,0.00001901,0.00001676,-0.00009759,0.000
 05799,0.00021956,0.00004918,-0.00003713,-0.00004071,-0.00978578,-0.013
 83563,-0.01289161,0.08015839,0.11728274,0.15581593,0.00007210,0.000046
 33,0.00011941,-0.00024142,-0.00033630,-0.00054720,-0.00466782,0.001519
 77,-0.00199847,0.00002013,-0.00003347,-0.00001323,0.00941437,0.0215033
 9,-0.01550670,-0.00003613,0.00004538,-0.00001653,-0.07531489,-0.068352
 06,0.05012013,0.00000386,-0.00000562,0.00000680,0.00001240,0.00000384,
 -0.00002709,-0.00001690,0.00002598,0.00003239,0.00006527,-0.00007538,0
 .00001713,0.00005450,0.00008588,0.00007340,0.00013112,0.00004726,0.000
 38156,0.00042606,0.00110902,-0.00113006,0.00007964,-0.00017539,-0.0002
 2172,0.00117682,-0.00067146,0.00045969,0.00093167,-0.00029660,0.000881
 88,0.00000073,-0.00001587,0.00000934,0.00001341,-0.00004752,0.00001881
 ,0.00001064,-0.00000421,0.00001305,-0.00745671,-0.01758968,0.01071290,
 -0.00544077,-0.00968030,0.00824956,0.08076194,-0.00001679,0.00000509,0
 .00023069,0.00016664,0.00037716,-0.00005202,0.00280563,-0.00011792,0.0
 0064708,-0.00005300,0.00001229,0.00006807,-0.00497707,-0.00963549,0.00
 581722,0.00010360,0.00000770,-0.00007518,-0.06736421,-0.20541153,0.114
 56181,0.00002756,-0.00000514,-0.00005131,-0.00001935,0.00000782,0.0000
 1989,0.00001293,-0.00003906,-0.00004118,0.00007636,-0.00006095,-0.0000
 6457,0.00001471,-0.00006015,0.00007423,0.00014465,0.00026615,0.0001760
 7,-0.00035089,-0.00057960,0.00057051,-0.00010518,0.00011430,-0.0000047
 8,0.00008853,0.00081576,-0.00007031,-0.00001299,-0.00012498,-0.0004012
 9,-0.00002229,0.00003872,-0.00000792,-0.00015367,-0.00008049,0.0001474
 3,0.00007765,-0.00005750,-0.00005200,0.00351083,0.00985577,-0.00676636
 ,-0.00685065,-0.01647759,0.01211838,0.07289700,0.22114964,0.00011029,0
 .00003474,0.00020220,-0.00022233,-0.00039041,-0.00030326,-0.00385995,0
 .00058595,-0.00115518,-0.00002663,0.00001198,-0.00003063,0.00627373,0.
 01149225,-0.00961185,0.00005570,-0.00001026,-0.00004028,0.04929496,0.1
 1412393,-0.12937330,-0.00000340,0.00001868,0.00001209,0.00004485,-0.00
 000369,-0.00001230,-0.00002367,0.00005665,0.00004466,0.00006530,-0.000
 08882,0.00000308,0.00004083,0.00002720,0.00006927,0.00019747,0.0001056
 5,0.00028752,0.00013953,0.00114654,-0.00051856,-0.00025518,-0.00025433
 ,0.00051347,0.00044885,-0.00041263,-0.00004861,-0.00014269,-0.00025032
 ,0.00068703,-0.00000602,0.00002157,0.00000889,-0.00009833,0.00005763,0
 .00003857,0.00000999,-0.00001893,0.00001121,0.00614634,0.01633658,-0.0
 1161680,-0.00655460,-0.01574550,0.01219802,-0.05163505,-0.12684448,0.1
 3863476\\0.00000071,0.00000100,0.00000010,0.00000013,-0.00000056,0.000
 00093,0.00000064,0.00000004,-0.00000004,-0.00000037,-0.00000019,-0.000
 00067,-0.00000018,0.00000030,-0.00000060,-0.00000024,-0.00000113,-0.00
 000022,-0.00000068,-0.00000016,0.00000004,0.00000033,0.00000036,-0.000
 00051,0.00000019,0.00000057,-0.00000066,0.00000090,-0.00000025,0.00000
 082,0.00000140,0.00000062,0.00000016,0.00000120,-0.00000011,0.00000110
 ,-0.00000008,-0.00000028,0.00000110,0.00000105,0.00000057,-0.00000029,
 0.00000092,0.00000030,0.00000035,-0.00000011,0.00000057,-0.00000086,-0
 .00000037,0.00000022,-0.00000073,-0.00000052,-0.00000020,0.00000029,-0
 .00000118,0.00000005,0.00000004,-0.00000107,-0.00000019,-0.00000065,-0
 .00000042,-0.00000039,0.00000036,-0.00000099,-0.00000074,0.00000034,-0
 .00000126,-0.00000039,-0.00000040\\\@


 PENOTUS DIED A HUNDRED YEARS OLD WANTING BUT TWO...
 AND HE USED TO SAY BEFORE HE DIED, HAVING SPENT HIS
 WHOLE LIFE IN VAINLY SEARCHING AFTER THE PHILOSOPHER'S
 STONE, THAT IF HE HAD A MORTAL ENEMY HE DID NOT DARE
 TO ENCOUNTER OPENLY, HE WOULD ADVISE HIM ABOVE ALL
 THINGS TO GIVE HIMSELF UP TO THE STUDY AND PRACTICE
 OF ALCHEMY.  --  NICOLAS LEMERY, M.D.
 "A COURSE OF CHYMISTRY", WALTER KETTILBY, LONDON, 1686
 Job cpu time:       0 days  7 hours 56 minutes 58.2 seconds.
 Elapsed time:       0 days  3 hours 58 minutes 45.2 seconds.
 File lengths (MBytes):  RWF=   1488 Int=      0 D2E=      0 Chk=     32 Scr=     32
 Normal termination of Gaussian 16 at Sat Sep 28 22:22:37 2019.
