 Entering Gaussian System, Link 0=g16
 Input=med/species/CCCCCCC/conformers/CCCCCCC_997.com
 Output=med/species/CCCCCCC/conformers/CCCCCCC_997.log
 Initial command:
 /shared/centos7/gaussian/g16/l1.exe "/scratch/harms.n/gauss_scrdir/Gau-35887.inp" -scrdir="/scratch/harms.n/gauss_scrdir/"
 Entering Link 1 = /shared/centos7/gaussian/g16/l1.exe PID=     35888.
  
 Copyright (c) 1988,1990,1992,1993,1995,1998,2003,2009,2016,
            Gaussian, Inc.  All Rights Reserved.
  
 This is part of the Gaussian(R) 16 program.  It is based on
 the Gaussian(R) 09 system (copyright 2009, Gaussian, Inc.),
 the Gaussian(R) 03 system (copyright 2003, Gaussian, Inc.),
 the Gaussian(R) 98 system (copyright 1998, Gaussian, Inc.),
 the Gaussian(R) 94 system (copyright 1995, Gaussian, Inc.),
 the Gaussian 92(TM) system (copyright 1992, Gaussian, Inc.),
 the Gaussian 90(TM) system (copyright 1990, Gaussian, Inc.),
 the Gaussian 88(TM) system (copyright 1988, Gaussian, Inc.),
 the Gaussian 86(TM) system (copyright 1986, Carnegie Mellon
 University), and the Gaussian 82(TM) system (copyright 1983,
 Carnegie Mellon University). Gaussian is a federally registered
 trademark of Gaussian, Inc.
  
 This software contains proprietary and confidential information,
 including trade secrets, belonging to Gaussian, Inc.
  
 This software is provided under written license and may be
 used, copied, transmitted, or stored only in accord with that
 written license.
  
 The following legend is applicable only to US Government
 contracts under FAR:
  
                    RESTRICTED RIGHTS LEGEND
  
 Use, reproduction and disclosure by the US Government is
 subject to restrictions as set forth in subparagraphs (a)
 and (c) of the Commercial Computer Software - Restricted
 Rights clause in FAR 52.227-19.
  
 Gaussian, Inc.
 340 Quinnipiac St., Bldg. 40, Wallingford CT 06492
  
  
 ---------------------------------------------------------------
 Warning -- This program may not be used in any manner that
 competes with the business of Gaussian, Inc. or will provide
 assistance to any competitor of Gaussian, Inc.  The licensee
 of this program is prohibited from giving any competitor of
 Gaussian, Inc. access to this program.  By using this program,
 the user acknowledges that Gaussian, Inc. is engaged in the
 business of creating and licensing software in the field of
 computational chemistry and represents and warrants to the
 licensee that it is not a competitor of Gaussian, Inc. and that
 it will not use this program in any manner prohibited above.
 ---------------------------------------------------------------
  

 Cite this work as:
 Gaussian 16, Revision A.03,
 M. J. Frisch, G. W. Trucks, H. B. Schlegel, G. E. Scuseria, 
 M. A. Robb, J. R. Cheeseman, G. Scalmani, V. Barone, 
 G. A. Petersson, H. Nakatsuji, X. Li, M. Caricato, A. V. Marenich, 
 J. Bloino, B. G. Janesko, R. Gomperts, B. Mennucci, H. P. Hratchian, 
 J. V. Ortiz, A. F. Izmaylov, J. L. Sonnenberg, D. Williams-Young, 
 F. Ding, F. Lipparini, F. Egidi, J. Goings, B. Peng, A. Petrone, 
 T. Henderson, D. Ranasinghe, V. G. Zakrzewski, J. Gao, N. Rega, 
 G. Zheng, W. Liang, M. Hada, M. Ehara, K. Toyota, R. Fukuda, 
 J. Hasegawa, M. Ishida, T. Nakajima, Y. Honda, O. Kitao, H. Nakai, 
 T. Vreven, K. Throssell, J. A. Montgomery, Jr., J. E. Peralta, 
 F. Ogliaro, M. J. Bearpark, J. J. Heyd, E. N. Brothers, K. N. Kudin, 
 V. N. Staroverov, T. A. Keith, R. Kobayashi, J. Normand, 
 K. Raghavachari, A. P. Rendell, J. C. Burant, S. S. Iyengar, 
 J. Tomasi, M. Cossi, J. M. Millam, M. Klene, C. Adamo, R. Cammi, 
 J. W. Ochterski, R. L. Martin, K. Morokuma, O. Farkas, 
 J. B. Foresman, and D. J. Fox, Gaussian, Inc., Wallingford CT, 2016.
 
 ******************************************
 Gaussian 16:  EM64L-G16RevA.03 25-Dec-2016
                29-Sep-2019 
 ******************************************
 %nprocshared=20
 Will use up to   20 processors via shared memory.
 %mem=5GB
 ----------------------------------------------------------------------
 #p m062x/cc-pVTZ opt=(calcfc,maxcycles=900,Tight) freq IOP(7/33=1,2/16
 =3) scf=(maxcycle=900)
 ----------------------------------------------------------------------
 1/6=900,7=10,10=4,18=20,19=15,26=3,38=1/1,3;
 2/9=110,12=2,16=3,17=6,18=5,40=1/2;
 3/5=16,6=1,11=2,25=1,30=1,71=2,74=-55,140=1/1,2,3;
 4//1;
 5/5=2,7=900,38=5/2;
 8/6=4,10=90,11=11/1;
 11/6=1,8=1,9=11,15=111,16=1/1,2,10;
 10/6=1,13=1/2;
 6/7=2,8=2,9=2,10=2,28=1/1;
 7/10=1,18=20,25=1,33=1/1,2,3,16;
 1/6=900,7=10,10=4,18=20,19=15,26=3/3(2);
 2/9=110,16=3/2;
 99//99;
 2/9=110,16=3/2;
 3/5=16,6=1,11=2,25=1,30=1,71=1,74=-55/1,2,3;
 4/5=5,16=3,69=1/1;
 5/5=2,7=900,38=5/2;
 7/33=1/1,2,3,16;
 1/6=900,7=10,18=20,19=15,26=3/3(-5);
 2/9=110,16=3/2;
 6/7=2,8=2,9=2,10=2,19=2,28=1/1;
 99/9=1/99;
 Leave Link    1 at Sun Sep 29 04:25:30 2019, MaxMem=   671088640 cpu:               4.4 elap:               2.2
 (Enter /shared/centos7/gaussian/g16/l101.exe)
 ------------------------------
 Gaussian input prepared by ASE
 ------------------------------
 Symbolic Z-matrix:
 Charge =  0 Multiplicity = 1
 C                     1.38251  -1.14823   0.52507 
 C                     0.13612  -0.44904   0.94886 
 C                    -1.13661  -1.21815   0.69662 
 C                     2.15027  -0.50444  -0.57997 
 C                    -2.34608  -0.45866   1.18861 
 C                     3.54051  -0.11203  -0.29217 
 C                    -3.11254  -1.17913   2.26721 
 H                     1.58658   0.4001   -0.94493 
 H                     2.15579  -1.20123  -1.45187 
 H                     1.11461  -2.17728   0.20435 
 H                     2.03092  -1.28724   1.41439 
 H                     0.03718   0.53261   0.45973 
 H                     0.19085  -0.23163   2.03652 
 H                    -1.07601  -2.20714   1.18176 
 H                    -1.2266   -1.42424  -0.38992 
 H                    -2.00856   0.53096   1.59389 
 H                    -3.02535  -0.23739   0.34784 
 H                     3.84546  -0.31674   0.75137 
 H                     4.27293  -0.65787  -0.95787 
 H                     3.70205   0.9731   -0.46511 
 H                    -2.44649  -1.7701    2.89705 
 H                    -3.85691  -1.88759   1.80909 
 H                    -3.66298  -0.44288   2.92054 
 
 ITRead=  0  0  0  0  0  0  0  0  0  0  0  0  0  0  0  0  0  0  0  0
 ITRead=  0  0  0
 MicOpt= -1 -1 -1 -1 -1 -1 -1 -1 -1 -1 -1 -1 -1 -1 -1 -1 -1 -1 -1 -1
 MicOpt= -1 -1 -1
 NAtoms=     23 NQM=       23 NQMF=       0 NMMI=      0 NMMIF=      0
                NMic=       0 NMicF=      0.
                    Isotopes and Nuclear Properties:
 (Nuclear quadrupole moments (NQMom) in fm**2, nuclear magnetic moments (NMagM)
  in nuclear magnetons)

  Atom         1           2           3           4           5           6           7           8           9          10
 IAtWgt=          12          12          12          12          12          12          12           1           1           1
 AtmWgt=  12.0000000  12.0000000  12.0000000  12.0000000  12.0000000  12.0000000  12.0000000   1.0078250   1.0078250   1.0078250
 NucSpn=           0           0           0           0           0           0           0           1           1           1
 AtZEff=  -0.0000000  -0.0000000  -0.0000000  -0.0000000  -0.0000000  -0.0000000  -0.0000000  -0.0000000  -0.0000000  -0.0000000
 NQMom=    0.0000000   0.0000000   0.0000000   0.0000000   0.0000000   0.0000000   0.0000000   0.0000000   0.0000000   0.0000000
 NMagM=    0.0000000   0.0000000   0.0000000   0.0000000   0.0000000   0.0000000   0.0000000   2.7928460   2.7928460   2.7928460
 AtZNuc=   6.0000000   6.0000000   6.0000000   6.0000000   6.0000000   6.0000000   6.0000000   1.0000000   1.0000000   1.0000000

  Atom        11          12          13          14          15          16          17          18          19          20
 IAtWgt=           1           1           1           1           1           1           1           1           1           1
 AtmWgt=   1.0078250   1.0078250   1.0078250   1.0078250   1.0078250   1.0078250   1.0078250   1.0078250   1.0078250   1.0078250
 NucSpn=           1           1           1           1           1           1           1           1           1           1
 AtZEff=  -0.0000000  -0.0000000  -0.0000000  -0.0000000  -0.0000000  -0.0000000  -0.0000000  -0.0000000  -0.0000000  -0.0000000
 NQMom=    0.0000000   0.0000000   0.0000000   0.0000000   0.0000000   0.0000000   0.0000000   0.0000000   0.0000000   0.0000000
 NMagM=    2.7928460   2.7928460   2.7928460   2.7928460   2.7928460   2.7928460   2.7928460   2.7928460   2.7928460   2.7928460
 AtZNuc=   1.0000000   1.0000000   1.0000000   1.0000000   1.0000000   1.0000000   1.0000000   1.0000000   1.0000000   1.0000000

  Atom        21          22          23
 IAtWgt=           1           1           1
 AtmWgt=   1.0078250   1.0078250   1.0078250
 NucSpn=           1           1           1
 AtZEff=  -0.0000000  -0.0000000  -0.0000000
 NQMom=    0.0000000   0.0000000   0.0000000
 NMagM=    2.7928460   2.7928460   2.7928460
 AtZNuc=   1.0000000   1.0000000   1.0000000
 Leave Link  101 at Sun Sep 29 04:25:31 2019, MaxMem=   671088640 cpu:               3.0 elap:               1.5
 (Enter /shared/centos7/gaussian/g16/l103.exe)

 GradGradGradGradGradGradGradGradGradGradGradGradGradGradGradGradGradGrad
 Berny optimization.
 Initialization pass.
                           ----------------------------
                           !    Initial Parameters    !
                           ! (Angstroms and Degrees)  !
 --------------------------                            --------------------------
 ! Name  Definition              Value          Derivative Info.                !
 --------------------------------------------------------------------------------
 ! R1    R(1,2)                  1.4906         calculate D2E/DX2 analytically  !
 ! R2    R(1,4)                  1.4917         calculate D2E/DX2 analytically  !
 ! R3    R(1,10)                 1.1107         calculate D2E/DX2 analytically  !
 ! R4    R(1,11)                 1.1093         calculate D2E/DX2 analytically  !
 ! R5    R(2,3)                  1.5083         calculate D2E/DX2 analytically  !
 ! R6    R(2,12)                 1.1012         calculate D2E/DX2 analytically  !
 ! R7    R(2,13)                 1.1105         calculate D2E/DX2 analytically  !
 ! R8    R(3,5)                  1.5105         calculate D2E/DX2 analytically  !
 ! R9    R(3,14)                 1.1032         calculate D2E/DX2 analytically  !
 ! R10   R(3,15)                 1.1096         calculate D2E/DX2 analytically  !
 ! R11   R(4,6)                  1.473          calculate D2E/DX2 analytically  !
 ! R12   R(4,8)                  1.1266         calculate D2E/DX2 analytically  !
 ! R13   R(4,9)                  1.1161         calculate D2E/DX2 analytically  !
 ! R14   R(5,7)                  1.5066         calculate D2E/DX2 analytically  !
 ! R15   R(5,16)                 1.1214         calculate D2E/DX2 analytically  !
 ! R16   R(5,17)                 1.1033         calculate D2E/DX2 analytically  !
 ! R17   R(6,18)                 1.1063         calculate D2E/DX2 analytically  !
 ! R18   R(6,19)                 1.1303         calculate D2E/DX2 analytically  !
 ! R19   R(6,20)                 1.1106         calculate D2E/DX2 analytically  !
 ! R20   R(7,21)                 1.0907         calculate D2E/DX2 analytically  !
 ! R21   R(7,22)                 1.1251         calculate D2E/DX2 analytically  !
 ! R22   R(7,23)                 1.1278         calculate D2E/DX2 analytically  !
 ! A1    A(2,1,4)              116.0115         calculate D2E/DX2 analytically  !
 ! A2    A(2,1,10)             108.3606         calculate D2E/DX2 analytically  !
 ! A3    A(2,1,11)             108.638          calculate D2E/DX2 analytically  !
 ! A4    A(4,1,10)             108.066          calculate D2E/DX2 analytically  !
 ! A5    A(4,1,11)             110.3116         calculate D2E/DX2 analytically  !
 ! A6    A(10,1,11)            104.8548         calculate D2E/DX2 analytically  !
 ! A7    A(1,2,3)              114.7611         calculate D2E/DX2 analytically  !
 ! A8    A(1,2,12)             111.5286         calculate D2E/DX2 analytically  !
 ! A9    A(1,2,13)             109.2124         calculate D2E/DX2 analytically  !
 ! A10   A(3,2,12)             107.7257         calculate D2E/DX2 analytically  !
 ! A11   A(3,2,13)             107.7705         calculate D2E/DX2 analytically  !
 ! A12   A(12,2,13)            105.3634         calculate D2E/DX2 analytically  !
 ! A13   A(2,3,5)              111.3941         calculate D2E/DX2 analytically  !
 ! A14   A(2,3,14)             109.7078         calculate D2E/DX2 analytically  !
 ! A15   A(2,3,15)             109.0814         calculate D2E/DX2 analytically  !
 ! A16   A(5,3,14)             110.5781         calculate D2E/DX2 analytically  !
 ! A17   A(5,3,15)             110.328          calculate D2E/DX2 analytically  !
 ! A18   A(14,3,15)            105.579          calculate D2E/DX2 analytically  !
 ! A19   A(1,4,6)              117.1316         calculate D2E/DX2 analytically  !
 ! A20   A(1,4,8)              109.2071         calculate D2E/DX2 analytically  !
 ! A21   A(1,4,9)              108.1688         calculate D2E/DX2 analytically  !
 ! A22   A(6,4,8)              108.7633         calculate D2E/DX2 analytically  !
 ! A23   A(6,4,9)              108.318          calculate D2E/DX2 analytically  !
 ! A24   A(8,4,9)              104.5164         calculate D2E/DX2 analytically  !
 ! A25   A(3,5,7)              113.5826         calculate D2E/DX2 analytically  !
 ! A26   A(3,5,16)             108.689          calculate D2E/DX2 analytically  !
 ! A27   A(3,5,17)             110.2181         calculate D2E/DX2 analytically  !
 ! A28   A(7,5,16)             108.4452         calculate D2E/DX2 analytically  !
 ! A29   A(7,5,17)             109.1627         calculate D2E/DX2 analytically  !
 ! A30   A(16,5,17)            106.4833         calculate D2E/DX2 analytically  !
 ! A31   A(4,6,18)             113.2774         calculate D2E/DX2 analytically  !
 ! A32   A(4,6,19)             111.5845         calculate D2E/DX2 analytically  !
 ! A33   A(4,6,20)             111.5402         calculate D2E/DX2 analytically  !
 ! A34   A(18,6,19)            106.7129         calculate D2E/DX2 analytically  !
 ! A35   A(18,6,20)            106.7131         calculate D2E/DX2 analytically  !
 ! A36   A(19,6,20)            106.611          calculate D2E/DX2 analytically  !
 ! A37   A(5,7,21)             111.2141         calculate D2E/DX2 analytically  !
 ! A38   A(5,7,22)             110.2539         calculate D2E/DX2 analytically  !
 ! A39   A(5,7,23)             110.5385         calculate D2E/DX2 analytically  !
 ! A40   A(21,7,22)            107.3362         calculate D2E/DX2 analytically  !
 ! A41   A(21,7,23)            108.4967         calculate D2E/DX2 analytically  !
 ! A42   A(22,7,23)            108.9083         calculate D2E/DX2 analytically  !
 ! D1    D(4,1,2,3)            115.1495         calculate D2E/DX2 analytically  !
 ! D2    D(4,1,2,12)            -7.6966         calculate D2E/DX2 analytically  !
 ! D3    D(4,1,2,13)          -123.7418         calculate D2E/DX2 analytically  !
 ! D4    D(10,1,2,3)            -6.5544         calculate D2E/DX2 analytically  !
 ! D5    D(10,1,2,12)         -129.4006         calculate D2E/DX2 analytically  !
 ! D6    D(10,1,2,13)          114.5543         calculate D2E/DX2 analytically  !
 ! D7    D(11,1,2,3)          -119.9458         calculate D2E/DX2 analytically  !
 ! D8    D(11,1,2,12)          117.208          calculate D2E/DX2 analytically  !
 ! D9    D(11,1,2,13)            1.1629         calculate D2E/DX2 analytically  !
 ! D10   D(2,1,4,6)            120.7295         calculate D2E/DX2 analytically  !
 ! D11   D(2,1,4,8)             -3.4128         calculate D2E/DX2 analytically  !
 ! D12   D(2,1,4,9)           -116.5971         calculate D2E/DX2 analytically  !
 ! D13   D(10,1,4,6)          -117.4101         calculate D2E/DX2 analytically  !
 ! D14   D(10,1,4,8)           118.4476         calculate D2E/DX2 analytically  !
 ! D15   D(10,1,4,9)             5.2633         calculate D2E/DX2 analytically  !
 ! D16   D(11,1,4,6)            -3.3131         calculate D2E/DX2 analytically  !
 ! D17   D(11,1,4,8)          -127.4554         calculate D2E/DX2 analytically  !
 ! D18   D(11,1,4,9)           119.3603         calculate D2E/DX2 analytically  !
 ! D19   D(1,2,3,5)            178.4016         calculate D2E/DX2 analytically  !
 ! D20   D(1,2,3,14)            55.628          calculate D2E/DX2 analytically  !
 ! D21   D(1,2,3,15)           -59.5715         calculate D2E/DX2 analytically  !
 ! D22   D(12,2,3,5)           -56.7302         calculate D2E/DX2 analytically  !
 ! D23   D(12,2,3,14)         -179.5038         calculate D2E/DX2 analytically  !
 ! D24   D(12,2,3,15)           65.2966         calculate D2E/DX2 analytically  !
 ! D25   D(13,2,3,5)            56.506          calculate D2E/DX2 analytically  !
 ! D26   D(13,2,3,14)          -66.2676         calculate D2E/DX2 analytically  !
 ! D27   D(13,2,3,15)          178.5329         calculate D2E/DX2 analytically  !
 ! D28   D(2,3,5,7)           -118.5212         calculate D2E/DX2 analytically  !
 ! D29   D(2,3,5,16)             2.2833         calculate D2E/DX2 analytically  !
 ! D30   D(2,3,5,17)           118.6284         calculate D2E/DX2 analytically  !
 ! D31   D(14,3,5,7)             3.7518         calculate D2E/DX2 analytically  !
 ! D32   D(14,3,5,16)          124.5562         calculate D2E/DX2 analytically  !
 ! D33   D(14,3,5,17)         -119.0987         calculate D2E/DX2 analytically  !
 ! D34   D(15,3,5,7)           120.1759         calculate D2E/DX2 analytically  !
 ! D35   D(15,3,5,16)         -119.0197         calculate D2E/DX2 analytically  !
 ! D36   D(15,3,5,17)           -2.6746         calculate D2E/DX2 analytically  !
 ! D37   D(1,4,6,18)            -2.0511         calculate D2E/DX2 analytically  !
 ! D38   D(1,4,6,19)           118.404          calculate D2E/DX2 analytically  !
 ! D39   D(1,4,6,20)          -122.474          calculate D2E/DX2 analytically  !
 ! D40   D(8,4,6,18)           122.3155         calculate D2E/DX2 analytically  !
 ! D41   D(8,4,6,19)          -117.2295         calculate D2E/DX2 analytically  !
 ! D42   D(8,4,6,20)             1.8926         calculate D2E/DX2 analytically  !
 ! D43   D(9,4,6,18)          -124.6476         calculate D2E/DX2 analytically  !
 ! D44   D(9,4,6,19)            -4.1926         calculate D2E/DX2 analytically  !
 ! D45   D(9,4,6,20)           114.9295         calculate D2E/DX2 analytically  !
 ! D46   D(3,5,7,21)            32.8097         calculate D2E/DX2 analytically  !
 ! D47   D(3,5,7,22)           -86.133          calculate D2E/DX2 analytically  !
 ! D48   D(3,5,7,23)           153.3959         calculate D2E/DX2 analytically  !
 ! D49   D(16,5,7,21)          -88.1317         calculate D2E/DX2 analytically  !
 ! D50   D(16,5,7,22)          152.9257         calculate D2E/DX2 analytically  !
 ! D51   D(16,5,7,23)           32.4545         calculate D2E/DX2 analytically  !
 ! D52   D(17,5,7,21)          156.2387         calculate D2E/DX2 analytically  !
 ! D53   D(17,5,7,22)           37.296          calculate D2E/DX2 analytically  !
 ! D54   D(17,5,7,23)          -83.1751         calculate D2E/DX2 analytically  !
 --------------------------------------------------------------------------------
 Trust Radius=3.00D-01 FncErr=1.00D-07 GrdErr=1.00D-06 EigMax=2.50D+02 EigMin=1.00D-04
 Number of steps in this run=    138 maximum allowed number of steps=    138.
 GradGradGradGradGradGradGradGradGradGradGradGradGradGradGradGradGradGrad

 Leave Link  103 at Sun Sep 29 04:25:32 2019, MaxMem=   671088640 cpu:               1.5 elap:               0.8
 (Enter /shared/centos7/gaussian/g16/l202.exe)
                          Input orientation:                          
 ---------------------------------------------------------------------
 Center     Atomic      Atomic             Coordinates (Angstroms)
 Number     Number       Type             X           Y           Z
 ---------------------------------------------------------------------
      1          6           0        1.382512   -1.148228    0.525067
      2          6           0        0.136117   -0.449043    0.948861
      3          6           0       -1.136609   -1.218151    0.696622
      4          6           0        2.150272   -0.504443   -0.579972
      5          6           0       -2.346081   -0.458659    1.188613
      6          6           0        3.540512   -0.112027   -0.292170
      7          6           0       -3.112544   -1.179132    2.267213
      8          1           0        1.586577    0.400096   -0.944927
      9          1           0        2.155787   -1.201229   -1.451875
     10          1           0        1.114611   -2.177280    0.204352
     11          1           0        2.030917   -1.287241    1.414387
     12          1           0        0.037181    0.532610    0.459726
     13          1           0        0.190848   -0.231632    2.036515
     14          1           0       -1.076012   -2.207138    1.181757
     15          1           0       -1.226603   -1.424237   -0.389921
     16          1           0       -2.008558    0.530961    1.593891
     17          1           0       -3.025350   -0.237394    0.347842
     18          1           0        3.845464   -0.316739    0.751370
     19          1           0        4.272932   -0.657866   -0.957870
     20          1           0        3.702053    0.973095   -0.465108
     21          1           0       -2.446485   -1.770102    2.897053
     22          1           0       -3.856905   -1.887587    1.809090
     23          1           0       -3.662978   -0.442881    2.920543
 ---------------------------------------------------------------------
                    Distance matrix (angstroms):
                    1          2          3          4          5
     1  C    0.000000
     2  C    1.490625   0.000000
     3  C    2.525925   1.508304   0.000000
     4  C    1.491652   2.529274   3.597591   0.000000
     5  C    3.849442   2.493767   1.510531   4.831892   0.000000
     6  C    2.529536   3.639182   4.906800   1.472952   6.079872
     7  C    4.820950   3.581183   2.524400   6.021537   1.506627
     8  H    2.144722   2.532056   3.567794   1.126559   4.555793
     9  H    2.123455   3.226203   3.931438   1.116134   5.271660
    10  H    1.110665   2.120978   2.496047   2.118051   3.987331
    11  H    1.109344   2.123572   3.248566   2.145807   4.460452
    12  H    2.153928   1.101220   2.121100   2.573249   2.682131
    13  H    2.131828   1.110520   2.128539   3.280210   2.684491
    14  H    2.756242   2.148114   1.103233   4.051144   2.161088
    15  H    2.778644   2.144841   1.109570   3.505057   2.162715
    16  H    3.932101   2.444606   2.150529   4.805581   1.121392
    17  H    4.504473   3.225041   2.156588   5.264904   1.103295
    18  H    2.609352   3.716956   5.063259   2.163650   6.208586
    19  H    3.285435   4.559876   5.684576   2.161488   6.961207
    20  H    3.295562   4.091172   5.437263   2.145772   6.431534
    21  H    4.546897   3.494350   2.619604   5.900998   2.156092
    22  H    5.444894   4.330546   3.014256   6.611119   2.170119
    23  H    5.629636   4.280268   3.453898   6.786110   2.175788
                    6          7          8          9         10
     6  C    0.000000
     7  C    7.207795   0.000000
     8  H    2.122787   5.907076   0.000000
     9  H    2.109203   6.448831   1.773482   0.000000
    10  H    3.224407   4.808381   2.861199   2.186278   0.000000
    11  H    2.563658   5.214805   2.934435   2.870270   1.759537
    12  H    3.640637   4.014702   2.095528   3.338998   2.927384
    13  H    4.081339   3.444325   3.352035   4.119462   2.827668
    14  H    5.279607   2.526356   4.290668   4.288635   2.398966
    15  H    4.945385   3.267600   3.398559   3.552188   2.530121
    16  H    5.896002   2.143960   4.403148   5.442328   4.361143
    17  H    6.598172   2.139734   4.831927   5.568854   4.574169
    18  H    1.106291   7.173240   2.914420   2.914038   3.349388
    19  H    1.130281   8.075774   2.887206   2.240890   3.692475
    20  H    1.110627   7.650908   2.243612   2.844702   4.131331
    21  H    6.983158   1.090678   5.977974   6.357492   4.483062
    22  H    7.892382   1.125104   6.515337   6.874406   5.232120
    23  H    7.894382   1.127778   6.573455   7.317866   5.762916
                   11         12         13         14         15
    11  H    0.000000
    12  H    2.863253   0.000000
    13  H    2.210703   1.758961   0.000000
    14  H    3.248589   3.044133   2.497633   0.000000
    15  H    3.726356   2.479576   3.052714   1.762323   0.000000
    16  H    4.433445   2.339098   2.369568   2.921760   2.893053
    17  H    5.273095   3.159828   3.632572   2.893998   2.277801
    18  H    2.161954   3.912732   3.874927   5.289590   5.315539
    19  H    3.324206   4.622597   5.080495   5.965689   5.581646
    20  H    3.381466   3.805343   4.476387   5.971260   5.481286
    21  H    4.741159   4.172726   3.172215   2.238625   3.523057
    22  H    5.931497   4.779335   4.379294   2.868629   3.459600
    23  H    5.949949   4.549547   3.959560   3.581673   4.225891
                   16         17         18         19         20
    16  H    0.000000
    17  H    1.782378   0.000000
    18  H    5.974781   6.883110   0.000000
    19  H    6.883452   7.426075   1.794603   0.000000
    20  H    6.086545   6.883612   1.778780   1.796873   0.000000
    21  H    2.680467   3.030307   6.804766   7.826115   7.525542
    22  H    3.051569   2.355816   7.931761   8.675399   8.396031
    23  H    2.333556   2.658493   7.816516   8.835552   8.228688
                   21         22         23
    21  H    0.000000
    22  H    1.785147   0.000000
    23  H    1.800534   1.833060   0.000000
 Stoichiometry    C7H16
 Framework group  C1[X(C7H16)]
 Deg. of freedom    63
 Full point group                 C1      NOp   1
 Largest Abelian subgroup         C1      NOp   1
 Largest concise Abelian subgroup C1      NOp   1
                         Standard orientation:                         
 ---------------------------------------------------------------------
 Center     Atomic      Atomic             Coordinates (Angstroms)
 Number     Number       Type             X           Y           Z
 ---------------------------------------------------------------------
      1          6           0       -1.221127   -0.577822    0.224345
      2          6           0        0.020392   -0.014478   -0.378347
      3          6           0        1.200227    0.059144    0.558430
      4          6           0       -2.377914    0.357550    0.333656
      5          6           0        2.424502    0.603493   -0.139093
      6          6           0       -3.618740   -0.024496   -0.362030
      7          6           0        3.578584   -0.364388   -0.174124
      8          1           0       -2.063211    1.379288   -0.021521
      9          1           0       -2.611415    0.497286    1.416110
     10          1           0       -0.978992   -0.946750    1.243580
     11          1           0       -1.511609   -1.484649   -0.344802
     12          1           0       -0.149368    0.995243   -0.783724
     13          1           0        0.317774   -0.635240   -1.249825
     14          1           0        1.405203   -0.940456    0.977845
     15          1           0        0.935097    0.697765    1.426194
     16          1           0        2.149858    0.866495   -1.194044
     17          1           0        2.752319    1.540708    0.341974
     18          1           0       -3.529122   -0.970970   -0.927746
     19          1           0       -4.476774   -0.158244    0.361452
     20          1           0       -3.934730    0.753425   -1.088997
     21          1           0        3.227549   -1.394906   -0.240338
     22          1           0        4.188294   -0.277752    0.767474
     23          1           0        4.243581   -0.155275   -1.060654
 ---------------------------------------------------------------------
 Rotational constants (GHZ):          10.0273260           0.7986359           0.7956294
 Leave Link  202 at Sun Sep 29 04:25:34 2019, MaxMem=   671088640 cpu:               3.7 elap:               1.9
 (Enter /shared/centos7/gaussian/g16/l301.exe)
 Standard basis: CC-pVTZ (5D, 7F)
 Ernie: Thresh=  0.10000D-02 Tol=  0.10000D-05 Strict=F.
 Ernie:  21 primitive shells out of 310 were deleted.
 There are   485 symmetry adapted cartesian basis functions of A   symmetry.
 There are   434 symmetry adapted basis functions of A   symmetry.
   434 basis functions,   636 primitive gaussians,   485 cartesian basis functions
    29 alpha electrons       29 beta electrons
       nuclear repulsion energy       313.6138501146 Hartrees.
 IExCor= 4336 DFT=T Ex+Corr=M062X ExCW=0 ScaHFX=  0.540000
 ScaDFX=  1.000000  1.000000  1.000000  1.000000 ScalE2=  1.000000  1.000000
 IRadAn=      5 IRanWt=     -1 IRanGd=            0 ICorTp=0 IEmpDi=  4
 NAtoms=   23 NActive=   23 NUniq=   23 SFac= 1.00D+00 NAtFMM=   60 NAOKFM=F Big=F
 Integral buffers will be    131072 words long.
 Raffenetti 2 integral format.
 Two-electron integral symmetry is turned on.
 Leave Link  301 at Sun Sep 29 04:25:35 2019, MaxMem=   671088640 cpu:               1.8 elap:               0.9
 (Enter /shared/centos7/gaussian/g16/l302.exe)
 NPDir=0 NMtPBC=     1 NCelOv=     1 NCel=       1 NClECP=     1 NCelD=      1
         NCelK=      1 NCelE2=     1 NClLst=     1 CellRange=     0.0.
 One-electron integrals computed using PRISM.
 One-electron integral symmetry used in STVInt
 NBasis=   434 RedAO= T EigKep=  2.80D-04  NBF=   434
 NBsUse=   434 1.00D-06 EigRej= -1.00D+00 NBFU=   434
 Precomputing XC quadrature grid using
 IXCGrd= 4 IRadAn=           5 IRanWt=          -1 IRanGd=           0 AccXCQ= 0.00D+00.
 Generated NRdTot=       0 NPtTot=           0 NUsed=           0 NTot=          32
 NSgBfM=   485   485   485   485   485 MxSgAt=    23 MxSgA2=    23.
 Leave Link  302 at Sun Sep 29 04:26:49 2019, MaxMem=   671088640 cpu:             148.9 elap:              74.5
 (Enter /shared/centos7/gaussian/g16/l303.exe)
 DipDrv:  MaxL=1.
 Leave Link  303 at Sun Sep 29 04:26:55 2019, MaxMem=   671088640 cpu:              11.1 elap:               5.6
 (Enter /shared/centos7/gaussian/g16/l401.exe)
 ExpMin= 1.03D-01 ExpMax= 8.24D+03 ExpMxC= 2.81D+02 IAcc=3 IRadAn=         5 AccDes= 0.00D+00
 Harris functional with IExCor= 1009 and IRadAn=       5 diagonalized for initial guess.
 HarFok:  IExCor= 1009 AccDes= 0.00D+00 IRadAn=         5 IDoV= 1 UseB2=F ITyADJ=14
 ICtDFT=  3500011 ScaDFX=  1.000000  1.000000  1.000000  1.000000
 FoFCou: FMM=F IPFlag=           0 FMFlag=      100000 FMFlg1=           0
         NFxFlg=           0 DoJE=T BraDBF=F KetDBF=T FulRan=T
         wScrn=  0.000000 ICntrl=       500 IOpCl=  0 I1Cent=   200000004 NGrid=           0
         NMat0=    1 NMatS0=      1 NMatT0=    0 NMatD0=    1 NMtDS0=    0 NMtDT0=    0
 Petite list used in FoFCou.
 Harris En= -276.318448783520    
 JPrj=0 DoOrth=F DoCkMO=F.
 Leave Link  401 at Sun Sep 29 04:27:41 2019, MaxMem=   671088640 cpu:              91.0 elap:              45.5
 (Enter /shared/centos7/gaussian/g16/l502.exe)
 Integral symmetry usage will be decided dynamically.
 Closed shell SCF:
 Using DIIS extrapolation, IDIIS=  1040.
 NGot=   671088640 LenX=   670604095 LenY=   670368385
 Requested convergence on RMS density matrix=1.00D-08 within 900 cycles.
 Requested convergence on MAX density matrix=1.00D-06.
 Requested convergence on             energy=1.00D-06.
 No special actions if energy rises.
 Fock matrices will be formed incrementally for  20 cycles.
 Integral accuracy reduced to 1.0D-05 until final iterations.

 Cycle   1  Pass 0  IDiag  1:
 FoFJK:  IHMeth= 1 ICntrl=       0 DoSepK=F KAlg= 0 I1Cent=           0 FoldK=F
 IRaf= 890000000 NMat=       1 IRICut=       1 DoRegI=T DoRafI=F ISym2E= 0 IDoP0=0 IntGTp=1.
 FoFCou: FMM=F IPFlag=           0 FMFlag=      100000 FMFlg1=           0
         NFxFlg=           0 DoJE=F BraDBF=F KetDBF=F FulRan=T
         wScrn=  0.000000 ICntrl=         0 IOpCl=  0 I1Cent=           0 NGrid=           0
         NMat0=    1 NMatS0=      1 NMatT0=    0 NMatD0=    1 NMtDS0=    0 NMtDT0=    0
 Symmetry not used in FoFCou.
 E= -275.941031001655    
 DIIS: error= 2.80D-02 at cycle   1 NSaved=   1.
 NSaved= 1 IEnMin= 1 EnMin= -275.941031001655     IErMin= 1 ErrMin= 2.80D-02
 ErrMax= 2.80D-02  0.00D+00 EMaxC= 1.00D-01 BMatC= 3.75D-01 BMatP= 3.75D-01
 IDIUse=3 WtCom= 7.20D-01 WtEn= 2.80D-01
 Coeff-Com:  0.100D+01
 Coeff-En:   0.100D+01
 Coeff:      0.100D+01
 Gap=     0.391 Goal=   None    Shift=    0.000
 GapD=    0.391 DampG=1.000 DampE=0.500 DampFc=0.5000 IDamp=-1.
 Damping current iteration by 5.00D-01
 RMSDP=1.92D-03 MaxDP=6.78D-02              OVMax= 1.70D-01

 Cycle   2  Pass 0  IDiag  1:
 RMSU=  9.56D-04    CP:  9.90D-01
 E= -276.123703066976     Delta-E=       -0.182672065320 Rises=F Damp=T
 DIIS: error= 4.64D-03 at cycle   2 NSaved=   2.
 NSaved= 2 IEnMin= 2 EnMin= -276.123703066976     IErMin= 2 ErrMin= 4.64D-03
 ErrMax= 4.64D-03  0.00D+00 EMaxC= 1.00D-01 BMatC= 1.74D-02 BMatP= 3.75D-01
 IDIUse=3 WtCom= 9.54D-01 WtEn= 4.64D-02
 Coeff-Com: -0.651D-01 0.107D+01
 Coeff-En:   0.000D+00 0.100D+01
 Coeff:     -0.621D-01 0.106D+01
 Gap=     0.445 Goal=   None    Shift=    0.000
 RMSDP=4.87D-04 MaxDP=1.38D-02 DE=-1.83D-01 OVMax= 8.89D-02

 Cycle   3  Pass 0  IDiag  1:
 RMSU=  4.78D-04    CP:  9.98D-01  9.20D-01
 E= -276.302482399778     Delta-E=       -0.178779332802 Rises=F Damp=F
 DIIS: error= 1.81D-03 at cycle   3 NSaved=   3.
 NSaved= 3 IEnMin= 3 EnMin= -276.302482399778     IErMin= 3 ErrMin= 1.81D-03
 ErrMax= 1.81D-03  0.00D+00 EMaxC= 1.00D-01 BMatC= 1.41D-03 BMatP= 1.74D-02
 IDIUse=3 WtCom= 9.82D-01 WtEn= 1.81D-02
 Coeff-Com: -0.451D-01 0.175D+00 0.870D+00
 Coeff-En:   0.000D+00 0.000D+00 0.100D+01
 Coeff:     -0.443D-01 0.172D+00 0.872D+00
 Gap=     0.420 Goal=   None    Shift=    0.000
 RMSDP=6.75D-05 MaxDP=3.10D-03 DE=-1.79D-01 OVMax= 7.61D-03

 Cycle   4  Pass 0  IDiag  1:
 RMSU=  5.29D-05    CP:  9.97D-01  9.62D-01  9.80D-01
 E= -276.303763498160     Delta-E=       -0.001281098382 Rises=F Damp=F
 DIIS: error= 4.80D-04 at cycle   4 NSaved=   4.
 NSaved= 4 IEnMin= 4 EnMin= -276.303763498160     IErMin= 4 ErrMin= 4.80D-04
 ErrMax= 4.80D-04  0.00D+00 EMaxC= 1.00D-01 BMatC= 1.29D-04 BMatP= 1.41D-03
 IDIUse=3 WtCom= 9.95D-01 WtEn= 4.80D-03
 Coeff-Com: -0.108D-01 0.286D-01 0.272D+00 0.710D+00
 Coeff-En:   0.000D+00 0.000D+00 0.000D+00 0.100D+01
 Coeff:     -0.107D-01 0.285D-01 0.271D+00 0.712D+00
 Gap=     0.421 Goal=   None    Shift=    0.000
 RMSDP=2.22D-05 MaxDP=9.68D-04 DE=-1.28D-03 OVMax= 2.38D-03

 Cycle   5  Pass 0  IDiag  1:
 RMSU=  1.54D-05    CP:  9.97D-01  9.55D-01  1.00D+00  8.23D-01
 E= -276.303878178826     Delta-E=       -0.000114680666 Rises=F Damp=F
 DIIS: error= 1.22D-04 at cycle   5 NSaved=   5.
 NSaved= 5 IEnMin= 5 EnMin= -276.303878178826     IErMin= 5 ErrMin= 1.22D-04
 ErrMax= 1.22D-04  0.00D+00 EMaxC= 1.00D-01 BMatC= 1.26D-05 BMatP= 1.29D-04
 IDIUse=3 WtCom= 9.99D-01 WtEn= 1.22D-03
 Coeff-Com: -0.203D-03-0.204D-02 0.355D-01 0.260D+00 0.707D+00
 Coeff-En:   0.000D+00 0.000D+00 0.000D+00 0.000D+00 0.100D+01
 Coeff:     -0.203D-03-0.204D-02 0.354D-01 0.259D+00 0.707D+00
 Gap=     0.421 Goal=   None    Shift=    0.000
 RMSDP=5.40D-06 MaxDP=3.00D-04 DE=-1.15D-04 OVMax= 6.55D-04

 Initial convergence to 1.0D-05 achieved.  Increase integral accuracy.
 Cycle   6  Pass 1  IDiag  1:
 E= -276.303841169314     Delta-E=        0.000037009512 Rises=F Damp=F
 DIIS: error= 4.90D-05 at cycle   1 NSaved=   1.
 NSaved= 1 IEnMin= 1 EnMin= -276.303841169314     IErMin= 1 ErrMin= 4.90D-05
 ErrMax= 4.90D-05  0.00D+00 EMaxC= 1.00D-01 BMatC= 1.43D-06 BMatP= 1.43D-06
 IDIUse=1 WtCom= 1.00D+00 WtEn= 0.00D+00
 Coeff-Com:  0.100D+01
 Coeff:      0.100D+01
 Gap=     0.421 Goal=   None    Shift=    0.000
 RMSDP=5.40D-06 MaxDP=3.00D-04 DE= 3.70D-05 OVMax= 2.38D-04

 Cycle   7  Pass 1  IDiag  1:
 RMSU=  1.24D-05    CP:  1.00D+00
 E= -276.303841908291     Delta-E=       -0.000000738977 Rises=F Damp=F
 DIIS: error= 2.18D-05 at cycle   2 NSaved=   2.
 NSaved= 2 IEnMin= 2 EnMin= -276.303841908291     IErMin= 2 ErrMin= 2.18D-05
 ErrMax= 2.18D-05  0.00D+00 EMaxC= 1.00D-01 BMatC= 2.13D-07 BMatP= 1.43D-06
 IDIUse=1 WtCom= 1.00D+00 WtEn= 0.00D+00
 Coeff-Com:  0.199D+00 0.801D+00
 Coeff:      0.199D+00 0.801D+00
 Gap=     0.421 Goal=   None    Shift=    0.000
 RMSDP=1.09D-06 MaxDP=4.55D-05 DE=-7.39D-07 OVMax= 1.09D-04

 Cycle   8  Pass 1  IDiag  1:
 RMSU=  1.07D-06    CP:  1.00D+00  1.02D+00
 E= -276.303842049413     Delta-E=       -0.000000141122 Rises=F Damp=F
 DIIS: error= 1.21D-05 at cycle   3 NSaved=   3.
 NSaved= 3 IEnMin= 3 EnMin= -276.303842049413     IErMin= 3 ErrMin= 1.21D-05
 ErrMax= 1.21D-05  0.00D+00 EMaxC= 1.00D-01 BMatC= 7.21D-08 BMatP= 2.13D-07
 IDIUse=1 WtCom= 1.00D+00 WtEn= 0.00D+00
 Coeff-Com: -0.933D-02 0.362D+00 0.647D+00
 Coeff:     -0.933D-02 0.362D+00 0.647D+00
 Gap=     0.421 Goal=   None    Shift=    0.000
 RMSDP=4.29D-07 MaxDP=1.78D-05 DE=-1.41D-07 OVMax= 4.53D-05

 Cycle   9  Pass 1  IDiag  1:
 RMSU=  2.39D-07    CP:  1.00D+00  1.03D+00  7.02D-01
 E= -276.303842119152     Delta-E=       -0.000000069739 Rises=F Damp=F
 DIIS: error= 1.50D-06 at cycle   4 NSaved=   4.
 NSaved= 4 IEnMin= 4 EnMin= -276.303842119152     IErMin= 4 ErrMin= 1.50D-06
 ErrMax= 1.50D-06  0.00D+00 EMaxC= 1.00D-01 BMatC= 8.92D-10 BMatP= 7.21D-08
 IDIUse=1 WtCom= 1.00D+00 WtEn= 0.00D+00
 Coeff-Com: -0.761D-02 0.933D-01 0.199D+00 0.715D+00
 Coeff:     -0.761D-02 0.933D-01 0.199D+00 0.715D+00
 Gap=     0.421 Goal=   None    Shift=    0.000
 RMSDP=6.31D-08 MaxDP=1.98D-06 DE=-6.97D-08 OVMax= 5.84D-06

 Cycle  10  Pass 1  IDiag  1:
 RMSU=  6.17D-08    CP:  1.00D+00  1.03D+00  7.05D-01  9.75D-01
 E= -276.303842120057     Delta-E=       -0.000000000905 Rises=F Damp=F
 DIIS: error= 2.77D-07 at cycle   5 NSaved=   5.
 NSaved= 5 IEnMin= 5 EnMin= -276.303842120057     IErMin= 5 ErrMin= 2.77D-07
 ErrMax= 2.77D-07  0.00D+00 EMaxC= 1.00D-01 BMatC= 5.41D-11 BMatP= 8.92D-10
 IDIUse=1 WtCom= 1.00D+00 WtEn= 0.00D+00
 Coeff-Com: -0.380D-03-0.210D-01-0.322D-01 0.114D+00 0.940D+00
 Coeff:     -0.380D-03-0.210D-01-0.322D-01 0.114D+00 0.940D+00
 Gap=     0.421 Goal=   None    Shift=    0.000
 RMSDP=2.59D-08 MaxDP=7.00D-07 DE=-9.05D-10 OVMax= 2.25D-06

 Cycle  11  Pass 1  IDiag  1:
 RMSU=  1.32D-08    CP:  1.00D+00  1.03D+00  7.10D-01  1.06D+00  1.03D+00
 E= -276.303842120118     Delta-E=       -0.000000000060 Rises=F Damp=F
 DIIS: error= 1.06D-07 at cycle   6 NSaved=   6.
 NSaved= 6 IEnMin= 6 EnMin= -276.303842120118     IErMin= 6 ErrMin= 1.06D-07
 ErrMax= 1.06D-07  0.00D+00 EMaxC= 1.00D-01 BMatC= 9.64D-12 BMatP= 5.41D-11
 IDIUse=1 WtCom= 1.00D+00 WtEn= 0.00D+00
 Coeff-Com:  0.385D-03-0.148D-01-0.267D-01-0.341D-02 0.383D+00 0.662D+00
 Coeff:      0.385D-03-0.148D-01-0.267D-01-0.341D-02 0.383D+00 0.662D+00
 Gap=     0.421 Goal=   None    Shift=    0.000
 RMSDP=5.52D-09 MaxDP=2.15D-07 DE=-6.05D-11 OVMax= 5.56D-07

 SCF Done:  E(RM062X) =  -276.303842120     A.U. after   11 cycles
            NFock= 11  Conv=0.55D-08     -V/T= 2.0065
 KE= 2.745164690038D+02 PE=-1.265687835510D+03 EE= 4.012536742718D+02
 Leave Link  502 at Sun Sep 29 04:43:11 2019, MaxMem=   671088640 cpu:            1861.3 elap:             930.8
 (Enter /shared/centos7/gaussian/g16/l801.exe)
 DoSCS=F DFT=T ScalE2(SS,OS)=  1.000000  1.000000
 Range of M.O.s used for correlation:     1   434
 NBasis=   434 NAE=    29 NBE=    29 NFC=     0 NFV=     0
 NROrb=    434 NOA=    29 NOB=    29 NVA=   405 NVB=   405

 **** Warning!!: The largest alpha MO coefficient is  0.12884003D+02

 Leave Link  801 at Sun Sep 29 04:43:12 2019, MaxMem=   671088640 cpu:               1.7 elap:               0.8
 (Enter /shared/centos7/gaussian/g16/l1101.exe)
 Using compressed storage, NAtomX=    23.
 Will process     24 centers per pass.
 Leave Link 1101 at Sun Sep 29 04:43:58 2019, MaxMem=   671088640 cpu:              91.2 elap:              45.6
 (Enter /shared/centos7/gaussian/g16/l1102.exe)
 Symmetrizing basis deriv contribution to polar:
 IMax=3 JMax=2 DiffMx= 0.00D+00
 Leave Link 1102 at Sun Sep 29 04:44:01 2019, MaxMem=   671088640 cpu:               5.2 elap:               2.6
 (Enter /shared/centos7/gaussian/g16/l1110.exe)
 Forming Gx(P) for the SCF density, NAtomX=    23.
 Integral derivatives from FoFJK, PRISM(SPDF).
 Do as many integral derivatives as possible in FoFJK.
 G2DrvN: MDV=     671086848.
 G2DrvN: will do    24 centers at a time, making    1 passes.
 Calling FoFCou, ICntrl=  3107 FMM=F I1Cent=   0 AccDes= 0.00D+00.
 FoFJK:  IHMeth= 1 ICntrl=    3107 DoSepK=F KAlg= 0 I1Cent=           0 FoldK=F
 IRaf=         0 NMat=       1 IRICut=       1 DoRegI=T DoRafI=F ISym2E= 0 IDoP0=0 IntGTp=1.
 FoFCou: FMM=F IPFlag=           0 FMFlag=      100000 FMFlg1=           0
         NFxFlg=           0 DoJE=F BraDBF=F KetDBF=F FulRan=T
         wScrn=  0.000000 ICntrl=      3107 IOpCl=  0 I1Cent=           0 NGrid=           0
         NMat0=    1 NMatS0=      1 NMatT0=    0 NMatD0=    1 NMtDS0=    0 NMtDT0=    0
 Symmetry not used in FoFCou.
 End of G2Drv F.D. properties file   721 does not exist.
 End of G2Drv F.D. properties file   722 does not exist.
 End of G2Drv F.D. properties file   788 does not exist.
 Leave Link 1110 at Sun Sep 29 05:23:34 2019, MaxMem=   671088640 cpu:            4746.3 elap:            2373.5
 (Enter /shared/centos7/gaussian/g16/l1002.exe)
 Minotr:  Closed shell wavefunction.
          IDoAtm=11111111111111111111111
          Direct CPHF calculation.
          Differentiating once with respect to nuclear coordinates.
          Requested convergence is 1.0D-08 RMS, and 1.0D-07 maximum.
          Secondary convergence is 1.0D-12 RMS, and 1.0D-12 maximum.
          NewPWx=T KeepS1=F KeepF1=F KeepIn=T MapXYZ=F SortEE=F KeepMc=T.
         6953 words used for storage of precomputed grid.
 Two-electron integrals replicated using symmetry.
          MDV=     671088640 using IRadAn=       1.
          Solving linear equations simultaneously, MaxMat=     380.
 FoF2E skips out because all densities are zero.
 CalDSu exits because no D1Ps are significant.
 FoFJK:  IHMeth= 1 ICntrl=       0 DoSepK=F KAlg= 0 I1Cent=           0 FoldK=F
 IRaf= 870000000 NMat=      69 IRICut=     172 DoRegI=T DoRafI=T ISym2E= 2 IDoP0=3 IntGTp=3.
 FoFCou: FMM=F IPFlag=           0 FMFlag=      100000 FMFlg1=           0
         NFxFlg=           0 DoJE=F BraDBF=F KetDBF=F FulRan=T
         wScrn=  0.000000 ICntrl=         0 IOpCl=  0 I1Cent=           0 NGrid=           0
         NMat0=   69 NMatS0=     69 NMatT0=    0 NMatD0=   69 NMtDS0=    0 NMtDT0=    0
 Integrals replicated using symmetry in FoFCou.
 Raff kept on since  82.89% of shell-pairs survive, threshold=   0.20 IRatSp=83.
          There are    72 degrees of freedom in the 1st order CPHF.  IDoFFX=6 NUNeed=     0.
     66 vectors produced by pass  0 Test12= 1.63D-14 1.39D-09 XBig12= 5.54D-02 3.57D-02.
 AX will form    66 AO Fock derivatives at one time.
     66 vectors produced by pass  1 Test12= 1.63D-14 1.39D-09 XBig12= 4.02D-03 8.98D-03.
     66 vectors produced by pass  2 Test12= 1.63D-14 1.39D-09 XBig12= 6.53D-05 1.13D-03.
     66 vectors produced by pass  3 Test12= 1.63D-14 1.39D-09 XBig12= 4.95D-07 6.99D-05.
     66 vectors produced by pass  4 Test12= 1.63D-14 1.39D-09 XBig12= 2.54D-09 4.71D-06.
     66 vectors produced by pass  5 Test12= 1.63D-14 1.39D-09 XBig12= 1.21D-11 3.93D-07.
     22 vectors produced by pass  6 Test12= 1.63D-14 1.39D-09 XBig12= 4.13D-14 1.76D-08.
 InvSVY:  IOpt=1 It=  1 EMax= 3.05D-16
 Solved reduced A of dimension   418 with    72 vectors.
 End of Minotr F.D. properties file   721 does not exist.
 End of Minotr F.D. properties file   722 does not exist.
 End of Minotr F.D. properties file   788 does not exist.
 Leave Link 1002 at Sun Sep 29 06:30:07 2019, MaxMem=   671088640 cpu:            7984.0 elap:            3992.5
 (Enter /shared/centos7/gaussian/g16/l601.exe)
 Copying SCF densities to generalized density rwf, IOpCl= 0 IROHF=0.

 **********************************************************************

            Population analysis using the SCF density.

 **********************************************************************

 Orbital symmetries:
       Occupied  (A) (A) (A) (A) (A) (A) (A) (A) (A) (A) (A) (A)
                 (A) (A) (A) (A) (A) (A) (A) (A) (A) (A) (A) (A)
                 (A) (A) (A) (A) (A)
       Virtual   (A) (A) (A) (A) (A) (A) (A) (A) (A) (A) (A) (A)
                 (A) (A) (A) (A) (A) (A) (A) (A) (A) (A) (A) (A)
                 (A) (A) (A) (A) (A) (A) (A) (A) (A) (A) (A) (A)
                 (A) (A) (A) (A) (A) (A) (A) (A) (A) (A) (A) (A)
                 (A) (A) (A) (A) (A) (A) (A) (A) (A) (A) (A) (A)
                 (A) (A) (A) (A) (A) (A) (A) (A) (A) (A) (A) (A)
                 (A) (A) (A) (A) (A) (A) (A) (A) (A) (A) (A) (A)
                 (A) (A) (A) (A) (A) (A) (A) (A) (A) (A) (A) (A)
                 (A) (A) (A) (A) (A) (A) (A) (A) (A) (A) (A) (A)
                 (A) (A) (A) (A) (A) (A) (A) (A) (A) (A) (A) (A)
                 (A) (A) (A) (A) (A) (A) (A) (A) (A) (A) (A) (A)
                 (A) (A) (A) (A) (A) (A) (A) (A) (A) (A) (A) (A)
                 (A) (A) (A) (A) (A) (A) (A) (A) (A) (A) (A) (A)
                 (A) (A) (A) (A) (A) (A) (A) (A) (A) (A) (A) (A)
                 (A) (A) (A) (A) (A) (A) (A) (A) (A) (A) (A) (A)
                 (A) (A) (A) (A) (A) (A) (A) (A) (A) (A) (A) (A)
                 (A) (A) (A) (A) (A) (A) (A) (A) (A) (A) (A) (A)
                 (A) (A) (A) (A) (A) (A) (A) (A) (A) (A) (A) (A)
                 (A) (A) (A) (A) (A) (A) (A) (A) (A) (A) (A) (A)
                 (A) (A) (A) (A) (A) (A) (A) (A) (A) (A) (A) (A)
                 (A) (A) (A) (A) (A) (A) (A) (A) (A) (A) (A) (A)
                 (A) (A) (A) (A) (A) (A) (A) (A) (A) (A) (A) (A)
                 (A) (A) (A) (A) (A) (A) (A) (A) (A) (A) (A) (A)
                 (A) (A) (A) (A) (A) (A) (A) (A) (A) (A) (A) (A)
                 (A) (A) (A) (A) (A) (A) (A) (A) (A) (A) (A) (A)
                 (A) (A) (A) (A) (A) (A) (A) (A) (A) (A) (A) (A)
                 (A) (A) (A) (A) (A) (A) (A) (A) (A) (A) (A) (A)
                 (A) (A) (A) (A) (A) (A) (A) (A) (A) (A) (A) (A)
                 (A) (A) (A) (A) (A) (A) (A) (A) (A) (A) (A) (A)
                 (A) (A) (A) (A) (A) (A) (A) (A) (A) (A) (A) (A)
                 (A) (A) (A) (A) (A) (A) (A) (A) (A) (A) (A) (A)
                 (A) (A) (A) (A) (A) (A) (A) (A) (A) (A) (A) (A)
                 (A) (A) (A) (A) (A) (A) (A) (A) (A) (A) (A) (A)
                 (A) (A) (A) (A) (A) (A) (A) (A) (A)
 The electronic state is 1-A.
 Alpha  occ. eigenvalues --  -10.52616 -10.52540 -10.52452 -10.52407 -10.52276
 Alpha  occ. eigenvalues --  -10.52235 -10.52098  -0.91984  -0.88424  -0.82998
 Alpha  occ. eigenvalues --   -0.76265  -0.69623  -0.65450  -0.64635  -0.54273
 Alpha  occ. eigenvalues --   -0.52930  -0.50990  -0.50192  -0.48276  -0.46047
 Alpha  occ. eigenvalues --   -0.44925  -0.42369  -0.41578  -0.40418  -0.39029
 Alpha  occ. eigenvalues --   -0.38240  -0.36970  -0.35609  -0.35109
 Alpha virt. eigenvalues --    0.07005   0.07391   0.08462   0.08944   0.10255
 Alpha virt. eigenvalues --    0.11084   0.11319   0.13328   0.13588   0.15202
 Alpha virt. eigenvalues --    0.16283   0.16569   0.17278   0.17498   0.18621
 Alpha virt. eigenvalues --    0.21308   0.22211   0.23631   0.25232   0.26631
 Alpha virt. eigenvalues --    0.26961   0.27787   0.28373   0.30197   0.30335
 Alpha virt. eigenvalues --    0.32493   0.33901   0.35811   0.36434   0.37474
 Alpha virt. eigenvalues --    0.38354   0.40493   0.40759   0.41633   0.42137
 Alpha virt. eigenvalues --    0.44076   0.45253   0.45868   0.46469   0.47430
 Alpha virt. eigenvalues --    0.48140   0.48227   0.49709   0.50311   0.50489
 Alpha virt. eigenvalues --    0.50923   0.51752   0.52283   0.52597   0.53677
 Alpha virt. eigenvalues --    0.53972   0.54406   0.54790   0.55206   0.56318
 Alpha virt. eigenvalues --    0.56868   0.57954   0.59116   0.59806   0.60494
 Alpha virt. eigenvalues --    0.64131   0.65147   0.70601   0.73688   0.77176
 Alpha virt. eigenvalues --    0.78628   0.79671   0.81535   0.84562   0.85462
 Alpha virt. eigenvalues --    0.86359   0.87964   0.89494   0.90595   0.91474
 Alpha virt. eigenvalues --    0.93337   0.94825   0.95616   0.95832   0.97098
 Alpha virt. eigenvalues --    0.99801   1.00846   1.01861   1.03625   1.04239
 Alpha virt. eigenvalues --    1.06228   1.06399   1.06862   1.08114   1.09280
 Alpha virt. eigenvalues --    1.10118   1.10974   1.11794   1.13276   1.13817
 Alpha virt. eigenvalues --    1.14426   1.15440   1.16424   1.17573   1.17946
 Alpha virt. eigenvalues --    1.18897   1.20204   1.20461   1.20833   1.23417
 Alpha virt. eigenvalues --    1.24186   1.24567   1.25971   1.28117   1.28374
 Alpha virt. eigenvalues --    1.30325   1.30718   1.31514   1.32571   1.33295
 Alpha virt. eigenvalues --    1.33961   1.34078   1.34632   1.36178   1.36667
 Alpha virt. eigenvalues --    1.37726   1.39798   1.40603   1.41116   1.41651
 Alpha virt. eigenvalues --    1.43734   1.45913   1.46919   1.48162   1.48892
 Alpha virt. eigenvalues --    1.50428   1.50734   1.51357   1.52669   1.53946
 Alpha virt. eigenvalues --    1.55318   1.56663   1.56844   1.57917   1.58770
 Alpha virt. eigenvalues --    1.60708   1.63722   1.64527   1.66062   1.71269
 Alpha virt. eigenvalues --    1.71873   1.74186   1.76206   1.82658   2.15052
 Alpha virt. eigenvalues --    2.22854   2.23629   2.24245   2.28824   2.30421
 Alpha virt. eigenvalues --    2.34016   2.36614   2.38432   2.40813   2.44156
 Alpha virt. eigenvalues --    2.44827   2.47327   2.47641   2.49943   2.51117
 Alpha virt. eigenvalues --    2.51614   2.54753   2.56424   2.57494   2.58699
 Alpha virt. eigenvalues --    2.59728   2.60382   2.61884   2.63876   2.65042
 Alpha virt. eigenvalues --    2.68038   2.68924   2.70030   2.71418   2.73926
 Alpha virt. eigenvalues --    2.74475   2.74957   2.75846   2.77854   2.79252
 Alpha virt. eigenvalues --    2.80253   2.81515   2.83275   2.83673   2.84053
 Alpha virt. eigenvalues --    2.85694   2.88335   2.88953   2.90096   2.90977
 Alpha virt. eigenvalues --    2.93438   2.94091   2.95322   2.95936   2.97816
 Alpha virt. eigenvalues --    2.98323   2.99110   3.01083   3.02328   3.02603
 Alpha virt. eigenvalues --    3.04171   3.04241   3.05197   3.06165   3.07098
 Alpha virt. eigenvalues --    3.07539   3.08279   3.09924   3.10666   3.11661
 Alpha virt. eigenvalues --    3.12333   3.13739   3.14211   3.16043   3.16385
 Alpha virt. eigenvalues --    3.17287   3.18143   3.18405   3.20197   3.22056
 Alpha virt. eigenvalues --    3.24884   3.25183   3.25652   3.27054   3.28214
 Alpha virt. eigenvalues --    3.29604   3.30455   3.32112   3.32643   3.33333
 Alpha virt. eigenvalues --    3.33949   3.36587   3.37669   3.38571   3.40329
 Alpha virt. eigenvalues --    3.40717   3.41867   3.42629   3.45639   3.46311
 Alpha virt. eigenvalues --    3.47717   3.49664   3.50893   3.51817   3.51971
 Alpha virt. eigenvalues --    3.53742   3.55209   3.56042   3.56758   3.58825
 Alpha virt. eigenvalues --    3.59239   3.60493   3.61228   3.63990   3.64722
 Alpha virt. eigenvalues --    3.66427   3.67667   3.69447   3.71038   3.71662
 Alpha virt. eigenvalues --    3.72833   3.75161   3.75919   3.77358   3.77513
 Alpha virt. eigenvalues --    3.78737   3.80172   3.81020   3.81468   3.82540
 Alpha virt. eigenvalues --    3.83659   3.84787   3.85443   3.87038   3.88554
 Alpha virt. eigenvalues --    3.90485   3.92128   3.92949   3.94459   3.94627
 Alpha virt. eigenvalues --    3.95601   3.97358   3.97530   3.99441   4.00600
 Alpha virt. eigenvalues --    4.01665   4.02975   4.04184   4.04542   4.05793
 Alpha virt. eigenvalues --    4.07010   4.07635   4.09781   4.09981   4.10197
 Alpha virt. eigenvalues --    4.11999   4.12856   4.13050   4.15137   4.16251
 Alpha virt. eigenvalues --    4.17645   4.18513   4.18672   4.20958   4.21709
 Alpha virt. eigenvalues --    4.23402   4.24420   4.25859   4.26365   4.28575
 Alpha virt. eigenvalues --    4.30316   4.30827   4.31207   4.33102   4.33598
 Alpha virt. eigenvalues --    4.35459   4.38130   4.38787   4.40354   4.43116
 Alpha virt. eigenvalues --    4.44240   4.48569   4.48813   4.51748   4.53630
 Alpha virt. eigenvalues --    4.57481   4.58170   4.60036   4.64308   4.66089
 Alpha virt. eigenvalues --    4.67037   4.69398   4.70046   4.71677   4.73384
 Alpha virt. eigenvalues --    4.75683   4.76828   4.78478   4.80153   4.83468
 Alpha virt. eigenvalues --    4.83935   4.85921   4.87611   4.88978   4.93169
 Alpha virt. eigenvalues --    4.94426   4.94659   4.96826   4.97809   4.99266
 Alpha virt. eigenvalues --    5.00572   5.02796   5.03382   5.03945   5.07559
 Alpha virt. eigenvalues --    5.08439   5.08975   5.12143   5.12622   5.14765
 Alpha virt. eigenvalues --    5.15927   5.21028   5.21759   5.24001   5.26261
 Alpha virt. eigenvalues --    5.27064   5.27880   5.29861   5.31046   5.33008
 Alpha virt. eigenvalues --    5.35877   5.37949   5.39651   5.41582   5.42588
 Alpha virt. eigenvalues --    5.44112   5.45172   5.48570   5.49875   5.52103
 Alpha virt. eigenvalues --    5.54681   5.65253   5.67337   5.71693   5.76271
 Alpha virt. eigenvalues --    5.77179   5.80415   5.81873   5.86923   5.90375
 Alpha virt. eigenvalues --    5.93946   5.96520   6.02383  11.15098  11.69288
 Alpha virt. eigenvalues --   12.28779  12.80646  13.41271  13.53460  13.88960
          Condensed to atoms (all electrons):
               1          2          3          4          5          6
     1  C    5.121164   0.304355  -0.050246   0.301059   0.009794  -0.048866
     2  C    0.304355   5.089777   0.297075  -0.048773  -0.046832   0.003600
     3  C   -0.050246   0.297075   5.118390   0.003673   0.300661  -0.000222
     4  C    0.301059  -0.048773   0.003673   5.052499  -0.000473   0.291710
     5  C    0.009794  -0.046832   0.300661  -0.000473   5.061358   0.000017
     6  C   -0.048866   0.003600  -0.000222   0.291710   0.000017   4.951412
     7  C   -0.000504   0.003178  -0.048008   0.000009   0.304775  -0.000000
     8  H   -0.057976  -0.010540  -0.000250   0.418032   0.000041  -0.046251
     9  H   -0.046702   0.006775  -0.000250   0.411022  -0.000009  -0.042303
    10  H    0.413915  -0.054812  -0.010085  -0.048349   0.001236   0.007299
    11  H    0.411673  -0.046005   0.006351  -0.041627  -0.000597  -0.016736
    12  H   -0.045440   0.413391  -0.042412  -0.012993  -0.007363   0.000308
    13  H   -0.047323   0.411660  -0.045200   0.007558  -0.003473  -0.000105
    14  H   -0.004599  -0.043941   0.415613   0.000244  -0.049431  -0.000036
    15  H   -0.001835  -0.040210   0.401402   0.000422  -0.037013  -0.000005
    16  H    0.001593  -0.004886  -0.064165  -0.000126   0.419628   0.000003
    17  H   -0.000609   0.004635  -0.038761   0.000067   0.402818  -0.000002
    18  H   -0.009552  -0.000084  -0.000070  -0.053028   0.000002   0.406925
    19  H    0.005111  -0.000400   0.000015  -0.045517  -0.000000   0.407086
    20  H    0.006552   0.000189   0.000027  -0.047691  -0.000002   0.408079
    21  H   -0.000045  -0.000106  -0.004815   0.000006  -0.051724  -0.000000
    22  H    0.000025   0.000132  -0.002489  -0.000000  -0.039750   0.000000
    23  H    0.000028  -0.000691   0.009675  -0.000001  -0.043405   0.000000
               7          8          9         10         11         12
     1  C   -0.000504  -0.057976  -0.046702   0.413915   0.411673  -0.045440
     2  C    0.003178  -0.010540   0.006775  -0.054812  -0.046005   0.413391
     3  C   -0.048008  -0.000250  -0.000250  -0.010085   0.006351  -0.042412
     4  C    0.000009   0.418032   0.411022  -0.048349  -0.041627  -0.012993
     5  C    0.304775   0.000041  -0.000009   0.001236  -0.000597  -0.007363
     6  C   -0.000000  -0.046251  -0.042303   0.007299  -0.016736   0.000308
     7  C    4.939995   0.000001   0.000001  -0.000092   0.000068   0.000453
     8  H    0.000001   0.627730  -0.042566   0.007085   0.005543   0.002872
     9  H    0.000001  -0.042566   0.624414  -0.021077   0.006588   0.001018
    10  H   -0.000092   0.007085  -0.021077   0.607683  -0.038798   0.006015
    11  H    0.000068   0.005543   0.006588  -0.038798   0.598961   0.005429
    12  H    0.000453   0.002872   0.001018   0.006015   0.005429   0.589149
    13  H    0.000757   0.001482  -0.000692   0.006549  -0.018793  -0.040572
    14  H   -0.010044  -0.000031   0.000091   0.001430   0.000523   0.007548
    15  H    0.006046   0.000437  -0.000052   0.000408  -0.000056  -0.007303
    16  H   -0.044555  -0.000040   0.000008   0.000123  -0.000085   0.000023
    17  H   -0.034521   0.000037  -0.000009  -0.000063   0.000013   0.000536
    18  H   -0.000000   0.005558   0.006217   0.000722   0.004720   0.000318
    19  H    0.000000   0.007375  -0.021219  -0.000033   0.000543  -0.000093
    20  H    0.000000  -0.019984   0.007045  -0.000676   0.000987  -0.000053
    21  H    0.407101   0.000003  -0.000001  -0.000040   0.000037  -0.000039
    22  H    0.403290  -0.000000   0.000000   0.000005  -0.000003  -0.000045
    23  H    0.405968  -0.000000   0.000000   0.000005  -0.000004   0.000052
              13         14         15         16         17         18
     1  C   -0.047323  -0.004599  -0.001835   0.001593  -0.000609  -0.009552
     2  C    0.411660  -0.043941  -0.040210  -0.004886   0.004635  -0.000084
     3  C   -0.045200   0.415613   0.401402  -0.064165  -0.038761  -0.000070
     4  C    0.007558   0.000244   0.000422  -0.000126   0.000067  -0.053028
     5  C   -0.003473  -0.049431  -0.037013   0.419628   0.402818   0.000002
     6  C   -0.000105  -0.000036  -0.000005   0.000003  -0.000002   0.406925
     7  C    0.000757  -0.010044   0.006046  -0.044555  -0.034521  -0.000000
     8  H    0.001482  -0.000031   0.000437  -0.000040   0.000037   0.005558
     9  H   -0.000692   0.000091  -0.000052   0.000008  -0.000009   0.006217
    10  H    0.006549   0.001430   0.000408   0.000123  -0.000063   0.000722
    11  H   -0.018793   0.000523  -0.000056  -0.000085   0.000013   0.004720
    12  H   -0.040572   0.007548  -0.007303   0.000023   0.000536   0.000318
    13  H    0.603171  -0.007357   0.008207  -0.000826   0.000339  -0.000122
    14  H   -0.007357   0.590956  -0.040338   0.006023   0.004989   0.000004
    15  H    0.008207  -0.040338   0.593018   0.005689  -0.014556   0.000000
    16  H   -0.000826   0.006023   0.005689   0.617214  -0.039912  -0.000000
    17  H    0.000339   0.004989  -0.014556  -0.039912   0.600719  -0.000000
    18  H   -0.000122   0.000004   0.000000  -0.000000  -0.000000   0.610185
    19  H    0.000041  -0.000001   0.000004  -0.000000   0.000000  -0.036007
    20  H   -0.000054   0.000002  -0.000002  -0.000000   0.000000  -0.036205
    21  H    0.000936  -0.000253   0.000654  -0.000721   0.007897  -0.000000
    22  H   -0.000062   0.001038   0.000192   0.008522  -0.014513   0.000000
    23  H   -0.000183   0.000748  -0.000554  -0.012258   0.000330   0.000000
              19         20         21         22         23
     1  C    0.005111   0.006552  -0.000045   0.000025   0.000028
     2  C   -0.000400   0.000189  -0.000106   0.000132  -0.000691
     3  C    0.000015   0.000027  -0.004815  -0.002489   0.009675
     4  C   -0.045517  -0.047691   0.000006  -0.000000  -0.000001
     5  C   -0.000000  -0.000002  -0.051724  -0.039750  -0.043405
     6  C    0.407086   0.408079  -0.000000   0.000000   0.000000
     7  C    0.000000   0.000000   0.407101   0.403290   0.405968
     8  H    0.007375  -0.019984   0.000003  -0.000000  -0.000000
     9  H   -0.021219   0.007045  -0.000001   0.000000   0.000000
    10  H   -0.000033  -0.000676  -0.000040   0.000005   0.000005
    11  H    0.000543   0.000987   0.000037  -0.000003  -0.000004
    12  H   -0.000093  -0.000053  -0.000039  -0.000045   0.000052
    13  H    0.000041  -0.000054   0.000936  -0.000062  -0.000183
    14  H   -0.000001   0.000002  -0.000253   0.001038   0.000748
    15  H    0.000004  -0.000002   0.000654   0.000192  -0.000554
    16  H   -0.000000  -0.000000  -0.000721   0.008522  -0.012258
    17  H    0.000000   0.000000   0.007897  -0.014513   0.000330
    18  H   -0.036007  -0.036205  -0.000000   0.000000   0.000000
    19  H    0.619869  -0.034547   0.000000  -0.000000  -0.000000
    20  H   -0.034547   0.612369   0.000000  -0.000000  -0.000000
    21  H    0.000000   0.000000   0.604919  -0.039342  -0.034160
    22  H   -0.000000  -0.000000  -0.039342   0.606042  -0.028990
    23  H   -0.000000  -0.000000  -0.034160  -0.028990   0.603249
 Mulliken charges:
               1
     1  C   -0.261572
     2  C   -0.237487
     3  C   -0.245912
     4  C   -0.187723
     5  C   -0.220262
     6  C   -0.321916
     7  C   -0.333918
     8  H    0.101441
     9  H    0.111701
    10  H    0.121550
    11  H    0.121269
    12  H    0.129201
    13  H    0.124060
    14  H    0.126822
    15  H    0.125443
    16  H    0.108746
    17  H    0.120568
    18  H    0.100416
    19  H    0.097772
    20  H    0.103965
    21  H    0.109696
    22  H    0.105949
    23  H    0.100192
 Sum of Mulliken charges =  -0.00000
 Mulliken charges with hydrogens summed into heavy atoms:
               1
     1  C   -0.018753
     2  C    0.015774
     3  C    0.006353
     4  C    0.025419
     5  C    0.009052
     6  C   -0.019762
     7  C   -0.018082
 APT charges:
               1
     1  C   -0.599536
     2  C   -0.504364
     3  C   -0.534646
     4  C   -0.422233
     5  C   -0.575356
     6  C   -1.538143
     7  C   -1.383382
     8  H    0.225200
     9  H    0.381299
    10  H    0.297049
    11  H    0.347402
    12  H    0.295915
    13  H    0.315795
    14  H    0.325303
    15  H    0.307813
    16  H    0.241820
    17  H    0.418483
    18  H    0.272517
    19  H    0.554961
    20  H    0.405591
    21  H    0.186047
    22  H    0.468721
    23  H    0.513742
 Sum of APT charges =  -0.00000
 APT charges with hydrogens summed into heavy atoms:
               1
     1  C    0.044914
     2  C    0.107347
     3  C    0.098470
     4  C    0.184267
     5  C    0.084947
     6  C   -0.305073
     7  C   -0.214872
 Electronic spatial extent (au):  <R**2>=           1557.4705
 Charge=             -0.0000 electrons
 Dipole moment (field-independent basis, Debye):
    X=             -0.0247    Y=              0.0585    Z=              0.0592  Tot=              0.0868
 Quadrupole moment (field-independent basis, Debye-Ang):
   XX=            -50.7743   YY=            -48.9069   ZZ=            -48.6866
   XY=              0.2292   XZ=             -0.1601   YZ=              0.1656
 Traceless Quadrupole moment (field-independent basis, Debye-Ang):
   XX=             -1.3183   YY=              0.5490   ZZ=              0.7693
   XY=              0.2292   XZ=             -0.1601   YZ=              0.1656
 Octapole moment (field-independent basis, Debye-Ang**2):
  XXX=             -0.3122  YYY=              0.0273  ZZZ=              0.8648  XYY=             -0.3433
  XXY=              2.5012  XXZ=              2.6094  XZZ=              0.2319  YZZ=              0.3355
  YYZ=             -0.8226  XYZ=              0.8126
 Hexadecapole moment (field-independent basis, Debye-Ang**3):
 XXXX=          -1974.2174 YYYY=           -154.4577 ZZZZ=           -147.7274 XXXY=              8.8937
 XXXZ=            -10.1919 YYYX=             -0.2755 YYYZ=              1.5306 ZZZX=             -4.2711
 ZZZY=              0.2321 XXYY=           -349.4553 XXZZ=           -335.1729 YYZZ=            -49.6699
 XXYZ=             -1.3504 YYXZ=              5.3547 ZZXY=              1.2745
 N-N= 3.136138501146D+02 E-N=-1.265687824692D+03  KE= 2.745164690038D+02
  Exact polarizability:   0.000   0.000   0.000   0.000   0.000   0.000
 Approx polarizability:  96.520   0.241  97.959  -0.520  -0.450  98.961
 No NMR shielding tensors so no spin-rotation constants.
 Leave Link  601 at Sun Sep 29 06:30:38 2019, MaxMem=   671088640 cpu:              62.5 elap:              31.3
 (Enter /shared/centos7/gaussian/g16/l701.exe)
 SCFChk:  SCF convergence  5.52D-09 required  1.00D-08
 ... and contract with generalized density number  0.
 Compute integral second derivatives.
 Entering OneElI...
 Calculate overlap and kinetic energy integrals
    NBasis = 485  MinDer = 2  MaxDer = 2
 Requested accuracy = 0.1000D-12
 PrmmSu-InSpLW:  IPartL=    0 NPrtUS=   20 NPrtUL=    1 DoSpLW=F IThBeg=    0 IThEnd=   19 NThAct=   20.
 PrsmSu:  NPrtUS=  20 ThrOK=T IAlg=1 NPAlg=1 LenDen=           0 ISkipM=0 DoSpLW=F IThBeg=    0 IThEnd=   19.
 Prism:   IPart=     0 DynPar=F LinDyn=F Incr=           6.
 PRISM was handed    33213341 working-precision words and 13267 shell-pairs
 PRISM was handed    33213341 working-precision words and 13267 shell-pairs
 PRISM was handed    33213341 working-precision words and 13267 shell-pairs
 PRISM was handed    33213341 working-precision words and 13267 shell-pairs
 PRISM was handed    33213341 working-precision words and 13267 shell-pairs
 PRISM was handed    33213341 working-precision words and 13267 shell-pairs
 PRISM was handed    33213341 working-precision words and 13267 shell-pairs
 PRISM was handed    33213341 working-precision words and 13267 shell-pairs
 PRISM was handed    33213341 working-precision words and 13267 shell-pairs
 IPart= 16 NShTot=         641 NBatch=          46 AvBLen=        13.9
 IPart=  0 NShTot=         699 NBatch=          79 AvBLen=         8.8
 PRISM was handed    33213341 working-precision words and 13267 shell-pairs
 PRISM was handed    33213341 working-precision words and 13267 shell-pairs
 PRISM was handed    33213341 working-precision words and 13267 shell-pairs
 PRISM was handed    33213341 working-precision words and 13267 shell-pairs
 PRISM was handed    33213341 working-precision words and 13267 shell-pairs
 IPart=  8 NShTot=         666 NBatch=          60 AvBLen=        11.1
 IPart=  1 NShTot=         694 NBatch=          76 AvBLen=         9.1
 PRISM was handed    33213341 working-precision words and 13267 shell-pairs
 IPart= 12 NShTot=         650 NBatch=          53 AvBLen=        12.3
 PRISM was handed    33213341 working-precision words and 13267 shell-pairs
 PRISM was handed    33213341 working-precision words and 13267 shell-pairs
 PRISM was handed    33213341 working-precision words and 13267 shell-pairs
 PRISM was handed    33213341 working-precision words and 13267 shell-pairs
 PRISM was handed    33213341 working-precision words and 13267 shell-pairs
 IPart=  6 NShTot=         678 NBatch=          66 AvBLen=        10.3
 IPart=  9 NShTot=         663 NBatch=          59 AvBLen=        11.2
 IPart= 13 NShTot=         649 NBatch=          52 AvBLen=        12.5
 IPart= 17 NShTot=         641 NBatch=          46 AvBLen=        13.9
 IPart= 10 NShTot=         657 NBatch=          57 AvBLen=        11.5
 IPart= 14 NShTot=         646 NBatch=          51 AvBLen=        12.7
 IPart=  2 NShTot=         691 NBatch=          74 AvBLen=         9.3
 IPart= 19 NShTot=         636 NBatch=          44 AvBLen=        14.5
 IPart=  7 NShTot=         668 NBatch=          61 AvBLen=        11.0
 IPart= 18 NShTot=         637 NBatch=          44 AvBLen=        14.5
 IPart=  5 NShTot=         681 NBatch=          68 AvBLen=        10.0
 IPart=  3 NShTot=         686 NBatch=          72 AvBLen=         9.5
 IPart= 15 NShTot=         645 NBatch=          50 AvBLen=        12.9
 IPart= 11 NShTot=         655 NBatch=          56 AvBLen=        11.7
 IPart=  4 NShTot=         684 NBatch=          70 AvBLen=         9.8
 PrSmSu:  NxtVal=            121.
 Entering OneElI...
 Calculate potential energy integrals
    NBasis = 485  MinDer = 2  MaxDer = 2
 Requested accuracy = 0.1000D-12
 PrmmSu-InSpLW:  IPartL=    0 NPrtUS=   20 NPrtUL=    1 DoSpLW=F IThBeg=    0 IThEnd=   19 NThAct=   20.
 PrsmSu:  NPrtUS=  20 ThrOK=T IAlg=1 NPAlg=1 LenDen=           0 ISkipM=0 DoSpLW=F IThBeg=    0 IThEnd=   19.
 Prism:   IPart=     0 DynPar=F LinDyn=F Incr=         132.
 PRISM was handed    33279523 working-precision words and 11490 shell-pairs
 PRISM was handed    33279523 working-precision words and 11490 shell-pairs
 PRISM was handed    33279523 working-precision words and 11490 shell-pairs
 PRISM was handed    33279523 working-precision words and 11490 shell-pairs
 PRISM was handed    33279523 working-precision words and 11490 shell-pairs
 PRISM was handed    33279523 working-precision words and 11490 shell-pairs
 PRISM was handed    33279523 working-precision words and 11490 shell-pairs
 PRISM was handed    33279523 working-precision words and 11490 shell-pairs
 PRISM was handed    33279523 working-precision words and 11490 shell-pairs
 PRISM was handed    33279523 working-precision words and 11490 shell-pairs
 PRISM was handed    33279523 working-precision words and 11490 shell-pairs
 PRISM was handed    33279523 working-precision words and 11490 shell-pairs
 PRISM was handed    33279523 working-precision words and 11490 shell-pairs
 PRISM was handed    33279523 working-precision words and 11490 shell-pairs
 PRISM was handed    33279523 working-precision words and 11490 shell-pairs
 PRISM was handed    33279523 working-precision words and 11490 shell-pairs
 PRISM was handed    33279523 working-precision words and 11490 shell-pairs
 PRISM was handed    33279523 working-precision words and 11490 shell-pairs
 PRISM was handed    33279523 working-precision words and 11490 shell-pairs
 PRISM was handed    33279523 working-precision words and 11490 shell-pairs
 IPart=  8 NShTot=       13156 NBatch=         573 AvBLen=        23.0
 IPart= 12 NShTot=       12903 NBatch=         562 AvBLen=        23.0
 IPart= 17 NShTot=       12696 NBatch=         553 AvBLen=        23.0
 IPart= 10 NShTot=       13064 NBatch=         569 AvBLen=        23.0
 IPart= 13 NShTot=       12857 NBatch=         560 AvBLen=        23.0
 IPart=  6 NShTot=       13478 NBatch=         587 AvBLen=        23.0
 IPart=  7 NShTot=       13271 NBatch=         578 AvBLen=        23.0
 IPart= 19 NShTot=       12650 NBatch=         551 AvBLen=        23.0
 IPart= 14 NShTot=       12834 NBatch=         559 AvBLen=        23.0
 IPart= 11 NShTot=       13041 NBatch=         568 AvBLen=        23.0
 IPart= 15 NShTot=       12765 NBatch=         556 AvBLen=        23.0
 IPart=  9 NShTot=       13110 NBatch=         571 AvBLen=        23.0
 IPart= 16 NShTot=       12696 NBatch=         553 AvBLen=        23.0
 IPart= 18 NShTot=       12696 NBatch=         553 AvBLen=        23.0
 IPart=  2 NShTot=       13892 NBatch=         606 AvBLen=        22.9
 IPart=  0 NShTot=       13961 NBatch=         609 AvBLen=        22.9
 IPart=  1 NShTot=       13915 NBatch=         607 AvBLen=        22.9
 IPart=  5 NShTot=       13662 NBatch=         595 AvBLen=        23.0
 IPart=  4 NShTot=       13800 NBatch=         602 AvBLen=        22.9
 IPart=  3 NShTot=       13823 NBatch=         603 AvBLen=        22.9
 PrSmSu:  NxtVal=           2641.
 Polarizability after L701:
                1             2             3 
      1  0.000000D+00
      2  0.000000D+00  0.000000D+00
      3  0.000000D+00  0.000000D+00  0.000000D+00
 Dipole Derivatives after L701:
                 1             2             3             4             5 
      1  -0.177353D+00 -0.984200D+00  0.581178D-01 -0.935624D-01  0.202786D+00
      2  -0.166621D+00 -0.844036D+00  0.947877D-01  0.230777D+00 -0.715242D+00
      3  -0.229043D+00  0.103480D+00 -0.777220D+00  0.100340D+00 -0.348284D-01
                 6             7             8             9            10 
      1   0.123132D+00 -0.101903D+00  0.468761D+00 -0.760813D+00  0.208438D+00
      2  -0.117478D+00  0.211384D+00 -0.740194D+00 -0.158979D+00 -0.140099D+00
      3  -0.704288D+00  0.558512D-01 -0.981879D-02 -0.761842D+00  0.248204D+00
                11            12            13            14            15 
      1   0.140297D+01  0.118873D+01 -0.172486D+00 -0.164318D+01  0.513125D+00
      2  -0.724463D+00 -0.372092D-01 -0.199409D+00 -0.795468D+00  0.900455D-01
      3  -0.107104D+00 -0.750673D+00 -0.223196D+00 -0.144329D-01 -0.758114D+00
                16            17            18            19            20 
      1  -0.278024D+01 -0.513794D+00 -0.963108D+00 -0.228673D+01  0.103608D+01
      2   0.104201D+00 -0.880256D+00  0.797904D-01 -0.102925D+00 -0.876022D+00
      3  -0.974371D-02  0.288856D-01 -0.953934D+00  0.918876D-01 -0.803112D-01
                21            22            23            24            25 
      1  -0.538028D-01 -0.240771D-01 -0.659764D+00  0.230718D+00  0.363881D+00
      2  -0.144305D-02  0.119409D+00  0.568135D+00 -0.190073D+00 -0.431315D-01
      3  -0.987398D+00  0.712391D-04 -0.418214D-01  0.131542D+00 -0.110763D+00
                26            27            28            29            30 
      1  -0.984415D-01 -0.884016D+00  0.104239D+00  0.801295D-01 -0.310182D+00
      2   0.131445D+00  0.143668D+00 -0.649339D-01  0.206219D+00 -0.301715D+00
      3   0.248851D-01  0.648572D+00  0.716722D-01 -0.117203D+00  0.580688D+00
                31            32            33            34            35 
      1   0.266884D+00  0.455577D+00  0.277833D+00  0.165269D+00 -0.684427D-01
      2   0.116051D+00  0.557557D+00  0.304295D+00 -0.662656D-01  0.498363D+00
      3   0.259515D-01  0.133238D+00  0.217764D+00  0.334154D-01 -0.244810D+00
                36            37            38            39            40 
      1   0.142535D-01  0.180603D+00 -0.473662D-01 -0.966977D-01  0.244505D+00
      2  -0.135904D+00 -0.347264D-01  0.300037D+00  0.205116D+00 -0.834899D-01
      3   0.224114D+00 -0.976134D-01  0.270088D+00  0.466746D+00  0.597803D-01
                41            42            43            44            45 
      1  -0.451929D+00  0.183392D+00  0.860809D-01  0.182350D+00  0.242198D+00
      2   0.477152D+00 -0.128855D+00 -0.451013D-01  0.315600D+00  0.220749D+00
      3  -0.301743D+00  0.254253D+00 -0.100828D+00  0.311007D+00  0.521760D+00
                46            47            48            49            50 
      1   0.994702D-03  0.166510D+00 -0.700831D+00  0.436735D+00  0.817366D+00
      2  -0.622674D-01  0.167693D+00 -0.280989D+00  0.165078D+00  0.602303D+00
      3   0.937482D-01 -0.866165D-01  0.556774D+00  0.444477D-01  0.133473D+00
                51            52            53            54            55 
      1   0.448489D+00  0.973670D-01  0.986895D+00  0.637679D+00  0.130844D+01
      2   0.281205D+00 -0.411596D-01  0.448823D+00  0.219507D+00  0.506384D-01
      3   0.216410D+00 -0.160547D-01  0.311108D+00  0.271361D+00 -0.122388D+00
                56            57            58            59            60 
      1   0.185736D+00 -0.107545D+01  0.479886D+00 -0.954568D+00  0.912234D+00
      2   0.863230D-01 -0.311149D-01 -0.539908D-01  0.366734D+00 -0.222040D+00
      3  -0.844420D-02  0.270124D+00  0.115221D+00 -0.319368D+00  0.370154D+00
                61            62            63            64            65 
      1  -0.174285D+00 -0.987135D+00  0.368270D-01  0.892479D+00  0.143839D+00
      2   0.188000D+00  0.634477D+00  0.724435D-02 -0.538838D-01  0.117427D+00
      3   0.278881D-01  0.963370D-01  0.979507D-01  0.180521D+00  0.581697D-01
                66            67            68            69 
      1   0.130486D+01  0.974836D+00  0.279819D+00 -0.132669D+01
      2  -0.538007D-01 -0.275338D-01  0.973930D-01  0.131927D-01
      3   0.396257D+00 -0.239369D+00 -0.104170D+00  0.468998D+00
 Hessian after L701:
                1             2             3             4             5 
      1  0.138393D+02
      2  0.765184D-01  0.170700D+02
      3  0.352471D+00  0.157093D+00  0.174474D+02
      4 -0.323552D+01  0.116311D+01 -0.127487D+01  0.139704D+02
      5  0.119044D+01 -0.560889D+01 -0.449196D+00 -0.575375D+00  0.178435D+02
      6 -0.126392D+01 -0.444597D+00 -0.551717D+01 -0.140317D+00 -0.906243D-01
      7  0.377401D+00  0.119562D+00  0.123817D+00 -0.324935D+01  0.195937D+00
      8  0.211199D+00 -0.111820D+00  0.196049D-01  0.193263D+00 -0.585827D+01
      9 -0.427142D-02 -0.874488D-02 -0.108728D+00  0.190519D+01  0.249416D+00
     10 -0.332373D+01 -0.186488D+01 -0.258100D+00  0.310644D+00 -0.140530D+00
     11 -0.184327D+01 -0.468407D+01  0.149304D+00  0.175213D-02 -0.726585D-01
     12 -0.216723D+00  0.131727D+00 -0.580816D+01 -0.128486D+00  0.191099D-01
     13  0.291559D+00  0.115676D+00 -0.532450D-01  0.388315D+00  0.214572D+00
     14  0.118430D+00 -0.890467D-01 -0.161653D-01  0.126886D+00 -0.150026D+00
     15 -0.507314D-01 -0.175506D-01 -0.141902D+00  0.889150D-01  0.578119D-02
     16  0.295841D+00 -0.956494D-02  0.129155D+00  0.238068D+00 -0.200152D-01
     17 -0.147990D+00 -0.102883D+00 -0.186819D-01 -0.119504D-01 -0.142319D+00
     18  0.956982D-01  0.143571D-01 -0.105648D+00 -0.279179D-01  0.112481D-02
     19  0.717536D-01 -0.148715D-01 -0.250931D-02  0.266065D+00 -0.473837D-01
     20  0.212036D-01 -0.622949D-01  0.153061D-03 -0.108257D-01 -0.147116D+00
     21 -0.152326D-01  0.855444D-03 -0.559776D-01  0.350496D-01 -0.697992D-02
     22  0.694218D-01  0.207256D+00 -0.166388D-01 -0.955669D-02  0.238058D-01
     23  0.167422D+00 -0.820094D-01 -0.200525D-01 -0.161918D-01  0.331993D-02
     24 -0.105379D-01 -0.284473D-01  0.164679D+00  0.170180D-01 -0.163449D-01
     25  0.166689D-03  0.111465D+00  0.403713D-01  0.640496D-01 -0.226161D-01
     26  0.901635D-01  0.100683D-01 -0.464299D-01 -0.229974D-01 -0.438776D-01
     27  0.237011D-01 -0.612192D-01  0.161204D+00 -0.100812D+00  0.230053D-01
     28 -0.438412D+01 -0.161565D+00  0.399027D+00  0.365657D-01 -0.111533D+00
     29 -0.215589D+00 -0.400715D+01 -0.896967D+00 -0.108984D+00  0.649883D-01
     30  0.506372D+00 -0.848781D+00 -0.227666D+01  0.153461D+00  0.905876D-01
     31 -0.425930D+01  0.514513D+00  0.281315D+00 -0.229010D-01 -0.110461D+00
     32  0.532912D+00 -0.246107D+01  0.101797D+01 -0.100032D+00  0.520497D-01
     33  0.285335D+00  0.981398D+00 -0.378764D+01  0.559555D-01  0.690951D-01
     34 -0.615083D-02 -0.153174D+00  0.114133D+00 -0.460789D+01 -0.335079D+00
     35 -0.133100D+00  0.841150D-01  0.732738D-01 -0.347344D+00 -0.242058D+01
     36  0.109487D+00  0.819463D-01  0.361506D-01  0.144224D+00 -0.103975D+01
     37 -0.437917D-01 -0.523037D-01  0.104020D+00 -0.437989D+01 -0.312805D+00
     38 -0.469254D-01  0.151266D+00  0.632636D-01 -0.351316D+00 -0.373259D+01
     39  0.103033D+00  0.792204D-01  0.857852D-01 -0.560255D+00  0.106796D+01
     40 -0.124027D-02  0.636199D-02  0.327025D-01  0.259493D-01  0.465150D-01
     41 -0.127850D-01 -0.440697D-02 -0.146312D-01  0.200403D-01  0.148516D+00
     42  0.298124D-01 -0.469794D-02 -0.770007D-03 -0.102331D+00  0.418432D-01
     43  0.353303D-01  0.421243D-02  0.186098D-01  0.251345D-01 -0.434162D-01
     44  0.317623D-01 -0.297731D-01  0.173651D-01 -0.310409D-01  0.121567D+00
     45  0.414186D-01  0.292424D-03 -0.529184D-02 -0.109161D+00  0.215224D-01
     46  0.299995D-01  0.173642D-01 -0.188189D-01 -0.147140D-01 -0.670819D-02
     47  0.257134D-01 -0.113818D-01 -0.926044D-02  0.987795D-02 -0.312791D-01
     48 -0.394982D-01 -0.754732D-02 -0.521492D-02 -0.236661D-01 -0.991807D-02
     49  0.355358D-02  0.226194D-02  0.216293D-02  0.669069D-01  0.725502D-01
     50  0.146321D-01 -0.569760D-02  0.426303D-02  0.864313D-01  0.180562D-01
[...]
 ,0.00466089,0.00164866,-0.07252167,-0.24092648,-0.07842732,-0.00024771
 ,-0.00003062,-0.00007448,-0.00439850,-0.01563523,-0.00609769,0.0002080
 5,-0.00006792,0.00003910,-0.00058633,0.00107640,0.00098635,-0.00015660
 ,-0.00020274,0.00009806,-0.00004660,0.00002697,0.00002236,-0.00061300,
 0.00007332,0.00007020,-0.00012959,0.00019690,0.00013202,0.00148227,0.0
 0110458,0.00072114,-0.00045996,0.00052409,-0.00042517,0.07698470,0.263
 36588,0.00115782,-0.00015631,0.00056979,-0.00877749,-0.01925754,-0.008
 97569,-0.02858315,-0.07763164,-0.08038050,-0.00010121,0.00018688,0.000
 30214,-0.00407218,-0.01380301,-0.00636944,0.00003347,0.00007065,0.0000
 8402,-0.00131254,-0.00082544,0.00038857,-0.00026789,0.00002764,-0.0001
 2925,-0.00004845,-0.00006133,0.00000824,-0.00023483,0.00051324,0.00039
 580,0.00027482,0.00021788,-0.00004852,-0.00338465,0.00080523,-0.002106
 82,0.00079750,-0.00025272,0.00038896,0.03360123,0.08831111,0.08656892,
 0.00128272,-0.00002501,0.00020945,0.00786877,0.01587931,-0.02180226,-0
 .06900630,-0.04452447,0.05987177,-0.00107005,0.00045772,0.00093475,-0.
 00961377,-0.01475001,0.01982340,-0.00035483,0.00023650,0.00018856,-0.0
 0356849,0.00386761,0.00163450,-0.00186609,0.00073180,0.00062969,0.0001
 2177,-0.00009444,-0.00003439,-0.00009658,0.00004418,0.00002484,0.00020
 846,-0.00029632,0.00010568,0.00106555,-0.00050235,0.00077626,-0.004298
 47,0.00110473,-0.00354753,-0.00384613,-0.00552623,0.00799679,0.0819229
 7,-0.00044699,-0.00019145,0.00074114,-0.00074661,-0.00327143,0.0037796
 0,-0.04481399,-0.12865942,0.11146810,0.00043303,0.00011554,0.00073590,
 0.00648794,0.00890261,-0.01422580,-0.00029103,0.00045724,-0.00013077,0
 .00199710,-0.00144328,-0.00102821,0.00049275,-0.00022660,-0.00090122,-
 0.00031570,-0.00002428,-0.00030073,0.00001906,0.00001121,0.00002703,0.
 00010771,0.00008647,-0.00021950,0.00043718,0.00051056,-0.00022399,0.00
 121450,0.00111432,0.00014589,-0.00841871,-0.01607157,0.02219263,0.0446
 5065,0.13686941,0.00067084,-0.00039417,-0.00011204,0.00480225,0.012527
 84,-0.01774119,0.05983296,0.11114380,-0.20344850,0.00057410,-0.0000611
 5,-0.00038424,0.00496816,0.00825155,-0.01193039,-0.00012901,-0.0000504
 9,0.00013049,0.00216615,-0.00267572,0.00023348,0.00133126,-0.00040805,
 0.00040032,0.00020096,-0.00015882,0.00032744,-0.00003769,-0.00004741,0
 .00003469,-0.00006215,-0.00002543,0.00007607,0.00049460,-0.00032454,0.
 00041560,-0.00358173,0.00026554,-0.00180734,-0.00352946,-0.00616047,0.
 00962095,-0.06698993,-0.12185952,0.22369272,-0.00006271,0.00007363,0.0
 0014409,0.00209389,0.00061299,0.00058426,0.00709131,0.02392179,0.00994
 083,0.00006024,-0.00003873,0.00002951,-0.07596235,-0.07379182,-0.03215
 883,-0.00007155,0.00008456,-0.00000180,-0.00515132,-0.01234989,-0.0047
 1107,0.00001819,0.00002734,-0.00004770,-0.00000297,-0.00000298,-0.0000
 2892,-0.00004106,-0.00020364,-0.00008826,-0.00000921,-0.00009370,-0.00
 004157,-0.00020100,-0.00056633,-0.00018859,-0.00008002,0.00003160,-0.0
 0009978,-0.00354867,0.00306190,0.00233865,0.00092189,-0.00073456,-0.00
 048244,0.08250799,0.00027747,0.00038747,0.00007736,-0.00137055,0.00032
 720,0.00011704,-0.00424941,-0.01534279,-0.00696240,-0.00006921,-0.0000
 1816,-0.00007616,-0.07317716,-0.24258014,-0.08055817,0.00006522,-0.000
 05798,0.00002290,-0.00630143,-0.01597721,-0.00535816,-0.00000406,-0.00
 000857,0.00008454,0.00002285,0.00001592,0.00002812,-0.00020585,0.00019
 698,0.00009022,0.00009271,0.00000517,0.00000071,0.00092458,0.00011505,
 0.00047519,0.00007513,-0.00004975,-0.00002201,0.00273008,-0.00023071,-
 0.00155259,0.00020094,0.00059525,-0.00006828,0.08032633,0.26598378,0.0
 0002008,0.00020456,-0.00001346,-0.00064456,0.00098266,0.00027966,-0.00
 426630,-0.01416988,-0.00671619,-0.00005269,-0.00004796,-0.00002492,-0.
 03241622,-0.08178121,-0.08152788,0.00009809,-0.00008451,-0.00003055,0.
 00939935,0.02438259,0.00861896,-0.00001284,-0.00001584,0.00004772,0.00
 003462,0.00003403,-0.00000448,-0.00011719,0.00009509,-0.00000464,0.000
 05975,0.00000934,0.00000682,0.00036140,0.00007375,0.00047994,0.0000959
 3,0.00001954,0.00003186,0.00288390,-0.00103222,-0.00067817,-0.00034490
 ,0.00023471,-0.00007792,0.03034207,0.08872290,0.08972610,-0.00077835,0
 .00009687,-0.00158041,-0.00265403,0.00288779,0.00471055,-0.01930504,0.
 00420092,-0.01728286,0.00001196,0.00009408,-0.00020257,-0.17386456,0.0
 3646024,-0.12676292,0.00000714,-0.00000709,0.00008970,0.01047401,-0.00
 344375,0.01231301,0.00005100,-0.00002552,0.00006431,-0.00003736,-0.000
 03849,0.00008376,-0.00002382,0.00009901,0.00005880,-0.00051883,0.00030
 268,0.00024463,0.00039025,-0.00009994,0.00026430,0.00022844,0.00009204
 ,-0.00004135,0.00092235,0.00022408,0.00005238,0.00039595,-0.00080994,-
 0.00006690,-0.00789615,0.00170046,-0.00696403,0.19176861,0.00074967,0.
 00030402,0.00080432,0.00125761,-0.00101748,-0.00271929,0.01288790,-0.0
 0415146,0.01139761,0.00000177,-0.00006393,0.00007827,0.03552653,-0.059
 90792,0.03529460,0.00000781,-0.00001552,-0.00002140,0.01237952,-0.0040
 6899,0.01397316,-0.00002377,0.00002465,-0.00002989,0.00001326,0.000015
 55,-0.00003779,-0.00009077,0.00001177,0.00002651,0.00029150,-0.0001772
 9,-0.00014640,0.00030217,0.00022904,0.00021551,-0.00028982,0.00005436,
 -0.00007268,-0.00050298,0.00006853,0.00051420,-0.00075980,0.00067548,-
 0.00008799,-0.02014741,0.00626735,-0.01971197,-0.04054664,0.06217100,0
 .00068998,-0.00012480,0.00065108,0.00187754,-0.00161972,-0.00129345,0.
 01299248,-0.00342637,0.01084281,-0.00005835,0.00001810,0.00006790,-0.1
 2707223,0.03580047,-0.17105059,0.00000177,-0.00000654,-0.00001109,-0.0
 1614925,0.00532159,-0.01960553,-0.00001238,0.00001155,-0.00004181,-0.0
 0001510,0.00000235,-0.00000966,-0.00004443,0.00000616,0.00001070,0.000
 25345,-0.00014780,-0.00011954,0.00012693,0.00014535,-0.00000724,0.0001
 3266,-0.00020616,0.00008878,-0.00067294,0.00038042,0.00040298,-0.00049
 623,0.00032307,0.00099957,-0.00804756,0.00196933,-0.00865986,0.1333495
 2,-0.04096576,0.18884715,0.00017416,0.00059551,0.00025757,-0.00037700,
 0.00021347,0.00127576,-0.00003345,-0.00047757,0.00044410,0.01002255,-0
 .00624694,-0.00288370,0.00000953,0.00006259,-0.00004258,-0.20871282,0.
 12208863,0.04651068,0.00004558,-0.00002860,0.00001036,0.00074624,0.000
 79730,0.00005879,0.00045778,-0.00291563,-0.00039456,0.00007159,0.00016
 862,-0.00017907,-0.00001892,-0.00007414,0.00004859,-0.00061565,-0.0010
 6230,0.00046315,-0.00004649,-0.00022832,-0.00021365,0.00006477,0.00008
 026,-0.00011241,-0.00007223,0.00003124,-0.00053999,0.00006081,0.000057
 90,0.00000109,0.00001057,0.00000403,0.00000194,0.22575563,0.00095074,0
 .00075428,-0.00060299,-0.00018471,-0.00041692,0.00025420,-0.00023729,0
 .00006177,0.00031777,0.02533877,-0.01887768,-0.00756102,-0.00009705,0.
 00017726,-0.00000610,0.12112745,-0.13767410,-0.03487238,0.00005575,-0.
 00006752,-0.00002458,-0.00006105,0.00152654,0.00002465,-0.00283781,-0.
 00558149,-0.00083265,-0.00021965,0.00021336,0.00002304,-0.00008703,-0.
 00002581,-0.00000428,-0.00037073,0.00021856,0.00090138,0.00004534,0.00
 043218,0.00004307,0.00021511,0.00016504,-0.00009842,-0.00041435,-0.000
 17925,-0.00038318,-0.00007402,-0.00001439,0.00001510,0.00002533,-0.000
 00140,0.00000679,-0.13202566,0.15185902,-0.00058676,0.00044464,-0.0000
 2574,0.00043903,0.00050161,-0.00013864,0.00000985,-0.00022691,0.000265
 31,0.00467612,-0.00438828,-0.00258627,-0.00000618,0.00014726,-0.000041
 72,0.04698939,-0.03507657,-0.06066251,0.00002537,-0.00003908,-0.000009
 56,0.00038612,0.00008945,0.00002955,-0.00068990,-0.00137819,0.00056571
 ,0.00012819,-0.00013837,0.00000477,0.00001530,0.00003465,0.00003393,0.
 00076186,0.00088827,-0.00111588,-0.00016237,-0.00001976,0.00000893,-0.
 00006643,0.00004200,-0.00011994,-0.00025932,-0.00011774,-0.00005938,0.
 00000787,-0.00007448,0.00000748,-0.00006386,-0.00001857,-0.00000683,-0
 .05249564,0.04010687,0.06320870,0.00030534,0.00059845,-0.00055218,-0.0
 0015950,-0.00021085,-0.00020117,0.00004197,0.00015612,-0.00026328,-0.0
 0711499,-0.00078559,-0.00719670,0.00003507,-0.00009959,0.00006262,-0.1
 5738270,-0.00240683,-0.12963447,-0.00004832,0.00003285,-0.00000811,0.0
 0067691,-0.00218800,-0.00017786,0.00048590,-0.00020893,0.00036773,0.00
 023562,0.00010101,0.00021593,-0.00008624,-0.00045707,0.00045614,-0.000
 29709,0.00030325,0.00011415,0.00003128,0.00006506,0.00011444,0.0000148
 8,-0.00005473,0.00014633,0.00024421,-0.00005271,0.00016301,0.00000243,
 0.00002706,-0.00002456,0.00002967,-0.00000076,0.00000067,-0.01610620,-
 0.00094636,-0.01974194,0.16838258,0.00001541,0.00204523,-0.00116871,-0
 .00002038,0.00010060,0.00032603,0.00000278,-0.00004399,-0.00001639,-0.
 02251533,-0.00130209,-0.02513458,0.00004233,0.00000491,0.00007137,-0.0
 0216834,-0.04622365,-0.00304861,-0.00000534,0.00000769,0.00000280,-0.0
 0196501,-0.00619849,-0.00099071,0.00067303,0.00116329,0.00008644,0.000
 51661,0.00021231,-0.00004556,0.00049624,-0.00018172,0.00077410,-0.0001
 2541,-0.00006630,0.00004080,-0.00003896,0.00004431,0.00002454,0.000057
 97,0.00009067,-0.00007057,-0.00001834,-0.00013415,-0.00007935,-0.00001
 927,0.00001130,0.00003061,0.00000802,-0.00001400,-0.00001000,0.0112285
 0,-0.00013223,0.01553821,0.00520655,0.05130811,0.00108824,0.00042059,0
 .00097360,-0.00008815,-0.00007430,0.00030005,0.00011810,0.00018214,0.0
 0007065,-0.00379605,-0.00059791,-0.00504226,-0.00000565,-0.00003785,0.
 00000520,-0.12981722,-0.00329245,-0.20129609,-0.00001172,0.00001979,0.
 00001129,0.00054132,-0.00116288,0.00094706,0.00013557,-0.00020437,-0.0
 0018955,0.00013757,-0.00005468,0.00009407,-0.00046157,-0.00037617,0.00
 049860,-0.00021744,-0.00018409,-0.00002354,-0.00008784,-0.00002307,0.0
 0000690,0.00006036,-0.00000667,-0.00005722,-0.00001542,-0.00004654,-0.
 00001059,-0.00000559,0.00000380,0.00001077,-0.00000902,0.00000377,0.00
 000066,0.00562750,0.00082509,0.00636654,0.14423055,0.00528734,0.216530
 64,0.00000355,-0.00131262,-0.00116324,0.00026885,0.00010190,0.00008035
 ,0.00012144,-0.00002219,0.00003371,-0.00488291,-0.00235798,0.00736283,
 0.00003247,-0.00001763,-0.00001824,-0.10260351,-0.04594371,0.09855884,
 -0.00002090,0.00001788,0.00000714,-0.00024723,0.00027238,0.00007555,0.
 00064703,0.00023333,-0.00039751,0.00007267,-0.00026014,0.00055824,0.00
 008761,-0.00020088,0.00028081,-0.00012343,-0.00018148,-0.00028275,-0.0
 0005641,-0.00016952,-0.00003923,-0.00003025,-0.00005966,0.00000850,0.0
 0008055,0.00001126,0.00011317,0.00002761,-0.00001570,-0.00000456,-0.00
 005046,0.00000148,-0.00000374,-0.01144751,-0.01022005,0.02063757,0.010
 71434,0.00862585,-0.01741919,0.10741411,-0.00174454,-0.00579429,-0.003
 60169,0.00046419,-0.00046230,-0.00084803,-0.00003614,0.00005740,0.0001
 4622,-0.01355781,-0.01188140,0.02720933,-0.00004568,-0.00000432,-0.000
 07276,-0.04548083,-0.08373754,0.08174039,-0.00000164,0.00001043,0.0000
 1181,-0.00006167,0.00112682,-0.00040341,0.00086207,0.00112686,0.000357
 04,-0.00093142,-0.00106135,0.00164871,0.00018221,0.00015904,-0.0001954
 3,0.00017541,0.00048498,0.00020377,0.00000943,0.00025237,0.00011622,0.
 00007633,0.00001785,0.00003073,-0.00001328,-0.00000760,-0.00008013,-0.
 00002069,0.00002575,0.00002551,-0.00003145,0.00002060,0.00000901,0.007
 71284,0.00754324,-0.01633032,0.00094069,-0.00069679,-0.00067595,0.0515
 0088,0.09281745,-0.00030980,-0.00118217,0.00035766,-0.00011560,-0.0002
 7932,-0.00011768,-0.00001476,0.00009821,-0.00002910,-0.00427303,-0.003
 63795,0.00672066,-0.00002495,0.00000949,0.00002235,0.09876117,0.082760
 86,-0.22440055,0.00000575,-0.00001501,-0.00000885,0.00018696,0.0006555
 6,0.00035311,-0.00005222,0.00068248,0.00042865,0.00007086,-0.00023292,
 0.00024824,0.00004567,-0.00028732,0.00023024,-0.00009762,0.00026734,0.
 00019588,0.00004101,0.00014489,0.00004076,0.00005994,-0.00000310,0.000
 04301,-0.00000825,-0.00000136,-0.00002390,-0.00001418,0.00001181,-0.00
 000905,0.00003578,-0.00000296,0.00000422,0.00219987,0.00189536,-0.0056
 8215,0.01187739,0.00838738,-0.01919343,-0.10838119,-0.08927269,0.24080
 827,-0.00001946,-0.00012916,0.00015118,-0.00068777,0.00074216,-0.00028
 091,0.00059779,0.00051332,-0.00037934,-0.00001717,0.00000755,0.0000235
 4,0.01103847,-0.00155724,0.01164320,-0.00000457,0.00001729,-0.00001057
 ,-0.15737017,0.02180021,-0.13163565,-0.00000049,0.00000351,0.00001674,
 0.00001403,0.00000009,0.00000097,0.00002304,-0.00002311,-0.00002784,0.
 00004258,-0.00001836,-0.00000547,-0.00003775,-0.00020394,-0.00013299,-
 0.00219906,0.00025965,0.00144703,-0.00006450,0.00003335,0.00004435,0.0
 0004711,-0.00003330,-0.00024537,0.00079626,0.00062145,-0.00075751,-0.0
 0046438,-0.00163129,0.00307228,0.00000219,-0.00001519,0.00000091,0.000
 00127,-0.00000086,0.00000450,0.00000865,-0.00000016,-0.00000864,0.1710
 5923,-0.00011721,-0.00005273,-0.00009988,0.00025827,0.00032907,-0.0001
 2849,-0.00003449,0.00012956,-0.00076304,0.00003332,-0.00000952,0.00000
 218,0.01282483,-0.00349694,0.01451035,-0.00000099,0.00000617,0.0000055
 1,0.02157496,-0.05169289,0.02504979,-0.00000379,-0.00001100,-0.0000045
 7,-0.00000210,0.00000266,-0.00000587,0.00003113,-0.00003550,-0.0000404
 2,-0.00002941,0.00002461,0.00001566,-0.00012752,-0.00021405,0.00003483
 ,0.00060880,0.00023924,-0.00035096,-0.00006621,0.00003798,-0.00000132,
 0.00006940,-0.00000781,-0.00002209,0.00067459,0.00042843,-0.00054323,-
 0.00211146,-0.00137708,0.00320734,0.00000916,0.00000450,0.00001249,-0.
 00001194,0.00000511,-0.00000429,-0.00000058,-0.00000659,-0.00000147,-0
 .02376302,0.05338439,0.00017270,-0.00047766,0.00048741,-0.00004753,0.0
 0064888,-0.00049980,-0.00114489,0.00007230,0.00024910,-0.00020124,0.00
 018204,-0.00003116,-0.01596867,0.00300845,-0.01850237,-0.00000236,0.00
 000816,0.00005488,-0.13026194,0.02536644,-0.20144714,0.00001847,-0.000
 00315,0.00004992,-0.00004406,-0.00004368,0.00009613,-0.00001569,0.0000
 4577,0.00000407,0.00005361,-0.00002206,-0.00003519,0.00006921,-0.00006
 619,-0.00005598,0.00066606,-0.00078306,0.00068871,0.00009328,0.0000089
 8,-0.00002328,0.00022104,-0.00004631,0.00023228,0.00016089,-0.00017195
 ,0.00123836,0.00294804,0.00280255,-0.00261080,-0.00001199,0.00000344,-
 0.00002954,0.00002396,-0.00000006,-0.00000663,-0.00001888,-0.00001530,
 0.00001616,0.14226796,-0.03095211,0.21883782,-0.00001669,0.00001056,-0
 .00000986,-0.00015302,0.00016808,0.00010561,0.00054931,-0.00105835,-0.
 00115230,-0.00000552,0.00000715,0.00001420,-0.00527054,-0.01294826,-0.
 00431641,0.00001936,-0.00001567,-0.00002062,-0.06809834,-0.06572285,-0
 .02598974,-0.00000388,-0.00000013,0.00000970,0.00001063,0.00000463,-0.
 00000079,-0.00003534,0.00005732,0.00003948,0.00001013,0.00000817,0.000
 00293,0.00023396,0.00011039,-0.00004150,-0.00004740,-0.00004116,-0.000
 21732,-0.00009074,0.00044155,0.00044230,0.00021284,0.00027929,-0.00002
 701,-0.00037634,-0.00154335,0.00264918,0.00036064,0.00063735,0.0000965
 1,-0.00000419,-0.00000443,-0.00000314,0.00000291,0.00000130,0.00000453
 ,0.00000520,0.00001132,-0.00000321,-0.00604951,-0.01962236,-0.00646360
 ,0.07004215,-0.00002504,-0.00004740,-0.00004840,-0.00021610,0.00010363
 ,0.00009122,0.00101078,0.00108946,-0.00087423,-0.00002438,0.00002798,0
 .00000165,-0.00560092,-0.01710411,-0.00571908,0.00002805,-0.00001502,-
 0.00000647,-0.06592167,-0.25961442,-0.08073821,0.00000559,-0.00000443,
 -0.00000552,-0.00001360,0.00000415,0.00001071,-0.00002275,0.00003685,0
 .00002763,-0.00003646,0.00001455,0.00000816,0.00012016,0.00002155,0.00
 004892,-0.00025399,-0.00019934,0.00004580,-0.00069624,0.00060691,0.000
 52562,0.00029460,0.00031582,0.00008349,-0.00097132,-0.00060022,0.00340
 732,0.00047242,0.00017530,0.00006321,-0.00000079,0.00000967,-0.0000073
 1,0.00000076,0.00000301,-0.00000121,-0.00000611,0.00000413,0.00000645,
 0.00136540,0.00492917,0.00148377,0.07494990,0.28352132,0.00003845,-0.0
 0007228,0.00002764,-0.00001018,-0.00008602,0.00006627,-0.00061367,0.00
 081670,0.00175936,0.00000266,0.00002457,0.00002404,0.00835693,0.023773
 07,0.00856446,-0.00001435,0.00001226,-0.00000482,-0.02598505,-0.081295
 86,-0.07741261,0.00000027,-0.00000121,-0.00001769,-0.00001394,-0.00000
 703,0.00000402,0.00000486,0.00001082,0.00002447,-0.00000621,-0.0000020
 6,-0.00000657,-0.00007339,0.00007025,-0.00013109,-0.00004957,-0.000115
 41,-0.00006086,-0.00026686,-0.00066551,-0.00014355,-0.00039303,-0.0000
 4710,0.00009984,0.00272190,0.00307681,-0.00350896,-0.00068148,-0.00051
 214,0.00099015,-0.00000722,0.00000599,0.00000420,0.00000373,-0.0000057
 3,-0.00000225,0.00000050,-0.00000183,0.00000317,-0.00517699,-0.0224942
 5,-0.00838589,0.02589051,0.08640982,0.08282633,0.00005123,-0.00022348,
 0.00011478,0.00036888,0.00023359,0.00003760,0.00012639,-0.00251782,0.0
 0152309,-0.00007259,0.00011223,0.00002543,-0.01012082,0.00648430,0.003
 16629,0.00001207,0.00000171,0.00001710,-0.22362374,0.10355747,0.076066
 44,0.00000432,-0.00001560,-0.00005030,-0.00006834,-0.00002026,0.000031
 25,0.00000241,0.00002083,0.00002013,-0.00004545,0.00001836,-0.00001021
 ,-0.00004400,-0.00006004,-0.00001163,0.00008971,-0.00028081,0.00021785
 ,0.00008113,0.00011626,0.00000066,-0.00057983,0.00050185,0.00037423,-0
 .00017726,-0.00018547,-0.00034010,0.00094239,-0.00006736,-0.00002349,0
 .00001306,0.00003691,-0.00000205,-0.00000935,0.00000263,-0.00001337,-0
 .00002148,-0.00001008,0.00001908,-0.01671580,0.00980661,0.00748565,0.0
 0870439,-0.00445832,-0.00372788,0.24108265,-0.00005538,0.00003918,-0.0
 0009665,0.00014413,-0.00010494,0.00040441,-0.00100196,-0.00220605,0.00
 238447,0.00001932,0.00000029,0.00004367,-0.01656058,0.00949580,0.00691
 037,-0.00000178,0.00000948,-0.00001920,0.10431711,-0.10808903,-0.04563
 036,-0.00001401,-0.00000337,-0.00004708,-0.00001551,0.00000493,-0.0000
 2831,-0.00000589,0.00001766,0.00002220,-0.00002608,0.00002069,0.000004
 47,0.00003194,0.00003294,-0.00005546,-0.00008265,0.00006069,-0.0002404
 8,-0.00001827,0.00024712,0.00031506,-0.00061283,0.00056295,0.00061457,
 0.00019964,0.00052028,-0.00085090,0.00045033,0.00077744,-0.00075758,0.
 00000991,0.00000536,0.00001014,-0.00000845,-0.00000311,-0.00000007,0.0
 0000330,0.00000527,-0.00000357,0.00201166,-0.00261679,-0.00104925,0.02
 426956,-0.01327855,-0.00889387,-0.11305350,0.11450178,0.00009296,-0.00
 018343,0.00024099,-0.00055262,0.00054149,-0.00053141,0.00113099,0.0043
 9952,-0.00342806,-0.00008921,0.00003946,-0.00004519,0.01976692,-0.0133
 3316,-0.00939104,-0.00000822,0.00000324,0.00002495,0.07521769,-0.04482
 665,-0.07873422,0.00001159,0.00001543,0.00009316,0.00003247,-0.0000196
 0,0.00004959,-0.00001639,0.00001524,-0.00000946,0.00008062,-0.00003552
 ,-0.00001189,0.00006647,-0.00002867,0.00003976,-0.00005294,-0.00040186
 ,0.00040195,-0.00031665,0.00024772,0.00025901,0.00147454,-0.00049928,-
 0.00066798,-0.00035378,0.00016347,0.00080840,-0.00055941,-0.00078367,0
 .00051038,-0.00001860,-0.00003714,-0.00001693,0.00002362,0.00000066,0.
 00000552,0.00001132,-0.00000121,-0.00000767,-0.02001135,0.01257384,0.0
 0967294,0.00899054,-0.00481333,-0.00471966,-0.08492054,0.04696342,0.08
 545686\\-0.00000026,-0.00000025,-0.00000086,-0.00000002,-0.00000067,-0
 .00000030,0.00000004,0.00000039,-0.00000008,-0.00000004,0.00000090,-0.
 00000027,0.00000010,0.00000001,0.00000050,0.00000023,0.00000055,0.0000
 0110,-0.00000014,-0.00000093,-0.00000026,0.00000002,0.00000173,-0.0000
 0031,-0.00000009,0.00000103,-0.00000081,-0.00000036,0.00000013,-0.0000
 0189,-0.00000026,-0.00000104,-0.00000104,0.00000007,-0.00000104,0.0000
 0061,-0.00000021,-0.00000135,-0.00000087,-0.00000019,0.00000091,-0.000
 00099,0.00000014,0.00000119,0.00000044,0.00000029,-0.00000037,0.000001
 44,0.00000015,0.00000089,0.00000071,0.00000035,0.00000043,0.00000162,0
 .00000019,-0.00000039,0.00000112,0.00000035,0.00000122,0.00000149,-0.0
 0000012,-0.00000181,-0.00000036,-0.00000025,-0.00000047,-0.00000119,0.
 00000001,-0.00000108,0.00000019\\\@


 IN THE WOODS WE RETURN TO REASON AND FAITH.

                                 -- EMERSON
 Job cpu time:       0 days  5 hours 22 minutes 49.0 seconds.
 Elapsed time:       0 days  2 hours 41 minutes 25.9 seconds.
 File lengths (MBytes):  RWF=   1488 Int=      0 D2E=      0 Chk=     32 Scr=     32
 Normal termination of Gaussian 16 at Sun Sep 29 18:39:55 2019.
