 Entering Gaussian System, Link 0=g16
 Input=med/species/CCCCCCC/conformers/CCCCCCC_803.com
 Output=med/species/CCCCCCC/conformers/CCCCCCC_803.log
 Initial command:
 /shared/centos7/gaussian/g16/l1.exe "/scratch/harms.n/gauss_scrdir/Gau-31573.inp" -scrdir="/scratch/harms.n/gauss_scrdir/"
 Entering Link 1 = /shared/centos7/gaussian/g16/l1.exe PID=     31574.
  
 Copyright (c) 1988,1990,1992,1993,1995,1998,2003,2009,2016,
            Gaussian, Inc.  All Rights Reserved.
  
 This is part of the Gaussian(R) 16 program.  It is based on
 the Gaussian(R) 09 system (copyright 2009, Gaussian, Inc.),
 the Gaussian(R) 03 system (copyright 2003, Gaussian, Inc.),
 the Gaussian(R) 98 system (copyright 1998, Gaussian, Inc.),
 the Gaussian(R) 94 system (copyright 1995, Gaussian, Inc.),
 the Gaussian 92(TM) system (copyright 1992, Gaussian, Inc.),
 the Gaussian 90(TM) system (copyright 1990, Gaussian, Inc.),
 the Gaussian 88(TM) system (copyright 1988, Gaussian, Inc.),
 the Gaussian 86(TM) system (copyright 1986, Carnegie Mellon
 University), and the Gaussian 82(TM) system (copyright 1983,
 Carnegie Mellon University). Gaussian is a federally registered
 trademark of Gaussian, Inc.
  
 This software contains proprietary and confidential information,
 including trade secrets, belonging to Gaussian, Inc.
  
 This software is provided under written license and may be
 used, copied, transmitted, or stored only in accord with that
 written license.
  
 The following legend is applicable only to US Government
 contracts under FAR:
  
                    RESTRICTED RIGHTS LEGEND
  
 Use, reproduction and disclosure by the US Government is
 subject to restrictions as set forth in subparagraphs (a)
 and (c) of the Commercial Computer Software - Restricted
 Rights clause in FAR 52.227-19.
  
 Gaussian, Inc.
 340 Quinnipiac St., Bldg. 40, Wallingford CT 06492
  
  
 ---------------------------------------------------------------
 Warning -- This program may not be used in any manner that
 competes with the business of Gaussian, Inc. or will provide
 assistance to any competitor of Gaussian, Inc.  The licensee
 of this program is prohibited from giving any competitor of
 Gaussian, Inc. access to this program.  By using this program,
 the user acknowledges that Gaussian, Inc. is engaged in the
 business of creating and licensing software in the field of
 computational chemistry and represents and warrants to the
 licensee that it is not a competitor of Gaussian, Inc. and that
 it will not use this program in any manner prohibited above.
 ---------------------------------------------------------------
  

 Cite this work as:
 Gaussian 16, Revision A.03,
 M. J. Frisch, G. W. Trucks, H. B. Schlegel, G. E. Scuseria, 
 M. A. Robb, J. R. Cheeseman, G. Scalmani, V. Barone, 
 G. A. Petersson, H. Nakatsuji, X. Li, M. Caricato, A. V. Marenich, 
 J. Bloino, B. G. Janesko, R. Gomperts, B. Mennucci, H. P. Hratchian, 
 J. V. Ortiz, A. F. Izmaylov, J. L. Sonnenberg, D. Williams-Young, 
 F. Ding, F. Lipparini, F. Egidi, J. Goings, B. Peng, A. Petrone, 
 T. Henderson, D. Ranasinghe, V. G. Zakrzewski, J. Gao, N. Rega, 
 G. Zheng, W. Liang, M. Hada, M. Ehara, K. Toyota, R. Fukuda, 
 J. Hasegawa, M. Ishida, T. Nakajima, Y. Honda, O. Kitao, H. Nakai, 
 T. Vreven, K. Throssell, J. A. Montgomery, Jr., J. E. Peralta, 
 F. Ogliaro, M. J. Bearpark, J. J. Heyd, E. N. Brothers, K. N. Kudin, 
 V. N. Staroverov, T. A. Keith, R. Kobayashi, J. Normand, 
 K. Raghavachari, A. P. Rendell, J. C. Burant, S. S. Iyengar, 
 J. Tomasi, M. Cossi, J. M. Millam, M. Klene, C. Adamo, R. Cammi, 
 J. W. Ochterski, R. L. Martin, K. Morokuma, O. Farkas, 
 J. B. Foresman, and D. J. Fox, Gaussian, Inc., Wallingford CT, 2016.
 
 ******************************************
 Gaussian 16:  EM64L-G16RevA.03 25-Dec-2016
                29-Sep-2019 
 ******************************************
 %nprocshared=20
 Will use up to   20 processors via shared memory.
 %mem=5GB
 ----------------------------------------------------------------------
 #p m062x/cc-pVTZ opt=(calcfc,maxcycles=900,Tight) freq IOP(7/33=1,2/16
 =3) scf=(maxcycle=900)
 ----------------------------------------------------------------------
 1/6=900,7=10,10=4,18=20,19=15,26=3,38=1/1,3;
 2/9=110,12=2,16=3,17=6,18=5,40=1/2;
 3/5=16,6=1,11=2,25=1,30=1,71=2,74=-55,140=1/1,2,3;
 4//1;
 5/5=2,7=900,38=5/2;
 8/6=4,10=90,11=11/1;
 11/6=1,8=1,9=11,15=111,16=1/1,2,10;
 10/6=1,13=1/2;
 6/7=2,8=2,9=2,10=2,28=1/1;
 7/10=1,18=20,25=1,33=1/1,2,3,16;
 1/6=900,7=10,10=4,18=20,19=15,26=3/3(2);
 2/9=110,16=3/2;
 99//99;
 2/9=110,16=3/2;
 3/5=16,6=1,11=2,25=1,30=1,71=1,74=-55/1,2,3;
 4/5=5,16=3,69=1/1;
 5/5=2,7=900,38=5/2;
 7/33=1/1,2,3,16;
 1/6=900,7=10,18=20,19=15,26=3/3(-5);
 2/9=110,16=3/2;
 6/7=2,8=2,9=2,10=2,19=2,28=1/1;
 99/9=1/99;
 Leave Link    1 at Sun Sep 29 09:27:43 2019, MaxMem=   671088640 cpu:               4.1 elap:               2.1
 (Enter /shared/centos7/gaussian/g16/l101.exe)
 ------------------------------
 Gaussian input prepared by ASE
 ------------------------------
 Symbolic Z-matrix:
 Charge =  0 Multiplicity = 1
 C                     1.35326  -1.1022    0.50046 
 C                     0.09568  -0.44472   0.95672 
 C                     0.04973  -0.10526   2.42561 
 C                     2.15942  -0.47718  -0.58788 
 C                    -1.19139   0.68266   2.77277 
 C                     1.71104   0.77886  -1.21312 
 C                    -1.29976   1.08528   4.22055 
 H                     2.28963  -1.24799  -1.39907 
 H                     3.19545  -0.32587  -0.20125 
 H                     1.09784  -2.13459   0.18027 
 H                     2.01849  -1.25268   1.37537 
 H                    -0.76073  -1.10111   0.73677 
 H                    -0.09344   0.48614   0.3814 
 H                     0.94229   0.47728   2.71039 
 H                     0.08877  -1.03739   3.02623 
 H                    -1.20129   1.60816   2.13963 
 H                    -2.08621   0.10281   2.48934 
 H                     0.74777   1.1517   -0.81692 
 H                     2.46711   1.60445  -1.05725 
 H                     1.58638   0.66035  -2.31035 
 H                    -0.32842   1.34066   4.64583 
 H                    -1.73996   0.2547    4.8388 
 H                    -1.97736   1.98062   4.32594 
 
 ITRead=  0  0  0  0  0  0  0  0  0  0  0  0  0  0  0  0  0  0  0  0
 ITRead=  0  0  0
 MicOpt= -1 -1 -1 -1 -1 -1 -1 -1 -1 -1 -1 -1 -1 -1 -1 -1 -1 -1 -1 -1
 MicOpt= -1 -1 -1
 NAtoms=     23 NQM=       23 NQMF=       0 NMMI=      0 NMMIF=      0
                NMic=       0 NMicF=      0.
                    Isotopes and Nuclear Properties:
 (Nuclear quadrupole moments (NQMom) in fm**2, nuclear magnetic moments (NMagM)
  in nuclear magnetons)

  Atom         1           2           3           4           5           6           7           8           9          10
 IAtWgt=          12          12          12          12          12          12          12           1           1           1
 AtmWgt=  12.0000000  12.0000000  12.0000000  12.0000000  12.0000000  12.0000000  12.0000000   1.0078250   1.0078250   1.0078250
 NucSpn=           0           0           0           0           0           0           0           1           1           1
 AtZEff=  -0.0000000  -0.0000000  -0.0000000  -0.0000000  -0.0000000  -0.0000000  -0.0000000  -0.0000000  -0.0000000  -0.0000000
 NQMom=    0.0000000   0.0000000   0.0000000   0.0000000   0.0000000   0.0000000   0.0000000   0.0000000   0.0000000   0.0000000
 NMagM=    0.0000000   0.0000000   0.0000000   0.0000000   0.0000000   0.0000000   0.0000000   2.7928460   2.7928460   2.7928460
 AtZNuc=   6.0000000   6.0000000   6.0000000   6.0000000   6.0000000   6.0000000   6.0000000   1.0000000   1.0000000   1.0000000

  Atom        11          12          13          14          15          16          17          18          19          20
 IAtWgt=           1           1           1           1           1           1           1           1           1           1
 AtmWgt=   1.0078250   1.0078250   1.0078250   1.0078250   1.0078250   1.0078250   1.0078250   1.0078250   1.0078250   1.0078250
 NucSpn=           1           1           1           1           1           1           1           1           1           1
 AtZEff=  -0.0000000  -0.0000000  -0.0000000  -0.0000000  -0.0000000  -0.0000000  -0.0000000  -0.0000000  -0.0000000  -0.0000000
 NQMom=    0.0000000   0.0000000   0.0000000   0.0000000   0.0000000   0.0000000   0.0000000   0.0000000   0.0000000   0.0000000
 NMagM=    2.7928460   2.7928460   2.7928460   2.7928460   2.7928460   2.7928460   2.7928460   2.7928460   2.7928460   2.7928460
 AtZNuc=   1.0000000   1.0000000   1.0000000   1.0000000   1.0000000   1.0000000   1.0000000   1.0000000   1.0000000   1.0000000

  Atom        21          22          23
 IAtWgt=           1           1           1
 AtmWgt=   1.0078250   1.0078250   1.0078250
 NucSpn=           1           1           1
 AtZEff=  -0.0000000  -0.0000000  -0.0000000
 NQMom=    0.0000000   0.0000000   0.0000000
 NMagM=    2.7928460   2.7928460   2.7928460
 AtZNuc=   1.0000000   1.0000000   1.0000000
 Leave Link  101 at Sun Sep 29 09:27:44 2019, MaxMem=   671088640 cpu:               3.0 elap:               1.5
 (Enter /shared/centos7/gaussian/g16/l103.exe)

 GradGradGradGradGradGradGradGradGradGradGradGradGradGradGradGradGradGrad
 Berny optimization.
 Initialization pass.
                           ----------------------------
                           !    Initial Parameters    !
                           ! (Angstroms and Degrees)  !
 --------------------------                            --------------------------
 ! Name  Definition              Value          Derivative Info.                !
 --------------------------------------------------------------------------------
 ! R1    R(1,2)                  1.4906         calculate D2E/DX2 analytically  !
 ! R2    R(1,4)                  1.4917         calculate D2E/DX2 analytically  !
 ! R3    R(1,10)                 1.1107         calculate D2E/DX2 analytically  !
 ! R4    R(1,11)                 1.1093         calculate D2E/DX2 analytically  !
 ! R5    R(2,3)                  1.5083         calculate D2E/DX2 analytically  !
 ! R6    R(2,12)                 1.1012         calculate D2E/DX2 analytically  !
 ! R7    R(2,13)                 1.1105         calculate D2E/DX2 analytically  !
 ! R8    R(3,5)                  1.5105         calculate D2E/DX2 analytically  !
 ! R9    R(3,14)                 1.1032         calculate D2E/DX2 analytically  !
 ! R10   R(3,15)                 1.1096         calculate D2E/DX2 analytically  !
 ! R11   R(4,6)                  1.473          calculate D2E/DX2 analytically  !
 ! R12   R(4,8)                  1.1266         calculate D2E/DX2 analytically  !
 ! R13   R(4,9)                  1.1161         calculate D2E/DX2 analytically  !
 ! R14   R(5,7)                  1.5066         calculate D2E/DX2 analytically  !
 ! R15   R(5,16)                 1.1214         calculate D2E/DX2 analytically  !
 ! R16   R(5,17)                 1.1033         calculate D2E/DX2 analytically  !
 ! R17   R(6,18)                 1.1063         calculate D2E/DX2 analytically  !
 ! R18   R(6,19)                 1.1303         calculate D2E/DX2 analytically  !
 ! R19   R(6,20)                 1.1106         calculate D2E/DX2 analytically  !
 ! R20   R(7,21)                 1.0907         calculate D2E/DX2 analytically  !
 ! R21   R(7,22)                 1.1251         calculate D2E/DX2 analytically  !
 ! R22   R(7,23)                 1.1278         calculate D2E/DX2 analytically  !
 ! A1    A(2,1,4)              119.634          calculate D2E/DX2 analytically  !
 ! A2    A(2,1,10)             107.7112         calculate D2E/DX2 analytically  !
 ! A3    A(2,1,11)             108.9253         calculate D2E/DX2 analytically  !
 ! A4    A(4,1,10)             107.6638         calculate D2E/DX2 analytically  !
 ! A5    A(4,1,11)             107.9498         calculate D2E/DX2 analytically  !
 ! A6    A(10,1,11)            103.8383         calculate D2E/DX2 analytically  !
 ! A7    A(1,2,3)              115.0282         calculate D2E/DX2 analytically  !
 ! A8    A(1,2,12)             109.394          calculate D2E/DX2 analytically  !
 ! A9    A(1,2,13)             110.7826         calculate D2E/DX2 analytically  !
 ! A10   A(3,2,12)             107.7562         calculate D2E/DX2 analytically  !
 ! A11   A(3,2,13)             108.1006         calculate D2E/DX2 analytically  !
 ! A12   A(12,2,13)            105.2909         calculate D2E/DX2 analytically  !
 ! A13   A(2,3,5)              111.4845         calculate D2E/DX2 analytically  !
 ! A14   A(2,3,14)             110.2169         calculate D2E/DX2 analytically  !
 ! A15   A(2,3,15)             109.6957         calculate D2E/DX2 analytically  !
 ! A16   A(5,3,14)             109.2686         calculate D2E/DX2 analytically  !
 ! A17   A(5,3,15)             110.0419         calculate D2E/DX2 analytically  !
 ! A18   A(14,3,15)            105.9848         calculate D2E/DX2 analytically  !
 ! A19   A(1,4,6)              120.166          calculate D2E/DX2 analytically  !
 ! A20   A(1,4,8)              107.5259         calculate D2E/DX2 analytically  !
 ! A21   A(1,4,9)              107.8017         calculate D2E/DX2 analytically  !
 ! A22   A(6,4,8)              108.2393         calculate D2E/DX2 analytically  !
 ! A23   A(6,4,9)              108.3005         calculate D2E/DX2 analytically  !
 ! A24   A(8,4,9)              103.5855         calculate D2E/DX2 analytically  !
 ! A25   A(3,5,7)              114.7931         calculate D2E/DX2 analytically  !
 ! A26   A(3,5,16)             107.938          calculate D2E/DX2 analytically  !
 ! A27   A(3,5,17)             109.4635         calculate D2E/DX2 analytically  !
 ! A28   A(7,5,16)             108.7457         calculate D2E/DX2 analytically  !
 ! A29   A(7,5,17)             109.2065         calculate D2E/DX2 analytically  !
 ! A30   A(16,5,17)            106.3526         calculate D2E/DX2 analytically  !
 ! A31   A(4,6,18)             113.6044         calculate D2E/DX2 analytically  !
 ! A32   A(4,6,19)             111.1432         calculate D2E/DX2 analytically  !
 ! A33   A(4,6,20)             111.2562         calculate D2E/DX2 analytically  !
 ! A34   A(18,6,19)            106.6712         calculate D2E/DX2 analytically  !
 ! A35   A(18,6,20)            106.9801         calculate D2E/DX2 analytically  !
 ! A36   A(19,6,20)            106.8143         calculate D2E/DX2 analytically  !
 ! A37   A(5,7,21)             111.9134         calculate D2E/DX2 analytically  !
 ! A38   A(5,7,22)             111.0329         calculate D2E/DX2 analytically  !
 ! A39   A(5,7,23)             110.1919         calculate D2E/DX2 analytically  !
 ! A40   A(21,7,22)            107.8809         calculate D2E/DX2 analytically  !
 ! A41   A(21,7,23)            108.2259         calculate D2E/DX2 analytically  !
 ! A42   A(22,7,23)            107.4362         calculate D2E/DX2 analytically  !
 ! D1    D(4,1,2,3)           -122.531          calculate D2E/DX2 analytically  !
 ! D2    D(4,1,2,12)           116.0571         calculate D2E/DX2 analytically  !
 ! D3    D(4,1,2,13)             0.4215         calculate D2E/DX2 analytically  !
 ! D4    D(10,1,2,3)           114.2301         calculate D2E/DX2 analytically  !
 ! D5    D(10,1,2,12)           -7.1818         calculate D2E/DX2 analytically  !
 ! D6    D(10,1,2,13)         -122.8174         calculate D2E/DX2 analytically  !
 ! D7    D(11,1,2,3)             2.2101         calculate D2E/DX2 analytically  !
 ! D8    D(11,1,2,12)         -119.2018         calculate D2E/DX2 analytically  !
 ! D9    D(11,1,2,13)          125.1626         calculate D2E/DX2 analytically  !
 ! D10   D(2,1,4,6)             -0.3367         calculate D2E/DX2 analytically  !
 ! D11   D(2,1,4,8)           -124.6129         calculate D2E/DX2 analytically  !
 ! D12   D(2,1,4,9)            124.2796         calculate D2E/DX2 analytically  !
 ! D13   D(10,1,4,6)           122.9253         calculate D2E/DX2 analytically  !
 ! D14   D(10,1,4,8)            -1.3508         calculate D2E/DX2 analytically  !
 ! D15   D(10,1,4,9)          -112.4583         calculate D2E/DX2 analytically  !
 ! D16   D(11,1,4,6)          -125.5426         calculate D2E/DX2 analytically  !
 ! D17   D(11,1,4,8)           110.1812         calculate D2E/DX2 analytically  !
 ! D18   D(11,1,4,9)            -0.9263         calculate D2E/DX2 analytically  !
 ! D19   D(1,2,3,5)            174.0903         calculate D2E/DX2 analytically  !
 ! D20   D(1,2,3,14)            52.5653         calculate D2E/DX2 analytically  !
 ! D21   D(1,2,3,15)           -63.7637         calculate D2E/DX2 analytically  !
 ! D22   D(12,2,3,5)           -63.612          calculate D2E/DX2 analytically  !
 ! D23   D(12,2,3,14)          174.863          calculate D2E/DX2 analytically  !
 ! D24   D(12,2,3,15)           58.534          calculate D2E/DX2 analytically  !
 ! D25   D(13,2,3,5)            49.7161         calculate D2E/DX2 analytically  !
 ! D26   D(13,2,3,14)          -71.8089         calculate D2E/DX2 analytically  !
 ! D27   D(13,2,3,15)          171.8622         calculate D2E/DX2 analytically  !
 ! D28   D(2,3,5,7)           -178.866          calculate D2E/DX2 analytically  !
 ! D29   D(2,3,5,16)           -57.4252         calculate D2E/DX2 analytically  !
 ! D30   D(2,3,5,17)            57.9329         calculate D2E/DX2 analytically  !
 ! D31   D(14,3,5,7)           -56.792          calculate D2E/DX2 analytically  !
 ! D32   D(14,3,5,16)           64.6488         calculate D2E/DX2 analytically  !
 ! D33   D(14,3,5,17)         -179.9931         calculate D2E/DX2 analytically  !
 ! D34   D(15,3,5,7)            59.1878         calculate D2E/DX2 analytically  !
 ! D35   D(15,3,5,16)         -179.3714         calculate D2E/DX2 analytically  !
 ! D36   D(15,3,5,17)          -64.0133         calculate D2E/DX2 analytically  !
 ! D37   D(1,4,6,18)            -1.7336         calculate D2E/DX2 analytically  !
 ! D38   D(1,4,6,19)           118.5755         calculate D2E/DX2 analytically  !
 ! D39   D(1,4,6,20)          -122.5279         calculate D2E/DX2 analytically  !
 ! D40   D(8,4,6,18)           122.2026         calculate D2E/DX2 analytically  !
 ! D41   D(8,4,6,19)          -117.4883         calculate D2E/DX2 analytically  !
 ! D42   D(8,4,6,20)             1.4083         calculate D2E/DX2 analytically  !
 ! D43   D(9,4,6,18)          -126.1134         calculate D2E/DX2 analytically  !
 ! D44   D(9,4,6,19)            -5.8043         calculate D2E/DX2 analytically  !
 ! D45   D(9,4,6,20)           113.0923         calculate D2E/DX2 analytically  !
 ! D46   D(3,5,7,21)            36.5622         calculate D2E/DX2 analytically  !
 ! D47   D(3,5,7,22)           -84.052          calculate D2E/DX2 analytically  !
 ! D48   D(3,5,7,23)           157.0357         calculate D2E/DX2 analytically  !
 ! D49   D(16,5,7,21)          -84.4368         calculate D2E/DX2 analytically  !
 ! D50   D(16,5,7,22)          154.9489         calculate D2E/DX2 analytically  !
 ! D51   D(16,5,7,23)           36.0367         calculate D2E/DX2 analytically  !
 ! D52   D(17,5,7,21)          159.9008         calculate D2E/DX2 analytically  !
 ! D53   D(17,5,7,22)           39.2865         calculate D2E/DX2 analytically  !
 ! D54   D(17,5,7,23)          -79.6258         calculate D2E/DX2 analytically  !
 --------------------------------------------------------------------------------
 Trust Radius=3.00D-01 FncErr=1.00D-07 GrdErr=1.00D-06 EigMax=2.50D+02 EigMin=1.00D-04
 Number of steps in this run=    138 maximum allowed number of steps=    138.
 GradGradGradGradGradGradGradGradGradGradGradGradGradGradGradGradGradGrad

 Leave Link  103 at Sun Sep 29 09:27:45 2019, MaxMem=   671088640 cpu:               1.5 elap:               0.7
 (Enter /shared/centos7/gaussian/g16/l202.exe)
                          Input orientation:                          
 ---------------------------------------------------------------------
 Center     Atomic      Atomic             Coordinates (Angstroms)
 Number     Number       Type             X           Y           Z
 ---------------------------------------------------------------------
      1          6           0        1.353258   -1.102203    0.500456
      2          6           0        0.095681   -0.444716    0.956718
      3          6           0        0.049726   -0.105258    2.425608
      4          6           0        2.159416   -0.477175   -0.587880
      5          6           0       -1.191391    0.682657    2.772770
      6          6           0        1.711044    0.778859   -1.213123
      7          6           0       -1.299759    1.085277    4.220554
      8          1           0        2.289630   -1.247988   -1.399070
      9          1           0        3.195454   -0.325866   -0.201247
     10          1           0        1.097841   -2.134587    0.180267
     11          1           0        2.018488   -1.252679    1.375367
     12          1           0       -0.760735   -1.101115    0.736769
     13          1           0       -0.093437    0.486143    0.381400
     14          1           0        0.942294    0.477275    2.710391
     15          1           0        0.088773   -1.037390    3.026231
     16          1           0       -1.201291    1.608158    2.139626
     17          1           0       -2.086210    0.102808    2.489338
     18          1           0        0.747773    1.151704   -0.816923
     19          1           0        2.467110    1.604452   -1.057246
     20          1           0        1.586381    0.660349   -2.310350
     21          1           0       -0.328420    1.340657    4.645830
     22          1           0       -1.739963    0.254703    4.838798
     23          1           0       -1.977361    1.980616    4.325939
 ---------------------------------------------------------------------
                    Distance matrix (angstroms):
                    1          2          3          4          5
     1  C    0.000000
     2  C    1.490625   0.000000
     3  C    2.529685   1.508304   0.000000
     4  C    1.491652   2.577952   3.697327   0.000000
     5  C    3.850244   2.495109   1.510531   4.885395   0.000000
     6  C    2.569583   2.968964   4.096585   1.472952   4.931605
     7  C    5.065836   3.865328   2.541715   6.126025   1.506627
     8  H    2.122791   3.317890   4.577244   1.126559   5.766207
     9  H    2.118672   3.311133   4.104222   1.116134   5.395026
    10  H    1.110665   2.112549   3.202855   2.112820   4.460776
    11  H    1.109344   2.127265   2.509105   2.115564   4.000198
    12  H    2.127161   1.101220   2.121498   3.266692   2.740913
    13  H    2.151731   1.110520   2.132847   2.634925   2.638706
    14  H    2.747263   2.154574   1.103233   3.642932   2.144455
    15  H    2.825361   2.152718   1.109570   4.202762   2.159080
    16  H    4.069233   2.701055   2.140706   4.804400   1.121392
    17  H    4.151825   2.722014   2.146993   5.275509   1.103295
    18  H    2.679962   2.473780   3.547004   2.167589   4.106855
    19  H    3.315581   3.725428   4.571337   2.155957   5.376184
    20  H    3.325894   3.757272   5.037536   2.142250   5.792635
    21  H    5.097032   4.120312   2.676388   6.073349   2.164726
    22  H    5.498221   4.350785   3.025896   6.722325   2.180035
    23  H    5.935581   4.640193   3.474365   6.877448   2.171355
                    6          7          8          9         10
     6  C    0.000000
     7  C    6.219620   0.000000
     8  H    2.115997   7.064560   0.000000
     9  H    2.108977   6.461470   1.762272   0.000000
    10  H    3.287206   5.695606   2.168115   2.795891   0.000000
    11  H    3.304838   4.957004   2.787659   2.174844   1.747461
    12  H    3.666889   4.148206   3.726675   4.139120   2.198196
    13  H    2.425766   4.068572   3.443297   3.437389   2.885797
    14  H    4.009475   2.770751   4.656126   3.768209   3.639718
    15  H    4.889034   2.803595   4.946859   4.535896   3.212721
    16  H    4.517783   2.147874   5.732928   5.343361   4.809702
    17  H    5.346439   2.140294   6.007691   5.942978   4.525034
    18  H    1.106291   5.438104   2.911140   2.924622   3.452050
    19  H    1.130281   6.504922   2.878324   2.233685   4.169742
    20  H    1.110627   7.152837   2.228619   2.830204   3.775383
    21  H    6.229155   1.090678   7.077859   6.220060   5.835478
    22  H    6.986412   1.125104   7.576721   7.077956   5.955146
    23  H    6.762379   1.127778   7.836251   7.250745   6.601391
                   11         12         13         14         15
    11  H    0.000000
    12  H    2.855672   0.000000
    13  H    2.910619   1.758113   0.000000
    14  H    2.435821   3.047426   2.548924   0.000000
    15  H    2.548627   2.442818   3.057693   1.767050   0.000000
    16  H    4.374410   3.082573   2.361698   2.489905   3.073965
    17  H    4.463948   2.505556   2.926003   3.059564   2.513735
    18  H    3.493124   3.124860   1.608287   3.596476   4.471717
    19  H    3.779162   4.577943   3.142724   4.217899   5.413927
    20  H    4.175034   4.230443   3.177681   5.065195   5.796918
    21  H    4.788455   4.629244   4.355545   2.471046   2.907277
    22  H    5.328557   4.429873   4.757417   3.431350   2.880830
    23  H    5.926794   4.884607   4.619741   3.659839   3.881561
                   16         17         18         19         20
    16  H    0.000000
    17  H    1.780859   0.000000
    18  H    3.570488   4.479175   0.000000
    19  H    4.865919   5.963716   1.794116   0.000000
    20  H    5.335892   6.069249   1.781858   1.799245   0.000000
    21  H    2.667306   3.045087   5.570958   6.356859   7.246912
    22  H    3.067171   2.379690   6.243447   7.367810   7.895533
    23  H    2.349676   2.628900   5.878987   6.990959   7.647464
                   21         22         23
    21  H    0.000000
    22  H    1.791365   0.000000
    23  H    1.797467   1.816084   0.000000
 Stoichiometry    C7H16
 Framework group  C1[X(C7H16)]
 Deg. of freedom    63
 Full point group                 C1      NOp   1
 Largest Abelian subgroup         C1      NOp   1
 Largest concise Abelian subgroup C1      NOp   1
                         Standard orientation:                         
 ---------------------------------------------------------------------
 Center     Atomic      Atomic             Coordinates (Angstroms)
 Number     Number       Type             X           Y           Z
 ---------------------------------------------------------------------
      1          6           0        1.384998   -1.018691   -0.013602
      2          6           0        0.197812   -0.328094   -0.592937
      3          6           0       -1.076639   -0.476450    0.199998
      4          6           0        2.611034   -0.232601    0.308772
      5          6           0       -2.188620    0.367522   -0.376989
      6          6           0        2.650608    1.216722    0.048997
      7          6           0       -3.491786    0.295888    0.375708
      8          1           0        3.473866   -0.711855   -0.234341
      9          1           0        2.852010   -0.402411    1.385271
     10          1           0        1.678911   -1.829671   -0.713246
     11          1           0        1.074479   -1.559403    0.903923
     12          1           0        0.009214   -0.713735   -1.607036
     13          1           0        0.398052    0.756271   -0.724513
     14          1           0       -0.907631   -0.186822    1.251034
     15          1           0       -1.381226   -1.543164    0.222195
     16          1           0       -1.840214    1.433286   -0.393705
     17          1           0       -2.360445    0.080359   -1.428309
     18          1           0        1.725883    1.609104   -0.414468
     19          1           0        2.805828    1.798297    1.005665
     20          1           0        3.490318    1.481679   -0.627892
     21          1           0       -3.336258    0.222038    1.452711
     22          1           0       -4.096553   -0.595943    0.052052
     23          1           0       -4.110671    1.216188    0.170978
 ---------------------------------------------------------------------
 Rotational constants (GHZ):           6.0934656           0.9441039           0.8841261
 Leave Link  202 at Sun Sep 29 09:27:47 2019, MaxMem=   671088640 cpu:               4.2 elap:               2.1
 (Enter /shared/centos7/gaussian/g16/l301.exe)
 Standard basis: CC-pVTZ (5D, 7F)
 Ernie: Thresh=  0.10000D-02 Tol=  0.10000D-05 Strict=F.
 Ernie:  21 primitive shells out of 310 were deleted.
 There are   485 symmetry adapted cartesian basis functions of A   symmetry.
 There are   434 symmetry adapted basis functions of A   symmetry.
   434 basis functions,   636 primitive gaussians,   485 cartesian basis functions
    29 alpha electrons       29 beta electrons
       nuclear repulsion energy       317.1808228422 Hartrees.
 IExCor= 4336 DFT=T Ex+Corr=M062X ExCW=0 ScaHFX=  0.540000
 ScaDFX=  1.000000  1.000000  1.000000  1.000000 ScalE2=  1.000000  1.000000
 IRadAn=      5 IRanWt=     -1 IRanGd=            0 ICorTp=0 IEmpDi=  4
 NAtoms=   23 NActive=   23 NUniq=   23 SFac= 1.00D+00 NAtFMM=   60 NAOKFM=F Big=F
 Integral buffers will be    131072 words long.
 Raffenetti 2 integral format.
 Two-electron integral symmetry is turned on.
 Leave Link  301 at Sun Sep 29 09:27:48 2019, MaxMem=   671088640 cpu:               1.7 elap:               0.9
 (Enter /shared/centos7/gaussian/g16/l302.exe)
 NPDir=0 NMtPBC=     1 NCelOv=     1 NCel=       1 NClECP=     1 NCelD=      1
         NCelK=      1 NCelE2=     1 NClLst=     1 CellRange=     0.0.
 One-electron integrals computed using PRISM.
 One-electron integral symmetry used in STVInt
 NBasis=   434 RedAO= T EigKep=  2.20D-04  NBF=   434
 NBsUse=   434 1.00D-06 EigRej= -1.00D+00 NBFU=   434
 Precomputing XC quadrature grid using
 IXCGrd= 4 IRadAn=           5 IRanWt=          -1 IRanGd=           0 AccXCQ= 0.00D+00.
 Generated NRdTot=       0 NPtTot=           0 NUsed=           0 NTot=          32
 NSgBfM=   485   485   485   485   485 MxSgAt=    23 MxSgA2=    23.
 Leave Link  302 at Sun Sep 29 09:29:00 2019, MaxMem=   671088640 cpu:             143.8 elap:              71.9
 (Enter /shared/centos7/gaussian/g16/l303.exe)
 DipDrv:  MaxL=1.
 Leave Link  303 at Sun Sep 29 09:29:05 2019, MaxMem=   671088640 cpu:              10.1 elap:               5.1
 (Enter /shared/centos7/gaussian/g16/l401.exe)
 ExpMin= 1.03D-01 ExpMax= 8.24D+03 ExpMxC= 2.81D+02 IAcc=3 IRadAn=         5 AccDes= 0.00D+00
 Harris functional with IExCor= 1009 and IRadAn=       5 diagonalized for initial guess.
 HarFok:  IExCor= 1009 AccDes= 0.00D+00 IRadAn=         5 IDoV= 1 UseB2=F ITyADJ=14
 ICtDFT=  3500011 ScaDFX=  1.000000  1.000000  1.000000  1.000000
 FoFCou: FMM=F IPFlag=           0 FMFlag=      100000 FMFlg1=           0
         NFxFlg=           0 DoJE=T BraDBF=F KetDBF=T FulRan=T
         wScrn=  0.000000 ICntrl=       500 IOpCl=  0 I1Cent=   200000004 NGrid=           0
         NMat0=    1 NMatS0=      1 NMatT0=    0 NMatD0=    1 NMtDS0=    0 NMtDT0=    0
 Petite list used in FoFCou.
 Harris En= -276.316143095225    
 JPrj=0 DoOrth=F DoCkMO=F.
 Leave Link  401 at Sun Sep 29 09:29:56 2019, MaxMem=   671088640 cpu:             100.6 elap:              50.4
 (Enter /shared/centos7/gaussian/g16/l502.exe)
 Integral symmetry usage will be decided dynamically.
 Closed shell SCF:
 Using DIIS extrapolation, IDIIS=  1040.
 NGot=   671088640 LenX=   670604095 LenY=   670368385
 Requested convergence on RMS density matrix=1.00D-08 within 900 cycles.
 Requested convergence on MAX density matrix=1.00D-06.
 Requested convergence on             energy=1.00D-06.
 No special actions if energy rises.
 Fock matrices will be formed incrementally for  20 cycles.
 Integral accuracy reduced to 1.0D-05 until final iterations.

 Cycle   1  Pass 0  IDiag  1:
 FoFJK:  IHMeth= 1 ICntrl=       0 DoSepK=F KAlg= 0 I1Cent=           0 FoldK=F
 IRaf= 900000000 NMat=       1 IRICut=       1 DoRegI=T DoRafI=F ISym2E= 0 IDoP0=0 IntGTp=1.
 FoFCou: FMM=F IPFlag=           0 FMFlag=      100000 FMFlg1=           0
         NFxFlg=           0 DoJE=F BraDBF=F KetDBF=F FulRan=T
         wScrn=  0.000000 ICntrl=         0 IOpCl=  0 I1Cent=           0 NGrid=           0
         NMat0=    1 NMatS0=      1 NMatT0=    0 NMatD0=    1 NMtDS0=    0 NMtDT0=    0
 Symmetry not used in FoFCou.
 E= -275.944858579693    
 DIIS: error= 3.36D-02 at cycle   1 NSaved=   1.
 NSaved= 1 IEnMin= 1 EnMin= -275.944858579693     IErMin= 1 ErrMin= 3.36D-02
 ErrMax= 3.36D-02  0.00D+00 EMaxC= 1.00D-01 BMatC= 3.71D-01 BMatP= 3.71D-01
 IDIUse=3 WtCom= 6.64D-01 WtEn= 3.36D-01
 Coeff-Com:  0.100D+01
 Coeff-En:   0.100D+01
 Coeff:      0.100D+01
 Gap=     0.355 Goal=   None    Shift=    0.000
 GapD=    0.355 DampG=1.000 DampE=0.500 DampFc=0.5000 IDamp=-1.
 Damping current iteration by 5.00D-01
 RMSDP=1.90D-03 MaxDP=7.11D-02              OVMax= 1.62D-01

 Cycle   2  Pass 0  IDiag  1:
 RMSU=  9.49D-04    CP:  9.91D-01
 E= -276.124574465735     Delta-E=       -0.179715886041 Rises=F Damp=T
 DIIS: error= 4.02D-03 at cycle   2 NSaved=   2.
 NSaved= 2 IEnMin= 2 EnMin= -276.124574465735     IErMin= 2 ErrMin= 4.02D-03
 ErrMax= 4.02D-03  0.00D+00 EMaxC= 1.00D-01 BMatC= 1.79D-02 BMatP= 3.71D-01
 IDIUse=3 WtCom= 9.60D-01 WtEn= 4.02D-02
 Coeff-Com: -0.660D-01 0.107D+01
 Coeff-En:   0.000D+00 0.100D+01
 Coeff:     -0.633D-01 0.106D+01
 Gap=     0.436 Goal=   None    Shift=    0.000
 RMSDP=5.04D-04 MaxDP=1.81D-02 DE=-1.80D-01 OVMax= 8.60D-02

 Cycle   3  Pass 0  IDiag  1:
 RMSU=  4.97D-04    CP:  9.98D-01  9.35D-01
 E= -276.300341383832     Delta-E=       -0.175766918097 Rises=F Damp=F
 DIIS: error= 2.12D-03 at cycle   3 NSaved=   3.
 NSaved= 3 IEnMin= 3 EnMin= -276.300341383832     IErMin= 3 ErrMin= 2.12D-03
 ErrMax= 2.12D-03  0.00D+00 EMaxC= 1.00D-01 BMatC= 1.93D-03 BMatP= 1.79D-02
 IDIUse=3 WtCom= 9.79D-01 WtEn= 2.12D-02
 Coeff-Com: -0.490D-01 0.210D+00 0.839D+00
 Coeff-En:   0.000D+00 0.000D+00 0.100D+01
 Coeff:     -0.479D-01 0.206D+00 0.842D+00
 Gap=     0.401 Goal=   None    Shift=    0.000
 RMSDP=7.94D-05 MaxDP=3.59D-03 DE=-1.76D-01 OVMax= 9.77D-03

 Cycle   4  Pass 0  IDiag  1:
 RMSU=  6.50D-05    CP:  9.97D-01  9.77D-01  9.61D-01
 E= -276.302033243283     Delta-E=       -0.001691859451 Rises=F Damp=F
 DIIS: error= 6.18D-04 at cycle   4 NSaved=   4.
 NSaved= 4 IEnMin= 4 EnMin= -276.302033243283     IErMin= 4 ErrMin= 6.18D-04
 ErrMax= 6.18D-04  0.00D+00 EMaxC= 1.00D-01 BMatC= 2.06D-04 BMatP= 1.93D-03
 IDIUse=3 WtCom= 9.94D-01 WtEn= 6.18D-03
 Coeff-Com: -0.125D-01 0.341D-01 0.285D+00 0.693D+00
 Coeff-En:   0.000D+00 0.000D+00 0.000D+00 0.100D+01
 Coeff:     -0.124D-01 0.339D-01 0.283D+00 0.695D+00
 Gap=     0.402 Goal=   None    Shift=    0.000
 RMSDP=2.71D-05 MaxDP=1.27D-03 DE=-1.69D-03 OVMax= 2.46D-03

 Cycle   5  Pass 0  IDiag  1:
 RMSU=  1.70D-05    CP:  9.97D-01  9.72D-01  9.87D-01  7.63D-01
 E= -276.302219980724     Delta-E=       -0.000186737441 Rises=F Damp=F
 DIIS: error= 1.41D-04 at cycle   5 NSaved=   5.
 NSaved= 5 IEnMin= 5 EnMin= -276.302219980724     IErMin= 5 ErrMin= 1.41D-04
 ErrMax= 1.41D-04  0.00D+00 EMaxC= 1.00D-01 BMatC= 1.52D-05 BMatP= 2.06D-04
 IDIUse=3 WtCom= 9.99D-01 WtEn= 1.41D-03
 Coeff-Com: -0.105D-02 0.162D-04 0.509D-01 0.254D+00 0.696D+00
 Coeff-En:   0.000D+00 0.000D+00 0.000D+00 0.000D+00 0.100D+01
 Coeff:     -0.105D-02 0.162D-04 0.508D-01 0.254D+00 0.696D+00
 Gap=     0.401 Goal=   None    Shift=    0.000
 RMSDP=6.55D-06 MaxDP=3.53D-04 DE=-1.87D-04 OVMax= 7.08D-04

 Initial convergence to 1.0D-05 achieved.  Increase integral accuracy.
 Cycle   6  Pass 1  IDiag  1:
 E= -276.302198490765     Delta-E=        0.000021489959 Rises=F Damp=F
 DIIS: error= 4.58D-05 at cycle   1 NSaved=   1.
 NSaved= 1 IEnMin= 1 EnMin= -276.302198490765     IErMin= 1 ErrMin= 4.58D-05
 ErrMax= 4.58D-05  0.00D+00 EMaxC= 1.00D-01 BMatC= 1.79D-06 BMatP= 1.79D-06
 IDIUse=1 WtCom= 1.00D+00 WtEn= 0.00D+00
 Coeff-Com:  0.100D+01
 Coeff:      0.100D+01
 Gap=     0.402 Goal=   None    Shift=    0.000
 RMSDP=6.55D-06 MaxDP=3.53D-04 DE= 2.15D-05 OVMax= 2.58D-04

 Cycle   7  Pass 1  IDiag  1:
 RMSU=  1.40D-05    CP:  1.00D+00
 E= -276.302199366565     Delta-E=       -0.000000875800 Rises=F Damp=F
 DIIS: error= 2.35D-05 at cycle   2 NSaved=   2.
 NSaved= 2 IEnMin= 2 EnMin= -276.302199366565     IErMin= 2 ErrMin= 2.35D-05
 ErrMax= 2.35D-05  0.00D+00 EMaxC= 1.00D-01 BMatC= 4.24D-07 BMatP= 1.79D-06
 IDIUse=1 WtCom= 1.00D+00 WtEn= 0.00D+00
 Coeff-Com:  0.271D+00 0.729D+00
 Coeff:      0.271D+00 0.729D+00
 Gap=     0.401 Goal=   None    Shift=    0.000
 RMSDP=1.40D-06 MaxDP=5.14D-05 DE=-8.76D-07 OVMax= 1.50D-04

 Cycle   8  Pass 1  IDiag  1:
 RMSU=  1.39D-06    CP:  1.00D+00  1.01D+00
 E= -276.302199695319     Delta-E=       -0.000000328754 Rises=F Damp=F
 DIIS: error= 1.33D-05 at cycle   3 NSaved=   3.
 NSaved= 3 IEnMin= 3 EnMin= -276.302199695319     IErMin= 3 ErrMin= 1.33D-05
 ErrMax= 1.33D-05  0.00D+00 EMaxC= 1.00D-01 BMatC= 9.54D-08 BMatP= 4.24D-07
 IDIUse=1 WtCom= 1.00D+00 WtEn= 0.00D+00
 Coeff-Com: -0.690D-02 0.315D+00 0.692D+00
 Coeff:     -0.690D-02 0.315D+00 0.692D+00
 Gap=     0.401 Goal=   None    Shift=    0.000
 RMSDP=4.80D-07 MaxDP=1.71D-05 DE=-3.29D-07 OVMax= 5.33D-05

 Cycle   9  Pass 1  IDiag  1:
 RMSU=  2.87D-07    CP:  1.00D+00  1.02D+00  7.56D-01
 E= -276.302199788767     Delta-E=       -0.000000093448 Rises=F Damp=F
 DIIS: error= 2.12D-06 at cycle   4 NSaved=   4.
 NSaved= 4 IEnMin= 4 EnMin= -276.302199788767     IErMin= 4 ErrMin= 2.12D-06
 ErrMax= 2.12D-06  0.00D+00 EMaxC= 1.00D-01 BMatC= 1.52D-09 BMatP= 9.54D-08
 IDIUse=1 WtCom= 1.00D+00 WtEn= 0.00D+00
 Coeff-Com: -0.884D-02 0.855D-01 0.226D+00 0.697D+00
 Coeff:     -0.884D-02 0.855D-01 0.226D+00 0.697D+00
 Gap=     0.401 Goal=   None    Shift=    0.000
 RMSDP=7.50D-08 MaxDP=2.75D-06 DE=-9.34D-08 OVMax= 7.68D-06

 Cycle  10  Pass 1  IDiag  1:
 RMSU=  7.19D-08    CP:  1.00D+00  1.03D+00  7.60D-01  9.43D-01
 E= -276.302199790315     Delta-E=       -0.000000001549 Rises=F Damp=F
 DIIS: error= 4.69D-07 at cycle   5 NSaved=   5.
 NSaved= 5 IEnMin= 5 EnMin= -276.302199790315     IErMin= 5 ErrMin= 4.69D-07
 ErrMax= 4.69D-07  0.00D+00 EMaxC= 1.00D-01 BMatC= 6.00D-11 BMatP= 1.52D-09
 IDIUse=1 WtCom= 1.00D+00 WtEn= 0.00D+00
 Coeff-Com: -0.310D-03-0.182D-01-0.355D-01 0.691D-01 0.985D+00
 Coeff:     -0.310D-03-0.182D-01-0.355D-01 0.691D-01 0.985D+00
 Gap=     0.401 Goal=   None    Shift=    0.000
 RMSDP=3.13D-08 MaxDP=7.90D-07 DE=-1.55D-09 OVMax= 2.42D-06

 Cycle  11  Pass 1  IDiag  1:
 RMSU=  1.57D-08    CP:  1.00D+00  1.03D+00  7.65D-01  1.03D+00  1.09D+00
 E= -276.302199790386     Delta-E=       -0.000000000071 Rises=F Damp=F
 DIIS: error= 1.30D-07 at cycle   6 NSaved=   6.
 NSaved= 6 IEnMin= 6 EnMin= -276.302199790386     IErMin= 6 ErrMin= 1.30D-07
 ErrMax= 1.30D-07  0.00D+00 EMaxC= 1.00D-01 BMatC= 1.16D-11 BMatP= 6.00D-11
 IDIUse=1 WtCom= 1.00D+00 WtEn= 0.00D+00
 Coeff-Com:  0.425D-03-0.128D-01-0.286D-01-0.165D-01 0.400D+00 0.657D+00
 Coeff:      0.425D-03-0.128D-01-0.286D-01-0.165D-01 0.400D+00 0.657D+00
 Gap=     0.401 Goal=   None    Shift=    0.000
 RMSDP=5.68D-09 MaxDP=3.09D-07 DE=-7.09D-11 OVMax= 6.07D-07

 SCF Done:  E(RM062X) =  -276.302199790     A.U. after   11 cycles
            NFock= 11  Conv=0.57D-08     -V/T= 2.0065
 KE= 2.745068251773D+02 PE=-1.272810900877D+03 EE= 4.048210530674D+02
 Leave Link  502 at Sun Sep 29 09:48:16 2019, MaxMem=   671088640 cpu:            2200.8 elap:            1100.7
 (Enter /shared/centos7/gaussian/g16/l801.exe)
 DoSCS=F DFT=T ScalE2(SS,OS)=  1.000000  1.000000
 Range of M.O.s used for correlation:     1   434
 NBasis=   434 NAE=    29 NBE=    29 NFC=     0 NFV=     0
 NROrb=    434 NOA=    29 NOB=    29 NVA=   405 NVB=   405

 **** Warning!!: The largest alpha MO coefficient is  0.11628169D+02

 Leave Link  801 at Sun Sep 29 09:48:17 2019, MaxMem=   671088640 cpu:               1.6 elap:               0.8
 (Enter /shared/centos7/gaussian/g16/l1101.exe)
 Using compressed storage, NAtomX=    23.
 Will process     24 centers per pass.
 Leave Link 1101 at Sun Sep 29 09:49:00 2019, MaxMem=   671088640 cpu:              85.6 elap:              42.8
 (Enter /shared/centos7/gaussian/g16/l1102.exe)
 Symmetrizing basis deriv contribution to polar:
 IMax=3 JMax=2 DiffMx= 0.00D+00
 Leave Link 1102 at Sun Sep 29 09:49:03 2019, MaxMem=   671088640 cpu:               5.6 elap:               2.8
 (Enter /shared/centos7/gaussian/g16/l1110.exe)
 Forming Gx(P) for the SCF density, NAtomX=    23.
 Integral derivatives from FoFJK, PRISM(SPDF).
 Do as many integral derivatives as possible in FoFJK.
 G2DrvN: MDV=     671086848.
 G2DrvN: will do    24 centers at a time, making    1 passes.
 Calling FoFCou, ICntrl=  3107 FMM=F I1Cent=   0 AccDes= 0.00D+00.
 FoFJK:  IHMeth= 1 ICntrl=    3107 DoSepK=F KAlg= 0 I1Cent=           0 FoldK=F
 IRaf=         0 NMat=       1 IRICut=       1 DoRegI=T DoRafI=F ISym2E= 0 IDoP0=0 IntGTp=1.
 FoFCou: FMM=F IPFlag=           0 FMFlag=      100000 FMFlg1=           0
         NFxFlg=           0 DoJE=F BraDBF=F KetDBF=F FulRan=T
         wScrn=  0.000000 ICntrl=      3107 IOpCl=  0 I1Cent=           0 NGrid=           0
         NMat0=    1 NMatS0=      1 NMatT0=    0 NMatD0=    1 NMtDS0=    0 NMtDT0=    0
 Symmetry not used in FoFCou.
 End of G2Drv F.D. properties file   721 does not exist.
 End of G2Drv F.D. properties file   722 does not exist.
 End of G2Drv F.D. properties file   788 does not exist.
 Leave Link 1110 at Sun Sep 29 10:39:44 2019, MaxMem=   671088640 cpu:            6081.6 elap:            3041.3
 (Enter /shared/centos7/gaussian/g16/l1002.exe)
 Minotr:  Closed shell wavefunction.
          IDoAtm=11111111111111111111111
          Direct CPHF calculation.
          Differentiating once with respect to nuclear coordinates.
          Requested convergence is 1.0D-08 RMS, and 1.0D-07 maximum.
          Secondary convergence is 1.0D-12 RMS, and 1.0D-12 maximum.
          NewPWx=T KeepS1=F KeepF1=F KeepIn=T MapXYZ=F SortEE=F KeepMc=T.
         6946 words used for storage of precomputed grid.
 Two-electron integrals replicated using symmetry.
          MDV=     671088640 using IRadAn=       1.
          Solving linear equations simultaneously, MaxMat=     380.
 FoF2E skips out because all densities are zero.
 CalDSu exits because no D1Ps are significant.
 FoFJK:  IHMeth= 1 ICntrl=       0 DoSepK=F KAlg= 0 I1Cent=           0 FoldK=F
 IRaf= 880000000 NMat=      69 IRICut=     172 DoRegI=T DoRafI=T ISym2E= 2 IDoP0=3 IntGTp=3.
 FoFCou: FMM=F IPFlag=           0 FMFlag=      100000 FMFlg1=           0
         NFxFlg=           0 DoJE=F BraDBF=F KetDBF=F FulRan=T
         wScrn=  0.000000 ICntrl=         0 IOpCl=  0 I1Cent=           0 NGrid=           0
         NMat0=   69 NMatS0=     69 NMatT0=    0 NMatD0=   69 NMtDS0=    0 NMtDT0=    0
 Integrals replicated using symmetry in FoFCou.
 Raff kept on since  84.42% of shell-pairs survive, threshold=   0.20 IRatSp=84.
          There are    72 degrees of freedom in the 1st order CPHF.  IDoFFX=6 NUNeed=     0.
     66 vectors produced by pass  0 Test12= 1.63D-14 1.39D-09 XBig12= 5.75D-02 3.93D-02.
 AX will form    66 AO Fock derivatives at one time.
     66 vectors produced by pass  1 Test12= 1.63D-14 1.39D-09 XBig12= 3.97D-03 7.57D-03.
     66 vectors produced by pass  2 Test12= 1.63D-14 1.39D-09 XBig12= 6.42D-05 1.39D-03.
     66 vectors produced by pass  3 Test12= 1.63D-14 1.39D-09 XBig12= 5.19D-07 7.90D-05.
     66 vectors produced by pass  4 Test12= 1.63D-14 1.39D-09 XBig12= 2.51D-09 5.37D-06.
     66 vectors produced by pass  5 Test12= 1.63D-14 1.39D-09 XBig12= 1.20D-11 3.37D-07.
     23 vectors produced by pass  6 Test12= 1.63D-14 1.39D-09 XBig12= 4.37D-14 2.19D-08.
 InvSVY:  IOpt=1 It=  1 EMax= 3.33D-16
 Solved reduced A of dimension   419 with    72 vectors.
 End of Minotr F.D. properties file   721 does not exist.
 End of Minotr F.D. properties file   722 does not exist.
 End of Minotr F.D. properties file   788 does not exist.
 Leave Link 1002 at Sun Sep 29 12:01:39 2019, MaxMem=   671088640 cpu:            9827.8 elap:            4914.7
 (Enter /shared/centos7/gaussian/g16/l601.exe)
 Copying SCF densities to generalized density rwf, IOpCl= 0 IROHF=0.

 **********************************************************************

            Population analysis using the SCF density.

 **********************************************************************

 Orbital symmetries:
       Occupied  (A) (A) (A) (A) (A) (A) (A) (A) (A) (A) (A) (A)
                 (A) (A) (A) (A) (A) (A) (A) (A) (A) (A) (A) (A)
                 (A) (A) (A) (A) (A)
       Virtual   (A) (A) (A) (A) (A) (A) (A) (A) (A) (A) (A) (A)
                 (A) (A) (A) (A) (A) (A) (A) (A) (A) (A) (A) (A)
                 (A) (A) (A) (A) (A) (A) (A) (A) (A) (A) (A) (A)
                 (A) (A) (A) (A) (A) (A) (A) (A) (A) (A) (A) (A)
                 (A) (A) (A) (A) (A) (A) (A) (A) (A) (A) (A) (A)
                 (A) (A) (A) (A) (A) (A) (A) (A) (A) (A) (A) (A)
                 (A) (A) (A) (A) (A) (A) (A) (A) (A) (A) (A) (A)
                 (A) (A) (A) (A) (A) (A) (A) (A) (A) (A) (A) (A)
                 (A) (A) (A) (A) (A) (A) (A) (A) (A) (A) (A) (A)
                 (A) (A) (A) (A) (A) (A) (A) (A) (A) (A) (A) (A)
                 (A) (A) (A) (A) (A) (A) (A) (A) (A) (A) (A) (A)
                 (A) (A) (A) (A) (A) (A) (A) (A) (A) (A) (A) (A)
                 (A) (A) (A) (A) (A) (A) (A) (A) (A) (A) (A) (A)
                 (A) (A) (A) (A) (A) (A) (A) (A) (A) (A) (A) (A)
                 (A) (A) (A) (A) (A) (A) (A) (A) (A) (A) (A) (A)
                 (A) (A) (A) (A) (A) (A) (A) (A) (A) (A) (A) (A)
                 (A) (A) (A) (A) (A) (A) (A) (A) (A) (A) (A) (A)
                 (A) (A) (A) (A) (A) (A) (A) (A) (A) (A) (A) (A)
                 (A) (A) (A) (A) (A) (A) (A) (A) (A) (A) (A) (A)
                 (A) (A) (A) (A) (A) (A) (A) (A) (A) (A) (A) (A)
                 (A) (A) (A) (A) (A) (A) (A) (A) (A) (A) (A) (A)
                 (A) (A) (A) (A) (A) (A) (A) (A) (A) (A) (A) (A)
                 (A) (A) (A) (A) (A) (A) (A) (A) (A) (A) (A) (A)
                 (A) (A) (A) (A) (A) (A) (A) (A) (A) (A) (A) (A)
                 (A) (A) (A) (A) (A) (A) (A) (A) (A) (A) (A) (A)
                 (A) (A) (A) (A) (A) (A) (A) (A) (A) (A) (A) (A)
                 (A) (A) (A) (A) (A) (A) (A) (A) (A) (A) (A) (A)
                 (A) (A) (A) (A) (A) (A) (A) (A) (A) (A) (A) (A)
                 (A) (A) (A) (A) (A) (A) (A) (A) (A) (A) (A) (A)
                 (A) (A) (A) (A) (A) (A) (A) (A) (A) (A) (A) (A)
                 (A) (A) (A) (A) (A) (A) (A) (A) (A) (A) (A) (A)
                 (A) (A) (A) (A) (A) (A) (A) (A) (A) (A) (A) (A)
                 (A) (A) (A) (A) (A) (A) (A) (A) (A) (A) (A) (A)
                 (A) (A) (A) (A) (A) (A) (A) (A) (A)
 The electronic state is 1-A.
 Alpha  occ. eigenvalues --  -10.52772 -10.52550 -10.52534 -10.52477 -10.52137
 Alpha  occ. eigenvalues --  -10.52110 -10.52049  -0.91930  -0.88317  -0.82733
 Alpha  occ. eigenvalues --   -0.76674  -0.70702  -0.65657  -0.62323  -0.55542
 Alpha  occ. eigenvalues --   -0.53197  -0.51719  -0.49158  -0.48354  -0.46178
 Alpha  occ. eigenvalues --   -0.44631  -0.43648  -0.40360  -0.39986  -0.38992
 Alpha  occ. eigenvalues --   -0.38288  -0.37118  -0.36496  -0.34109
 Alpha virt. eigenvalues --    0.06038   0.07217   0.08722   0.08789   0.10456
 Alpha virt. eigenvalues --    0.11347   0.12195   0.13738   0.14461   0.15624
 Alpha virt. eigenvalues --    0.16497   0.17133   0.17795   0.19223   0.20482
 Alpha virt. eigenvalues --    0.21366   0.22202   0.23793   0.24217   0.26149
 Alpha virt. eigenvalues --    0.26857   0.28008   0.29147   0.31393   0.31919
 Alpha virt. eigenvalues --    0.33111   0.34506   0.34739   0.36787   0.38214
 Alpha virt. eigenvalues --    0.39305   0.40487   0.40839   0.41404   0.42967
 Alpha virt. eigenvalues --    0.43596   0.44705   0.45517   0.46245   0.46397
 Alpha virt. eigenvalues --    0.47993   0.48836   0.49593   0.50294   0.51047
 Alpha virt. eigenvalues --    0.51257   0.52178   0.53008   0.53245   0.53650
 Alpha virt. eigenvalues --    0.54010   0.54353   0.55581   0.55849   0.56706
 Alpha virt. eigenvalues --    0.57147   0.59403   0.60050   0.63122   0.64961
 Alpha virt. eigenvalues --    0.65734   0.65914   0.70935   0.74040   0.77888
 Alpha virt. eigenvalues --    0.78288   0.78978   0.81679   0.83634   0.85118
 Alpha virt. eigenvalues --    0.85633   0.87942   0.88801   0.90759   0.91621
 Alpha virt. eigenvalues --    0.92566   0.94200   0.94620   0.96113   0.97155
 Alpha virt. eigenvalues --    0.99324   1.02034   1.03102   1.03737   1.04402
 Alpha virt. eigenvalues --    1.05195   1.07134   1.07969   1.08814   1.09819
 Alpha virt. eigenvalues --    1.11180   1.11402   1.11984   1.12920   1.13574
 Alpha virt. eigenvalues --    1.13990   1.15193   1.15636   1.17499   1.18439
 Alpha virt. eigenvalues --    1.18794   1.19886   1.21101   1.21892   1.23070
 Alpha virt. eigenvalues --    1.23983   1.24940   1.25632   1.27611   1.27842
 Alpha virt. eigenvalues --    1.29727   1.30988   1.31959   1.32857   1.33254
 Alpha virt. eigenvalues --    1.35008   1.35266   1.35906   1.36945   1.37458
 Alpha virt. eigenvalues --    1.38648   1.40293   1.41371   1.42409   1.44039
 Alpha virt. eigenvalues --    1.44966   1.45177   1.47469   1.48436   1.49748
 Alpha virt. eigenvalues --    1.50575   1.52735   1.53947   1.54289   1.55473
 Alpha virt. eigenvalues --    1.56503   1.57670   1.59452   1.60414   1.63078
 Alpha virt. eigenvalues --    1.64713   1.67048   1.67821   1.69410   1.72925
 Alpha virt. eigenvalues --    1.74163   1.77364   1.82926   1.98985   2.10862
 Alpha virt. eigenvalues --    2.21023   2.22570   2.26055   2.28595   2.31090
 Alpha virt. eigenvalues --    2.34849   2.36980   2.39592   2.41426   2.42571
 Alpha virt. eigenvalues --    2.44261   2.44735   2.46441   2.48355   2.51641
 Alpha virt. eigenvalues --    2.52104   2.55583   2.56945   2.57689   2.57926
 Alpha virt. eigenvalues --    2.60784   2.61410   2.62956   2.64218   2.65121
 Alpha virt. eigenvalues --    2.67749   2.68333   2.70066   2.71600   2.72305
 Alpha virt. eigenvalues --    2.72911   2.74249   2.75117   2.76254   2.78371
 Alpha virt. eigenvalues --    2.79402   2.82461   2.82649   2.83552   2.85098
 Alpha virt. eigenvalues --    2.85640   2.87555   2.89120   2.89288   2.92650
 Alpha virt. eigenvalues --    2.95067   2.96588   2.97240   2.97563   2.98209
 Alpha virt. eigenvalues --    2.99871   3.00040   3.01651   3.02778   3.04008
 Alpha virt. eigenvalues --    3.04393   3.05418   3.05907   3.07452   3.08020
 Alpha virt. eigenvalues --    3.08871   3.10158   3.11439   3.12159   3.12644
 Alpha virt. eigenvalues --    3.14201   3.14504   3.16103   3.16527   3.17606
 Alpha virt. eigenvalues --    3.18455   3.18962   3.19931   3.20906   3.21892
 Alpha virt. eigenvalues --    3.23058   3.23913   3.25820   3.26303   3.27445
 Alpha virt. eigenvalues --    3.28506   3.30155   3.31991   3.32504   3.33139
 Alpha virt. eigenvalues --    3.35918   3.37668   3.38107   3.39572   3.40034
 Alpha virt. eigenvalues --    3.40873   3.43279   3.44364   3.45554   3.48193
 Alpha virt. eigenvalues --    3.48946   3.49664   3.51579   3.52268   3.52988
 Alpha virt. eigenvalues --    3.54412   3.55616   3.56156   3.57028   3.59743
 Alpha virt. eigenvalues --    3.61480   3.63039   3.63504   3.64500   3.65570
 Alpha virt. eigenvalues --    3.66968   3.69171   3.70825   3.72806   3.73982
 Alpha virt. eigenvalues --    3.74706   3.76072   3.76942   3.77389   3.78543
 Alpha virt. eigenvalues --    3.78746   3.79635   3.81091   3.82866   3.84583
 Alpha virt. eigenvalues --    3.85327   3.86914   3.87657   3.87742   3.90262
 Alpha virt. eigenvalues --    3.91838   3.92202   3.92879   3.93904   3.95081
 Alpha virt. eigenvalues --    3.95900   3.97832   3.99117   3.99441   4.00934
 Alpha virt. eigenvalues --    4.01336   4.01647   4.02706   4.04644   4.04998
 Alpha virt. eigenvalues --    4.06614   4.07545   4.08228   4.09495   4.10331
 Alpha virt. eigenvalues --    4.11484   4.12751   4.14068   4.15315   4.15718
 Alpha virt. eigenvalues --    4.16652   4.19188   4.20018   4.20341   4.22257
 Alpha virt. eigenvalues --    4.22778   4.25291   4.26588   4.27120   4.28202
 Alpha virt. eigenvalues --    4.29571   4.31410   4.34264   4.35094   4.35982
 Alpha virt. eigenvalues --    4.36934   4.39676   4.40902   4.41864   4.45910
 Alpha virt. eigenvalues --    4.48783   4.50125   4.51654   4.52916   4.57049
 Alpha virt. eigenvalues --    4.58317   4.61420   4.63410   4.65472   4.66720
 Alpha virt. eigenvalues --    4.67600   4.69212   4.71144   4.71711   4.73150
 Alpha virt. eigenvalues --    4.75180   4.78230   4.78550   4.79828   4.81711
 Alpha virt. eigenvalues --    4.83820   4.84865   4.85300   4.88550   4.91981
 Alpha virt. eigenvalues --    4.93126   4.93617   4.94631   4.97020   4.98722
 Alpha virt. eigenvalues --    4.99140   5.02662   5.04084   5.04846   5.08437
 Alpha virt. eigenvalues --    5.08880   5.11897   5.12567   5.15155   5.17068
 Alpha virt. eigenvalues --    5.20251   5.22005   5.23204   5.25636   5.26344
 Alpha virt. eigenvalues --    5.28123   5.28523   5.30801   5.33247   5.37170
 Alpha virt. eigenvalues --    5.39365   5.40514   5.41753   5.44775   5.47745
 Alpha virt. eigenvalues --    5.50113   5.51193   5.54208   5.55774   5.57756
 Alpha virt. eigenvalues --    5.59197   5.62237   5.67018   5.74084   5.76649
 Alpha virt. eigenvalues --    5.79972   5.81868   5.83693   5.84432   5.87220
 Alpha virt. eigenvalues --    5.94911   6.01468   6.05833  10.98607  12.09056
 Alpha virt. eigenvalues --   12.60250  12.80557  13.14863  13.39473  14.15561
          Condensed to atoms (all electrons):
               1          2          3          4          5          6
     1  C    5.084193   0.294772  -0.045121   0.288690   0.009052  -0.037591
     2  C    0.294772   5.152026   0.311088  -0.035755  -0.062836  -0.033799
     3  C   -0.045121   0.311088   5.066528   0.003897   0.326548   0.001297
     4  C    0.288690  -0.035755   0.003897   5.038158  -0.000459   0.282058
     5  C    0.009052  -0.062836   0.326548  -0.000459   5.027597  -0.000026
     6  C   -0.037591  -0.033799   0.001297   0.282058  -0.000026   4.997677
     7  C   -0.000536   0.007564  -0.051369   0.000021   0.315053  -0.000002
     8  H   -0.050171   0.005376  -0.000457   0.422137   0.000031  -0.048108
     9  H   -0.051642   0.006299   0.000016   0.423032  -0.000010  -0.048477
    10  H    0.418219  -0.046509   0.005317  -0.046126  -0.000582   0.005660
    11  H    0.424727  -0.063379  -0.006136  -0.050787   0.001048   0.006210
    12  H   -0.036705   0.406451  -0.039162   0.004017  -0.003856   0.001735
    13  H   -0.048252   0.418922  -0.050498  -0.008228  -0.005150  -0.016792
    14  H   -0.001547  -0.041641   0.408677  -0.000956  -0.039396   0.000645
    15  H   -0.005121  -0.037620   0.403764   0.000488  -0.037968  -0.000221
    16  H   -0.000020  -0.006490  -0.049017   0.000042   0.413034  -0.000143
    17  H    0.000204  -0.001148  -0.042407  -0.000035   0.403735   0.000019
    18  H   -0.007422  -0.012056  -0.000264  -0.047936   0.000430   0.410037
    19  H    0.006065   0.000617  -0.000045  -0.048303  -0.000002   0.407544
    20  H    0.006230   0.000537   0.000029  -0.047075  -0.000010   0.410015
    21  H    0.000001   0.000305  -0.003313   0.000000  -0.050359   0.000000
    22  H    0.000007  -0.000290  -0.002904   0.000000  -0.042377  -0.000000
    23  H    0.000025  -0.000538   0.008382  -0.000001  -0.042504  -0.000000
               7          8          9         10         11         12
     1  C   -0.000536  -0.050171  -0.051642   0.418219   0.424727  -0.036705
     2  C    0.007564   0.005376   0.006299  -0.046509  -0.063379   0.406451
     3  C   -0.051369  -0.000457   0.000016   0.005317  -0.006136  -0.039162
     4  C    0.000021   0.422137   0.423032  -0.046126  -0.050787   0.004017
     5  C    0.315053   0.000031  -0.000010  -0.000582   0.001048  -0.003856
     6  C   -0.000002  -0.048108  -0.048477   0.005660   0.006210   0.001735
     7  C    4.936932  -0.000001  -0.000001   0.000023  -0.000018   0.000040
     8  H   -0.000001   0.640195  -0.044598  -0.023958   0.007743   0.000262
     9  H   -0.000001  -0.044598   0.633088   0.007768  -0.022165  -0.000548
    10  H    0.000023  -0.023958   0.007768   0.620390  -0.042613  -0.020627
    11  H   -0.000018   0.007743  -0.022165  -0.042613   0.613568   0.007091
    12  H    0.000040   0.000262  -0.000548  -0.020627   0.007091   0.589718
    13  H    0.000587   0.000012   0.000446   0.006458   0.005464  -0.041926
    14  H   -0.006528  -0.000014  -0.000040   0.000085   0.000502   0.007497
    15  H    0.000318  -0.000021  -0.000009   0.000610   0.001098  -0.007536
    16  H   -0.039756   0.000001  -0.000002  -0.000042   0.000034   0.000257
    17  H   -0.036354   0.000000   0.000001   0.000020   0.000001   0.002198
    18  H   -0.000039   0.005359   0.005699   0.000086   0.000180   0.000551
    19  H   -0.000000   0.007888  -0.021819  -0.000582   0.000193   0.000017
    20  H    0.000000  -0.021509   0.007133   0.000195  -0.000537  -0.000067
    21  H    0.405597  -0.000000   0.000000   0.000003  -0.000007  -0.000039
    22  H    0.403895   0.000000   0.000000  -0.000003  -0.000000   0.000040
    23  H    0.406648   0.000000   0.000000  -0.000001   0.000005   0.000009
              13         14         15         16         17         18
     1  C   -0.048252  -0.001547  -0.005121  -0.000020   0.000204  -0.007422
     2  C    0.418922  -0.041641  -0.037620  -0.006490  -0.001148  -0.012056
     3  C   -0.050498   0.408677   0.403764  -0.049017  -0.042407  -0.000264
     4  C   -0.008228  -0.000956   0.000488   0.000042  -0.000035  -0.047936
     5  C   -0.005150  -0.039396  -0.037968   0.413034   0.403735   0.000430
     6  C   -0.016792   0.000645  -0.000221  -0.000143   0.000019   0.410037
     7  C    0.000587  -0.006528   0.000318  -0.039756  -0.036354  -0.000039
     8  H    0.000012  -0.000014  -0.000021   0.000001   0.000000   0.005359
     9  H    0.000446  -0.000040  -0.000009  -0.000002   0.000001   0.005699
    10  H    0.006458   0.000085   0.000610  -0.000042   0.000020   0.000086
    11  H    0.005464   0.000502   0.001098   0.000034   0.000001   0.000180
    12  H   -0.041926   0.007497  -0.007536   0.000257   0.002198   0.000551
    13  H    0.599869  -0.004931   0.008077   0.002763  -0.001173  -0.002443
    14  H   -0.004931   0.589108  -0.041360  -0.006327   0.007720   0.000148
    15  H    0.008077  -0.041360   0.582316   0.008074  -0.006420  -0.000130
    16  H    0.002763  -0.006327   0.008074   0.617012  -0.041005   0.000122
    17  H   -0.001173   0.007720  -0.006420  -0.041005   0.597276   0.000053
    18  H   -0.002443   0.000148  -0.000130   0.000122   0.000053   0.609415
    19  H    0.000058   0.000036   0.000010   0.000021   0.000000  -0.035687
    20  H    0.000411  -0.000007   0.000004  -0.000002  -0.000000  -0.036504
    21  H    0.000057   0.003289  -0.000268  -0.000793   0.007811   0.000002
    22  H   -0.000060  -0.000090   0.002270   0.008361  -0.012085   0.000001
    23  H   -0.000024   0.000111  -0.000189  -0.012356  -0.000377   0.000001
              19         20         21         22         23
     1  C    0.006065   0.006230   0.000001   0.000007   0.000025
     2  C    0.000617   0.000537   0.000305  -0.000290  -0.000538
     3  C   -0.000045   0.000029  -0.003313  -0.002904   0.008382
     4  C   -0.048303  -0.047075   0.000000   0.000000  -0.000001
     5  C   -0.000002  -0.000010  -0.050359  -0.042377  -0.042504
     6  C    0.407544   0.410015   0.000000  -0.000000  -0.000000
     7  C   -0.000000   0.000000   0.405597   0.403895   0.406648
     8  H    0.007888  -0.021509  -0.000000   0.000000   0.000000
     9  H   -0.021819   0.007133   0.000000   0.000000   0.000000
    10  H   -0.000582   0.000195   0.000003  -0.000003  -0.000001
    11  H    0.000193  -0.000537  -0.000007  -0.000000   0.000005
    12  H    0.000017  -0.000067  -0.000039   0.000040   0.000009
    13  H    0.000058   0.000411   0.000057  -0.000060  -0.000024
    14  H    0.000036  -0.000007   0.003289  -0.000090   0.000111
    15  H    0.000010   0.000004  -0.000268   0.002270  -0.000189
    16  H    0.000021  -0.000002  -0.000793   0.008361  -0.012356
    17  H    0.000000  -0.000000   0.007811  -0.012085  -0.000377
    18  H   -0.035687  -0.036504   0.000002   0.000001   0.000001
    19  H    0.618429  -0.033712  -0.000000  -0.000000   0.000000
    20  H   -0.033712   0.607899   0.000000   0.000000  -0.000000
    21  H   -0.000000   0.000000   0.598761  -0.037423  -0.033378
    22  H   -0.000000   0.000000  -0.037423   0.606681  -0.030434
    23  H    0.000000  -0.000000  -0.033378  -0.030434   0.602595
 Mulliken charges:
               1
     1  C   -0.248058
     2  C   -0.261896
     3  C   -0.244849
     4  C   -0.176877
     5  C   -0.210991
     6  C   -0.337739
     7  C   -0.342072
     8  H    0.099832
     9  H    0.105830
    10  H    0.116210
    11  H    0.117778
    12  H    0.130585
    13  H    0.136354
    14  H    0.125020
    15  H    0.129837
    16  H    0.106232
    17  H    0.121966
    18  H    0.110398
    19  H    0.099273
    20  H    0.106972
    21  H    0.109755
    22  H    0.104412
    23  H    0.102028
 Sum of Mulliken charges =  -0.00000
 Mulliken charges with hydrogens summed into heavy atoms:
               1
     1  C   -0.014070
     2  C    0.005043
     3  C    0.010009
     4  C    0.028785
     5  C    0.017207
     6  C   -0.021096
     7  C   -0.025878
 APT charges:
               1
     1  C   -0.679902
     2  C   -0.458241
     3  C   -0.582191
     4  C   -0.966758
     5  C   -0.458423
     6  C   -1.088132
     7  C   -1.455691
     8  H    0.503364
     9  H    0.386901
    10  H    0.415375
    11  H    0.299529
    12  H    0.358835
    13  H    0.277438
    14  H    0.270182
    15  H    0.364293
    16  H    0.245574
    17  H    0.359199
    18  H    0.057979
    19  H    0.386059
    20  H    0.535529
    21  H    0.267371
    22  H    0.447466
    23  H    0.514242
 Sum of APT charges =  -0.00000
 APT charges with hydrogens summed into heavy atoms:
               1
     1  C    0.035002
     2  C    0.178032
     3  C    0.052284
     4  C   -0.076493
     5  C    0.146351
     6  C   -0.108564
     7  C   -0.226612
 Electronic spatial extent (au):  <R**2>=           1419.7481
 Charge=              0.0000 electrons
 Dipole moment (field-independent basis, Debye):
    X=              0.0854    Y=             -0.0759    Z=             -0.0593  Tot=              0.1287
 Quadrupole moment (field-independent basis, Debye-Ang):
   XX=            -50.0548   YY=            -49.2855   ZZ=            -48.5524
   XY=             -0.2253   XZ=              0.1492   YZ=              0.5763
 Traceless Quadrupole moment (field-independent basis, Debye-Ang):
   XX=             -0.7572   YY=              0.0121   ZZ=              0.7451
   XY=             -0.2253   XZ=              0.1492   YZ=              0.5763
 Octapole moment (field-independent basis, Debye-Ang**2):
  XXX=              4.5615  YYY=             -0.6841  ZZZ=              1.3897  XYY=             -2.3151
  XXY=             -1.2428  XXZ=             -3.7797  XZZ=              1.6733  YZZ=             -0.9294
  YYZ=             -0.8972  XYZ=              0.0997
 Hexadecapole moment (field-independent basis, Debye-Ang**3):
 XXXX=          -1647.9468 YYYY=           -262.5367 ZZZZ=           -140.9493 XXXY=             -1.6972
 XXXZ=             -0.1604 YYYX=             -5.0194 YYYZ=              1.6875 ZZZX=              2.5723
 ZZZY=              2.9864 XXYY=           -311.9153 XXZZ=           -291.5476 YYZZ=            -66.7585
 XXYZ=              2.8805 YYXZ=              0.6542 ZZXY=              1.0630
 N-N= 3.171808228422D+02 E-N=-1.272810860691D+03  KE= 2.745068251773D+02
  Exact polarizability:   0.000   0.000   0.000   0.000   0.000   0.000
 Approx polarizability:  97.758   0.342  98.171   0.200   0.027  97.670
 No NMR shielding tensors so no spin-rotation constants.
 Leave Link  601 at Sun Sep 29 12:02:07 2019, MaxMem=   671088640 cpu:              56.3 elap:              28.2
 (Enter /shared/centos7/gaussian/g16/l701.exe)
 SCFChk:  SCF convergence  5.68D-09 required  1.00D-08
 ... and contract with generalized density number  0.
 Compute integral second derivatives.
 Entering OneElI...
 Calculate overlap and kinetic energy integrals
    NBasis = 485  MinDer = 2  MaxDer = 2
 Requested accuracy = 0.1000D-12
 PrmmSu-InSpLW:  IPartL=    0 NPrtUS=   20 NPrtUL=    1 DoSpLW=F IThBeg=    0 IThEnd=   19 NThAct=   20.
 PrsmSu:  NPrtUS=  20 ThrOK=T IAlg=1 NPAlg=1 LenDen=           0 ISkipM=0 DoSpLW=F IThBeg=    0 IThEnd=   19.
 Prism:   IPart=     0 DynPar=F LinDyn=F Incr=           6.
 PRISM was handed    33209843 working-precision words and 13410 shell-pairs
 PRISM was handed    33209843 working-precision words and 13410 shell-pairs
 PRISM was handed    33209843 working-precision words and 13410 shell-pairs
 PRISM was handed    33209843 working-precision words and 13410 shell-pairs
 PRISM was handed    33209843 working-precision words and 13410 shell-pairs
 PRISM was handed    33209843 working-precision words and 13410 shell-pairs
 PRISM was handed    33209843 working-precision words and 13410 shell-pairs
 PRISM was handed    33209843 working-precision words and 13410 shell-pairs
 PRISM was handed    33209843 working-precision words and 13410 shell-pairs
 PRISM was handed    33209843 working-precision words and 13410 shell-pairs
 PRISM was handed    33209843 working-precision words and 13410 shell-pairs
 PRISM was handed    33209843 working-precision words and 13410 shell-pairs
 IPart=  0 NShTot=         703 NBatch=          78 AvBLen=         9.0
 IPart=  1 NShTot=         702 NBatch=          77 AvBLen=         9.1
 IPart= 12 NShTot=         660 NBatch=          53 AvBLen=        12.5
 IPart=  9 NShTot=         672 NBatch=          58 AvBLen=        11.6
 PRISM was handed    33209843 working-precision words and 13410 shell-pairs
 PRISM was handed    33209843 working-precision words and 13410 shell-pairs
 PRISM was handed    33209843 working-precision words and 13410 shell-pairs
 PRISM was handed    33209843 working-precision words and 13410 shell-pairs
 IPart= 15 NShTot=         650 NBatch=          52 AvBLen=        12.5
 IPart=  5 NShTot=         687 NBatch=          69 AvBLen=        10.0
 PRISM was handed    33209843 working-precision words and 13410 shell-pairs
 IPart=  6 NShTot=         684 NBatch=          67 AvBLen=        10.2
 PRISM was handed    33209843 working-precision words and 13410 shell-pairs
 PRISM was handed    33209843 working-precision words and 13410 shell-pairs
 PRISM was handed    33209843 working-precision words and 13410 shell-pairs
 IPart= 13 NShTot=         656 NBatch=          52 AvBLen=        12.6
 IPart=  8 NShTot=         673 NBatch=          59 AvBLen=        11.4
 IPart= 16 NShTot=         648 NBatch=          52 AvBLen=        12.5
 IPart=  3 NShTot=         696 NBatch=          74 AvBLen=         9.4
 IPart= 18 NShTot=         643 NBatch=          48 AvBLen=        13.4
 IPart= 10 NShTot=         668 NBatch=          58 AvBLen=        11.5
 IPart= 17 NShTot=         647 NBatch=          51 AvBLen=        12.7
 IPart=  7 NShTot=         676 NBatch=          61 AvBLen=        11.1
 IPart= 19 NShTot=         640 NBatch=          46 AvBLen=        13.9
 IPart= 14 NShTot=         651 NBatch=          52 AvBLen=        12.5
 IPart= 11 NShTot=         664 NBatch=          57 AvBLen=        11.6
 IPart=  2 NShTot=         699 NBatch=          76 AvBLen=         9.2
 IPart=  4 NShTot=         691 NBatch=          70 AvBLen=         9.9
 PrSmSu:  NxtVal=            121.
 Entering OneElI...
 Calculate potential energy integrals
    NBasis = 485  MinDer = 2  MaxDer = 2
 Requested accuracy = 0.1000D-12
 PrmmSu-InSpLW:  IPartL=    0 NPrtUS=   20 NPrtUL=    1 DoSpLW=F IThBeg=    0 IThEnd=   19 NThAct=   20.
 PrsmSu:  NPrtUS=  20 ThrOK=T IAlg=1 NPAlg=1 LenDen=           0 ISkipM=0 DoSpLW=F IThBeg=    0 IThEnd=   19.
 Prism:   IPart=     0 DynPar=F LinDyn=F Incr=         134.
 PRISM was handed    33275748 working-precision words and 11709 shell-pairs
 PRISM was handed    33275748 working-precision words and 11709 shell-pairs
 PRISM was handed    33275748 working-precision words and 11709 shell-pairs
 PRISM was handed    33275748 working-precision words and 11709 shell-pairs
 PRISM was handed    33275748 working-precision words and 11709 shell-pairs
 PRISM was handed    33275748 working-precision words and 11709 shell-pairs
 PRISM was handed    33275748 working-precision words and 11709 shell-pairs
 PRISM was handed    33275748 working-precision words and 11709 shell-pairs
 PRISM was handed    33275748 working-precision words and 11709 shell-pairs
 PRISM was handed    33275748 working-precision words and 11709 shell-pairs
 PRISM was handed    33275748 working-precision words and 11709 shell-pairs
 PRISM was handed    33275748 working-precision words and 11709 shell-pairs
 PRISM was handed    33275748 working-precision words and 11709 shell-pairs
 PRISM was handed    33275748 working-precision words and 11709 shell-pairs
 PRISM was handed    33275748 working-precision words and 11709 shell-pairs
 PRISM was handed    33275748 working-precision words and 11709 shell-pairs
 PRISM was handed    33275748 working-precision words and 11709 shell-pairs
 PRISM was handed    33275748 working-precision words and 11709 shell-pairs
 PRISM was handed    33275748 working-precision words and 11709 shell-pairs
 PRISM was handed    33275748 working-precision words and 11709 shell-pairs
 IPart= 16 NShTot=       12949 NBatch=         564 AvBLen=        23.0
 IPart= 18 NShTot=       12880 NBatch=         561 AvBLen=        23.0
 IPart= 13 NShTot=       13110 NBatch=         571 AvBLen=        23.0
 IPart=  5 NShTot=       13938 NBatch=         607 AvBLen=        23.0
 IPart=  6 NShTot=       13754 NBatch=         599 AvBLen=        23.0
 IPart=  9 NShTot=       13409 NBatch=         584 AvBLen=        23.0
 IPart=  3 NShTot=       14076 NBatch=         614 AvBLen=        22.9
 IPart= 15 NShTot=       13041 NBatch=         568 AvBLen=        23.0
 IPart= 19 NShTot=       12857 NBatch=         560 AvBLen=        23.0
 IPart=  4 NShTot=       13984 NBatch=         609 AvBLen=        23.0
 IPart= 17 NShTot=       12903 NBatch=         562 AvBLen=        23.0
 IPart=  0 NShTot=       14214 NBatch=         620 AvBLen=        22.9
 IPart=  8 NShTot=       13455 NBatch=         586 AvBLen=        23.0
 IPart= 12 NShTot=       13156 NBatch=         573 AvBLen=        23.0
 IPart=  1 NShTot=       14168 NBatch=         618 AvBLen=        22.9
 IPart=  2 NShTot=       14122 NBatch=         616 AvBLen=        22.9
 IPart= 10 NShTot=       13363 NBatch=         582 AvBLen=        23.0
 IPart=  7 NShTot=       13547 NBatch=         590 AvBLen=        23.0
 IPart= 11 NShTot=       13294 NBatch=         579 AvBLen=        23.0
 IPart= 14 NShTot=       13087 NBatch=         570 AvBLen=        23.0
 PrSmSu:  NxtVal=           2681.
 Polarizability after L701:
                1             2             3 
      1  0.000000D+00
      2  0.000000D+00  0.000000D+00
      3  0.000000D+00  0.000000D+00  0.000000D+00
 Dipole Derivatives after L701:
                 1             2             3             4             5 
      1   0.294156D-01  0.102308D+01  0.148770D+00 -0.331766D-01 -0.243457D+00
      2  -0.451375D-01 -0.134211D+01  0.619441D-01 -0.189444D+00 -0.446791D+00
      3   0.296266D+00 -0.456910D-01 -0.727011D+00 -0.549159D-01  0.157554D-01
                 6             7             8             9            10 
      1   0.709359D-01 -0.259998D+00 -0.544903D+00  0.470676D+00 -0.208596D+01
      2  -0.351775D+00 -0.171248D+00 -0.819832D+00  0.373393D-01  0.444395D+00
      3  -0.894756D+00 -0.876582D-01 -0.141985D+00 -0.666742D+00 -0.122269D+00
                11            12            13            14            15 
      1   0.122537D+01 -0.686414D+00  0.151601D+00  0.609968D+00 -0.124177D+01
      2   0.366232D-01  0.383572D-02 -0.223103D+00 -0.798985D+00  0.319415D-01
      3   0.445399D-01 -0.850937D+00 -0.162681D+00  0.115172D-01 -0.727885D+00
                16            17            18            19            20 
      1  -0.101435D+01 -0.191122D+01  0.325201D+00 -0.244381D+01 -0.837581D-01
      2  -0.931341D-01 -0.132159D+01  0.231728D-01  0.186626D+00 -0.972376D+00
      3   0.484442D-01 -0.135356D+00 -0.928456D+00 -0.580992D-02 -0.643263D-02
                21            22            23            24            25 
      1   0.680997D+00  0.105957D+01 -0.494162D+00 -0.608027D+00  0.340730D+00
      2  -0.103969D+00 -0.169248D+00  0.262401D+00  0.139500D+00 -0.261012D-02
      3  -0.950891D+00 -0.930893D-01  0.553956D-01  0.188122D+00  0.930726D-01
                26            27            28            29            30 
      1  -0.123323D+00  0.933198D+00  0.344523D+00 -0.424851D+00 -0.367341D+00
      2   0.177565D+00 -0.127978D+00 -0.180969D+00  0.572402D+00  0.425469D+00
      3  -0.673295D-01  0.642408D+00 -0.718734D-01  0.204943D+00  0.329200D+00
                31            32            33            34            35 
      1   0.805924D-01 -0.175287D+00  0.300971D+00  0.153555D+00 -0.150831D-01
      2   0.122394D+00  0.373587D+00 -0.445690D+00  0.179980D-01  0.257965D+00
      3  -0.661808D-01 -0.160991D+00  0.444408D+00  0.762493D-01  0.252364D+00
                36            37            38            39            40 
      1   0.534990D-02  0.208602D+00  0.173729D+00 -0.318873D-02  0.946850D-01
      2   0.261800D+00  0.101017D+00  0.458294D+00 -0.107238D-01 -0.343967D-02
      3   0.664986D+00 -0.501301D-01 -0.223554D+00  0.165419D+00  0.736934D-01
                41            42            43            44            45 
      1  -0.576154D-01 -0.279897D+00  0.253979D+00  0.472969D+00 -0.227404D-01
      2   0.139051D+00 -0.222393D-01  0.158719D+00  0.694698D+00 -0.428582D-02
      3   0.129072D+00  0.576810D+00 -0.110655D-01 -0.453433D-01  0.144202D+00
                46            47            48            49            50 
      1  -0.184398D-01 -0.604484D+00  0.321121D-01  0.299631D+00  0.201655D+00
      2   0.138121D+00  0.640687D+00  0.698269D-02  0.893708D-02  0.141986D+00
      3  -0.274552D-01 -0.108408D+00  0.114477D+00  0.107953D+00  0.151459D+00
                51            52            53            54            55 
      1   0.778626D+00 -0.318074D+00  0.240721D+00 -0.215912D+00  0.219758D+00
      2   0.913514D-02 -0.481466D+00  0.321489D+00 -0.246621D+00  0.949669D-01
      3   0.635980D+00  0.172918D+00 -0.555117D-01  0.170521D+00  0.675414D-01
                56            57            58            59            60 
      1   0.484115D+00  0.876127D+00  0.110352D+01  0.233239D+00 -0.814227D+00
      2   0.436713D+00  0.553930D+00  0.386986D+00  0.242788D+00 -0.316276D+00
      3   0.175176D+00  0.501707D+00 -0.226488D+00 -0.394559D-01  0.260280D+00
                61            62            63            64            65 
      1   0.249420D-01  0.135911D+00 -0.108366D+01  0.894951D+00  0.116269D+01
      2   0.695617D-02  0.854369D-01  0.765073D-01  0.148159D+00  0.322888D+00
      3   0.812156D-01 -0.555670D-01  0.691734D+00 -0.805341D-02  0.252435D-01
                66            67            68            69 
      1   0.446095D+00  0.913748D+00 -0.128529D+01  0.254127D+00
      2   0.105351D+00 -0.255477D+00  0.537111D+00 -0.107351D+00
      3   0.124558D+00 -0.296843D-01  0.201611D-01  0.918673D-01
 Hessian after L701:
                1             2             3             4             5 
      1  0.143722D+02
      2 -0.279760D+00  0.164384D+02
      3 -0.651676D+00 -0.508783D-01  0.172897D+02
      4 -0.329463D+01 -0.136486D+01  0.124545D+01  0.140556D+02
      5 -0.136466D+01 -0.556790D+01 -0.515267D+00  0.348057D+00  0.178450D+02
      6  0.124020D+01 -0.501085D+00 -0.545639D+01  0.234582D-01  0.663153D-01
      7  0.381114D+00 -0.924172D-01 -0.708086D-01 -0.295665D+01  0.234163D+00
      8 -0.230480D+00 -0.118257D+00 -0.758167D-02  0.265895D+00 -0.602189D+01
      9  0.245941D-01 -0.280280D-01 -0.150651D+00 -0.172173D+01 -0.837405D-02
     10 -0.326502D+01  0.161139D+01  0.617844D+00  0.318187D+00  0.132409D-01
     11  0.169061D+01 -0.484146D+01  0.504320D+00 -0.181984D-01 -0.894520D-01
     12  0.586840D+00  0.468154D+00 -0.548859D+01  0.180966D+00 -0.162568D-01
     13  0.270915D+00 -0.130334D+00  0.445767D-01  0.347836D+00 -0.145949D+00
     14 -0.143866D+00 -0.878308D-01 -0.169706D-01 -0.694965D-01 -0.810653D-01
     15  0.373559D-01 -0.217263D-01 -0.137420D+00 -0.925412D-01  0.752565D-02
     16 -0.313154D-01  0.197757D+00  0.118116D-01  0.491079D-01  0.143272D+00
     17  0.173035D+00  0.265037D+00 -0.290049D-01 -0.165980D-01 -0.615082D-01
     18  0.208522D-01 -0.119561D-01 -0.167844D+00  0.633439D-01  0.500115D-01
     19  0.479753D-01 -0.124812D-01 -0.131351D-01  0.244823D+00 -0.731285D-01
     20 -0.328033D-01 -0.443248D-01  0.421344D-02 -0.700849D-01 -0.122128D+00
     21  0.286168D-02  0.246472D-02 -0.481027D-01 -0.990073D-01  0.144282D-01
     22 -0.623831D-01 -0.945840D-01 -0.560970D-01  0.131445D+00 -0.557099D-02
     23 -0.772512D-01  0.107388D+00  0.122100D-01 -0.287764D-01 -0.410159D-01
     24 -0.630041D-01  0.160353D-01  0.132460D+00  0.161459D-02 -0.116364D-02
     25 -0.545812D-01 -0.814859D-01 -0.977219D-01  0.674913D-01  0.894117D-02
     26 -0.637568D-01  0.903202D-01 -0.459523D-01 -0.337652D-02 -0.457445D-01
     27 -0.887464D-01 -0.616959D-01  0.138786D+00  0.988140D-01  0.105780D-01
     28 -0.417625D+01 -0.481268D+00 -0.370582D+00 -0.243850D-02  0.113330D+00
     29 -0.447577D+00 -0.278485D+01  0.111646D+01  0.986466D-01  0.218158D-01
     30 -0.341084D+00  0.109034D+01 -0.344437D+01 -0.471107D-01  0.578373D-01
     31 -0.432903D+01  0.333807D+00 -0.485770D+00  0.833571D-01  0.144120D+00
     32  0.423735D+00 -0.361153D+01 -0.119592D+01  0.142160D+00  0.457232D-01
     33 -0.589373D+00 -0.113810D+01 -0.275841D+01 -0.158831D+00  0.122034D+00
     34 -0.347590D-01  0.782443D-01 -0.631457D-01 -0.445791D+01  0.130747D+00
     35  0.736799D-01  0.668090D-01  0.878551D-01  0.149213D+00 -0.417829D+01
     36 -0.521559D-01  0.105030D+00  0.126810D+00  0.413801D+00  0.699301D+00
     37  0.404041D-01  0.176286D+00 -0.786259D-01 -0.469046D+01  0.499195D+00
     38  0.141249D+00  0.357225D-01  0.100664D+00  0.544870D+00 -0.195381D+01
     39 -0.757496D-01  0.115775D+00  0.684920D-01 -0.106680D+00 -0.574251D+00
     40  0.409581D-01  0.734828D-02 -0.150159D-01  0.126919D-01  0.346205D-02
     41 -0.125278D-01 -0.372168D-01  0.423344D-02 -0.710571D-04  0.104597D+00
     42 -0.499857D-01 -0.106327D-01 -0.496157D-02  0.114185D+00  0.397713D-01
     43  0.577418D-02 -0.168907D-02 -0.271809D-01  0.463649D-02 -0.448143D-01
     44  0.122151D-01  0.167888D-02 -0.911529D-02 -0.925730D-02  0.116539D+00
     45 -0.179217D-01 -0.117829D-02 -0.117449D-01  0.735618D-01  0.543166D-01
     46  0.538216D-02 -0.120163D-01  0.960150D-03 -0.821042D-02 -0.394210D-02
     47 -0.313334D-01  0.231198D-02  0.705269D-04 -0.323005D-01  0.260701D-01
     48  0.348890D-02 -0.114646D-02 -0.129166D-01 -0.319594D-02  0.292079D-02
     49  0.225313D-01 -0.256864D-02  0.128807D-01  0.476183D-01 -0.145235D-01
     50 -0.487257D-02 -0.104268D-01 -0.137808D-02 -0.554840D-03 -0.331296D-01
[...]
 0701157,0.02172450,-0.05253709,0.02089140,0.00004882,-0.00006192,-0.00
 001671,0.01952767,-0.00427327,0.01580944,0.00001773,-0.00010313,0.0000
 1340,-0.00082023,0.00052463,0.00091693,-0.00000377,-0.00000499,-0.0000
 2921,-0.00002464,-0.00004233,0.00001847,-0.00009141,0.00000661,-0.0000
 4831,0.00004223,0.00030729,-0.00016830,-0.00036209,0.00017491,0.001700
 79,0.00058321,0.00010149,-0.00019333,-0.02822202,0.05564220,-0.0019968
 3,0.00080528,0.00086782,-0.02109209,0.00340595,-0.02271308,-0.12545877
 ,0.02144620,-0.16152886,0.00039715,0.00007532,0.00021052,0.00910349,-0
 .00132729,0.00662786,-0.00013981,0.00018548,-0.00002961,0.00046969,-0.
 00016986,0.00150348,0.00006404,-0.00001495,-0.00004263,-0.00000937,0.0
 0003828,-0.00002351,0.00005900,0.00000706,-0.00000178,0.00110644,-0.00
 067265,0.00015314,0.00314252,0.00166321,-0.00444211,0.00011957,0.00012
 997,0.00134224,0.13490175,-0.02416839,0.18002230,0.00040738,-0.0009292
 7,-0.00082685,-0.00779431,-0.01164334,-0.00063063,-0.10861121,-0.10815
 929,-0.01358996,0.00000709,0.00029789,0.00013853,0.00974709,0.02030572
 ,0.00347874,0.00004159,-0.00004894,-0.00002251,0.00118857,0.00044950,-
 0.00088875,-0.00003094,0.00003765,0.00007400,0.00014734,0.00012327,-0.
 00012874,-0.00006697,0.00053556,0.00054918,-0.00013845,-0.00005497,-0.
 00007969,0.00068603,0.00057782,0.00008955,0.00003777,-0.00012110,0.002
 90566,-0.01204944,-0.02076740,-0.00211053,0.11748370,0.00053844,0.0005
 7019,-0.00051722,-0.00454808,-0.00810630,-0.00004469,-0.10748176,-0.23
 790489,-0.02074984,0.00021626,0.00035741,0.00014588,-0.01090286,-0.022
 79076,-0.00334736,-0.00001329,-0.00006927,0.00000558,-0.00085992,0.000
 79903,0.00091218,-0.00004173,0.00001448,0.00007172,0.00015206,-0.00002
 868,-0.00019013,-0.00039860,0.00061184,0.00021036,-0.00005397,-0.00001
 375,0.00018069,0.00024366,0.00005670,0.00011305,-0.00006697,0.00042527
 ,0.00153851,0.00184069,0.00380119,-0.00008093,0.11695765,0.26285367,-0
 .00060979,0.00121207,0.00139571,0.01659344,0.02667732,0.00121916,-0.01
 376307,-0.02112060,-0.04987773,-0.00004382,0.00005567,-0.00011475,-0.0
 0507977,-0.00977653,-0.00221043,-0.00003818,0.00003774,0.00003750,-0.0
 0098813,-0.00072022,0.00060753,-0.00004824,-0.00009073,-0.00001023,-0.
 00016155,-0.00017326,0.00003734,-0.00009468,-0.00067889,-0.00017328,0.
 00001224,-0.00018430,-0.00000270,-0.00074517,-0.00019104,0.00130821,0.
 00281059,0.00159248,-0.00497921,-0.01043332,-0.01939805,-0.00243377,0.
 00989397,0.02304609,0.05507879,0.00007325,0.00023782,-0.00006770,0.001
 14427,0.00050005,-0.00082733,0.00995906,0.02029829,0.00329705,-0.00000
 602,-0.00013227,-0.00003523,-0.10950221,-0.10949284,-0.01323944,0.0000
 0582,-0.00000302,-0.00000427,-0.00727586,-0.01146676,-0.00065934,0.000
 01569,0.00000964,-0.00002715,-0.00001532,-0.00001085,0.00003335,-0.000
 11483,-0.00012023,-0.00000573,-0.00000089,0.00002778,-0.00001944,-0.00
 003432,-0.00014941,0.00005221,-0.00008864,-0.00038810,-0.00009341,0.00
 105514,-0.00069277,-0.00049375,-0.00201331,0.00362474,0.00198837,0.118
 25125,0.00038994,0.00036431,-0.00000832,-0.00106860,0.00047898,0.00099
 026,-0.01083748,-0.02299301,-0.00349421,0.00004211,0.00000693,0.000001
 25,-0.10883272,-0.24179751,-0.01982386,0.00002804,-0.00000957,-0.00001
 940,-0.00369477,-0.00629808,-0.00016038,0.00000907,-0.00000328,-0.0000
 1513,0.00004500,0.00001863,-0.00004013,-0.00013195,0.00026572,0.000187
 54,-0.00003462,-0.00004963,0.00001508,0.00010174,-0.00002615,-0.000050
 75,0.00062233,0.00059848,-0.00074199,-0.00006484,0.00073832,0.00060887
 ,0.00369991,-0.00232736,-0.00137062,0.11801191,0.26571824,0.00013715,0
 .00002513,-0.00010670,-0.00100941,-0.00074680,0.00066138,-0.00507727,-
 0.00988553,-0.00218248,0.00000965,0.00002453,0.00000576,-0.01363208,-0
 .02062313,-0.04984181,0.00001999,-0.00001675,-0.00001238,0.01623652,0.
 02762392,0.00135590,-0.00000297,0.00000489,0.00000686,0.00003311,0.000
 01037,-0.00001955,0.00001563,0.00016578,0.00001552,-0.00005101,0.00002
 328,0.00000637,-0.00010140,-0.00001771,-0.00004781,0.00051254,0.000159
 78,-0.00009075,0.00025774,0.00067937,0.00032093,0.00200907,-0.00130009
 ,-0.00016139,0.00949024,0.02240643,0.05515944,0.00015516,0.00006362,0.
 00044089,0.00044855,-0.00035617,-0.00160320,-0.01775675,0.00333125,-0.
 01380814,0.00004373,0.00001350,0.00004040,-0.18552067,0.02233933,-0.12
 776272,-0.00007222,0.00004038,0.00001787,0.01108309,-0.00202474,0.0111
 7786,0.00000202,-0.00000090,0.00000800,-0.00000191,0.00000127,0.000003
 59,-0.00001596,0.00000899,-0.00001772,0.00028610,-0.00020249,0.0000080
 6,0.00003187,-0.00001614,0.00111875,-0.00005837,0.00001248,0.00001220,
 -0.00151022,0.00339349,0.00220665,0.00109172,-0.00008158,0.00025953,-0
 .01211133,0.00177145,-0.01031382,0.20278861,-0.00005108,-0.00011759,-0
 .00000140,-0.00068371,0.00041739,0.00104196,0.01974757,-0.00425372,0.0
 1596082,-0.00010763,0.00002187,-0.00005613,0.02152794,-0.05302393,0.02
 086257,0.00003624,0.00002153,-0.00001859,0.00601659,-0.00143396,0.0061
 1023,-0.00000246,-0.00000663,0.00001753,-0.00000399,0.00000051,0.00000
 138,0.00001150,-0.00005685,0.00000018,-0.00017796,0.00007514,-0.000045
 92,-0.00017783,0.00034350,-0.00055085,-0.00005464,-0.00000591,-0.00014
 329,0.00343107,-0.00283934,-0.00163747,-0.00069972,0.00073814,0.000674
 29,-0.02088349,0.00384624,-0.01951547,-0.02781292,0.05567860,0.0002397
 8,-0.00016311,0.00024378,0.00044298,-0.00014776,0.00136484,0.00896573,
 -0.00118871,0.00679836,-0.00007011,0.00004806,-0.00002304,-0.12729480,
 0.02150281,-0.16279489,-0.00000150,0.00000016,-0.00000400,-0.02118838,
 0.00358992,-0.02184632,-0.00001747,-0.00000533,0.00002802,0.00000194,-
 0.00000202,0.00000159,-0.00001754,0.00001824,-0.00000724,-0.00000308,-
 0.00001896,-0.00020306,-0.00028408,-0.00013181,0.00006360,-0.00001501,
 0.00010607,-0.00002224,0.00209040,-0.00154629,-0.00018456,-0.00048378,
 0.00060375,0.00033684,-0.00206258,-0.00025894,-0.00227033,0.13638503,-
 0.02370134,0.18091671,0.00095960,0.00002435,0.00143966,0.00020661,0.00
 003789,-0.00012414,-0.00000219,-0.00008502,-0.00001998,-0.01313434,-0.
 01732989,-0.00382134,-0.00000406,0.00002435,-0.00002175,-0.13711239,-0
 .12256509,-0.02213001,0.00000718,-0.00001652,-0.00000068,0.00007903,0.
 00003865,0.00065400,-0.00183299,0.00149261,-0.00336271,0.00055983,0.00
 039776,-0.00056573,0.00006233,0.00027951,0.00028343,-0.00010929,-0.000
 03883,-0.00026316,-0.00009832,0.00007233,0.00000315,0.00000612,0.00000
 319,-0.00001203,0.00001013,0.00000136,-0.00000606,-0.00000366,0.000000
 87,-0.00000148,0.00000375,0.00000130,0.00000264,0.14829248,0.00035092,
 0.00086906,-0.00000078,-0.00006905,0.00001461,-0.00025777,0.00001156,-
 0.00002372,0.00004519,0.00344069,0.00509877,0.00084658,-0.00002129,0.0
 0001317,-0.00003775,-0.12291024,-0.21581827,-0.03158359,0.00001193,-0.
 00001167,0.00000338,-0.00030727,0.00056441,-0.00056742,0.00090804,0.00
 126718,0.00149570,-0.00000692,-0.00004793,-0.00065743,0.00018184,0.000
 14357,-0.00011701,0.00000681,-0.00026969,-0.00011592,0.00012846,0.0000
 4761,0.00014682,-0.00000136,0.00000499,0.00001368,0.00001446,0.0000431
 5,-0.00004282,0.00000908,0.00001262,0.00001420,0.00001255,-0.00001774,
 0.00000416,0.13561864,0.23199166,-0.00054937,-0.00171814,0.00163862,0.
 00008630,0.00003467,-0.00014422,0.00008775,0.00000256,0.00001816,-0.01
 565471,-0.02177768,-0.00574076,0.00000566,-0.00000441,-0.00001291,-0.0
 2182796,-0.03131965,-0.05228855,-0.00000079,0.00000504,-0.00000275,0.0
 0064051,0.00034548,0.00085354,-0.00364041,0.00131141,-0.00393996,0.000
 46205,0.00074712,-0.00016738,0.00015644,0.00026239,0.00042231,0.000135
 98,-0.00016763,0.00003355,-0.00003950,0.00017821,0.00019930,-0.0000165
 8,-0.00000271,0.00003081,0.00002706,0.00002934,-0.00004611,-0.00000124
 ,0.00001304,0.00000875,0.00000508,-0.00000573,0.00000081,0.02848002,0.
 03407144,0.05609749,0.00012403,-0.00047268,0.00051226,-0.00031040,0.00
 015043,0.00034959,0.00028068,-0.00023239,0.00004282,-0.01335059,0.0166
 5470,0.00355936,0.00005173,0.00001782,-0.00004452,-0.13716682,0.123636
 29,0.02615669,0.00000170,-0.00001374,-0.00000647,-0.00173702,0.0002938
 9,-0.00400019,0.00039354,-0.00031931,0.00063376,0.00003915,-0.00002671
 ,-0.00003939,0.00002544,-0.00002743,-0.00002506,0.00027311,-0.00019122
 ,0.00132139,-0.00010296,-0.00004575,-0.00025190,-0.00004492,-0.0000117
 3,0.00010985,-0.00003288,-0.00003282,0.00004466,-0.00000662,-0.0000111
 1,-0.00001364,-0.00000272,0.00000470,-0.00000492,0.01242793,-0.0157483
 8,-0.00350788,0.14949958,0.00061847,-0.00038468,-0.00036682,0.00121149
 ,0.00015422,0.00013783,-0.00059050,0.00009019,-0.00017534,0.00187461,-
 0.00329478,-0.00026756,-0.00000409,0.00003287,0.00006662,0.12382284,-0
 .21839851,-0.03542954,-0.00001500,-0.00001012,-0.00000138,0.00019143,0
 .00142341,0.00073420,-0.00010287,0.00079117,0.00046631,0.00003173,0.00
 003377,0.00001466,-0.00014358,0.00012628,0.00014923,-0.00075035,0.0003
 1210,-0.00044525,-0.00013215,-0.00022889,0.00009327,0.00006506,0.00005
 670,-0.00023383,0.00003406,0.00000783,0.00001380,-0.00000680,-0.000004
 28,-0.00000208,-0.00003552,0.00000958,0.00000735,0.01546600,-0.0199638
 7,-0.00453335,-0.13741269,0.23411277,0.00018197,0.00022223,0.00131844,
 0.00065289,0.00010197,-0.00047344,0.00008710,-0.00007542,-0.00001402,-
 0.01585288,0.02230408,0.00537388,0.00002223,-0.00005235,0.00000462,0.0
 2676979,-0.03665783,-0.05432383,-0.00001324,0.00002419,-0.00000621,-0.
 00350677,0.00113148,-0.00412397,0.00084765,-0.00044979,0.00126062,0.00
 002389,-0.00000653,-0.00011515,0.00010778,-0.00029756,0.00011739,0.000
 86196,0.00015527,-0.00210273,-0.00008986,-0.00026215,-0.00002514,-0.00
 004217,0.00000554,0.00009299,-0.00005723,-0.00003471,0.00005473,0.0000
 0274,-0.00000225,-0.00000912,0.00001055,0.00000174,-0.00000776,0.00267
 066,-0.00283092,-0.00201294,-0.02731139,0.03936109,0.05935300,-0.00318
 542,0.00046687,-0.00285398,-0.00065296,0.00024921,-0.00009605,0.000310
 39,-0.00014005,0.00002958,0.01247719,0.00436466,-0.01956334,0.00002229
 ,-0.00000391,-0.00003223,-0.12288394,-0.02431828,0.12050436,0.00000950
 ,-0.00000186,-0.00000025,0.00108813,-0.00007408,0.00080144,0.00064719,
 -0.00039167,0.00084012,-0.00002031,0.00020894,-0.00002180,0.00051755,0
 .00041130,-0.00111104,0.00047402,-0.00016486,0.00016042,0.00005859,-0.
 00001501,0.00003060,-0.00002646,-0.00002207,0.00014951,-0.00002791,0.0
 0000650,-0.00000060,0.00000254,-0.00000018,-0.00000128,0.00002799,-0.0
 0001350,-0.00000541,-0.01032385,-0.00163651,0.01515196,-0.01036132,-0.
 00413418,0.01464616,0.13185255,0.00146791,0.00014144,0.00102873,0.0005
 8086,0.00003743,-0.00005038,-0.00028852,0.00008064,-0.00005577,-0.0030
 7814,-0.00236449,0.00436042,-0.00001328,0.00000282,0.00002675,-0.02396
 062,-0.05448090,0.03660757,-0.00000869,0.00000187,-0.00000060,-0.00031
 427,-0.00003335,0.00008047,0.00029618,0.00011336,-0.00025271,0.0002337
 4,0.00034862,-0.00035306,-0.00011363,0.00023905,0.00060286,-0.00042153
 ,-0.00005255,-0.00024067,-0.00001287,0.00000717,0.00010265,0.00004911,
 0.00002857,-0.00011931,0.00002428,0.00001914,-0.00002766,0.00000010,0.
 00000300,0.00000512,-0.00001528,-0.00000027,0.00000511,-0.01342611,-0.
 00392552,0.02252765,0.01378854,0.00512978,-0.02263382,0.02520769,0.054
 70184,-0.00510077,0.00020635,-0.00249685,-0.00037128,0.00044391,0.0003
 5542,-0.00000280,-0.00014262,-0.00004526,0.01448797,0.00422391,-0.0201
 3443,0.00000167,0.00008364,-0.00002253,0.11925193,0.03680778,-0.233007
 44,0.00002261,-0.00004673,0.00000432,0.00013279,0.00037970,0.00118627,
 0.00011623,-0.00067970,0.00043324,-0.00003229,0.00002447,0.00024017,0.
 00081229,0.00039713,-0.00143231,-0.00003702,-0.00000876,0.00007985,0.0
 0000135,-0.00008009,-0.00002365,0.00004720,-0.00000004,0.00001989,-0.0
 0000241,0.00001612,0.00000401,-0.00000342,-0.00001308,-0.00000348,0.00
 001807,-0.00001317,0.00000397,-0.00319724,-0.00042207,0.00504652,0.002
 47673,0.00042536,-0.00438612,-0.12863640,-0.04161071,0.25420691,-0.000
 02855,0.00004365,-0.00012394,0.00021989,-0.00017386,0.00024726,0.00142
 374,-0.00046948,0.00024395,0.00001504,-0.00003496,-0.00000195,0.010466
 16,-0.00107170,0.01037906,0.00000721,-0.00000108,-0.00000123,-0.185862
 70,0.02182408,-0.13199611,0.00001237,-0.00000244,-0.00001725,-0.000001
 39,0.00000479,0.00000117,-0.00000068,-0.00000509,-0.00000333,-0.000013
 56,0.00002172,0.00000849,-0.00017709,0.00004088,-0.00000422,0.00000021
 ,-0.00000353,-0.00000907,-0.00002043,-0.00018338,-0.00043618,-0.000066
 93,0.00008943,-0.00009947,0.00076214,0.00029101,-0.00081036,-0.0001587
 7,-0.00044013,0.00331583,-0.00000193,0.00000106,0.00000233,-0.00000070
 ,-0.00000197,0.00000397,0.00000103,0.00000167,-0.00000670,0.19977705,-
 0.00003375,-0.00001696,-0.00002783,0.00004014,-0.00004183,-0.00009006,
 -0.00034284,0.00009892,-0.00075020,0.00001329,0.00001310,-0.00000163,0
 .00692426,-0.00182548,0.00690114,-0.00000623,-0.00001008,0.00000651,0.
 02166370,-0.05103661,0.01986475,-0.00000545,0.00000230,0.00000616,-0.0
 0000216,-0.00000667,0.00000220,-0.00000030,-0.00000129,-0.00000449,0.0
 0000675,0.00001275,0.00000946,0.00003121,-0.00004249,-0.00004608,-0.00
 001804,-0.00004423,0.00003602,-0.00002209,0.00033738,-0.00010110,-0.00
 011868,-0.00001335,-0.00003028,0.00053757,-0.00003532,-0.00019376,-0.0
 0097020,0.00032984,0.00175832,0.00000024,0.00000033,-0.00000265,0.0000
 0149,0.00000458,-0.00000433,-0.00000189,0.00000115,0.00000768,-0.02342
 478,0.05063250,0.00007433,0.00000452,0.00004671,0.00038466,0.00001089,
 0.00010700,-0.00187380,0.00047342,0.00112158,0.00000593,-0.00001026,0.
 00000652,-0.02173973,0.00323809,-0.02202445,-0.00001617,0.00001238,0.0
 0000251,-0.13100085,0.01988009,-0.17011554,0.00000648,-0.00000407,-0.0
 0000669,-0.00000051,0.00000563,-0.00000060,-0.00000371,-0.00000310,-0.
 00000345,0.00006393,-0.00004128,-0.00001794,0.00001952,-0.00005324,0.0
 0036842,-0.00003065,0.00002248,-0.00001898,0.00104879,-0.00055700,0.00
 003868,0.00006391,-0.00004939,-0.00004670,0.00006172,0.00010861,0.0012
 9342,0.00343016,0.00164621,-0.00453428,0.00000053,0.00000478,0.0000031
 7,-0.00000149,-0.00001064,0.00000410,0.00000681,-0.00000230,0.00000019
 ,0.14265945,-0.02420565,0.18805647,0.00000573,0.00002257,0.00002032,0.
 00004080,0.00027432,0.00018398,0.00028124,-0.00099097,-0.00099663,-0.0
 0000070,0.00000666,0.00000355,-0.00730899,-0.01104071,-0.00086866,0.00
 000673,-0.00000717,-0.00000380,-0.11414048,-0.11406961,-0.01147764,-0.
 00000357,-0.00000137,0.00000036,0.00000796,0.00000492,-0.00000741,-0.0
 0000716,0.00003766,0.00003317,-0.00001453,-0.00000464,-0.00000046,-0.0
 0000744,-0.00001114,-0.00004333,0.00012337,0.00013629,-0.00014569,-0.0
 0008197,-0.00004381,-0.00001314,-0.00009862,0.00055495,0.00048402,0.00
 005571,-0.00023709,0.00268174,0.00060309,0.00059986,0.00003122,0.00000
 148,0.00000236,0.00000318,-0.00000249,0.00000305,0.00000008,-0.0000006
 4,0.00000178,-0.00000280,-0.01180252,-0.02069784,-0.00126534,0.1207186
 3,-0.00000684,-0.00003495,0.00006299,0.00017672,0.00037817,0.00003397,
 0.00068860,0.00084428,-0.00042005,-0.00001073,0.00002574,-0.00000958,-
 0.00411543,-0.00800768,-0.00008666,-0.00000656,-0.00001445,0.00000240,
 -0.11436684,-0.24482470,-0.01922226,-0.00001414,0.00000210,0.00001796,
 0.00000615,-0.00000271,0.00000133,-0.00000856,0.00001796,0.00001404,-0
 .00000176,-0.00000031,-0.00000312,-0.00000400,-0.00003654,0.00002261,0
 .00013036,-0.00003070,-0.00017869,-0.00001614,-0.00002509,0.00010262,-
 0.00049843,0.00054517,0.00020820,-0.00006637,0.00092961,0.00183637,0.0
 0028899,0.00005810,0.00023595,0.00000349,0.00000833,-0.00000007,-0.000
 00367,0.00000360,-0.00000709,-0.00000188,0.00000138,0.00000957,0.00257
 915,0.00417112,-0.00011013,0.12708313,0.26500371,-0.00007951,-0.000115
 03,0.00002132,-0.00005675,0.00007817,-0.00012587,-0.00068279,0.0012738
 8,0.00155538,-0.00001712,0.00001951,0.00000863,0.01664967,0.02737427,0
 .00188003,-0.00000361,0.00000713,0.00000255,-0.01197182,-0.01999277,-0
 .04825120,-0.00000346,-0.00000014,0.00000733,-0.00000751,-0.00000018,0
 .00000256,0.00003442,-0.00004642,-0.00002262,0.00000217,-0.00000221,-0
 .00000329,-0.00000592,0.00004253,-0.00001355,-0.00015549,-0.00019172,0
 .00005904,-0.00000174,-0.00017188,-0.00002361,-0.00013124,-0.00076765,
 -0.00007907,0.00291431,0.00137506,-0.00533078,-0.00077667,-0.00016710,
 0.00135029,0.00000085,-0.00000619,-0.00000305,0.00000373,0.00000211,0.
 00000137,-0.00000151,-0.00000176,0.00000084,-0.00989982,-0.02001599,-0
 .00209005,0.01001278,0.01932692,0.05296672,-0.00005228,-0.00025192,0.0
 0028610,-0.00004795,0.00106018,0.00004992,-0.00021658,-0.00200142,0.00
 270283,-0.00004803,0.00013535,-0.00001713,-0.00831810,0.00862559,0.002
 37270,-0.00002530,-0.00001419,0.00000519,-0.15512183,0.12051206,0.0538
 5093,-0.00003797,-0.00000258,0.00005922,0.00000033,-0.00001506,-0.0000
 0046,0.00001266,0.00001335,0.00000491,0.00000129,-0.00000072,-0.000020
 23,-0.00000312,-0.00001793,0.00010556,-0.00003105,-0.00004167,-0.00006
 013,0.00046621,-0.00030483,-0.00006715,0.00008258,0.00025584,0.0000250
 2,-0.00015188,-0.00010001,-0.00038867,0.00064324,-0.00026773,-0.000026
 89,0.00000655,0.00000260,-0.00000589,0.00000253,0.00001094,-0.00001589
 ,-0.00000615,0.00000108,0.00002429,-0.01454960,0.01642561,0.00810603,0
 .01162438,-0.01183526,-0.00582297,0.16577006,-0.00007035,-0.00004456,0
 .00014745,-0.00020499,0.00054600,0.00039466,-0.00053749,-0.00013998,0.
 00125648,-0.00003100,0.00002604,0.00002158,-0.00772542,0.00757910,0.00
 339226,0.00000352,0.00000540,-0.00000770,0.12110944,-0.18254005,-0.061
 03634,-0.00000521,-0.00000652,0.00000300,-0.00000272,0.00000298,-0.000
 00278,0.00001122,-0.00000394,0.00000672,-0.00000282,-0.00000997,-0.000
 00494,0.00000727,0.00000796,-0.00002891,0.00004083,0.00002183,-0.00010
 888,-0.00007816,-0.00010954,0.00004389,-0.00001662,0.00041117,0.000287
 32,0.00015593,0.00056314,-0.00067784,0.00023863,0.00021552,-0.00071562
 ,-0.00000108,-0.00000105,0.00000367,0.00000177,-0.00000371,0.00000714,
 0.00000474,-0.00000017,-0.00000867,0.00091496,-0.00252966,-0.00036004,
 0.01837679,-0.01901214,-0.00802053,-0.13218924,0.19502219,0.00014964,0
 .00043947,-0.00060485,0.00124915,-0.00162715,0.00014979,0.00126618,0.0
 0360636,-0.00529870,0.00011021,-0.00024462,0.00000431,0.01837216,-0.02
 271756,-0.00864869,0.00003476,0.00001125,-0.00000152,0.05324832,-0.060
 05091,-0.07367214,0.00006145,0.00000568,-0.00010308,-0.00000486,0.0000
 1733,0.00000368,-0.00002466,-0.00002251,-0.00000135,0.00000555,0.00001
 632,0.00002749,-0.00011378,-0.00003374,0.00001794,0.00006727,0.0000671
 4,0.00000428,0.00027463,0.00004996,0.00019286,-0.00027736,0.00020873,0
 .00005556,-0.00029995,0.00029292,0.00124225,-0.00086042,-0.00046045,0.
 00078893,-0.00000861,-0.00000626,0.00000560,-0.00000398,-0.00000604,0.
 00001932,0.00000294,0.00000142,-0.00002953,-0.01345187,0.01688182,0.00
 780992,0.00137049,-0.00183726,-0.00191299,-0.06116728,0.06540808,0.079
 95091\\0.00000089,0.00000070,0.00000033,-0.00000036,0.00000035,-0.0000
 0032,0.00000041,0.00000033,-0.00000001,0.00000013,0.00000093,0.0000004
 4,-0.00000095,-0.00000041,-0.00000051,0.00000012,-0.00000149,-0.000000
 08,-0.00000033,-0.00000003,-0.00000041,0.00000127,0.00000127,0.0000006
 6,-0.00000070,0.00000154,-0.00000034,0.00000205,0.00000008,0.00000123,
 0.00000132,0.00000223,0.00000081,-0.00000046,-0.00000128,-0.00000006,-
 0.00000121,0.00000065,-0.00000094,0.00000045,0.00000182,0.00000024,0.0
 0000130,-0.00000026,0.00000092,-0.00000202,0.00000032,-0.00000125,-0.0
 0000115,-0.00000175,-0.00000061,0.00000109,-0.00000183,0.00000087,-0.0
 0000084,-0.00000201,-0.00000044,-0.00000015,-0.00000123,-0.00000005,-0
 .00000018,0.00000139,-0.00000019,0.00000063,-0.00000079,0.00000045,-0.
 00000132,-0.00000051,-0.00000075\\\@


 THE FIRST MORNING OF CREATION WROTE WHAT THE LAST DAWN OF
 RECKONING SHALL READ. -- OMAR KHAYYAM
 Job cpu time:       0 days  4 hours 55 minutes 55.1 seconds.
 Elapsed time:       0 days  2 hours 27 minutes 59.0 seconds.
 File lengths (MBytes):  RWF=   1488 Int=      0 D2E=      0 Chk=     32 Scr=     32
 Normal termination of Gaussian 16 at Sun Sep 29 22:58:38 2019.
