 Entering Gaussian System, Link 0=g16
 Input=med/species/CCCCCCC/conformers/CCCCCCC_346.com
 Output=med/species/CCCCCCC/conformers/CCCCCCC_346.log
 Initial command:
 /shared/centos7/gaussian/g16/l1.exe "/scratch/harms.n/gauss_scrdir/Gau-29199.inp" -scrdir="/scratch/harms.n/gauss_scrdir/"
 Entering Link 1 = /shared/centos7/gaussian/g16/l1.exe PID=     29200.
  
 Copyright (c) 1988,1990,1992,1993,1995,1998,2003,2009,2016,
            Gaussian, Inc.  All Rights Reserved.
  
 This is part of the Gaussian(R) 16 program.  It is based on
 the Gaussian(R) 09 system (copyright 2009, Gaussian, Inc.),
 the Gaussian(R) 03 system (copyright 2003, Gaussian, Inc.),
 the Gaussian(R) 98 system (copyright 1998, Gaussian, Inc.),
 the Gaussian(R) 94 system (copyright 1995, Gaussian, Inc.),
 the Gaussian 92(TM) system (copyright 1992, Gaussian, Inc.),
 the Gaussian 90(TM) system (copyright 1990, Gaussian, Inc.),
 the Gaussian 88(TM) system (copyright 1988, Gaussian, Inc.),
 the Gaussian 86(TM) system (copyright 1986, Carnegie Mellon
 University), and the Gaussian 82(TM) system (copyright 1983,
 Carnegie Mellon University). Gaussian is a federally registered
 trademark of Gaussian, Inc.
  
 This software contains proprietary and confidential information,
 including trade secrets, belonging to Gaussian, Inc.
  
 This software is provided under written license and may be
 used, copied, transmitted, or stored only in accord with that
 written license.
  
 The following legend is applicable only to US Government
 contracts under FAR:
  
                    RESTRICTED RIGHTS LEGEND
  
 Use, reproduction and disclosure by the US Government is
 subject to restrictions as set forth in subparagraphs (a)
 and (c) of the Commercial Computer Software - Restricted
 Rights clause in FAR 52.227-19.
  
 Gaussian, Inc.
 340 Quinnipiac St., Bldg. 40, Wallingford CT 06492
  
  
 ---------------------------------------------------------------
 Warning -- This program may not be used in any manner that
 competes with the business of Gaussian, Inc. or will provide
 assistance to any competitor of Gaussian, Inc.  The licensee
 of this program is prohibited from giving any competitor of
 Gaussian, Inc. access to this program.  By using this program,
 the user acknowledges that Gaussian, Inc. is engaged in the
 business of creating and licensing software in the field of
 computational chemistry and represents and warrants to the
 licensee that it is not a competitor of Gaussian, Inc. and that
 it will not use this program in any manner prohibited above.
 ---------------------------------------------------------------
  

 Cite this work as:
 Gaussian 16, Revision A.03,
 M. J. Frisch, G. W. Trucks, H. B. Schlegel, G. E. Scuseria, 
 M. A. Robb, J. R. Cheeseman, G. Scalmani, V. Barone, 
 G. A. Petersson, H. Nakatsuji, X. Li, M. Caricato, A. V. Marenich, 
 J. Bloino, B. G. Janesko, R. Gomperts, B. Mennucci, H. P. Hratchian, 
 J. V. Ortiz, A. F. Izmaylov, J. L. Sonnenberg, D. Williams-Young, 
 F. Ding, F. Lipparini, F. Egidi, J. Goings, B. Peng, A. Petrone, 
 T. Henderson, D. Ranasinghe, V. G. Zakrzewski, J. Gao, N. Rega, 
 G. Zheng, W. Liang, M. Hada, M. Ehara, K. Toyota, R. Fukuda, 
 J. Hasegawa, M. Ishida, T. Nakajima, Y. Honda, O. Kitao, H. Nakai, 
 T. Vreven, K. Throssell, J. A. Montgomery, Jr., J. E. Peralta, 
 F. Ogliaro, M. J. Bearpark, J. J. Heyd, E. N. Brothers, K. N. Kudin, 
 V. N. Staroverov, T. A. Keith, R. Kobayashi, J. Normand, 
 K. Raghavachari, A. P. Rendell, J. C. Burant, S. S. Iyengar, 
 J. Tomasi, M. Cossi, J. M. Millam, M. Klene, C. Adamo, R. Cammi, 
 J. W. Ochterski, R. L. Martin, K. Morokuma, O. Farkas, 
 J. B. Foresman, and D. J. Fox, Gaussian, Inc., Wallingford CT, 2016.
 
 ******************************************
 Gaussian 16:  EM64L-G16RevA.03 25-Dec-2016
                27-Sep-2019 
 ******************************************
 %nprocshared=20
 Will use up to   20 processors via shared memory.
 %mem=5GB
 ----------------------------------------------------------------------
 #p m062x/cc-pVTZ opt=(calcfc,maxcycles=900,Tight) freq IOP(7/33=1,2/16
 =3) scf=(maxcycle=900)
 ----------------------------------------------------------------------
 1/6=900,7=10,10=4,18=20,19=15,26=3,38=1/1,3;
 2/9=110,12=2,16=3,17=6,18=5,40=1/2;
 3/5=16,6=1,11=2,25=1,30=1,71=2,74=-55,140=1/1,2,3;
 4//1;
 5/5=2,7=900,38=5/2;
 8/6=4,10=90,11=11/1;
 11/6=1,8=1,9=11,15=111,16=1/1,2,10;
 10/6=1,13=1/2;
 6/7=2,8=2,9=2,10=2,28=1/1;
 7/10=1,18=20,25=1,33=1/1,2,3,16;
 1/6=900,7=10,10=4,18=20,19=15,26=3/3(2);
 2/9=110,16=3/2;
 99//99;
 2/9=110,16=3/2;
 3/5=16,6=1,11=2,25=1,30=1,71=1,74=-55/1,2,3;
 4/5=5,16=3,69=1/1;
 5/5=2,7=900,38=5/2;
 7/33=1/1,2,3,16;
 1/6=900,7=10,18=20,19=15,26=3/3(-5);
 2/9=110,16=3/2;
 6/7=2,8=2,9=2,10=2,19=2,28=1/1;
 99/9=1/99;
 Leave Link    1 at Fri Sep 27 14:02:02 2019, MaxMem=   671088640 cpu:               3.9 elap:               1.9
 (Enter /shared/centos7/gaussian/g16/l101.exe)
 ------------------------------
 Gaussian input prepared by ASE
 ------------------------------
 Symbolic Z-matrix:
 Charge =  0 Multiplicity = 1
 C                     1.36173  -1.15732   0.50538 
 C                     0.13525  -0.42853   0.9373 
 C                    -0.65025  -1.13155   2.01606 
 C                     2.14665  -0.48334  -0.56918 
 C                    -0.73446  -0.29835   3.2732 
 C                     1.4563   -0.30368  -1.85786 
 C                     0.61849   0.03105   3.84847 
 H                     3.08359  -1.08834  -0.7281 
 H                     2.50021   0.50287  -0.18428 
 H                     1.0931   -2.18464   0.17974 
 H                     2.02512  -1.2892    1.38468 
 H                    -0.50851  -0.22898   0.06641 
 H                     0.44492   0.56888   1.31484 
 H                    -0.20737  -2.11488   2.24853 
 H                    -1.67916  -1.35009   1.6629 
 H                    -1.26854   0.65524   3.02232 
 H                    -1.35308  -0.80455   4.03368 
 H                     0.42759  -0.71057  -1.84885 
 H                     1.38862   0.79074  -2.13212 
 H                     2.00491  -0.80446  -2.68353 
 H                     1.36488   0.1419    3.06095 
 H                     0.98148  -0.77567   4.54366 
 H                     0.59312   0.99689   4.4302 
 
 ITRead=  0  0  0  0  0  0  0  0  0  0  0  0  0  0  0  0  0  0  0  0
 ITRead=  0  0  0
 MicOpt= -1 -1 -1 -1 -1 -1 -1 -1 -1 -1 -1 -1 -1 -1 -1 -1 -1 -1 -1 -1
 MicOpt= -1 -1 -1
 NAtoms=     23 NQM=       23 NQMF=       0 NMMI=      0 NMMIF=      0
                NMic=       0 NMicF=      0.
                    Isotopes and Nuclear Properties:
 (Nuclear quadrupole moments (NQMom) in fm**2, nuclear magnetic moments (NMagM)
  in nuclear magnetons)

  Atom         1           2           3           4           5           6           7           8           9          10
 IAtWgt=          12          12          12          12          12          12          12           1           1           1
 AtmWgt=  12.0000000  12.0000000  12.0000000  12.0000000  12.0000000  12.0000000  12.0000000   1.0078250   1.0078250   1.0078250
 NucSpn=           0           0           0           0           0           0           0           1           1           1
 AtZEff=  -0.0000000  -0.0000000  -0.0000000  -0.0000000  -0.0000000  -0.0000000  -0.0000000  -0.0000000  -0.0000000  -0.0000000
 NQMom=    0.0000000   0.0000000   0.0000000   0.0000000   0.0000000   0.0000000   0.0000000   0.0000000   0.0000000   0.0000000
 NMagM=    0.0000000   0.0000000   0.0000000   0.0000000   0.0000000   0.0000000   0.0000000   2.7928460   2.7928460   2.7928460
 AtZNuc=   6.0000000   6.0000000   6.0000000   6.0000000   6.0000000   6.0000000   6.0000000   1.0000000   1.0000000   1.0000000

  Atom        11          12          13          14          15          16          17          18          19          20
 IAtWgt=           1           1           1           1           1           1           1           1           1           1
 AtmWgt=   1.0078250   1.0078250   1.0078250   1.0078250   1.0078250   1.0078250   1.0078250   1.0078250   1.0078250   1.0078250
 NucSpn=           1           1           1           1           1           1           1           1           1           1
 AtZEff=  -0.0000000  -0.0000000  -0.0000000  -0.0000000  -0.0000000  -0.0000000  -0.0000000  -0.0000000  -0.0000000  -0.0000000
 NQMom=    0.0000000   0.0000000   0.0000000   0.0000000   0.0000000   0.0000000   0.0000000   0.0000000   0.0000000   0.0000000
 NMagM=    2.7928460   2.7928460   2.7928460   2.7928460   2.7928460   2.7928460   2.7928460   2.7928460   2.7928460   2.7928460
 AtZNuc=   1.0000000   1.0000000   1.0000000   1.0000000   1.0000000   1.0000000   1.0000000   1.0000000   1.0000000   1.0000000

  Atom        21          22          23
 IAtWgt=           1           1           1
 AtmWgt=   1.0078250   1.0078250   1.0078250
 NucSpn=           1           1           1
 AtZEff=  -0.0000000  -0.0000000  -0.0000000
 NQMom=    0.0000000   0.0000000   0.0000000
 NMagM=    2.7928460   2.7928460   2.7928460
 AtZNuc=   1.0000000   1.0000000   1.0000000
 Leave Link  101 at Fri Sep 27 14:02:03 2019, MaxMem=   671088640 cpu:               2.1 elap:               1.1
 (Enter /shared/centos7/gaussian/g16/l103.exe)

 GradGradGradGradGradGradGradGradGradGradGradGradGradGradGradGradGradGrad
 Berny optimization.
 Initialization pass.
                           ----------------------------
                           !    Initial Parameters    !
                           ! (Angstroms and Degrees)  !
 --------------------------                            --------------------------
 ! Name  Definition              Value          Derivative Info.                !
 --------------------------------------------------------------------------------
 ! R1    R(1,2)                  1.4906         calculate D2E/DX2 analytically  !
 ! R2    R(1,4)                  1.4917         calculate D2E/DX2 analytically  !
 ! R3    R(1,10)                 1.1107         calculate D2E/DX2 analytically  !
 ! R4    R(1,11)                 1.1093         calculate D2E/DX2 analytically  !
 ! R5    R(2,3)                  1.5083         calculate D2E/DX2 analytically  !
 ! R6    R(2,12)                 1.1012         calculate D2E/DX2 analytically  !
 ! R7    R(2,13)                 1.1105         calculate D2E/DX2 analytically  !
 ! R8    R(3,5)                  1.5105         calculate D2E/DX2 analytically  !
 ! R9    R(3,14)                 1.1032         calculate D2E/DX2 analytically  !
 ! R10   R(3,15)                 1.1096         calculate D2E/DX2 analytically  !
 ! R11   R(4,6)                  1.473          calculate D2E/DX2 analytically  !
 ! R12   R(4,8)                  1.1266         calculate D2E/DX2 analytically  !
 ! R13   R(4,9)                  1.1161         calculate D2E/DX2 analytically  !
 ! R14   R(5,7)                  1.5066         calculate D2E/DX2 analytically  !
 ! R15   R(5,16)                 1.1214         calculate D2E/DX2 analytically  !
 ! R16   R(5,17)                 1.1033         calculate D2E/DX2 analytically  !
 ! R17   R(6,18)                 1.1063         calculate D2E/DX2 analytically  !
 ! R18   R(6,19)                 1.1303         calculate D2E/DX2 analytically  !
 ! R19   R(6,20)                 1.1106         calculate D2E/DX2 analytically  !
 ! R20   R(7,21)                 1.0907         calculate D2E/DX2 analytically  !
 ! R21   R(7,22)                 1.1251         calculate D2E/DX2 analytically  !
 ! R22   R(7,23)                 1.1278         calculate D2E/DX2 analytically  !
 ! A1    A(2,1,4)              114.8843         calculate D2E/DX2 analytically  !
 ! A2    A(2,1,10)             109.7659         calculate D2E/DX2 analytically  !
 ! A3    A(2,1,11)             108.6923         calculate D2E/DX2 analytically  !
 ! A4    A(4,1,10)             109.5108         calculate D2E/DX2 analytically  !
 ! A5    A(4,1,11)             108.0613         calculate D2E/DX2 analytically  !
 ! A6    A(10,1,11)            105.4905         calculate D2E/DX2 analytically  !
 ! A7    A(1,2,3)              114.0697         calculate D2E/DX2 analytically  !
 ! A8    A(1,2,12)             109.9036         calculate D2E/DX2 analytically  !
 ! A9    A(1,2,13)             107.95           calculate D2E/DX2 analytically  !
 ! A10   A(3,2,12)             110.2212         calculate D2E/DX2 analytically  !
 ! A11   A(3,2,13)             108.7051         calculate D2E/DX2 analytically  !
 ! A12   A(12,2,13)            105.6123         calculate D2E/DX2 analytically  !
 ! A13   A(2,3,5)              111.5412         calculate D2E/DX2 analytically  !
 ! A14   A(2,3,14)             110.9217         calculate D2E/DX2 analytically  !
 ! A15   A(2,3,15)             110.3089         calculate D2E/DX2 analytically  !
 ! A16   A(5,3,14)             109.7948         calculate D2E/DX2 analytically  !
 ! A17   A(5,3,15)             108.7742         calculate D2E/DX2 analytically  !
 ! A18   A(14,3,15)            105.2944         calculate D2E/DX2 analytically  !
 ! A19   A(1,4,6)              116.024          calculate D2E/DX2 analytically  !
 ! A20   A(1,4,8)              107.2543         calculate D2E/DX2 analytically  !
 ! A21   A(1,4,9)              108.5123         calculate D2E/DX2 analytically  !
 ! A22   A(6,4,8)              109.3832         calculate D2E/DX2 analytically  !
 ! A23   A(6,4,9)              110.0227         calculate D2E/DX2 analytically  !
 ! A24   A(8,4,9)              105.0528         calculate D2E/DX2 analytically  !
 ! A25   A(3,5,7)              112.8497         calculate D2E/DX2 analytically  !
 ! A26   A(3,5,16)             108.024          calculate D2E/DX2 analytically  !
 ! A27   A(3,5,17)             110.5999         calculate D2E/DX2 analytically  !
 ! A28   A(7,5,16)             109.0979         calculate D2E/DX2 analytically  !
 ! A29   A(7,5,17)             109.9152         calculate D2E/DX2 analytically  !
 ! A30   A(16,5,17)            106.1005         calculate D2E/DX2 analytically  !
 ! A31   A(4,6,18)             112.5709         calculate D2E/DX2 analytically  !
 ! A32   A(4,6,19)             111.0054         calculate D2E/DX2 analytically  !
 ! A33   A(4,6,20)             111.3405         calculate D2E/DX2 analytically  !
 ! A34   A(18,6,19)            107.6036         calculate D2E/DX2 analytically  !
 ! A35   A(18,6,20)            107.43           calculate D2E/DX2 analytically  !
 ! A36   A(19,6,20)            106.6058         calculate D2E/DX2 analytically  !
 ! A37   A(5,7,21)             111.1646         calculate D2E/DX2 analytically  !
 ! A38   A(5,7,22)             111.6464         calculate D2E/DX2 analytically  !
 ! A39   A(5,7,23)             111.3459         calculate D2E/DX2 analytically  !
 ! A40   A(21,7,22)            107.3517         calculate D2E/DX2 analytically  !
 ! A41   A(21,7,23)            107.506          calculate D2E/DX2 analytically  !
 ! A42   A(22,7,23)            107.614          calculate D2E/DX2 analytically  !
 ! D1    D(4,1,2,3)            179.5222         calculate D2E/DX2 analytically  !
 ! D2    D(4,1,2,12)            55.1657         calculate D2E/DX2 analytically  !
 ! D3    D(4,1,2,13)           -59.5528         calculate D2E/DX2 analytically  !
 ! D4    D(10,1,2,3)            55.6115         calculate D2E/DX2 analytically  !
 ! D5    D(10,1,2,12)          -68.745          calculate D2E/DX2 analytically  !
 ! D6    D(10,1,2,13)          176.5365         calculate D2E/DX2 analytically  !
 ! D7    D(11,1,2,3)           -59.2978         calculate D2E/DX2 analytically  !
 ! D8    D(11,1,2,12)          176.3458         calculate D2E/DX2 analytically  !
 ! D9    D(11,1,2,13)           61.6273         calculate D2E/DX2 analytically  !
 ! D10   D(2,1,4,6)            -62.502          calculate D2E/DX2 analytically  !
 ! D11   D(2,1,4,8)            174.9245         calculate D2E/DX2 analytically  !
 ! D12   D(2,1,4,9)             61.9212         calculate D2E/DX2 analytically  !
 ! D13   D(10,1,4,6)            61.5438         calculate D2E/DX2 analytically  !
 ! D14   D(10,1,4,8)           -61.0297         calculate D2E/DX2 analytically  !
 ! D15   D(10,1,4,9)          -174.033          calculate D2E/DX2 analytically  !
 ! D16   D(11,1,4,6)           175.9739         calculate D2E/DX2 analytically  !
 ! D17   D(11,1,4,8)            53.4004         calculate D2E/DX2 analytically  !
 ! D18   D(11,1,4,9)           -59.603          calculate D2E/DX2 analytically  !
 ! D19   D(1,2,3,5)            118.6317         calculate D2E/DX2 analytically  !
 ! D20   D(1,2,3,14)            -4.0989         calculate D2E/DX2 analytically  !
 ! D21   D(1,2,3,15)          -120.3688         calculate D2E/DX2 analytically  !
 ! D22   D(12,2,3,5)          -117.1821         calculate D2E/DX2 analytically  !
 ! D23   D(12,2,3,14)          120.0874         calculate D2E/DX2 analytically  !
 ! D24   D(12,2,3,15)            3.8174         calculate D2E/DX2 analytically  !
 ! D25   D(13,2,3,5)            -1.8723         calculate D2E/DX2 analytically  !
 ! D26   D(13,2,3,14)         -124.6029         calculate D2E/DX2 analytically  !
 ! D27   D(13,2,3,15)          119.1272         calculate D2E/DX2 analytically  !
 ! D28   D(2,3,5,7)            -59.1881         calculate D2E/DX2 analytically  !
 ! D29   D(2,3,5,16)            61.5076         calculate D2E/DX2 analytically  !
 ! D30   D(2,3,5,17)           177.2202         calculate D2E/DX2 analytically  !
 ! D31   D(14,3,5,7)            64.1851         calculate D2E/DX2 analytically  !
 ! D32   D(14,3,5,16)         -175.1192         calculate D2E/DX2 analytically  !
 ! D33   D(14,3,5,17)          -59.4066         calculate D2E/DX2 analytically  !
 ! D34   D(15,3,5,7)           178.9215         calculate D2E/DX2 analytically  !
 ! D35   D(15,3,5,16)          -60.3828         calculate D2E/DX2 analytically  !
 ! D36   D(15,3,5,17)           55.3298         calculate D2E/DX2 analytically  !
 ! D37   D(1,4,6,18)            -0.3716         calculate D2E/DX2 analytically  !
 ! D38   D(1,4,6,19)           120.3211         calculate D2E/DX2 analytically  !
 ! D39   D(1,4,6,20)          -121.0797         calculate D2E/DX2 analytically  !
 ! D40   D(8,4,6,18)           121.0743         calculate D2E/DX2 analytically  !
 ! D41   D(8,4,6,19)          -118.233          calculate D2E/DX2 analytically  !
 ! D42   D(8,4,6,20)             0.3662         calculate D2E/DX2 analytically  !
 ! D43   D(9,4,6,18)          -124.0129         calculate D2E/DX2 analytically  !
 ! D44   D(9,4,6,19)            -3.3202         calculate D2E/DX2 analytically  !
 ! D45   D(9,4,6,20)           115.279          calculate D2E/DX2 analytically  !
 ! D46   D(3,5,7,21)            32.6934         calculate D2E/DX2 analytically  !
 ! D47   D(3,5,7,22)           -87.1562         calculate D2E/DX2 analytically  !
 ! D48   D(3,5,7,23)           152.5365         calculate D2E/DX2 analytically  !
 ! D49   D(16,5,7,21)          -87.3873         calculate D2E/DX2 analytically  !
 ! D50   D(16,5,7,22)          152.7631         calculate D2E/DX2 analytically  !
 ! D51   D(16,5,7,23)           32.4558         calculate D2E/DX2 analytically  !
 ! D52   D(17,5,7,21)          156.6629         calculate D2E/DX2 analytically  !
 ! D53   D(17,5,7,22)           36.8133         calculate D2E/DX2 analytically  !
 ! D54   D(17,5,7,23)          -83.494          calculate D2E/DX2 analytically  !
 --------------------------------------------------------------------------------
 Trust Radius=3.00D-01 FncErr=1.00D-07 GrdErr=1.00D-06 EigMax=2.50D+02 EigMin=1.00D-04
 Number of steps in this run=    138 maximum allowed number of steps=    138.
 GradGradGradGradGradGradGradGradGradGradGradGradGradGradGradGradGradGrad

 Leave Link  103 at Fri Sep 27 14:02:03 2019, MaxMem=   671088640 cpu:               1.5 elap:               0.8
 (Enter /shared/centos7/gaussian/g16/l202.exe)
                          Input orientation:                          
 ---------------------------------------------------------------------
 Center     Atomic      Atomic             Coordinates (Angstroms)
 Number     Number       Type             X           Y           Z
 ---------------------------------------------------------------------
      1          6           0        1.361730   -1.157324    0.505381
      2          6           0        0.135245   -0.428526    0.937298
      3          6           0       -0.650251   -1.131553    2.016061
      4          6           0        2.146653   -0.483343   -0.569175
      5          6           0       -0.734460   -0.298354    3.273197
      6          6           0        1.456299   -0.303676   -1.857864
      7          6           0        0.618490    0.031053    3.848473
      8          1           0        3.083594   -1.088339   -0.728097
      9          1           0        2.500212    0.502866   -0.184283
     10          1           0        1.093099   -2.184637    0.179738
     11          1           0        2.025118   -1.289197    1.384682
     12          1           0       -0.508507   -0.228977    0.066408
     13          1           0        0.444919    0.568880    1.314842
     14          1           0       -0.207367   -2.114881    2.248533
     15          1           0       -1.679164   -1.350090    1.662898
     16          1           0       -1.268537    0.655240    3.022317
     17          1           0       -1.353075   -0.804553    4.033683
     18          1           0        0.427594   -0.710569   -1.848852
     19          1           0        1.388624    0.790738   -2.132116
     20          1           0        2.004913   -0.804460   -2.683534
     21          1           0        1.364875    0.141899    3.060945
     22          1           0        0.981478   -0.775675    4.543663
     23          1           0        0.593121    0.996887    4.430201
 ---------------------------------------------------------------------
                    Distance matrix (angstroms):
                    1          2          3          4          5
     1  C    0.000000
     2  C    1.490625   0.000000
     3  C    2.516125   1.508304   0.000000
     4  C    1.491652   2.513608   3.863456   0.000000
     5  C    3.576681   2.495948   1.510531   4.806127   0.000000
     6  C    2.514476   3.094140   4.486673   1.472952   5.579180
     7  C    3.625039   2.986583   2.513780   4.702712   1.506627
     8  H    2.119208   3.449877   4.633990   1.126559   5.586767
     9  H    2.127912   2.778219   4.175914   1.116134   4.802002
    10  H    1.110665   2.138996   2.742323   2.136644   4.058020
    11  H    1.109344   2.124271   2.753378   2.117009   3.487626
    12  H    2.133615   1.101220   2.153110   2.741996   3.215488
    13  H    2.115549   1.110520   2.140696   2.748197   2.445033
    14  H    2.533290   2.163450   1.103233   4.017811   2.151170
    15  H    3.259454   2.160522   1.109570   4.513344   2.142820
    16  H    4.066775   2.737236   2.141835   5.085146   1.121392
    17  H    4.465818   3.456023   2.161409   5.791164   1.103295
    18  H    2.571889   2.815608   4.034418   2.155080   5.268366
    19  H    3.279034   3.532544   5.005955   2.154222   5.908555
    20  H    3.272213   4.092359   5.407687   2.143296   6.575938
    21  H    2.866862   2.519376   2.602729   3.765618   2.155478
    22  H    4.074060   3.720550   3.029515   5.252067   2.187776
    23  H    4.542642   3.800240   3.450261   5.440432   2.186042
                    6          7          8          9         10
     6  C    0.000000
     7  C    5.777219   0.000000
     8  H    2.130765   5.317403   0.000000
     9  H    2.130995   4.475110   1.779889   0.000000
    10  H    2.796739   4.312094   2.447059   3.055348   0.000000
    11  H    3.436410   3.129207   2.371613   2.428756   1.767020
    12  H    2.751158   3.954966   3.777953   3.106579   2.530334
    13  H    3.442428   2.595895   3.725933   2.544791   3.048024
    14  H    4.786518   2.801229   4.554617   4.483546   2.444584
    15  H    4.829273   3.458831   5.335656   4.930792   3.252948
    16  H    5.671016   2.152443   6.003892   4.950653   4.660738
    17  H    6.546281   2.149328   6.514531   5.860751   4.768784
    18  H    1.106291   5.748561   2.907428   2.922150   2.594407
    19  H    1.130281   6.077637   2.893981   2.261095   3.779532
    20  H    1.110627   6.729589   2.251193   2.863683   3.306753
    21  H    4.939796   1.090678   4.338700   3.456992   3.713218
    22  H    6.436442   1.125104   5.684022   5.127835   4.587099
    23  H    6.478912   1.127778   6.095790   5.017421   5.332776
                   11         12         13         14         15
    11  H    0.000000
    12  H    3.046501   0.000000
    13  H    2.440155   1.761869   0.000000
    14  H    2.532190   2.899826   2.915447   0.000000
    15  H    3.715214   2.275107   2.883629   1.758994   0.000000
    16  H    4.160631   3.177559   2.420509   3.065680   2.457231
    17  H    4.320218   4.096810   3.537117   2.493265   2.454500
    18  H    3.652757   2.185506   3.412660   4.377652   4.144852
    19  H    4.135109   3.077732   3.580687   5.493624   5.328846
    20  H    4.097042   3.769701   4.506290   5.562075   5.723775
    21  H    2.300830   3.551670   2.019284   2.867929   3.666980
    22  H    3.366312   4.750236   3.538504   2.911091   3.963304
    23  H    4.068413   4.664655   3.148113   3.883755   4.281302
                   16         17         18         19         20
    16  H    0.000000
    17  H    1.777921   0.000000
    18  H    5.335783   6.146856   0.000000
    19  H    5.800608   6.933899   1.804922   0.000000
    20  H    6.738170   7.509800   1.787022   1.796812   0.000000
    21  H    2.683258   3.037967   5.070632   5.233492   5.856986
    22  H    3.069947   2.389781   6.416796   6.869166   7.299358
    23  H    2.358946   2.681434   6.509171   6.613571   7.472833
                   21         22         23
    21  H    0.000000
    22  H    1.785325   0.000000
    23  H    1.789265   1.818150   0.000000
 Stoichiometry    C7H16
 Framework group  C1[X(C7H16)]
 Deg. of freedom    63
 Full point group                 C1      NOp   1
 Largest Abelian subgroup         C1      NOp   1
 Largest concise Abelian subgroup C1      NOp   1
                         Standard orientation:                         
 ---------------------------------------------------------------------
 Center     Atomic      Atomic             Coordinates (Angstroms)
 Number     Number       Type             X           Y           Z
 ---------------------------------------------------------------------
      1          6           0        0.903285    0.246231    0.693787
      2          6           0        0.011320   -0.503736   -0.235682
      3          6           0       -1.261460   -1.002540    0.401663
      4          6           0        2.172936    0.738397    0.084865
      5          6           0       -2.482595   -0.405292   -0.256992
      6          6           0        3.093263   -0.296833   -0.416017
      7          6           0       -2.507997    1.099500   -0.187120
      8          1           0        2.698000    1.360300    0.863762
      9          1           0        1.919460    1.453060   -0.734135
     10          1           0        1.135873   -0.381883    1.579763
     11          1           0        0.349129    1.122263    1.088909
     12          1           0        0.562940   -1.341358   -0.690423
     13          1           0       -0.252513    0.171954   -1.076569
     14          1           0       -1.273924   -0.781120    1.482376
     15          1           0       -1.321097   -2.108101    0.328705
     16          1           0       -2.486976   -0.722775   -1.332494
     17          1           0       -3.404285   -0.817764    0.187546
     18          1           0        2.705552   -1.321151   -0.260028
     19          1           0        3.283942   -0.168348   -1.522665
     20          1           0        4.082211   -0.235454    0.085687
     21          1           0       -1.499242    1.512531   -0.224497
     22          1           0       -2.984245    1.462769    0.765289
     23          1           0       -3.087350    1.540716   -1.048260
 ---------------------------------------------------------------------
 Rotational constants (GHZ):           5.6881277           1.0831391           1.0067115
 Leave Link  202 at Fri Sep 27 14:02:05 2019, MaxMem=   671088640 cpu:               3.4 elap:               1.7
 (Enter /shared/centos7/gaussian/g16/l301.exe)
 Standard basis: CC-pVTZ (5D, 7F)
 Ernie: Thresh=  0.10000D-02 Tol=  0.10000D-05 Strict=F.
 Ernie:  21 primitive shells out of 310 were deleted.
 There are   485 symmetry adapted cartesian basis functions of A   symmetry.
 There are   434 symmetry adapted basis functions of A   symmetry.
   434 basis functions,   636 primitive gaussians,   485 cartesian basis functions
    29 alpha electrons       29 beta electrons
       nuclear repulsion energy       323.8070024294 Hartrees.
 IExCor= 4336 DFT=T Ex+Corr=M062X ExCW=0 ScaHFX=  0.540000
 ScaDFX=  1.000000  1.000000  1.000000  1.000000 ScalE2=  1.000000  1.000000
 IRadAn=      5 IRanWt=     -1 IRanGd=            0 ICorTp=0 IEmpDi=  4
 NAtoms=   23 NActive=   23 NUniq=   23 SFac= 1.00D+00 NAtFMM=   60 NAOKFM=F Big=F
 Integral buffers will be    131072 words long.
 Raffenetti 2 integral format.
 Two-electron integral symmetry is turned on.
 Leave Link  301 at Fri Sep 27 14:02:07 2019, MaxMem=   671088640 cpu:               3.0 elap:               1.5
 (Enter /shared/centos7/gaussian/g16/l302.exe)
 NPDir=0 NMtPBC=     1 NCelOv=     1 NCel=       1 NClECP=     1 NCelD=      1
         NCelK=      1 NCelE2=     1 NClLst=     1 CellRange=     0.0.
 One-electron integrals computed using PRISM.
 One-electron integral symmetry used in STVInt
 NBasis=   434 RedAO= T EigKep=  2.51D-04  NBF=   434
 NBsUse=   434 1.00D-06 EigRej= -1.00D+00 NBFU=   434
 Precomputing XC quadrature grid using
 IXCGrd= 4 IRadAn=           5 IRanWt=          -1 IRanGd=           0 AccXCQ= 0.00D+00.
 Generated NRdTot=       0 NPtTot=           0 NUsed=           0 NTot=          32
 NSgBfM=   485   485   485   485   485 MxSgAt=    23 MxSgA2=    23.
 Leave Link  302 at Fri Sep 27 14:03:26 2019, MaxMem=   671088640 cpu:             158.3 elap:              79.2
 (Enter /shared/centos7/gaussian/g16/l303.exe)
 DipDrv:  MaxL=1.
 Leave Link  303 at Fri Sep 27 14:03:31 2019, MaxMem=   671088640 cpu:              10.8 elap:               5.4
 (Enter /shared/centos7/gaussian/g16/l401.exe)
 ExpMin= 1.03D-01 ExpMax= 8.24D+03 ExpMxC= 2.81D+02 IAcc=3 IRadAn=         5 AccDes= 0.00D+00
 Harris functional with IExCor= 1009 and IRadAn=       5 diagonalized for initial guess.
 HarFok:  IExCor= 1009 AccDes= 0.00D+00 IRadAn=         5 IDoV= 1 UseB2=F ITyADJ=14
 ICtDFT=  3500011 ScaDFX=  1.000000  1.000000  1.000000  1.000000
 FoFCou: FMM=F IPFlag=           0 FMFlag=      100000 FMFlg1=           0
         NFxFlg=           0 DoJE=T BraDBF=F KetDBF=T FulRan=T
         wScrn=  0.000000 ICntrl=       500 IOpCl=  0 I1Cent=   200000004 NGrid=           0
         NMat0=    1 NMatS0=      1 NMatT0=    0 NMatD0=    1 NMtDS0=    0 NMtDT0=    0
 Petite list used in FoFCou.
 Harris En= -276.324810758827    
 JPrj=0 DoOrth=F DoCkMO=F.
 Leave Link  401 at Fri Sep 27 14:04:13 2019, MaxMem=   671088640 cpu:              84.3 elap:              42.2
 (Enter /shared/centos7/gaussian/g16/l502.exe)
 Integral symmetry usage will be decided dynamically.
 Closed shell SCF:
 Using DIIS extrapolation, IDIIS=  1040.
 NGot=   671088640 LenX=   670604095 LenY=   670368385
 Requested convergence on RMS density matrix=1.00D-08 within 900 cycles.
 Requested convergence on MAX density matrix=1.00D-06.
 Requested convergence on             energy=1.00D-06.
 No special actions if energy rises.
 Fock matrices will be formed incrementally for  20 cycles.
 Integral accuracy reduced to 1.0D-05 until final iterations.

 Cycle   1  Pass 0  IDiag  1:
 FoFJK:  IHMeth= 1 ICntrl=       0 DoSepK=F KAlg= 0 I1Cent=           0 FoldK=F
 IRaf= 920000000 NMat=       1 IRICut=       1 DoRegI=T DoRafI=F ISym2E= 0 IDoP0=0 IntGTp=1.
 FoFCou: FMM=F IPFlag=           0 FMFlag=      100000 FMFlg1=           0
         NFxFlg=           0 DoJE=F BraDBF=F KetDBF=F FulRan=T
         wScrn=  0.000000 ICntrl=         0 IOpCl=  0 I1Cent=           0 NGrid=           0
         NMat0=    1 NMatS0=      1 NMatT0=    0 NMatD0=    1 NMtDS0=    0 NMtDT0=    0
 Symmetry not used in FoFCou.
 E= -275.956004885811    
 DIIS: error= 3.07D-02 at cycle   1 NSaved=   1.
 NSaved= 1 IEnMin= 1 EnMin= -275.956004885811     IErMin= 1 ErrMin= 3.07D-02
 ErrMax= 3.07D-02  0.00D+00 EMaxC= 1.00D-01 BMatC= 3.75D-01 BMatP= 3.75D-01
 IDIUse=3 WtCom= 6.93D-01 WtEn= 3.07D-01
 Coeff-Com:  0.100D+01
 Coeff-En:   0.100D+01
 Coeff:      0.100D+01
 Gap=     0.377 Goal=   None    Shift=    0.000
 GapD=    0.377 DampG=1.000 DampE=0.500 DampFc=0.5000 IDamp=-1.
 Damping current iteration by 5.00D-01
 RMSDP=1.90D-03 MaxDP=7.17D-02              OVMax= 1.70D-01

 Cycle   2  Pass 0  IDiag  1:
 RMSU=  9.49D-04    CP:  9.90D-01
 E= -276.135802838656     Delta-E=       -0.179797952845 Rises=F Damp=T
 DIIS: error= 4.72D-03 at cycle   2 NSaved=   2.
 NSaved= 2 IEnMin= 2 EnMin= -276.135802838656     IErMin= 2 ErrMin= 4.72D-03
 ErrMax= 4.72D-03  0.00D+00 EMaxC= 1.00D-01 BMatC= 1.82D-02 BMatP= 3.75D-01
 IDIUse=3 WtCom= 9.53D-01 WtEn= 4.72D-02
 Coeff-Com: -0.533D-01 0.105D+01
 Coeff-En:   0.000D+00 0.100D+01
 Coeff:     -0.508D-01 0.105D+01
 Gap=     0.448 Goal=   None    Shift=    0.000
 RMSDP=5.36D-04 MaxDP=2.14D-02 DE=-1.80D-01 OVMax= 9.03D-02

 Cycle   3  Pass 0  IDiag  1:
 RMSU=  5.26D-04    CP:  9.97D-01  9.06D-01
 E= -276.315565790941     Delta-E=       -0.179762952285 Rises=F Damp=F
 DIIS: error= 2.76D-03 at cycle   3 NSaved=   3.
 NSaved= 3 IEnMin= 3 EnMin= -276.315565790941     IErMin= 3 ErrMin= 2.76D-03
 ErrMax= 2.76D-03  0.00D+00 EMaxC= 1.00D-01 BMatC= 2.17D-03 BMatP= 1.82D-02
 IDIUse=3 WtCom= 9.72D-01 WtEn= 2.76D-02
 Coeff-Com: -0.488D-01 0.218D+00 0.830D+00
 Coeff-En:   0.000D+00 0.000D+00 0.100D+01
 Coeff:     -0.475D-01 0.212D+00 0.835D+00
 Gap=     0.423 Goal=   None    Shift=    0.000
 RMSDP=8.62D-05 MaxDP=2.20D-03 DE=-1.80D-01 OVMax= 8.75D-03

 Cycle   4  Pass 0  IDiag  1:
 RMSU=  6.66D-05    CP:  9.96D-01  9.51D-01  9.36D-01
 E= -276.317516992083     Delta-E=       -0.001951201142 Rises=F Damp=F
 DIIS: error= 5.25D-04 at cycle   4 NSaved=   4.
 NSaved= 4 IEnMin= 4 EnMin= -276.317516992083     IErMin= 4 ErrMin= 5.25D-04
 ErrMax= 5.25D-04  0.00D+00 EMaxC= 1.00D-01 BMatC= 1.77D-04 BMatP= 2.17D-03
 IDIUse=3 WtCom= 9.95D-01 WtEn= 5.25D-03
 Coeff-Com: -0.111D-01 0.294D-01 0.256D+00 0.726D+00
 Coeff-En:   0.000D+00 0.000D+00 0.000D+00 0.100D+01
 Coeff:     -0.110D-01 0.293D-01 0.255D+00 0.727D+00
 Gap=     0.424 Goal=   None    Shift=    0.000
 RMSDP=2.89D-05 MaxDP=9.51D-04 DE=-1.95D-03 OVMax= 2.67D-03

 Cycle   5  Pass 0  IDiag  1:
 RMSU=  1.77D-05    CP:  9.96D-01  9.44D-01  9.68D-01  7.92D-01
 E= -276.317677745550     Delta-E=       -0.000160753467 Rises=F Damp=F
 DIIS: error= 1.43D-04 at cycle   5 NSaved=   5.
 NSaved= 5 IEnMin= 5 EnMin= -276.317677745550     IErMin= 5 ErrMin= 1.43D-04
 ErrMax= 1.43D-04  0.00D+00 EMaxC= 1.00D-01 BMatC= 1.63D-05 BMatP= 1.77D-04
 IDIUse=3 WtCom= 9.99D-01 WtEn= 1.43D-03
 Coeff-Com: -0.119D-02-0.765D-04 0.521D-01 0.279D+00 0.670D+00
 Coeff-En:   0.000D+00 0.000D+00 0.000D+00 0.000D+00 0.100D+01
 Coeff:     -0.119D-02-0.764D-04 0.520D-01 0.279D+00 0.670D+00
 Gap=     0.423 Goal=   None    Shift=    0.000
 RMSDP=6.28D-06 MaxDP=3.04D-04 DE=-1.61D-04 OVMax= 7.02D-04

 Initial convergence to 1.0D-05 achieved.  Increase integral accuracy.
 Cycle   6  Pass 1  IDiag  1:
 E= -276.317656690352     Delta-E=        0.000021055198 Rises=F Damp=F
 DIIS: error= 3.94D-05 at cycle   1 NSaved=   1.
 NSaved= 1 IEnMin= 1 EnMin= -276.317656690352     IErMin= 1 ErrMin= 3.94D-05
 ErrMax= 3.94D-05  0.00D+00 EMaxC= 1.00D-01 BMatC= 1.38D-06 BMatP= 1.38D-06
 IDIUse=1 WtCom= 1.00D+00 WtEn= 0.00D+00
 Coeff-Com:  0.100D+01
 Coeff:      0.100D+01
 Gap=     0.423 Goal=   None    Shift=    0.000
 RMSDP=6.28D-06 MaxDP=3.04D-04 DE= 2.11D-05 OVMax= 2.38D-04

 Cycle   7  Pass 1  IDiag  1:
 RMSU=  1.02D-05    CP:  1.00D+00
 E= -276.317657329577     Delta-E=       -0.000000639226 Rises=F Damp=F
 DIIS: error= 2.23D-05 at cycle   2 NSaved=   2.
 NSaved= 2 IEnMin= 2 EnMin= -276.317657329577     IErMin= 2 ErrMin= 2.23D-05
 ErrMax= 2.23D-05  0.00D+00 EMaxC= 1.00D-01 BMatC= 3.82D-07 BMatP= 1.38D-06
 IDIUse=1 WtCom= 1.00D+00 WtEn= 0.00D+00
 Coeff-Com:  0.299D+00 0.701D+00
 Coeff:      0.299D+00 0.701D+00
 Gap=     0.423 Goal=   None    Shift=    0.000
 RMSDP=1.18D-06 MaxDP=5.76D-05 DE=-6.39D-07 OVMax= 1.32D-04

 Cycle   8  Pass 1  IDiag  1:
 RMSU=  1.18D-06    CP:  1.00D+00  1.01D+00
 E= -276.317657639035     Delta-E=       -0.000000309458 Rises=F Damp=F
 DIIS: error= 9.11D-06 at cycle   3 NSaved=   3.
 NSaved= 3 IEnMin= 3 EnMin= -276.317657639035     IErMin= 3 ErrMin= 9.11D-06
 ErrMax= 9.11D-06  0.00D+00 EMaxC= 1.00D-01 BMatC= 6.29D-08 BMatP= 3.82D-07
 IDIUse=1 WtCom= 1.00D+00 WtEn= 0.00D+00
 Coeff-Com: -0.724D-02 0.279D+00 0.728D+00
 Coeff:     -0.724D-02 0.279D+00 0.728D+00
 Gap=     0.423 Goal=   None    Shift=    0.000
 RMSDP=4.38D-07 MaxDP=1.69D-05 DE=-3.09D-07 OVMax= 4.37D-05

 Cycle   9  Pass 1  IDiag  1:
 RMSU=  2.98D-07    CP:  1.00D+00  1.02D+00  7.71D-01
 E= -276.317657699962     Delta-E=       -0.000000060928 Rises=F Damp=F
 DIIS: error= 1.40D-06 at cycle   4 NSaved=   4.
 NSaved= 4 IEnMin= 4 EnMin= -276.317657699962     IErMin= 4 ErrMin= 1.40D-06
 ErrMax= 1.40D-06  0.00D+00 EMaxC= 1.00D-01 BMatC= 1.03D-09 BMatP= 6.29D-08
 IDIUse=1 WtCom= 1.00D+00 WtEn= 0.00D+00
 Coeff-Com: -0.110D-01 0.568D-01 0.200D+00 0.754D+00
 Coeff:     -0.110D-01 0.568D-01 0.200D+00 0.754D+00
 Gap=     0.423 Goal=   None    Shift=    0.000
 RMSDP=6.74D-08 MaxDP=2.42D-06 DE=-6.09D-08 OVMax= 6.35D-06

 Cycle  10  Pass 1  IDiag  1:
 RMSU=  6.49D-08    CP:  1.00D+00  1.02D+00  7.79D-01  9.76D-01
 E= -276.317657701047     Delta-E=       -0.000000001085 Rises=F Damp=F
 DIIS: error= 3.07D-07 at cycle   5 NSaved=   5.
 NSaved= 5 IEnMin= 5 EnMin= -276.317657701047     IErMin= 5 ErrMin= 3.07D-07
 ErrMax= 3.07D-07  0.00D+00 EMaxC= 1.00D-01 BMatC= 5.48D-11 BMatP= 1.03D-09
 IDIUse=1 WtCom= 1.00D+00 WtEn= 0.00D+00
 Coeff-Com: -0.774D-03-0.159D-01-0.351D-01 0.929D-01 0.959D+00
 Coeff:     -0.774D-03-0.159D-01-0.351D-01 0.929D-01 0.959D+00
 Gap=     0.423 Goal=   None    Shift=    0.000
 RMSDP=2.95D-08 MaxDP=8.06D-07 DE=-1.08D-09 OVMax= 2.27D-06

 Cycle  11  Pass 1  IDiag  1:
 RMSU=  1.48D-08    CP:  1.00D+00  1.02D+00  7.80D-01  1.06D+00  1.08D+00
 E= -276.317657701108     Delta-E=       -0.000000000061 Rises=F Damp=F
 DIIS: error= 1.48D-07 at cycle   6 NSaved=   6.
 NSaved= 6 IEnMin= 6 EnMin= -276.317657701108     IErMin= 6 ErrMin= 1.48D-07
 ErrMax= 1.48D-07  0.00D+00 EMaxC= 1.00D-01 BMatC= 1.36D-11 BMatP= 5.48D-11
 IDIUse=1 WtCom= 1.00D+00 WtEn= 0.00D+00
 Coeff-Com:  0.385D-03-0.107D-01-0.286D-01-0.881D-02 0.424D+00 0.624D+00
 Coeff:      0.385D-03-0.107D-01-0.286D-01-0.881D-02 0.424D+00 0.624D+00
 Gap=     0.423 Goal=   None    Shift=    0.000
 RMSDP=5.63D-09 MaxDP=2.31D-07 DE=-6.08D-11 OVMax= 5.96D-07

 SCF Done:  E(RM062X) =  -276.317657701     A.U. after   11 cycles
            NFock= 11  Conv=0.56D-08     -V/T= 2.0067
 KE= 2.744792499650D+02 PE=-1.286006519665D+03 EE= 4.114026095693D+02
 Leave Link  502 at Fri Sep 27 14:18:50 2019, MaxMem=   671088640 cpu:            1753.4 elap:             876.9
 (Enter /shared/centos7/gaussian/g16/l801.exe)
 DoSCS=F DFT=T ScalE2(SS,OS)=  1.000000  1.000000
 Range of M.O.s used for correlation:     1   434
 NBasis=   434 NAE=    29 NBE=    29 NFC=     0 NFV=     0
 NROrb=    434 NOA=    29 NOB=    29 NVA=   405 NVB=   405

 **** Warning!!: The largest alpha MO coefficient is  0.11957843D+02

 Leave Link  801 at Fri Sep 27 14:18:51 2019, MaxMem=   671088640 cpu:               1.6 elap:               0.8
 (Enter /shared/centos7/gaussian/g16/l1101.exe)
 Using compressed storage, NAtomX=    23.
 Will process     24 centers per pass.
 Leave Link 1101 at Fri Sep 27 14:19:26 2019, MaxMem=   671088640 cpu:              68.9 elap:              34.5
 (Enter /shared/centos7/gaussian/g16/l1102.exe)
 Symmetrizing basis deriv contribution to polar:
 IMax=3 JMax=2 DiffMx= 0.00D+00
 Leave Link 1102 at Fri Sep 27 14:19:28 2019, MaxMem=   671088640 cpu:               5.0 elap:               2.5
 (Enter /shared/centos7/gaussian/g16/l1110.exe)
 Forming Gx(P) for the SCF density, NAtomX=    23.
 Integral derivatives from FoFJK, PRISM(SPDF).
 Do as many integral derivatives as possible in FoFJK.
 G2DrvN: MDV=     671086848.
 G2DrvN: will do    24 centers at a time, making    1 passes.
 Calling FoFCou, ICntrl=  3107 FMM=F I1Cent=   0 AccDes= 0.00D+00.
 FoFJK:  IHMeth= 1 ICntrl=    3107 DoSepK=F KAlg= 0 I1Cent=           0 FoldK=F
 IRaf=         0 NMat=       1 IRICut=       1 DoRegI=T DoRafI=F ISym2E= 0 IDoP0=0 IntGTp=1.
 FoFCou: FMM=F IPFlag=           0 FMFlag=      100000 FMFlg1=           0
         NFxFlg=           0 DoJE=F BraDBF=F KetDBF=F FulRan=T
         wScrn=  0.000000 ICntrl=      3107 IOpCl=  0 I1Cent=           0 NGrid=           0
         NMat0=    1 NMatS0=      1 NMatT0=    0 NMatD0=    1 NMtDS0=    0 NMtDT0=    0
 Symmetry not used in FoFCou.
 End of G2Drv F.D. properties file   721 does not exist.
 End of G2Drv F.D. properties file   722 does not exist.
 End of G2Drv F.D. properties file   788 does not exist.
 Leave Link 1110 at Fri Sep 27 14:57:50 2019, MaxMem=   671088640 cpu:            4601.9 elap:            2301.4
 (Enter /shared/centos7/gaussian/g16/l1002.exe)
 Minotr:  Closed shell wavefunction.
          IDoAtm=11111111111111111111111
          Direct CPHF calculation.
          Differentiating once with respect to nuclear coordinates.
          Requested convergence is 1.0D-08 RMS, and 1.0D-07 maximum.
          Secondary convergence is 1.0D-12 RMS, and 1.0D-12 maximum.
          NewPWx=T KeepS1=F KeepF1=F KeepIn=T MapXYZ=F SortEE=F KeepMc=T.
         6932 words used for storage of precomputed grid.
 Two-electron integrals replicated using symmetry.
          MDV=     671088640 using IRadAn=       1.
          Solving linear equations simultaneously, MaxMat=     380.
 FoF2E skips out because all densities are zero.
 CalDSu exits because no D1Ps are significant.
 FoFJK:  IHMeth= 1 ICntrl=       0 DoSepK=F KAlg= 0 I1Cent=           0 FoldK=F
 IRaf= 910000000 NMat=      69 IRICut=     172 DoRegI=T DoRafI=T ISym2E= 2 IDoP0=3 IntGTp=3.
 FoFCou: FMM=F IPFlag=           0 FMFlag=      100000 FMFlg1=           0
         NFxFlg=           0 DoJE=F BraDBF=F KetDBF=F FulRan=T
         wScrn=  0.000000 ICntrl=         0 IOpCl=  0 I1Cent=           0 NGrid=           0
         NMat0=   69 NMatS0=     69 NMatT0=    0 NMatD0=   69 NMtDS0=    0 NMtDT0=    0
 Integrals replicated using symmetry in FoFCou.
 Raff kept on since  86.65% of shell-pairs survive, threshold=   0.20 IRatSp=87.
          There are    72 degrees of freedom in the 1st order CPHF.  IDoFFX=6 NUNeed=     0.
     66 vectors produced by pass  0 Test12= 1.63D-14 1.39D-09 XBig12= 5.75D-02 4.88D-02.
 AX will form    66 AO Fock derivatives at one time.
     66 vectors produced by pass  1 Test12= 1.63D-14 1.39D-09 XBig12= 2.95D-03 7.46D-03.
     66 vectors produced by pass  2 Test12= 1.63D-14 1.39D-09 XBig12= 4.90D-05 9.28D-04.
     66 vectors produced by pass  3 Test12= 1.63D-14 1.39D-09 XBig12= 4.11D-07 7.90D-05.
     66 vectors produced by pass  4 Test12= 1.63D-14 1.39D-09 XBig12= 2.27D-09 6.33D-06.
     66 vectors produced by pass  5 Test12= 1.63D-14 1.39D-09 XBig12= 1.06D-11 2.96D-07.
     22 vectors produced by pass  6 Test12= 1.63D-14 1.39D-09 XBig12= 3.82D-14 1.69D-08.
 InvSVY:  IOpt=1 It=  1 EMax= 3.33D-16
 Solved reduced A of dimension   418 with    72 vectors.
 End of Minotr F.D. properties file   721 does not exist.
 End of Minotr F.D. properties file   722 does not exist.
 End of Minotr F.D. properties file   788 does not exist.
 Leave Link 1002 at Fri Sep 27 16:03:20 2019, MaxMem=   671088640 cpu:            7859.3 elap:            3930.4
 (Enter /shared/centos7/gaussian/g16/l601.exe)
 Copying SCF densities to generalized density rwf, IOpCl= 0 IROHF=0.

 **********************************************************************

            Population analysis using the SCF density.

 **********************************************************************

 Orbital symmetries:
       Occupied  (A) (A) (A) (A) (A) (A) (A) (A) (A) (A) (A) (A)
                 (A) (A) (A) (A) (A) (A) (A) (A) (A) (A) (A) (A)
                 (A) (A) (A) (A) (A)
       Virtual   (A) (A) (A) (A) (A) (A) (A) (A) (A) (A) (A) (A)
                 (A) (A) (A) (A) (A) (A) (A) (A) (A) (A) (A) (A)
                 (A) (A) (A) (A) (A) (A) (A) (A) (A) (A) (A) (A)
                 (A) (A) (A) (A) (A) (A) (A) (A) (A) (A) (A) (A)
                 (A) (A) (A) (A) (A) (A) (A) (A) (A) (A) (A) (A)
                 (A) (A) (A) (A) (A) (A) (A) (A) (A) (A) (A) (A)
                 (A) (A) (A) (A) (A) (A) (A) (A) (A) (A) (A) (A)
                 (A) (A) (A) (A) (A) (A) (A) (A) (A) (A) (A) (A)
                 (A) (A) (A) (A) (A) (A) (A) (A) (A) (A) (A) (A)
                 (A) (A) (A) (A) (A) (A) (A) (A) (A) (A) (A) (A)
                 (A) (A) (A) (A) (A) (A) (A) (A) (A) (A) (A) (A)
                 (A) (A) (A) (A) (A) (A) (A) (A) (A) (A) (A) (A)
                 (A) (A) (A) (A) (A) (A) (A) (A) (A) (A) (A) (A)
                 (A) (A) (A) (A) (A) (A) (A) (A) (A) (A) (A) (A)
                 (A) (A) (A) (A) (A) (A) (A) (A) (A) (A) (A) (A)
                 (A) (A) (A) (A) (A) (A) (A) (A) (A) (A) (A) (A)
                 (A) (A) (A) (A) (A) (A) (A) (A) (A) (A) (A) (A)
                 (A) (A) (A) (A) (A) (A) (A) (A) (A) (A) (A) (A)
                 (A) (A) (A) (A) (A) (A) (A) (A) (A) (A) (A) (A)
                 (A) (A) (A) (A) (A) (A) (A) (A) (A) (A) (A) (A)
                 (A) (A) (A) (A) (A) (A) (A) (A) (A) (A) (A) (A)
                 (A) (A) (A) (A) (A) (A) (A) (A) (A) (A) (A) (A)
                 (A) (A) (A) (A) (A) (A) (A) (A) (A) (A) (A) (A)
                 (A) (A) (A) (A) (A) (A) (A) (A) (A) (A) (A) (A)
                 (A) (A) (A) (A) (A) (A) (A) (A) (A) (A) (A) (A)
                 (A) (A) (A) (A) (A) (A) (A) (A) (A) (A) (A) (A)
                 (A) (A) (A) (A) (A) (A) (A) (A) (A) (A) (A) (A)
                 (A) (A) (A) (A) (A) (A) (A) (A) (A) (A) (A) (A)
                 (A) (A) (A) (A) (A) (A) (A) (A) (A) (A) (A) (A)
                 (A) (A) (A) (A) (A) (A) (A) (A) (A) (A) (A) (A)
                 (A) (A) (A) (A) (A) (A) (A) (A) (A) (A) (A) (A)
                 (A) (A) (A) (A) (A) (A) (A) (A) (A) (A) (A) (A)
                 (A) (A) (A) (A) (A) (A) (A) (A) (A) (A) (A) (A)
                 (A) (A) (A) (A) (A) (A) (A) (A) (A)
 The electronic state is 1-A.
 Alpha  occ. eigenvalues --  -10.52851 -10.52572 -10.52490 -10.52465 -10.52446
 Alpha  occ. eigenvalues --  -10.52326 -10.52202  -0.92344  -0.88512  -0.82305
 Alpha  occ. eigenvalues --   -0.76578  -0.70985  -0.64582  -0.63861  -0.55360
 Alpha  occ. eigenvalues --   -0.53066  -0.50729  -0.50306  -0.48623  -0.45636
 Alpha  occ. eigenvalues --   -0.44610  -0.42968  -0.41259  -0.40788  -0.39397
 Alpha  occ. eigenvalues --   -0.37528  -0.36950  -0.36330  -0.35691
 Alpha virt. eigenvalues --    0.06648   0.07632   0.08557   0.08945   0.10839
 Alpha virt. eigenvalues --    0.11638   0.12271   0.13496   0.13846   0.14519
 Alpha virt. eigenvalues --    0.15678   0.17045   0.17315   0.17732   0.18916
 Alpha virt. eigenvalues --    0.20860   0.22811   0.23812   0.24166   0.25732
 Alpha virt. eigenvalues --    0.28042   0.28707   0.29758   0.30528   0.31420
 Alpha virt. eigenvalues --    0.32465   0.32869   0.34421   0.34962   0.37284
 Alpha virt. eigenvalues --    0.37308   0.39444   0.41429   0.41587   0.42310
 Alpha virt. eigenvalues --    0.44521   0.45121   0.46452   0.47074   0.47879
 Alpha virt. eigenvalues --    0.48624   0.49029   0.49611   0.50676   0.50885
 Alpha virt. eigenvalues --    0.52077   0.52621   0.52780   0.53188   0.53694
 Alpha virt. eigenvalues --    0.53888   0.54863   0.55320   0.56202   0.56777
 Alpha virt. eigenvalues --    0.57979   0.58865   0.59963   0.61467   0.63674
 Alpha virt. eigenvalues --    0.64465   0.67292   0.70234   0.72744   0.74998
 Alpha virt. eigenvalues --    0.77299   0.78105   0.82003   0.83607   0.85706
 Alpha virt. eigenvalues --    0.86982   0.87365   0.89147   0.90813   0.91732
 Alpha virt. eigenvalues --    0.94003   0.94292   0.96173   0.98497   0.99296
 Alpha virt. eigenvalues --    1.00111   1.01552   1.02849   1.04045   1.04558
 Alpha virt. eigenvalues --    1.06042   1.06782   1.07626   1.07887   1.08702
 Alpha virt. eigenvalues --    1.10277   1.11530   1.12304   1.13033   1.15018
 Alpha virt. eigenvalues --    1.15658   1.16909   1.18126   1.18957   1.19122
 Alpha virt. eigenvalues --    1.20142   1.20708   1.22111   1.23759   1.24828
 Alpha virt. eigenvalues --    1.25889   1.26553   1.28009   1.28266   1.29117
 Alpha virt. eigenvalues --    1.29543   1.30067   1.30544   1.31866   1.33030
 Alpha virt. eigenvalues --    1.34023   1.34443   1.36163   1.36489   1.37247
 Alpha virt. eigenvalues --    1.38797   1.39845   1.41749   1.42576   1.43070
 Alpha virt. eigenvalues --    1.44407   1.47196   1.47863   1.48227   1.48622
 Alpha virt. eigenvalues --    1.50585   1.51732   1.53093   1.54184   1.55211
 Alpha virt. eigenvalues --    1.55895   1.56566   1.58402   1.60711   1.61151
 Alpha virt. eigenvalues --    1.63585   1.65483   1.68253   1.71502   1.76258
 Alpha virt. eigenvalues --    1.77723   1.79830   1.82535   1.83021   2.20495
 Alpha virt. eigenvalues --    2.24873   2.27530   2.30577   2.33118   2.34253
 Alpha virt. eigenvalues --    2.37081   2.37434   2.40830   2.43452   2.43711
 Alpha virt. eigenvalues --    2.45052   2.45748   2.49010   2.52834   2.53839
 Alpha virt. eigenvalues --    2.54985   2.55505   2.57304   2.59297   2.60658
 Alpha virt. eigenvalues --    2.61018   2.63001   2.63105   2.65132   2.65591
 Alpha virt. eigenvalues --    2.66713   2.68144   2.69371   2.70971   2.72342
 Alpha virt. eigenvalues --    2.72964   2.75285   2.76310   2.78889   2.79264
 Alpha virt. eigenvalues --    2.80274   2.81712   2.82786   2.83760   2.85570
 Alpha virt. eigenvalues --    2.86567   2.87085   2.87217   2.90793   2.92557
 Alpha virt. eigenvalues --    2.93695   2.95365   2.96062   2.96608   2.98324
 Alpha virt. eigenvalues --    3.00588   3.00953   3.02370   3.03494   3.04287
 Alpha virt. eigenvalues --    3.05797   3.06526   3.06684   3.07552   3.07783
 Alpha virt. eigenvalues --    3.09572   3.09852   3.11072   3.11542   3.12344
 Alpha virt. eigenvalues --    3.13421   3.14878   3.16336   3.16751   3.16942
 Alpha virt. eigenvalues --    3.18541   3.19366   3.20360   3.22376   3.23318
 Alpha virt. eigenvalues --    3.24304   3.25316   3.26402   3.29417   3.29920
 Alpha virt. eigenvalues --    3.30277   3.32133   3.33504   3.33665   3.34580
 Alpha virt. eigenvalues --    3.36407   3.36935   3.37974   3.40525   3.42457
 Alpha virt. eigenvalues --    3.42925   3.43600   3.45275   3.46080   3.47166
 Alpha virt. eigenvalues --    3.49364   3.50484   3.51726   3.52795   3.53247
 Alpha virt. eigenvalues --    3.53506   3.55799   3.57104   3.58185   3.60165
 Alpha virt. eigenvalues --    3.61642   3.62597   3.63161   3.63669   3.65249
 Alpha virt. eigenvalues --    3.67723   3.69019   3.69805   3.70559   3.72645
 Alpha virt. eigenvalues --    3.73319   3.74214   3.76245   3.76848   3.79000
 Alpha virt. eigenvalues --    3.79720   3.80742   3.82404   3.83273   3.84769
 Alpha virt. eigenvalues --    3.85737   3.86582   3.89112   3.90325   3.90558
 Alpha virt. eigenvalues --    3.91375   3.92112   3.93136   3.93803   3.96667
 Alpha virt. eigenvalues --    3.96781   3.97845   3.99444   3.99914   4.02429
 Alpha virt. eigenvalues --    4.02853   4.03024   4.03292   4.05184   4.05815
 Alpha virt. eigenvalues --    4.07351   4.07998   4.09280   4.10410   4.12282
 Alpha virt. eigenvalues --    4.12559   4.13824   4.15062   4.15398   4.16714
 Alpha virt. eigenvalues --    4.17790   4.18923   4.19761   4.20987   4.22987
 Alpha virt. eigenvalues --    4.24184   4.24840   4.25156   4.28822   4.29443
 Alpha virt. eigenvalues --    4.30292   4.31609   4.33713   4.34752   4.36926
 Alpha virt. eigenvalues --    4.39626   4.40958   4.43848   4.44284   4.46281
 Alpha virt. eigenvalues --    4.48504   4.49984   4.51478   4.53151   4.55960
 Alpha virt. eigenvalues --    4.57376   4.61141   4.61619   4.64703   4.66799
 Alpha virt. eigenvalues --    4.67743   4.70703   4.72888   4.74068   4.74535
 Alpha virt. eigenvalues --    4.76074   4.78047   4.79456   4.81802   4.82612
 Alpha virt. eigenvalues --    4.84587   4.86015   4.86226   4.89133   4.90184
 Alpha virt. eigenvalues --    4.92311   4.93775   4.95332   4.98818   4.99625
 Alpha virt. eigenvalues --    5.01227   5.02022   5.05378   5.07037   5.08123
 Alpha virt. eigenvalues --    5.09892   5.10215   5.12503   5.13926   5.16890
 Alpha virt. eigenvalues --    5.19133   5.19873   5.24943   5.26967   5.27109
 Alpha virt. eigenvalues --    5.28616   5.28893   5.30046   5.33138   5.34540
 Alpha virt. eigenvalues --    5.36428   5.36771   5.39232   5.40577   5.42956
 Alpha virt. eigenvalues --    5.43819   5.48045   5.49951   5.53579   5.55169
 Alpha virt. eigenvalues --    5.58945   5.61025   5.69674   5.71703   5.77910
 Alpha virt. eigenvalues --    5.81455   5.83631   5.84902   5.92500   5.93890
 Alpha virt. eigenvalues --    5.94525   5.97284   6.06422  11.62645  12.02843
 Alpha virt. eigenvalues --   12.34285  12.92928  13.28837  13.50481  13.94275
          Condensed to atoms (all electrons):
               1          2          3          4          5          6
     1  C    5.100932   0.295272  -0.042999   0.317237   0.005029  -0.042857
     2  C    0.295272   5.190030   0.292804  -0.052727  -0.049879  -0.010142
     3  C   -0.042999   0.292804   5.101117   0.007575   0.314634   0.000036
     4  C    0.317237  -0.052727   0.007575   5.055562  -0.000506   0.286337
     5  C    0.005029  -0.049879   0.314634  -0.000506   5.020209  -0.000066
     6  C   -0.042857  -0.010142   0.000036   0.286337  -0.000066   4.989298
     7  C   -0.001865  -0.009494  -0.048189   0.000079   0.301447   0.000010
     8  H   -0.045950   0.010034  -0.000490   0.416882   0.000036  -0.045748
     9  H   -0.042241  -0.007483   0.000082   0.410603   0.000025  -0.048880
    10  H    0.406619  -0.047857  -0.007519  -0.037185   0.000741  -0.004630
    11  H    0.423398  -0.052173   0.000300  -0.044518  -0.001199   0.008971
    12  H   -0.034911   0.400431  -0.034297  -0.004910   0.003141   0.001074
    13  H   -0.051074   0.413700  -0.058244  -0.000094   0.001037  -0.001052
    14  H   -0.003672  -0.065111   0.414126   0.001077  -0.040114  -0.000078
    15  H    0.005167  -0.043541   0.412217  -0.000574  -0.037725   0.000107
    16  H    0.000642  -0.008345  -0.044006   0.000033   0.413513  -0.000006
    17  H   -0.000818   0.011068  -0.044611   0.000029   0.415104   0.000000
    18  H    0.001449  -0.004115   0.000027  -0.061218   0.000013   0.406908
    19  H    0.004091   0.000661  -0.000016  -0.043478   0.000000   0.404802
    20  H    0.004702  -0.000020   0.000029  -0.043473   0.000001   0.406157
    21  H   -0.007319   0.008243  -0.008274   0.000848  -0.050481  -0.000024
    22  H    0.000149  -0.000498   0.000733  -0.000008  -0.041493  -0.000000
    23  H    0.000242  -0.000571   0.008004  -0.000019  -0.038724   0.000001
               7          8          9         10         11         12
     1  C   -0.001865  -0.045950  -0.042241   0.406619   0.423398  -0.034911
     2  C   -0.009494   0.010034  -0.007483  -0.047857  -0.052173   0.400431
     3  C   -0.048189  -0.000490   0.000082  -0.007519   0.000300  -0.034297
     4  C    0.000079   0.416882   0.410603  -0.037185  -0.044518  -0.004910
     5  C    0.301447   0.000036   0.000025   0.000741  -0.001199   0.003141
     6  C    0.000010  -0.045748  -0.048880  -0.004630   0.008971   0.001074
     7  C    4.998918   0.000000  -0.000099  -0.000230   0.000550   0.000771
     8  H    0.000000   0.612448  -0.035400  -0.007418  -0.007676  -0.000237
     9  H   -0.000099  -0.035400   0.605693   0.008765  -0.007046   0.000137
    10  H   -0.000230  -0.007418   0.008765   0.574937  -0.032978  -0.005520
    11  H    0.000550  -0.007676  -0.007046  -0.032978   0.571634   0.007624
    12  H    0.000771  -0.000237   0.000137  -0.005520   0.007624   0.560670
    13  H   -0.009895   0.000114   0.003875   0.009013  -0.009510  -0.036818
    14  H   -0.003967  -0.000082   0.000035   0.002091  -0.000249   0.005250
    15  H    0.008151   0.000035  -0.000007   0.000852  -0.000121  -0.015196
    16  H   -0.046415   0.000001  -0.000014  -0.000041   0.000090   0.001070
    17  H   -0.040301  -0.000002   0.000002   0.000030  -0.000096  -0.000336
    18  H   -0.000004   0.006052   0.006249   0.001463   0.000293  -0.000696
    19  H    0.000002   0.006980  -0.019300  -0.000248  -0.000530  -0.001049
    20  H   -0.000000  -0.020901   0.006637   0.001106  -0.000434   0.000151
    21  H    0.409887  -0.000101   0.000566   0.000335  -0.000954   0.000615
    22  H    0.399082   0.000002  -0.000006   0.000017   0.000081  -0.000041
    23  H    0.403947  -0.000000   0.000001  -0.000009   0.000166   0.000030
              13         14         15         16         17         18
     1  C   -0.051074  -0.003672   0.005167   0.000642  -0.000818   0.001449
     2  C    0.413700  -0.065111  -0.043541  -0.008345   0.011068  -0.004115
     3  C   -0.058244   0.414126   0.412217  -0.044006  -0.044611   0.000027
     4  C   -0.000094   0.001077  -0.000574   0.000033   0.000029  -0.061218
     5  C    0.001037  -0.040114  -0.037725   0.413513   0.415104   0.000013
     6  C   -0.001052  -0.000078   0.000107  -0.000006   0.000000   0.406908
     7  C   -0.009895  -0.003967   0.008151  -0.046415  -0.040301  -0.000004
     8  H    0.000114  -0.000082   0.000035   0.000001  -0.000002   0.006052
     9  H    0.003875   0.000035  -0.000007  -0.000014   0.000002   0.006249
    10  H    0.009013   0.002091   0.000852  -0.000041   0.000030   0.001463
    11  H   -0.009510  -0.000249  -0.000121   0.000090  -0.000096   0.000293
    12  H   -0.036818   0.005250  -0.015196   0.001070  -0.000336  -0.000696
    13  H    0.600951   0.006271   0.005563   0.000147   0.000615   0.000743
    14  H    0.006271   0.582971  -0.034684   0.008549  -0.006068  -0.000065
    15  H    0.005563  -0.034684   0.588267  -0.007331  -0.005571   0.000225
    16  H    0.000147   0.008549  -0.007331   0.610839  -0.035322  -0.000009
    17  H    0.000615  -0.006068  -0.005571  -0.035322   0.586436  -0.000001
    18  H    0.000743  -0.000065   0.000225  -0.000009  -0.000001   0.601394
    19  H    0.000065  -0.000001  -0.000004   0.000001   0.000000  -0.035999
    20  H   -0.000042   0.000009  -0.000010   0.000000   0.000000  -0.033917
    21  H   -0.005132  -0.001079   0.000025  -0.000541   0.007266   0.000001
    22  H    0.000782   0.002926  -0.000240   0.008216  -0.012379   0.000000
    23  H   -0.000637  -0.000089  -0.000473  -0.012659   0.000552   0.000000
              19         20         21         22         23
     1  C    0.004091   0.004702  -0.007319   0.000149   0.000242
     2  C    0.000661  -0.000020   0.008243  -0.000498  -0.000571
     3  C   -0.000016   0.000029  -0.008274   0.000733   0.008004
     4  C   -0.043478  -0.043473   0.000848  -0.000008  -0.000019
     5  C    0.000000   0.000001  -0.050481  -0.041493  -0.038724
     6  C    0.404802   0.406157  -0.000024  -0.000000   0.000001
     7  C    0.000002  -0.000000   0.409887   0.399082   0.403947
     8  H    0.006980  -0.020901  -0.000101   0.000002  -0.000000
     9  H   -0.019300   0.006637   0.000566  -0.000006   0.000001
    10  H   -0.000248   0.001106   0.000335   0.000017  -0.000009
    11  H   -0.000530  -0.000434  -0.000954   0.000081   0.000166
    12  H   -0.001049   0.000151   0.000615  -0.000041   0.000030
    13  H    0.000065  -0.000042  -0.005132   0.000782  -0.000637
    14  H   -0.000001   0.000009  -0.001079   0.002926  -0.000089
    15  H   -0.000004  -0.000010   0.000025  -0.000240  -0.000473
    16  H    0.000001   0.000000  -0.000541   0.008216  -0.012659
    17  H    0.000000   0.000000   0.007266  -0.012379   0.000552
    18  H   -0.035999  -0.033917   0.000001   0.000000   0.000000
    19  H    0.607478  -0.030992  -0.000007   0.000000  -0.000000
    20  H   -0.030992   0.599246   0.000003  -0.000000  -0.000000
    21  H   -0.000007   0.000003   0.599408  -0.041071  -0.033927
    22  H    0.000000  -0.000000  -0.041071   0.599961  -0.026871
    23  H   -0.000000  -0.000000  -0.033927  -0.026871   0.591206
 Mulliken charges:
               1
     1  C   -0.291222
     2  C   -0.270288
     3  C   -0.263040
     4  C   -0.207553
     5  C   -0.214746
     6  C   -0.350219
     7  C   -0.362386
     8  H    0.111422
     9  H    0.117804
    10  H    0.137667
    11  H    0.144375
    12  H    0.153046
    13  H    0.129623
    14  H    0.131954
    15  H    0.124868
    16  H    0.111587
    17  H    0.124404
    18  H    0.111207
    19  H    0.107545
    20  H    0.111748
    21  H    0.121715
    22  H    0.110659
    23  H    0.109830
 Sum of Mulliken charges =  -0.00000
 Mulliken charges with hydrogens summed into heavy atoms:
               1
     1  C   -0.009179
     2  C    0.012382
     3  C   -0.006218
     4  C    0.021673
     5  C    0.021246
     6  C   -0.019721
     7  C   -0.020183
 APT charges:
               1
     1  C   -0.620988
     2  C   -0.452046
     3  C   -0.719864
     4  C   -0.650599
     5  C   -0.902029
     6  C   -1.303928
     7  C   -1.038831
     8  H    0.460838
     9  H    0.280897
    10  H    0.358658
    11  H    0.299889
    12  H    0.359742
    13  H    0.266561
    14  H    0.307259
    15  H    0.404073
    16  H    0.328288
    17  H    0.541686
    18  H    0.171179
    19  H    0.365602
    20  H    0.571074
    21  H    0.069910
    22  H    0.413774
    23  H    0.488856
 Sum of APT charges =  -0.00000
 APT charges with hydrogens summed into heavy atoms:
               1
     1  C    0.037559
     2  C    0.174257
     3  C   -0.008532
     4  C    0.091136
     5  C   -0.032054
     6  C   -0.196074
     7  C   -0.066292
 Electronic spatial extent (au):  <R**2>=           1277.5616
 Charge=             -0.0000 electrons
 Dipole moment (field-independent basis, Debye):
    X=              0.0168    Y=             -0.0499    Z=              0.0235  Tot=              0.0576
 Quadrupole moment (field-independent basis, Debye-Ang):
   XX=            -49.4421   YY=            -49.3940   ZZ=            -48.8432
   XY=              0.3867   XZ=              0.2451   YZ=             -0.1314
 Traceless Quadrupole moment (field-independent basis, Debye-Ang):
   XX=             -0.2157   YY=             -0.1675   ZZ=              0.3832
   XY=              0.3867   XZ=              0.2451   YZ=             -0.1314
 Octapole moment (field-independent basis, Debye-Ang**2):
  XXX=             -0.5923  YYY=             -2.8296  ZZZ=             -0.6163  XYY=              0.2083
  XXY=              0.8373  XXZ=              2.7216  XZZ=             -0.4208  YZZ=              1.0331
  YYZ=             -0.1279  XYZ=             -0.0035
 Hexadecapole moment (field-independent basis, Debye-Ang**3):
 XXXX=          -1400.2261 YYYY=           -266.7977 ZZZZ=           -155.0273 XXXY=              9.0898
 XXXZ=              6.5333 YYYX=              2.8638 YYYZ=              1.0821 ZZZX=             -0.3059
 ZZZY=             -1.1435 XXYY=           -283.6413 XXZZ=           -252.6591 YYZZ=            -70.2872
 XXYZ=             -1.5648 YYXZ=              0.9301 ZZXY=              0.0969
 N-N= 3.238070024294D+02 E-N=-1.286006474211D+03  KE= 2.744792499650D+02
  Exact polarizability:   0.000   0.000   0.000   0.000   0.000   0.000
 Approx polarizability:  97.975  -0.340  98.000   0.393  -0.416 100.038
 No NMR shielding tensors so no spin-rotation constants.
 Leave Link  601 at Fri Sep 27 16:03:53 2019, MaxMem=   671088640 cpu:              65.3 elap:              32.7
 (Enter /shared/centos7/gaussian/g16/l701.exe)
 SCFChk:  SCF convergence  5.63D-09 required  1.00D-08
 ... and contract with generalized density number  0.
 Compute integral second derivatives.
 Entering OneElI...
 Calculate overlap and kinetic energy integrals
    NBasis = 485  MinDer = 2  MaxDer = 2
 Requested accuracy = 0.1000D-12
 PrmmSu-InSpLW:  IPartL=    0 NPrtUS=   20 NPrtUL=    1 DoSpLW=F IThBeg=    0 IThEnd=   19 NThAct=   20.
 PrsmSu:  NPrtUS=  20 ThrOK=T IAlg=1 NPAlg=1 LenDen=           0 ISkipM=0 DoSpLW=F IThBeg=    0 IThEnd=   19.
 Prism:   IPart=     0 DynPar=F LinDyn=F Incr=           6.
 PRISM was handed    33205462 working-precision words and 13546 shell-pairs
 PRISM was handed    33205462 working-precision words and 13546 shell-pairs
 PRISM was handed    33205462 working-precision words and 13546 shell-pairs
 PRISM was handed    33205462 working-precision words and 13546 shell-pairs
 PRISM was handed    33205462 working-precision words and 13546 shell-pairs
 PRISM was handed    33205462 working-precision words and 13546 shell-pairs
 PRISM was handed    33205462 working-precision words and 13546 shell-pairs
 PRISM was handed    33205462 working-precision words and 13546 shell-pairs
 PRISM was handed    33205462 working-precision words and 13546 shell-pairs
 IPart=  0 NShTot=         712 NBatch=          80 AvBLen=         8.9
 IPart= 16 NShTot=         655 NBatch=          49 AvBLen=        13.4
 PRISM was handed    33205462 working-precision words and 13546 shell-pairs
 PRISM was handed    33205462 working-precision words and 13546 shell-pairs
 PRISM was handed    33205462 working-precision words and 13546 shell-pairs
 PRISM was handed    33205462 working-precision words and 13546 shell-pairs
 PRISM was handed    33205462 working-precision words and 13546 shell-pairs
 IPart=  2 NShTot=         707 NBatch=          77 AvBLen=         9.2
 PRISM was handed    33205462 working-precision words and 13546 shell-pairs
 IPart=  4 NShTot=         702 NBatch=          73 AvBLen=         9.6
 PRISM was handed    33205462 working-precision words and 13546 shell-pairs
 IPart= 13 NShTot=         661 NBatch=          52 AvBLen=        12.7
 PRISM was handed    33205462 working-precision words and 13546 shell-pairs
 IPart=  7 NShTot=         682 NBatch=          61 AvBLen=        11.2
 PRISM was handed    33205462 working-precision words and 13546 shell-pairs
 IPart=  1 NShTot=         709 NBatch=          79 AvBLen=         9.0
 IPart= 11 NShTot=         671 NBatch=          57 AvBLen=        11.8
 IPart=  8 NShTot=         678 NBatch=          59 AvBLen=        11.5
 PRISM was handed    33205462 working-precision words and 13546 shell-pairs
 PRISM was handed    33205462 working-precision words and 13546 shell-pairs
 IPart=  3 NShTot=         703 NBatch=          74 AvBLen=         9.5
 IPart= 14 NShTot=         660 NBatch=          51 AvBLen=        12.9
 IPart= 19 NShTot=         647 NBatch=          47 AvBLen=        13.8
 IPart= 12 NShTot=         663 NBatch=          53 AvBLen=        12.5
 IPart=  9 NShTot=         675 NBatch=          58 AvBLen=        11.6
 IPart=  5 NShTot=         696 NBatch=          70 AvBLen=         9.9
 IPart=  6 NShTot=         690 NBatch=          67 AvBLen=        10.3
 IPart= 17 NShTot=         654 NBatch=          49 AvBLen=        13.3
 IPart= 15 NShTot=         659 NBatch=          51 AvBLen=        12.9
 IPart= 18 NShTot=         650 NBatch=          47 AvBLen=        13.8
 IPart= 10 NShTot=         672 NBatch=          57 AvBLen=        11.8
 PrSmSu:  NxtVal=            121.
 Entering OneElI...
 Calculate potential energy integrals
    NBasis = 485  MinDer = 2  MaxDer = 2
 Requested accuracy = 0.1000D-12
 PrmmSu-InSpLW:  IPartL=    0 NPrtUS=   20 NPrtUL=    1 DoSpLW=F IThBeg=    0 IThEnd=   19 NThAct=   20.
 PrsmSu:  NPrtUS=  20 ThrOK=T IAlg=1 NPAlg=1 LenDen=           0 ISkipM=0 DoSpLW=F IThBeg=    0 IThEnd=   19.
 Prism:   IPart=     0 DynPar=F LinDyn=F Incr=         138.
 PRISM was handed    33269776 working-precision words and 12006 shell-pairs
 PRISM was handed    33269776 working-precision words and 12006 shell-pairs
 PRISM was handed    33269776 working-precision words and 12006 shell-pairs
 PRISM was handed    33269776 working-precision words and 12006 shell-pairs
 PRISM was handed    33269776 working-precision words and 12006 shell-pairs
 PRISM was handed    33269776 working-precision words and 12006 shell-pairs
 PRISM was handed    33269776 working-precision words and 12006 shell-pairs
 PRISM was handed    33269776 working-precision words and 12006 shell-pairs
 PRISM was handed    33269776 working-precision words and 12006 shell-pairs
 PRISM was handed    33269776 working-precision words and 12006 shell-pairs
 PRISM was handed    33269776 working-precision words and 12006 shell-pairs
 PRISM was handed    33269776 working-precision words and 12006 shell-pairs
 PRISM was handed    33269776 working-precision words and 12006 shell-pairs
 PRISM was handed    33269776 working-precision words and 12006 shell-pairs
 PRISM was handed    33269776 working-precision words and 12006 shell-pairs
 PRISM was handed    33269776 working-precision words and 12006 shell-pairs
 PRISM was handed    33269776 working-precision words and 12006 shell-pairs
 PRISM was handed    33269776 working-precision words and 12006 shell-pairs
 PRISM was handed    33269776 working-precision words and 12006 shell-pairs
 PRISM was handed    33269776 working-precision words and 12006 shell-pairs
 IPart=  8 NShTot=       13823 NBatch=         602 AvBLen=        23.0
 IPart=  9 NShTot=       13754 NBatch=         599 AvBLen=        23.0
 IPart= 19 NShTot=       13179 NBatch=         574 AvBLen=        23.0
 IPart=  0 NShTot=       14513 NBatch=         633 AvBLen=        22.9
 IPart= 18 NShTot=       13202 NBatch=         575 AvBLen=        23.0
 IPart= 14 NShTot=       13455 NBatch=         586 AvBLen=        23.0
 IPart=  4 NShTot=       14329 NBatch=         625 AvBLen=        22.9
 IPart=  2 NShTot=       14444 NBatch=         630 AvBLen=        22.9
 IPart=  7 NShTot=       13869 NBatch=         604 AvBLen=        23.0
 IPart= 16 NShTot=       13340 NBatch=         581 AvBLen=        23.0
 IPart= 10 NShTot=       13708 NBatch=         597 AvBLen=        23.0
 IPart=  6 NShTot=       14030 NBatch=         611 AvBLen=        23.0
 IPart= 12 NShTot=       13570 NBatch=         591 AvBLen=        23.0
 IPart=  1 NShTot=       14467 NBatch=         631 AvBLen=        22.9
 IPart= 17 NShTot=       13225 NBatch=         576 AvBLen=        23.0
 IPart= 11 NShTot=       13662 NBatch=         595 AvBLen=        23.0
 IPart= 13 NShTot=       13524 NBatch=         589 AvBLen=        23.0
 IPart= 15 NShTot=       13386 NBatch=         583 AvBLen=        23.0
 IPart=  3 NShTot=       14375 NBatch=         627 AvBLen=        22.9
 IPart=  5 NShTot=       14283 NBatch=         623 AvBLen=        22.9
 PrSmSu:  NxtVal=           2761.
 Polarizability after L701:
                1             2             3 
      1  0.000000D+00
      2  0.000000D+00  0.000000D+00
      3  0.000000D+00  0.000000D+00  0.000000D+00
 Dipole Derivatives after L701:
                 1             2             3             4             5 
      1  -0.177762D+00  0.296861D+00 -0.476221D+00 -0.173287D+00  0.339789D+00
      2   0.403391D+00 -0.714436D+00 -0.809407D-01  0.385616D+00 -0.644661D+00
      3   0.141380D+00 -0.246286D-02 -0.970766D+00 -0.479748D-01  0.754033D-01
                 6             7             8             9            10 
      1  -0.371757D-01 -0.161359D+00 -0.562579D+00  0.703087D+00 -0.393280D+00
      2  -0.237276D+00 -0.566256D-01 -0.116800D+01  0.353700D+00 -0.253368D+00
      3  -0.538191D+00  0.467495D-01  0.604010D-02 -0.830233D+00 -0.355405D+00
                11            12            13            14            15 
      1  -0.180056D+01 -0.405800D+00 -0.167585D+01 -0.110995D+01 -0.633933D+00
      2  -0.907638D+00  0.924187D-01 -0.367936D+00 -0.222100D+00 -0.217855D+00
      3   0.611801D-01 -0.650879D+00  0.113515D+00 -0.187684D+00 -0.808136D+00
                16            17            18            19            20 
      1  -0.208923D+01  0.123800D+01  0.652364D+00 -0.100578D+01  0.156699D+01
      2  -0.106742D+00 -0.808281D+00  0.605983D-01  0.221133D-01 -0.115051D+01
      3   0.851990D-01 -0.658803D-01 -0.101428D+01 -0.959389D-02  0.181365D+00
                21            22            23            24            25 
      1   0.123529D+00  0.651525D+00  0.490917D+00  0.684359D+00  0.184367D-01
      2   0.118747D-02  0.227455D+00  0.371926D+00  0.355322D+00 -0.119277D+00
      3  -0.960203D+00  0.164492D+00  0.177468D+00  0.359062D+00  0.359010D-01
                26            27            28            29            30 
      1   0.396571D+00 -0.511927D+00  0.237226D+00 -0.211682D+00  0.337043D+00
      2   0.448201D+00 -0.387920D+00 -0.261316D-01  0.242794D+00 -0.131013D+00
      3  -0.171142D+00  0.376054D+00  0.138577D+00 -0.318055D+00  0.595955D+00
                31            32            33            34            35 
      1   0.118019D+00  0.828225D-01  0.391423D-01  0.279435D+00 -0.163220D+00
      2  -0.205835D+00  0.507202D+00  0.132088D+00 -0.241276D+00  0.563561D+00
      3  -0.184332D+00  0.313653D+00  0.274445D+00 -0.123191D+00  0.187795D+00
                36            37            38            39            40 
      1  -0.901218D-01  0.185815D+00 -0.886885D-01  0.685877D-01  0.156217D+00
      2   0.202434D+00 -0.477833D-01  0.208480D+00 -0.591937D-01  0.206518D-01
      3   0.236230D+00  0.133915D+00 -0.268716D+00  0.405390D+00 -0.107172D-01
                41            42            43            44            45 
      1  -0.562756D-01 -0.434888D+00  0.167463D+00  0.465852D+00  0.246905D-01
      2   0.865063D-01 -0.238261D+00  0.198811D-01  0.924854D+00  0.799445D-01
      3   0.111567D+00  0.679055D+00 -0.129899D-01 -0.942124D-01  0.119902D+00
                46            47            48            49            50 
      1   0.147636D+00  0.208532D+00  0.841196D+00  0.119722D+01  0.428175D+00
      2  -0.141793D-01  0.213502D+00  0.242213D+00  0.253024D+00  0.251507D+00
      3   0.301839D-02  0.118296D+00  0.623728D+00 -0.870744D-01 -0.295787D-01
                51            52            53            54            55 
      1  -0.516655D+00 -0.175229D+00 -0.831441D+00  0.597542D-01  0.261835D+00
      2  -0.123163D+00  0.200270D+00  0.599263D+00 -0.663159D-01 -0.286941D-01
      3   0.176332D+00  0.777883D-02  0.606572D-01  0.895019D-01 -0.795100D-01
                56            57            58            59            60 
      1   0.157981D+00 -0.115529D+01  0.144141D+01  0.138575D+00  0.735803D+00
      2   0.118893D+00  0.266627D-01 -0.669178D-01  0.118769D+00 -0.153775D-02
      3  -0.115396D+00  0.716077D+00  0.649013D-01  0.410563D-01  0.153045D+00
                61            62            63            64            65 
      1  -0.228693D+00 -0.200144D+00 -0.327091D-01  0.553836D+00 -0.338817D+00
      2   0.488687D+00  0.329402D+00  0.156798D-01 -0.204239D+00  0.292224D+00
      3  -0.852667D-01 -0.298176D-01  0.109022D+00 -0.165309D+00  0.949337D-01
                66            67            68            69 
      1  -0.945050D+00  0.664394D+00 -0.447715D+00  0.970212D+00
      2   0.443586D+00 -0.282085D+00  0.338546D+00 -0.462358D+00
      3   0.395261D+00  0.225937D+00 -0.146469D+00  0.463628D+00
 Hessian after L701:
                1             2             3             4             5 
      1  0.146785D+02
      2 -0.838877D+00  0.175817D+02
      3  0.226025D+00 -0.436641D+00  0.177663D+02
      4 -0.464341D+01  0.130297D+01  0.154047D+01  0.144866D+02
      5  0.133619D+01 -0.511117D+01  0.123606D+01 -0.780954D+00  0.174032D+02
      6  0.151946D+01  0.121691D+01 -0.503587D+01 -0.251301D+00 -0.347511D+00
      7  0.315507D+00  0.287295D+00 -0.689662D-01 -0.300533D+01  0.101977D+01
      8  0.255058D+00 -0.535437D-01 -0.367767D-01  0.105792D+01 -0.548192D+01
      9  0.720801D-01  0.334021D-01 -0.142200D+00 -0.131938D+01 -0.428759D+00
     10 -0.315513D+01  0.109524D+01 -0.140570D+01  0.332433D+00  0.222893D+00
     11  0.104082D+01 -0.578751D+01 -0.548985D+00  0.169584D+00 -0.307343D-01
     12 -0.141413D+01 -0.558747D+00 -0.552811D+01  0.132512D+00  0.101972D+00
     13  0.248838D+00  0.539560D-01  0.109172D+00  0.502323D+00  0.319376D-01
     14  0.591563D-01 -0.135932D+00  0.203305D-01  0.840173D-02 -0.129974D+00
     15  0.125327D+00  0.164842D-01 -0.116413D+00 -0.177290D+00 -0.550758D-02
     16  0.274234D+00 -0.210528D+00 -0.169226D+00  0.220900D+00  0.189083D-01
     17 -0.132383D+00 -0.834027D-01  0.782640D-01  0.123590D+00 -0.161096D+00
     18 -0.217771D+00  0.112094D+00 -0.867441D-01 -0.120064D-01  0.583683D-02
     19  0.207581D+00 -0.103001D+00  0.368595D-01  0.168137D+00 -0.253252D+00
     20 -0.167325D-01 -0.120947D+00 -0.579258D-02 -0.144954D+00 -0.661621D-01
     21  0.898610D-01 -0.266971D-01 -0.119185D+00  0.104627D-01 -0.721703D-02
     22 -0.584021D-01 -0.755686D-01  0.567744D-03  0.999794D-01  0.102302D+00
     23 -0.768143D-01  0.544829D-01  0.179574D-01  0.113669D+00  0.204049D-01
     24  0.120991D-01  0.257496D-01  0.135731D+00  0.766690D-01  0.497417D-01
     25  0.361465D-01 -0.790626D-01  0.123777D+00 -0.304496D-02 -0.664071D-02
     26 -0.620800D-01  0.726682D-01  0.615782D-01  0.171412D-01 -0.332774D-02
     27  0.833944D-01  0.291133D-01  0.778693D-02 -0.138708D-01 -0.993674D-02
     28 -0.433999D+01 -0.324327D+00  0.442011D+00  0.811508D-01 -0.350370D-01
     29 -0.294649D+00 -0.367391D+01 -0.109793D+01 -0.454001D-01  0.144902D+00
     30  0.416439D+00 -0.116585D+01 -0.259261D+01 -0.882343D-01 -0.864669D-01
     31 -0.394849D+01 -0.101077D+01 -0.503903D+00  0.155838D+00 -0.105778D+00
     32 -0.113676D+01 -0.289427D+01  0.825206D+00 -0.708448D-01  0.410888D-01
     33 -0.596706D+00  0.863300D+00 -0.408717D+01 -0.581937D-01 -0.148090D+00
     34  0.875702D-01 -0.103452D+00 -0.801494D-01 -0.398226D+01 -0.885374D+00
     35 -0.776815D-01  0.470667D-01 -0.876373D-01 -0.980898D+00 -0.317995D+01
     36 -0.604367D-01 -0.689214D-01 -0.280182D-01 -0.611938D+00  0.838662D+00
     37  0.584567D-01 -0.283080D-01 -0.148088D+00 -0.464886D+01 -0.396470D+00
     38 -0.457552D-01  0.175068D+00 -0.816019D-01 -0.426879D+00 -0.373013D+01
     39 -0.148445D+00 -0.680211D-01 -0.695066D-01  0.528592D+00 -0.133209D+01
     40 -0.109608D-01  0.139667D-01  0.737152D-02  0.365133D-04 -0.574403D-01
     41  0.571087D-02 -0.241894D-01  0.756318D-02 -0.779735D-01  0.182992D+00
     42 -0.309256D-01 -0.136367D-01 -0.816030D-02  0.236755D+00  0.937392D-01
     43  0.245776D-01  0.778138D-01  0.703003D-02 -0.206407D-01 -0.106579D+00
     44  0.100114D+00  0.718123D-01  0.335718D-02 -0.102095D+00  0.104835D+00
     45  0.879766D-02  0.130820D-01 -0.433773D-01  0.635092D-01  0.652148D-01
     46  0.207794D-01  0.922736D-02  0.154144D-01 -0.141837D-01 -0.252427D-01
     47  0.160852D-01 -0.106672D-01  0.597312D-02 -0.104408D-01 -0.924017D-02
     48  0.382073D-01  0.843497D-02 -0.181312D-02  0.103094D-01 -0.103126D-01
     49  0.136290D-01  0.309381D-02 -0.729169D-02  0.210173D+00  0.287077D-01
     50  0.842500D-02 -0.617511D-02 -0.354902D-02  0.433915D-01 -0.535676D-01
[...]
 .00117013,-0.01172871,0.00307086,0.06612923,-0.27399084,0.04244991,-0.
 00006257,0.00028839,-0.00000006,0.00587622,-0.01852924,0.00202546,0.00
 015194,-0.00003110,-0.00003902,0.00035877,0.00075195,0.00097610,-0.000
 03786,-0.00000192,0.00005647,0.00020593,0.00008135,-0.00012148,-0.0007
 8167,0.00056408,0.00040232,-0.00071090,-0.00008102,-0.00005023,-0.0004
 1620,-0.00055411,0.00044254,-0.00052480,-0.00014410,0.00208638,-0.0726
 4590,0.30075855,-0.00131241,0.00121899,0.00148216,-0.00410937,0.024043
 78,-0.00580348,-0.01372920,0.04333417,-0.05389326,-0.00004859,-0.00009
 665,0.00002116,0.00849963,-0.02879920,0.00333367,-0.00012217,0.0001068
 0,-0.00006604,0.00133500,0.00020093,0.00149838,0.00002101,-0.00002761,
 -0.00000869,-0.00011957,-0.00015827,0.00004667,0.00015471,-0.00058676,
 -0.00045912,0.00032722,-0.00023302,0.00032692,0.00022972,0.00029042,-0
 .00086238,0.00150717,0.00105655,-0.00346946,0.01041492,-0.04575040,0.0
 6303323,-0.00066719,-0.00258368,0.00256409,-0.01414785,0.00116609,-0.0
 0296602,-0.29819814,-0.00228474,-0.05749559,-0.00058477,0.00086894,-0.
 00009755,-0.00356800,0.00049056,-0.00069727,-0.00014501,-0.00003883,-0
 .00003839,0.00157045,-0.00071160,-0.00112180,-0.00024435,-0.00011128,0
 .00027629,0.00004158,-0.00002306,-0.00003087,0.00004539,0.00007268,-0.
 00001373,0.00044678,-0.00013916,-0.00002341,0.00153263,0.00033847,0.00
 025915,-0.00060601,-0.00021958,0.00054721,-0.00884171,0.00055527,-0.00
 213676,0.32250030,0.00036736,-0.00082998,0.00049442,-0.01176135,0.0000
 4828,-0.00185991,-0.00131603,-0.04923911,0.00075417,-0.00049050,0.0003
 5447,-0.00004799,-0.02003975,-0.00121404,-0.00578502,0.00004952,0.0000
 6717,-0.00007849,0.00074114,-0.00165710,-0.00336043,-0.00008421,-0.000
 04201,0.00014244,0.00004431,0.00006810,-0.00003008,-0.00005157,0.00017
 436,0.00018332,-0.00027903,-0.00010074,-0.00010411,0.00029730,0.001207
 35,-0.00046054,-0.00024781,-0.00055974,0.00022688,0.03060419,0.0008534
 2,0.00753779,0.00307210,0.04945293,0.00184412,0.00316955,-0.00313362,0
 .02636013,-0.00105087,0.00210295,-0.05798993,0.00030267,-0.05773643,0.
 00119842,-0.00102225,-0.00008040,-0.02877399,-0.00001123,-0.00818325,0
 .00005068,-0.00000810,0.00010064,0.00105002,-0.00372381,-0.00474645,0.
 00034219,0.00014191,-0.00039968,-0.00006459,-0.00000255,0.00004405,-0.
 00009927,-0.00012027,-0.00002526,-0.00002682,0.00009933,0.00008984,0.0
 0078263,-0.00033732,0.00126503,0.00042765,0.00060451,-0.00036793,-0.00
 523698,-0.00002508,-0.00188904,0.06102593,0.00146045,0.07154928,-0.000
 17522,-0.00010536,-0.00014616,-0.00006730,0.00076017,-0.00005919,0.001
 14529,-0.00431074,0.00040567,0.00005033,0.00004341,0.00005999,-0.07887
 356,0.08261189,-0.01303136,-0.00002799,-0.00000856,0.00000908,-0.01417
 458,0.03060913,-0.00644102,0.00001745,-0.00001581,-0.00002254,-0.00002
 561,-0.00000627,-0.00000922,0.00005745,-0.00003205,0.00003350,0.000092
 43,-0.00002490,-0.00006157,-0.00004807,-0.00015449,-0.00002295,-0.0002
 7048,-0.00008183,0.00033531,0.00078994,-0.00058788,-0.00106238,0.00036
 696,-0.00028390,0.00045597,0.08836071,0.00011981,0.00032827,0.00017600
 ,-0.00075843,0.00057959,0.00103015,0.00566121,-0.01925272,0.00152477,0
 .00001400,-0.00000260,-0.00000062,0.08350880,-0.26660784,0.03996053,0.
 00004196,0.00000626,-0.00001143,-0.00114388,0.00315729,-0.00047458,0.0
 0001396,0.00000345,-0.00001455,0.00003297,0.00002117,-0.00001501,-0.00
 021659,0.00011271,0.00008823,-0.00009967,-0.00000234,-0.00003793,0.000
 01699,0.00020005,-0.00003758,0.00052508,0.00062314,-0.00062104,-0.0010
 3329,-0.00066102,-0.00368058,-0.00050623,0.00048485,0.00005357,-0.0902
 6545,0.29110672,0.00017939,-0.00011713,-0.00015067,-0.00056484,-0.0015
 0935,0.00211623,0.00964905,-0.02807361,0.00151822,0.00002545,0.0000749
 1,0.00003309,-0.01330853,0.04113683,-0.05487626,0.00001591,-0.00001783
 ,0.00000474,-0.00407364,0.00950801,-0.00225097,-0.00000533,-0.00000182
 ,0.00000073,0.00004212,0.00003724,-0.00003371,0.00000784,0.00023005,0.
 00004760,-0.00004055,-0.00001733,-0.00003990,-0.00011561,0.00005188,0.
 00015317,0.00020535,0.00091322,0.00007015,-0.00044592,-0.00346826,-0.0
 0455637,0.00009042,0.00087505,0.00128574,0.01873829,-0.04040507,0.0602
 5484,-0.00010776,0.00013499,-0.00049107,0.00124594,-0.00062939,-0.0007
 5751,0.00189881,0.00206545,-0.00319886,0.00009871,-0.00010506,-0.00000
 160,-0.12725756,-0.05811564,0.10511258,-0.00000669,0.00001501,0.000009
 60,-0.02053282,-0.01450079,0.02264631,0.00002736,0.00001856,-0.0000241
 0,0.00000526,0.00004466,-0.00002743,0.00007188,0.00000622,0.00007238,0
 .00012324,-0.00013492,0.00001910,-0.00006651,-0.00002265,-0.00005157,-
 0.00016457,-0.00003667,-0.00003447,-0.00004688,0.00014961,0.00030440,0
 .00045723,0.00049039,0.00008696,0.00636650,0.00402482,-0.00878709,0.14
 128089,-0.00008219,0.00045432,-0.00002572,-0.00148194,-0.00208273,-0.0
 0260200,0.01114371,0.00691352,-0.01580693,0.00011818,-0.00007848,-0.00
 001498,-0.05852132,-0.09337706,0.07883304,0.00000787,0.00003251,-0.000
 00071,-0.00089666,-0.00089094,0.00060250,0.00004311,0.00002217,-0.0000
 2590,0.00001342,0.00001776,-0.00000223,-0.00008054,0.00002433,0.000028
 26,0.00005626,-0.00006676,0.00007949,0.00040733,0.00045341,-0.00072296
 ,0.00014497,0.00039382,-0.00011803,0.00042618,0.00076488,0.00070163,0.
 00003344,0.00057689,0.00091092,-0.01692285,-0.01246988,0.02191076,0.06
 609983,0.09790980,-0.00039143,0.00039684,-0.00053433,-0.00197303,-0.00
 392577,-0.00332050,0.01522278,0.01182843,-0.02123520,0.00016557,-0.000
 19855,0.00003852,0.10552204,0.07774010,-0.18398364,0.00001600,0.000080
 55,0.00000451,-0.00766142,-0.00539671,0.00842848,0.00011026,0.00003128
 ,-0.00008187,-0.00001533,0.00003551,-0.00001724,0.00007612,-0.00009026
 ,-0.00001923,0.00010002,-0.00008210,0.00010817,0.00079961,0.00018084,-
 0.00128426,-0.00020068,-0.00034454,0.00045708,0.00035155,-0.00019994,0
 .00114175,-0.00054860,0.00055751,0.00052393,0.00223964,0.00232833,-0.0
 0409590,-0.11230165,-0.08260289,0.20267263,0.00054145,0.00039327,0.001
 12121,0.00024447,0.00019726,0.00007686,-0.00001169,-0.00011339,-0.0000
 5678,-0.00456603,-0.01371084,-0.00476685,0.00001666,0.00003854,-0.0000
 2003,-0.06856094,-0.06722749,-0.02208387,-0.00000271,-0.00001212,0.000
 01554,-0.00007791,-0.00024455,0.00053659,-0.00050128,0.00059912,-0.002
 68487,0.00037877,0.00030539,-0.00019354,-0.00012350,0.00012496,0.00015
 141,-0.00011903,0.00003339,-0.00027795,-0.00008850,-0.00005585,-0.0000
 9724,-0.00000157,-0.00001493,0.00000742,0.00000833,0.00000323,-0.00000
 202,-0.00000016,-0.00000667,-0.00000080,0.00000650,-0.00000555,-0.0000
 1746,0.07039544,0.00021736,0.00112616,0.00037676,0.00001988,-0.0000285
 6,-0.00028096,-0.00000227,0.00002598,0.00004593,0.00035224,0.00228313,
 0.00054358,0.00001608,-0.00000456,0.00000120,-0.06743475,-0.26579480,-
 0.07326442,-0.00001208,0.00000505,0.00001512,-0.00033076,0.00043865,-0
 .00051028,-0.00000396,0.00156663,0.00103352,0.00028435,0.00006784,-0.0
 0073586,0.00012729,0.00022116,-0.00002332,0.00014559,-0.00022919,-0.00
 018599,0.00005264,0.00010051,0.00014867,-0.00000539,0.00001982,-0.0000
 2121,0.00004294,-0.00001057,-0.00002795,-0.00000625,0.00000427,0.00000
 620,0.00000484,0.00000116,-0.00001005,0.07482135,0.28740878,-0.0002739
 3,-0.00178598,0.00175102,0.00010668,0.00002697,-0.00012513,0.00011010,
 0.00005631,0.00003200,-0.00841107,-0.02898122,-0.01134017,-0.00001816,
 -0.00001463,-0.00001348,-0.02186368,-0.07285659,-0.07066814,-0.0000306
 8,-0.00000634,0.00006067,0.00024711,0.00041580,0.00113629,-0.00295671,
 0.00088542,-0.00553526,0.00037202,0.00099608,-0.00014735,-0.00005682,0
 .00032778,0.00045949,0.00018717,-0.00013063,-0.00000525,-0.00017219,0.
 00016232,0.00014753,0.00001336,0.00002000,-0.00003050,0.00001699,0.000
 00587,-0.00001582,-0.00000143,0.00000747,0.00000794,0.00001292,0.00000
 609,0.00001792,0.02753738,0.08098339,0.07842327,-0.00001693,-0.0004404
 7,0.00027091,-0.00076453,-0.00029387,0.00024753,0.00038569,-0.00010209
 ,0.00015981,-0.01160787,0.00772348,-0.00034697,-0.00004218,-0.00003754
 ,0.00003529,-0.21941156,0.12874884,0.00294086,-0.00001129,-0.00000688,
 -0.00001244,0.00012654,-0.00034270,-0.00297771,0.00024354,-0.00034020,
 0.00020429,0.00003225,-0.00002556,0.00001033,0.00005392,0.00004414,-0.
 00007076,-0.00000819,-0.00033355,0.00163967,-0.00001269,0.00007446,-0.
 00032421,-0.00005463,-0.00005609,0.00008512,0.00004167,0.00002284,-0.0
 0005133,0.00001438,-0.00000919,-0.00000783,0.00000395,0.00001411,0.000
 01913,0.00871562,-0.00611958,0.00026471,0.23910575,0.00083447,-0.00031
 712,-0.00016830,0.00076198,0.00057585,0.00039283,-0.00040165,-0.000140
 03,-0.00021555,-0.00032069,-0.00068058,0.00007389,0.00007156,0.0001229
 6,-0.00005880,0.12848266,-0.14371533,-0.00193806,0.00003311,-0.0000021
 5,-0.00001162,-0.00036424,0.00129169,-0.00001293,-0.00038303,0.0006265
 9,0.00047677,0.00001706,0.00004527,0.00003789,-0.00020928,0.00009014,0
 .00008457,-0.00081550,-0.00019008,-0.00004629,-0.00003014,-0.00022962,
 0.00006082,0.00002839,0.00005550,-0.00008329,-0.00003497,-0.00001605,0
 .00004808,-0.00000463,-0.00000556,0.00000842,-0.00000605,-0.00003141,-
 0.00005926,0.02435357,-0.01703631,-0.00036821,-0.14137029,0.15172440,-
 0.00020271,0.00001966,0.00140199,0.00060665,0.00049741,-0.00018283,0.0
 0016352,-0.00002944,-0.00001050,-0.02626778,0.01934896,0.00121812,-0.0
 0005610,-0.00007188,0.00000437,0.00393121,-0.00301186,-0.04654678,-0.0
 0001193,0.00000793,0.00000272,-0.00262537,0.00052429,-0.00587045,0.000
 65274,-0.00036780,0.00158348,0.00006439,-0.00000657,-0.00010687,0.0001
 5555,-0.00026310,0.00013558,0.00106160,0.00043037,-0.00110888,0.000017
 35,-0.00039182,-0.00021912,-0.00006322,-0.00007349,0.00007921,-0.00001
 690,-0.00000484,-0.00000002,0.00001978,-0.00000025,-0.00001524,0.00000
 543,0.00001373,0.00005737,0.00830146,-0.00496397,-0.00126961,-0.002168
 77,0.00242196,0.05141922,-0.00144538,-0.00004757,-0.00277976,-0.000609
 37,-0.00016143,-0.00025954,0.00033681,0.00007381,0.00013255,0.01073758
 ,0.00699224,-0.01139975,-0.00006203,-0.00009470,0.00004605,-0.16325089
 ,-0.06571243,0.11803873,-0.00002450,0.00000754,-0.00001810,0.00093241,
 0.00009638,0.00068954,0.00032141,-0.00013467,0.00082185,-0.00008932,0.
 00006103,-0.00001008,0.00045032,0.00036047,-0.00069115,0.00050869,0.00
 008776,0.00036931,0.00003553,-0.00000150,-0.00004407,-0.00004003,-0.00
 005810,0.00007806,0.00003579,-0.00000278,-0.00003660,0.00001025,0.0000
 0361,-0.00001079,0.00000295,0.00002030,0.00005263,-0.00625028,-0.00218
 097,0.00492041,-0.01680110,-0.01061895,0.01644266,0.17518373,0.0007260
 6,0.00050134,0.00068881,0.00035433,0.00021175,-0.00005306,-0.00014598,
 0.00002759,-0.00007317,-0.00051932,-0.00165442,0.00035450,0.00002708,0
 .00002591,-0.00002756,-0.06528363,-0.08395584,0.06531939,0.00001878,0.
 00002558,0.00001369,-0.00005020,-0.00010264,0.00017963,0.00041513,0.00
 018721,0.00007282,0.00016464,0.00043727,-0.00030511,-0.00023447,0.0002
 3546,0.00034839,-0.00012943,-0.00018973,-0.00027335,-0.00001515,0.0000
 3358,0.00016234,0.00003945,0.00002109,-0.00005684,-0.00001712,-0.00001
 779,0.00001771,-0.00000300,0.00000508,0.00000616,-0.00000637,-0.000010
 23,-0.00000738,-0.01948921,-0.01016574,0.02022876,0.01284828,0.0078305
 6,-0.01406736,0.07132637,0.08656322,-0.00467018,-0.00102475,-0.0045579
 2,-0.00070114,0.00027512,0.00016248,0.00011103,-0.00000430,0.00009029,
 0.02074628,0.01162852,-0.01909268,-0.00002020,0.00003564,0.00003322,0.
 11684129,0.06503508,-0.16346661,-0.00002810,-0.00002821,-0.00006086,-0
 .00004884,0.00031910,0.00142825,0.00029788,-0.00069706,0.00063052,-0.0
 0009538,0.00007650,0.00017415,0.00115766,0.00089041,-0.00129115,0.0000
 6866,-0.00002760,0.00014157,0.00003935,-0.00007989,0.00001389,-0.00002
 899,-0.00004724,0.00001418,0.00008397,-0.00002850,-0.00005134,0.000007
 34,-0.00002051,0.00000226,0.00000980,0.00000149,-0.00003115,-0.0075529
 3,-0.00313307,0.00710978,0.00007334,-0.00063977,-0.00057787,-0.1263499
 2,-0.07253688,0.17930969,0.00021176,0.00054360,-0.00011344,0.00005366,
 -0.00090377,-0.00036672,0.00093664,0.00032915,0.00086545,0.00010634,0.
 00007214,-0.00009726,-0.01891856,-0.01552234,0.02287649,-0.00000794,-0
 .00004635,0.00002393,-0.13065427,-0.07126473,0.10111517,-0.00000940,0.
 00003532,0.00002264,0.00004249,-0.00011008,-0.00010045,-0.00004389,0.0
 0009443,0.00022196,0.00036343,0.00027357,0.00042867,0.00012657,0.00033
 978,0.00005853,-0.00023614,0.00045772,-0.00064101,-0.00005100,0.000026
 29,-0.00013757,0.00017068,0.00023161,-0.00002432,0.00129269,0.00052559
 ,0.00028449,-0.00584266,-0.00016147,-0.00298273,-0.00000555,0.00000523
 ,-0.00001280,-0.00000811,0.00000121,-0.00002215,-0.00000644,-0.0000097
 8,0.00001809,0.14490584,-0.00044025,0.00016728,-0.00074236,-0.00004597
 ,0.00024312,0.00003969,-0.00045873,-0.00011338,0.00087120,0.00030669,0
 .00015947,-0.00000362,-0.00046447,-0.00121862,0.00015831,-0.00010791,-
 0.00006029,0.00005337,-0.07096182,-0.10734075,0.08505987,-0.00000421,-
 0.00001691,-0.00002037,-0.00001795,-0.00003933,-0.00011069,0.00019598,
 0.00005156,0.00035691,0.00044473,-0.00121685,-0.00037701,0.00020434,-0
 .00000837,-0.00002038,-0.00001427,0.00001566,0.00004034,-0.00002587,-0
 .00000662,-0.00001085,0.00007864,0.00003899,-0.00016857,-0.00001497,0.
 00045976,-0.00064767,0.00002676,0.00120842,-0.00025982,0.00000747,0.00
 000673,-0.00000214,0.00003014,-0.00000867,0.00000798,0.00000885,-0.000
 02390,0.00007379,0.07801550,0.11291556,0.00024626,-0.00084334,-0.00058
 827,-0.00007625,-0.00048565,-0.00022305,0.00050668,-0.00028669,0.00040
 424,-0.00012222,-0.00017980,-0.00003965,-0.00586617,-0.00590894,0.0086
 5463,-0.00001005,0.00006428,-0.00002263,0.10189839,0.08638419,-0.16851
 861,-0.00003090,0.00004728,0.00006364,0.00008550,0.00020427,0.00012413
 ,-0.00006995,0.00003581,-0.00010627,-0.00015079,-0.00094404,-0.0010321
 7,0.00001415,0.00002113,0.00014435,-0.00032324,0.00029196,-0.00041722,
 -0.00000212,-0.00000518,-0.00003274,0.00014922,0.00019767,0.00012315,0
 .00088239,0.00002216,0.00044052,-0.00277673,-0.00060633,0.00018136,0.0
 0001658,0.00000192,0.00002021,-0.00000194,0.00001237,-0.00001897,-0.00
 001623,0.00001132,0.00001045,-0.11104745,-0.09316116,0.18283303,-0.000
 03684,-0.00018710,-0.00003427,-0.00002320,-0.00024336,0.00000113,0.001
 76375,0.00084114,0.00085998,0.00002845,-0.00006171,0.00001334,-0.01328
 217,0.03097773,-0.00543148,-0.00001316,0.00002091,0.00000034,-0.083949
 28,0.09072753,-0.01448024,-0.00000353,0.00001122,0.00001027,0.00001340
 ,0.00000949,-0.00001253,-0.00000199,-0.00000029,-0.00005558,0.00012055
 ,-0.00003459,0.00006941,0.00002538,0.00007689,-0.00002635,-0.00011509,
 0.00002410,0.00013709,0.00014212,-0.00089946,-0.00041719,0.00021062,-0
 .00024823,0.00043763,-0.00611452,-0.00106316,-0.00217346,0.00100800,-0
 .00006902,0.00075824,0.00000346,0.00000114,0.00000647,-0.00000045,-0.0
 0000275,-0.00000174,0.00000146,-0.00000019,0.00000220,0.00707546,-0.01
 723814,0.00166594,0.09345883,0.00067318,-0.00002390,0.00032544,0.00010
 535,-0.00036022,-0.00004220,-0.00022514,0.00132710,0.00005768,-0.00024
 704,-0.00008747,-0.00018228,-0.00079046,0.00264361,-0.00071449,0.00009
 247,0.00005963,-0.00003950,0.09098764,-0.26844780,0.03645277,-0.000027
 88,0.00001492,0.00004408,0.00004261,0.00003543,-0.00001543,-0.00006724
 ,0.00000363,-0.00005392,-0.00024276,0.00002369,-0.00037694,-0.00006766
 ,0.00013418,0.00003632,-0.00001344,0.00016111,-0.00002411,0.00034557,0
 .00005731,0.00072441,-0.00001270,0.00019347,0.00010644,-0.00082878,0.0
 0155237,-0.00072135,0.00063710,0.00038824,0.00002811,0.00000390,-0.000
 00144,0.00001199,-0.00002363,0.00001326,-0.00002114,-0.00002116,0.0000
 1009,-0.00004137,0.00548214,-0.01360508,0.00102231,-0.10089885,0.29014
 029,-0.00038913,0.00018786,-0.00031102,-0.00018414,0.00039718,-0.00024
 402,0.00026099,0.00137970,0.00056885,0.00023743,0.00011181,0.00009375,
 -0.00412046,0.00948255,-0.00259598,-0.00010509,-0.00007897,0.00004856,
 -0.01421086,0.03574622,-0.05335609,0.00000464,-0.00000708,-0.00001985,
 -0.00004900,-0.00006128,0.00003443,0.00006909,-0.00004780,0.00008531,0
 .00049026,0.00013053,-0.00045068,0.00005620,-0.00021517,-0.00004315,-0
 .00003269,-0.00024530,0.00011000,0.00000890,-0.00042152,0.00001338,0.0
 0018413,-0.00017718,0.00012137,-0.00231139,-0.00023403,0.00020273,0.00
 032144,-0.00054003,0.00016896,-0.00000158,0.00000321,-0.00002180,0.000
 01941,-0.00000579,0.00000953,0.00001441,-0.00001510,0.00005532,-0.0091
 6655,0.02008257,-0.00354362,0.01785020,-0.03953600,0.05370781,-0.00050
 342,0.00038521,-0.00023185,-0.00031803,-0.00003788,0.00034362,-0.00683
 436,0.00088426,-0.00038675,0.00023700,0.00000936,0.00008649,-0.0009983
 7,-0.01788290,-0.02924062,-0.00008096,-0.00002244,0.00003995,-0.046319
 26,-0.00543559,-0.00946814,0.00002633,0.00001654,-0.00002602,0.0000025
 8,0.00000524,-0.00003794,0.00007450,0.00003022,0.00019833,0.00039160,-
 0.00013689,0.00045965,0.00016045,0.00006514,-0.00003250,0.00007228,0.0
 0017578,-0.00004338,0.00004026,-0.00004642,0.00023083,-0.00042537,-0.0
 0111881,-0.00175645,0.00121310,0.00061375,0.00029607,0.00142823,-0.000
 30718,0.00065873,-0.00000153,0.00000507,0.00000214,0.00001622,-0.00002
 184,0.00001433,0.00002244,-0.00001629,0.00003881,0.00049840,0.01047547
 ,0.01502890,-0.00031126,0.00509679,0.01105380,0.05160916,0.00037490,0.
 00009236,0.00021216,0.00006107,-0.00001106,0.00000514,-0.00099341,0.00
 075580,0.00046169,-0.00012220,-0.00005082,-0.00009974,0.00007049,-0.00
 163721,-0.00035304,0.00005363,0.00004536,-0.00001804,-0.00598253,-0.11
 740502,-0.11761178,0.00000956,0.00000076,0.00000244,0.00002016,0.00003
 426,-0.00003373,0.00000374,0.00003146,0.00004031,-0.00014015,-0.000100
 86,-0.00010107,0.00004073,0.00010804,-0.00003974,-0.00006974,0.0001261
 8,-0.00014250,0.00014181,0.00041253,0.00028920,-0.00003618,0.00016682,
 -0.00041716,-0.00036688,0.00035696,0.00022067,-0.00016071,-0.00015379,
 -0.00003023,-0.00000085,-0.00000471,0.00001149,-0.00000465,-0.00000332
 ,0.00000123,-0.00000410,0.00000455,-0.00002650,0.00158523,0.00839222,0
 .01410444,-0.00174331,-0.01423245,-0.02593639,0.00726339,0.12307193,0.
 00012827,-0.00016593,0.00028708,0.00004907,-0.00004294,0.00045737,-0.0
 0227105,0.00067627,0.00073985,-0.00008643,-0.00007928,0.00002523,0.000
 72665,-0.00389297,-0.00757608,0.00005490,0.00003342,-0.00002677,-0.010
 63474,-0.11753246,-0.24661631,0.00003615,-0.00001258,-0.00003363,-0.00
 002031,0.00000623,0.00003297,-0.00005522,-0.00002905,-0.00018591,-0.00
 024825,0.00012892,-0.00031485,-0.00008722,-0.00004527,-0.00001872,0.00
 012288,-0.00005407,0.00016588,0.00007996,-0.00003564,0.00008037,-0.000
 01054,-0.00049848,-0.00057674,-0.00001773,0.00036197,-0.00011895,-0.00
 014885,-0.00001920,0.00080264,-0.00000855,-0.00000243,0.00000639,-0.00
 000845,-0.00000973,0.00001554,0.00000979,0.00001229,-0.00004647,-0.001
 20294,-0.01121938,-0.01845653,0.00082061,0.00295916,0.00536622,0.01277
 201,0.12946113,0.26599143\\0.00000042,0.00000073,-0.00000014,-0.000000
 06,-0.00000159,0.00000083,0.00000151,-0.00000171,0.00000129,-0.0000013
 4,0.00000146,-0.00000096,0.00000086,-0.00000075,0.00000082,-0.00000256
 ,-0.00000042,-0.00000088,0.00000126,0.00000163,-0.00000065,-0.00000050
 ,0.00000273,-0.00000157,-0.00000244,0.00000188,-0.00000189,0.00000193,
 0.00000015,0.00000073,0.00000143,0.00000206,-0.00000038,-0.00000088,-0
 .00000273,0.00000111,-0.00000182,-0.00000081,-0.00000004,0.00000304,-0
 .00000123,0.00000182,0.00000125,-0.00000343,0.00000222,-0.00000053,-0.
 00000148,0.00000047,0.00000233,-0.00000116,0.00000157,-0.00000111,-0.0
 0000104,0.00000008,-0.00000323,-0.00000184,-0.00000052,-0.00000362,0.0
 0000022,-0.00000153,-0.00000009,0.00000245,-0.00000147,0.00000296,0.00
 000249,-0.00000012,0.00000117,0.00000241,-0.00000079\\\@


 MEN HAVE BECOME THE TOOLS OF THEIR TOOLS... THOREAU   
 Job cpu time:       0 days  5 hours 27 minutes  0.0 seconds.
 Elapsed time:       0 days  2 hours 43 minutes 32.3 seconds.
 File lengths (MBytes):  RWF=   1488 Int=      0 D2E=      0 Chk=     32 Scr=     32
 Normal termination of Gaussian 16 at Fri Sep 27 23:53:52 2019.
