 Entering Gaussian System, Link 0=g16
 Input=med/species/CCCCCCC/conformers/CCCCCCC_622.com
 Output=med/species/CCCCCCC/conformers/CCCCCCC_622.log
 Initial command:
 /shared/centos7/gaussian/g16/l1.exe "/scratch/harms.n/gauss_scrdir/Gau-38154.inp" -scrdir="/scratch/harms.n/gauss_scrdir/"
 Entering Link 1 = /shared/centos7/gaussian/g16/l1.exe PID=     38156.
  
 Copyright (c) 1988,1990,1992,1993,1995,1998,2003,2009,2016,
            Gaussian, Inc.  All Rights Reserved.
  
 This is part of the Gaussian(R) 16 program.  It is based on
 the Gaussian(R) 09 system (copyright 2009, Gaussian, Inc.),
 the Gaussian(R) 03 system (copyright 2003, Gaussian, Inc.),
 the Gaussian(R) 98 system (copyright 1998, Gaussian, Inc.),
 the Gaussian(R) 94 system (copyright 1995, Gaussian, Inc.),
 the Gaussian 92(TM) system (copyright 1992, Gaussian, Inc.),
 the Gaussian 90(TM) system (copyright 1990, Gaussian, Inc.),
 the Gaussian 88(TM) system (copyright 1988, Gaussian, Inc.),
 the Gaussian 86(TM) system (copyright 1986, Carnegie Mellon
 University), and the Gaussian 82(TM) system (copyright 1983,
 Carnegie Mellon University). Gaussian is a federally registered
 trademark of Gaussian, Inc.
  
 This software contains proprietary and confidential information,
 including trade secrets, belonging to Gaussian, Inc.
  
 This software is provided under written license and may be
 used, copied, transmitted, or stored only in accord with that
 written license.
  
 The following legend is applicable only to US Government
 contracts under FAR:
  
                    RESTRICTED RIGHTS LEGEND
  
 Use, reproduction and disclosure by the US Government is
 subject to restrictions as set forth in subparagraphs (a)
 and (c) of the Commercial Computer Software - Restricted
 Rights clause in FAR 52.227-19.
  
 Gaussian, Inc.
 340 Quinnipiac St., Bldg. 40, Wallingford CT 06492
  
  
 ---------------------------------------------------------------
 Warning -- This program may not be used in any manner that
 competes with the business of Gaussian, Inc. or will provide
 assistance to any competitor of Gaussian, Inc.  The licensee
 of this program is prohibited from giving any competitor of
 Gaussian, Inc. access to this program.  By using this program,
 the user acknowledges that Gaussian, Inc. is engaged in the
 business of creating and licensing software in the field of
 computational chemistry and represents and warrants to the
 licensee that it is not a competitor of Gaussian, Inc. and that
 it will not use this program in any manner prohibited above.
 ---------------------------------------------------------------
  

 Cite this work as:
 Gaussian 16, Revision A.03,
 M. J. Frisch, G. W. Trucks, H. B. Schlegel, G. E. Scuseria, 
 M. A. Robb, J. R. Cheeseman, G. Scalmani, V. Barone, 
 G. A. Petersson, H. Nakatsuji, X. Li, M. Caricato, A. V. Marenich, 
 J. Bloino, B. G. Janesko, R. Gomperts, B. Mennucci, H. P. Hratchian, 
 J. V. Ortiz, A. F. Izmaylov, J. L. Sonnenberg, D. Williams-Young, 
 F. Ding, F. Lipparini, F. Egidi, J. Goings, B. Peng, A. Petrone, 
 T. Henderson, D. Ranasinghe, V. G. Zakrzewski, J. Gao, N. Rega, 
 G. Zheng, W. Liang, M. Hada, M. Ehara, K. Toyota, R. Fukuda, 
 J. Hasegawa, M. Ishida, T. Nakajima, Y. Honda, O. Kitao, H. Nakai, 
 T. Vreven, K. Throssell, J. A. Montgomery, Jr., J. E. Peralta, 
 F. Ogliaro, M. J. Bearpark, J. J. Heyd, E. N. Brothers, K. N. Kudin, 
 V. N. Staroverov, T. A. Keith, R. Kobayashi, J. Normand, 
 K. Raghavachari, A. P. Rendell, J. C. Burant, S. S. Iyengar, 
 J. Tomasi, M. Cossi, J. M. Millam, M. Klene, C. Adamo, R. Cammi, 
 J. W. Ochterski, R. L. Martin, K. Morokuma, O. Farkas, 
 J. B. Foresman, and D. J. Fox, Gaussian, Inc., Wallingford CT, 2016.
 
 ******************************************
 Gaussian 16:  EM64L-G16RevA.03 25-Dec-2016
                28-Sep-2019 
 ******************************************
 %nprocshared=20
 Will use up to   20 processors via shared memory.
 %mem=5GB
 ----------------------------------------------------------------------
 #p m062x/cc-pVTZ opt=(calcfc,maxcycles=900,Tight) freq IOP(7/33=1,2/16
 =3) scf=(maxcycle=900)
 ----------------------------------------------------------------------
 1/6=900,7=10,10=4,18=20,19=15,26=3,38=1/1,3;
 2/9=110,12=2,16=3,17=6,18=5,40=1/2;
 3/5=16,6=1,11=2,25=1,30=1,71=2,74=-55,140=1/1,2,3;
 4//1;
 5/5=2,7=900,38=5/2;
 8/6=4,10=90,11=11/1;
 11/6=1,8=1,9=11,15=111,16=1/1,2,10;
 10/6=1,13=1/2;
 6/7=2,8=2,9=2,10=2,28=1/1;
 7/10=1,18=20,25=1,33=1/1,2,3,16;
 1/6=900,7=10,10=4,18=20,19=15,26=3/3(2);
 2/9=110,16=3/2;
 99//99;
 2/9=110,16=3/2;
 3/5=16,6=1,11=2,25=1,30=1,71=1,74=-55/1,2,3;
 4/5=5,16=3,69=1/1;
 5/5=2,7=900,38=5/2;
 7/33=1/1,2,3,16;
 1/6=900,7=10,18=20,19=15,26=3/3(-5);
 2/9=110,16=3/2;
 6/7=2,8=2,9=2,10=2,19=2,28=1/1;
 99/9=1/99;
 Leave Link    1 at Sat Sep 28 00:24:15 2019, MaxMem=   671088640 cpu:               3.5 elap:               2.3
 (Enter /shared/centos7/gaussian/g16/l101.exe)
 ------------------------------
 Gaussian input prepared by ASE
 ------------------------------
 Symbolic Z-matrix:
 Charge =  0 Multiplicity = 1
 C                     1.4356   -1.16552   0.55299 
 C                     0.15839  -0.45841   0.85416 
 C                    -0.1407    0.80291   0.08305 
 C                     2.35455  -0.54067  -0.44205 
 C                    -0.33877   0.61064  -1.40204 
 C                     2.40733  -1.2486   -1.73265 
 C                    -0.46924   1.90184  -2.16735 
 H                     3.3878   -0.48142   0.00296 
 H                     2.06385   0.52295  -0.61512 
 H                     1.20333  -2.1936    0.20273 
 H                     1.98709  -1.30846   1.50487 
 H                     0.14335  -0.19567   1.92347 
 H                    -0.68581  -1.16714   0.71897 
 H                     0.67302   1.53005   0.24504 
 H                    -1.05125   1.26043   0.52207 
 H                     0.52854   0.02734  -1.80832 
 H                    -1.23431  -0.00953  -1.57714 
 H                     1.94596  -2.25281  -1.68189 
 H                     1.84723  -0.68139  -2.53396 
 H                     3.44961  -1.38535  -2.09104 
 H                     0.05459   2.7238   -1.6779 
 H                    -1.55047   2.19413  -2.27398 
 H                    -0.04295   1.78932  -3.20538 
 
 ITRead=  0  0  0  0  0  0  0  0  0  0  0  0  0  0  0  0  0  0  0  0
 ITRead=  0  0  0
 MicOpt= -1 -1 -1 -1 -1 -1 -1 -1 -1 -1 -1 -1 -1 -1 -1 -1 -1 -1 -1 -1
 MicOpt= -1 -1 -1
 NAtoms=     23 NQM=       23 NQMF=       0 NMMI=      0 NMMIF=      0
                NMic=       0 NMicF=      0.
                    Isotopes and Nuclear Properties:
 (Nuclear quadrupole moments (NQMom) in fm**2, nuclear magnetic moments (NMagM)
  in nuclear magnetons)

  Atom         1           2           3           4           5           6           7           8           9          10
 IAtWgt=          12          12          12          12          12          12          12           1           1           1
 AtmWgt=  12.0000000  12.0000000  12.0000000  12.0000000  12.0000000  12.0000000  12.0000000   1.0078250   1.0078250   1.0078250
 NucSpn=           0           0           0           0           0           0           0           1           1           1
 AtZEff=  -0.0000000  -0.0000000  -0.0000000  -0.0000000  -0.0000000  -0.0000000  -0.0000000  -0.0000000  -0.0000000  -0.0000000
 NQMom=    0.0000000   0.0000000   0.0000000   0.0000000   0.0000000   0.0000000   0.0000000   0.0000000   0.0000000   0.0000000
 NMagM=    0.0000000   0.0000000   0.0000000   0.0000000   0.0000000   0.0000000   0.0000000   2.7928460   2.7928460   2.7928460
 AtZNuc=   6.0000000   6.0000000   6.0000000   6.0000000   6.0000000   6.0000000   6.0000000   1.0000000   1.0000000   1.0000000

  Atom        11          12          13          14          15          16          17          18          19          20
 IAtWgt=           1           1           1           1           1           1           1           1           1           1
 AtmWgt=   1.0078250   1.0078250   1.0078250   1.0078250   1.0078250   1.0078250   1.0078250   1.0078250   1.0078250   1.0078250
 NucSpn=           1           1           1           1           1           1           1           1           1           1
 AtZEff=  -0.0000000  -0.0000000  -0.0000000  -0.0000000  -0.0000000  -0.0000000  -0.0000000  -0.0000000  -0.0000000  -0.0000000
 NQMom=    0.0000000   0.0000000   0.0000000   0.0000000   0.0000000   0.0000000   0.0000000   0.0000000   0.0000000   0.0000000
 NMagM=    2.7928460   2.7928460   2.7928460   2.7928460   2.7928460   2.7928460   2.7928460   2.7928460   2.7928460   2.7928460
 AtZNuc=   1.0000000   1.0000000   1.0000000   1.0000000   1.0000000   1.0000000   1.0000000   1.0000000   1.0000000   1.0000000

  Atom        21          22          23
 IAtWgt=           1           1           1
 AtmWgt=   1.0078250   1.0078250   1.0078250
 NucSpn=           1           1           1
 AtZEff=  -0.0000000  -0.0000000  -0.0000000
 NQMom=    0.0000000   0.0000000   0.0000000
 NMagM=    2.7928460   2.7928460   2.7928460
 AtZNuc=   1.0000000   1.0000000   1.0000000
 Leave Link  101 at Sat Sep 28 00:24:16 2019, MaxMem=   671088640 cpu:               2.7 elap:               1.4
 (Enter /shared/centos7/gaussian/g16/l103.exe)

 GradGradGradGradGradGradGradGradGradGradGradGradGradGradGradGradGradGrad
 Berny optimization.
 Initialization pass.
                           ----------------------------
                           !    Initial Parameters    !
                           ! (Angstroms and Degrees)  !
 --------------------------                            --------------------------
 ! Name  Definition              Value          Derivative Info.                !
 --------------------------------------------------------------------------------
 ! R1    R(1,2)                  1.4906         calculate D2E/DX2 analytically  !
 ! R2    R(1,4)                  1.4917         calculate D2E/DX2 analytically  !
 ! R3    R(1,10)                 1.1107         calculate D2E/DX2 analytically  !
 ! R4    R(1,11)                 1.1093         calculate D2E/DX2 analytically  !
 ! R5    R(2,3)                  1.5083         calculate D2E/DX2 analytically  !
 ! R6    R(2,12)                 1.1012         calculate D2E/DX2 analytically  !
 ! R7    R(2,13)                 1.1105         calculate D2E/DX2 analytically  !
 ! R8    R(3,5)                  1.5105         calculate D2E/DX2 analytically  !
 ! R9    R(3,14)                 1.1032         calculate D2E/DX2 analytically  !
 ! R10   R(3,15)                 1.1096         calculate D2E/DX2 analytically  !
 ! R11   R(4,6)                  1.473          calculate D2E/DX2 analytically  !
 ! R12   R(4,8)                  1.1266         calculate D2E/DX2 analytically  !
 ! R13   R(4,9)                  1.1161         calculate D2E/DX2 analytically  !
 ! R14   R(5,7)                  1.5066         calculate D2E/DX2 analytically  !
 ! R15   R(5,16)                 1.1214         calculate D2E/DX2 analytically  !
 ! R16   R(5,17)                 1.1033         calculate D2E/DX2 analytically  !
 ! R17   R(6,18)                 1.1063         calculate D2E/DX2 analytically  !
 ! R18   R(6,19)                 1.1303         calculate D2E/DX2 analytically  !
 ! R19   R(6,20)                 1.1106         calculate D2E/DX2 analytically  !
 ! R20   R(7,21)                 1.0907         calculate D2E/DX2 analytically  !
 ! R21   R(7,22)                 1.1251         calculate D2E/DX2 analytically  !
 ! R22   R(7,23)                 1.1278         calculate D2E/DX2 analytically  !
 ! A1    A(2,1,4)              117.6405         calculate D2E/DX2 analytically  !
 ! A2    A(2,1,10)             108.8825         calculate D2E/DX2 analytically  !
 ! A3    A(2,1,11)             108.2834         calculate D2E/DX2 analytically  !
 ! A4    A(4,1,10)             107.8312         calculate D2E/DX2 analytically  !
 ! A5    A(4,1,11)             108.669          calculate D2E/DX2 analytically  !
 ! A6    A(10,1,11)            104.7907         calculate D2E/DX2 analytically  !
 ! A7    A(1,2,3)              117.601          calculate D2E/DX2 analytically  !
 ! A8    A(1,2,12)             108.7275         calculate D2E/DX2 analytically  !
 ! A9    A(1,2,13)             108.9056         calculate D2E/DX2 analytically  !
 ! A10   A(3,2,12)             107.1095         calculate D2E/DX2 analytically  !
 ! A11   A(3,2,13)             108.7059         calculate D2E/DX2 analytically  !
 ! A12   A(12,2,13)            105.0754         calculate D2E/DX2 analytically  !
 ! A13   A(2,3,5)              114.9728         calculate D2E/DX2 analytically  !
 ! A14   A(2,3,14)             109.2592         calculate D2E/DX2 analytically  !
 ! A15   A(2,3,15)             107.7742         calculate D2E/DX2 analytically  !
 ! A16   A(5,3,14)             108.9638         calculate D2E/DX2 analytically  !
 ! A17   A(5,3,15)             109.5045         calculate D2E/DX2 analytically  !
 ! A18   A(14,3,15)            105.9866         calculate D2E/DX2 analytically  !
 ! A19   A(1,4,6)              113.9057         calculate D2E/DX2 analytically  !
 ! A20   A(1,4,8)              108.8783         calculate D2E/DX2 analytically  !
 ! A21   A(1,4,9)              110.0092         calculate D2E/DX2 analytically  !
 ! A22   A(6,4,8)              109.7874         calculate D2E/DX2 analytically  !
 ! A23   A(6,4,9)              109.3582         calculate D2E/DX2 analytically  !
 ! A24   A(8,4,9)              104.4782         calculate D2E/DX2 analytically  !
 ! A25   A(3,5,7)              113.6829         calculate D2E/DX2 analytically  !
 ! A26   A(3,5,16)             108.7231         calculate D2E/DX2 analytically  !
 ! A27   A(3,5,17)             109.5128         calculate D2E/DX2 analytically  !
 ! A28   A(7,5,16)             109.1916         calculate D2E/DX2 analytically  !
 ! A29   A(7,5,17)             109.3187         calculate D2E/DX2 analytically  !
 ! A30   A(16,5,17)            106.1347         calculate D2E/DX2 analytically  !
 ! A31   A(4,6,18)             112.4037         calculate D2E/DX2 analytically  !
 ! A32   A(4,6,19)             111.2378         calculate D2E/DX2 analytically  !
 ! A33   A(4,6,20)             112.058          calculate D2E/DX2 analytically  !
 ! A34   A(18,6,19)            106.3434         calculate D2E/DX2 analytically  !
 ! A35   A(18,6,20)            107.122          calculate D2E/DX2 analytically  !
 ! A36   A(19,6,20)            107.3411         calculate D2E/DX2 analytically  !
 ! A37   A(5,7,21)             112.1059         calculate D2E/DX2 analytically  !
 ! A38   A(5,7,22)             110.7326         calculate D2E/DX2 analytically  !
 ! A39   A(5,7,23)             110.4441         calculate D2E/DX2 analytically  !
 ! A40   A(21,7,22)            107.9568         calculate D2E/DX2 analytically  !
 ! A41   A(21,7,23)            107.8604         calculate D2E/DX2 analytically  !
 ! A42   A(22,7,23)            107.5742         calculate D2E/DX2 analytically  !
 ! D1    D(4,1,2,3)              2.8147         calculate D2E/DX2 analytically  !
 ! D2    D(4,1,2,12)          -119.0408         calculate D2E/DX2 analytically  !
 ! D3    D(4,1,2,13)           126.9803         calculate D2E/DX2 analytically  !
 ! D4    D(10,1,2,3)          -120.1719         calculate D2E/DX2 analytically  !
 ! D5    D(10,1,2,12)          117.9726         calculate D2E/DX2 analytically  !
 ! D6    D(10,1,2,13)            3.9938         calculate D2E/DX2 analytically  !
 ! D7    D(11,1,2,3)           126.4272         calculate D2E/DX2 analytically  !
 ! D8    D(11,1,2,12)            4.5717         calculate D2E/DX2 analytically  !
 ! D9    D(11,1,2,13)         -109.4071         calculate D2E/DX2 analytically  !
 ! D10   D(2,1,4,6)           -107.8107         calculate D2E/DX2 analytically  !
 ! D11   D(2,1,4,8)            129.3064         calculate D2E/DX2 analytically  !
 ! D12   D(2,1,4,9)             15.37           calculate D2E/DX2 analytically  !
 ! D13   D(10,1,4,6)            15.7078         calculate D2E/DX2 analytically  !
 ! D14   D(10,1,4,8)          -107.175          calculate D2E/DX2 analytically  !
 ! D15   D(10,1,4,9)           138.8886         calculate D2E/DX2 analytically  !
 ! D16   D(11,1,4,6)           128.7712         calculate D2E/DX2 analytically  !
 ! D17   D(11,1,4,8)             5.8884         calculate D2E/DX2 analytically  !
 ! D18   D(11,1,4,9)          -108.048          calculate D2E/DX2 analytically  !
 ! D19   D(1,2,3,5)             64.7821         calculate D2E/DX2 analytically  !
 ! D20   D(1,2,3,14)           -58.0693         calculate D2E/DX2 analytically  !
 ! D21   D(1,2,3,15)          -172.801          calculate D2E/DX2 analytically  !
 ! D22   D(12,2,3,5)          -172.5338         calculate D2E/DX2 analytically  !
 ! D23   D(12,2,3,14)           64.6149         calculate D2E/DX2 analytically  !
 ! D24   D(12,2,3,15)          -50.1168         calculate D2E/DX2 analytically  !
 ! D25   D(13,2,3,5)           -59.4836         calculate D2E/DX2 analytically  !
 ! D26   D(13,2,3,14)          177.6651         calculate D2E/DX2 analytically  !
 ! D27   D(13,2,3,15)           62.9334         calculate D2E/DX2 analytically  !
 ! D28   D(2,3,5,7)           -172.9897         calculate D2E/DX2 analytically  !
 ! D29   D(2,3,5,16)           -51.1412         calculate D2E/DX2 analytically  !
 ! D30   D(2,3,5,17)            64.4159         calculate D2E/DX2 analytically  !
 ! D31   D(14,3,5,7)           -49.9803         calculate D2E/DX2 analytically  !
 ! D32   D(14,3,5,16)           71.8683         calculate D2E/DX2 analytically  !
 ! D33   D(14,3,5,17)         -172.5747         calculate D2E/DX2 analytically  !
 ! D34   D(15,3,5,7)            65.5293         calculate D2E/DX2 analytically  !
 ! D35   D(15,3,5,16)         -172.6222         calculate D2E/DX2 analytically  !
 ! D36   D(15,3,5,17)          -57.0651         calculate D2E/DX2 analytically  !
 ! D37   D(1,4,6,18)           -13.3942         calculate D2E/DX2 analytically  !
 ! D38   D(1,4,6,19)           105.7334         calculate D2E/DX2 analytically  !
 ! D39   D(1,4,6,20)          -134.1005         calculate D2E/DX2 analytically  !
 ! D40   D(8,4,6,18)           108.9906         calculate D2E/DX2 analytically  !
 ! D41   D(8,4,6,19)          -131.8818         calculate D2E/DX2 analytically  !
 ! D42   D(8,4,6,20)           -11.7157         calculate D2E/DX2 analytically  !
 ! D43   D(9,4,6,18)          -136.9287         calculate D2E/DX2 analytically  !
 ! D44   D(9,4,6,19)           -17.8011         calculate D2E/DX2 analytically  !
 ! D45   D(9,4,6,20)           102.365          calculate D2E/DX2 analytically  !
 ! D46   D(3,5,7,21)            27.694          calculate D2E/DX2 analytically  !
 ! D47   D(3,5,7,22)           -92.9397         calculate D2E/DX2 analytically  !
 ! D48   D(3,5,7,23)           148.0052         calculate D2E/DX2 analytically  !
 ! D49   D(16,5,7,21)          -93.8942         calculate D2E/DX2 analytically  !
 ! D50   D(16,5,7,22)          145.4722         calculate D2E/DX2 analytically  !
 ! D51   D(16,5,7,23)           26.4171         calculate D2E/DX2 analytically  !
 ! D52   D(17,5,7,21)          150.3951         calculate D2E/DX2 analytically  !
 ! D53   D(17,5,7,22)           29.7615         calculate D2E/DX2 analytically  !
 ! D54   D(17,5,7,23)          -89.2936         calculate D2E/DX2 analytically  !
 --------------------------------------------------------------------------------
 Trust Radius=3.00D-01 FncErr=1.00D-07 GrdErr=1.00D-06 EigMax=2.50D+02 EigMin=1.00D-04
 Number of steps in this run=    138 maximum allowed number of steps=    138.
 GradGradGradGradGradGradGradGradGradGradGradGradGradGradGradGradGradGrad

 Leave Link  103 at Sat Sep 28 00:24:17 2019, MaxMem=   671088640 cpu:               2.2 elap:               1.1
 (Enter /shared/centos7/gaussian/g16/l202.exe)
                          Input orientation:                          
 ---------------------------------------------------------------------
 Center     Atomic      Atomic             Coordinates (Angstroms)
 Number     Number       Type             X           Y           Z
 ---------------------------------------------------------------------
      1          6           0        1.435599   -1.165519    0.552992
      2          6           0        0.158393   -0.458406    0.854157
      3          6           0       -0.140702    0.802911    0.083052
      4          6           0        2.354553   -0.540670   -0.442052
      5          6           0       -0.338767    0.610638   -1.402042
      6          6           0        2.407326   -1.248597   -1.732649
      7          6           0       -0.469239    1.901842   -2.167350
      8          1           0        3.387796   -0.481420    0.002959
      9          1           0        2.063852    0.522953   -0.615123
     10          1           0        1.203326   -2.193596    0.202730
     11          1           0        1.987086   -1.308464    1.504871
     12          1           0        0.143352   -0.195667    1.923469
     13          1           0       -0.685811   -1.167136    0.718970
     14          1           0        0.673022    1.530052    0.245043
     15          1           0       -1.051246    1.260426    0.522066
     16          1           0        0.528537    0.027336   -1.808320
     17          1           0       -1.234308   -0.009528   -1.577145
     18          1           0        1.945961   -2.252811   -1.681893
     19          1           0        1.847230   -0.681391   -2.533963
     20          1           0        3.449605   -1.385352   -2.091041
     21          1           0        0.054591    2.723799   -1.677895
     22          1           0       -1.550468    2.194132   -2.273981
     23          1           0       -0.042948    1.789317   -3.205376
 ---------------------------------------------------------------------
                    Distance matrix (angstroms):
                    1          2          3          4          5
     1  C    0.000000
     2  C    1.490625   0.000000
     3  C    2.565207   1.508304   0.000000
     4  C    1.491652   2.551479   2.882229   0.000000
     5  C    3.182023   2.545675   1.510531   3.082380   0.000000
     6  C    2.485018   3.517623   3.741378   1.472952   3.332730
     7  C    4.520772   3.885125   2.525845   4.112946   1.506627
     8  H    2.140468   3.339777   3.755825   1.126559   4.129636
     9  H    2.147122   2.598581   2.329352   1.116134   2.529725
    10  H    1.110665   2.127705   3.286303   2.115001   3.580095
    11  H    1.109344   2.118996   3.317674   2.124864   4.188400
    12  H    2.118660   1.101220   2.113050   3.256397   3.455661
    13  H    2.127894   1.110520   2.140706   3.314249   2.789196
    14  H    2.818237   2.142389   1.103233   2.754549   2.140544
    15  H    3.474272   2.127885   1.109570   3.971517   2.152219
    16  H    2.796687   2.731618   2.150973   2.350246   1.121392
    17  H    3.605856   2.837664   2.147623   3.801377   1.103295
    18  H    2.537200   3.584248   4.099589   2.153039   3.673914
    19  H    3.151685   3.792262   3.606077   2.157145   2.780138
    20  H    3.330985   4.512815   4.733443   2.152159   4.337103
    21  H    4.691571   4.067984   2.613213   4.180178   2.167089
    22  H    5.309956   4.443131   3.078724   5.107279   2.176223
    23  H    5.004248   4.644633   3.434576   4.337374   2.174582
                    6          7          8          9         10
     6  C    0.000000
     7  C    4.288224   0.000000
     8  H    2.135935   5.026619   0.000000
     9  H    2.122553   3.275255   1.773025   0.000000
    10  H    2.467454   5.018702   2.782690   2.964629   0.000000
    11  H    3.265229   5.461209   2.213985   2.802562   1.758781
    12  H    4.427351   4.637845   3.781061   3.263308   2.841867
    13  H    3.947730   4.218575   4.192511   3.492399   2.211100
    14  H    3.826222   2.694927   3.387421   1.920558   3.761459
    15  H    4.831218   2.825440   4.796727   3.397190   4.137070
    16  H    2.272351   2.153656   3.422707   2.006626   3.071189
    17  H    3.849802   2.141730   4.907469   3.476619   3.725609
    18  H    1.106291   4.830114   2.838211   2.976031   2.026527
    19  H    1.130281   3.489058   2.974778   2.275811   3.192314
    20  H    1.110627   5.115546   2.281611   2.782135   3.310651
    21  H    4.617174   1.090678   4.920259   3.163911   5.388610
    22  H    5.273477   1.125104   6.060485   4.313694   5.741919
    23  H    4.171534   1.127778   5.217247   3.570952   5.388134
                   11         12         13         14         15
    11  H    0.000000
    12  H    2.193832   0.000000
    13  H    2.789623   1.755586   0.000000
    14  H    3.372107   2.464907   3.057100   0.000000
    15  H    4.098362   2.347595   2.462798   1.767072   0.000000
    16  H    3.858622   3.758237   3.047720   2.548594   3.073586
    17  H    4.643644   3.766549   2.629267   3.054273   2.460281
    18  H    3.323995   4.525469   3.724118   4.432100   5.116984
    19  H    4.089616   4.796648   4.151364   3.740604   4.638010
    20  H    3.882712   5.335067   5.004543   4.654706   5.838333
    21  H    5.488504   4.636915   4.629528   2.346312   2.864292
    22  H    6.249975   5.118471   4.582959   3.424966   2.989801
    23  H    5.991971   5.502719   4.955238   3.533444   3.897463
                   16         17         18         19         20
    16  H    0.000000
    17  H    1.778320   0.000000
    18  H    2.687777   3.893250   0.000000
    19  H    1.663671   3.295872   1.790289   0.000000
    20  H    3.257032   4.908770   1.783490   1.805367   0.000000
    21  H    2.740903   3.023655   5.323903   3.942299   5.346207
    22  H    3.038768   2.332736   5.687784   4.458764   6.151984
    23  H    2.320116   2.703021   4.755582   3.182446   4.849556
                   21         22         23
    21  H    0.000000
    22  H    1.792228   0.000000
    23  H    1.793312   1.817688   0.000000
 Stoichiometry    C7H16
 Framework group  C1[X(C7H16)]
 Deg. of freedom    63
 Full point group                 C1      NOp   1
 Largest Abelian subgroup         C1      NOp   1
 Largest concise Abelian subgroup C1      NOp   1
                         Standard orientation:                         
 ---------------------------------------------------------------------
 Center     Atomic      Atomic             Coordinates (Angstroms)
 Number     Number       Type             X           Y           Z
 ---------------------------------------------------------------------
      1          6           0       -1.606357    0.805516   -0.079584
      2          6           0       -0.376016    1.633549   -0.229872
      3          6           0        0.922034    1.054428    0.274772
      4          6           0       -1.476127   -0.507448    0.616255
      5          6           0        1.395673   -0.180568   -0.454717
      6          6           0       -1.580022   -1.671215   -0.280651
      7          6           0        2.600269   -0.830627    0.174806
      8          1           0       -2.262960   -0.573767    1.419767
      9          1           0       -0.507814   -0.552056    1.169550
     10          1           0       -2.037188    0.616011   -1.085591
     11          1           0       -2.371839    1.411924    0.446676
     12          1           0       -0.528284    2.591063    0.292302
     13          1           0       -0.253059    1.904403   -1.299814
     14          1           0        0.823237    0.820838    1.348456
     15          1           0        1.696240    1.846120    0.204251
     16          1           0        0.554536   -0.921242   -0.492275
     17          1           0        1.625369    0.075932   -1.502909
     18          1           0       -1.970311   -1.400092   -1.279674
     19          1           0       -0.569368   -2.147234   -0.452465
     20          1           0       -2.250003   -2.455951    0.130209
     21          1           0        2.653805   -0.643437    1.247966
     22          1           0        3.549383   -0.447027   -0.291983
     23          1           0        2.571532   -1.947288    0.019482
 ---------------------------------------------------------------------
 Rotational constants (GHZ):           3.1898158           1.7675074           1.2780930
 Leave Link  202 at Sat Sep 28 00:24:19 2019, MaxMem=   671088640 cpu:               4.1 elap:               2.1
 (Enter /shared/centos7/gaussian/g16/l301.exe)
 Standard basis: CC-pVTZ (5D, 7F)
 Ernie: Thresh=  0.10000D-02 Tol=  0.10000D-05 Strict=F.
 Ernie:  21 primitive shells out of 310 were deleted.
 There are   485 symmetry adapted cartesian basis functions of A   symmetry.
 There are   434 symmetry adapted basis functions of A   symmetry.
   434 basis functions,   636 primitive gaussians,   485 cartesian basis functions
    29 alpha electrons       29 beta electrons
       nuclear repulsion energy       334.2633823184 Hartrees.
 IExCor= 4336 DFT=T Ex+Corr=M062X ExCW=0 ScaHFX=  0.540000
 ScaDFX=  1.000000  1.000000  1.000000  1.000000 ScalE2=  1.000000  1.000000
 IRadAn=      5 IRanWt=     -1 IRanGd=            0 ICorTp=0 IEmpDi=  4
 NAtoms=   23 NActive=   23 NUniq=   23 SFac= 1.00D+00 NAtFMM=   60 NAOKFM=F Big=F
 Integral buffers will be    131072 words long.
 Raffenetti 2 integral format.
 Two-electron integral symmetry is turned on.
 Leave Link  301 at Sat Sep 28 00:24:21 2019, MaxMem=   671088640 cpu:               3.2 elap:               1.7
 (Enter /shared/centos7/gaussian/g16/l302.exe)
 NPDir=0 NMtPBC=     1 NCelOv=     1 NCel=       1 NClECP=     1 NCelD=      1
         NCelK=      1 NCelE2=     1 NClLst=     1 CellRange=     0.0.
 One-electron integrals computed using PRISM.
 One-electron integral symmetry used in STVInt
 NBasis=   434 RedAO= T EigKep=  1.87D-04  NBF=   434
 NBsUse=   434 1.00D-06 EigRej= -1.00D+00 NBFU=   434
 Precomputing XC quadrature grid using
 IXCGrd= 4 IRadAn=           5 IRanWt=          -1 IRanGd=           0 AccXCQ= 0.00D+00.
 Generated NRdTot=       0 NPtTot=           0 NUsed=           0 NTot=          32
 NSgBfM=   485   485   485   485   485 MxSgAt=    23 MxSgA2=    23.
 Leave Link  302 at Sat Sep 28 00:25:44 2019, MaxMem=   671088640 cpu:             165.4 elap:              82.7
 (Enter /shared/centos7/gaussian/g16/l303.exe)
 DipDrv:  MaxL=1.
 Leave Link  303 at Sat Sep 28 00:25:48 2019, MaxMem=   671088640 cpu:               8.5 elap:               4.3
 (Enter /shared/centos7/gaussian/g16/l401.exe)
 ExpMin= 1.03D-01 ExpMax= 8.24D+03 ExpMxC= 2.81D+02 IAcc=3 IRadAn=         5 AccDes= 0.00D+00
 Harris functional with IExCor= 1009 and IRadAn=       5 diagonalized for initial guess.
 HarFok:  IExCor= 1009 AccDes= 0.00D+00 IRadAn=         5 IDoV= 1 UseB2=F ITyADJ=14
 ICtDFT=  3500011 ScaDFX=  1.000000  1.000000  1.000000  1.000000
 FoFCou: FMM=F IPFlag=           0 FMFlag=      100000 FMFlg1=           0
         NFxFlg=           0 DoJE=T BraDBF=F KetDBF=T FulRan=T
         wScrn=  0.000000 ICntrl=       500 IOpCl=  0 I1Cent=   200000004 NGrid=           0
         NMat0=    1 NMatS0=      1 NMatT0=    0 NMatD0=    1 NMtDS0=    0 NMtDT0=    0
 Petite list used in FoFCou.
 Harris En= -276.306607143520    
 JPrj=0 DoOrth=F DoCkMO=F.
 Leave Link  401 at Sat Sep 28 00:26:40 2019, MaxMem=   671088640 cpu:             103.2 elap:              51.6
 (Enter /shared/centos7/gaussian/g16/l502.exe)
 Integral symmetry usage will be decided dynamically.
 Closed shell SCF:
 Using DIIS extrapolation, IDIIS=  1040.
 NGot=   671088640 LenX=   670604095 LenY=   670368385
 Requested convergence on RMS density matrix=1.00D-08 within 900 cycles.
 Requested convergence on MAX density matrix=1.00D-06.
 Requested convergence on             energy=1.00D-06.
 No special actions if energy rises.
 Fock matrices will be formed incrementally for  20 cycles.
 Integral accuracy reduced to 1.0D-05 until final iterations.

 Cycle   1  Pass 0  IDiag  1:
 FoFJK:  IHMeth= 1 ICntrl=       0 DoSepK=F KAlg= 0 I1Cent=           0 FoldK=F
 IRaf= 950000000 NMat=       1 IRICut=       1 DoRegI=T DoRafI=F ISym2E= 0 IDoP0=0 IntGTp=1.
 FoFCou: FMM=F IPFlag=           0 FMFlag=      100000 FMFlg1=           0
         NFxFlg=           0 DoJE=F BraDBF=F KetDBF=F FulRan=T
         wScrn=  0.000000 ICntrl=         0 IOpCl=  0 I1Cent=           0 NGrid=           0
         NMat0=    1 NMatS0=      1 NMatT0=    0 NMatD0=    1 NMtDS0=    0 NMtDT0=    0
 Symmetry not used in FoFCou.
 E= -275.943434590451    
 DIIS: error= 2.58D-02 at cycle   1 NSaved=   1.
 NSaved= 1 IEnMin= 1 EnMin= -275.943434590451     IErMin= 1 ErrMin= 2.58D-02
 ErrMax= 2.58D-02  0.00D+00 EMaxC= 1.00D-01 BMatC= 3.72D-01 BMatP= 3.72D-01
 IDIUse=3 WtCom= 7.42D-01 WtEn= 2.58D-01
 Coeff-Com:  0.100D+01
 Coeff-En:   0.100D+01
 Coeff:      0.100D+01
 Gap=     0.372 Goal=   None    Shift=    0.000
 GapD=    0.372 DampG=1.000 DampE=0.500 DampFc=0.5000 IDamp=-1.
 Damping current iteration by 5.00D-01
 RMSDP=1.97D-03 MaxDP=7.57D-02              OVMax= 1.65D-01

 Cycle   2  Pass 0  IDiag  1:
 RMSU=  9.81D-04    CP:  9.91D-01
 E= -276.119387317019     Delta-E=       -0.175952726568 Rises=F Damp=T
 DIIS: error= 3.72D-03 at cycle   2 NSaved=   2.
 NSaved= 2 IEnMin= 2 EnMin= -276.119387317019     IErMin= 2 ErrMin= 3.72D-03
 ErrMax= 3.72D-03  0.00D+00 EMaxC= 1.00D-01 BMatC= 1.90D-02 BMatP= 3.72D-01
 IDIUse=3 WtCom= 9.63D-01 WtEn= 3.72D-02
 Coeff-Com: -0.507D-01 0.105D+01
 Coeff-En:   0.000D+00 0.100D+01
 Coeff:     -0.488D-01 0.105D+01
 Gap=     0.442 Goal=   None    Shift=    0.000
 RMSDP=5.57D-04 MaxDP=2.21D-02 DE=-1.76D-01 OVMax= 8.96D-02

 Cycle   3  Pass 0  IDiag  1:
 RMSU=  5.44D-04    CP:  9.98D-01  8.94D-01
 E= -276.296385144256     Delta-E=       -0.176997827236 Rises=F Damp=F
 DIIS: error= 3.03D-03 at cycle   3 NSaved=   3.
 NSaved= 3 IEnMin= 3 EnMin= -276.296385144256     IErMin= 3 ErrMin= 3.03D-03
 ErrMax= 3.03D-03  0.00D+00 EMaxC= 1.00D-01 BMatC= 3.35D-03 BMatP= 1.90D-02
 IDIUse=3 WtCom= 9.70D-01 WtEn= 3.03D-02
 Coeff-Com: -0.536D-01 0.268D+00 0.785D+00
 Coeff-En:   0.000D+00 0.000D+00 0.100D+01
 Coeff:     -0.520D-01 0.260D+00 0.792D+00
 Gap=     0.412 Goal=   None    Shift=    0.000
 RMSDP=1.09D-04 MaxDP=2.74D-03 DE=-1.77D-01 OVMax= 1.29D-02

 Cycle   4  Pass 0  IDiag  1:
 RMSU=  8.71D-05    CP:  9.97D-01  9.46D-01  9.24D-01
 E= -276.299210178001     Delta-E=       -0.002825033745 Rises=F Damp=F
 DIIS: error= 7.37D-04 at cycle   4 NSaved=   4.
 NSaved= 4 IEnMin= 4 EnMin= -276.299210178001     IErMin= 4 ErrMin= 7.37D-04
 ErrMax= 7.37D-04  0.00D+00 EMaxC= 1.00D-01 BMatC= 4.16D-04 BMatP= 3.35D-03
 IDIUse=3 WtCom= 9.93D-01 WtEn= 7.37D-03
 Coeff-Com: -0.158D-01 0.452D-01 0.299D+00 0.672D+00
 Coeff-En:   0.000D+00 0.000D+00 0.000D+00 0.100D+01
 Coeff:     -0.157D-01 0.449D-01 0.297D+00 0.674D+00
 Gap=     0.413 Goal=   None    Shift=    0.000
 RMSDP=3.68D-05 MaxDP=1.76D-03 DE=-2.83D-03 OVMax= 3.43D-03

 Cycle   5  Pass 0  IDiag  1:
 RMSU=  2.03D-05    CP:  9.97D-01  9.38D-01  9.61D-01  7.48D-01
 E= -276.299593423600     Delta-E=       -0.000383245599 Rises=F Damp=F
 DIIS: error= 1.89D-04 at cycle   5 NSaved=   5.
 NSaved= 5 IEnMin= 5 EnMin= -276.299593423600     IErMin= 5 ErrMin= 1.89D-04
 ErrMax= 1.89D-04  0.00D+00 EMaxC= 1.00D-01 BMatC= 1.90D-05 BMatP= 4.16D-04
 IDIUse=3 WtCom= 9.98D-01 WtEn= 1.89D-03
 Coeff-Com: -0.187D-02 0.141D-02 0.550D-01 0.229D+00 0.716D+00
 Coeff-En:   0.000D+00 0.000D+00 0.000D+00 0.000D+00 0.100D+01
 Coeff:     -0.187D-02 0.141D-02 0.549D-01 0.229D+00 0.717D+00
 Gap=     0.413 Goal=   None    Shift=    0.000
 RMSDP=7.33D-06 MaxDP=4.27D-04 DE=-3.83D-04 OVMax= 7.91D-04

 Initial convergence to 1.0D-05 achieved.  Increase integral accuracy.
 Cycle   6  Pass 1  IDiag  1:
 E= -276.299573987436     Delta-E=        0.000019436164 Rises=F Damp=F
 DIIS: error= 4.90D-05 at cycle   1 NSaved=   1.
 NSaved= 1 IEnMin= 1 EnMin= -276.299573987436     IErMin= 1 ErrMin= 4.90D-05
 ErrMax= 4.90D-05  0.00D+00 EMaxC= 1.00D-01 BMatC= 1.64D-06 BMatP= 1.64D-06
 IDIUse=1 WtCom= 1.00D+00 WtEn= 0.00D+00
 Coeff-Com:  0.100D+01
 Coeff:      0.100D+01
 Gap=     0.413 Goal=   None    Shift=    0.000
 RMSDP=7.33D-06 MaxDP=4.27D-04 DE= 1.94D-05 OVMax= 2.78D-04

 Cycle   7  Pass 1  IDiag  1:
 RMSU=  9.30D-06    CP:  1.00D+00
 E= -276.299574729609     Delta-E=       -0.000000742173 Rises=F Damp=F
 DIIS: error= 2.44D-05 at cycle   2 NSaved=   2.
 NSaved= 2 IEnMin= 2 EnMin= -276.299574729609     IErMin= 2 ErrMin= 2.44D-05
 ErrMax= 2.44D-05  0.00D+00 EMaxC= 1.00D-01 BMatC= 4.88D-07 BMatP= 1.64D-06
 IDIUse=1 WtCom= 1.00D+00 WtEn= 0.00D+00
 Coeff-Com:  0.316D+00 0.684D+00
 Coeff:      0.316D+00 0.684D+00
 Gap=     0.413 Goal=   None    Shift=    0.000
 RMSDP=1.47D-06 MaxDP=6.32D-05 DE=-7.42D-07 OVMax= 1.45D-04

 Cycle   8  Pass 1  IDiag  1:
 RMSU=  1.46D-06    CP:  1.00D+00  9.84D-01
 E= -276.299575162491     Delta-E=       -0.000000432882 Rises=F Damp=F
 DIIS: error= 1.01D-05 at cycle   3 NSaved=   3.
 NSaved= 3 IEnMin= 3 EnMin= -276.299575162491     IErMin= 3 ErrMin= 1.01D-05
 ErrMax= 1.01D-05  0.00D+00 EMaxC= 1.00D-01 BMatC= 6.07D-08 BMatP= 4.88D-07
 IDIUse=1 WtCom= 1.00D+00 WtEn= 0.00D+00
 Coeff-Com: -0.385D-03 0.251D+00 0.750D+00
 Coeff:     -0.385D-03 0.251D+00 0.750D+00
 Gap=     0.413 Goal=   None    Shift=    0.000
 RMSDP=4.21D-07 MaxDP=1.74D-05 DE=-4.33D-07 OVMax= 4.30D-05

 Cycle   9  Pass 1  IDiag  1:
 RMSU=  3.23D-07    CP:  1.00D+00  1.00D+00  8.61D-01
 E= -276.299575220193     Delta-E=       -0.000000057702 Rises=F Damp=F
 DIIS: error= 2.63D-06 at cycle   4 NSaved=   4.
 NSaved= 4 IEnMin= 4 EnMin= -276.299575220193     IErMin= 4 ErrMin= 2.63D-06
 ErrMax= 2.63D-06  0.00D+00 EMaxC= 1.00D-01 BMatC= 2.75D-09 BMatP= 6.07D-08
 IDIUse=1 WtCom= 1.00D+00 WtEn= 0.00D+00
 Coeff-Com: -0.123D-01 0.711D-01 0.286D+00 0.655D+00
 Coeff:     -0.123D-01 0.711D-01 0.286D+00 0.655D+00
 Gap=     0.413 Goal=   None    Shift=    0.000
 RMSDP=9.88D-08 MaxDP=4.61D-06 DE=-5.77D-08 OVMax= 1.04D-05

 Cycle  10  Pass 1  IDiag  1:
 RMSU=  8.87D-08    CP:  1.00D+00  1.01D+00  8.58D-01  8.88D-01
 E= -276.299575222926     Delta-E=       -0.000000002732 Rises=F Damp=F
 DIIS: error= 3.23D-07 at cycle   5 NSaved=   5.
 NSaved= 5 IEnMin= 5 EnMin= -276.299575222926     IErMin= 5 ErrMin= 3.23D-07
 ErrMax= 3.23D-07  0.00D+00 EMaxC= 1.00D-01 BMatC= 6.03D-11 BMatP= 2.75D-09
 IDIUse=1 WtCom= 1.00D+00 WtEn= 0.00D+00
 Coeff-Com: -0.645D-03-0.145D-01-0.405D-01 0.315D-01 0.102D+01
 Coeff:     -0.645D-03-0.145D-01-0.405D-01 0.315D-01 0.102D+01
 Gap=     0.413 Goal=   None    Shift=    0.000
 RMSDP=3.66D-08 MaxDP=8.48D-07 DE=-2.73D-09 OVMax= 2.40D-06

 Cycle  11  Pass 1  IDiag  1:
 RMSU=  1.79D-08    CP:  1.00D+00  1.01D+00  8.65D-01  9.73D-01  1.14D+00
 E= -276.299575222980     Delta-E=       -0.000000000054 Rises=F Damp=F
 DIIS: error= 1.63D-07 at cycle   6 NSaved=   6.
 NSaved= 6 IEnMin= 6 EnMin= -276.299575222980     IErMin= 6 ErrMin= 1.63D-07
 ErrMax= 1.63D-07  0.00D+00 EMaxC= 1.00D-01 BMatC= 1.72D-11 BMatP= 6.03D-11
 IDIUse=1 WtCom= 1.00D+00 WtEn= 0.00D+00
 Coeff-Com:  0.376D-03-0.106D-01-0.344D-01-0.235D-01 0.460D+00 0.608D+00
 Coeff:      0.376D-03-0.106D-01-0.344D-01-0.235D-01 0.460D+00 0.608D+00
 Gap=     0.413 Goal=   None    Shift=    0.000
 RMSDP=6.82D-09 MaxDP=2.11D-07 DE=-5.41D-11 OVMax= 7.17D-07

 SCF Done:  E(RM062X) =  -276.299575223     A.U. after   11 cycles
            NFock= 11  Conv=0.68D-08     -V/T= 2.0063
 KE= 2.745615071633D+02 PE=-1.306991355078D+03 EE= 4.218668903736D+02
 Leave Link  502 at Sat Sep 28 00:50:05 2019, MaxMem=   671088640 cpu:            2809.8 elap:            1405.3
 (Enter /shared/centos7/gaussian/g16/l801.exe)
 DoSCS=F DFT=T ScalE2(SS,OS)=  1.000000  1.000000
 Range of M.O.s used for correlation:     1   434
 NBasis=   434 NAE=    29 NBE=    29 NFC=     0 NFV=     0
 NROrb=    434 NOA=    29 NOB=    29 NVA=   405 NVB=   405

 **** Warning!!: The largest alpha MO coefficient is  0.11346739D+02

 Leave Link  801 at Sat Sep 28 00:50:06 2019, MaxMem=   671088640 cpu:               1.8 elap:               0.9
 (Enter /shared/centos7/gaussian/g16/l1101.exe)
 Using compressed storage, NAtomX=    23.
 Will process     24 centers per pass.
 Leave Link 1101 at Sat Sep 28 00:50:46 2019, MaxMem=   671088640 cpu:              80.2 elap:              40.1
 (Enter /shared/centos7/gaussian/g16/l1102.exe)
 Symmetrizing basis deriv contribution to polar:
 IMax=3 JMax=2 DiffMx= 0.00D+00
 Leave Link 1102 at Sat Sep 28 00:50:51 2019, MaxMem=   671088640 cpu:               4.7 elap:               4.7
 (Enter /shared/centos7/gaussian/g16/l1110.exe)
 Forming Gx(P) for the SCF density, NAtomX=    23.
 Integral derivatives from FoFJK, PRISM(SPDF).
 Do as many integral derivatives as possible in FoFJK.
 G2DrvN: MDV=     671086848.
 G2DrvN: will do    24 centers at a time, making    1 passes.
 Calling FoFCou, ICntrl=  3107 FMM=F I1Cent=   0 AccDes= 0.00D+00.
 FoFJK:  IHMeth= 1 ICntrl=    3107 DoSepK=F KAlg= 0 I1Cent=           0 FoldK=F
 IRaf=         0 NMat=       1 IRICut=       1 DoRegI=T DoRafI=F ISym2E= 0 IDoP0=0 IntGTp=1.
 FoFCou: FMM=F IPFlag=           0 FMFlag=      100000 FMFlg1=           0
         NFxFlg=           0 DoJE=F BraDBF=F KetDBF=F FulRan=T
         wScrn=  0.000000 ICntrl=      3107 IOpCl=  0 I1Cent=           0 NGrid=           0
         NMat0=    1 NMatS0=      1 NMatT0=    0 NMatD0=    1 NMtDS0=    0 NMtDT0=    0
 Symmetry not used in FoFCou.
 End of G2Drv F.D. properties file   721 does not exist.
 End of G2Drv F.D. properties file   722 does not exist.
 End of G2Drv F.D. properties file   788 does not exist.
 Leave Link 1110 at Sat Sep 28 01:50:10 2019, MaxMem=   671088640 cpu:            7118.4 elap:            3559.7
 (Enter /shared/centos7/gaussian/g16/l1002.exe)
 Minotr:  Closed shell wavefunction.
          IDoAtm=11111111111111111111111
          Direct CPHF calculation.
          Differentiating once with respect to nuclear coordinates.
          Requested convergence is 1.0D-08 RMS, and 1.0D-07 maximum.
          Secondary convergence is 1.0D-12 RMS, and 1.0D-12 maximum.
          NewPWx=T KeepS1=F KeepF1=F KeepIn=T MapXYZ=F SortEE=F KeepMc=T.
         6925 words used for storage of precomputed grid.
 Two-electron integrals replicated using symmetry.
          MDV=     671088640 using IRadAn=       1.
          Solving linear equations simultaneously, MaxMat=     380.
 FoF2E skips out because all densities are zero.
 CalDSu exits because no D1Ps are significant.
 FoFJK:  IHMeth= 1 ICntrl=       0 DoSepK=F KAlg= 0 I1Cent=           0 FoldK=F
 IRaf= 940000000 NMat=      69 IRICut=     172 DoRegI=T DoRafI=T ISym2E= 2 IDoP0=3 IntGTp=3.
 FoFCou: FMM=F IPFlag=           0 FMFlag=      100000 FMFlg1=           0
         NFxFlg=           0 DoJE=F BraDBF=F KetDBF=F FulRan=T
         wScrn=  0.000000 ICntrl=         0 IOpCl=  0 I1Cent=           0 NGrid=           0
         NMat0=   69 NMatS0=     69 NMatT0=    0 NMatD0=   69 NMtDS0=    0 NMtDT0=    0
 Integrals replicated using symmetry in FoFCou.
 Raff kept on since  90.79% of shell-pairs survive, threshold=   0.20 IRatSp=91.
          There are    72 degrees of freedom in the 1st order CPHF.  IDoFFX=6 NUNeed=     0.
     66 vectors produced by pass  0 Test12= 1.63D-14 1.39D-09 XBig12= 5.54D-02 4.72D-02.
 AX will form    66 AO Fock derivatives at one time.
     66 vectors produced by pass  1 Test12= 1.63D-14 1.39D-09 XBig12= 3.39D-03 5.74D-03.
     66 vectors produced by pass  2 Test12= 1.63D-14 1.39D-09 XBig12= 6.03D-05 1.04D-03.
     66 vectors produced by pass  3 Test12= 1.63D-14 1.39D-09 XBig12= 4.71D-07 9.36D-05.
     66 vectors produced by pass  4 Test12= 1.63D-14 1.39D-09 XBig12= 2.17D-09 5.74D-06.
     66 vectors produced by pass  5 Test12= 1.63D-14 1.39D-09 XBig12= 1.07D-11 3.15D-07.
     22 vectors produced by pass  6 Test12= 1.63D-14 1.39D-09 XBig12= 3.87D-14 1.92D-08.
 InvSVY:  IOpt=1 It=  1 EMax= 3.05D-16
 Solved reduced A of dimension   418 with    72 vectors.
 End of Minotr F.D. properties file   721 does not exist.
 End of Minotr F.D. properties file   722 does not exist.
 End of Minotr F.D. properties file   788 does not exist.
 Leave Link 1002 at Sat Sep 28 03:25:22 2019, MaxMem=   671088640 cpu:           11421.2 elap:            5711.4
 (Enter /shared/centos7/gaussian/g16/l601.exe)
 Copying SCF densities to generalized density rwf, IOpCl= 0 IROHF=0.

 **********************************************************************

            Population analysis using the SCF density.

 **********************************************************************

 Orbital symmetries:
       Occupied  (A) (A) (A) (A) (A) (A) (A) (A) (A) (A) (A) (A)
                 (A) (A) (A) (A) (A) (A) (A) (A) (A) (A) (A) (A)
                 (A) (A) (A) (A) (A)
       Virtual   (A) (A) (A) (A) (A) (A) (A) (A) (A) (A) (A) (A)
                 (A) (A) (A) (A) (A) (A) (A) (A) (A) (A) (A) (A)
                 (A) (A) (A) (A) (A) (A) (A) (A) (A) (A) (A) (A)
                 (A) (A) (A) (A) (A) (A) (A) (A) (A) (A) (A) (A)
                 (A) (A) (A) (A) (A) (A) (A) (A) (A) (A) (A) (A)
                 (A) (A) (A) (A) (A) (A) (A) (A) (A) (A) (A) (A)
                 (A) (A) (A) (A) (A) (A) (A) (A) (A) (A) (A) (A)
                 (A) (A) (A) (A) (A) (A) (A) (A) (A) (A) (A) (A)
                 (A) (A) (A) (A) (A) (A) (A) (A) (A) (A) (A) (A)
                 (A) (A) (A) (A) (A) (A) (A) (A) (A) (A) (A) (A)
                 (A) (A) (A) (A) (A) (A) (A) (A) (A) (A) (A) (A)
                 (A) (A) (A) (A) (A) (A) (A) (A) (A) (A) (A) (A)
                 (A) (A) (A) (A) (A) (A) (A) (A) (A) (A) (A) (A)
                 (A) (A) (A) (A) (A) (A) (A) (A) (A) (A) (A) (A)
                 (A) (A) (A) (A) (A) (A) (A) (A) (A) (A) (A) (A)
                 (A) (A) (A) (A) (A) (A) (A) (A) (A) (A) (A) (A)
                 (A) (A) (A) (A) (A) (A) (A) (A) (A) (A) (A) (A)
                 (A) (A) (A) (A) (A) (A) (A) (A) (A) (A) (A) (A)
                 (A) (A) (A) (A) (A) (A) (A) (A) (A) (A) (A) (A)
                 (A) (A) (A) (A) (A) (A) (A) (A) (A) (A) (A) (A)
                 (A) (A) (A) (A) (A) (A) (A) (A) (A) (A) (A) (A)
                 (A) (A) (A) (A) (A) (A) (A) (A) (A) (A) (A) (A)
                 (A) (A) (A) (A) (A) (A) (A) (A) (A) (A) (A) (A)
                 (A) (A) (A) (A) (A) (A) (A) (A) (A) (A) (A) (A)
                 (A) (A) (A) (A) (A) (A) (A) (A) (A) (A) (A) (A)
                 (A) (A) (A) (A) (A) (A) (A) (A) (A) (A) (A) (A)
                 (A) (A) (A) (A) (A) (A) (A) (A) (A) (A) (A) (A)
                 (A) (A) (A) (A) (A) (A) (A) (A) (A) (A) (A) (A)
                 (A) (A) (A) (A) (A) (A) (A) (A) (A) (A) (A) (A)
                 (A) (A) (A) (A) (A) (A) (A) (A) (A) (A) (A) (A)
                 (A) (A) (A) (A) (A) (A) (A) (A) (A) (A) (A) (A)
                 (A) (A) (A) (A) (A) (A) (A) (A) (A) (A) (A) (A)
                 (A) (A) (A) (A) (A) (A) (A) (A) (A) (A) (A) (A)
                 (A) (A) (A) (A) (A) (A) (A) (A) (A)
 The electronic state is 1-A.
 Alpha  occ. eigenvalues --  -10.52528 -10.52491 -10.52378 -10.52339 -10.52289
 Alpha  occ. eigenvalues --  -10.52208 -10.52097  -0.92506  -0.87648  -0.83338
 Alpha  occ. eigenvalues --   -0.76463  -0.70310  -0.66722  -0.62114  -0.56271
 Alpha  occ. eigenvalues --   -0.53631  -0.50081  -0.48896  -0.48194  -0.46889
 Alpha  occ. eigenvalues --   -0.45604  -0.42779  -0.41837  -0.40128  -0.39539
 Alpha  occ. eigenvalues --   -0.37018  -0.36424  -0.36131  -0.34893
 Alpha virt. eigenvalues --    0.06378   0.06959   0.08535   0.09027   0.11205
 Alpha virt. eigenvalues --    0.11967   0.12852   0.13353   0.14441   0.15031
 Alpha virt. eigenvalues --    0.15997   0.16376   0.17634   0.20337   0.20865
 Alpha virt. eigenvalues --    0.21396   0.22805   0.23143   0.24008   0.25409
 Alpha virt. eigenvalues --    0.27458   0.29013   0.29811   0.30546   0.31935
 Alpha virt. eigenvalues --    0.33301   0.34236   0.35606   0.36642   0.38372
 Alpha virt. eigenvalues --    0.38865   0.40374   0.41053   0.42418   0.43222
 Alpha virt. eigenvalues --    0.44510   0.46070   0.46617   0.47027   0.49151
 Alpha virt. eigenvalues --    0.49345   0.49870   0.50203   0.50420   0.50917
 Alpha virt. eigenvalues --    0.51950   0.52478   0.53233   0.53401   0.54375
 Alpha virt. eigenvalues --    0.54666   0.55798   0.56058   0.56625   0.57884
 Alpha virt. eigenvalues --    0.58008   0.60243   0.60532   0.61665   0.63385
 Alpha virt. eigenvalues --    0.64879   0.70223   0.71539   0.74092   0.77385
 Alpha virt. eigenvalues --    0.80773   0.82070   0.83392   0.85632   0.85908
 Alpha virt. eigenvalues --    0.87567   0.88011   0.90517   0.91295   0.92871
 Alpha virt. eigenvalues --    0.93391   0.95989   0.96553   0.98112   0.98758
 Alpha virt. eigenvalues --    0.99178   1.00870   1.03221   1.04084   1.05521
 Alpha virt. eigenvalues --    1.06896   1.07936   1.08692   1.09030   1.09357
 Alpha virt. eigenvalues --    1.11179   1.12054   1.12240   1.13166   1.14149
 Alpha virt. eigenvalues --    1.16112   1.16922   1.19103   1.19358   1.20082
 Alpha virt. eigenvalues --    1.20851   1.21488   1.22617   1.24196   1.25180
 Alpha virt. eigenvalues --    1.25876   1.26637   1.27480   1.27641   1.30385
 Alpha virt. eigenvalues --    1.31148   1.31928   1.33599   1.34138   1.35077
 Alpha virt. eigenvalues --    1.35666   1.36724   1.37188   1.38242   1.38868
 Alpha virt. eigenvalues --    1.41135   1.41543   1.43818   1.44237   1.44872
 Alpha virt. eigenvalues --    1.46780   1.47952   1.49548   1.49887   1.50880
 Alpha virt. eigenvalues --    1.51359   1.52890   1.53231   1.54574   1.55211
 Alpha virt. eigenvalues --    1.58704   1.60637   1.61015   1.64398   1.65391
 Alpha virt. eigenvalues --    1.65984   1.66923   1.71128   1.74543   1.76538
 Alpha virt. eigenvalues --    1.79141   1.81534   1.84774   1.87983   2.21151
 Alpha virt. eigenvalues --    2.23376   2.28196   2.30765   2.33081   2.34140
 Alpha virt. eigenvalues --    2.35897   2.40381   2.42448   2.43184   2.43789
 Alpha virt. eigenvalues --    2.46441   2.49713   2.50828   2.52175   2.54859
 Alpha virt. eigenvalues --    2.55887   2.56410   2.58060   2.59753   2.61150
 Alpha virt. eigenvalues --    2.62763   2.63735   2.65439   2.67208   2.67715
 Alpha virt. eigenvalues --    2.69086   2.70051   2.73095   2.73219   2.74739
 Alpha virt. eigenvalues --    2.75429   2.76349   2.78291   2.79949   2.81717
 Alpha virt. eigenvalues --    2.82357   2.83535   2.84795   2.85551   2.86180
 Alpha virt. eigenvalues --    2.87566   2.88167   2.89633   2.90737   2.91699
 Alpha virt. eigenvalues --    2.94547   2.96417   2.97067   2.98488   3.00043
 Alpha virt. eigenvalues --    3.00342   3.01396   3.02417   3.03604   3.03882
 Alpha virt. eigenvalues --    3.05761   3.06084   3.08335   3.09401   3.09432
 Alpha virt. eigenvalues --    3.09903   3.11167   3.11668   3.12308   3.13038
 Alpha virt. eigenvalues --    3.13758   3.15998   3.16963   3.17507   3.18051
 Alpha virt. eigenvalues --    3.18565   3.20827   3.22152   3.23014   3.24438
 Alpha virt. eigenvalues --    3.24993   3.26448   3.27745   3.29158   3.30568
 Alpha virt. eigenvalues --    3.32227   3.33245   3.34339   3.35511   3.38321
 Alpha virt. eigenvalues --    3.38856   3.39585   3.40883   3.41338   3.42675
 Alpha virt. eigenvalues --    3.42998   3.45074   3.46003   3.47460   3.48823
 Alpha virt. eigenvalues --    3.49751   3.50390   3.51537   3.53050   3.53713
 Alpha virt. eigenvalues --    3.56367   3.57364   3.59096   3.60531   3.61266
 Alpha virt. eigenvalues --    3.63859   3.64180   3.66276   3.67286   3.67619
 Alpha virt. eigenvalues --    3.68256   3.71046   3.72055   3.73038   3.73773
 Alpha virt. eigenvalues --    3.75235   3.76165   3.77462   3.78988   3.80728
 Alpha virt. eigenvalues --    3.82772   3.82927   3.84015   3.85225   3.85654
 Alpha virt. eigenvalues --    3.86823   3.88958   3.90729   3.91774   3.92274
 Alpha virt. eigenvalues --    3.93340   3.94893   3.95298   3.96554   3.97660
 Alpha virt. eigenvalues --    3.98177   3.99253   4.01338   4.01868   4.02969
 Alpha virt. eigenvalues --    4.03219   4.04325   4.06471   4.07489   4.08570
 Alpha virt. eigenvalues --    4.09196   4.10322   4.11824   4.12248   4.13293
 Alpha virt. eigenvalues --    4.13654   4.14022   4.18007   4.18607   4.19655
 Alpha virt. eigenvalues --    4.20803   4.22218   4.22970   4.23592   4.24679
 Alpha virt. eigenvalues --    4.25299   4.26739   4.28102   4.28850   4.30746
 Alpha virt. eigenvalues --    4.31391   4.32161   4.36877   4.38337   4.38933
 Alpha virt. eigenvalues --    4.40600   4.41711   4.43545   4.45492   4.47561
 Alpha virt. eigenvalues --    4.49568   4.51644   4.54710   4.57853   4.58980
 Alpha virt. eigenvalues --    4.60479   4.61846   4.65068   4.66483   4.68058
 Alpha virt. eigenvalues --    4.69287   4.69930   4.72507   4.73687   4.75289
 Alpha virt. eigenvalues --    4.77367   4.79105   4.79370   4.82352   4.82519
 Alpha virt. eigenvalues --    4.85200   4.87092   4.89142   4.91155   4.91817
 Alpha virt. eigenvalues --    4.95814   4.96829   4.97435   4.98949   5.00072
 Alpha virt. eigenvalues --    5.00897   5.04517   5.05034   5.05219   5.08290
 Alpha virt. eigenvalues --    5.10129   5.11450   5.13649   5.15400   5.17527
 Alpha virt. eigenvalues --    5.18922   5.21382   5.22356   5.26003   5.26684
 Alpha virt. eigenvalues --    5.28869   5.30083   5.30797   5.33776   5.36260
 Alpha virt. eigenvalues --    5.37477   5.38590   5.40978   5.42383   5.45374
 Alpha virt. eigenvalues --    5.48190   5.52786   5.54468   5.57736   5.59472
 Alpha virt. eigenvalues --    5.61763   5.64110   5.69049   5.78790   5.81542
 Alpha virt. eigenvalues --    5.82623   5.84114   5.86709   5.89170   5.97224
 Alpha virt. eigenvalues --    6.03628   6.05556   6.08556  11.23620  12.15747
 Alpha virt. eigenvalues --   12.34447  12.94829  13.39441  13.64638  13.91901
          Condensed to atoms (all electrons):
               1          2          3          4          5          6
     1  C    5.106870   0.294577  -0.040586   0.291535  -0.001925  -0.055442
     2  C    0.294577   5.054470   0.326667  -0.047191  -0.056601   0.006970
     3  C   -0.040586   0.326667   5.075784  -0.018237   0.309021   0.001963
     4  C    0.291535  -0.047191  -0.018237   5.114474   0.000912   0.285676
     5  C   -0.001925  -0.056601   0.309021   0.000912   5.137143  -0.017033
     6  C   -0.055442   0.006970   0.001963   0.285676  -0.017033   5.009387
     7  C   -0.000024   0.006935  -0.048850  -0.000637   0.307913   0.000907
     8  H   -0.043744   0.007527  -0.000125   0.412482   0.000648  -0.042302
     9  H   -0.051681  -0.012596  -0.000589   0.417360  -0.010403  -0.041943
    10  H    0.421790  -0.050888   0.005604  -0.053414   0.000035  -0.018524
    11  H    0.418775  -0.045978   0.005776  -0.047393  -0.000347   0.008709
    12  H   -0.049144   0.423345  -0.046045   0.005858   0.009084  -0.000649
    13  H   -0.055118   0.420858  -0.045446   0.006640  -0.006005   0.000375
    14  H   -0.002680  -0.035509   0.413110  -0.010343  -0.047378   0.001336
    15  H    0.006533  -0.036067   0.402856   0.001563  -0.041332  -0.000262
    16  H    0.000409  -0.000322  -0.062934   0.005265   0.424169  -0.023691
    17  H   -0.000835  -0.000363  -0.039275   0.000126   0.403428   0.001055
    18  H   -0.011286  -0.000166   0.000447  -0.057002   0.000499   0.413221
    19  H    0.005631   0.000544   0.001574  -0.054213  -0.015105   0.415414
    20  H    0.007835  -0.000655  -0.000134  -0.040751   0.000819   0.400344
    21  H    0.000082   0.000446  -0.003944  -0.000284  -0.054495   0.000048
    22  H   -0.000039  -0.000283  -0.000990   0.000053  -0.041842  -0.000096
    23  H    0.000079  -0.000529   0.008015  -0.000107  -0.043228   0.000387
               7          8          9         10         11         12
     1  C   -0.000024  -0.043744  -0.051681   0.421790   0.418775  -0.049144
     2  C    0.006935   0.007527  -0.012596  -0.050888  -0.045978   0.423345
     3  C   -0.048850  -0.000125  -0.000589   0.005604   0.005776  -0.046045
     4  C   -0.000637   0.412482   0.417360  -0.053414  -0.047393   0.005858
     5  C    0.307913   0.000648  -0.010403   0.000035  -0.000347   0.009084
     6  C    0.000907  -0.042302  -0.041943  -0.018524   0.008709  -0.000649
     7  C    4.948546  -0.000073   0.001030   0.000016   0.000026  -0.000470
     8  H   -0.000073   0.609798  -0.039778   0.004697  -0.019951  -0.000161
     9  H    0.001030  -0.039778   0.629425   0.007241   0.005267   0.000839
    10  H    0.000016   0.004697   0.007241   0.612316  -0.036692   0.007532
    11  H    0.000026  -0.019951   0.005267  -0.036692   0.606879  -0.021168
    12  H   -0.000470  -0.000161   0.000839   0.007532  -0.021168   0.596766
    13  H    0.000045  -0.000591   0.000292  -0.019086   0.006352  -0.034627
    14  H   -0.009419  -0.000090  -0.006718  -0.000451   0.000434  -0.006412
    15  H   -0.000349   0.000024   0.000182  -0.000445  -0.000254  -0.008638
    16  H   -0.052998   0.001902  -0.014696  -0.002786   0.000073  -0.000372
    17  H   -0.029887  -0.000042   0.001256   0.000185  -0.000007  -0.000047
    18  H    0.000024   0.003950   0.007055   0.001839   0.001459  -0.000109
    19  H    0.001112   0.007359  -0.017296   0.001531  -0.000751   0.000073
    20  H   -0.000066  -0.018733   0.004607   0.001094  -0.000535   0.000030
    21  H    0.407707   0.000000   0.000395  -0.000002   0.000004  -0.000054
    22  H    0.403429   0.000002  -0.000140  -0.000001   0.000000   0.000022
    23  H    0.405929  -0.000001  -0.000150  -0.000000  -0.000005   0.000029
              13         14         15         16         17         18
     1  C   -0.055118  -0.002680   0.006533   0.000409  -0.000835  -0.011286
     2  C    0.420858  -0.035509  -0.036067  -0.000322  -0.000363  -0.000166
     3  C   -0.045446   0.413110   0.402856  -0.062934  -0.039275   0.000447
     4  C    0.006640  -0.010343   0.001563   0.005265   0.000126  -0.057002
     5  C   -0.006005  -0.047378  -0.041332   0.424169   0.403428   0.000499
     6  C    0.000375   0.001336  -0.000262  -0.023691   0.001055   0.413221
     7  C    0.000045  -0.009419  -0.000349  -0.052998  -0.029887   0.000024
     8  H   -0.000591  -0.000090   0.000024   0.001902  -0.000042   0.003950
     9  H    0.000292  -0.006718   0.000182  -0.014696   0.001256   0.007055
    10  H   -0.019086  -0.000451  -0.000445  -0.002786   0.000185   0.001839
    11  H    0.006352   0.000434  -0.000254   0.000073  -0.000007   0.001459
    12  H   -0.034627  -0.006412  -0.008638  -0.000372  -0.000047  -0.000109
    13  H    0.596917   0.008588  -0.005385  -0.000832   0.003713  -0.000233
    14  H    0.008588   0.602249  -0.035297  -0.004677   0.007755  -0.000119
    15  H   -0.005385  -0.035297   0.576896   0.009638  -0.008730   0.000031
    16  H   -0.000832  -0.004677   0.009638   0.662024  -0.043214  -0.000955
    17  H    0.003713   0.007755  -0.008730  -0.043214   0.580521  -0.000024
    18  H   -0.000233  -0.000119   0.000031  -0.000955  -0.000024   0.598064
    19  H   -0.000056   0.000386  -0.000210  -0.015584   0.001108  -0.039141
    20  H    0.000025  -0.000042   0.000010   0.002238  -0.000024  -0.031734
    21  H    0.000011   0.002727   0.000660   0.000705   0.007355   0.000001
    22  H   -0.000013   0.000007   0.001917   0.010429  -0.015082   0.000000
    23  H   -0.000000   0.000382  -0.000400  -0.016854   0.001986  -0.000017
              19         20         21         22         23
     1  C    0.005631   0.007835   0.000082  -0.000039   0.000079
     2  C    0.000544  -0.000655   0.000446  -0.000283  -0.000529
     3  C    0.001574  -0.000134  -0.003944  -0.000990   0.008015
     4  C   -0.054213  -0.040751  -0.000284   0.000053  -0.000107
     5  C   -0.015105   0.000819  -0.054495  -0.041842  -0.043228
     6  C    0.415414   0.400344   0.000048  -0.000096   0.000387
     7  C    0.001112  -0.000066   0.407707   0.403429   0.405929
     8  H    0.007359  -0.018733   0.000000   0.000002  -0.000001
     9  H   -0.017296   0.004607   0.000395  -0.000140  -0.000150
    10  H    0.001531   0.001094  -0.000002  -0.000001  -0.000000
    11  H   -0.000751  -0.000535   0.000004   0.000000  -0.000005
    12  H    0.000073   0.000030  -0.000054   0.000022   0.000029
    13  H   -0.000056   0.000025   0.000011  -0.000013  -0.000000
    14  H    0.000386  -0.000042   0.002727   0.000007   0.000382
    15  H   -0.000210   0.000010   0.000660   0.001917  -0.000400
    16  H   -0.015584   0.002238   0.000705   0.010429  -0.016854
    17  H    0.001108  -0.000024   0.007355  -0.015082   0.001986
    18  H   -0.039141  -0.031734   0.000001   0.000000  -0.000017
    19  H    0.631973  -0.033873  -0.000085  -0.000202   0.001654
    20  H   -0.033873   0.596968   0.000006   0.000003  -0.000036
    21  H   -0.000085   0.000006   0.593957  -0.034504  -0.035330
    22  H   -0.000202   0.000003  -0.034504   0.596824  -0.030659
    23  H    0.001654  -0.000036  -0.035330  -0.030659   0.607248
 Mulliken charges:
               1
     1  C   -0.241614
     2  C   -0.255191
     3  C   -0.243663
     4  C   -0.212373
     5  C   -0.257976
     6  C   -0.345851
     7  C   -0.340846
     8  H    0.117203
     9  H    0.121041
    10  H    0.118408
    11  H    0.119327
    12  H    0.124317
    13  H    0.123575
    14  H    0.122160
    15  H    0.137057
    16  H    0.123063
    17  H    0.129043
    18  H    0.114195
    19  H    0.108157
    20  H    0.112606
    21  H    0.114591
    22  H    0.111166
    23  H    0.101607
 Sum of Mulliken charges =  -0.00000
 Mulliken charges with hydrogens summed into heavy atoms:
               1
     1  C   -0.003879
     2  C   -0.007300
     3  C    0.015555
     4  C    0.025870
     5  C   -0.005871
     6  C   -0.010894
     7  C   -0.013481
 APT charges:
               1
     1  C   -0.835120
     2  C   -0.860735
     3  C   -0.661597
     4  C   -0.444848
     5  C   -0.357792
     6  C   -1.146125
     7  C   -1.336816
     8  H    0.463322
     9  H    0.159264
    10  H    0.333574
    11  H    0.462835
    12  H    0.448960
    13  H    0.352232
    14  H    0.270132
    15  H    0.443420
    16  H    0.217022
    17  H    0.372946
    18  H    0.309439
    19  H    0.165156
    20  H    0.512899
    21  H    0.299272
    22  H    0.488356
    23  H    0.344205
 Sum of APT charges =  -0.00000
 APT charges with hydrogens summed into heavy atoms:
               1
     1  C   -0.038711
     2  C   -0.059542
     3  C    0.051955
     4  C    0.177738
     5  C    0.232176
     6  C   -0.158631
     7  C   -0.204984
 Electronic spatial extent (au):  <R**2>=           1049.6570
 Charge=             -0.0000 electrons
 Dipole moment (field-independent basis, Debye):
    X=             -0.1512    Y=              0.0967    Z=              0.0355  Tot=              0.1829
 Quadrupole moment (field-independent basis, Debye-Ang):
   XX=            -49.5051   YY=            -49.5568   ZZ=            -48.7875
   XY=              0.2135   XZ=             -0.6013   YZ=             -0.0504
 Traceless Quadrupole moment (field-independent basis, Debye-Ang):
   XX=             -0.2220   YY=             -0.2737   ZZ=              0.4956
   XY=              0.2135   XZ=             -0.6013   YZ=             -0.0504
 Octapole moment (field-independent basis, Debye-Ang**2):
  XXX=             -3.0398  YYY=              1.1486  ZZZ=             -0.5547  XYY=             -0.2359
  XXY=              1.6350  XXZ=             -0.3908  XZZ=             -0.6898  YZZ=              1.2421
  YYZ=              1.1425  XYZ=             -0.2773
 Hexadecapole moment (field-independent basis, Debye-Ang**3):
 XXXX=           -872.0695 YYYY=           -483.5992 ZZZZ=           -146.9209 XXXY=              9.7927
 XXXZ=            -12.1387 YYYX=             -1.5064 YYYZ=              1.4184 ZZZX=              1.4109
 ZZZY=             -1.6846 XXYY=           -224.5270 XXZZ=           -165.3203 YYZZ=           -107.4758
 XXYZ=             -0.9087 YYXZ=             -4.7351 ZZXY=              0.0918
 N-N= 3.342633823184D+02 E-N=-1.306991274270D+03  KE= 2.745615071633D+02
  Exact polarizability:   0.000   0.000   0.000   0.000   0.000   0.000
 Approx polarizability:  99.451   0.782  97.515  -0.544  -0.219  98.138
 No NMR shielding tensors so no spin-rotation constants.
 Leave Link  601 at Sat Sep 28 03:25:55 2019, MaxMem=   671088640 cpu:              66.9 elap:              33.5
 (Enter /shared/centos7/gaussian/g16/l701.exe)
 SCFChk:  SCF convergence  6.82D-09 required  1.00D-08
 ... and contract with generalized density number  0.
 Compute integral second derivatives.
 Entering OneElI...
 Calculate overlap and kinetic energy integrals
    NBasis = 485  MinDer = 2  MaxDer = 2
 Requested accuracy = 0.1000D-12
 PrmmSu-InSpLW:  IPartL=    0 NPrtUS=   20 NPrtUL=    1 DoSpLW=F IThBeg=    0 IThEnd=   19 NThAct=   20.
 PrsmSu:  NPrtUS=  20 ThrOK=T IAlg=1 NPAlg=1 LenDen=           0 ISkipM=0 DoSpLW=F IThBeg=    0 IThEnd=   19.
 Prism:   IPart=     0 DynPar=F LinDyn=F Incr=           6.
 PRISM was handed    33196956 working-precision words and 13765 shell-pairs
 PRISM was handed    33196956 working-precision words and 13765 shell-pairs
 PRISM was handed    33196956 working-precision words and 13765 shell-pairs
 PRISM was handed    33196956 working-precision words and 13765 shell-pairs
 PRISM was handed    33196956 working-precision words and 13765 shell-pairs
 PRISM was handed    33196956 working-precision words and 13765 shell-pairs
 PRISM was handed    33196956 working-precision words and 13765 shell-pairs
 PRISM was handed    33196956 working-precision words and 13765 shell-pairs
 PRISM was handed    33196956 working-precision words and 13765 shell-pairs
 PRISM was handed    33196956 working-precision words and 13765 shell-pairs
 PRISM was handed    33196956 working-precision words and 13765 shell-pairs
 PRISM was handed    33196956 working-precision words and 13765 shell-pairs
 PRISM was handed    33196956 working-precision words and 13765 shell-pairs
 PRISM was handed    33196956 working-precision words and 13765 shell-pairs
 PRISM was handed    33196956 working-precision words and 13765 shell-pairs
 PRISM was handed    33196956 working-precision words and 13765 shell-pairs
 PRISM was handed    33196956 working-precision words and 13765 shell-pairs
 PRISM was handed    33196956 working-precision words and 13765 shell-pairs
 IPart=  0 NShTot=         726 NBatch=          80 AvBLen=         9.1
 IPart= 16 NShTot=         666 NBatch=          52 AvBLen=        12.8
 PRISM was handed    33196956 working-precision words and 13765 shell-pairs
 PRISM was handed    33196956 working-precision words and 13765 shell-pairs
 IPart=  4 NShTot=         711 NBatch=          74 AvBLen=         9.6
 IPart=  3 NShTot=         713 NBatch=          74 AvBLen=         9.6
 IPart= 10 NShTot=         680 NBatch=          57 AvBLen=        11.9
 IPart= 14 NShTot=         672 NBatch=          52 AvBLen=        12.9
 IPart= 15 NShTot=         671 NBatch=          52 AvBLen=        12.9
 IPart=  5 NShTot=         707 NBatch=          73 AvBLen=         9.7
 IPart= 13 NShTot=         672 NBatch=          52 AvBLen=        12.9
 IPart=  8 NShTot=         689 NBatch=          60 AvBLen=        11.5
 IPart= 12 NShTot=         674 NBatch=          53 AvBLen=        12.7
 IPart=  2 NShTot=         719 NBatch=          76 AvBLen=         9.5
 IPart= 17 NShTot=         663 NBatch=          50 AvBLen=        13.3
 IPart= 18 NShTot=         661 NBatch=          48 AvBLen=        13.8
 IPart=  9 NShTot=         683 NBatch=          58 AvBLen=        11.8
 IPart=  6 NShTot=         703 NBatch=          70 AvBLen=        10.0
 IPart= 11 NShTot=         678 NBatch=          56 AvBLen=        12.1
 IPart=  1 NShTot=         723 NBatch=          78 AvBLen=         9.3
 IPart= 19 NShTot=         661 NBatch=          48 AvBLen=        13.8
 IPart=  7 NShTot=         693 NBatch=          63 AvBLen=        11.0
 PrSmSu:  NxtVal=            121.
 Entering OneElI...
 Calculate potential energy integrals
    NBasis = 485  MinDer = 2  MaxDer = 2
 Requested accuracy = 0.1000D-12
 PrmmSu-InSpLW:  IPartL=    0 NPrtUS=   20 NPrtUL=    1 DoSpLW=F IThBeg=    0 IThEnd=   19 NThAct=   20.
 PrsmSu:  NPrtUS=  20 ThrOK=T IAlg=1 NPAlg=1 LenDen=           0 ISkipM=0 DoSpLW=F IThBeg=    0 IThEnd=   19.
 Prism:   IPart=     0 DynPar=F LinDyn=F Incr=         144.
 PRISM was handed    33258804 working-precision words and 12586 shell-pairs
 PRISM was handed    33258804 working-precision words and 12586 shell-pairs
 PRISM was handed    33258804 working-precision words and 12586 shell-pairs
 PRISM was handed    33258804 working-precision words and 12586 shell-pairs
 PRISM was handed    33258804 working-precision words and 12586 shell-pairs
 PRISM was handed    33258804 working-precision words and 12586 shell-pairs
 PRISM was handed    33258804 working-precision words and 12586 shell-pairs
 PRISM was handed    33258804 working-precision words and 12586 shell-pairs
 PRISM was handed    33258804 working-precision words and 12586 shell-pairs
 PRISM was handed    33258804 working-precision words and 12586 shell-pairs
 PRISM was handed    33258804 working-precision words and 12586 shell-pairs
 PRISM was handed    33258804 working-precision words and 12586 shell-pairs
 PRISM was handed    33258804 working-precision words and 12586 shell-pairs
 PRISM was handed    33258804 working-precision words and 12586 shell-pairs
 PRISM was handed    33258804 working-precision words and 12586 shell-pairs
 PRISM was handed    33258804 working-precision words and 12586 shell-pairs
 PRISM was handed    33258804 working-precision words and 12586 shell-pairs
 PRISM was handed    33258804 working-precision words and 12586 shell-pairs
 PRISM was handed    33258804 working-precision words and 12586 shell-pairs
 PRISM was handed    33258804 working-precision words and 12586 shell-pairs
 IPart= 16 NShTot=       13984 NBatch=         609 AvBLen=        23.0
 IPart=  0 NShTot=       15249 NBatch=         665 AvBLen=        22.9
 IPart= 13 NShTot=       14168 NBatch=         617 AvBLen=        23.0
 IPart=  4 NShTot=       14950 NBatch=         652 AvBLen=        22.9
 IPart=  5 NShTot=       14950 NBatch=         652 AvBLen=        22.9
 IPart= 10 NShTot=       14329 NBatch=         624 AvBLen=        23.0
 IPart=  3 NShTot=       14996 NBatch=         654 AvBLen=        22.9
 IPart= 14 NShTot=       14122 NBatch=         615 AvBLen=        23.0
 IPart= 15 NShTot=       14030 NBatch=         611 AvBLen=        23.0
 IPart= 19 NShTot=       13892 NBatch=         605 AvBLen=        23.0
 IPart=  6 NShTot=       14720 NBatch=         642 AvBLen=        22.9
 IPart= 18 NShTot=       13961 NBatch=         608 AvBLen=        23.0
 IPart= 12 NShTot=       14214 NBatch=         619 AvBLen=        23.0
 IPart= 11 NShTot=       14306 NBatch=         623 AvBLen=        23.0
 IPart=  1 NShTot=       15203 NBatch=         663 AvBLen=        22.9
 IPart=  8 NShTot=       14444 NBatch=         629 AvBLen=        23.0
 IPart= 17 NShTot=       13961 NBatch=         608 AvBLen=        23.0
 IPart=  9 NShTot=       14398 NBatch=         627 AvBLen=        23.0
 IPart=  7 NShTot=       14536 NBatch=         634 AvBLen=        22.9
 IPart=  2 NShTot=       15065 NBatch=         657 AvBLen=        22.9
 PrSmSu:  NxtVal=           2881.
 Polarizability after L701:
                1             2             3 
      1  0.000000D+00
      2  0.000000D+00  0.000000D+00
      3  0.000000D+00  0.000000D+00  0.000000D+00
 Dipole Derivatives after L701:
                 1             2             3             4             5 
      1  -0.154221D+01  0.534948D+00 -0.452527D+00  0.167132D-01  0.336382D+00
      2   0.757634D+00 -0.296641D+00 -0.124809D+00 -0.507931D-01 -0.172841D+01
      3  -0.952827D-01 -0.319082D+00 -0.666511D+00  0.150625D+00  0.763003D-01
                 6             7             8             9            10 
      1   0.207688D-01 -0.694594D+00 -0.566859D+00 -0.349798D+00 -0.561778D+00
      2   0.333996D+00 -0.612965D+00 -0.537871D+00 -0.325178D+00  0.379110D-01
      3  -0.870512D+00  0.242302D-01  0.766910D-01 -0.752328D+00  0.328887D-01
                11            12            13            14            15 
      1  -0.813281D-01  0.120025D+01  0.781010D-01 -0.320674D-01  0.905532D+00
      2   0.665858D-01  0.489480D+00 -0.368883D+00 -0.379544D+00 -0.283627D-01
      3   0.158390D+00 -0.839352D+00  0.702793D-01 -0.938498D-02 -0.771934D+00
                16            17            18            19            20 
      1  -0.100928D+01 -0.847357D+00 -0.657540D+00 -0.195495D+01  0.492616D+00
      2  -0.596907D-01 -0.156075D+01 -0.480738D+00  0.254181D+00 -0.111168D+01
      3  -0.491348D-02  0.597525D-01 -0.868351D+00  0.679929D-01 -0.111310D-01
                21            22            23            24            25 
      1  -0.375805D+00  0.721037D+00  0.411001D-01 -0.601415D+00  0.257154D-01
      2   0.125164D+00  0.146496D+00  0.197694D+00 -0.142152D+00 -0.195458D+00
      3  -0.943814D+00 -0.374161D+00 -0.194579D-01  0.471236D+00  0.407951D+00
                26            27            28            29            30 
      1   0.106583D-01 -0.750182D-01  0.360268D+00  0.155484D+00  0.658308D+00
      2   0.148716D+00 -0.581228D-01 -0.510100D-01  0.114754D+00 -0.194171D+00
      3  -0.203057D-02  0.303360D+00  0.127286D+00  0.768653D-01  0.525698D+00
                31            32            33            34            35 
      1   0.714251D+00 -0.435275D+00 -0.443777D+00  0.215406D+00 -0.162891D+00
      2  -0.333255D+00  0.446595D+00  0.256595D+00 -0.164306D+00  0.936592D+00
      3  -0.141223D+00  0.957188D-01  0.227661D+00 -0.353319D-01  0.121968D+00
                36            37            38            39            40 
      1  -0.107648D+00  0.148220D+00  0.453433D-02  0.922767D-01  0.104539D+00
      2   0.471751D+00  0.573845D-01  0.280282D+00 -0.636041D+00 -0.373919D-01
      3   0.194882D+00 -0.152040D-01 -0.104621D+00  0.628195D+00 -0.971056D-01
                41            42            43            44            45 
      1  -0.687711D-01  0.258968D+00  0.557152D+00  0.451650D+00 -0.613715D-01
      2   0.807202D-01  0.258496D+00  0.447285D+00  0.636088D+00 -0.561212D-01
      3  -0.150237D+00  0.625137D+00  0.287307D-01  0.446699D-01  0.137020D+00
                46            47            48            49            50 
      1   0.615022D-01 -0.120735D+00 -0.137027D-01  0.317285D+00  0.145741D+00
      2   0.308856D+00  0.437300D+00 -0.223697D-01  0.115530D-01  0.137748D+00
      3   0.133981D+00  0.112435D+00  0.152265D+00 -0.169358D+00 -0.142093D+00
                51            52            53            54            55 
      1  -0.556880D+00  0.319615D+00 -0.181985D+00  0.675970D+00  0.160701D-01
      2  -0.369800D-01  0.122940D+00  0.361272D-01  0.419119D+00 -0.755395D+00
      3   0.663805D+00  0.177192D+00 -0.136200D+00  0.572575D+00 -0.146224D+00
                56            57            58            59            60 
      1   0.588365D-01  0.469455D-01  0.629613D+00  0.577079D+00 -0.347406D+00
      2   0.345461D+00  0.134650D+00  0.573649D+00  0.741698D+00 -0.337697D+00
      3   0.654842D-01  0.133936D+00 -0.764296D-01 -0.410313D-01  0.167386D+00
                61            62            63            64            65 
      1   0.198162D+00  0.134435D+00  0.866960D+00  0.121571D+01  0.464036D+00
      2  -0.349311D-01  0.753624D-01 -0.185562D+00 -0.110077D+00  0.592407D-01
      3   0.286979D-01  0.985674D-01  0.624291D+00 -0.109913D+00 -0.731554D-01
                66            67            68            69 
      1  -0.602317D+00  0.634457D-01 -0.910233D+00 -0.807737D-01
      2   0.356129D-01  0.562656D-01  0.873928D+00  0.103441D+00
      3   0.190116D+00  0.152908D-01  0.215810D-01  0.952407D-01
 Hessian after L701:
                1             2             3             4             5 
      1  0.157029D+02
      2 -0.421922D+00  0.158083D+02
      3  0.142833D+00  0.278056D+00  0.177853D+02
      4 -0.353440D+01  0.175157D+01 -0.371212D+00  0.152401D+02
      5  0.174457D+01 -0.499216D+01 -0.974689D-01  0.201485D-01  0.162727D+02
      6 -0.342535D+00 -0.830852D-01 -0.592531D+01 -0.918948D-01  0.345660D+00
      7  0.372740D+00  0.714852D-01  0.501135D-01 -0.289870D+01 -0.131964D+01
      8  0.437974D-01 -0.804699D-01 -0.154140D-01 -0.129161D+01 -0.577596D+01
      9  0.168718D-01 -0.173239D-01 -0.143700D+00  0.114812D+01 -0.447382D+00
     10 -0.620265D+01 -0.140206D+00 -0.359970D-01 -0.159530D-01  0.123311D+00
     11 -0.184287D+00 -0.293847D+01 -0.151644D+01  0.115822D+00  0.210347D+00
     12 -0.137252D-01 -0.151384D+01 -0.539545D+01 -0.161090D-01 -0.109283D+00
     13  0.217594D+00 -0.126620D+00 -0.590167D-01  0.141334D+00 -0.194215D+00
     14 -0.879576D-01 -0.130173D+00  0.576588D-02 -0.242693D+00  0.160140D+00
     15 -0.824926D-02 -0.571842D-02 -0.174420D+00 -0.506118D-02  0.487923D-01
     16 -0.943001D-01 -0.361763D-01  0.414723D-02 -0.110570D+00  0.148995D+00
     17  0.779319D-01  0.305092D+00  0.126084D+00  0.131884D+00  0.231592D+00
     18  0.294889D-02 -0.551704D-02 -0.727178D-01 -0.106727D-01 -0.187210D-01
     19  0.645985D-01 -0.484702D-01  0.461869D-02  0.107896D+00 -0.184590D+00
     20 -0.482832D-01 -0.431249D-01 -0.570587D-02 -0.199624D+00  0.226416D-01
     21  0.397699D-02 -0.481154D-02 -0.647871D-01  0.326126D-01 -0.288716D-01
     22  0.159075D+00 -0.266036D-01 -0.295619D-01  0.231081D-01  0.772507D-01
     23 -0.154231D-01 -0.580121D-01  0.108445D+00  0.669088D-01  0.315244D-01
     24 -0.524445D-01  0.105165D+00  0.704073D-01 -0.652056D-01 -0.710809D-01
     25  0.164113D+00  0.712564D-01 -0.514090D-01  0.256166D-01  0.264193D-02
     26  0.132722D+00 -0.263424D-02  0.167583D+00  0.347890D-01 -0.362437D-01
     27 -0.108540D+00  0.173214D+00 -0.323267D-02 -0.219897D-01  0.456522D-01
     28 -0.399751D+01  0.169841D+00  0.107104D+01 -0.834964D-01 -0.146892D+00
     29  0.103021D+00 -0.447131D+01  0.270822D+00 -0.100000D+00  0.779865D-01
     30  0.980200D+00  0.387469D+00 -0.234082D+01 -0.424587D-01 -0.367289D-01
     31 -0.298691D+01 -0.983626D+00 -0.761466D+00 -0.866658D-01 -0.113796D+00
     32 -0.984484D+00 -0.363156D+01  0.565055D+00 -0.895868D-01  0.122295D+00
     33 -0.738078D+00  0.549686D+00 -0.387705D+01  0.377965D-04  0.425822D-01
     34  0.666952D-02 -0.140375D+00 -0.974476D-02 -0.436607D+01 -0.311141D+00
     35 -0.169724D+00  0.308477D-01  0.376120D-01 -0.301092D+00 -0.236212D+01
     36 -0.928247D-02  0.505685D-01  0.148294D+00 -0.143709D+00  0.925570D+00
     37  0.329326D-02 -0.135995D+00  0.785417D-01 -0.442024D+01  0.789865D-01
     38 -0.174063D+00  0.892120D-02  0.891295D-01  0.110888D+00 -0.417103D+01
     39  0.102915D+00  0.809635D-01  0.177939D+00 -0.292329D+00 -0.703807D+00
     40  0.158027D-01 -0.321023D-02  0.890110D-03  0.548489D-02  0.896693D-01
     41 -0.107796D-01 -0.183095D-01 -0.108260D-01  0.459038D-01  0.210353D-01
     42  0.283932D-01 -0.635619D-03 -0.127754D-01 -0.548953D-01  0.712539D-01
     43  0.122058D+00  0.575134D-01  0.110983D-01 -0.357683D-01  0.468824D-01
     44  0.672742D-01 -0.179350D-01  0.440566D-02  0.500986D-01  0.113906D+00
     45  0.149550D-01  0.548567D-02 -0.403407D-01 -0.477952D-01 -0.574452D-02
     46 -0.126125D-01 -0.226295D-01 -0.769912D-02 -0.833458D-02 -0.249263D-01
     47 -0.608779D-01  0.255175D-01  0.226826D-01 -0.675360D-01  0.432353D-01
     48 -0.118104D-01  0.867305D-02 -0.328780D-01 -0.718580D-02  0.608502D-02
     49  0.137534D-01 -0.815014D-02 -0.223732D-01  0.104890D-01 -0.253654D-01
     50 -0.306593D-02 -0.118691D-01  0.399881D-03 -0.208601D-01 -0.123309D-01
[...]
 119265,-0.00018550,0.00152443,-0.00461092,0.00267596,0.12546644,0.1311
 9469,-0.00032429,-0.00076996,-0.00003609,0.01370446,0.00910715,-0.0031
 6205,0.02433943,0.01446427,-0.04980959,0.00027147,-0.00022440,0.000374
 94,-0.02794474,-0.01644278,0.00117320,-0.00014455,-0.00007623,-0.00011
 796,0.00013811,-0.00128497,0.00142904,-0.00020131,0.00008405,-0.000190
 74,0.00059678,-0.00067710,-0.00027559,0.00000138,-0.00000870,0.0000460
 3,0.00005768,0.00000883,-0.00003632,0.00027378,-0.00043910,0.00021308,
 -0.00118902,0.00323654,-0.00081488,-0.02407254,-0.01743361,0.05769155,
 0.00051716,0.00066602,-0.00110872,-0.00409872,0.00207603,0.00341186,-0
 .14687151,0.08389221,0.09348541,0.00029363,-0.00005109,0.00037705,0.00
 882997,-0.00735134,-0.01010687,0.00005400,0.00016814,-0.00024650,0.000
 86069,-0.00081853,-0.00000459,0.00003926,-0.00008252,-0.00001839,0.000
 09194,0.00019079,-0.00040202,-0.00000811,0.00014312,0.00005209,-0.0001
 2160,0.00030877,0.00029810,-0.00034682,0.00002772,-0.00014219,0.000782
 01,-0.00003256,-0.00032131,-0.01762439,0.01450931,0.01598259,0.1572169
 5,-0.00013630,-0.00372542,0.00482115,0.01901467,-0.01770098,-0.0169713
 6,0.08286970,-0.11853849,-0.08007325,-0.00061878,-0.00015307,0.0005604
 0,0.00304669,-0.00331035,-0.00340244,0.00019449,0.00019176,-0.00013450
 ,-0.00036020,0.00078248,0.00110874,0.00011492,-0.00000397,0.00004427,-
 0.00003908,0.00024021,-0.00023855,-0.00021610,0.00018591,-0.00007084,0
 .00107708,-0.00121876,-0.00091763,-0.00001127,0.00104678,0.00019175,-0
 .00065307,0.00077682,-0.00069020,-0.01032982,0.00942257,0.01038064,-0.
 09319326,0.13129921,-0.00040263,0.00260275,-0.00143787,-0.01075495,0.0
 0985111,0.00927629,0.09332969,-0.08029901,-0.13355421,0.00017856,0.000
 31302,-0.00019513,0.01856149,-0.01538987,-0.02179962,-0.00009637,-0.00
 009512,0.00005668,0.00137500,-0.00116231,0.00129865,0.00001536,-0.0000
 6121,0.00002725,-0.00014991,-0.00014208,0.00006168,0.00002453,0.000241
 12,0.00007576,-0.00039321,0.00063454,0.00039051,-0.00004853,-0.0007469
 9,0.00063161,0.00014937,-0.00071354,0.00057880,0.00223851,-0.00135555,
 -0.00253127,-0.09933583,0.08586276,0.15039800,-0.00007937,0.00135204,0
 .00019106,0.00022150,0.00016760,0.00078820,0.01009482,-0.00748316,-0.0
 0975048,0.00002097,0.00049375,-0.00059802,-0.15480178,0.07352752,0.103
 82484,-0.00000115,-0.00003617,0.00011437,-0.00616963,0.00443543,0.0047
 9292,0.00002245,-0.00012477,0.00010064,-0.00006673,-0.00042182,0.00013
 472,-0.00040179,0.00026857,-0.00080635,-0.00016205,-0.00018425,-0.0001
 9386,0.00006387,-0.00019117,0.00014990,0.00000545,0.00006020,-0.000063
 10,0.00087849,-0.00007782,0.00081178,-0.00022759,-0.00052563,-0.003519
 59,0.16632047,0.00054650,-0.00073265,0.00048179,-0.00045544,0.00001363
 ,0.00014609,0.00202670,-0.00255778,-0.00358343,-0.00000456,0.00011324,
 -0.00010524,0.07328730,-0.10005161,-0.07310871,-0.00003063,-0.00005257
 ,0.00012185,0.02013851,-0.01540246,-0.01761631,-0.00007781,-0.00007182
 ,0.00005488,-0.00031872,0.00010566,-0.00009016,0.00072454,-0.00120278,
 0.00120454,-0.00007486,0.00008151,0.00009891,0.00007171,0.00004073,-0.
 00016398,0.00001178,0.00002097,0.00005489,0.00029272,0.00000782,-0.000
 04044,-0.00029945,0.00038599,-0.00067192,-0.08435141,0.11302581,-0.000
 18389,0.00014137,-0.00052071,0.00074024,-0.00084791,0.00057697,0.01933
 794,-0.01383915,-0.02091178,-0.00017189,0.00030776,0.00010120,0.103403
 06,-0.07347693,-0.14671044,-0.00004947,-0.00001254,0.00016037,-0.01019
 150,0.00757971,0.00882828,0.00021555,-0.00011866,0.00016671,-0.0005070
 5,-0.00023191,0.00006876,-0.00011720,0.00107294,0.00011631,0.00014166,
 0.00006458,0.00047437,-0.00020623,0.00012590,0.00022367,-0.00008423,0.
 00000055,-0.00001041,-0.00003798,0.00010564,0.00146900,-0.00336623,-0.
 00034610,-0.00492036,-0.11023516,0.07871233,0.16259696,-0.00022095,-0.
 00003876,-0.00017616,0.00039488,-0.00060737,0.00077575,-0.01327273,-0.
 00820458,0.00015638,0.00002686,-0.00026164,0.00019581,-0.21387490,-0.1
 2089379,0.02138257,0.00005138,0.00007776,-0.00011155,0.00893992,0.0071
 4223,-0.00121615,0.00005647,0.00010920,-0.00005884,0.00026119,0.000089
 94,-0.00012892,-0.00029960,0.00018366,0.00026027,0.00002972,0.00011482
 ,0.00004141,0.00038444,0.00018707,0.00003262,0.00006788,0.00068239,-0.
 00059354,0.00021557,-0.00025705,-0.00317610,0.00072506,0.00012397,-0.0
 0016911,-0.01725307,-0.01200819,0.00203091,0.23202020,0.00000820,0.000
 37619,-0.00004522,0.00102110,0.00070903,0.00028108,-0.00399309,-0.0032
 7211,-0.00003652,0.00015141,0.00011766,0.00010150,-0.11981245,-0.13539
 436,0.01319047,-0.00001581,-0.00000077,0.00000316,-0.02356128,-0.01889
 879,0.00376501,0.00004724,-0.00010965,0.00001990,-0.00009817,-0.000044
 98,-0.00001238,-0.00020627,-0.00000561,-0.00024988,-0.00009533,-0.0000
 0832,-0.00002715,0.00014502,0.00003971,-0.00007904,-0.00023134,0.00045
 506,-0.00020973,0.00014519,0.00045687,-0.00062901,-0.00005900,-0.00019
 324,0.00004251,0.01190735,0.00896603,-0.00081571,0.13235888,0.14941474
 ,0.00008711,0.00027108,0.00009683,-0.00017677,-0.00106939,0.00178793,-
 0.02690889,-0.01756857,0.00123487,-0.00002527,-0.00000796,-0.00009470,
 0.02130882,0.01328318,-0.04990925,0.00006145,0.00004162,0.00002075,0.0
 1102933,0.00855622,-0.00209401,0.00004478,-0.00007475,0.00011513,-0.00
 007180,-0.00009531,-0.00009887,-0.00005499,0.00004662,-0.00007138,-0.0
 0002504,0.00002450,0.00004114,0.00045938,-0.00016273,0.00014587,0.0006
 1379,0.00055839,-0.00022516,-0.00291286,-0.00083533,-0.00538305,0.0007
 6474,-0.00001581,0.00115781,0.01622453,0.01239513,-0.00232355,-0.01891
 025,-0.01693884,0.05551040,0.00114900,0.00094202,-0.00162818,0.0000931
 7,-0.00007659,0.00027036,0.00006042,0.00011635,-0.00005439,-0.00505540
 ,0.01506608,-0.01265447,0.00002339,-0.00006196,-0.00000567,-0.05690921
 ,0.03724751,-0.03188925,-0.00000251,0.00000181,0.00002251,0.00068652,-
 0.00080722,0.00013207,-0.00187420,0.00264973,0.00217530,-0.00004689,-0
 .00000255,-0.00000544,-0.00025866,-0.00044791,0.00058884,-0.00000869,0
 .00000741,-0.00001144,-0.00000818,-0.00001710,0.00000869,-0.00007449,-
 0.00016056,0.00000672,-0.00007548,-0.00007919,0.00003859,0.00004279,0.
 00002139,0.00004291,-0.00004565,0.00000890,0.00000129,0.05916775,-0.00
 147585,0.00064270,0.00054096,-0.00008482,0.00016319,-0.00025089,-0.000
 21133,-0.00016413,0.00006588,0.00505063,-0.01883730,0.01434028,-0.0000
 3152,0.00006743,-0.00000257,0.03767805,-0.19816787,0.12592699,-0.00000
 451,-0.00000022,-0.00002245,-0.00070938,0.00045410,-0.00001291,0.00281
 958,-0.00204334,-0.00295303,0.00002162,0.00001742,-0.00008032,0.000641
 96,0.00071109,-0.00035878,-0.00000029,-0.00005805,-0.00004175,0.000033
 84,0.00000632,-0.00003355,0.00012017,0.00016616,0.00002904,0.00009161,
 0.00008212,-0.00004369,-0.00004316,-0.00004646,-0.00007291,0.00005241,
 -0.00000336,-0.00000085,-0.04464168,0.21702698,-0.00063469,-0.00062763
 ,0.00078578,-0.00020746,-0.00023590,0.00014898,0.00008774,-0.00012342,
 -0.00007100,0.00376114,-0.01252261,0.01020830,0.00003063,-0.00001047,-
 0.00005363,-0.03249662,0.12672205,-0.15194932,-0.00000129,0.00000027,0
 .00000230,-0.00068527,0.00045762,0.00093169,0.00255192,-0.00252119,-0.
 00034321,0.00002561,0.00012671,-0.00006322,-0.00035106,0.00028829,0.00
 001808,-0.00000041,-0.00000253,-0.00002609,-0.00006791,0.00005415,0.00
 000806,0.00004609,0.00007997,-0.00000218,0.00007277,0.00001334,0.00001
 187,-0.00001404,-0.00001755,-0.00001678,0.00000794,-0.00000020,0.00000
 716,0.03343074,-0.13705173,0.16256512,0.00190763,0.00035838,0.00060102
 ,0.00000880,0.00011156,0.00011990,0.00004840,0.00001414,-0.00004546,0.
 00884201,0.00741789,0.01804187,-0.00004974,0.00001924,0.00005418,-0.09
 979015,-0.04408887,-0.09716410,0.00001351,0.00000152,-0.00002451,-0.00
 210688,0.00296944,0.00239845,0.00077490,-0.00079124,-0.00058473,-0.000
 16648,-0.00002490,-0.00047259,-0.00001114,-0.00016528,-0.00004245,-0.0
 0009962,-0.00006637,-0.00014416,-0.00000780,-0.00003970,-0.00008050,0.
 00000908,-0.00003803,0.00002614,-0.00000206,-0.00003313,0.00000265,0.0
 0003835,-0.00000501,-0.00006470,-0.00000380,-0.00000469,-0.00001150,-0
 .00353258,-0.00207708,-0.00378864,0.10618309,-0.00112808,0.00052505,0.
 00070265,0.00007652,-0.00006772,0.00022808,-0.00006768,-0.00002698,-0.
 00001935,-0.01030442,-0.00964535,-0.02011129,0.00010449,-0.00006740,-0
 .00013422,-0.04365446,-0.08234497,-0.07837355,-0.00001981,0.00001197,0
 .00004822,0.00342033,-0.00253668,-0.00188160,-0.00077942,0.00040451,0.
 00048255,0.00060326,0.00047448,0.00010811,0.00017530,0.00000290,0.0000
 5607,-0.00010162,0.00005661,0.00017036,0.00006440,0.00000560,0.0000314
 0,-0.00000211,0.00006643,-0.00003221,0.00003453,0.00000456,0.00002767,
 -0.00001640,0.00001079,0.00004035,-0.00001437,0.00001301,0.00003560,0.
 01167901,0.01022066,0.02036011,0.04546195,0.08865164,-0.00121442,0.000
 29351,0.00034732,0.00032460,0.00008406,0.00027866,-0.00008886,-0.00004
 591,0.00002445,-0.00596206,-0.00550788,-0.01252595,0.00004102,0.000010
 62,-0.00005128,-0.09653421,-0.07863779,-0.22433228,-0.00000667,0.00000
 589,0.00002511,0.00225912,-0.00205790,0.00026742,0.00023787,0.00009719
 ,0.00081187,0.00091679,0.00011951,0.00002417,0.00001648,-0.00000771,-0
 .00016705,-0.00013488,0.00013087,0.00019065,0.00009967,-0.00003042,-0.
 00001596,0.00001098,0.00009117,-0.00001315,0.00002983,0.00002622,-0.00
 000375,0.00000845,-0.00006483,-0.00001629,0.00003729,-0.00000472,0.000
 00406,-0.00886051,-0.00787957,-0.01636585,0.10487812,0.08961813,0.2430
 2869,-0.00098379,0.00447558,0.00202298,-0.00074869,-0.00113187,0.00005
 579,-0.00003320,-0.00016174,0.00009405,-0.01554886,-0.00879722,0.00371
 780,0.00003564,0.00005848,0.00001097,-0.24975768,-0.09803519,0.0627867
 6,-0.00002939,-0.00003744,-0.00001142,0.00076928,0.00002128,0.00020999
 ,0.00024667,0.00005069,-0.00065054,0.00040592,0.00007753,-0.00008675,0
 .00020111,-0.00004310,-0.00003267,-0.00001418,0.00006821,0.00009140,-0
 .00032016,0.00028526,0.00026417,0.00005425,0.00003131,-0.00003447,-0.0
 0001809,0.00008229,-0.00003263,-0.00000607,-0.00003767,0.00003008,0.00
 002014,-0.00000184,0.00000247,0.00667326,0.00275261,-0.00176608,-0.012
 05969,-0.00553789,0.00393550,0.27111882,0.00177295,-0.00364633,-0.0018
 5784,0.00127180,0.00092754,-0.00040260,-0.00006894,0.00018951,0.000030
 48,0.02194263,0.01098956,-0.00610177,-0.00000095,-0.00003050,-0.000013
 97,-0.09919180,-0.09463050,0.03112880,0.00000829,0.00001208,0.00001644
 ,-0.00084748,0.00082831,0.00035829,-0.00055570,0.00094039,0.00069230,0
 .00007835,-0.00010001,0.00015205,0.00001274,0.00018951,-0.00036607,-0.
 00004113,0.00001881,-0.00000465,0.00031625,-0.00029474,-0.00027313,-0.
 00004515,-0.00005166,0.00002568,-0.00002644,-0.00001264,0.00000387,-0.
 00000139,0.00000907,0.00000442,-0.00000900,-0.00000020,-0.00001119,-0.
 02143767,-0.01024582,0.00500955,-0.00899671,-0.00575825,0.00374756,0.1
 0582060,0.10068126,0.00104990,-0.00282435,-0.00107209,0.00092257,0.000
 52289,0.00044375,0.00006224,0.00004971,-0.00010747,0.01203958,0.007304
 83,-0.00478178,-0.00001060,-0.00003219,-0.00002449,0.06250018,0.030610
 39,-0.06684749,0.00000652,0.00001238,0.00001585,-0.00030656,0.00054257
 ,-0.00004390,-0.00055003,-0.00006209,0.00053417,0.00040086,0.00011605,
 0.00021469,-0.00032978,-0.00038593,0.00018868,-0.00009270,0.00004909,0
 .00001208,0.00022899,-0.00020108,-0.00018837,-0.00002859,-0.00001373,0
 .00003139,0.00001279,-0.00006246,0.00002501,-0.00000247,-0.00001506,-0
 .00000714,-0.00000082,0.00000221,-0.00001172,0.01838960,0.00789946,-0.
 00579903,-0.02371013,-0.01135668,0.00848833,-0.07058479,-0.03214426,0.
 06891921,-0.00001494,-0.00001782,-0.00000170,0.00027700,0.00019641,0.0
 0003690,0.00093554,0.00043539,0.00031953,-0.00000729,0.00004489,-0.000
 02384,0.00840990,0.00609885,-0.00141878,-0.00000005,-0.00000277,0.0000
 1356,-0.21709507,-0.12604201,0.02193871,0.00001138,-0.00001610,0.00001
 891,-0.00000662,-0.00007456,0.00004734,0.00001816,0.00002158,0.0000060
 7,0.00000748,-0.00001190,0.00000713,-0.00000459,-0.00008349,0.00005952
 ,-0.00012219,0.00003921,-0.00007357,0.00004931,-0.00021795,0.00045974,
 -0.00009270,-0.00017295,0.00002732,0.00074175,-0.00067246,0.00030335,0
 .00072649,0.00222445,-0.00138562,0.00000386,-0.00000642,-0.00000311,-0
 .00000435,0.00000106,0.00000065,0.00001217,-0.00000059,-0.00000358,0.2
 3361426,-0.00007205,-0.00002439,-0.00008486,0.00034857,0.00005080,-0.0
 0008692,-0.00101438,0.00104193,-0.00137971,0.00000294,-0.00013307,0.00
 014967,-0.02456880,-0.01940669,0.00376598,0.00001753,0.00003856,-0.000
 04678,-0.12533311,-0.13898906,0.01541586,0.00002312,0.00002346,-0.0000
 1714,0.00001482,0.00000464,-0.00004357,-0.00003977,0.00007673,0.000067
 69,0.00004435,0.00002048,0.00002085,0.00009731,-0.00000264,0.00004064,
 0.00004511,0.00022667,-0.00020256,0.00075070,0.00035766,0.00067709,0.0
 0011448,-0.00000761,0.00012339,-0.00008448,0.00093688,-0.00080865,0.00
 257521,-0.00470275,0.00258429,-0.00001426,0.00002221,-0.00000063,-0.00
 000840,-0.00000807,0.00001094,0.00002601,-0.00000907,-0.00000120,0.137
 33808,0.15400845,0.00000825,-0.00000585,0.00008519,-0.00013902,0.00001
 197,-0.00010806,0.00141320,0.00016136,0.00080253,-0.00000003,-0.000011
 87,-0.00002806,0.01068968,0.00781720,-0.00233265,-0.00000454,-0.000004
 05,0.00001209,0.02158984,0.01523937,-0.05038283,-0.00002261,0.00001180
 ,-0.00002157,-0.00000664,0.00003155,0.00003484,0.00001498,-0.00004589,
 -0.00003253,0.00001041,-0.00002546,-0.00002921,-0.00005062,-0.00000737
 ,-0.00001093,-0.00009007,-0.00015176,0.00004316,-0.00053712,0.00005010
 ,-0.00007479,0.00012278,-0.00005493,-0.00007497,-0.00037180,-0.0006545
 2,0.00031265,-0.00104923,0.00245157,-0.00039988,0.00000306,-0.00000468
 ,-0.00000557,0.00000023,-0.00001388,-0.00000803,0.00000547,0.00000030,
 0.00000099,-0.02323767,-0.01962089,0.05024033,0.00003448,-0.00002911,0
 .00016321,0.00021558,-0.00006523,-0.00034741,-0.00002766,-0.00025021,0
 .00105812,0.00001751,-0.00007966,0.00002575,-0.00602389,0.00389482,0.0
 0462241,0.00001225,0.00001066,-0.00001501,-0.16411039,0.07966819,0.104
 60376,-0.00002584,0.00001460,-0.00002478,0.00004187,0.00001974,0.00000
 251,-0.00001990,-0.00007973,-0.00006762,0.00001904,-0.00003608,-0.0000
 7040,-0.00003374,0.00003407,-0.00003763,-0.00001909,0.00000522,0.00001
 324,-0.00004915,0.00005911,0.00003750,-0.00002382,0.00005071,-0.000774
 11,0.00091837,0.00144192,-0.00108926,0.00064930,-0.00009650,-0.0004905
 9,-0.00000708,0.00001443,-0.00000569,0.00000343,-0.00001369,-0.0000043
 9,0.00000143,-0.00000433,0.00000135,-0.01687966,0.01245760,0.01556887,
 0.17520827,-0.00006496,-0.00015300,-0.00021796,-0.00027447,-0.00000028
 ,0.00004962,-0.00068273,0.00086668,-0.00174965,-0.00003995,0.00005315,
 0.00002962,0.02114863,-0.01530180,-0.01800302,-0.00001764,-0.00000895,
 0.00001209,0.07919585,-0.10105311,-0.07205447,0.00004535,-0.00001228,0
 .00003361,-0.00008095,-0.00007123,-0.00000217,0.00008745,0.00017465,0.
 00015682,0.00005318,0.00004666,0.00014283,-0.00001969,0.00001521,0.000
 03349,-0.00002034,-0.00006800,0.00000881,-0.00004447,0.00001551,0.0001
 1479,-0.00003115,0.00050431,0.00090659,0.00143080,-0.00483463,0.003186
 91,-0.00066491,0.00095079,-0.00058686,0.00000988,-0.00001280,0.0000036
 5,-0.00001364,0.00001814,0.00000860,0.00001610,0.00000176,-0.00000054,
 -0.01248771,0.00950573,0.01262595,-0.08987362,0.11215694,-0.00006828,0
 .00011149,-0.00005619,0.00007695,0.00011847,0.00019003,-0.00063603,0.0
 0051774,0.00173849,0.00000669,0.00001047,-0.00003347,-0.01001378,0.006
 06950,0.00764140,0.00000028,0.00000272,-0.00000373,0.10520081,-0.07283
 339,-0.14186291,-0.00001318,0.00000432,-0.00000373,0.00001884,0.000006
 18,0.00000891,0.00000312,-0.00006679,-0.00006526,-0.00004065,-0.000014
 46,-0.00004720,0.00003828,-0.00005313,0.00002474,-0.00000596,-0.000017
 59,-0.00000573,-0.00001308,-0.00006164,-0.00005905,0.00041359,-0.00012
 908,-0.00000998,-0.00142687,0.00269388,-0.00034447,0.00021107,-0.00087
 599,0.00047220,-0.00000021,-0.00000466,0.00000706,0.00000373,0.0000015
 2,-0.00000107,0.00000064,0.00000032,-0.00000387,0.00098318,-0.00069400
 ,-0.00230380,-0.11492018,0.07762401,0.15139447,0.00003649,-0.00011295,
 -0.00003100,0.00021939,-0.00041364,-0.00063662,0.00012205,0.00244703,-
 0.00009216,0.00000755,0.00002025,0.00002783,-0.00461421,-0.00186614,-0
 .00674469,-0.00001176,-0.00001743,-0.00002065,-0.09416210,-0.01484472,
 -0.10077478,0.00000966,-0.00000404,0.00001280,0.00001283,-0.00002747,-
 0.00003124,0.00001247,0.00001193,0.00003486,-0.00001072,0.00001823,0.0
 0001505,-0.00005247,0.00019211,-0.00011809,-0.00001096,0.00011322,-0.0
 0005857,0.00042156,0.00006659,0.00037948,0.00010022,-0.00020574,-0.000
 26419,-0.00020006,-0.00022686,0.00005910,0.00040122,0.00015803,0.00037
 590,-0.00000113,0.00000913,0.00000769,0.00000510,0.00001906,0.00000962
 ,-0.00001890,0.00000368,0.00000545,-0.01057983,-0.00272057,-0.02391744
 ,0.01009870,0.00232901,0.02018104,0.09821491,-0.00007744,0.00018686,0.
 00008807,0.00092111,0.00076825,0.00166687,0.00089964,-0.00594640,0.000
 88786,-0.00001578,-0.00005291,-0.00001121,0.01307836,0.00531048,0.0283
 0763,0.00002238,0.00002666,0.00000317,-0.01538734,-0.05141157,-0.03318
 569,-0.00001861,-0.00000347,0.00000298,-0.00000455,0.00000587,0.000004
 78,-0.00001057,-0.00002498,-0.00008893,0.00000787,-0.00003461,-0.00004
 253,0.00015213,-0.00056765,0.00035161,-0.00006745,0.00002941,-0.000026
 68,0.00028836,0.00002058,-0.00006955,-0.00027737,-0.00005819,0.0000719
 7,-0.00010162,0.00123461,-0.00077199,-0.00073788,0.00113507,-0.0004290
 5,-0.00000340,-0.00000105,-0.00000184,-0.00000106,-0.00001092,-0.00000
 754,0.00001803,-0.00000807,-0.00001000,-0.00659321,-0.00303086,-0.0178
 0001,-0.00714291,-0.00279345,-0.01240990,0.01505131,0.05522634,0.00003
 236,0.00001938,-0.00017451,-0.00058439,-0.00069982,-0.00036507,-0.0001
 6388,0.00349284,0.00012219,0.00002593,0.00004382,0.00002601,-0.0038361
 4,-0.00271066,-0.01003743,-0.00001755,-0.00002574,-0.00001635,-0.10090
 594,-0.03201219,-0.26566164,0.00001074,-0.00000205,0.00000203,0.000015
 87,0.00000144,-0.00002284,0.00000465,-0.00001138,0.00004649,-0.0000596
 5,0.00006970,0.00003961,-0.00008513,0.00028304,-0.00018316,0.00005424,
 0.00003138,-0.00000174,-0.00005340,-0.00011937,0.00007848,0.00002906,0
 .00009790,0.00053725,-0.00015967,0.00016787,0.00068668,0.00045865,0.00
 006696,0.00001741,-0.00000113,0.00001173,0.00000150,0.00000718,0.00001
 197,0.00000991,-0.00002874,0.00000543,0.00001318,0.00192595,0.00013049
 ,0.00428110,-0.00824964,-0.00232271,-0.01667683,0.11158063,0.03346997,
 0.28727774\\0.00000173,0.00000054,0.00000135,-0.00000082,-0.00000022,-
 0.00000072,-0.00000153,-0.00000046,-0.00000040,0.00000127,0.00000209,0
 .00000004,-0.00000084,-0.00000187,-0.00000080,0.00000181,0.00000284,0.
 00000168,-0.00000212,-0.00000304,-0.00000129,0.00000022,0.00000303,0.0
 0000070,-0.00000015,0.00000171,0.00000047,0.00000203,-0.00000008,0.000
 00082,0.00000180,0.00000112,0.00000095,-0.00000050,0.00000129,0.000000
 10,0.00000068,-0.00000120,0.00000006,-0.00000189,0.00000037,-0.0000007
 6,-0.00000211,-0.00000133,-0.00000101,0.00000024,-0.00000176,-0.000000
 43,-0.00000001,-0.00000288,-0.00000073,0.00000288,0.00000352,0.0000018
 9,0.00000302,0.00000175,0.00000168,0.00000165,0.00000372,0.00000157,-0
 .00000280,-0.00000181,-0.00000151,-0.00000288,-0.00000351,-0.00000199,
 -0.00000169,-0.00000383,-0.00000168\\\@


 ... I FELL INTO A REVERIE ... THE ATOMS WERE GAMBOLING BEFORE MY EYES
 ... I SAW HOW TWO SMALL ONES UNITED TO FORM A PAIR;
 HOW THE LARGER ONES SEIZED TWO OF THE SMALLER ONES;
 HOW STILL LARGER ONES KEPT HOLD OF THREE OR FOUR
 SMALLER ONES ... I SAW HOW THE LARGER ONES FORMED A CHAIN ...
 THIS WAS THE ORIGIN OF THE STRUCTURE THEORY.

                                   -- C.F.KEKULE VON STRADONITZ
 Job cpu time:       0 days  7 hours 18 minutes 38.6 seconds.
 Elapsed time:       0 days  3 hours 39 minutes 24.6 seconds.
 File lengths (MBytes):  RWF=   1488 Int=      0 D2E=      0 Chk=     32 Scr=     32
 Normal termination of Gaussian 16 at Sat Sep 28 19:24:48 2019.
