 Entering Gaussian System, Link 0=g16
 Input=med/species/CCCCCCC/conformers/CCCCCCC_807.com
 Output=med/species/CCCCCCC/conformers/CCCCCCC_807.log
 Initial command:
 /shared/centos7/gaussian/g16/l1.exe "/scratch/harms.n/gauss_scrdir/Gau-9458.inp" -scrdir="/scratch/harms.n/gauss_scrdir/"
 Entering Link 1 = /shared/centos7/gaussian/g16/l1.exe PID=      9459.
  
 Copyright (c) 1988,1990,1992,1993,1995,1998,2003,2009,2016,
            Gaussian, Inc.  All Rights Reserved.
  
 This is part of the Gaussian(R) 16 program.  It is based on
 the Gaussian(R) 09 system (copyright 2009, Gaussian, Inc.),
 the Gaussian(R) 03 system (copyright 2003, Gaussian, Inc.),
 the Gaussian(R) 98 system (copyright 1998, Gaussian, Inc.),
 the Gaussian(R) 94 system (copyright 1995, Gaussian, Inc.),
 the Gaussian 92(TM) system (copyright 1992, Gaussian, Inc.),
 the Gaussian 90(TM) system (copyright 1990, Gaussian, Inc.),
 the Gaussian 88(TM) system (copyright 1988, Gaussian, Inc.),
 the Gaussian 86(TM) system (copyright 1986, Carnegie Mellon
 University), and the Gaussian 82(TM) system (copyright 1983,
 Carnegie Mellon University). Gaussian is a federally registered
 trademark of Gaussian, Inc.
  
 This software contains proprietary and confidential information,
 including trade secrets, belonging to Gaussian, Inc.
  
 This software is provided under written license and may be
 used, copied, transmitted, or stored only in accord with that
 written license.
  
 The following legend is applicable only to US Government
 contracts under FAR:
  
                    RESTRICTED RIGHTS LEGEND
  
 Use, reproduction and disclosure by the US Government is
 subject to restrictions as set forth in subparagraphs (a)
 and (c) of the Commercial Computer Software - Restricted
 Rights clause in FAR 52.227-19.
  
 Gaussian, Inc.
 340 Quinnipiac St., Bldg. 40, Wallingford CT 06492
  
  
 ---------------------------------------------------------------
 Warning -- This program may not be used in any manner that
 competes with the business of Gaussian, Inc. or will provide
 assistance to any competitor of Gaussian, Inc.  The licensee
 of this program is prohibited from giving any competitor of
 Gaussian, Inc. access to this program.  By using this program,
 the user acknowledges that Gaussian, Inc. is engaged in the
 business of creating and licensing software in the field of
 computational chemistry and represents and warrants to the
 licensee that it is not a competitor of Gaussian, Inc. and that
 it will not use this program in any manner prohibited above.
 ---------------------------------------------------------------
  

 Cite this work as:
 Gaussian 16, Revision A.03,
 M. J. Frisch, G. W. Trucks, H. B. Schlegel, G. E. Scuseria, 
 M. A. Robb, J. R. Cheeseman, G. Scalmani, V. Barone, 
 G. A. Petersson, H. Nakatsuji, X. Li, M. Caricato, A. V. Marenich, 
 J. Bloino, B. G. Janesko, R. Gomperts, B. Mennucci, H. P. Hratchian, 
 J. V. Ortiz, A. F. Izmaylov, J. L. Sonnenberg, D. Williams-Young, 
 F. Ding, F. Lipparini, F. Egidi, J. Goings, B. Peng, A. Petrone, 
 T. Henderson, D. Ranasinghe, V. G. Zakrzewski, J. Gao, N. Rega, 
 G. Zheng, W. Liang, M. Hada, M. Ehara, K. Toyota, R. Fukuda, 
 J. Hasegawa, M. Ishida, T. Nakajima, Y. Honda, O. Kitao, H. Nakai, 
 T. Vreven, K. Throssell, J. A. Montgomery, Jr., J. E. Peralta, 
 F. Ogliaro, M. J. Bearpark, J. J. Heyd, E. N. Brothers, K. N. Kudin, 
 V. N. Staroverov, T. A. Keith, R. Kobayashi, J. Normand, 
 K. Raghavachari, A. P. Rendell, J. C. Burant, S. S. Iyengar, 
 J. Tomasi, M. Cossi, J. M. Millam, M. Klene, C. Adamo, R. Cammi, 
 J. W. Ochterski, R. L. Martin, K. Morokuma, O. Farkas, 
 J. B. Foresman, and D. J. Fox, Gaussian, Inc., Wallingford CT, 2016.
 
 ******************************************
 Gaussian 16:  EM64L-G16RevA.03 25-Dec-2016
                28-Sep-2019 
 ******************************************
 %nprocshared=20
 Will use up to   20 processors via shared memory.
 %mem=5GB
 ----------------------------------------------------------------------
 #p m062x/cc-pVTZ opt=(calcfc,maxcycles=900,Tight) freq IOP(7/33=1,2/16
 =3) scf=(maxcycle=900)
 ----------------------------------------------------------------------
 1/6=900,7=10,10=4,18=20,19=15,26=3,38=1/1,3;
 2/9=110,12=2,16=3,17=6,18=5,40=1/2;
 3/5=16,6=1,11=2,25=1,30=1,71=2,74=-55,140=1/1,2,3;
 4//1;
 5/5=2,7=900,38=5/2;
 8/6=4,10=90,11=11/1;
 11/6=1,8=1,9=11,15=111,16=1/1,2,10;
 10/6=1,13=1/2;
 6/7=2,8=2,9=2,10=2,28=1/1;
 7/10=1,18=20,25=1,33=1/1,2,3,16;
 1/6=900,7=10,10=4,18=20,19=15,26=3/3(2);
 2/9=110,16=3/2;
 99//99;
 2/9=110,16=3/2;
 3/5=16,6=1,11=2,25=1,30=1,71=1,74=-55/1,2,3;
 4/5=5,16=3,69=1/1;
 5/5=2,7=900,38=5/2;
 7/33=1/1,2,3,16;
 1/6=900,7=10,18=20,19=15,26=3/3(-5);
 2/9=110,16=3/2;
 6/7=2,8=2,9=2,10=2,19=2,28=1/1;
 99/9=1/99;
 Leave Link    1 at Sat Sep 28 03:05:50 2019, MaxMem=   671088640 cpu:               4.1 elap:               2.1
 (Enter /shared/centos7/gaussian/g16/l101.exe)
 ------------------------------
 Gaussian input prepared by ASE
 ------------------------------
 Symbolic Z-matrix:
 Charge =  0 Multiplicity = 1
 C                     1.3675   -1.14445   0.51206 
 C                     0.13993  -0.41818   0.94517 
 C                    -0.65219  -1.12985   2.01337 
 C                     2.15963  -0.49531  -0.57245 
 C                    -0.74035  -0.30897   3.27831 
 C                     1.63215   0.76169  -1.1304 
 C                    -1.51759  -0.9691    4.38738 
 H                     2.2914   -1.23441  -1.41239 
 H                     3.19567  -0.32267  -0.19488 
 H                     1.08563  -2.1704    0.19337 
 H                     2.01821  -1.2895    1.39873 
 H                    -0.50519  -0.22193   0.07454 
 H                     0.43755   0.58281   1.3229 
 H                    -0.20321  -2.11042   2.24583 
 H                    -1.67608  -1.35439   1.64954 
 H                     0.30123  -0.08659   3.6293 
 H                    -1.19244   0.66887   3.04015 
 H                     0.67743   1.06049  -0.65806 
 H                     2.36213   1.61178  -0.98209 
 H                     1.45207   0.68361  -2.22355 
 H                    -1.37879  -2.05091   4.38846 
 H                    -2.61957  -0.76576   4.28673 
 H                    -1.19431  -0.58048   5.39553 
 
 ITRead=  0  0  0  0  0  0  0  0  0  0  0  0  0  0  0  0  0  0  0  0
 ITRead=  0  0  0
 MicOpt= -1 -1 -1 -1 -1 -1 -1 -1 -1 -1 -1 -1 -1 -1 -1 -1 -1 -1 -1 -1
 MicOpt= -1 -1 -1
 NAtoms=     23 NQM=       23 NQMF=       0 NMMI=      0 NMMIF=      0
                NMic=       0 NMicF=      0.
                    Isotopes and Nuclear Properties:
 (Nuclear quadrupole moments (NQMom) in fm**2, nuclear magnetic moments (NMagM)
  in nuclear magnetons)

  Atom         1           2           3           4           5           6           7           8           9          10
 IAtWgt=          12          12          12          12          12          12          12           1           1           1
 AtmWgt=  12.0000000  12.0000000  12.0000000  12.0000000  12.0000000  12.0000000  12.0000000   1.0078250   1.0078250   1.0078250
 NucSpn=           0           0           0           0           0           0           0           1           1           1
 AtZEff=  -0.0000000  -0.0000000  -0.0000000  -0.0000000  -0.0000000  -0.0000000  -0.0000000  -0.0000000  -0.0000000  -0.0000000
 NQMom=    0.0000000   0.0000000   0.0000000   0.0000000   0.0000000   0.0000000   0.0000000   0.0000000   0.0000000   0.0000000
 NMagM=    0.0000000   0.0000000   0.0000000   0.0000000   0.0000000   0.0000000   0.0000000   2.7928460   2.7928460   2.7928460
 AtZNuc=   6.0000000   6.0000000   6.0000000   6.0000000   6.0000000   6.0000000   6.0000000   1.0000000   1.0000000   1.0000000

  Atom        11          12          13          14          15          16          17          18          19          20
 IAtWgt=           1           1           1           1           1           1           1           1           1           1
 AtmWgt=   1.0078250   1.0078250   1.0078250   1.0078250   1.0078250   1.0078250   1.0078250   1.0078250   1.0078250   1.0078250
 NucSpn=           1           1           1           1           1           1           1           1           1           1
 AtZEff=  -0.0000000  -0.0000000  -0.0000000  -0.0000000  -0.0000000  -0.0000000  -0.0000000  -0.0000000  -0.0000000  -0.0000000
 NQMom=    0.0000000   0.0000000   0.0000000   0.0000000   0.0000000   0.0000000   0.0000000   0.0000000   0.0000000   0.0000000
 NMagM=    2.7928460   2.7928460   2.7928460   2.7928460   2.7928460   2.7928460   2.7928460   2.7928460   2.7928460   2.7928460
 AtZNuc=   1.0000000   1.0000000   1.0000000   1.0000000   1.0000000   1.0000000   1.0000000   1.0000000   1.0000000   1.0000000

  Atom        21          22          23
 IAtWgt=           1           1           1
 AtmWgt=   1.0078250   1.0078250   1.0078250
 NucSpn=           1           1           1
 AtZEff=  -0.0000000  -0.0000000  -0.0000000
 NQMom=    0.0000000   0.0000000   0.0000000
 NMagM=    2.7928460   2.7928460   2.7928460
 AtZNuc=   1.0000000   1.0000000   1.0000000
 Leave Link  101 at Sat Sep 28 03:05:53 2019, MaxMem=   671088640 cpu:               6.6 elap:               3.3
 (Enter /shared/centos7/gaussian/g16/l103.exe)

 GradGradGradGradGradGradGradGradGradGradGradGradGradGradGradGradGradGrad
 Berny optimization.
 Initialization pass.
                           ----------------------------
                           !    Initial Parameters    !
                           ! (Angstroms and Degrees)  !
 --------------------------                            --------------------------
 ! Name  Definition              Value          Derivative Info.                !
 --------------------------------------------------------------------------------
 ! R1    R(1,2)                  1.4906         calculate D2E/DX2 analytically  !
 ! R2    R(1,4)                  1.4917         calculate D2E/DX2 analytically  !
 ! R3    R(1,10)                 1.1107         calculate D2E/DX2 analytically  !
 ! R4    R(1,11)                 1.1093         calculate D2E/DX2 analytically  !
 ! R5    R(2,3)                  1.5083         calculate D2E/DX2 analytically  !
 ! R6    R(2,12)                 1.1012         calculate D2E/DX2 analytically  !
 ! R7    R(2,13)                 1.1105         calculate D2E/DX2 analytically  !
 ! R8    R(3,5)                  1.5105         calculate D2E/DX2 analytically  !
 ! R9    R(3,14)                 1.1032         calculate D2E/DX2 analytically  !
 ! R10   R(3,15)                 1.1096         calculate D2E/DX2 analytically  !
 ! R11   R(4,6)                  1.473          calculate D2E/DX2 analytically  !
 ! R12   R(4,8)                  1.1266         calculate D2E/DX2 analytically  !
 ! R13   R(4,9)                  1.1161         calculate D2E/DX2 analytically  !
 ! R14   R(5,7)                  1.5066         calculate D2E/DX2 analytically  !
 ! R15   R(5,16)                 1.1214         calculate D2E/DX2 analytically  !
 ! R16   R(5,17)                 1.1033         calculate D2E/DX2 analytically  !
 ! R17   R(6,18)                 1.1063         calculate D2E/DX2 analytically  !
 ! R18   R(6,19)                 1.1303         calculate D2E/DX2 analytically  !
 ! R19   R(6,20)                 1.1106         calculate D2E/DX2 analytically  !
 ! R20   R(7,21)                 1.0907         calculate D2E/DX2 analytically  !
 ! R21   R(7,22)                 1.1251         calculate D2E/DX2 analytically  !
 ! R22   R(7,23)                 1.1278         calculate D2E/DX2 analytically  !
 ! A1    A(2,1,4)              115.8832         calculate D2E/DX2 analytically  !
 ! A2    A(2,1,10)             108.9314         calculate D2E/DX2 analytically  !
 ! A3    A(2,1,11)             108.3327         calculate D2E/DX2 analytically  !
 ! A4    A(4,1,10)             109.1561         calculate D2E/DX2 analytically  !
 ! A5    A(4,1,11)             109.0575         calculate D2E/DX2 analytically  !
 ! A6    A(10,1,11)            104.9173         calculate D2E/DX2 analytically  !
 ! A7    A(1,2,3)              114.1028         calculate D2E/DX2 analytically  !
 ! A8    A(1,2,12)             109.85           calculate D2E/DX2 analytically  !
 ! A9    A(1,2,13)             108.4996         calculate D2E/DX2 analytically  !
 ! A10   A(3,2,12)             109.6544         calculate D2E/DX2 analytically  !
 ! A11   A(3,2,13)             108.9749         calculate D2E/DX2 analytically  !
 ! A12   A(12,2,13)            105.3834         calculate D2E/DX2 analytically  !
 ! A13   A(2,3,5)              111.5496         calculate D2E/DX2 analytically  !
 ! A14   A(2,3,14)             110.7857         calculate D2E/DX2 analytically  !
 ! A15   A(2,3,15)             110.3576         calculate D2E/DX2 analytically  !
 ! A16   A(5,3,14)             109.2879         calculate D2E/DX2 analytically  !
 ! A17   A(5,3,15)             109.3119         calculate D2E/DX2 analytically  !
 ! A18   A(14,3,15)            105.353          calculate D2E/DX2 analytically  !
 ! A19   A(1,4,6)              117.1691         calculate D2E/DX2 analytically  !
 ! A20   A(1,4,8)              108.583          calculate D2E/DX2 analytically  !
 ! A21   A(1,4,9)              108.3186         calculate D2E/DX2 analytically  !
 ! A22   A(6,4,8)              108.6234         calculate D2E/DX2 analytically  !
 ! A23   A(6,4,9)              109.1812         calculate D2E/DX2 analytically  !
 ! A24   A(8,4,9)              104.1889         calculate D2E/DX2 analytically  !
 ! A25   A(3,5,7)              114.1071         calculate D2E/DX2 analytically  !
 ! A26   A(3,5,16)             108.4007         calculate D2E/DX2 analytically  !
 ! A27   A(3,5,17)             108.9531         calculate D2E/DX2 analytically  !
 ! A28   A(7,5,16)             109.6117         calculate D2E/DX2 analytically  !
 ! A29   A(7,5,17)             109.6237         calculate D2E/DX2 analytically  !
 ! A30   A(16,5,17)            105.8078         calculate D2E/DX2 analytically  !
 ! A31   A(4,6,18)             112.1981         calculate D2E/DX2 analytically  !
 ! A32   A(4,6,19)             111.1524         calculate D2E/DX2 analytically  !
 ! A33   A(4,6,20)             111.7718         calculate D2E/DX2 analytically  !
 ! A34   A(18,6,19)            107.349          calculate D2E/DX2 analytically  !
 ! A35   A(18,6,20)            107.4154         calculate D2E/DX2 analytically  !
 ! A36   A(19,6,20)            106.6632         calculate D2E/DX2 analytically  !
 ! A37   A(5,7,21)             111.6952         calculate D2E/DX2 analytically  !
 ! A38   A(5,7,22)             111.1147         calculate D2E/DX2 analytically  !
 ! A39   A(5,7,23)             111.05           calculate D2E/DX2 analytically  !
 ! A40   A(21,7,22)            107.6976         calculate D2E/DX2 analytically  !
 ! A41   A(21,7,23)            107.7239         calculate D2E/DX2 analytically  !
 ! A42   A(22,7,23)            107.3646         calculate D2E/DX2 analytically  !
 ! D1    D(4,1,2,3)            178.249          calculate D2E/DX2 analytically  !
 ! D2    D(4,1,2,12)            54.6583         calculate D2E/DX2 analytically  !
 ! D3    D(4,1,2,13)           -60.0621         calculate D2E/DX2 analytically  !
 ! D4    D(10,1,2,3)            54.744          calculate D2E/DX2 analytically  !
 ! D5    D(10,1,2,12)          -68.8467         calculate D2E/DX2 analytically  !
 ! D6    D(10,1,2,13)          176.4329         calculate D2E/DX2 analytically  !
 ! D7    D(11,1,2,3)           -58.8558         calculate D2E/DX2 analytically  !
 ! D8    D(11,1,2,12)          177.5535         calculate D2E/DX2 analytically  !
 ! D9    D(11,1,2,13)           62.8331         calculate D2E/DX2 analytically  !
 ! D10   D(2,1,4,6)             -1.9056         calculate D2E/DX2 analytically  !
 ! D11   D(2,1,4,8)           -125.3587         calculate D2E/DX2 analytically  !
 ! D12   D(2,1,4,9)            122.0772         calculate D2E/DX2 analytically  !
 ! D13   D(10,1,4,6)           121.482          calculate D2E/DX2 analytically  !
 ! D14   D(10,1,4,8)            -1.9711         calculate D2E/DX2 analytically  !
 ! D15   D(10,1,4,9)          -114.5352         calculate D2E/DX2 analytically  !
 ! D16   D(11,1,4,6)          -124.4188         calculate D2E/DX2 analytically  !
 ! D17   D(11,1,4,8)           112.1281         calculate D2E/DX2 analytically  !
 ! D18   D(11,1,4,9)            -0.436          calculate D2E/DX2 analytically  !
 ! D19   D(1,2,3,5)            118.5803         calculate D2E/DX2 analytically  !
 ! D20   D(1,2,3,14)            -3.4091         calculate D2E/DX2 analytically  !
 ! D21   D(1,2,3,15)          -119.6987         calculate D2E/DX2 analytically  !
 ! D22   D(12,2,3,5)          -117.7236         calculate D2E/DX2 analytically  !
 ! D23   D(12,2,3,14)          120.2871         calculate D2E/DX2 analytically  !
 ! D24   D(12,2,3,15)            3.9975         calculate D2E/DX2 analytically  !
 ! D25   D(13,2,3,5)            -2.8462         calculate D2E/DX2 analytically  !
 ! D26   D(13,2,3,14)         -124.8356         calculate D2E/DX2 analytically  !
 ! D27   D(13,2,3,15)          118.8748         calculate D2E/DX2 analytically  !
 ! D28   D(2,3,5,7)           -179.8269         calculate D2E/DX2 analytically  !
 ! D29   D(2,3,5,16)           -57.3888         calculate D2E/DX2 analytically  !
 ! D30   D(2,3,5,17)            57.3062         calculate D2E/DX2 analytically  !
 ! D31   D(14,3,5,7)           -56.9774         calculate D2E/DX2 analytically  !
 ! D32   D(14,3,5,16)           65.4607         calculate D2E/DX2 analytically  !
 ! D33   D(14,3,5,17)         -179.8443         calculate D2E/DX2 analytically  !
 ! D34   D(15,3,5,7)            57.8489         calculate D2E/DX2 analytically  !
 ! D35   D(15,3,5,16)         -179.713          calculate D2E/DX2 analytically  !
 ! D36   D(15,3,5,17)          -65.0179         calculate D2E/DX2 analytically  !
 ! D37   D(1,4,6,18)            -0.5916         calculate D2E/DX2 analytically  !
 ! D38   D(1,4,6,19)           119.6212         calculate D2E/DX2 analytically  !
 ! D39   D(1,4,6,20)          -121.3261         calculate D2E/DX2 analytically  !
 ! D40   D(8,4,6,18)           122.8409         calculate D2E/DX2 analytically  !
 ! D41   D(8,4,6,19)          -116.9463         calculate D2E/DX2 analytically  !
 ! D42   D(8,4,6,20)             2.1064         calculate D2E/DX2 analytically  !
 ! D43   D(9,4,6,18)          -124.1364         calculate D2E/DX2 analytically  !
 ! D44   D(9,4,6,19)            -3.9236         calculate D2E/DX2 analytically  !
 ! D45   D(9,4,6,20)           115.1291         calculate D2E/DX2 analytically  !
 ! D46   D(3,5,7,21)            34.779          calculate D2E/DX2 analytically  !
 ! D47   D(3,5,7,22)           -85.5092         calculate D2E/DX2 analytically  !
 ! D48   D(3,5,7,23)           155.0563         calculate D2E/DX2 analytically  !
 ! D49   D(16,5,7,21)          -86.9943         calculate D2E/DX2 analytically  !
 ! D50   D(16,5,7,22)          152.7175         calculate D2E/DX2 analytically  !
 ! D51   D(16,5,7,23)           33.283          calculate D2E/DX2 analytically  !
 ! D52   D(17,5,7,21)          157.28           calculate D2E/DX2 analytically  !
 ! D53   D(17,5,7,22)           36.9918         calculate D2E/DX2 analytically  !
 ! D54   D(17,5,7,23)          -82.4427         calculate D2E/DX2 analytically  !
 --------------------------------------------------------------------------------
 Trust Radius=3.00D-01 FncErr=1.00D-07 GrdErr=1.00D-06 EigMax=2.50D+02 EigMin=1.00D-04
 Number of steps in this run=    138 maximum allowed number of steps=    138.
 GradGradGradGradGradGradGradGradGradGradGradGradGradGradGradGradGradGrad

 Leave Link  103 at Sat Sep 28 03:05:54 2019, MaxMem=   671088640 cpu:               1.7 elap:               0.9
 (Enter /shared/centos7/gaussian/g16/l202.exe)
                          Input orientation:                          
 ---------------------------------------------------------------------
 Center     Atomic      Atomic             Coordinates (Angstroms)
 Number     Number       Type             X           Y           Z
 ---------------------------------------------------------------------
      1          6           0        1.367497   -1.144455    0.512061
      2          6           0        0.139933   -0.418182    0.945167
      3          6           0       -0.652187   -1.129851    2.013369
      4          6           0        2.159625   -0.495309   -0.572451
      5          6           0       -0.740345   -0.308966    3.278311
      6          6           0        1.632146    0.761689   -1.130404
      7          6           0       -1.517585   -0.969102    4.387385
      8          1           0        2.291398   -1.234413   -1.412389
      9          1           0        3.195672   -0.322669   -0.194883
     10          1           0        1.085629   -2.170400    0.193373
     11          1           0        2.018213   -1.289503    1.398726
     12          1           0       -0.505185   -0.221925    0.074540
     13          1           0        0.437554    0.582814    1.322902
     14          1           0       -0.203213   -2.110415    2.245832
     15          1           0       -1.676078   -1.354390    1.649537
     16          1           0        0.301230   -0.086594    3.629298
     17          1           0       -1.192436    0.668866    3.040153
     18          1           0        0.677425    1.060490   -0.658065
     19          1           0        2.362130    1.611784   -0.982087
     20          1           0        1.452067    0.683615   -2.223550
     21          1           0       -1.378792   -2.050912    4.388458
     22          1           0       -2.619574   -0.765757    4.286731
     23          1           0       -1.194310   -0.580482    5.395528
 ---------------------------------------------------------------------
                    Distance matrix (angstroms):
                    1          2          3          4          5
     1  C    0.000000
     2  C    1.490625   0.000000
     3  C    2.516597   1.508304   0.000000
     4  C    1.491652   2.527502   3.872389   0.000000
     5  C    3.576755   2.496073   1.510531   4.824202   0.000000
     6  C    2.530042   2.815455   4.321968   1.472952   5.119745
     7  C    4.834519   3.860019   2.531937   6.192441   1.506627
     8  H    2.136632   3.294405   4.517903   1.126559   5.661324
     9  H    2.125401   3.262879   4.509317   1.116134   5.249333
    10  H    1.110665   2.128333   2.723074   2.132109   4.039302
    11  H    1.109344   2.119634   2.744869   2.129855   3.479071
    12  H    2.132938   1.101220   2.145925   2.755821   3.213568
    13  H    2.122666   1.110520   2.144179   2.778532   2.450784
    14  H    2.531041   2.161743   1.103233   4.016752   2.144701
    15  H    3.255960   2.161139   1.109570   4.515294   2.149747
    16  H    3.460225   2.709341   2.146769   4.612524   1.121392
    17  H    4.028975   2.710323   2.140453   5.063845   1.103295
    18  H    2.589822   2.246268   3.701624   2.150525   4.402333
    19  H    3.289168   3.573965   5.057215   2.156072   5.609422
    20  H    3.291285   3.602279   5.066362   2.148634   6.005194
    21  H    4.836343   4.102266   2.649029   6.288952   2.162040
    22  H    5.503479   4.347613   3.028424   6.820963   2.181071
    23  H    5.543389   4.648899   3.469107   6.846379   2.182295
                    6          7          8          9         10
     6  C    0.000000
     7  C    6.585016   0.000000
     8  H    2.120979   6.943783   0.000000
     9  H    2.120293   6.605290   1.769551   0.000000
    10  H    3.263160   5.080313   2.215496   2.831455   0.000000
    11  H    3.279166   4.640755   2.824896   2.204715   1.760275
    12  H    2.643402   4.492644   3.325202   3.712019   2.518207
    13  H    2.734548   3.952476   3.771056   3.275788   3.045657
    14  H    4.797551   2.759786   4.513651   4.550335   2.424315
    15  H    4.811467   2.769364   5.013049   5.310395   3.226967
    16  H    5.014548   2.159075   5.540476   4.801864   4.094278
    17  H    5.037899   2.145622   5.965292   5.541128   4.621166
    18  H    1.106291   5.864629   2.905253   2.910195   3.366041
    19  H    1.130281   7.109457   2.879409   2.248686   4.161259
    20  H    1.110627   7.433355   2.245281   2.858016   3.757818
    21  H    6.887257   1.090678   6.912799   6.702206   4.866866
    22  H    7.053763   1.125104   7.537722   7.355153   5.697116
    23  H    7.237269   1.127778   7.676296   7.112742   5.898167
                   11         12         13         14         15
    11  H    0.000000
    12  H    3.043144   0.000000
    13  H    2.451489   1.759195   0.000000
    14  H    2.515198   2.893456   2.918196   0.000000
    15  H    3.703364   2.265851   2.885636   1.759680   0.000000
    16  H    3.061123   3.647591   2.405443   2.502857   3.071890
    17  H    4.103383   3.171858   2.369225   3.055146   2.502257
    18  H    3.398612   1.892054   2.051814   4.388939   4.086031
    19  H    3.768821   3.563768   3.174231   5.554747   5.659572
    20  H    4.163484   3.151516   3.690083   5.524666   5.379550
    21  H    4.588886   4.766368   4.430943   2.444662   2.841691
    22  H    5.488529   4.744359   4.466426   3.436885   2.862074
    23  H    5.176624   5.377394   4.539000   3.639169   3.855318
                   16         17         18         19         20
    16  H    0.000000
    17  H    1.774499   0.000000
    18  H    4.454077   4.162519   0.000000
    19  H    5.328852   5.449995   1.801983   0.000000
    20  H    6.014439   5.890686   1.786854   1.797483   0.000000
    21  H    2.693945   3.041356   6.275049   7.500172   7.694806
    22  H    3.069947   2.376725   6.217426   7.630892   7.814262
    23  H    2.366460   2.666208   6.545392   7.624189   8.164043
                   21         22         23
    21  H    0.000000
    22  H    1.789277   0.000000
    23  H    1.791755   1.815250   0.000000
 Stoichiometry    C7H16
 Framework group  C1[X(C7H16)]
 Deg. of freedom    63
 Full point group                 C1      NOp   1
 Largest Abelian subgroup         C1      NOp   1
 Largest concise Abelian subgroup C1      NOp   1
                         Standard orientation:                         
 ---------------------------------------------------------------------
 Center     Atomic      Atomic             Coordinates (Angstroms)
 Number     Number       Type             X           Y           Z
 ---------------------------------------------------------------------
      1          6           0        1.170345    0.895555   -0.094085
      2          6           0        0.245487   -0.185890    0.349850
      3          6           0       -1.174212    0.271357    0.574265
      4          6           0        2.594109    0.495549   -0.288804
      5          6           0       -2.138185   -0.439899   -0.345830
      6          6           0        2.947882   -0.901511    0.015585
      7          6           0       -3.575514   -0.022717   -0.172713
      8          1           0        3.245721    1.174741    0.330258
      9          1           0        2.882191    0.725600   -1.342294
     10          1           0        1.123224    1.731908    0.635208
     11          1           0        0.780697    1.320716   -1.041743
     12          1           0        0.632701   -0.655778    1.267432
     13          1           0        0.249152   -0.989392   -0.416718
     14          1           0       -1.263134    1.360638    0.423650
     15          1           0       -1.474584    0.094962    1.627738
     16          1           0       -1.817835   -0.256114   -1.404659
     17          1           0       -2.046720   -1.528115   -0.188734
     18          1           0        2.077787   -1.485104    0.370876
     19          1           0        3.355987   -1.427233   -0.897982
     20          1           0        3.733524   -0.966434    0.797917
     21          1           0       -3.660987    1.035900    0.075485
     22          1           0       -4.071124   -0.608103    0.650423
     23          1           0       -4.166076   -0.202858   -1.116465
 ---------------------------------------------------------------------
 Rotational constants (GHZ):           7.5686281           0.9042881           0.8680039
 Leave Link  202 at Sat Sep 28 03:05:56 2019, MaxMem=   671088640 cpu:               3.6 elap:               1.8
 (Enter /shared/centos7/gaussian/g16/l301.exe)
 Standard basis: CC-pVTZ (5D, 7F)
 Ernie: Thresh=  0.10000D-02 Tol=  0.10000D-05 Strict=F.
 Ernie:  21 primitive shells out of 310 were deleted.
 There are   485 symmetry adapted cartesian basis functions of A   symmetry.
 There are   434 symmetry adapted basis functions of A   symmetry.
   434 basis functions,   636 primitive gaussians,   485 cartesian basis functions
    29 alpha electrons       29 beta electrons
       nuclear repulsion energy       317.9999105003 Hartrees.
 IExCor= 4336 DFT=T Ex+Corr=M062X ExCW=0 ScaHFX=  0.540000
 ScaDFX=  1.000000  1.000000  1.000000  1.000000 ScalE2=  1.000000  1.000000
 IRadAn=      5 IRanWt=     -1 IRanGd=            0 ICorTp=0 IEmpDi=  4
 NAtoms=   23 NActive=   23 NUniq=   23 SFac= 1.00D+00 NAtFMM=   60 NAOKFM=F Big=F
 Integral buffers will be    131072 words long.
 Raffenetti 2 integral format.
 Two-electron integral symmetry is turned on.
 Leave Link  301 at Sat Sep 28 03:05:57 2019, MaxMem=   671088640 cpu:               1.4 elap:               0.7
 (Enter /shared/centos7/gaussian/g16/l302.exe)
 NPDir=0 NMtPBC=     1 NCelOv=     1 NCel=       1 NClECP=     1 NCelD=      1
         NCelK=      1 NCelE2=     1 NClLst=     1 CellRange=     0.0.
 One-electron integrals computed using PRISM.
 One-electron integral symmetry used in STVInt
 NBasis=   434 RedAO= T EigKep=  2.27D-04  NBF=   434
 NBsUse=   434 1.00D-06 EigRej= -1.00D+00 NBFU=   434
 Precomputing XC quadrature grid using
 IXCGrd= 4 IRadAn=           5 IRanWt=          -1 IRanGd=           0 AccXCQ= 0.00D+00.
 Generated NRdTot=       0 NPtTot=           0 NUsed=           0 NTot=          32
 NSgBfM=   485   485   485   485   485 MxSgAt=    23 MxSgA2=    23.
 Leave Link  302 at Sat Sep 28 03:07:05 2019, MaxMem=   671088640 cpu:             137.2 elap:              68.6
 (Enter /shared/centos7/gaussian/g16/l303.exe)
 DipDrv:  MaxL=1.
 Leave Link  303 at Sat Sep 28 03:07:11 2019, MaxMem=   671088640 cpu:              11.5 elap:               5.8
 (Enter /shared/centos7/gaussian/g16/l401.exe)
 ExpMin= 1.03D-01 ExpMax= 8.24D+03 ExpMxC= 2.81D+02 IAcc=3 IRadAn=         5 AccDes= 0.00D+00
 Harris functional with IExCor= 1009 and IRadAn=       5 diagonalized for initial guess.
 HarFok:  IExCor= 1009 AccDes= 0.00D+00 IRadAn=         5 IDoV= 1 UseB2=F ITyADJ=14
 ICtDFT=  3500011 ScaDFX=  1.000000  1.000000  1.000000  1.000000
 FoFCou: FMM=F IPFlag=           0 FMFlag=      100000 FMFlg1=           0
         NFxFlg=           0 DoJE=T BraDBF=F KetDBF=T FulRan=T
         wScrn=  0.000000 ICntrl=       500 IOpCl=  0 I1Cent=   200000004 NGrid=           0
         NMat0=    1 NMatS0=      1 NMatT0=    0 NMatD0=    1 NMtDS0=    0 NMtDT0=    0
 Petite list used in FoFCou.
 Harris En= -276.317666141018    
 JPrj=0 DoOrth=F DoCkMO=F.
 Leave Link  401 at Sat Sep 28 03:07:55 2019, MaxMem=   671088640 cpu:              88.4 elap:              44.3
 (Enter /shared/centos7/gaussian/g16/l502.exe)
 Integral symmetry usage will be decided dynamically.
 Closed shell SCF:
 Using DIIS extrapolation, IDIIS=  1040.
 NGot=   671088640 LenX=   670604095 LenY=   670368385
 Requested convergence on RMS density matrix=1.00D-08 within 900 cycles.
 Requested convergence on MAX density matrix=1.00D-06.
 Requested convergence on             energy=1.00D-06.
 No special actions if energy rises.
 Fock matrices will be formed incrementally for  20 cycles.
 Integral accuracy reduced to 1.0D-05 until final iterations.

 Cycle   1  Pass 0  IDiag  1:
 FoFJK:  IHMeth= 1 ICntrl=       0 DoSepK=F KAlg= 0 I1Cent=           0 FoldK=F
 IRaf= 900000000 NMat=       1 IRICut=       1 DoRegI=T DoRafI=F ISym2E= 0 IDoP0=0 IntGTp=1.
 FoFCou: FMM=F IPFlag=           0 FMFlag=      100000 FMFlg1=           0
         NFxFlg=           0 DoJE=F BraDBF=F KetDBF=F FulRan=T
         wScrn=  0.000000 ICntrl=         0 IOpCl=  0 I1Cent=           0 NGrid=           0
         NMat0=    1 NMatS0=      1 NMatT0=    0 NMatD0=    1 NMtDS0=    0 NMtDT0=    0
 Symmetry not used in FoFCou.
 E= -275.947521642438    
 DIIS: error= 3.24D-02 at cycle   1 NSaved=   1.
 NSaved= 1 IEnMin= 1 EnMin= -275.947521642438     IErMin= 1 ErrMin= 3.24D-02
 ErrMax= 3.24D-02  0.00D+00 EMaxC= 1.00D-01 BMatC= 3.72D-01 BMatP= 3.72D-01
 IDIUse=3 WtCom= 6.76D-01 WtEn= 3.24D-01
 Coeff-Com:  0.100D+01
 Coeff-En:   0.100D+01
 Coeff:      0.100D+01
 Gap=     0.361 Goal=   None    Shift=    0.000
 GapD=    0.361 DampG=1.000 DampE=0.500 DampFc=0.5000 IDamp=-1.
 Damping current iteration by 5.00D-01
 RMSDP=1.90D-03 MaxDP=6.86D-02              OVMax= 1.66D-01

 Cycle   2  Pass 0  IDiag  1:
 RMSU=  9.49D-04    CP:  9.91D-01
 E= -276.127757731946     Delta-E=       -0.180236089508 Rises=F Damp=T
 DIIS: error= 4.33D-03 at cycle   2 NSaved=   2.
 NSaved= 2 IEnMin= 2 EnMin= -276.127757731946     IErMin= 2 ErrMin= 4.33D-03
 ErrMax= 4.33D-03  0.00D+00 EMaxC= 1.00D-01 BMatC= 1.78D-02 BMatP= 3.72D-01
 IDIUse=3 WtCom= 9.57D-01 WtEn= 4.33D-02
 Coeff-Com: -0.644D-01 0.106D+01
 Coeff-En:   0.000D+00 0.100D+01
 Coeff:     -0.616D-01 0.106D+01
 Gap=     0.444 Goal=   None    Shift=    0.000
 RMSDP=5.18D-04 MaxDP=1.69D-02 DE=-1.80D-01 OVMax= 8.55D-02

 Cycle   3  Pass 0  IDiag  1:
 RMSU=  5.11D-04    CP:  9.98D-01  9.25D-01
 E= -276.304564313770     Delta-E=       -0.176806581823 Rises=F Damp=F
 DIIS: error= 2.29D-03 at cycle   3 NSaved=   3.
 NSaved= 3 IEnMin= 3 EnMin= -276.304564313770     IErMin= 3 ErrMin= 2.29D-03
 ErrMax= 2.29D-03  0.00D+00 EMaxC= 1.00D-01 BMatC= 1.81D-03 BMatP= 1.78D-02
 IDIUse=3 WtCom= 9.77D-01 WtEn= 2.29D-02
 Coeff-Com: -0.480D-01 0.202D+00 0.846D+00
 Coeff-En:   0.000D+00 0.000D+00 0.100D+01
 Coeff:     -0.469D-01 0.197D+00 0.850D+00
 Gap=     0.407 Goal=   None    Shift=    0.000
 RMSDP=7.63D-05 MaxDP=3.39D-03 DE=-1.77D-01 OVMax= 8.62D-03

 Cycle   4  Pass 0  IDiag  1:
 RMSU=  6.06D-05    CP:  9.97D-01  9.68D-01  9.59D-01
 E= -276.306142223865     Delta-E=       -0.001577910095 Rises=F Damp=F
 DIIS: error= 6.91D-04 at cycle   4 NSaved=   4.
 NSaved= 4 IEnMin= 4 EnMin= -276.306142223865     IErMin= 4 ErrMin= 6.91D-04
 ErrMax= 6.91D-04  0.00D+00 EMaxC= 1.00D-01 BMatC= 1.98D-04 BMatP= 1.81D-03
 IDIUse=3 WtCom= 9.93D-01 WtEn= 6.91D-03
 Coeff-Com: -0.124D-01 0.344D-01 0.289D+00 0.689D+00
 Coeff-En:   0.000D+00 0.000D+00 0.000D+00 0.100D+01
 Coeff:     -0.124D-01 0.342D-01 0.287D+00 0.692D+00
 Gap=     0.408 Goal=   None    Shift=    0.000
 RMSDP=2.58D-05 MaxDP=1.32D-03 DE=-1.58D-03 OVMax= 2.53D-03

 Cycle   5  Pass 0  IDiag  1:
 RMSU=  1.74D-05    CP:  9.97D-01  9.62D-01  9.84D-01  7.87D-01
 E= -276.306317253885     Delta-E=       -0.000175030021 Rises=F Damp=F
 DIIS: error= 1.66D-04 at cycle   5 NSaved=   5.
 NSaved= 5 IEnMin= 5 EnMin= -276.306317253885     IErMin= 5 ErrMin= 1.66D-04
 ErrMax= 1.66D-04  0.00D+00 EMaxC= 1.00D-01 BMatC= 1.65D-05 BMatP= 1.98D-04
 IDIUse=3 WtCom= 9.98D-01 WtEn= 1.66D-03
 Coeff-Com: -0.859D-03-0.563D-03 0.482D-01 0.259D+00 0.694D+00
 Coeff-En:   0.000D+00 0.000D+00 0.000D+00 0.000D+00 0.100D+01
 Coeff:     -0.857D-03-0.562D-03 0.481D-01 0.258D+00 0.695D+00
 Gap=     0.407 Goal=   None    Shift=    0.000
 RMSDP=6.67D-06 MaxDP=3.50D-04 DE=-1.75D-04 OVMax= 7.08D-04

 Initial convergence to 1.0D-05 achieved.  Increase integral accuracy.
 Cycle   6  Pass 1  IDiag  1:
 E= -276.306306352777     Delta-E=        0.000010901109 Rises=F Damp=F
 DIIS: error= 4.22D-05 at cycle   1 NSaved=   1.
 NSaved= 1 IEnMin= 1 EnMin= -276.306306352777     IErMin= 1 ErrMin= 4.22D-05
 ErrMax= 4.22D-05  0.00D+00 EMaxC= 1.00D-01 BMatC= 1.41D-06 BMatP= 1.41D-06
 IDIUse=1 WtCom= 1.00D+00 WtEn= 0.00D+00
 Coeff-Com:  0.100D+01
 Coeff:      0.100D+01
 Gap=     0.408 Goal=   None    Shift=    0.000
 RMSDP=6.67D-06 MaxDP=3.50D-04 DE= 1.09D-05 OVMax= 2.49D-04

 Cycle   7  Pass 1  IDiag  1:
 RMSU=  1.80D-05    CP:  1.00D+00
 E= -276.306307145372     Delta-E=       -0.000000792595 Rises=F Damp=F
 DIIS: error= 2.26D-05 at cycle   2 NSaved=   2.
 NSaved= 2 IEnMin= 2 EnMin= -276.306307145372     IErMin= 2 ErrMin= 2.26D-05
 ErrMax= 2.26D-05  0.00D+00 EMaxC= 1.00D-01 BMatC= 3.27D-07 BMatP= 1.41D-06
 IDIUse=1 WtCom= 1.00D+00 WtEn= 0.00D+00
 Coeff-Com:  0.265D+00 0.735D+00
 Coeff:      0.265D+00 0.735D+00
 Gap=     0.407 Goal=   None    Shift=    0.000
 RMSDP=1.30D-06 MaxDP=5.06D-05 DE=-7.93D-07 OVMax= 1.29D-04

 Cycle   8  Pass 1  IDiag  1:
 RMSU=  1.24D-06    CP:  1.00D+00  1.02D+00
 E= -276.306307391257     Delta-E=       -0.000000245885 Rises=F Damp=F
 DIIS: error= 1.44D-05 at cycle   3 NSaved=   3.
 NSaved= 3 IEnMin= 3 EnMin= -276.306307391257     IErMin= 3 ErrMin= 1.44D-05
 ErrMax= 1.44D-05  0.00D+00 EMaxC= 1.00D-01 BMatC= 8.01D-08 BMatP= 3.27D-07
 IDIUse=1 WtCom= 1.00D+00 WtEn= 0.00D+00
 Coeff-Com: -0.854D-02 0.324D+00 0.685D+00
 Coeff:     -0.854D-02 0.324D+00 0.685D+00
 Gap=     0.407 Goal=   None    Shift=    0.000
 RMSDP=4.68D-07 MaxDP=1.68D-05 DE=-2.46D-07 OVMax= 4.40D-05

 Cycle   9  Pass 1  IDiag  1:
 RMSU=  2.65D-07    CP:  1.00D+00  1.04D+00  7.57D-01
 E= -276.306307469524     Delta-E=       -0.000000078267 Rises=F Damp=F
 DIIS: error= 1.80D-06 at cycle   4 NSaved=   4.
 NSaved= 4 IEnMin= 4 EnMin= -276.306307469524     IErMin= 4 ErrMin= 1.80D-06
 ErrMax= 1.80D-06  0.00D+00 EMaxC= 1.00D-01 BMatC= 9.99D-10 BMatP= 8.01D-08
 IDIUse=1 WtCom= 1.00D+00 WtEn= 0.00D+00
 Coeff-Com: -0.985D-02 0.708D-01 0.190D+00 0.749D+00
 Coeff:     -0.985D-02 0.708D-01 0.190D+00 0.749D+00
 Gap=     0.407 Goal=   None    Shift=    0.000
 RMSDP=6.52D-08 MaxDP=2.33D-06 DE=-7.83D-08 OVMax= 5.97D-06

 Cycle  10  Pass 1  IDiag  1:
 RMSU=  6.07D-08    CP:  1.00D+00  1.04D+00  7.69D-01  1.01D+00
 E= -276.306307470566     Delta-E=       -0.000000001042 Rises=F Damp=F
 DIIS: error= 4.05D-07 at cycle   5 NSaved=   5.
 NSaved= 5 IEnMin= 5 EnMin= -276.306307470566     IErMin= 5 ErrMin= 4.05D-07
 ErrMax= 4.05D-07  0.00D+00 EMaxC= 1.00D-01 BMatC= 3.82D-11 BMatP= 9.99D-10
 IDIUse=1 WtCom= 1.00D+00 WtEn= 0.00D+00
 Coeff-Com:  0.159D-03-0.215D-01-0.434D-01 0.359D-01 0.103D+01
 Coeff:      0.159D-03-0.215D-01-0.434D-01 0.359D-01 0.103D+01
 Gap=     0.407 Goal=   None    Shift=    0.000
 RMSDP=2.85D-08 MaxDP=7.31D-07 DE=-1.04D-09 OVMax= 2.04D-06

 Cycle  11  Pass 1  IDiag  1:
 RMSU=  1.42D-08    CP:  1.00D+00  1.04D+00  7.74D-01  1.10D+00  1.12D+00
 E= -276.306307470620     Delta-E=       -0.000000000054 Rises=F Damp=F
 DIIS: error= 1.34D-07 at cycle   6 NSaved=   6.
 NSaved= 6 IEnMin= 6 EnMin= -276.306307470620     IErMin= 6 ErrMin= 1.34D-07
 ErrMax= 1.34D-07  0.00D+00 EMaxC= 1.00D-01 BMatC= 9.28D-12 BMatP= 3.82D-11
 IDIUse=1 WtCom= 1.00D+00 WtEn= 0.00D+00
 Coeff-Com:  0.480D-03-0.126D-01-0.275D-01-0.170D-01 0.465D+00 0.592D+00
 Coeff:      0.480D-03-0.126D-01-0.275D-01-0.170D-01 0.465D+00 0.592D+00
 Gap=     0.407 Goal=   None    Shift=    0.000
 RMSDP=4.70D-09 MaxDP=2.18D-07 DE=-5.40D-11 OVMax= 5.13D-07

 SCF Done:  E(RM062X) =  -276.306307471     A.U. after   11 cycles
            NFock= 11  Conv=0.47D-08     -V/T= 2.0065
 KE= 2.745154733664D+02 PE=-1.274449873324D+03 EE= 4.056281819864D+02
 Leave Link  502 at Sat Sep 28 03:22:48 2019, MaxMem=   671088640 cpu:            1785.1 elap:             892.7
 (Enter /shared/centos7/gaussian/g16/l801.exe)
 DoSCS=F DFT=T ScalE2(SS,OS)=  1.000000  1.000000
 Range of M.O.s used for correlation:     1   434
 NBasis=   434 NAE=    29 NBE=    29 NFC=     0 NFV=     0
 NROrb=    434 NOA=    29 NOB=    29 NVA=   405 NVB=   405

 **** Warning!!: The largest alpha MO coefficient is  0.11531380D+02

 Leave Link  801 at Sat Sep 28 03:22:49 2019, MaxMem=   671088640 cpu:               1.3 elap:               0.7
 (Enter /shared/centos7/gaussian/g16/l1101.exe)
 Using compressed storage, NAtomX=    23.
 Will process     24 centers per pass.
 Leave Link 1101 at Sat Sep 28 03:23:24 2019, MaxMem=   671088640 cpu:              69.9 elap:              35.0
 (Enter /shared/centos7/gaussian/g16/l1102.exe)
 Symmetrizing basis deriv contribution to polar:
 IMax=3 JMax=2 DiffMx= 0.00D+00
 Leave Link 1102 at Sat Sep 28 03:23:26 2019, MaxMem=   671088640 cpu:               5.0 elap:               2.5
 (Enter /shared/centos7/gaussian/g16/l1110.exe)
 Forming Gx(P) for the SCF density, NAtomX=    23.
 Integral derivatives from FoFJK, PRISM(SPDF).
 Do as many integral derivatives as possible in FoFJK.
 G2DrvN: MDV=     671086848.
 G2DrvN: will do    24 centers at a time, making    1 passes.
 Calling FoFCou, ICntrl=  3107 FMM=F I1Cent=   0 AccDes= 0.00D+00.
 FoFJK:  IHMeth= 1 ICntrl=    3107 DoSepK=F KAlg= 0 I1Cent=           0 FoldK=F
 IRaf=         0 NMat=       1 IRICut=       1 DoRegI=T DoRafI=F ISym2E= 0 IDoP0=0 IntGTp=1.
 FoFCou: FMM=F IPFlag=           0 FMFlag=      100000 FMFlg1=           0
         NFxFlg=           0 DoJE=F BraDBF=F KetDBF=F FulRan=T
         wScrn=  0.000000 ICntrl=      3107 IOpCl=  0 I1Cent=           0 NGrid=           0
         NMat0=    1 NMatS0=      1 NMatT0=    0 NMatD0=    1 NMtDS0=    0 NMtDT0=    0
 Symmetry not used in FoFCou.
 End of G2Drv F.D. properties file   721 does not exist.
 End of G2Drv F.D. properties file   722 does not exist.
 End of G2Drv F.D. properties file   788 does not exist.
 Leave Link 1110 at Sat Sep 28 03:59:29 2019, MaxMem=   671088640 cpu:            4325.1 elap:            2163.0
 (Enter /shared/centos7/gaussian/g16/l1002.exe)
 Minotr:  Closed shell wavefunction.
          IDoAtm=11111111111111111111111
          Direct CPHF calculation.
          Differentiating once with respect to nuclear coordinates.
          Requested convergence is 1.0D-08 RMS, and 1.0D-07 maximum.
          Secondary convergence is 1.0D-12 RMS, and 1.0D-12 maximum.
          NewPWx=T KeepS1=F KeepF1=F KeepIn=T MapXYZ=F SortEE=F KeepMc=T.
         6953 words used for storage of precomputed grid.
 Two-electron integrals replicated using symmetry.
          MDV=     671088640 using IRadAn=       1.
          Solving linear equations simultaneously, MaxMat=     380.
 FoF2E skips out because all densities are zero.
 CalDSu exits because no D1Ps are significant.
 FoFJK:  IHMeth= 1 ICntrl=       0 DoSepK=F KAlg= 0 I1Cent=           0 FoldK=F
 IRaf= 880000000 NMat=      69 IRICut=     172 DoRegI=T DoRafI=T ISym2E= 2 IDoP0=3 IntGTp=3.
 FoFCou: FMM=F IPFlag=           0 FMFlag=      100000 FMFlg1=           0
         NFxFlg=           0 DoJE=F BraDBF=F KetDBF=F FulRan=T
         wScrn=  0.000000 ICntrl=         0 IOpCl=  0 I1Cent=           0 NGrid=           0
         NMat0=   69 NMatS0=     69 NMatT0=    0 NMatD0=   69 NMtDS0=    0 NMtDT0=    0
 Integrals replicated using symmetry in FoFCou.
 Raff kept on since  84.50% of shell-pairs survive, threshold=   0.20 IRatSp=84.
          There are    72 degrees of freedom in the 1st order CPHF.  IDoFFX=6 NUNeed=     0.
     66 vectors produced by pass  0 Test12= 1.63D-14 1.39D-09 XBig12= 5.59D-02 4.13D-02.
 AX will form    66 AO Fock derivatives at one time.
     66 vectors produced by pass  1 Test12= 1.63D-14 1.39D-09 XBig12= 3.49D-03 7.61D-03.
     66 vectors produced by pass  2 Test12= 1.63D-14 1.39D-09 XBig12= 5.43D-05 1.67D-03.
     66 vectors produced by pass  3 Test12= 1.63D-14 1.39D-09 XBig12= 4.38D-07 9.07D-05.
     66 vectors produced by pass  4 Test12= 1.63D-14 1.39D-09 XBig12= 2.38D-09 6.03D-06.
     66 vectors produced by pass  5 Test12= 1.63D-14 1.39D-09 XBig12= 1.23D-11 3.42D-07.
     22 vectors produced by pass  6 Test12= 1.63D-14 1.39D-09 XBig12= 4.20D-14 1.83D-08.
 InvSVY:  IOpt=1 It=  1 EMax= 3.05D-16
 Solved reduced A of dimension   418 with    72 vectors.
 End of Minotr F.D. properties file   721 does not exist.
 End of Minotr F.D. properties file   722 does not exist.
 End of Minotr F.D. properties file   788 does not exist.
 Leave Link 1002 at Sat Sep 28 05:01:00 2019, MaxMem=   671088640 cpu:            7380.6 elap:            3691.0
 (Enter /shared/centos7/gaussian/g16/l601.exe)
 Copying SCF densities to generalized density rwf, IOpCl= 0 IROHF=0.

 **********************************************************************

            Population analysis using the SCF density.

 **********************************************************************

 Orbital symmetries:
       Occupied  (A) (A) (A) (A) (A) (A) (A) (A) (A) (A) (A) (A)
                 (A) (A) (A) (A) (A) (A) (A) (A) (A) (A) (A) (A)
                 (A) (A) (A) (A) (A)
       Virtual   (A) (A) (A) (A) (A) (A) (A) (A) (A) (A) (A) (A)
                 (A) (A) (A) (A) (A) (A) (A) (A) (A) (A) (A) (A)
                 (A) (A) (A) (A) (A) (A) (A) (A) (A) (A) (A) (A)
                 (A) (A) (A) (A) (A) (A) (A) (A) (A) (A) (A) (A)
                 (A) (A) (A) (A) (A) (A) (A) (A) (A) (A) (A) (A)
                 (A) (A) (A) (A) (A) (A) (A) (A) (A) (A) (A) (A)
                 (A) (A) (A) (A) (A) (A) (A) (A) (A) (A) (A) (A)
                 (A) (A) (A) (A) (A) (A) (A) (A) (A) (A) (A) (A)
                 (A) (A) (A) (A) (A) (A) (A) (A) (A) (A) (A) (A)
                 (A) (A) (A) (A) (A) (A) (A) (A) (A) (A) (A) (A)
                 (A) (A) (A) (A) (A) (A) (A) (A) (A) (A) (A) (A)
                 (A) (A) (A) (A) (A) (A) (A) (A) (A) (A) (A) (A)
                 (A) (A) (A) (A) (A) (A) (A) (A) (A) (A) (A) (A)
                 (A) (A) (A) (A) (A) (A) (A) (A) (A) (A) (A) (A)
                 (A) (A) (A) (A) (A) (A) (A) (A) (A) (A) (A) (A)
                 (A) (A) (A) (A) (A) (A) (A) (A) (A) (A) (A) (A)
                 (A) (A) (A) (A) (A) (A) (A) (A) (A) (A) (A) (A)
                 (A) (A) (A) (A) (A) (A) (A) (A) (A) (A) (A) (A)
                 (A) (A) (A) (A) (A) (A) (A) (A) (A) (A) (A) (A)
                 (A) (A) (A) (A) (A) (A) (A) (A) (A) (A) (A) (A)
                 (A) (A) (A) (A) (A) (A) (A) (A) (A) (A) (A) (A)
                 (A) (A) (A) (A) (A) (A) (A) (A) (A) (A) (A) (A)
                 (A) (A) (A) (A) (A) (A) (A) (A) (A) (A) (A) (A)
                 (A) (A) (A) (A) (A) (A) (A) (A) (A) (A) (A) (A)
                 (A) (A) (A) (A) (A) (A) (A) (A) (A) (A) (A) (A)
                 (A) (A) (A) (A) (A) (A) (A) (A) (A) (A) (A) (A)
                 (A) (A) (A) (A) (A) (A) (A) (A) (A) (A) (A) (A)
                 (A) (A) (A) (A) (A) (A) (A) (A) (A) (A) (A) (A)
                 (A) (A) (A) (A) (A) (A) (A) (A) (A) (A) (A) (A)
                 (A) (A) (A) (A) (A) (A) (A) (A) (A) (A) (A) (A)
                 (A) (A) (A) (A) (A) (A) (A) (A) (A) (A) (A) (A)
                 (A) (A) (A) (A) (A) (A) (A) (A) (A) (A) (A) (A)
                 (A) (A) (A) (A) (A) (A) (A) (A) (A) (A) (A) (A)
                 (A) (A) (A) (A) (A) (A) (A) (A) (A)
 The electronic state is 1-A.
 Alpha  occ. eigenvalues --  -10.52932 -10.52543 -10.52470 -10.52353 -10.52322
 Alpha  occ. eigenvalues --  -10.52284 -10.51823  -0.92223  -0.88401  -0.82552
 Alpha  occ. eigenvalues --   -0.76355  -0.70813  -0.65856  -0.62653  -0.54876
 Alpha  occ. eigenvalues --   -0.52980  -0.52241  -0.49140  -0.47649  -0.46808
 Alpha  occ. eigenvalues --   -0.44601  -0.43319  -0.41032  -0.39811  -0.39227
 Alpha  occ. eigenvalues --   -0.38369  -0.37201  -0.36102  -0.34489
 Alpha virt. eigenvalues --    0.06258   0.07497   0.08762   0.09010   0.10454
 Alpha virt. eigenvalues --    0.10948   0.11995   0.13084   0.14692   0.15554
 Alpha virt. eigenvalues --    0.15660   0.16463   0.17940   0.18012   0.19536
 Alpha virt. eigenvalues --    0.21830   0.22072   0.23301   0.24650   0.25835
 Alpha virt. eigenvalues --    0.27606   0.29441   0.29604   0.30794   0.31010
 Alpha virt. eigenvalues --    0.32519   0.33808   0.34372   0.35199   0.37482
 Alpha virt. eigenvalues --    0.38219   0.40408   0.41911   0.42504   0.43416
 Alpha virt. eigenvalues --    0.44205   0.44724   0.45986   0.46771   0.47903
 Alpha virt. eigenvalues --    0.48854   0.49212   0.49733   0.50233   0.50474
 Alpha virt. eigenvalues --    0.51428   0.51991   0.52257   0.52849   0.54155
 Alpha virt. eigenvalues --    0.54578   0.55530   0.55879   0.56219   0.56389
 Alpha virt. eigenvalues --    0.57748   0.58867   0.60055   0.61346   0.63756
 Alpha virt. eigenvalues --    0.65548   0.67955   0.72759   0.73869   0.75490
 Alpha virt. eigenvalues --    0.76419   0.79564   0.82529   0.84332   0.85758
 Alpha virt. eigenvalues --    0.87160   0.88095   0.88927   0.89661   0.90995
 Alpha virt. eigenvalues --    0.91689   0.92533   0.94944   0.96549   0.98357
 Alpha virt. eigenvalues --    1.01498   1.03269   1.03887   1.04632   1.05688
 Alpha virt. eigenvalues --    1.07015   1.07695   1.08495   1.09151   1.09274
 Alpha virt. eigenvalues --    1.11512   1.12209   1.12504   1.13456   1.14364
 Alpha virt. eigenvalues --    1.15276   1.15776   1.16055   1.17873   1.18335
 Alpha virt. eigenvalues --    1.19154   1.19518   1.20872   1.21532   1.22094
 Alpha virt. eigenvalues --    1.24942   1.25308   1.26223   1.26603   1.27319
 Alpha virt. eigenvalues --    1.29858   1.31115   1.32158   1.32577   1.33074
 Alpha virt. eigenvalues --    1.34573   1.35410   1.35561   1.36293   1.37723
 Alpha virt. eigenvalues --    1.39237   1.40748   1.42072   1.42908   1.44118
 Alpha virt. eigenvalues --    1.45372   1.46365   1.47056   1.47396   1.49373
 Alpha virt. eigenvalues --    1.49972   1.51127   1.52076   1.54647   1.55303
 Alpha virt. eigenvalues --    1.56533   1.58129   1.59434   1.61140   1.61946
 Alpha virt. eigenvalues --    1.63956   1.64385   1.66253   1.69194   1.71649
 Alpha virt. eigenvalues --    1.72925   1.73970   1.80187   1.84300   2.19771
 Alpha virt. eigenvalues --    2.20587   2.26506   2.27937   2.29107   2.33438
 Alpha virt. eigenvalues --    2.35990   2.37593   2.39351   2.41342   2.42666
 Alpha virt. eigenvalues --    2.42948   2.45876   2.48304   2.50365   2.51630
 Alpha virt. eigenvalues --    2.53772   2.54633   2.56575   2.58769   2.59364
 Alpha virt. eigenvalues --    2.61143   2.61987   2.62972   2.65417   2.66811
 Alpha virt. eigenvalues --    2.67769   2.69058   2.70481   2.72322   2.73066
 Alpha virt. eigenvalues --    2.73611   2.75340   2.76126   2.76157   2.77953
 Alpha virt. eigenvalues --    2.80347   2.81005   2.81975   2.83106   2.85022
 Alpha virt. eigenvalues --    2.85978   2.87823   2.88517   2.90975   2.91706
 Alpha virt. eigenvalues --    2.92390   2.95926   2.96213   2.97002   2.99589
 Alpha virt. eigenvalues --    2.99784   3.00415   3.00664   3.01504   3.03415
 Alpha virt. eigenvalues --    3.03878   3.05924   3.06415   3.07635   3.08020
 Alpha virt. eigenvalues --    3.09406   3.10080   3.10658   3.11640   3.13116
 Alpha virt. eigenvalues --    3.13484   3.15076   3.15978   3.17054   3.17933
 Alpha virt. eigenvalues --    3.18762   3.20129   3.20768   3.21307   3.22462
 Alpha virt. eigenvalues --    3.23119   3.25158   3.26067   3.27613   3.28349
 Alpha virt. eigenvalues --    3.28963   3.29543   3.30536   3.32246   3.34966
 Alpha virt. eigenvalues --    3.35914   3.36605   3.37392   3.39604   3.39981
 Alpha virt. eigenvalues --    3.41218   3.42263   3.43171   3.45445   3.48515
 Alpha virt. eigenvalues --    3.48961   3.49896   3.51479   3.52463   3.54200
 Alpha virt. eigenvalues --    3.55040   3.55815   3.58784   3.59506   3.59923
 Alpha virt. eigenvalues --    3.62105   3.62276   3.63426   3.64266   3.65438
 Alpha virt. eigenvalues --    3.68348   3.69534   3.70866   3.71476   3.72618
 Alpha virt. eigenvalues --    3.73104   3.75637   3.76180   3.76983   3.78228
 Alpha virt. eigenvalues --    3.79269   3.80987   3.81637   3.82952   3.84027
 Alpha virt. eigenvalues --    3.85632   3.86274   3.88209   3.90116   3.91667
 Alpha virt. eigenvalues --    3.91827   3.92461   3.93861   3.94349   3.95147
 Alpha virt. eigenvalues --    3.96601   3.97649   3.97945   3.98799   3.99652
 Alpha virt. eigenvalues --    4.01707   4.02901   4.03429   4.04938   4.05216
 Alpha virt. eigenvalues --    4.05849   4.07708   4.08766   4.09210   4.10783
 Alpha virt. eigenvalues --    4.11975   4.13563   4.14462   4.15187   4.16757
 Alpha virt. eigenvalues --    4.17295   4.18510   4.20227   4.21771   4.22587
 Alpha virt. eigenvalues --    4.23585   4.24203   4.26490   4.27369   4.28474
 Alpha virt. eigenvalues --    4.30179   4.31666   4.31911   4.36767   4.37992
 Alpha virt. eigenvalues --    4.39904   4.40487   4.41651   4.43095   4.46394
 Alpha virt. eigenvalues --    4.48137   4.50955   4.52495   4.54126   4.56039
 Alpha virt. eigenvalues --    4.58467   4.58954   4.61474   4.64925   4.65308
 Alpha virt. eigenvalues --    4.67650   4.69267   4.72396   4.73457   4.74703
 Alpha virt. eigenvalues --    4.75641   4.77794   4.80231   4.81242   4.82201
 Alpha virt. eigenvalues --    4.82487   4.83992   4.86269   4.87950   4.90219
 Alpha virt. eigenvalues --    4.92611   4.94160   4.96478   4.98704   5.00022
 Alpha virt. eigenvalues --    5.01014   5.03494   5.04949   5.06262   5.07071
 Alpha virt. eigenvalues --    5.08344   5.09448   5.10709   5.12533   5.13827
 Alpha virt. eigenvalues --    5.19990   5.20387   5.23363   5.26507   5.28100
 Alpha virt. eigenvalues --    5.28766   5.30158   5.30737   5.31154   5.35264
 Alpha virt. eigenvalues --    5.36448   5.36831   5.37736   5.44350   5.45658
 Alpha virt. eigenvalues --    5.48073   5.50167   5.51065   5.52919   5.55673
 Alpha virt. eigenvalues --    5.57035   5.60295   5.73265   5.74902   5.76290
 Alpha virt. eigenvalues --    5.78591   5.81168   5.84221   5.84759   5.88296
 Alpha virt. eigenvalues --    5.95268   6.00609   6.06591  11.14290  11.96793
 Alpha virt. eigenvalues --   12.65253  12.87516  13.19057  13.51031  14.03287
          Condensed to atoms (all electrons):
               1          2          3          4          5          6
     1  C    5.078827   0.292034  -0.048004   0.301929   0.002697  -0.048599
     2  C    0.292034   5.122845   0.306790  -0.041176  -0.048838  -0.019450
     3  C   -0.048004   0.306790   5.111864   0.007129   0.308413   0.002682
     4  C    0.301929  -0.041176   0.007129   5.037026  -0.000345   0.282421
     5  C    0.002697  -0.048838   0.308413  -0.000345   5.035044  -0.000093
     6  C   -0.048599  -0.019450   0.002682   0.282421  -0.000093   5.001801
     7  C   -0.000591   0.009101  -0.056061   0.000014   0.315118   0.000005
     8  H   -0.048856   0.005326  -0.000346   0.419969  -0.000005  -0.047137
     9  H   -0.048829   0.005350  -0.000465   0.419001   0.000068  -0.046484
    10  H    0.417872  -0.045075  -0.007772  -0.046364   0.000603   0.006015
    11  H    0.416525  -0.048642  -0.001304  -0.045216  -0.000236   0.005967
    12  H   -0.034377   0.408925  -0.039902  -0.002612   0.005150  -0.009712
    13  H   -0.045940   0.418102  -0.057000  -0.000141  -0.005727  -0.006161
    14  H   -0.002122  -0.053292   0.411323   0.000785  -0.040167  -0.000011
    15  H    0.003962  -0.038293   0.403144  -0.000339  -0.039611  -0.000003
    16  H   -0.000716  -0.002200  -0.048132  -0.000023   0.408644  -0.000009
    17  H    0.000985  -0.005654  -0.040612  -0.000031   0.407786   0.000007
    18  H   -0.010123  -0.007114   0.002476  -0.053342   0.000099   0.417624
    19  H    0.006709  -0.000484  -0.000069  -0.047877  -0.000004   0.406423
    20  H    0.006846  -0.000323  -0.000089  -0.046918   0.000002   0.409129
    21  H   -0.000040   0.000356  -0.003692   0.000000  -0.050431   0.000000
    22  H   -0.000018  -0.000441  -0.002000  -0.000000  -0.042675  -0.000000
    23  H    0.000047  -0.000578   0.008162  -0.000001  -0.040600  -0.000000
               7          8          9         10         11         12
     1  C   -0.000591  -0.048856  -0.048829   0.417872   0.416525  -0.034377
     2  C    0.009101   0.005326   0.005350  -0.045075  -0.048642   0.408925
     3  C   -0.056061  -0.000346  -0.000465  -0.007772  -0.001304  -0.039902
     4  C    0.000014   0.419969   0.419001  -0.046364  -0.045216  -0.002612
     5  C    0.315118  -0.000005   0.000068   0.000603  -0.000236   0.005150
     6  C    0.000005  -0.047137  -0.046484   0.006015   0.005967  -0.009712
     7  C    4.943184  -0.000001  -0.000001   0.000027  -0.000086  -0.000501
     8  H   -0.000001   0.632632  -0.041480  -0.019714   0.006859   0.000541
     9  H   -0.000001  -0.041480   0.627768   0.007339  -0.019648  -0.000386
    10  H    0.000027  -0.019714   0.007339   0.605313  -0.042137  -0.006843
    11  H   -0.000086   0.006859  -0.019648  -0.042137   0.604904   0.008504
    12  H   -0.000501   0.000541  -0.000386  -0.006843   0.008504   0.602371
    13  H    0.001253  -0.000395   0.000590   0.008788  -0.009503  -0.045022
    14  H   -0.006156  -0.000112  -0.000095   0.001492  -0.000784   0.005045
    15  H    0.000257   0.000051   0.000012   0.000736   0.000137  -0.014745
    16  H   -0.038071   0.000007   0.000002  -0.000029   0.001326   0.000384
    17  H   -0.037374   0.000001  -0.000006  -0.000056  -0.000002   0.000418
    18  H    0.000001   0.005733   0.005828   0.000476   0.000372  -0.009109
    19  H   -0.000000   0.007677  -0.021588  -0.000653   0.000260   0.000904
    20  H   -0.000000  -0.021358   0.007147   0.000244  -0.000620  -0.000341
    21  H    0.406114   0.000000  -0.000000  -0.000003  -0.000008  -0.000033
    22  H    0.404362   0.000000   0.000000   0.000000   0.000004   0.000062
    23  H    0.404642   0.000000   0.000000   0.000001   0.000002   0.000017
              13         14         15         16         17         18
     1  C   -0.045940  -0.002122   0.003962  -0.000716   0.000985  -0.010123
     2  C    0.418102  -0.053292  -0.038293  -0.002200  -0.005654  -0.007114
     3  C   -0.057000   0.411323   0.403144  -0.048132  -0.040612   0.002476
     4  C   -0.000141   0.000785  -0.000339  -0.000023  -0.000031  -0.053342
     5  C   -0.005727  -0.040167  -0.039611   0.408644   0.407786   0.000099
     6  C   -0.006161  -0.000011  -0.000003  -0.000009   0.000007   0.417624
     7  C    0.001253  -0.006156   0.000257  -0.038071  -0.037374   0.000001
     8  H   -0.000395  -0.000112   0.000051   0.000007   0.000001   0.005733
     9  H    0.000590  -0.000095   0.000012   0.000002  -0.000006   0.005828
    10  H    0.008788   0.001492   0.000736  -0.000029  -0.000056   0.000476
    11  H   -0.009503  -0.000784   0.000137   0.001326  -0.000002   0.000372
    12  H   -0.045022   0.005045  -0.014745   0.000384   0.000418  -0.009109
    13  H    0.607958   0.005679   0.005783  -0.001371   0.000205  -0.008015
    14  H    0.005679   0.587848  -0.041028  -0.007421   0.007627  -0.000175
    15  H    0.005783  -0.041028   0.591995   0.008598  -0.007616   0.000148
    16  H   -0.001371  -0.007421   0.008598   0.612731  -0.042218   0.000036
    17  H    0.000205   0.007627  -0.007616  -0.042218   0.596602  -0.000001
    18  H   -0.008015  -0.000175   0.000148   0.000036  -0.000001   0.604324
    19  H   -0.000482   0.000005  -0.000006  -0.000000   0.000004  -0.035886
    20  H    0.000744   0.000006  -0.000002  -0.000001  -0.000000  -0.036755
    21  H    0.000078   0.003515  -0.000613  -0.000386   0.007499  -0.000000
    22  H   -0.000064  -0.000133   0.002582   0.007975  -0.012168  -0.000000
    23  H   -0.000080   0.000079  -0.000170  -0.011978   0.000406   0.000000
              19         20         21         22         23
     1  C    0.006709   0.006846  -0.000040  -0.000018   0.000047
     2  C   -0.000484  -0.000323   0.000356  -0.000441  -0.000578
     3  C   -0.000069  -0.000089  -0.003692  -0.002000   0.008162
     4  C   -0.047877  -0.046918   0.000000  -0.000000  -0.000001
     5  C   -0.000004   0.000002  -0.050431  -0.042675  -0.040600
     6  C    0.406423   0.409129   0.000000  -0.000000  -0.000000
     7  C   -0.000000  -0.000000   0.406114   0.404362   0.404642
     8  H    0.007677  -0.021358   0.000000   0.000000   0.000000
     9  H   -0.021588   0.007147  -0.000000   0.000000   0.000000
    10  H   -0.000653   0.000244  -0.000003   0.000000   0.000001
    11  H    0.000260  -0.000620  -0.000008   0.000004   0.000002
    12  H    0.000904  -0.000341  -0.000033   0.000062   0.000017
    13  H   -0.000482   0.000744   0.000078  -0.000064  -0.000080
    14  H    0.000005   0.000006   0.003515  -0.000133   0.000079
    15  H   -0.000006  -0.000002  -0.000613   0.002582  -0.000170
    16  H   -0.000000  -0.000001  -0.000386   0.007975  -0.011978
    17  H    0.000004  -0.000000   0.007499  -0.012168   0.000406
    18  H   -0.035886  -0.036755  -0.000000  -0.000000   0.000000
    19  H    0.617425  -0.033349   0.000000   0.000000   0.000000
    20  H   -0.033349   0.607500   0.000000   0.000000  -0.000000
    21  H    0.000000   0.000000   0.598027  -0.037902  -0.033701
    22  H    0.000000   0.000000  -0.037902   0.605047  -0.029996
    23  H    0.000000  -0.000000  -0.033701  -0.029996   0.602111
 Mulliken charges:
               1
     1  C   -0.240216
     2  C   -0.257269
     3  C   -0.256533
     4  C   -0.183890
     5  C   -0.214890
     6  C   -0.354416
     7  C   -0.345236
     8  H    0.100610
     9  H    0.105875
    10  H    0.119741
    11  H    0.123324
    12  H    0.131263
    13  H    0.130722
    14  H    0.128094
    15  H    0.125023
    16  H    0.112852
    17  H    0.124200
    18  H    0.123402
    19  H    0.100990
    20  H    0.108136
    21  H    0.111220
    22  H    0.105365
    23  H    0.101636
 Sum of Mulliken charges =  -0.00000
 Mulliken charges with hydrogens summed into heavy atoms:
               1
     1  C    0.002849
     2  C    0.004715
     3  C   -0.003417
     4  C    0.022595
     5  C    0.022162
     6  C   -0.021889
     7  C   -0.027014
 APT charges:
               1
     1  C   -0.549473
     2  C   -0.471436
     3  C   -0.657238
     4  C   -0.931334
     5  C   -0.394923
     6  C   -1.161970
     7  C   -1.500205
     8  H    0.470454
     9  H    0.401161
    10  H    0.356430
    11  H    0.297203
    12  H    0.351042
    13  H    0.282495
    14  H    0.311782
    15  H    0.367573
    16  H    0.244660
    17  H    0.314428
    18  H    0.050101
    19  H    0.432315
    20  H    0.519418
    21  H    0.313990
    22  H    0.441923
    23  H    0.511606
 Sum of APT charges =  -0.00000
 APT charges with hydrogens summed into heavy atoms:
               1
     1  C    0.104160
     2  C    0.162102
     3  C    0.022116
     4  C   -0.059720
     5  C    0.164164
     6  C   -0.160136
     7  C   -0.232686
 Electronic spatial extent (au):  <R**2>=           1439.3746
 Charge=             -0.0000 electrons
 Dipole moment (field-independent basis, Debye):
    X=             -0.0280    Y=              0.0296    Z=              0.0284  Tot=              0.0497
 Quadrupole moment (field-independent basis, Debye-Ang):
   XX=            -50.6470   YY=            -49.4982   ZZ=            -48.1564
   XY=              0.6779   XZ=              0.2070   YZ=             -0.1047
 Traceless Quadrupole moment (field-independent basis, Debye-Ang):
   XX=             -1.2131   YY=             -0.0644   ZZ=              1.2775
   XY=              0.6779   XZ=              0.2070   YZ=             -0.1047
 Octapole moment (field-independent basis, Debye-Ang**2):
  XXX=              2.6996  YYY=              1.0449  ZZZ=             -0.8582  XYY=             -2.1049
  XXY=              0.8502  XXZ=              0.7288  XZZ=              1.0434  YZZ=             -0.2686
  YYZ=              0.7730  XYZ=              1.4529
 Hexadecapole moment (field-independent basis, Debye-Ang**3):
 XXXX=          -1741.4566 YYYY=           -216.7410 ZZZZ=           -134.4048 XXXY=             10.0174
 XXXZ=              8.0003 YYYX=              2.9169 YYYZ=              1.1365 ZZZX=             -0.5815
 ZZZY=             -1.6707 XXYY=           -323.3468 XXZZ=           -296.1640 YYZZ=            -58.8087
 XXYZ=              1.5780 YYXZ=             -1.0908 ZZXY=              1.6855
 N-N= 3.179999105003D+02 E-N=-1.274449828446D+03  KE= 2.745154733664D+02
  Exact polarizability:   0.000   0.000   0.000   0.000   0.000   0.000
 Approx polarizability:  97.498  -0.036  97.342  -0.192   0.549  98.765
 No NMR shielding tensors so no spin-rotation constants.
 Leave Link  601 at Sat Sep 28 05:01:29 2019, MaxMem=   671088640 cpu:              56.9 elap:              28.5
 (Enter /shared/centos7/gaussian/g16/l701.exe)
 SCFChk:  SCF convergence  4.70D-09 required  1.00D-08
 ... and contract with generalized density number  0.
 Compute integral second derivatives.
 Entering OneElI...
 Calculate overlap and kinetic energy integrals
    NBasis = 485  MinDer = 2  MaxDer = 2
 Requested accuracy = 0.1000D-12
 PrmmSu-InSpLW:  IPartL=    0 NPrtUS=   20 NPrtUL=    1 DoSpLW=F IThBeg=    0 IThEnd=   19 NThAct=   20.
 PrsmSu:  NPrtUS=  20 ThrOK=T IAlg=1 NPAlg=1 LenDen=           0 ISkipM=0 DoSpLW=F IThBeg=    0 IThEnd=   19.
 Prism:   IPart=     0 DynPar=F LinDyn=F Incr=           6.
 PRISM was handed    33210112 working-precision words and 13405 shell-pairs
 PRISM was handed    33210112 working-precision words and 13405 shell-pairs
 PRISM was handed    33210112 working-precision words and 13405 shell-pairs
 PRISM was handed    33210112 working-precision words and 13405 shell-pairs
 PRISM was handed    33210112 working-precision words and 13405 shell-pairs
 PRISM was handed    33210112 working-precision words and 13405 shell-pairs
 PRISM was handed    33210112 working-precision words and 13405 shell-pairs
 IPart=  1 NShTot=         701 NBatch=          77 AvBLen=         9.1
 IPart=  0 NShTot=         704 NBatch=          78 AvBLen=         9.0
 PRISM was handed    33210112 working-precision words and 13405 shell-pairs
 PRISM was handed    33210112 working-precision words and 13405 shell-pairs
 PRISM was handed    33210112 working-precision words and 13405 shell-pairs
 PRISM was handed    33210112 working-precision words and 13405 shell-pairs
 PRISM was handed    33210112 working-precision words and 13405 shell-pairs
 PRISM was handed    33210112 working-precision words and 13405 shell-pairs
 IPart= 16 NShTot=         645 NBatch=          49 AvBLen=        13.2
 IPart=  7 NShTot=         677 NBatch=          62 AvBLen=        10.9
 PRISM was handed    33210112 working-precision words and 13405 shell-pairs
 IPart= 17 NShTot=         644 NBatch=          49 AvBLen=        13.1
 PRISM was handed    33210112 working-precision words and 13405 shell-pairs
 PRISM was handed    33210112 working-precision words and 13405 shell-pairs
 PRISM was handed    33210112 working-precision words and 13405 shell-pairs
 IPart= 14 NShTot=         652 NBatch=          52 AvBLen=        12.5
 IPart=  4 NShTot=         693 NBatch=          71 AvBLen=         9.8
 PRISM was handed    33210112 working-precision words and 13405 shell-pairs
 IPart= 15 NShTot=         649 NBatch=          52 AvBLen=        12.5
 IPart= 10 NShTot=         668 NBatch=          58 AvBLen=        11.5
 PRISM was handed    33210112 working-precision words and 13405 shell-pairs
 IPart=  3 NShTot=         697 NBatch=          74 AvBLen=         9.4
 PRISM was handed    33210112 working-precision words and 13405 shell-pairs
 IPart=  2 NShTot=         700 NBatch=          76 AvBLen=         9.2
 IPart= 19 NShTot=         640 NBatch=          46 AvBLen=        13.9
 IPart= 12 NShTot=         657 NBatch=          53 AvBLen=        12.4
 IPart= 11 NShTot=         666 NBatch=          57 AvBLen=        11.7
 IPart= 18 NShTot=         641 NBatch=          46 AvBLen=        13.9
 IPart=  9 NShTot=         671 NBatch=          59 AvBLen=        11.4
 IPart=  8 NShTot=         674 NBatch=          61 AvBLen=        11.0
 IPart= 13 NShTot=         654 NBatch=          52 AvBLen=        12.6
 IPart=  5 NShTot=         688 NBatch=          70 AvBLen=         9.8
 IPart=  6 NShTot=         684 NBatch=          68 AvBLen=        10.1
 PrSmSu:  NxtVal=            121.
 Entering OneElI...
 Calculate potential energy integrals
    NBasis = 485  MinDer = 2  MaxDer = 2
 Requested accuracy = 0.1000D-12
 PrmmSu-InSpLW:  IPartL=    0 NPrtUS=   20 NPrtUL=    1 DoSpLW=F IThBeg=    0 IThEnd=   19 NThAct=   20.
 PrsmSu:  NPrtUS=  20 ThrOK=T IAlg=1 NPAlg=1 LenDen=           0 ISkipM=0 DoSpLW=F IThBeg=    0 IThEnd=   19.
 Prism:   IPart=     0 DynPar=F LinDyn=F Incr=         134.
 PRISM was handed    33275300 working-precision words and 11709 shell-pairs
 PRISM was handed    33275300 working-precision words and 11709 shell-pairs
 PRISM was handed    33275300 working-precision words and 11709 shell-pairs
 PRISM was handed    33275300 working-precision words and 11709 shell-pairs
 PRISM was handed    33275300 working-precision words and 11709 shell-pairs
 PRISM was handed    33275300 working-precision words and 11709 shell-pairs
 PRISM was handed    33275300 working-precision words and 11709 shell-pairs
 PRISM was handed    33275300 working-precision words and 11709 shell-pairs
 PRISM was handed    33275300 working-precision words and 11709 shell-pairs
 PRISM was handed    33275300 working-precision words and 11709 shell-pairs
 PRISM was handed    33275300 working-precision words and 11709 shell-pairs
 PRISM was handed    33275300 working-precision words and 11709 shell-pairs
 PRISM was handed    33275300 working-precision words and 11709 shell-pairs
 PRISM was handed    33275300 working-precision words and 11709 shell-pairs
 PRISM was handed    33275300 working-precision words and 11709 shell-pairs
 PRISM was handed    33275300 working-precision words and 11709 shell-pairs
 PRISM was handed    33275300 working-precision words and 11709 shell-pairs
 PRISM was handed    33275300 working-precision words and 11709 shell-pairs
 PRISM was handed    33275300 working-precision words and 11709 shell-pairs
 PRISM was handed    33275300 working-precision words and 11709 shell-pairs
 IPart=  0 NShTot=       14168 NBatch=         618 AvBLen=        22.9
 IPart=  1 NShTot=       14099 NBatch=         615 AvBLen=        22.9
 IPart=  2 NShTot=       14030 NBatch=         612 AvBLen=        22.9
 IPart= 16 NShTot=       12926 NBatch=         563 AvBLen=        23.0
 IPart=  3 NShTot=       13984 NBatch=         610 AvBLen=        22.9
 IPart= 14 NShTot=       13041 NBatch=         568 AvBLen=        23.0
 IPart= 17 NShTot=       12903 NBatch=         562 AvBLen=        23.0
 IPart=  7 NShTot=       13593 NBatch=         592 AvBLen=        23.0
 IPart= 12 NShTot=       13271 NBatch=         578 AvBLen=        23.0
 IPart=  4 NShTot=       13938 NBatch=         608 AvBLen=        22.9
 IPart=  5 NShTot=       13892 NBatch=         605 AvBLen=        23.0
 IPart= 19 NShTot=       12857 NBatch=         560 AvBLen=        23.0
 IPart=  8 NShTot=       13547 NBatch=         590 AvBLen=        23.0
 IPart= 13 NShTot=       13087 NBatch=         570 AvBLen=        23.0
 IPart= 18 NShTot=       12857 NBatch=         560 AvBLen=        23.0
 IPart= 10 NShTot=       13478 NBatch=         587 AvBLen=        23.0
 IPart=  6 NShTot=       13777 NBatch=         600 AvBLen=        23.0
 IPart= 11 NShTot=       13363 NBatch=         582 AvBLen=        23.0
 IPart= 15 NShTot=       12995 NBatch=         566 AvBLen=        23.0
 IPart=  9 NShTot=       13501 NBatch=         588 AvBLen=        23.0
 PrSmSu:  NxtVal=           2681.
 Polarizability after L701:
                1             2             3 
      1  0.000000D+00
      2  0.000000D+00  0.000000D+00
      3  0.000000D+00  0.000000D+00  0.000000D+00
 Dipole Derivatives after L701:
                 1             2             3             4             5 
      1   0.246512D+00 -0.614082D+00 -0.887862D-01 -0.126366D+00  0.230068D+00
      2   0.390419D+00 -0.108291D+01 -0.257249D-01  0.238066D-01 -0.481209D+00
      3  -0.204295D+00 -0.403416D-01 -0.812020D+00 -0.242872D+00  0.105283D+00
                 6             7             8             9            10 
      1  -0.207083D+00 -0.386906D+00  0.581490D+00  0.651609D+00 -0.162039D+01
      2  -0.975711D-01  0.599142D-01 -0.748990D+00  0.114000D+00 -0.593091D+00
      3  -0.806733D+00  0.240263D+00 -0.352849D-01 -0.835819D+00  0.120119D+00
                11            12            13            14            15 
      1  -0.172091D+01  0.618233D+00  0.396015D+00 -0.981486D+00 -0.797132D+00
      2  -0.335024D+00 -0.107940D-02  0.480499D-01 -0.828261D+00  0.795135D-02
      3   0.274657D-01 -0.838593D+00  0.197580D+00  0.580099D-01 -0.752523D+00
                16            17            18            19            20 
      1  -0.145676D+01  0.193527D+01 -0.388555D+00 -0.260173D+01  0.354696D+00
      2   0.984184D-01 -0.108391D+01  0.266970D-02 -0.125216D+00 -0.935386D+00
      3  -0.638517D-02 -0.101052D+00 -0.945241D+00 -0.157127D+00  0.558445D-01
                21            22            23            24            25 
      1   0.184443D+00  0.812778D+00  0.643666D+00  0.657904D+00  0.395035D+00
      2   0.232223D-01  0.224397D+00  0.383687D+00  0.251707D+00  0.350039D-01
      3  -0.963499D+00  0.932444D-01  0.893569D-01  0.214895D+00 -0.119056D+00
                26            27            28            29            30 
      1   0.167846D+00 -0.944479D+00  0.168926D+00  0.314247D+00  0.244978D+00
      2   0.187806D+00 -0.234086D+00  0.176848D-01  0.595418D+00  0.397049D+00
      3  -0.874354D-01  0.620644D+00  0.135683D-01  0.206244D+00  0.304946D+00
                31            32            33            34            35 
      1   0.799372D-01  0.105489D+00 -0.227335D+00  0.269265D+00 -0.130996D+00
      2  -0.132699D+00  0.302918D+00 -0.386076D+00 -0.102611D+00  0.238301D+00
      3   0.100002D+00 -0.147910D+00  0.508753D+00  0.169182D+00 -0.220793D+00
                36            37            38            39            40 
      1   0.161418D+00  0.184136D+00 -0.648112D-01 -0.307531D-01  0.177219D+00
      2  -0.165277D+00 -0.245784D-01  0.383890D+00  0.240434D+00 -0.373153D-01
      3   0.545562D+00  0.105842D-01  0.127617D+00  0.279460D+00 -0.156733D-01
                41            42            43            44            45 
      1  -0.417866D+00  0.410466D-01  0.252085D+00  0.597738D-01 -0.491870D+00
      2   0.636733D+00 -0.807753D-01 -0.614628D-02  0.136209D+00 -0.735131D-02
      3   0.111780D+00  0.121394D+00 -0.131216D+00 -0.108629D+00  0.714424D+00
                46            47            48            49            50 
      1  -0.138771D-01 -0.502254D-01  0.599181D+00  0.105183D+00  0.694286D+00
      2  -0.127906D-01  0.122372D+00  0.489300D-01 -0.316591D-01  0.701200D+00
      3  -0.120627D+00 -0.849556D-01  0.625484D+00 -0.117166D-01  0.303402D-01
                51            52            53            54            55 
      1  -0.859362D-01 -0.404745D+00 -0.371100D+00  0.219700D+00  0.507855D+00
      2  -0.957367D-01  0.476287D+00  0.397030D+00 -0.189225D+00 -0.193332D+00
      3   0.136900D+00 -0.150296D+00 -0.763863D-01  0.158019D+00 -0.139821D+00
                56            57            58            59            60 
      1  -0.516343D+00 -0.101427D+01  0.106449D+01 -0.216727D-01  0.982194D+00
      2   0.339531D+00  0.417281D+00 -0.223918D+00  0.156021D+00 -0.219880D+00
      3   0.132039D+00  0.449559D+00  0.252155D+00  0.123730D-01  0.337742D+00
                61            62            63            64            65 
      1   0.287379D+00 -0.115444D+01 -0.342839D+00  0.754177D+00  0.762474D+00
      2  -0.326976D-01  0.548895D+00  0.113524D+00  0.967157D-01  0.262124D+00
      3   0.350465D-04  0.411821D-01  0.105696D+00 -0.125301D+00 -0.173137D+00
                66            67            68            69 
      1  -0.105826D+01  0.909779D+00  0.194632D+00  0.131659D+01
      2  -0.204799D+00  0.453571D-01  0.103557D+00  0.908137D-01
      3   0.309469D+00  0.227655D+00  0.783894D-01  0.521481D+00
 Hessian after L701:
                1             2             3             4             5 
      1  0.143844D+02
      2 -0.143482D+00  0.168915D+02
      3  0.590836D+00  0.285271D+00  0.175375D+02
      4 -0.437902D+01  0.194727D+01 -0.841939D+00  0.144132D+02
      5  0.192593D+01 -0.448204D+01 -0.807003D+00 -0.546124D+00  0.177945D+02
      6 -0.857851D+00 -0.819879D+00 -0.573283D+01  0.522399D+00  0.279997D+00
      7  0.396324D+00 -0.184401D-01 -0.171910D+00 -0.242067D+01 -0.981538D+00
      8  0.141872D+00 -0.125133D+00 -0.387491D-01 -0.100385D+01 -0.569980D+01
      9 -0.144381D+00 -0.402751D-02 -0.139146D+00 -0.550190D+00  0.112120D+00
     10 -0.249446D+01 -0.980105D+00 -0.408090D+00  0.337458D+00  0.867157D-01
     11 -0.103498D+01 -0.569133D+01  0.203816D+00  0.105453D+00 -0.703398D-01
     12 -0.389930D+00  0.189061D+00 -0.571170D+01 -0.130593D+00 -0.483704D-01
     13  0.245285D+00  0.121257D+00  0.488161D-01  0.459370D+00  0.731157D-01
     14  0.148652D+00 -0.885776D-01  0.189326D-01 -0.628029D-01 -0.157286D+00
     15 -0.127902D-01  0.644682D-02 -0.151139D+00  0.107490D+00  0.412018D-01
     16  0.955629D-01 -0.221528D+00  0.139749D-01  0.183010D+00 -0.172207D+00
     17 -0.190662D+00  0.156072D+00 -0.409107D-01  0.381539D-02 -0.175075D+00
     18 -0.647560D-04 -0.314129D-01 -0.139020D+00 -0.685827D-01  0.192708D-01
     19  0.654925D-01  0.664630D-02  0.443823D-02  0.297104D+00 -0.884214D-02
     20  0.395911D-01 -0.548130D-01  0.201821D-02 -0.263675D-01 -0.136918D+00
     21  0.363679D-02 -0.589867D-03 -0.571486D-01  0.546841D-01 -0.345769D-02
     22 -0.976102D-01  0.247588D-01  0.926970D-02  0.107475D+00  0.492809D-01
     23  0.801372D-02  0.136027D+00  0.252037D-01  0.739760D-01 -0.192689D-01
     24  0.203760D-01  0.330933D-01  0.131277D+00  0.193652D-01  0.411861D-02
     25 -0.746009D-01  0.315881D-01  0.768304D-01  0.679046D-01  0.235236D-01
     26  0.146963D-01  0.108729D+00 -0.187034D-01  0.371351D-01 -0.361999D-01
     27  0.687069D-01 -0.337256D-01  0.140520D+00 -0.910176D-01 -0.143808D-01
     28 -0.440694D+01 -0.888482D-01 -0.300221D-01  0.787126D-01 -0.931007D-01
     29 -0.167450D+00 -0.273550D+01  0.125946D+01 -0.594797D-01 -0.700043D-01
     30 -0.841284D-01  0.120723D+01 -0.342834D+01  0.698070D-02  0.378391D-01
     31 -0.416971D+01 -0.390082D+00  0.710014D+00  0.118978D+00 -0.729138D-01
     32 -0.467279D+00 -0.389752D+01 -0.969106D+00 -0.502473D-01 -0.535359D-01
     33  0.810910D+00 -0.917969D+00 -0.262859D+01  0.485150D-01  0.117370D+00
     34  0.615550D-01 -0.765283D-01  0.675211D-01 -0.435981D+01 -0.433325D+00
     35 -0.435827D-01 -0.535378D-01  0.249517D-01 -0.475342D+00 -0.396935D+01
     36  0.378560D-01  0.497563D-01  0.111802D+00  0.755735D+00 -0.973916D+00
     37  0.906276D-01 -0.115968D+00 -0.428406D-02 -0.475166D+01 -0.830674D-01
     38 -0.853117D-01 -0.986280D-01  0.401227D-01 -0.857706D-01 -0.310696D+01
     39  0.891567D-02  0.373620D-01  0.165306D+00 -0.171859D-01  0.132377D+01
     40  0.255453D-01  0.560435D-02 -0.181260D-01 -0.954280D-01  0.190448D+00
     41 -0.412864D-01 -0.168981D-01  0.690890D-02  0.176618D+00  0.106869D+00
     42 -0.112778D-01 -0.430560D-02 -0.328758D-01  0.444718D-01 -0.535571D-01
     43  0.530872D-01  0.204787D-01 -0.642767D-01 -0.638466D-01  0.617617D-01
     44  0.257182D-01 -0.335803D-01 -0.211555D-01  0.523932D-01  0.751690D-01
     45 -0.864699D-01 -0.138945D-01  0.218599D-01  0.388317D-01 -0.591031D-01
     46  0.528396D-02  0.662834D-02  0.126802D-01  0.248714D-01  0.285651D-01
     47  0.114674D-01 -0.142726D-01  0.499678D-02  0.162357D-01 -0.265689D-01
     48  0.364263D-01  0.135031D-02  0.496591D-03  0.517077D-01  0.363202D-01
     49  0.218569D-01  0.224459D-01 -0.376489D-03 -0.175972D-01 -0.358793D-02
     50  0.466653D-01  0.644084D-02  0.124289D-02  0.160684D-01  0.932823D-02
[...]
 100,-0.00438967,-0.04799414,-0.26090478,-0.07996739,0.00009303,0.00038
 578,0.00019403,0.00017859,0.00207534,0.00126801,0.00000149,-0.00009677
 ,-0.00000881,0.00036091,0.00066354,0.00000866,-0.00006201,0.00002491,0
 .00007404,0.00023242,0.00008341,-0.00014608,-0.00079704,0.00063790,0.0
 0028002,-0.00003453,0.00000916,0.00006002,0.00028591,0.00016169,0.0003
 0869,-0.00169881,-0.00016620,0.00266430,0.05524241,0.28501204,-0.00103
 208,0.00056926,0.00087689,0.00568048,0.02129735,0.00677793,-0.01789323
 ,-0.07960212,-0.07584964,-0.00002991,0.00017715,-0.00004654,-0.0068101
 6,-0.02911069,-0.01339049,-0.00002950,-0.00000050,0.00002494,-0.000565
 53,-0.00132716,0.00147306,-0.00002724,-0.00008041,-0.00000638,-0.00003
 965,-0.00014798,-0.00004572,-0.00015073,-0.00048547,-0.00003282,0.0000
 9479,-0.00007360,-0.00001404,-0.00076858,-0.00034230,0.00077149,0.0032
 5125,0.00222282,-0.00239770,0.02008323,0.08556398,0.08717350,-0.000388
 01,-0.00365893,0.00292125,-0.01762501,0.01030751,0.00192429,-0.2374445
 6,0.11183927,0.01179656,-0.00088143,0.00109161,-0.00021978,-0.01324228
 ,0.00800695,-0.00060025,-0.00013154,-0.00003138,-0.00006495,0.00101143
 ,-0.00054248,0.00118063,-0.00031341,-0.00019347,0.00034280,0.00000168,
 -0.00006217,-0.00002518,0.00018510,0.00005142,0.00000793,0.00027710,-0
 .00005645,-0.00020196,0.00099345,0.00009116,0.00013756,0.00018494,-0.0
 0022565,-0.00061155,0.00631162,-0.00311717,-0.00018865,0.26010070,-0.0
 0102981,-0.00160713,0.00176404,-0.01597699,0.00810372,0.00194987,0.112
 51186,-0.11528532,-0.00879364,-0.00069991,0.00070621,0.00024415,0.0018
 8101,-0.00149741,0.00054345,-0.00001131,-0.00000550,-0.00005634,0.0002
 6925,0.00008565,-0.00030075,-0.00019418,-0.00012520,0.00020734,0.00007
 174,0.00002332,-0.00008198,-0.00017386,0.00039326,0.00024368,0.0000003
 5,-0.00005768,-0.00007271,0.00054893,0.00058009,-0.00073211,0.00035257
 ,0.00058096,-0.00068080,0.02583789,-0.01546440,-0.00150932,-0.12247130
 ,0.12180569,0.00193398,0.00344504,-0.00280037,0.01940653,-0.01197524,-
 0.00287272,0.01202817,-0.00843851,-0.04648529,0.00118000,-0.00081121,0
 .00032980,-0.02759117,0.01795329,-0.00179448,0.00006064,-0.00002941,0.
 00010669,-0.00149098,0.00021519,0.00188829,0.00033287,0.00020140,-0.00
 035894,0.00002780,0.00007105,-0.00000946,-0.00038108,0.00022491,0.0000
 3212,0.00020603,0.00006100,0.00011698,-0.00027700,-0.00075479,0.000404
 80,-0.00056645,0.00018220,0.00067788,0.00968935,-0.00541865,-0.0013162
 1,-0.01350920,0.00564130,0.05688292,-0.00105315,-0.00017399,0.00016826
 ,-0.00021372,-0.00028727,0.00001877,-0.01112997,0.00766531,-0.00097055
 ,0.00045494,-0.00007133,0.00022378,-0.21849334,0.12373788,0.00258835,-
 0.00013833,-0.00005493,0.00006659,-0.01883511,0.01243784,0.00177100,0.
 00004792,0.00002942,-0.00004887,-0.00002744,-0.00003594,0.00001244,0.0
 0001011,0.00010453,-0.00018877,0.00002706,-0.00045821,0.00204246,0.000
 09803,0.00002979,-0.00008167,0.00003066,-0.00003826,-0.00001889,0.0002
 7572,-0.00028952,0.00019821,-0.00014226,-0.00020327,-0.00247920,0.2413
 7613,0.00088015,0.00029378,0.00058781,0.00072405,-0.00022499,-0.000109
 85,0.00088427,-0.00146198,0.00011840,-0.00046156,-0.00007294,-0.000305
 38,0.12454624,-0.14002046,-0.00363882,0.00016547,0.00008395,-0.0000712
 8,-0.01221693,0.00808361,0.00077965,-0.00002737,-0.00000729,0.00004296
 ,0.00001844,0.00000428,0.00001879,-0.00009919,-0.00020683,-0.00005627,
 -0.00078482,0.00019327,-0.00014041,-0.00021405,0.00009286,0.00009403,0
 .00002731,0.00004461,0.00002781,-0.00041910,0.00073184,0.00047476,-0.0
 0056273,0.00137115,0.00046202,-0.13486453,0.14760031,0.00053830,0.0002
 5142,-0.00025132,-0.00010283,-0.00012785,0.00126238,-0.02688319,0.0192
 8242,-0.00015653,0.00026160,-0.00007117,0.00003962,0.00297571,-0.00417
 854,-0.04621147,-0.00013002,-0.00002947,0.00003914,0.01942918,-0.01311
 987,-0.00204243,0.00000921,0.00001758,-0.00002438,-0.00004865,-0.00006
 079,0.00003557,-0.00002654,-0.00022296,-0.00010286,0.00128020,0.000503
 99,-0.00135141,0.00015997,-0.00025172,0.00012421,0.00006814,0.00002428
 ,-0.00009737,0.00060615,-0.00042868,0.00150732,-0.00247918,0.00069229,
 -0.00584974,-0.00576636,0.00159434,0.05510150,0.00013088,-0.00002759,-
 0.00000100,0.00054431,0.00024932,0.00106558,-0.00422081,-0.01273210,-0
 .00522689,0.00000939,-0.00004520,-0.00002020,-0.06927958,-0.06319129,-
 0.02243394,0.00001974,-0.00000663,-0.00000751,-0.00739199,-0.02133991,
 -0.00621754,0.00001003,0.00000394,-0.00001185,-0.00000058,-0.00001994,
 0.00000828,-0.00007521,0.00001658,-0.00011908,-0.00006464,0.00006461,-
 0.00025959,-0.00010487,0.00014729,0.00019375,0.00036582,0.00029789,-0.
 00011123,-0.00046359,0.00010844,-0.00233882,0.00002003,-0.00030174,0.0
 0050665,0.00818313,0.02416088,0.00839211,0.07353523,0.00012379,0.00010
 267,-0.00024148,0.00023109,0.00088093,0.00039846,0.00030998,0.00180168
 ,0.00051111,-0.00003107,-0.00005125,-0.00000885,-0.06424716,-0.2599739
 9,-0.07238403,0.00001645,0.00002696,-0.00001067,-0.00343560,-0.0110038
 7,-0.00292180,0.00001778,-0.00000140,-0.00001532,0.00001919,0.00005984
 ,-0.00002962,0.00002991,0.00005126,0.00015085,0.00005468,-0.00027326,-
 0.00022325,0.00014874,0.00028714,0.00000554,0.00029670,0.00019384,-0.0
 0056052,-0.00006756,0.00146170,0.00100646,-0.00032944,0.00044995,-0.00
 044916,-0.00518425,-0.01774116,-0.00575269,0.07352824,0.28208909,0.000
 17892,0.00012632,-0.00011113,-0.00047993,-0.00178903,0.00160517,-0.008
 49042,-0.02898287,-0.01328826,0.00007725,-0.00000901,0.00001802,-0.022
 72169,-0.07285934,-0.07058468,-0.00000828,-0.00001986,0.00000919,0.007
 16084,0.02196167,0.00633434,0.00001172,0.00001212,-0.00000831,0.000038
 76,0.00004470,-0.00002921,-0.00016697,0.00014095,0.00018445,0.00011367
 ,-0.00012789,-0.00000990,-0.00005358,0.00032580,0.00048048,0.00044013,
 0.00105776,-0.00015457,-0.00282577,0.00100847,-0.00559596,0.00016355,0
 .00046564,0.00115287,0.00011432,-0.00041806,-0.00084214,0.02442847,0.0
 7808758,0.08198974,0.00056601,0.00042026,0.00112835,0.00003093,-0.0000
 4205,-0.00001343,0.00002703,-0.00003376,0.00000148,-0.00398680,-0.0131
 1237,-0.00453124,0.00002134,-0.00000912,-0.00000044,-0.06478144,-0.061
 14544,-0.02005506,-0.00000997,0.00000039,-0.00000351,-0.00009288,-0.00
 027060,0.00049545,-0.00036953,0.00052613,-0.00259376,0.00037856,0.0002
 9128,-0.00012337,-0.00012601,0.00010363,0.00017093,-0.00005142,0.00007
 245,-0.00020653,-0.00007951,0.00001539,-0.00012339,-0.00000396,-0.0000
 2320,0.00000826,0.00001786,0.00000184,-0.00001934,-0.00000279,-0.00000
 047,0.00000380,-0.00000275,0.00000362,-0.00000095,0.06598068,0.0002877
 6,0.00105592,0.00045025,0.00009845,0.00008315,-0.00019828,-0.00004424,
 -0.00006475,-0.00001304,0.00015123,0.00180193,0.00041582,0.00002232,0.
 00003045,-0.00000444,-0.06143000,-0.26975174,-0.07431256,-0.00000611,-
 0.00000926,-0.00000919,-0.00034054,0.00044257,-0.00050832,-0.00008216,
 0.00156455,0.00094238,0.00030910,0.00012086,-0.00066480,0.00012279,0.0
 0025617,0.00000157,0.00002106,-0.00024878,-0.00020070,0.00002830,0.000
 03430,0.00012918,0.00001634,0.00005767,-0.00002797,0.00002385,-0.00000
 102,-0.00001966,0.00000520,-0.00001091,0.00000855,0.00000422,0.0000041
 8,0.00001453,0.06825775,0.29181701,-0.00031691,-0.00187937,0.00184299,
 0.00021975,0.00014358,-0.00010672,0.00006989,-0.00001135,0.00000760,-0
 .00767557,-0.02950238,-0.01168104,-0.00000801,-0.00002549,0.00000266,-
 0.01983029,-0.07387132,-0.07069340,0.00000211,0.00000680,0.00000222,0.
 00021283,0.00042740,0.00114438,-0.00286617,0.00086513,-0.00569344,0.00
 043581,0.00101682,-0.00015720,-0.00007448,0.00030685,0.00051331,0.0000
 8943,-0.00012051,-0.00001978,-0.00015896,0.00013853,0.00017410,0.00004
 134,0.00004208,-0.00002824,0.00000538,0.00001383,-0.00000299,-0.000008
 52,0.00000224,-0.00001151,0.00000094,0.00001449,0.00001246,0.02515013,
 0.08210654,0.07868967,-0.00007856,-0.00042938,0.00019075,-0.00085278,0
 .00001099,0.00010215,0.00040269,-0.00009849,0.00019821,-0.01092324,0.0
 0694167,-0.00065023,-0.00012671,-0.00003468,0.00004423,-0.22463681,0.1
 2723215,-0.00328791,0.00003633,-0.00001122,0.00003872,0.00026521,-0.00
 042393,-0.00280463,0.00025249,-0.00033738,0.00011315,0.00003349,-0.000
 02358,-0.00001925,0.00005951,0.00003656,-0.00007264,0.00005432,-0.0003
 9391,0.00197400,0.00000919,0.00007768,-0.00012713,-0.00002493,-0.00002
 730,0.00000954,0.00005525,0.00002835,-0.00005485,0.00002202,-0.0000302
 1,0.00001403,-0.00000547,0.00000259,-0.00000742,0.00816194,-0.00549745
 ,0.00053943,0.24472880,0.00077651,-0.00027450,-0.00015360,0.00076148,0
 .00023025,0.00055682,-0.00039775,-0.00007339,-0.00028741,-0.00077257,-
 0.00036416,0.00011130,0.00016756,0.00006996,-0.00003443,0.12712254,-0.
 13901906,0.00246023,-0.00005966,0.00000576,-0.00005787,-0.00040045,0.0
 0129481,-0.00012865,-0.00039910,0.00060316,0.00049536,0.00002670,0.000
 02502,0.00002068,-0.00019935,0.00007632,0.00009257,-0.00065977,0.00027
 341,-0.00015818,-0.00010785,-0.00020282,-0.00010751,0.00001011,-0.0000
 0744,0.00002537,-0.00001651,-0.00000405,0.00003261,-0.00002660,0.00002
 333,-0.00001754,0.00000108,-0.00000881,-0.00000241,0.02497088,-0.01670
 384,0.00042663,-0.13986285,0.14630525,-0.00014266,0.00005354,0.0013224
 8,0.00039884,0.00010556,-0.00022602,0.00030412,-0.00005028,0.00008847,
 -0.02685113,0.01894620,0.00052382,-0.00016786,-0.00003578,0.00001808,-
 0.00230176,0.00149059,-0.04657738,0.00005100,-0.00000414,0.00005674,-0
 .00246820,0.00041041,-0.00597106,0.00060274,-0.00036007,0.00159355,0.0
 0008281,0.00002815,-0.00011189,0.00018836,-0.00023433,0.00013466,0.001
 34152,0.00044589,-0.00136382,-0.00002792,-0.00017451,-0.00009562,-0.00
 004403,-0.00005962,0.00002981,0.00000543,0.00001855,-0.00002257,0.0000
 1510,-0.00002111,0.00000526,-0.00000004,0.00000697,-0.00000832,0.00843
 677,-0.00484696,-0.00099354,0.00424478,-0.00226379,0.05160900,-0.00123
 276,-0.00007215,-0.00268876,-0.00054704,0.00004440,-0.00035444,0.00033
 035,-0.00001094,0.00015781,0.01027241,0.00682404,-0.01067692,-0.000143
 07,-0.00003359,0.00001864,-0.16695137,-0.06836883,0.11708553,0.0000626
 7,-0.00001307,0.00004839,0.00091062,0.00011843,0.00064531,0.00030086,-
 0.00011864,0.00083817,-0.00010308,0.00006202,-0.00000183,0.00039862,0.
 00033624,-0.00067023,0.00050318,-0.00007526,0.00032821,0.00005420,0.00
 002209,0.00007548,-0.00001494,-0.00000710,-0.00000177,0.00002120,0.000
 01568,-0.00002436,0.00002926,-0.00003287,0.00001601,-0.00000062,0.0000
 0313,-0.00000138,-0.00568484,-0.00195742,0.00417458,-0.01742711,-0.010
 95432,0.01635095,0.17923760,0.00065380,0.00039789,0.00059678,0.0003798
 7,0.00014425,0.00001461,-0.00016878,-0.00001712,-0.00009436,-0.0001459
 5,-0.00144010,0.00002766,0.00006934,0.00002409,-0.00002316,-0.06793670
 ,-0.08551692,0.06513268,-0.00001765,0.00000531,-0.00002560,-0.00002394
 ,-0.00009945,0.00021195,0.00041373,0.00017991,0.00009392,0.00020436,0.
 00048055,-0.00025835,-0.00020366,0.00025649,0.00036136,-0.00021574,-0.
 00011150,-0.00023387,-0.00003827,-0.00000385,0.00003911,0.00002122,0.0
 0002686,-0.00001279,-0.00001870,-0.00000435,0.00002070,-0.00001200,0.0
 0001724,-0.00001072,0.00000541,-0.00000233,0.00000379,-0.02003037,-0.0
 1048851,0.01989776,0.01284213,0.00774072,-0.01344588,0.07422193,0.0884
 1044,-0.00447058,-0.00106717,-0.00472975,-0.00072708,0.00036257,0.0001
 2188,0.00004319,-0.00010361,0.00001359,0.02130458,0.01205437,-0.018846
 02,0.00001850,0.00011036,-0.00002315,0.11579965,0.06486777,-0.15788438
 ,0.00001379,-0.00005670,0.00000744,-0.00007513,0.00035934,0.00141148,0
 .00033225,-0.00070649,0.00073255,-0.00012279,0.00002941,0.00022426,0.0
 0112830,0.00083871,-0.00134110,0.00005480,-0.00005602,0.00017026,0.000
 04853,-0.00006069,-0.00002716,-0.00001934,0.00002793,-0.00000360,0.000
 08407,0.00000789,-0.00005250,0.00005738,-0.00007620,0.00005898,-0.0000
 0732,-0.00001049,0.00000599,-0.00771769,-0.00325419,0.00699324,-0.0004
 4964,-0.00099401,-0.00003198,-0.12533173,-0.07229748,0.17323795,-0.000
 01345,-0.00003385,-0.00005007,-0.00008714,0.00016982,0.00002097,0.0004
 7732,0.00044722,-0.00118036,0.00000401,0.00002094,0.00000941,-0.007648
 07,-0.02205547,-0.00677813,-0.00000463,-0.00000719,0.00000363,-0.06907
 330,-0.06861838,-0.02369248,-0.00001189,-0.00000129,0.00000775,0.00001
 066,0.00001562,-0.00001044,0.00000248,0.00003668,0.00005966,0.00002992
 ,-0.00005492,-0.00001686,0.00001235,0.00005780,0.00004581,0.00005479,0
 .00015617,-0.00010608,0.00041992,0.00026351,0.00052968,-0.00000031,0.0
 0010503,0.00016832,0.00044632,0.00031772,-0.00088315,-0.00252198,-0.00
 157171,0.00357828,0.00000377,0.00000301,0.00000354,-0.00000144,0.00000
 475,-0.00000389,-0.00000284,-0.00000105,0.00000498,0.07376201,-0.00004
 975,-0.00002102,-0.00006946,0.00007951,0.00034184,0.00026160,0.0003808
 0,0.00036585,-0.00098666,0.00003611,0.00000835,0.00001650,-0.00388818,
 -0.01173126,-0.00319981,-0.00001555,-0.00001583,0.00000714,-0.06901224
 ,-0.26654881,-0.07309242,-0.00000418,-0.00000003,0.00000039,0.00000641
 ,0.00000969,-0.00000557,-0.00000557,0.00003004,0.00004008,0.00007333,-
 0.00003127,0.00000534,-0.00002977,-0.00000636,0.00009671,0.00011809,0.
 00015997,-0.00018571,0.00011909,0.00011323,0.00090419,-0.00001328,-0.0
 0016953,0.00006265,-0.00007213,0.00076628,0.00017962,-0.00183216,0.000
 76616,0.00193159,0.00000170,0.00000792,0.00000369,-0.00000030,0.000000
 22,-0.00000241,-0.00000059,-0.00000066,0.00001063,0.07859842,0.2892785
 6,0.00001613,-0.00005861,0.00006804,0.00009489,0.00011303,-0.00006434,
 0.00018342,0.00090980,0.00194010,-0.00002393,0.00001812,-0.00001363,0.
 00621730,0.02129697,0.00608436,-0.00000191,-0.00000320,0.00000087,-0.0
 2399133,-0.07371891,-0.07150594,-0.00001458,-0.00000201,0.00001212,-0.
 00000216,-0.00000993,0.00000551,0.00001453,-0.00001632,-0.00002423,-0.
 00003629,0.00002696,0.00000998,-0.00003072,-0.00008128,-0.00001641,-0.
 00009095,-0.00019701,-0.00007125,0.00002656,-0.00054043,-0.00019898,-0
 .00017391,-0.00002943,-0.00000827,-0.00077109,-0.00063860,0.00078734,0
 .00317102,0.00204037,-0.00265782,0.00000224,-0.00000018,-0.00000326,-0
 .00000143,0.00000555,-0.00000557,-0.00000531,-0.00000066,0.00000352,0.
 02305682,0.07905107,0.07548581,-0.00018386,0.00004596,-0.00025090,0.00
 022507,-0.00030276,-0.00000565,0.00064703,0.00035700,-0.00155327,0.000
 16433,-0.00000328,0.00005171,-0.01973497,0.01330579,0.00181434,-0.0000
 5465,-0.00003247,0.00002631,-0.21869189,0.12647956,0.01081088,0.000008
 62,0.00000995,-0.00001256,-0.00000971,-0.00001383,0.00000330,0.0000101
 2,0.00000183,0.00000119,0.00018518,0.00001186,0.00013653,-0.00000318,-
 0.00003591,0.00005137,-0.00005980,-0.00002806,-0.00000667,0.00001789,-
 0.00007306,0.00002001,0.00073002,-0.00021191,0.00075795,-0.00188857,-0
 .00266084,0.00317556,0.00051944,-0.00017256,-0.00065890,0.00000261,0.0
 0000352,-0.00000520,0.00000835,-0.00000101,0.00000008,0.00000125,-0.00
 000556,0.00003054,0.00874224,-0.00585947,-0.00026658,0.23960041,-0.000
 16305,-0.00010049,0.00008451,-0.00022074,0.00014269,-0.00022111,-0.000
 43442,0.00037319,-0.00060581,0.00003708,0.00002906,0.00004249,-0.01182
 328,0.00840120,0.00124314,-0.00001781,-0.00000863,0.00000813,0.1272334
 7,-0.14038763,-0.00897479,-0.00000289,-0.00000166,0.,-0.00000225,-0.00
 000221,-0.00000232,0.00001182,0.00001260,-0.00000105,0.00007077,-0.000
 00611,0.00004750,0.00004944,-0.00000051,-0.00006592,-0.00001007,-0.000
 03377,-0.00000128,0.00012506,-0.00005115,0.00004323,0.00027107,0.00005
 766,-0.00036235,-0.00225546,0.00006906,0.00233396,0.00029823,0.0008560
 3,-0.00075485,0.00000027,-0.00000065,0.00000053,0.00000228,-0.00000148
 ,0.00000379,0.00000674,-0.00000124,0.00000625,0.02421004,-0.01694517,-
 0.00049847,-0.13788788,0.14943214,0.00018126,-0.00003640,0.00004376,-0
 .00007794,0.00024340,0.00010024,0.00120219,-0.00142609,0.00149906,-0.0
 0014108,0.00001511,-0.00006052,0.01759233,-0.01326662,-0.00243700,0.00
 004356,0.00001429,-0.00002069,0.01017843,-0.00838488,-0.04807529,-0.00
 001821,-0.00000892,0.00001941,0.00000875,0.00000581,-0.00000153,-0.000
 00808,-0.00000471,0.00001060,-0.00018243,0.00001728,-0.00009195,-0.000
 02262,0.00001540,-0.00000631,0.00000375,-0.00001766,0.00000507,-0.0000
 3282,0.00000602,-0.00004526,-0.00053683,0.00049202,-0.00029208,0.00294
 700,0.00191725,-0.00248290,-0.00090424,0.00003328,0.00075815,0.0000006
 4,-0.00000225,0.00000092,-0.00000570,0.00000910,-0.00000612,-0.0000105
 4,0.00000356,-0.00001711,0.00866168,-0.00579914,-0.00150264,-0.0150539
 0,0.00767619,0.04982185,0.00019375,-0.00001026,-0.00005926,0.00091917,
 -0.00016296,0.00130804,-0.00358855,-0.00178018,0.00191317,-0.00001218,
 0.00000189,-0.00001220,0.01023935,-0.00114526,0.02269900,0.00000374,-0
 .00001756,0.00000970,-0.09044290,0.00901935,-0.09957707,-0.00001468,0.
 00000229,0.00000851,0.00000638,-0.00000252,0.00000099,-0.00000884,0.00
 001440,0.00000513,-0.00004815,0.00001622,-0.00004367,-0.00028103,-0.00
 022651,0.00033475,0.00001942,-0.00000604,-0.00005315,-0.00012570,0.000
 13274,0.00000040,0.00025843,-0.00035021,0.00009534,0.00092339,0.000650
 11,-0.00061006,0.00079411,0.00025346,-0.00089061,0.00000116,0.00000304
 ,-0.00000104,-0.00001254,0.00001617,-0.00001501,-0.00001455,0.00000658
 ,0.00000074,-0.00460074,0.00136968,-0.00737271,-0.01023594,0.00050158,
 -0.02382520,0.09602692,0.00002650,-0.00012085,0.00007128,0.00030642,0.
 00058198,0.00077355,-0.00221554,-0.00083600,0.00108169,-0.00003273,0.0
 0004635,-0.00000806,0.00629852,-0.00203993,0.01156302,-0.00000563,-0.0
 0001850,0.00000360,0.00871759,-0.04908528,0.01908601,-0.00002246,-0.00
 000505,0.00001736,0.00000352,-0.00000952,0.00000073,-0.00000662,0.0000
 0773,0.00000540,-0.00000996,0.00001712,-0.00001953,-0.00014278,-0.0001
 1886,0.00019078,0.00005444,0.00001368,-0.00009954,0.00007136,0.0002943
 0,0.00043573,-0.00038316,0.00006393,-0.00031437,0.00001770,0.00037099,
 -0.00061643,0.00061041,0.00002461,-0.00021759,0.00000180,0.00000277,-0
 .00000246,-0.00000371,0.00001135,-0.00001079,-0.00000993,0.00000231,0.
 00000780,-0.01206290,0.00362183,-0.02766683,0.00707315,-0.00183293,0.0
 1849794,-0.00828600,0.04900798,-0.00016602,0.00018496,-0.00007994,-0.0
 0110726,-0.00027266,-0.00087946,0.00466687,0.00228244,-0.00130713,0.00
 004285,-0.00008920,0.00004088,-0.00919887,0.00053103,-0.01761836,0.000
 01517,0.00003981,-0.00001283,-0.09838725,0.01947188,-0.27170245,0.0000
 6289,0.00000277,-0.00005019,-0.00001446,0.00001764,-0.00000306,0.00000
 122,-0.00002642,-0.00000685,0.00003252,-0.00001319,0.00005214,0.000283
 40,0.00022568,-0.00036326,0.00004635,0.00008439,0.00001083,0.00005815,
 -0.00007156,0.00033666,0.00004199,-0.00002696,0.00027329,0.00011029,-0
 .00064410,0.00046274,-0.00010755,0.00035276,0.00073942,-0.00000935,-0.
 00000630,0.00000756,0.00001186,-0.00003081,0.00003202,0.00002819,-0.00
 000101,-0.00002440,-0.00342907,0.00076997,-0.00832530,0.00093386,-0.00
 000180,0.00278031,0.10608424,-0.02277931,0.29563738\\-0.00000003,0.000
 00007,0.00000007,-0.00000018,-0.00000019,0.00000003,0.00000009,-0.0000
 0016,0.,-0.00000020,0.00000015,-0.00000019,0.00000020,0.00000014,-0.00
 000003,-0.00000024,-0.00000018,-0.00000009,0.00000034,0.00000005,0.000
 00018,-0.00000004,0.00000042,-0.00000014,-0.00000039,0.00000031,-0.000
 00033,0.00000025,0.00000006,0.00000014,0.00000008,0.00000038,-0.000000
 08,-0.00000018,-0.00000037,-0.00000006,-0.00000037,-0.00000002,-0.0000
 0021,0.00000025,-0.00000027,0.00000022,-0.00000004,-0.00000038,0.00000
 005,0.00000025,0.00000035,0.00000015,-0.00000008,0.00000024,-0.0000000
 7,-0.00000006,-0.00000025,0.00000005,-0.00000037,-0.00000034,-0.000000
 19,-0.00000035,-0.00000009,-0.00000021,0.00000052,-0.00000007,0.000000
 34,0.00000018,-0.00000013,0.00000014,0.00000037,0.00000028,0.00000019\
 \\@


 IMAGINATION WILL OFTEN CARRY US TO WORLDS THAT NEVER WERE.
 BUT WITHOUT IT, WE GO NOWHERE. -- CARL SAGAN (COSMOS)
 Job cpu time:       0 days  6 hours 50 minutes 23.6 seconds.
 Elapsed time:       0 days  3 hours 25 minutes 40.1 seconds.
 File lengths (MBytes):  RWF=   1488 Int=      0 D2E=      0 Chk=     32 Scr=     32
 Normal termination of Gaussian 16 at Sat Sep 28 18:32:44 2019.
