 Entering Gaussian System, Link 0=g16
 Input=med/species/CCCCCCC/conformers/CCCCCCC_995.com
 Output=med/species/CCCCCCC/conformers/CCCCCCC_995.log
 Initial command:
 /shared/centos7/gaussian/g16/l1.exe "/scratch/harms.n/gauss_scrdir/Gau-9519.inp" -scrdir="/scratch/harms.n/gauss_scrdir/"
 Entering Link 1 = /shared/centos7/gaussian/g16/l1.exe PID=      9579.
  
 Copyright (c) 1988,1990,1992,1993,1995,1998,2003,2009,2016,
            Gaussian, Inc.  All Rights Reserved.
  
 This is part of the Gaussian(R) 16 program.  It is based on
 the Gaussian(R) 09 system (copyright 2009, Gaussian, Inc.),
 the Gaussian(R) 03 system (copyright 2003, Gaussian, Inc.),
 the Gaussian(R) 98 system (copyright 1998, Gaussian, Inc.),
 the Gaussian(R) 94 system (copyright 1995, Gaussian, Inc.),
 the Gaussian 92(TM) system (copyright 1992, Gaussian, Inc.),
 the Gaussian 90(TM) system (copyright 1990, Gaussian, Inc.),
 the Gaussian 88(TM) system (copyright 1988, Gaussian, Inc.),
 the Gaussian 86(TM) system (copyright 1986, Carnegie Mellon
 University), and the Gaussian 82(TM) system (copyright 1983,
 Carnegie Mellon University). Gaussian is a federally registered
 trademark of Gaussian, Inc.
  
 This software contains proprietary and confidential information,
 including trade secrets, belonging to Gaussian, Inc.
  
 This software is provided under written license and may be
 used, copied, transmitted, or stored only in accord with that
 written license.
  
 The following legend is applicable only to US Government
 contracts under FAR:
  
                    RESTRICTED RIGHTS LEGEND
  
 Use, reproduction and disclosure by the US Government is
 subject to restrictions as set forth in subparagraphs (a)
 and (c) of the Commercial Computer Software - Restricted
 Rights clause in FAR 52.227-19.
  
 Gaussian, Inc.
 340 Quinnipiac St., Bldg. 40, Wallingford CT 06492
  
  
 ---------------------------------------------------------------
 Warning -- This program may not be used in any manner that
 competes with the business of Gaussian, Inc. or will provide
 assistance to any competitor of Gaussian, Inc.  The licensee
 of this program is prohibited from giving any competitor of
 Gaussian, Inc. access to this program.  By using this program,
 the user acknowledges that Gaussian, Inc. is engaged in the
 business of creating and licensing software in the field of
 computational chemistry and represents and warrants to the
 licensee that it is not a competitor of Gaussian, Inc. and that
 it will not use this program in any manner prohibited above.
 ---------------------------------------------------------------
  

 Cite this work as:
 Gaussian 16, Revision A.03,
 M. J. Frisch, G. W. Trucks, H. B. Schlegel, G. E. Scuseria, 
 M. A. Robb, J. R. Cheeseman, G. Scalmani, V. Barone, 
 G. A. Petersson, H. Nakatsuji, X. Li, M. Caricato, A. V. Marenich, 
 J. Bloino, B. G. Janesko, R. Gomperts, B. Mennucci, H. P. Hratchian, 
 J. V. Ortiz, A. F. Izmaylov, J. L. Sonnenberg, D. Williams-Young, 
 F. Ding, F. Lipparini, F. Egidi, J. Goings, B. Peng, A. Petrone, 
 T. Henderson, D. Ranasinghe, V. G. Zakrzewski, J. Gao, N. Rega, 
 G. Zheng, W. Liang, M. Hada, M. Ehara, K. Toyota, R. Fukuda, 
 J. Hasegawa, M. Ishida, T. Nakajima, Y. Honda, O. Kitao, H. Nakai, 
 T. Vreven, K. Throssell, J. A. Montgomery, Jr., J. E. Peralta, 
 F. Ogliaro, M. J. Bearpark, J. J. Heyd, E. N. Brothers, K. N. Kudin, 
 V. N. Staroverov, T. A. Keith, R. Kobayashi, J. Normand, 
 K. Raghavachari, A. P. Rendell, J. C. Burant, S. S. Iyengar, 
 J. Tomasi, M. Cossi, J. M. Millam, M. Klene, C. Adamo, R. Cammi, 
 J. W. Ochterski, R. L. Martin, K. Morokuma, O. Farkas, 
 J. B. Foresman, and D. J. Fox, Gaussian, Inc., Wallingford CT, 2016.
 
 ******************************************
 Gaussian 16:  EM64L-G16RevA.03 25-Dec-2016
                28-Sep-2019 
 ******************************************
 %nprocshared=20
 Will use up to   20 processors via shared memory.
 %mem=5GB
 ----------------------------------------------------------------------
 #p m062x/cc-pVTZ opt=(calcfc,maxcycles=900,Tight) freq IOP(7/33=1,2/16
 =3) scf=(maxcycle=900)
 ----------------------------------------------------------------------
 1/6=900,7=10,10=4,18=20,19=15,26=3,38=1/1,3;
 2/9=110,12=2,16=3,17=6,18=5,40=1/2;
 3/5=16,6=1,11=2,25=1,30=1,71=2,74=-55,140=1/1,2,3;
 4//1;
 5/5=2,7=900,38=5/2;
 8/6=4,10=90,11=11/1;
 11/6=1,8=1,9=11,15=111,16=1/1,2,10;
 10/6=1,13=1/2;
 6/7=2,8=2,9=2,10=2,28=1/1;
 7/10=1,18=20,25=1,33=1/1,2,3,16;
 1/6=900,7=10,10=4,18=20,19=15,26=3/3(2);
 2/9=110,16=3/2;
 99//99;
 2/9=110,16=3/2;
 3/5=16,6=1,11=2,25=1,30=1,71=1,74=-55/1,2,3;
 4/5=5,16=3,69=1/1;
 5/5=2,7=900,38=5/2;
 7/33=1/1,2,3,16;
 1/6=900,7=10,18=20,19=15,26=3/3(-5);
 2/9=110,16=3/2;
 6/7=2,8=2,9=2,10=2,19=2,28=1/1;
 99/9=1/99;
 Leave Link    1 at Sat Sep 28 02:44:17 2019, MaxMem=   671088640 cpu:               4.1 elap:               2.1
 (Enter /shared/centos7/gaussian/g16/l101.exe)
 ------------------------------
 Gaussian input prepared by ASE
 ------------------------------
 Symbolic Z-matrix:
 Charge =  0 Multiplicity = 1
 C                     1.40535  -1.16186   0.53562 
 C                     0.15651  -0.46721   0.95965 
 C                    -1.11625  -1.21818   0.65782 
 C                     2.13415  -0.50008  -0.58507 
 C                    -2.065    -0.46038  -0.24069 
 C                     3.52278  -0.11272  -0.28303 
 C                    -2.49474   0.86568   0.33099 
 H                     1.56106   0.40669  -0.92927 
 H                     2.13513  -1.18131  -1.46919 
 H                     1.15216  -2.20128   0.23716 
 H                     2.08159  -1.26513   1.40893 
 H                     0.11451   0.52594   0.48574 
 H                     0.19955  -0.26014   2.04984 
 H                    -1.62925  -1.45536   1.60529 
 H                    -0.87834  -2.18891   0.17591 
 H                    -1.56396  -0.29513  -1.23022 
 H                    -2.94777  -1.08965  -0.4456 
 H                     3.79935  -0.33171   0.76551 
 H                     4.26073  -0.66535  -0.93691 
 H                     3.69102   0.97259  -0.44821 
 H                    -1.68451   1.31508   0.90644 
 H                    -3.38876   0.75273   1.00467 
 H                    -2.78225   1.58914  -0.48498 
 
 ITRead=  0  0  0  0  0  0  0  0  0  0  0  0  0  0  0  0  0  0  0  0
 ITRead=  0  0  0
 MicOpt= -1 -1 -1 -1 -1 -1 -1 -1 -1 -1 -1 -1 -1 -1 -1 -1 -1 -1 -1 -1
 MicOpt= -1 -1 -1
 NAtoms=     23 NQM=       23 NQMF=       0 NMMI=      0 NMMIF=      0
                NMic=       0 NMicF=      0.
                    Isotopes and Nuclear Properties:
 (Nuclear quadrupole moments (NQMom) in fm**2, nuclear magnetic moments (NMagM)
  in nuclear magnetons)

  Atom         1           2           3           4           5           6           7           8           9          10
 IAtWgt=          12          12          12          12          12          12          12           1           1           1
 AtmWgt=  12.0000000  12.0000000  12.0000000  12.0000000  12.0000000  12.0000000  12.0000000   1.0078250   1.0078250   1.0078250
 NucSpn=           0           0           0           0           0           0           0           1           1           1
 AtZEff=  -0.0000000  -0.0000000  -0.0000000  -0.0000000  -0.0000000  -0.0000000  -0.0000000  -0.0000000  -0.0000000  -0.0000000
 NQMom=    0.0000000   0.0000000   0.0000000   0.0000000   0.0000000   0.0000000   0.0000000   0.0000000   0.0000000   0.0000000
 NMagM=    0.0000000   0.0000000   0.0000000   0.0000000   0.0000000   0.0000000   0.0000000   2.7928460   2.7928460   2.7928460
 AtZNuc=   6.0000000   6.0000000   6.0000000   6.0000000   6.0000000   6.0000000   6.0000000   1.0000000   1.0000000   1.0000000

  Atom        11          12          13          14          15          16          17          18          19          20
 IAtWgt=           1           1           1           1           1           1           1           1           1           1
 AtmWgt=   1.0078250   1.0078250   1.0078250   1.0078250   1.0078250   1.0078250   1.0078250   1.0078250   1.0078250   1.0078250
 NucSpn=           1           1           1           1           1           1           1           1           1           1
 AtZEff=  -0.0000000  -0.0000000  -0.0000000  -0.0000000  -0.0000000  -0.0000000  -0.0000000  -0.0000000  -0.0000000  -0.0000000
 NQMom=    0.0000000   0.0000000   0.0000000   0.0000000   0.0000000   0.0000000   0.0000000   0.0000000   0.0000000   0.0000000
 NMagM=    2.7928460   2.7928460   2.7928460   2.7928460   2.7928460   2.7928460   2.7928460   2.7928460   2.7928460   2.7928460
 AtZNuc=   1.0000000   1.0000000   1.0000000   1.0000000   1.0000000   1.0000000   1.0000000   1.0000000   1.0000000   1.0000000

  Atom        21          22          23
 IAtWgt=           1           1           1
 AtmWgt=   1.0078250   1.0078250   1.0078250
 NucSpn=           1           1           1
 AtZEff=  -0.0000000  -0.0000000  -0.0000000
 NQMom=    0.0000000   0.0000000   0.0000000
 NMagM=    2.7928460   2.7928460   2.7928460
 AtZNuc=   1.0000000   1.0000000   1.0000000
 Leave Link  101 at Sat Sep 28 02:44:21 2019, MaxMem=   671088640 cpu:               6.3 elap:               3.1
 (Enter /shared/centos7/gaussian/g16/l103.exe)

 GradGradGradGradGradGradGradGradGradGradGradGradGradGradGradGradGradGrad
 Berny optimization.
 Initialization pass.
                           ----------------------------
                           !    Initial Parameters    !
                           ! (Angstroms and Degrees)  !
 --------------------------                            --------------------------
 ! Name  Definition              Value          Derivative Info.                !
 --------------------------------------------------------------------------------
 ! R1    R(1,2)                  1.4906         calculate D2E/DX2 analytically  !
 ! R2    R(1,4)                  1.4917         calculate D2E/DX2 analytically  !
 ! R3    R(1,10)                 1.1107         calculate D2E/DX2 analytically  !
 ! R4    R(1,11)                 1.1093         calculate D2E/DX2 analytically  !
 ! R5    R(2,3)                  1.5083         calculate D2E/DX2 analytically  !
 ! R6    R(2,12)                 1.1012         calculate D2E/DX2 analytically  !
 ! R7    R(2,13)                 1.1105         calculate D2E/DX2 analytically  !
 ! R8    R(3,5)                  1.5105         calculate D2E/DX2 analytically  !
 ! R9    R(3,14)                 1.1032         calculate D2E/DX2 analytically  !
 ! R10   R(3,15)                 1.1096         calculate D2E/DX2 analytically  !
 ! R11   R(4,6)                  1.473          calculate D2E/DX2 analytically  !
 ! R12   R(4,8)                  1.1266         calculate D2E/DX2 analytically  !
 ! R13   R(4,9)                  1.1161         calculate D2E/DX2 analytically  !
 ! R14   R(5,7)                  1.5066         calculate D2E/DX2 analytically  !
 ! R15   R(5,16)                 1.1214         calculate D2E/DX2 analytically  !
 ! R16   R(5,17)                 1.1033         calculate D2E/DX2 analytically  !
 ! R17   R(6,18)                 1.1063         calculate D2E/DX2 analytically  !
 ! R18   R(6,19)                 1.1303         calculate D2E/DX2 analytically  !
 ! R19   R(6,20)                 1.1106         calculate D2E/DX2 analytically  !
 ! R20   R(7,21)                 1.0907         calculate D2E/DX2 analytically  !
 ! R21   R(7,22)                 1.1251         calculate D2E/DX2 analytically  !
 ! R22   R(7,23)                 1.1278         calculate D2E/DX2 analytically  !
 ! A1    A(2,1,4)              114.6015         calculate D2E/DX2 analytically  !
 ! A2    A(2,1,10)             108.7581         calculate D2E/DX2 analytically  !
 ! A3    A(2,1,11)             109.2778         calculate D2E/DX2 analytically  !
 ! A4    A(4,1,10)             108.9467         calculate D2E/DX2 analytically  !
 ! A5    A(4,1,11)             109.5681         calculate D2E/DX2 analytically  !
 ! A6    A(10,1,11)            105.271          calculate D2E/DX2 analytically  !
 ! A7    A(1,2,3)              114.7092         calculate D2E/DX2 analytically  !
 ! A8    A(1,2,12)             109.2571         calculate D2E/DX2 analytically  !
 ! A9    A(1,2,13)             109.4923         calculate D2E/DX2 analytically  !
 ! A10   A(3,2,12)             109.3133         calculate D2E/DX2 analytically  !
 ! A11   A(3,2,13)             108.7832         calculate D2E/DX2 analytically  !
 ! A12   A(12,2,13)            104.8209         calculate D2E/DX2 analytically  !
 ! A13   A(2,3,5)              113.5312         calculate D2E/DX2 analytically  !
 ! A14   A(2,3,14)             109.1206         calculate D2E/DX2 analytically  !
 ! A15   A(2,3,15)             109.9724         calculate D2E/DX2 analytically  !
 ! A16   A(5,3,14)             109.065          calculate D2E/DX2 analytically  !
 ! A17   A(5,3,15)             108.3749         calculate D2E/DX2 analytically  !
 ! A18   A(14,3,15)            106.5366         calculate D2E/DX2 analytically  !
 ! A19   A(1,4,6)              115.0383         calculate D2E/DX2 analytically  !
 ! A20   A(1,4,8)              109.7614         calculate D2E/DX2 analytically  !
 ! A21   A(1,4,9)              108.952          calculate D2E/DX2 analytically  !
 ! A22   A(6,4,8)              109.303          calculate D2E/DX2 analytically  !
 ! A23   A(6,4,9)              108.7908         calculate D2E/DX2 analytically  !
 ! A24   A(8,4,9)              104.4599         calculate D2E/DX2 analytically  !
 ! A25   A(3,5,7)              113.2663         calculate D2E/DX2 analytically  !
 ! A26   A(3,5,16)             108.5532         calculate D2E/DX2 analytically  !
 ! A27   A(3,5,17)             109.0797         calculate D2E/DX2 analytically  !
 ! A28   A(7,5,16)             109.4249         calculate D2E/DX2 analytically  !
 ! A29   A(7,5,17)             110.136          calculate D2E/DX2 analytically  !
 ! A30   A(16,5,17)            106.1202         calculate D2E/DX2 analytically  !
 ! A31   A(4,6,18)             112.2088         calculate D2E/DX2 analytically  !
 ! A32   A(4,6,19)             111.6116         calculate D2E/DX2 analytically  !
 ! A33   A(4,6,20)             111.6722         calculate D2E/DX2 analytically  !
 ! A34   A(18,6,19)            106.7571         calculate D2E/DX2 analytically  !
 ! A35   A(18,6,20)            107.2489         calculate D2E/DX2 analytically  !
 ! A36   A(19,6,20)            107.0286         calculate D2E/DX2 analytically  !
 ! A37   A(5,7,21)             110.5461         calculate D2E/DX2 analytically  !
 ! A38   A(5,7,22)             111.4382         calculate D2E/DX2 analytically  !
 ! A39   A(5,7,23)             111.2717         calculate D2E/DX2 analytically  !
 ! A40   A(21,7,22)            108.4052         calculate D2E/DX2 analytically  !
 ! A41   A(21,7,23)            107.8661         calculate D2E/DX2 analytically  !
 ! A42   A(22,7,23)            107.1607         calculate D2E/DX2 analytically  !
 ! D1    D(4,1,2,3)            111.9546         calculate D2E/DX2 analytically  !
 ! D2    D(4,1,2,12)           -11.1655         calculate D2E/DX2 analytically  !
 ! D3    D(4,1,2,13)          -125.439          calculate D2E/DX2 analytically  !
 ! D4    D(10,1,2,3)           -10.2288         calculate D2E/DX2 analytically  !
 ! D5    D(10,1,2,12)         -133.349          calculate D2E/DX2 analytically  !
 ! D6    D(10,1,2,13)          112.3776         calculate D2E/DX2 analytically  !
 ! D7    D(11,1,2,3)          -124.6515         calculate D2E/DX2 analytically  !
 ! D8    D(11,1,2,12)          112.2283         calculate D2E/DX2 analytically  !
 ! D9    D(11,1,2,13)           -2.0452         calculate D2E/DX2 analytically  !
 ! D10   D(2,1,4,6)            121.6914         calculate D2E/DX2 analytically  !
 ! D11   D(2,1,4,8)             -2.0537         calculate D2E/DX2 analytically  !
 ! D12   D(2,1,4,9)           -115.8761         calculate D2E/DX2 analytically  !
 ! D13   D(10,1,4,6)          -116.2277         calculate D2E/DX2 analytically  !
 ! D14   D(10,1,4,8)           120.0272         calculate D2E/DX2 analytically  !
 ! D15   D(10,1,4,9)             6.2048         calculate D2E/DX2 analytically  !
 ! D16   D(11,1,4,6)            -1.5467         calculate D2E/DX2 analytically  !
 ! D17   D(11,1,4,8)          -125.2918         calculate D2E/DX2 analytically  !
 ! D18   D(11,1,4,9)           120.8859         calculate D2E/DX2 analytically  !
 ! D19   D(1,2,3,5)           -120.594          calculate D2E/DX2 analytically  !
 ! D20   D(1,2,3,14)           117.5332         calculate D2E/DX2 analytically  !
 ! D21   D(1,2,3,15)             1.0126         calculate D2E/DX2 analytically  !
 ! D22   D(12,2,3,5)             2.496          calculate D2E/DX2 analytically  !
 ! D23   D(12,2,3,14)         -119.3768         calculate D2E/DX2 analytically  !
 ! D24   D(12,2,3,15)          124.1027         calculate D2E/DX2 analytically  !
 ! D25   D(13,2,3,5)           116.4178         calculate D2E/DX2 analytically  !
 ! D26   D(13,2,3,14)           -5.455          calculate D2E/DX2 analytically  !
 ! D27   D(13,2,3,15)         -121.9756         calculate D2E/DX2 analytically  !
 ! D28   D(2,3,5,7)            -59.2096         calculate D2E/DX2 analytically  !
 ! D29   D(2,3,5,16)            62.5373         calculate D2E/DX2 analytically  !
 ! D30   D(2,3,5,17)           177.7504         calculate D2E/DX2 analytically  !
 ! D31   D(14,3,5,7)            62.6942         calculate D2E/DX2 analytically  !
 ! D32   D(14,3,5,16)         -175.5589         calculate D2E/DX2 analytically  !
 ! D33   D(14,3,5,17)          -60.3458         calculate D2E/DX2 analytically  !
 ! D34   D(15,3,5,7)           178.2965         calculate D2E/DX2 analytically  !
 ! D35   D(15,3,5,16)          -59.9566         calculate D2E/DX2 analytically  !
 ! D36   D(15,3,5,17)           55.2565         calculate D2E/DX2 analytically  !
 ! D37   D(1,4,6,18)            -2.9025         calculate D2E/DX2 analytically  !
 ! D38   D(1,4,6,19)           116.8799         calculate D2E/DX2 analytically  !
 ! D39   D(1,4,6,20)          -123.3593         calculate D2E/DX2 analytically  !
 ! D40   D(8,4,6,18)           121.0849         calculate D2E/DX2 analytically  !
 ! D41   D(8,4,6,19)          -119.1327         calculate D2E/DX2 analytically  !
 ! D42   D(8,4,6,20)             0.6281         calculate D2E/DX2 analytically  !
 ! D43   D(9,4,6,18)          -125.4216         calculate D2E/DX2 analytically  !
 ! D44   D(9,4,6,19)            -5.6392         calculate D2E/DX2 analytically  !
 ! D45   D(9,4,6,20)           114.1216         calculate D2E/DX2 analytically  !
 ! D46   D(3,5,7,21)            34.0993         calculate D2E/DX2 analytically  !
 ! D47   D(3,5,7,22)           -86.5259         calculate D2E/DX2 analytically  !
 ! D48   D(3,5,7,23)           153.9343         calculate D2E/DX2 analytically  !
 ! D49   D(16,5,7,21)          -87.1581         calculate D2E/DX2 analytically  !
 ! D50   D(16,5,7,22)          152.2168         calculate D2E/DX2 analytically  !
 ! D51   D(16,5,7,23)           32.6769         calculate D2E/DX2 analytically  !
 ! D52   D(17,5,7,21)          156.5542         calculate D2E/DX2 analytically  !
 ! D53   D(17,5,7,22)           35.9291         calculate D2E/DX2 analytically  !
 ! D54   D(17,5,7,23)          -83.6108         calculate D2E/DX2 analytically  !
 --------------------------------------------------------------------------------
 Trust Radius=3.00D-01 FncErr=1.00D-07 GrdErr=1.00D-06 EigMax=2.50D+02 EigMin=1.00D-04
 Number of steps in this run=    138 maximum allowed number of steps=    138.
 GradGradGradGradGradGradGradGradGradGradGradGradGradGradGradGradGradGrad

 Leave Link  103 at Sat Sep 28 02:44:21 2019, MaxMem=   671088640 cpu:               1.2 elap:               0.6
 (Enter /shared/centos7/gaussian/g16/l202.exe)
                          Input orientation:                          
 ---------------------------------------------------------------------
 Center     Atomic      Atomic             Coordinates (Angstroms)
 Number     Number       Type             X           Y           Z
 ---------------------------------------------------------------------
      1          6           0        1.405353   -1.161859    0.535615
      2          6           0        0.156507   -0.467206    0.959648
      3          6           0       -1.116251   -1.218184    0.657821
      4          6           0        2.134145   -0.500080   -0.585071
      5          6           0       -2.064997   -0.460378   -0.240685
      6          6           0        3.522782   -0.112724   -0.283030
      7          6           0       -2.494745    0.865678    0.330995
      8          1           0        1.561059    0.406692   -0.929269
      9          1           0        2.135127   -1.181314   -1.469194
     10          1           0        1.152159   -2.201279    0.237161
     11          1           0        2.081589   -1.265132    1.408933
     12          1           0        0.114512    0.525936    0.485737
     13          1           0        0.199549   -0.260144    2.049844
     14          1           0       -1.629250   -1.455356    1.605294
     15          1           0       -0.878336   -2.188908    0.175912
     16          1           0       -1.563962   -0.295130   -1.230219
     17          1           0       -2.947768   -1.089653   -0.445597
     18          1           0        3.799348   -0.331707    0.765511
     19          1           0        4.260735   -0.665352   -0.936914
     20          1           0        3.691017    0.972590   -0.448206
     21          1           0       -1.684515    1.315085    0.906442
     22          1           0       -3.388758    0.752735    1.004674
     23          1           0       -2.782253    1.589144   -0.484983
 ---------------------------------------------------------------------
                    Distance matrix (angstroms):
                    1          2          3          4          5
     1  C    0.000000
     2  C    1.490625   0.000000
     3  C    2.525192   1.508304   0.000000
     4  C    1.491652   2.509639   3.553242   0.000000
     5  C    3.624645   2.525060   1.510531   4.213428   0.000000
     6  C    2.500874   3.605789   4.860851   1.472952   5.598745
     7  C    4.400402   3.033302   2.519830   4.912341   1.506627
     8  H    2.151856   2.510870   3.510992   1.126559   3.791338
     9  H    2.133591   3.213124   3.885488   1.116134   4.435091
    10  H    1.110665   2.126105   2.507811   2.129422   3.689061
    11  H    1.109344   2.131780   3.285203   2.136379   4.534650
    12  H    2.125420   1.101220   2.141575   2.505645   2.500153
    13  H    2.135403   1.110520   2.141705   3.277653   3.227195
    14  H    3.230970   2.140614   1.103233   4.457958   2.141844
    15  H    2.529714   2.156247   1.109570   3.536422   2.137647
    16  H    3.561773   2.790187   2.148760   3.759550   1.121392
    17  H    4.462920   3.463911   2.142080   5.117899   1.103295
    18  H    2.544252   3.650526   4.996054   2.150656   5.951432
    19  H    3.250856   4.525582   5.635670   2.161826   6.367231
    20  H    3.278420   4.067902   5.397464   2.147403   5.935332
    21  H    3.977442   2.562957   2.608100   4.483480   2.147775
    22  H    5.183549   3.749558   3.028055   5.882116   2.185155
    23  H    5.113285   3.866761   3.458707   5.342831   2.185103
                    6          7          8          9         10
     6  C    0.000000
     7  C    6.127392   0.000000
     8  H    2.129736   4.271824   0.000000
     9  H    2.115291   5.372762   1.772805   0.000000
    10  H    3.201955   4.766019   2.886048   2.217702   0.000000
    11  H    2.503561   5.161893   2.921153   2.879845   1.764443
    12  H    3.551788   2.635828   2.027057   3.289278   2.928516
    13  H    4.062994   3.388382   3.342678   4.120516   2.821576
    14  H    5.649058   2.785699   4.479877   4.868070   3.188169
    15  H    4.887843   3.459382   3.729506   3.578070   2.031456
    16  H    5.177394   2.156669   3.216968   3.811259   3.628212
    17  H    6.545903   2.152126   4.775198   5.185748   4.302473
    18  H    1.106291   6.421693   2.903007   2.912966   3.283605
    19  H    1.130281   7.041885   2.904752   2.251165   3.660706
    20  H    1.110627   6.235562   2.255745   2.846492   4.121769
    21  H    5.528962   1.090678   3.837807   5.144445   4.567217
    22  H    7.083543   1.125104   5.325464   6.354044   5.471307
    23  H    6.533805   1.127778   4.523267   5.729288   5.510753
                   11         12         13         14         15
    11  H    0.000000
    12  H    2.815956   0.000000
    13  H    2.227745   1.752594   0.000000
    14  H    3.720896   2.866989   2.229497   0.000000
    15  H    3.336893   2.907252   2.897169   1.773444   0.000000
    16  H    4.603919   2.536913   3.724246   3.064396   2.456356
    17  H    5.363255   3.585397   4.101331   2.465437   2.424291
    18  H    2.058148   3.793659   3.822721   5.606915   5.067302
    19  H    3.257516   4.542496   5.057485   6.463656   5.474455
    20  H    3.323646   3.723324   4.466569   6.198147   5.591385
    21  H    4.592772   2.009041   2.708950   2.857760   3.669001
    22  H    5.844648   3.548750   3.872241   2.886568   3.955038
    23  H    5.949014   3.234803   4.328551   3.868805   4.281981
                   16         17         18         19         20
    16  H    0.000000
    17  H    1.778151   0.000000
    18  H    5.722707   6.896727   0.000000
    19  H    5.843816   7.237675   1.795117   0.000000
    20  H    5.462002   6.951714   1.784946   1.801740   0.000000
    21  H    2.678179   3.034235   5.727525   6.531928   5.554162
    22  H    3.069633   2.385823   7.273382   8.018445   7.230658
    23  H    2.364338   2.684195   6.969281   7.408823   6.502670
                   21         22         23
    21  H    0.000000
    22  H    1.797312   0.000000
    23  H    1.793377   1.812873   0.000000
 Stoichiometry    C7H16
 Framework group  C1[X(C7H16)]
 Deg. of freedom    63
 Full point group                 C1      NOp   1
 Largest Abelian subgroup         C1      NOp   1
 Largest concise Abelian subgroup C1      NOp   1
                         Standard orientation:                         
 ---------------------------------------------------------------------
 Center     Atomic      Atomic             Coordinates (Angstroms)
 Number     Number       Type             X           Y           Z
 ---------------------------------------------------------------------
      1          6           0        1.198371    0.784074   -0.129510
      2          6           0       -0.139383    0.390850   -0.656533
      3          6           0       -1.309508    0.983324    0.088292
      4          6           0        1.967369   -0.326361    0.503421
      5          6           0       -2.233379   -0.053374    0.682785
      6          6           0        3.283770   -0.595999   -0.099878
      7          6           0       -2.826565   -0.981398   -0.345236
      8          1           0        1.352349   -1.270166    0.492480
      9          1           0        2.108363   -0.098130    1.586836
     10          1           0        1.064230    1.598926    0.613187
     11          1           0        1.797806    1.231286   -0.948852
     12          1           0       -0.223063   -0.707177   -0.652107
     13          1           0       -0.214785    0.677177   -1.726854
     14          1           0       -1.885102    1.628254   -0.597185
     15          1           0       -0.945506    1.637989    0.906865
     16          1           0       -1.659586   -0.651443    1.438163
     17          1           0       -3.036029    0.457012    1.241820
     18          1           0        3.480582    0.046655   -0.978592
     19          1           0        4.123600   -0.411200    0.633656
     20          1           0        3.372308   -1.650603   -0.436721
     21          1           0       -2.114449   -1.166041   -1.150453
     22          1           0       -3.765665   -0.552910   -0.792839
     23          1           0       -3.099100   -1.976324    0.110539
 ---------------------------------------------------------------------
 Rotational constants (GHZ):           5.5715316           1.0152569           0.9617835
 Leave Link  202 at Sat Sep 28 02:44:23 2019, MaxMem=   671088640 cpu:               3.6 elap:               1.8
 (Enter /shared/centos7/gaussian/g16/l301.exe)
 Standard basis: CC-pVTZ (5D, 7F)
 Ernie: Thresh=  0.10000D-02 Tol=  0.10000D-05 Strict=F.
 Ernie:  21 primitive shells out of 310 were deleted.
 There are   485 symmetry adapted cartesian basis functions of A   symmetry.
 There are   434 symmetry adapted basis functions of A   symmetry.
   434 basis functions,   636 primitive gaussians,   485 cartesian basis functions
    29 alpha electrons       29 beta electrons
       nuclear repulsion energy       320.5341328859 Hartrees.
 IExCor= 4336 DFT=T Ex+Corr=M062X ExCW=0 ScaHFX=  0.540000
 ScaDFX=  1.000000  1.000000  1.000000  1.000000 ScalE2=  1.000000  1.000000
 IRadAn=      5 IRanWt=     -1 IRanGd=            0 ICorTp=0 IEmpDi=  4
 NAtoms=   23 NActive=   23 NUniq=   23 SFac= 1.00D+00 NAtFMM=   60 NAOKFM=F Big=F
 Integral buffers will be    131072 words long.
 Raffenetti 2 integral format.
 Two-electron integral symmetry is turned on.
 Leave Link  301 at Sat Sep 28 02:44:24 2019, MaxMem=   671088640 cpu:               1.6 elap:               0.8
 (Enter /shared/centos7/gaussian/g16/l302.exe)
 NPDir=0 NMtPBC=     1 NCelOv=     1 NCel=       1 NClECP=     1 NCelD=      1
         NCelK=      1 NCelE2=     1 NClLst=     1 CellRange=     0.0.
 One-electron integrals computed using PRISM.
 One-electron integral symmetry used in STVInt
 NBasis=   434 RedAO= T EigKep=  3.46D-04  NBF=   434
 NBsUse=   434 1.00D-06 EigRej= -1.00D+00 NBFU=   434
 Precomputing XC quadrature grid using
 IXCGrd= 4 IRadAn=           5 IRanWt=          -1 IRanGd=           0 AccXCQ= 0.00D+00.
 Generated NRdTot=       0 NPtTot=           0 NUsed=           0 NTot=          32
 NSgBfM=   485   485   485   485   485 MxSgAt=    23 MxSgA2=    23.
 Leave Link  302 at Sat Sep 28 02:45:34 2019, MaxMem=   671088640 cpu:             139.9 elap:              70.0
 (Enter /shared/centos7/gaussian/g16/l303.exe)
 DipDrv:  MaxL=1.
 Leave Link  303 at Sat Sep 28 02:45:40 2019, MaxMem=   671088640 cpu:              11.4 elap:               5.7
 (Enter /shared/centos7/gaussian/g16/l401.exe)
 ExpMin= 1.03D-01 ExpMax= 8.24D+03 ExpMxC= 2.81D+02 IAcc=3 IRadAn=         5 AccDes= 0.00D+00
 Harris functional with IExCor= 1009 and IRadAn=       5 diagonalized for initial guess.
 HarFok:  IExCor= 1009 AccDes= 0.00D+00 IRadAn=         5 IDoV= 1 UseB2=F ITyADJ=14
 ICtDFT=  3500011 ScaDFX=  1.000000  1.000000  1.000000  1.000000
 FoFCou: FMM=F IPFlag=           0 FMFlag=      100000 FMFlg1=           0
         NFxFlg=           0 DoJE=T BraDBF=F KetDBF=T FulRan=T
         wScrn=  0.000000 ICntrl=       500 IOpCl=  0 I1Cent=   200000004 NGrid=           0
         NMat0=    1 NMatS0=      1 NMatT0=    0 NMatD0=    1 NMtDS0=    0 NMtDT0=    0
 Petite list used in FoFCou.
 Harris En= -276.315539719493    
 JPrj=0 DoOrth=F DoCkMO=F.
 Leave Link  401 at Sat Sep 28 02:46:22 2019, MaxMem=   671088640 cpu:              85.2 elap:              42.6
 (Enter /shared/centos7/gaussian/g16/l502.exe)
 Integral symmetry usage will be decided dynamically.
 Closed shell SCF:
 Using DIIS extrapolation, IDIIS=  1040.
 NGot=   671088640 LenX=   670604095 LenY=   670368385
 Requested convergence on RMS density matrix=1.00D-08 within 900 cycles.
 Requested convergence on MAX density matrix=1.00D-06.
 Requested convergence on             energy=1.00D-06.
 No special actions if energy rises.
 Fock matrices will be formed incrementally for  20 cycles.
 Integral accuracy reduced to 1.0D-05 until final iterations.

 Cycle   1  Pass 0  IDiag  1:
 FoFJK:  IHMeth= 1 ICntrl=       0 DoSepK=F KAlg= 0 I1Cent=           0 FoldK=F
 IRaf= 920000000 NMat=       1 IRICut=       1 DoRegI=T DoRafI=F ISym2E= 0 IDoP0=0 IntGTp=1.
 FoFCou: FMM=F IPFlag=           0 FMFlag=      100000 FMFlg1=           0
         NFxFlg=           0 DoJE=F BraDBF=F KetDBF=F FulRan=T
         wScrn=  0.000000 ICntrl=         0 IOpCl=  0 I1Cent=           0 NGrid=           0
         NMat0=    1 NMatS0=      1 NMatT0=    0 NMatD0=    1 NMtDS0=    0 NMtDT0=    0
 Symmetry not used in FoFCou.
 E= -275.937909379896    
 DIIS: error= 2.96D-02 at cycle   1 NSaved=   1.
 NSaved= 1 IEnMin= 1 EnMin= -275.937909379896     IErMin= 1 ErrMin= 2.96D-02
 ErrMax= 2.96D-02  0.00D+00 EMaxC= 1.00D-01 BMatC= 3.77D-01 BMatP= 3.77D-01
 IDIUse=3 WtCom= 7.04D-01 WtEn= 2.96D-01
 Coeff-Com:  0.100D+01
 Coeff-En:   0.100D+01
 Coeff:      0.100D+01
 Gap=     0.411 Goal=   None    Shift=    0.000
 GapD=    0.411 DampG=2.000 DampE=0.500 DampFc=1.0000 IDamp=-1.
 RMSDP=1.92D-03 MaxDP=7.20D-02              OVMax= 1.66D-01

 Cycle   2  Pass 0  IDiag  1:
 RMSU=  1.91D-03    CP:  9.81D-01
 E= -275.983269779103     Delta-E=       -0.045360399207 Rises=F Damp=F
 DIIS: error= 2.71D-02 at cycle   2 NSaved=   2.
 NSaved= 2 IEnMin= 2 EnMin= -275.983269779103     IErMin= 2 ErrMin= 2.71D-02
 ErrMax= 2.71D-02  0.00D+00 EMaxC= 1.00D-01 BMatC= 3.08D-01 BMatP= 3.77D-01
 IDIUse=3 WtCom= 7.29D-01 WtEn= 2.71D-01
 Coeff-Com:  0.473D+00 0.527D+00
 Coeff-En:   0.464D+00 0.536D+00
 Coeff:      0.471D+00 0.529D+00
 Gap=     0.443 Goal=   None    Shift=    0.000
 RMSDP=1.13D-03 MaxDP=3.63D-02 DE=-4.54D-02 OVMax= 9.14D-02

 Cycle   3  Pass 0  IDiag  1:
 RMSU=  4.53D-04    CP:  9.98D-01  4.62D-01
 E= -276.298921375709     Delta-E=       -0.315651596605 Rises=F Damp=F
 DIIS: error= 2.08D-03 at cycle   3 NSaved=   3.
 NSaved= 3 IEnMin= 3 EnMin= -276.298921375709     IErMin= 3 ErrMin= 2.08D-03
 ErrMax= 2.08D-03  0.00D+00 EMaxC= 1.00D-01 BMatC= 2.53D-03 BMatP= 3.08D-01
 IDIUse=3 WtCom= 9.79D-01 WtEn= 2.08D-02
 Coeff-Com:  0.426D-01 0.103D+00 0.854D+00
 Coeff-En:   0.000D+00 0.000D+00 0.100D+01
 Coeff:      0.417D-01 0.101D+00 0.857D+00
 Gap=     0.417 Goal=   None    Shift=    0.000
 RMSDP=8.78D-05 MaxDP=2.88D-03 DE=-3.16D-01 OVMax= 1.01D-02

 Cycle   4  Pass 0  IDiag  1:
 RMSU=  7.40D-05    CP:  9.97D-01  4.87D-01  9.95D-01
 E= -276.301230252325     Delta-E=       -0.002308876616 Rises=F Damp=F
 DIIS: error= 5.84D-04 at cycle   4 NSaved=   4.
 NSaved= 4 IEnMin= 4 EnMin= -276.301230252325     IErMin= 4 ErrMin= 5.84D-04
 ErrMax= 5.84D-04  0.00D+00 EMaxC= 1.00D-01 BMatC= 2.26D-04 BMatP= 2.53D-03
 IDIUse=3 WtCom= 9.94D-01 WtEn= 5.84D-03
 Coeff-Com: -0.144D-02 0.156D-01 0.286D+00 0.700D+00
 Coeff-En:   0.000D+00 0.000D+00 0.000D+00 0.100D+01
 Coeff:     -0.143D-02 0.155D-01 0.284D+00 0.702D+00
 Gap=     0.418 Goal=   None    Shift=    0.000
 RMSDP=3.37D-05 MaxDP=1.07D-03 DE=-2.31D-03 OVMax= 2.65D-03

 Cycle   5  Pass 0  IDiag  1:
 RMSU=  2.13D-05    CP:  9.97D-01  4.82D-01  1.04D+00  8.39D-01
 E= -276.301434903989     Delta-E=       -0.000204651664 Rises=F Damp=F
 DIIS: error= 1.38D-04 at cycle   5 NSaved=   5.
 NSaved= 5 IEnMin= 5 EnMin= -276.301434903989     IErMin= 5 ErrMin= 1.38D-04
 ErrMax= 1.38D-04  0.00D+00 EMaxC= 1.00D-01 BMatC= 1.58D-05 BMatP= 2.26D-04
 IDIUse=3 WtCom= 9.99D-01 WtEn= 1.38D-03
 Coeff-Com: -0.243D-02-0.622D-03 0.465D-01 0.248D+00 0.709D+00
 Coeff-En:   0.000D+00 0.000D+00 0.000D+00 0.000D+00 0.100D+01
 Coeff:     -0.243D-02-0.621D-03 0.464D-01 0.248D+00 0.709D+00
 Gap=     0.417 Goal=   None    Shift=    0.000
 RMSDP=6.55D-06 MaxDP=3.87D-04 DE=-2.05D-04 OVMax= 6.70D-04

 Initial convergence to 1.0D-05 achieved.  Increase integral accuracy.
 Cycle   6  Pass 1  IDiag  1:
 E= -276.301434899425     Delta-E=        0.000000004564 Rises=F Damp=F
 DIIS: error= 4.79D-05 at cycle   1 NSaved=   1.
 NSaved= 1 IEnMin= 1 EnMin= -276.301434899425     IErMin= 1 ErrMin= 4.79D-05
 ErrMax= 4.79D-05  0.00D+00 EMaxC= 1.00D-01 BMatC= 1.64D-06 BMatP= 1.64D-06
 IDIUse=1 WtCom= 1.00D+00 WtEn= 0.00D+00
 Coeff-Com:  0.100D+01
 Coeff:      0.100D+01
 Gap=     0.417 Goal=   None    Shift=    0.000
 RMSDP=6.55D-06 MaxDP=3.87D-04 DE= 4.56D-09 OVMax= 2.30D-04

 Cycle   7  Pass 1  IDiag  1:
 RMSU=  1.10D-05    CP:  1.00D+00
 E= -276.301435609350     Delta-E=       -0.000000709926 Rises=F Damp=F
 DIIS: error= 2.08D-05 at cycle   2 NSaved=   2.
 NSaved= 2 IEnMin= 2 EnMin= -276.301435609350     IErMin= 2 ErrMin= 2.08D-05
 ErrMax= 2.08D-05  0.00D+00 EMaxC= 1.00D-01 BMatC= 3.62D-07 BMatP= 1.64D-06
 IDIUse=1 WtCom= 1.00D+00 WtEn= 0.00D+00
 Coeff-Com:  0.266D+00 0.734D+00
 Coeff:      0.266D+00 0.734D+00
 Gap=     0.417 Goal=   None    Shift=    0.000
 RMSDP=1.23D-06 MaxDP=5.20D-05 DE=-7.10D-07 OVMax= 1.36D-04

 Cycle   8  Pass 1  IDiag  1:
 RMSU=  1.23D-06    CP:  1.00D+00  1.00D+00
 E= -276.301435893290     Delta-E=       -0.000000283939 Rises=F Damp=F
 DIIS: error= 1.05D-05 at cycle   3 NSaved=   3.
 NSaved= 3 IEnMin= 3 EnMin= -276.301435893290     IErMin= 3 ErrMin= 1.05D-05
 ErrMax= 1.05D-05  0.00D+00 EMaxC= 1.00D-01 BMatC= 7.40D-08 BMatP= 3.62D-07
 IDIUse=1 WtCom= 1.00D+00 WtEn= 0.00D+00
 Coeff-Com: -0.161D-02 0.306D+00 0.696D+00
 Coeff:     -0.161D-02 0.306D+00 0.696D+00
 Gap=     0.417 Goal=   None    Shift=    0.000
 RMSDP=4.54D-07 MaxDP=1.64D-05 DE=-2.84D-07 OVMax= 4.29D-05

 Cycle   9  Pass 1  IDiag  1:
 RMSU=  2.87D-07    CP:  1.00D+00  1.02D+00  7.60D-01
 E= -276.301435964065     Delta-E=       -0.000000070775 Rises=F Damp=F
 DIIS: error= 1.81D-06 at cycle   4 NSaved=   4.
 NSaved= 4 IEnMin= 4 EnMin= -276.301435964065     IErMin= 4 ErrMin= 1.81D-06
 ErrMax= 1.81D-06  0.00D+00 EMaxC= 1.00D-01 BMatC= 1.48D-09 BMatP= 7.40D-08
 IDIUse=1 WtCom= 1.00D+00 WtEn= 0.00D+00
 Coeff-Com: -0.752D-02 0.908D-01 0.248D+00 0.669D+00
 Coeff:     -0.752D-02 0.908D-01 0.248D+00 0.669D+00
 Gap=     0.417 Goal=   None    Shift=    0.000
 RMSDP=7.14D-08 MaxDP=2.62D-06 DE=-7.08D-08 OVMax= 6.63D-06

 Cycle  10  Pass 1  IDiag  1:
 RMSU=  6.62D-08    CP:  1.00D+00  1.02D+00  7.61D-01  9.24D-01
 E= -276.301435965564     Delta-E=       -0.000000001499 Rises=F Damp=F
 DIIS: error= 2.92D-07 at cycle   5 NSaved=   5.
 NSaved= 5 IEnMin= 5 EnMin= -276.301435965564     IErMin= 5 ErrMin= 2.92D-07
 ErrMax= 2.92D-07  0.00D+00 EMaxC= 1.00D-01 BMatC= 4.03D-11 BMatP= 1.48D-09
 IDIUse=1 WtCom= 1.00D+00 WtEn= 0.00D+00
 Coeff-Com: -0.478D-03-0.157D-01-0.327D-01 0.374D-01 0.101D+01
 Coeff:     -0.478D-03-0.157D-01-0.327D-01 0.374D-01 0.101D+01
 Gap=     0.417 Goal=   None    Shift=    0.000
 RMSDP=2.84D-08 MaxDP=7.70D-07 DE=-1.50D-09 OVMax= 2.30D-06

 Cycle  11  Pass 1  IDiag  1:
 RMSU=  1.35D-08    CP:  1.00D+00  1.02D+00  7.65D-01  1.00D+00  1.12D+00
 E= -276.301435965629     Delta-E=       -0.000000000065 Rises=F Damp=F
 DIIS: error= 1.23D-07 at cycle   6 NSaved=   6.
 NSaved= 6 IEnMin= 6 EnMin= -276.301435965629     IErMin= 6 ErrMin= 1.23D-07
 ErrMax= 1.23D-07  0.00D+00 EMaxC= 1.00D-01 BMatC= 1.15D-11 BMatP= 4.03D-11
 IDIUse=1 WtCom= 1.00D+00 WtEn= 0.00D+00
 Coeff-Com:  0.354D-03-0.131D-01-0.316D-01-0.328D-01 0.434D+00 0.643D+00
 Coeff:      0.354D-03-0.131D-01-0.316D-01-0.328D-01 0.434D+00 0.643D+00
 Gap=     0.417 Goal=   None    Shift=    0.000
 RMSDP=5.83D-09 MaxDP=2.38D-07 DE=-6.55D-11 OVMax= 6.40D-07

 SCF Done:  E(RM062X) =  -276.301435966     A.U. after   11 cycles
            NFock= 11  Conv=0.58D-08     -V/T= 2.0064
 KE= 2.745406383844D+02 PE=-1.279552464048D+03 EE= 4.081762568120D+02
 Leave Link  502 at Sat Sep 28 03:01:00 2019, MaxMem=   671088640 cpu:            1755.7 elap:             878.0
 (Enter /shared/centos7/gaussian/g16/l801.exe)
 DoSCS=F DFT=T ScalE2(SS,OS)=  1.000000  1.000000
 Range of M.O.s used for correlation:     1   434
 NBasis=   434 NAE=    29 NBE=    29 NFC=     0 NFV=     0
 NROrb=    434 NOA=    29 NOB=    29 NVA=   405 NVB=   405

 **** Warning!!: The largest alpha MO coefficient is  0.12498378D+02

 Leave Link  801 at Sat Sep 28 03:01:01 2019, MaxMem=   671088640 cpu:               1.5 elap:               0.8
 (Enter /shared/centos7/gaussian/g16/l1101.exe)
 Using compressed storage, NAtomX=    23.
 Will process     24 centers per pass.
 Leave Link 1101 at Sat Sep 28 03:01:37 2019, MaxMem=   671088640 cpu:              71.5 elap:              35.8
 (Enter /shared/centos7/gaussian/g16/l1102.exe)
 Symmetrizing basis deriv contribution to polar:
 IMax=3 JMax=2 DiffMx= 0.00D+00
 Leave Link 1102 at Sat Sep 28 03:01:40 2019, MaxMem=   671088640 cpu:               5.2 elap:               2.6
 (Enter /shared/centos7/gaussian/g16/l1110.exe)
 Forming Gx(P) for the SCF density, NAtomX=    23.
 Integral derivatives from FoFJK, PRISM(SPDF).
 Do as many integral derivatives as possible in FoFJK.
 G2DrvN: MDV=     671086848.
 G2DrvN: will do    24 centers at a time, making    1 passes.
 Calling FoFCou, ICntrl=  3107 FMM=F I1Cent=   0 AccDes= 0.00D+00.
 FoFJK:  IHMeth= 1 ICntrl=    3107 DoSepK=F KAlg= 0 I1Cent=           0 FoldK=F
 IRaf=         0 NMat=       1 IRICut=       1 DoRegI=T DoRafI=F ISym2E= 0 IDoP0=0 IntGTp=1.
 FoFCou: FMM=F IPFlag=           0 FMFlag=      100000 FMFlg1=           0
         NFxFlg=           0 DoJE=F BraDBF=F KetDBF=F FulRan=T
         wScrn=  0.000000 ICntrl=      3107 IOpCl=  0 I1Cent=           0 NGrid=           0
         NMat0=    1 NMatS0=      1 NMatT0=    0 NMatD0=    1 NMtDS0=    0 NMtDT0=    0
 Symmetry not used in FoFCou.
 End of G2Drv F.D. properties file   721 does not exist.
 End of G2Drv F.D. properties file   722 does not exist.
 End of G2Drv F.D. properties file   788 does not exist.
 Leave Link 1110 at Sat Sep 28 03:39:16 2019, MaxMem=   671088640 cpu:            4513.1 elap:            2256.8
 (Enter /shared/centos7/gaussian/g16/l1002.exe)
 Minotr:  Closed shell wavefunction.
          IDoAtm=11111111111111111111111
          Direct CPHF calculation.
          Differentiating once with respect to nuclear coordinates.
          Requested convergence is 1.0D-08 RMS, and 1.0D-07 maximum.
          Secondary convergence is 1.0D-12 RMS, and 1.0D-12 maximum.
          NewPWx=T KeepS1=F KeepF1=F KeepIn=T MapXYZ=F SortEE=F KeepMc=T.
         6946 words used for storage of precomputed grid.
 Two-electron integrals replicated using symmetry.
          MDV=     671088640 using IRadAn=       1.
          Solving linear equations simultaneously, MaxMat=     380.
 FoF2E skips out because all densities are zero.
 CalDSu exits because no D1Ps are significant.
 FoFJK:  IHMeth= 1 ICntrl=       0 DoSepK=F KAlg= 0 I1Cent=           0 FoldK=F
 IRaf= 900000000 NMat=      69 IRICut=     172 DoRegI=T DoRafI=T ISym2E= 2 IDoP0=3 IntGTp=3.
 FoFCou: FMM=F IPFlag=           0 FMFlag=      100000 FMFlg1=           0
         NFxFlg=           0 DoJE=F BraDBF=F KetDBF=F FulRan=T
         wScrn=  0.000000 ICntrl=         0 IOpCl=  0 I1Cent=           0 NGrid=           0
         NMat0=   69 NMatS0=     69 NMatT0=    0 NMatD0=   69 NMtDS0=    0 NMtDT0=    0
 Integrals replicated using symmetry in FoFCou.
 Raff kept on since  85.56% of shell-pairs survive, threshold=   0.20 IRatSp=86.
          There are    72 degrees of freedom in the 1st order CPHF.  IDoFFX=6 NUNeed=     0.
     66 vectors produced by pass  0 Test12= 1.63D-14 1.39D-09 XBig12= 5.50D-02 5.05D-02.
 AX will form    66 AO Fock derivatives at one time.
     66 vectors produced by pass  1 Test12= 1.63D-14 1.39D-09 XBig12= 3.57D-03 8.24D-03.
     66 vectors produced by pass  2 Test12= 1.63D-14 1.39D-09 XBig12= 6.06D-05 1.10D-03.
     66 vectors produced by pass  3 Test12= 1.63D-14 1.39D-09 XBig12= 4.30D-07 8.19D-05.
     66 vectors produced by pass  4 Test12= 1.63D-14 1.39D-09 XBig12= 1.98D-09 4.82D-06.
     66 vectors produced by pass  5 Test12= 1.63D-14 1.39D-09 XBig12= 9.24D-12 3.82D-07.
     24 vectors produced by pass  6 Test12= 1.63D-14 1.39D-09 XBig12= 3.32D-14 1.90D-08.
 InvSVY:  IOpt=1 It=  1 EMax= 5.83D-16
 Solved reduced A of dimension   420 with    72 vectors.
 End of Minotr F.D. properties file   721 does not exist.
 End of Minotr F.D. properties file   722 does not exist.
 End of Minotr F.D. properties file   788 does not exist.
 Leave Link 1002 at Sat Sep 28 04:43:27 2019, MaxMem=   671088640 cpu:            7700.9 elap:            3850.9
 (Enter /shared/centos7/gaussian/g16/l601.exe)
 Copying SCF densities to generalized density rwf, IOpCl= 0 IROHF=0.

 **********************************************************************

            Population analysis using the SCF density.

 **********************************************************************

 Orbital symmetries:
       Occupied  (A) (A) (A) (A) (A) (A) (A) (A) (A) (A) (A) (A)
                 (A) (A) (A) (A) (A) (A) (A) (A) (A) (A) (A) (A)
                 (A) (A) (A) (A) (A)
       Virtual   (A) (A) (A) (A) (A) (A) (A) (A) (A) (A) (A) (A)
                 (A) (A) (A) (A) (A) (A) (A) (A) (A) (A) (A) (A)
                 (A) (A) (A) (A) (A) (A) (A) (A) (A) (A) (A) (A)
                 (A) (A) (A) (A) (A) (A) (A) (A) (A) (A) (A) (A)
                 (A) (A) (A) (A) (A) (A) (A) (A) (A) (A) (A) (A)
                 (A) (A) (A) (A) (A) (A) (A) (A) (A) (A) (A) (A)
                 (A) (A) (A) (A) (A) (A) (A) (A) (A) (A) (A) (A)
                 (A) (A) (A) (A) (A) (A) (A) (A) (A) (A) (A) (A)
                 (A) (A) (A) (A) (A) (A) (A) (A) (A) (A) (A) (A)
                 (A) (A) (A) (A) (A) (A) (A) (A) (A) (A) (A) (A)
                 (A) (A) (A) (A) (A) (A) (A) (A) (A) (A) (A) (A)
                 (A) (A) (A) (A) (A) (A) (A) (A) (A) (A) (A) (A)
                 (A) (A) (A) (A) (A) (A) (A) (A) (A) (A) (A) (A)
                 (A) (A) (A) (A) (A) (A) (A) (A) (A) (A) (A) (A)
                 (A) (A) (A) (A) (A) (A) (A) (A) (A) (A) (A) (A)
                 (A) (A) (A) (A) (A) (A) (A) (A) (A) (A) (A) (A)
                 (A) (A) (A) (A) (A) (A) (A) (A) (A) (A) (A) (A)
                 (A) (A) (A) (A) (A) (A) (A) (A) (A) (A) (A) (A)
                 (A) (A) (A) (A) (A) (A) (A) (A) (A) (A) (A) (A)
                 (A) (A) (A) (A) (A) (A) (A) (A) (A) (A) (A) (A)
                 (A) (A) (A) (A) (A) (A) (A) (A) (A) (A) (A) (A)
                 (A) (A) (A) (A) (A) (A) (A) (A) (A) (A) (A) (A)
                 (A) (A) (A) (A) (A) (A) (A) (A) (A) (A) (A) (A)
                 (A) (A) (A) (A) (A) (A) (A) (A) (A) (A) (A) (A)
                 (A) (A) (A) (A) (A) (A) (A) (A) (A) (A) (A) (A)
                 (A) (A) (A) (A) (A) (A) (A) (A) (A) (A) (A) (A)
                 (A) (A) (A) (A) (A) (A) (A) (A) (A) (A) (A) (A)
                 (A) (A) (A) (A) (A) (A) (A) (A) (A) (A) (A) (A)
                 (A) (A) (A) (A) (A) (A) (A) (A) (A) (A) (A) (A)
                 (A) (A) (A) (A) (A) (A) (A) (A) (A) (A) (A) (A)
                 (A) (A) (A) (A) (A) (A) (A) (A) (A) (A) (A) (A)
                 (A) (A) (A) (A) (A) (A) (A) (A) (A) (A) (A) (A)
                 (A) (A) (A) (A) (A) (A) (A) (A) (A) (A) (A) (A)
                 (A) (A) (A) (A) (A) (A) (A) (A) (A)
 The electronic state is 1-A.
 Alpha  occ. eigenvalues --  -10.52788 -10.52445 -10.52394 -10.52324 -10.52183
 Alpha  occ. eigenvalues --  -10.52067 -10.52022  -0.92151  -0.88428  -0.82660
 Alpha  occ. eigenvalues --   -0.76116  -0.70645  -0.65479  -0.63663  -0.54393
 Alpha  occ. eigenvalues --   -0.52771  -0.52317  -0.49430  -0.48099  -0.46120
 Alpha  occ. eigenvalues --   -0.44520  -0.42828  -0.41626  -0.40426  -0.38753
 Alpha  occ. eigenvalues --   -0.37927  -0.37354  -0.35474  -0.35064
 Alpha virt. eigenvalues --    0.06667   0.07762   0.08024   0.08542   0.10622
 Alpha virt. eigenvalues --    0.10995   0.11630   0.13168   0.14086   0.14970
 Alpha virt. eigenvalues --    0.15337   0.16921   0.18418   0.19134   0.19504
 Alpha virt. eigenvalues --    0.21279   0.21632   0.22813   0.25214   0.26164
 Alpha virt. eigenvalues --    0.27002   0.28024   0.29304   0.30293   0.31191
 Alpha virt. eigenvalues --    0.32185   0.33866   0.35919   0.37352   0.38275
 Alpha virt. eigenvalues --    0.38765   0.39802   0.41028   0.42103   0.42537
 Alpha virt. eigenvalues --    0.43082   0.43275   0.45973   0.46754   0.47262
 Alpha virt. eigenvalues --    0.47728   0.48480   0.49540   0.50398   0.50827
 Alpha virt. eigenvalues --    0.51175   0.51750   0.51966   0.52899   0.53411
 Alpha virt. eigenvalues --    0.54154   0.54822   0.55255   0.56688   0.57216
 Alpha virt. eigenvalues --    0.58340   0.58848   0.59710   0.60696   0.61723
 Alpha virt. eigenvalues --    0.62148   0.65819   0.67835   0.74919   0.75950
 Alpha virt. eigenvalues --    0.78226   0.81861   0.83028   0.83987   0.85404
 Alpha virt. eigenvalues --    0.86599   0.87466   0.89541   0.90168   0.91787
 Alpha virt. eigenvalues --    0.93204   0.94282   0.95231   0.96711   0.97656
 Alpha virt. eigenvalues --    0.99519   1.01274   1.02676   1.03911   1.04502
 Alpha virt. eigenvalues --    1.05605   1.06362   1.07381   1.08499   1.08801
 Alpha virt. eigenvalues --    1.10795   1.11337   1.13324   1.13869   1.14648
 Alpha virt. eigenvalues --    1.15335   1.15581   1.16736   1.18247   1.18683
 Alpha virt. eigenvalues --    1.20110   1.20821   1.21234   1.22527   1.23688
 Alpha virt. eigenvalues --    1.24795   1.26091   1.26865   1.27670   1.29631
 Alpha virt. eigenvalues --    1.29980   1.30391   1.31494   1.32466   1.32792
 Alpha virt. eigenvalues --    1.33577   1.35156   1.35813   1.36915   1.37824
 Alpha virt. eigenvalues --    1.38302   1.38873   1.41815   1.42742   1.43818
 Alpha virt. eigenvalues --    1.44479   1.45206   1.47799   1.48344   1.50571
 Alpha virt. eigenvalues --    1.51100   1.52311   1.52852   1.53984   1.54432
 Alpha virt. eigenvalues --    1.55913   1.57328   1.57776   1.60242   1.61269
 Alpha virt. eigenvalues --    1.61571   1.64428   1.66941   1.67406   1.69767
 Alpha virt. eigenvalues --    1.72078   1.75261   1.78612   1.83741   2.13269
 Alpha virt. eigenvalues --    2.19982   2.23620   2.26804   2.27398   2.31532
 Alpha virt. eigenvalues --    2.34996   2.39701   2.40630   2.42256   2.44359
 Alpha virt. eigenvalues --    2.45082   2.48109   2.49324   2.50409   2.52190
 Alpha virt. eigenvalues --    2.54307   2.55125   2.55779   2.57946   2.59130
 Alpha virt. eigenvalues --    2.59731   2.62037   2.63041   2.63687   2.65651
 Alpha virt. eigenvalues --    2.66409   2.68434   2.71053   2.72883   2.73633
 Alpha virt. eigenvalues --    2.74891   2.75854   2.77253   2.77882   2.78813
 Alpha virt. eigenvalues --    2.80264   2.82342   2.83187   2.83836   2.84401
 Alpha virt. eigenvalues --    2.85821   2.88060   2.88920   2.90711   2.92326
 Alpha virt. eigenvalues --    2.93407   2.94064   2.94857   2.96905   2.97323
 Alpha virt. eigenvalues --    2.98065   3.00814   3.01021   3.03367   3.03958
 Alpha virt. eigenvalues --    3.04546   3.05137   3.05542   3.06313   3.08093
 Alpha virt. eigenvalues --    3.08606   3.09644   3.10680   3.11457   3.12779
 Alpha virt. eigenvalues --    3.13082   3.14036   3.14210   3.15576   3.16188
 Alpha virt. eigenvalues --    3.17949   3.19014   3.19136   3.21168   3.23010
 Alpha virt. eigenvalues --    3.23574   3.25591   3.26619   3.27387   3.29235
 Alpha virt. eigenvalues --    3.30556   3.31394   3.31740   3.33285   3.34530
 Alpha virt. eigenvalues --    3.36584   3.38399   3.39192   3.39503   3.40453
 Alpha virt. eigenvalues --    3.40796   3.42984   3.44697   3.45495   3.47831
 Alpha virt. eigenvalues --    3.48238   3.49435   3.51388   3.51799   3.53267
 Alpha virt. eigenvalues --    3.54186   3.55512   3.56426   3.57299   3.59011
 Alpha virt. eigenvalues --    3.60409   3.61430   3.62756   3.64538   3.65434
 Alpha virt. eigenvalues --    3.66457   3.67564   3.69455   3.71756   3.72721
 Alpha virt. eigenvalues --    3.73098   3.73728   3.77030   3.77212   3.78419
 Alpha virt. eigenvalues --    3.79036   3.79827   3.80117   3.82541   3.84680
 Alpha virt. eigenvalues --    3.85268   3.85998   3.86400   3.89531   3.90505
 Alpha virt. eigenvalues --    3.91864   3.92554   3.93338   3.93935   3.95223
 Alpha virt. eigenvalues --    3.97193   3.98573   3.99109   4.01570   4.02106
 Alpha virt. eigenvalues --    4.02644   4.03535   4.04127   4.04786   4.05446
 Alpha virt. eigenvalues --    4.06421   4.07078   4.09814   4.10932   4.12049
 Alpha virt. eigenvalues --    4.12833   4.13747   4.14109   4.15132   4.16641
 Alpha virt. eigenvalues --    4.17335   4.19231   4.20945   4.21605   4.22650
 Alpha virt. eigenvalues --    4.23573   4.24498   4.26365   4.27786   4.28512
 Alpha virt. eigenvalues --    4.29127   4.32326   4.33043   4.33344   4.35726
 Alpha virt. eigenvalues --    4.37051   4.38286   4.39028   4.43149   4.44620
 Alpha virt. eigenvalues --    4.46155   4.47248   4.50980   4.52123   4.55444
 Alpha virt. eigenvalues --    4.58054   4.59726   4.61104   4.64512   4.64671
 Alpha virt. eigenvalues --    4.67854   4.68772   4.69594   4.73058   4.74812
 Alpha virt. eigenvalues --    4.76115   4.78582   4.79512   4.82240   4.83856
 Alpha virt. eigenvalues --    4.86737   4.87536   4.88558   4.89397   4.92511
 Alpha virt. eigenvalues --    4.93899   4.95065   4.97835   4.98441   4.98961
 Alpha virt. eigenvalues --    5.00183   5.02565   5.05642   5.06658   5.06822
 Alpha virt. eigenvalues --    5.08513   5.11095   5.13582   5.15266   5.16179
 Alpha virt. eigenvalues --    5.18191   5.19389   5.22833   5.24525   5.25612
 Alpha virt. eigenvalues --    5.26351   5.28116   5.28696   5.31805   5.33574
 Alpha virt. eigenvalues --    5.34320   5.36703   5.39527   5.40251   5.41102
 Alpha virt. eigenvalues --    5.42533   5.46825   5.48668   5.50989   5.54975
 Alpha virt. eigenvalues --    5.57138   5.63103   5.69402   5.73385   5.76423
 Alpha virt. eigenvalues --    5.80157   5.80650   5.82794   5.89069   5.93032
 Alpha virt. eigenvalues --    5.93465   6.00069   6.00263  11.14134  11.88451
 Alpha virt. eigenvalues --   12.26240  12.90887  13.25637  13.57578  13.87740
          Condensed to atoms (all electrons):
               1          2          3          4          5          6
     1  C    5.100959   0.296652  -0.053207   0.306891   0.005378  -0.054173
     2  C    0.296652   5.144093   0.297820  -0.051576  -0.045414   0.005044
     3  C   -0.053207   0.297820   5.102336   0.005301   0.315435  -0.000508
     4  C    0.306891  -0.051576   0.005301   5.060255  -0.000602   0.293254
     5  C    0.005378  -0.045414   0.315435  -0.000602   5.031129   0.000057
     6  C   -0.054173   0.005044  -0.000508   0.293254   0.000057   4.953117
     7  C    0.001027  -0.013462  -0.049545   0.000108   0.305134  -0.000011
     8  H   -0.058220  -0.009369  -0.000398   0.419934  -0.000470  -0.044912
     9  H   -0.044188   0.006576   0.000105   0.407037  -0.000030  -0.040371
    10  H    0.415010  -0.047388  -0.020192  -0.049295   0.001643   0.007720
    11  H    0.418848  -0.048821   0.006967  -0.045160  -0.000513  -0.019998
    12  H   -0.045920   0.418949  -0.061372  -0.020854  -0.002784   0.001020
    13  H   -0.038604   0.407616  -0.039438   0.008566   0.005474  -0.000260
    14  H    0.006494  -0.052777   0.406652  -0.000617  -0.037593   0.000035
    15  H   -0.012715  -0.050722   0.418290   0.000493  -0.043807  -0.000137
    16  H    0.000255  -0.002246  -0.049174  -0.000374   0.411694   0.000044
    17  H   -0.000604   0.010014  -0.042333   0.000045   0.413554  -0.000001
    18  H   -0.011248  -0.000004  -0.000104  -0.055168   0.000003   0.409917
    19  H    0.005113  -0.000451   0.000021  -0.045337  -0.000001   0.406058
    20  H    0.006882   0.000133   0.000044  -0.047541  -0.000005   0.407028
    21  H    0.000435   0.002730  -0.006381   0.000214  -0.049722  -0.000012
    22  H   -0.000052  -0.000146  -0.000173  -0.000004  -0.041328   0.000000
    23  H    0.000013  -0.000118   0.007805   0.000001  -0.039239   0.000000
               7          8          9         10         11         12
     1  C    0.001027  -0.058220  -0.044188   0.415010   0.418848  -0.045920
     2  C   -0.013462  -0.009369   0.006576  -0.047388  -0.048821   0.418949
     3  C   -0.049545  -0.000398   0.000105  -0.020192   0.006967  -0.061372
     4  C    0.000108   0.419934   0.407037  -0.049295  -0.045160  -0.020854
     5  C    0.305134  -0.000470  -0.000030   0.001643  -0.000513  -0.002784
     6  C   -0.000011  -0.044912  -0.040371   0.007720  -0.019998   0.001020
     7  C    4.978978   0.000034   0.000003  -0.000125  -0.000023  -0.006864
     8  H    0.000034   0.631214  -0.044332   0.007103   0.005051  -0.000821
     9  H    0.000003  -0.044332   0.623771  -0.020016   0.006822   0.001655
    10  H   -0.000125   0.007103  -0.020016   0.609211  -0.037741   0.006085
    11  H   -0.000023   0.005051   0.006822  -0.037741   0.600598   0.006033
    12  H   -0.006864  -0.000821   0.001655   0.006085   0.006033   0.611149
    13  H   -0.000289   0.001746  -0.000710   0.005830  -0.018457  -0.043337
    14  H   -0.004468  -0.000109   0.000055   0.000941  -0.000158   0.006945
    15  H    0.008086   0.000339  -0.000079   0.004515   0.000671   0.005204
    16  H   -0.046652   0.000118   0.000135   0.000334  -0.000031  -0.000249
    17  H   -0.039792   0.000019  -0.000003  -0.000172   0.000030   0.000565
    18  H   -0.000000   0.005196   0.006229   0.000984   0.003909   0.000443
    19  H    0.000000   0.007656  -0.020985  -0.000043   0.000700  -0.000146
    20  H    0.000001  -0.019426   0.006965  -0.000709   0.001327  -0.000092
    21  H    0.412160   0.000092  -0.000013  -0.000044  -0.000037  -0.003561
    22  H    0.398523  -0.000001   0.000000   0.000012   0.000000   0.000609
    23  H    0.403206   0.000034  -0.000003   0.000006  -0.000001  -0.000540
              13         14         15         16         17         18
     1  C   -0.038604   0.006494  -0.012715   0.000255  -0.000604  -0.011248
     2  C    0.407616  -0.052777  -0.050722  -0.002246   0.010014  -0.000004
     3  C   -0.039438   0.406652   0.418290  -0.049174  -0.042333  -0.000104
     4  C    0.008566  -0.000617   0.000493  -0.000374   0.000045  -0.055168
     5  C    0.005474  -0.037593  -0.043807   0.411694   0.413554   0.000003
     6  C   -0.000260   0.000035  -0.000137   0.000044  -0.000001   0.409917
     7  C   -0.000289  -0.004468   0.008086  -0.046652  -0.039792  -0.000000
     8  H    0.001746  -0.000109   0.000339   0.000118   0.000019   0.005196
     9  H   -0.000710   0.000055  -0.000079   0.000135  -0.000003   0.006229
    10  H    0.005830   0.000941   0.004515   0.000334  -0.000172   0.000984
    11  H   -0.018457  -0.000158   0.000671  -0.000031   0.000030   0.003909
    12  H   -0.043337   0.006945   0.005204  -0.000249   0.000565   0.000443
    13  H    0.591972  -0.018714   0.006069   0.000036  -0.000569  -0.000114
    14  H   -0.018714   0.591742  -0.032782   0.009051  -0.006945   0.000003
    15  H    0.006069  -0.032782   0.590066  -0.007265  -0.006125  -0.000015
    16  H    0.000036   0.009051  -0.007265   0.609115  -0.033875   0.000003
    17  H   -0.000569  -0.006945  -0.006125  -0.033875   0.585930  -0.000000
    18  H   -0.000114   0.000003  -0.000015   0.000003  -0.000000   0.611690
    19  H    0.000050  -0.000002   0.000007  -0.000003   0.000000  -0.036305
    20  H   -0.000049  -0.000001   0.000008  -0.000006   0.000000  -0.035921
    21  H   -0.001383  -0.000529  -0.000077   0.000131   0.006873  -0.000002
    22  H    0.000165   0.003384  -0.000261   0.008404  -0.012365  -0.000000
    23  H    0.000021  -0.000178  -0.000430  -0.012718   0.000472   0.000000
              19         20         21         22         23
     1  C    0.005113   0.006882   0.000435  -0.000052   0.000013
     2  C   -0.000451   0.000133   0.002730  -0.000146  -0.000118
     3  C    0.000021   0.000044  -0.006381  -0.000173   0.007805
     4  C   -0.045337  -0.047541   0.000214  -0.000004   0.000001
     5  C   -0.000001  -0.000005  -0.049722  -0.041328  -0.039239
     6  C    0.406058   0.407028  -0.000012   0.000000   0.000000
     7  C    0.000000   0.000001   0.412160   0.398523   0.403206
     8  H    0.007656  -0.019426   0.000092  -0.000001   0.000034
     9  H   -0.020985   0.006965  -0.000013   0.000000  -0.000003
    10  H   -0.000043  -0.000709  -0.000044   0.000012   0.000006
    11  H    0.000700   0.001327  -0.000037   0.000000  -0.000001
    12  H   -0.000146  -0.000092  -0.003561   0.000609  -0.000540
    13  H    0.000050  -0.000049  -0.001383   0.000165   0.000021
    14  H   -0.000002  -0.000001  -0.000529   0.003384  -0.000178
    15  H    0.000007   0.000008  -0.000077  -0.000261  -0.000430
    16  H   -0.000003  -0.000006   0.000131   0.008404  -0.012718
    17  H    0.000000   0.000000   0.006873  -0.012365   0.000472
    18  H   -0.036305  -0.035921  -0.000002  -0.000000   0.000000
    19  H    0.619520  -0.033565   0.000000  -0.000000   0.000000
    20  H   -0.033565   0.610525   0.000002  -0.000000  -0.000000
    21  H    0.000000   0.000002   0.589751  -0.036871  -0.034076
    22  H   -0.000000  -0.000000  -0.036871   0.602144  -0.029107
    23  H    0.000000  -0.000000  -0.034076  -0.029107   0.600514
 Mulliken charges:
               1
     1  C   -0.245024
     2  C   -0.267133
     3  C   -0.237949
     4  C   -0.185570
     5  C   -0.227995
     6  C   -0.322910
     7  C   -0.346030
     8  H    0.099523
     9  H    0.111378
    10  H    0.116331
    11  H    0.119983
    12  H    0.127881
    13  H    0.134381
    14  H    0.129573
    15  H    0.120665
    16  H    0.113274
    17  H    0.125281
    18  H    0.100504
    19  H    0.097713
    20  H    0.104400
    21  H    0.120320
    22  H    0.107066
    23  H    0.104338
 Sum of Mulliken charges =  -0.00000
 Mulliken charges with hydrogens summed into heavy atoms:
               1
     1  C   -0.008709
     2  C   -0.004870
     3  C    0.012289
     4  C    0.025330
     5  C    0.010560
     6  C   -0.020293
     7  C   -0.014307
 APT charges:
               1
     1  C   -0.722202
     2  C   -0.470896
     3  C   -0.708541
     4  C   -0.301024
     5  C   -0.673987
     6  C   -1.493945
     7  C   -1.199306
     8  H    0.179616
     9  H    0.359246
    10  H    0.310173
    11  H    0.399765
    12  H    0.248168
    13  H    0.380304
    14  H    0.413934
    15  H    0.296109
    16  H    0.209825
    17  H    0.520857
    18  H    0.306556
    19  H    0.523698
    20  H    0.358188
    21  H    0.114942
    22  H    0.522977
    23  H    0.425541
 Sum of APT charges =  -0.00000
 APT charges with hydrogens summed into heavy atoms:
               1
     1  C   -0.012264
     2  C    0.157577
     3  C    0.001502
     4  C    0.237838
     5  C    0.056696
     6  C   -0.305503
     7  C   -0.135846
 Electronic spatial extent (au):  <R**2>=           1339.8526
 Charge=             -0.0000 electrons
 Dipole moment (field-independent basis, Debye):
    X=             -0.0110    Y=              0.0828    Z=              0.0453  Tot=              0.0950
 Quadrupole moment (field-independent basis, Debye-Ang):
   XX=            -50.2300   YY=            -49.1367   ZZ=            -48.8201
   XY=             -0.1415   XZ=              0.1142   YZ=             -0.1305
 Traceless Quadrupole moment (field-independent basis, Debye-Ang):
   XX=             -0.8344   YY=              0.2589   ZZ=              0.5755
   XY=             -0.1415   XZ=              0.1142   YZ=             -0.1305
 Octapole moment (field-independent basis, Debye-Ang**2):
  XXX=             -5.0472  YYY=             -1.7357  ZZZ=             -0.1052  XYY=              0.0503
  XXY=              3.5314  XXZ=              1.8100  XZZ=              1.6653  YZZ=              2.1182
  YYZ=              0.3826  XYZ=              0.9120
 Hexadecapole moment (field-independent basis, Debye-Ang**3):
 XXXX=          -1505.4110 YYYY=           -255.4969 ZZZZ=           -170.1323 XXXY=             -2.6536
 XXXZ=              6.6024 YYYX=             -1.5831 YYYZ=             -0.2718 ZZZX=              1.1980
 ZZZY=             -1.0816 XXYY=           -293.1713 XXZZ=           -274.0411 YYZZ=            -69.9813
 XXYZ=             -3.0269 YYXZ=             -3.6055 ZZXY=              0.5661
 N-N= 3.205341328859D+02 E-N=-1.279552437778D+03  KE= 2.745406383844D+02
  Exact polarizability:   0.000   0.000   0.000   0.000   0.000   0.000
 Approx polarizability:  97.248   0.713  98.141   0.650  -0.451  97.722
 No NMR shielding tensors so no spin-rotation constants.
 Leave Link  601 at Sat Sep 28 04:43:57 2019, MaxMem=   671088640 cpu:              58.2 elap:              29.1
 (Enter /shared/centos7/gaussian/g16/l701.exe)
 SCFChk:  SCF convergence  5.83D-09 required  1.00D-08
 ... and contract with generalized density number  0.
 Compute integral second derivatives.
 Entering OneElI...
 Calculate overlap and kinetic energy integrals
    NBasis = 485  MinDer = 2  MaxDer = 2
 Requested accuracy = 0.1000D-12
 PrmmSu-InSpLW:  IPartL=    0 NPrtUS=   20 NPrtUL=    1 DoSpLW=F IThBeg=    0 IThEnd=   19 NThAct=   20.
 PrsmSu:  NPrtUS=  20 ThrOK=T IAlg=1 NPAlg=1 LenDen=           0 ISkipM=0 DoSpLW=F IThBeg=    0 IThEnd=   19.
 Prism:   IPart=     0 DynPar=F LinDyn=F Incr=           6.
 PRISM was handed    33206990 working-precision words and 13490 shell-pairs
 PRISM was handed    33206990 working-precision words and 13490 shell-pairs
 PRISM was handed    33206990 working-precision words and 13490 shell-pairs
 PRISM was handed    33206990 working-precision words and 13490 shell-pairs
 PRISM was handed    33206990 working-precision words and 13490 shell-pairs
 PRISM was handed    33206990 working-precision words and 13490 shell-pairs
 PRISM was handed    33206990 working-precision words and 13490 shell-pairs
 IPart=  0 NShTot=         707 NBatch=          79 AvBLen=         8.9
 PRISM was handed    33206990 working-precision words and 13490 shell-pairs
 PRISM was handed    33206990 working-precision words and 13490 shell-pairs
 PRISM was handed    33206990 working-precision words and 13490 shell-pairs
 PRISM was handed    33206990 working-precision words and 13490 shell-pairs
 PRISM was handed    33206990 working-precision words and 13490 shell-pairs
 PRISM was handed    33206990 working-precision words and 13490 shell-pairs
 IPart=  1 NShTot=         705 NBatch=          78 AvBLen=         9.0
 PRISM was handed    33206990 working-precision words and 13490 shell-pairs
 PRISM was handed    33206990 working-precision words and 13490 shell-pairs
 IPart= 14 NShTot=         658 NBatch=          51 AvBLen=        12.9
 IPart= 12 NShTot=         665 NBatch=          54 AvBLen=        12.3
 PRISM was handed    33206990 working-precision words and 13490 shell-pairs
 PRISM was handed    33206990 working-precision words and 13490 shell-pairs
 IPart= 16 NShTot=         654 NBatch=          49 AvBLen=        13.3
 PRISM was handed    33206990 working-precision words and 13490 shell-pairs
 PRISM was handed    33206990 working-precision words and 13490 shell-pairs
 IPart= 13 NShTot=         662 NBatch=          53 AvBLen=        12.5
 IPart=  6 NShTot=         686 NBatch=          66 AvBLen=        10.4
 IPart=  3 NShTot=         699 NBatch=          73 AvBLen=         9.6
 PRISM was handed    33206990 working-precision words and 13490 shell-pairs
 IPart=  4 NShTot=         695 NBatch=          70 AvBLen=         9.9
 IPart=  5 NShTot=         688 NBatch=          68 AvBLen=        10.1
 IPart=  9 NShTot=         673 NBatch=          58 AvBLen=        11.6
 IPart=  7 NShTot=         680 NBatch=          61 AvBLen=        11.1
 IPart= 19 NShTot=         646 NBatch=          45 AvBLen=        14.4
 IPart= 15 NShTot=         658 NBatch=          51 AvBLen=        12.9
 IPart=  2 NShTot=         702 NBatch=          75 AvBLen=         9.4
 IPart= 10 NShTot=         671 NBatch=          57 AvBLen=        11.8
 IPart= 11 NShTot=         668 NBatch=          56 AvBLen=        11.9
 IPart= 18 NShTot=         646 NBatch=          45 AvBLen=        14.4
 IPart=  8 NShTot=         675 NBatch=          59 AvBLen=        11.4
 IPart= 17 NShTot=         652 NBatch=          48 AvBLen=        13.6
 PrSmSu:  NxtVal=            121.
 Entering OneElI...
 Calculate potential energy integrals
    NBasis = 485  MinDer = 2  MaxDer = 2
 Requested accuracy = 0.1000D-12
 PrmmSu-InSpLW:  IPartL=    0 NPrtUS=   20 NPrtUL=    1 DoSpLW=F IThBeg=    0 IThEnd=   19 NThAct=   20.
 PrsmSu:  NPrtUS=  20 ThrOK=T IAlg=1 NPAlg=1 LenDen=           0 ISkipM=0 DoSpLW=F IThBeg=    0 IThEnd=   19.
 Prism:   IPart=     0 DynPar=F LinDyn=F Incr=         136.
 PRISM was handed    33273493 working-precision words and 11843 shell-pairs
 PRISM was handed    33273493 working-precision words and 11843 shell-pairs
 PRISM was handed    33273493 working-precision words and 11843 shell-pairs
 PRISM was handed    33273493 working-precision words and 11843 shell-pairs
 PRISM was handed    33273493 working-precision words and 11843 shell-pairs
 PRISM was handed    33273493 working-precision words and 11843 shell-pairs
 PRISM was handed    33273493 working-precision words and 11843 shell-pairs
 PRISM was handed    33273493 working-precision words and 11843 shell-pairs
 PRISM was handed    33273493 working-precision words and 11843 shell-pairs
 PRISM was handed    33273493 working-precision words and 11843 shell-pairs
 PRISM was handed    33273493 working-precision words and 11843 shell-pairs
 PRISM was handed    33273493 working-precision words and 11843 shell-pairs
 PRISM was handed    33273493 working-precision words and 11843 shell-pairs
 PRISM was handed    33273493 working-precision words and 11843 shell-pairs
 PRISM was handed    33273493 working-precision words and 11843 shell-pairs
 PRISM was handed    33273493 working-precision words and 11843 shell-pairs
 PRISM was handed    33273493 working-precision words and 11843 shell-pairs
 PRISM was handed    33273493 working-precision words and 11843 shell-pairs
 PRISM was handed    33273493 working-precision words and 11843 shell-pairs
 PRISM was handed    33273493 working-precision words and 11843 shell-pairs
 IPart=  4 NShTot=       14099 NBatch=         615 AvBLen=        22.9
 IPart=  1 NShTot=       14260 NBatch=         622 AvBLen=        22.9
 IPart=  9 NShTot=       13547 NBatch=         590 AvBLen=        23.0
 IPart=  0 NShTot=       14329 NBatch=         625 AvBLen=        22.9
 IPart=  6 NShTot=       13846 NBatch=         603 AvBLen=        23.0
 IPart=  7 NShTot=       13685 NBatch=         596 AvBLen=        23.0
 IPart= 14 NShTot=       13294 NBatch=         579 AvBLen=        23.0
 IPart= 13 NShTot=       13363 NBatch=         582 AvBLen=        23.0
 IPart= 16 NShTot=       13156 NBatch=         573 AvBLen=        23.0
 IPart= 17 NShTot=       13087 NBatch=         570 AvBLen=        23.0
 IPart=  8 NShTot=       13570 NBatch=         591 AvBLen=        23.0
 IPart= 10 NShTot=       13524 NBatch=         589 AvBLen=        23.0
 IPart= 12 NShTot=       13409 NBatch=         584 AvBLen=        23.0
 IPart= 11 NShTot=       13478 NBatch=         587 AvBLen=        23.0
 IPart= 18 NShTot=       13064 NBatch=         569 AvBLen=        23.0
 IPart= 15 NShTot=       13225 NBatch=         576 AvBLen=        23.0
 IPart= 19 NShTot=       13064 NBatch=         569 AvBLen=        23.0
 IPart=  2 NShTot=       14237 NBatch=         621 AvBLen=        22.9
 IPart=  5 NShTot=       14007 NBatch=         610 AvBLen=        23.0
 IPart=  3 NShTot=       14145 NBatch=         617 AvBLen=        22.9
 PrSmSu:  NxtVal=           2721.
 Polarizability after L701:
                1             2             3 
      1  0.000000D+00
      2  0.000000D+00  0.000000D+00
      3  0.000000D+00  0.000000D+00  0.000000D+00
 Dipole Derivatives after L701:
                 1             2             3             4             5 
      1  -0.579146D+00 -0.919622D+00  0.361632D+00  0.396352D-01 -0.851483D-01
      2  -0.292967D+00 -0.948198D+00 -0.962491D-01  0.371785D-01 -0.467257D+00
      3   0.330634D+00 -0.524214D-01 -0.639260D+00 -0.578019D-01 -0.120985D+00
                 6             7             8             9            10 
      1  -0.104443D+00 -0.475096D+00  0.921808D+00 -0.256175D+00  0.496968D+00
      2   0.372653D+00  0.182567D+00 -0.109014D+01 -0.104829D+00 -0.411097D+00
      3  -0.985065D+00 -0.368152D+00 -0.764877D-01 -0.560387D+00 -0.152108D-01
                11            12            13            14            15 
      1   0.446315D+00 -0.128316D+01 -0.824533D+00  0.302286D+00  0.146733D+01
      2  -0.551406D+00  0.718256D-01  0.401601D+00 -0.294480D+00  0.179293D+00
      3   0.797269D-01 -0.848636D+00  0.141541D+00  0.169457D+00 -0.902946D+00
                16            17            18            19            20 
      1  -0.260737D+01  0.347083D+00  0.669536D+00 -0.160421D+01 -0.956699D+00
      2   0.287522D+00 -0.997261D+00 -0.149497D+00 -0.127200D+00 -0.116335D+01
      3  -0.133614D+00 -0.853355D-02 -0.877203D+00  0.388342D-01  0.792446D-01
                21            22            23            24            25 
      1  -0.101857D+01 -0.998555D-01 -0.406299D+00  0.181099D-01  0.259633D+00
      2  -0.203155D+00  0.233689D+00  0.530135D+00  0.256636D-01 -0.168813D-01
      3  -0.830359D+00 -0.760529D-01 -0.121503D+00  0.108569D+00  0.990187D-01
                26            27            28            29            30 
      1   0.142191D+00  0.722634D+00  0.100175D+00  0.227920D+00  0.275336D+00
      2   0.138204D+00 -0.159106D-02 -0.875293D-01  0.514177D+00  0.421574D+00
      3   0.149085D+00  0.679901D+00 -0.192081D-01  0.162596D+00  0.316166D+00
                31            32            33            34            35 
      1   0.492843D+00  0.253460D+00 -0.488502D+00  0.179001D+00  0.754027D-01
      2   0.214208D+00  0.285808D+00 -0.339208D+00  0.255401D-01  0.435137D+00
      3  -0.181599D+00 -0.149377D+00  0.420644D+00  0.358086D-01  0.197401D+00
                36            37            38            39            40 
      1   0.111562D-01  0.191167D+00 -0.207486D-01  0.613668D-01  0.471612D+00
      2  -0.287523D-01 -0.195641D-01  0.207820D+00 -0.268688D+00 -0.291753D+00
      3   0.130366D+00  0.317095D-01 -0.189226D+00  0.741926D+00  0.929315D-01
                41            42            43            44            45 
      1  -0.400459D+00  0.432285D+00  0.353517D-01 -0.178976D+00 -0.247920D+00
      2   0.446908D+00 -0.398198D+00  0.216816D+00  0.457673D+00  0.459740D+00
      3  -0.140387D+00  0.323282D+00  0.116959D+00  0.202034D+00  0.395303D+00
                46            47            48            49            50 
      1  -0.129947D+00  0.322436D+00 -0.374537D+00  0.988673D+00 -0.529664D+00
      2  -0.112499D+00  0.293559D+00 -0.164508D+00 -0.135963D+00  0.225647D+00
      3   0.269042D+00 -0.288292D+00  0.465863D+00 -0.338267D+00  0.227637D+00
                51            52            53            54            55 
      1  -0.517100D+00  0.359582D+00  0.665473D+00 -0.947701D+00  0.118355D+01
      2   0.933397D-01 -0.126504D-01  0.146758D+00 -0.701043D-01 -0.102547D+00
      3   0.348252D+00 -0.692623D-01 -0.250043D+00  0.413328D+00  0.185873D+00
                56            57            58            59            60 
      1   0.265095D+00  0.100343D+01  0.192385D+00 -0.109739D+01 -0.374001D+00
      2   0.583593D-01 -0.703427D-01 -0.450656D-02  0.746116D+00  0.197962D+00
      3   0.678871D-01  0.329183D+00 -0.187147D-01  0.166260D+00  0.136065D+00
                61            62            63            64            65 
      1  -0.278205D+00  0.116333D+00  0.508751D+00  0.129001D+01 -0.537314D+00
      2  -0.262062D+00  0.169842D+00  0.319288D+00  0.117385D+00  0.581884D-01
      3  -0.316976D+00  0.701156D-01  0.453188D+00  0.261544D+00 -0.980159D-01
                66            67            68            69 
      1   0.526414D+00  0.317773D+00  0.104652D+01 -0.445872D+00
      2   0.792871D-01  0.160712D+00  0.797762D+00 -0.325504D+00
      3   0.220732D+00 -0.903537D-02 -0.761716D-01  0.161090D+00
 Hessian after L701:
                1             2             3             4             5 
      1  0.146585D+02
      2  0.563916D+00  0.169433D+02
      3 -0.737257D+00  0.317735D+00  0.174404D+02
      4 -0.293661D+01  0.769304D+00  0.122681D+01  0.146443D+02
      5  0.762349D+00 -0.599359D+01  0.245598D+00  0.490325D-01  0.179093D+02
      6  0.121446D+01  0.251176D+00 -0.557009D+01  0.206759D+00 -0.237605D+00
      7  0.341198D+00 -0.154888D+00 -0.653610D-01 -0.344443D+01 -0.108094D+01
      8  0.221136D-01 -0.788324D-01  0.239052D-01 -0.111712D+01 -0.555876D+01
      9 -0.931584D-02  0.318534D-01 -0.617958D-01 -0.155979D+01  0.600377D+00
     10 -0.482219D+01 -0.162035D+01  0.944566D+00  0.210369D+00 -0.210095D+00
     11 -0.160126D+01 -0.402002D+01 -0.111971D+01 -0.601312D-01 -0.262954D-01
     12  0.912529D+00 -0.110060D+01 -0.531249D+01  0.154426D+00 -0.983959D-01
     13  0.238405D+00  0.749618D-01 -0.857836D-01  0.333293D+00  0.822172D-01
     14  0.863796D-01 -0.125168D+00 -0.197201D-01  0.132692D-01 -0.136761D+00
     15 -0.499081D-01 -0.204655D-01 -0.135263D+00 -0.292600D+00 -0.124832D-01
     16  0.220461D+00 -0.128974D+00 -0.607756D-01  0.210995D+00 -0.138938D+00
     17 -0.261007D+00 -0.358479D-02  0.142597D-01 -0.106816D+00 -0.111164D+00
     18  0.182353D-01 -0.257878D-01 -0.106186D+00  0.852008D-01 -0.342843D-01
     19  0.946259D-01  0.581836D-01  0.137553D-01  0.105204D+00  0.228151D+00
     20  0.663240D-01 -0.467966D-01  0.234317D-02  0.119788D+00 -0.646634D-01
     21  0.990522D-03  0.345942D-02 -0.768025D-01 -0.879666D-01 -0.597536D-01
     22  0.180032D+00  0.123725D+00 -0.274613D-01  0.372570D-02  0.200317D-01
     23  0.771371D-01 -0.131598D+00  0.138013D+00 -0.250978D-01  0.848866D-02
     24 -0.115186D-01  0.148995D+00  0.108661D+00 -0.107218D-02  0.173021D-01
     25  0.615593D-01  0.757344D-01 -0.658040D-01  0.324194D-01 -0.196569D-01
     26  0.608167D-01  0.215914D-01  0.118827D+00 -0.113862D-01 -0.460932D-01
     27 -0.343199D-01  0.130644D+00  0.709677D-01  0.101178D+00 -0.280439D-01
     28 -0.449311D+01 -0.810872D-01 -0.103380D+00 -0.235100D-01 -0.130225D+00
     29 -0.184691D+00 -0.292573D+01  0.130618D+01 -0.116186D+00  0.752813D-01
     30 -0.189642D+00  0.126505D+01 -0.333828D+01 -0.102080D+00 -0.337356D-01
     31 -0.369627D+01  0.646104D+00 -0.980993D+00 -0.778098D-01 -0.897933D-01
     32  0.687171D+00 -0.381724D+01 -0.868067D+00 -0.881533D-01  0.860901D-01
     33 -0.100007D+01 -0.824185D+00 -0.308917D+01 -0.398614D-01 -0.146950D-01
     34 -0.350469D-01 -0.153249D+00 -0.812026D-01 -0.486949D+01  0.230112D+00
     35 -0.126319D+00  0.808241D-01 -0.727636D-01  0.258600D+00 -0.195303D+01
     36 -0.970057D-01 -0.978386D-01  0.825820D-01  0.406285D-01  0.249056D+00
     37 -0.644545D-01 -0.340745D-01 -0.858211D-01 -0.442912D+01 -0.197918D-01
     38 -0.251182D-01  0.873340D-01 -0.453784D-01 -0.237442D-01 -0.425325D+01
     39 -0.846030D-01 -0.626776D-01  0.130223D+00  0.173465D+00 -0.463358D+00
     40  0.118883D+00 -0.560847D-01  0.276857D-01 -0.431042D-01  0.118553D+00
     41 -0.614793D-01 -0.243219D-01 -0.109288D-01  0.120919D+00  0.709796D-01
     42  0.424117D-01 -0.226800D-01 -0.368408D-01  0.880431D-01 -0.619454D-01
     43 -0.380610D-01  0.127175D-01  0.465666D-01  0.573473D-01  0.132961D+00
     44  0.270558D-02  0.218807D-01 -0.921599D-02  0.118572D+00  0.397994D-01
     45  0.197728D-01  0.119666D-01 -0.854537D-02  0.127997D+00 -0.945402D-01
     46  0.532678D-02  0.146583D-01 -0.145590D-01  0.448856D-02  0.837705D-02
     47  0.271659D-01 -0.887662D-02 -0.180665D-01  0.281192D-01 -0.296803D-02
     48 -0.300993D-01 -0.104104D-01  0.907321D-03 -0.463892D-01 -0.322036D-01
     49  0.109623D-01 -0.846597D-02 -0.763625D-02  0.127617D+00  0.135545D-02
     50 -0.427068D-02 -0.334711D-02  0.202013D-02 -0.191832D-01 -0.588586D-01
[...]
 7993,0.00000677,-0.00013506,-0.01346940,0.00640331,-0.00001578,-0.0000
 2531,0.00004969,-0.00106260,0.00045672,0.00017296,0.00010366,0.0000455
 8,-0.00011604,-0.00022757,-0.00020489,0.00006774,-0.00077777,0.0006495
 3,-0.00022701,0.00015821,0.00039977,-0.00021257,-0.00229959,-0.0011767
 2,-0.00266360,0.00049853,0.00043992,-0.00013051,0.02134264,0.27800787,
 0.00080005,-0.00023875,0.00077174,-0.00293305,-0.01763357,0.00754982,0
 .01026194,0.09679347,-0.09456641,0.00015120,0.00003166,0.00006602,0.00
 011414,0.00278670,-0.00200477,-0.00003318,0.00001563,0.00002712,-0.000
 02222,-0.00131867,0.00067515,-0.00007029,-0.00013039,-0.00009940,0.000
 00849,0.00011692,-0.00014961,0.00019667,0.00041677,-0.00002737,0.00030
 312,-0.00002938,-0.00004115,-0.00285428,-0.00262777,-0.00105616,0.0008
 2743,0.00031344,0.00082455,-0.00763092,-0.10552118,0.09973689,0.001107
 10,0.00049788,0.00017516,0.00781220,-0.00299040,-0.02157989,-0.0802855
 7,0.01194476,0.08896115,-0.00094983,0.00063334,0.00023062,-0.01341632,
 0.00313608,0.02885611,-0.00001104,-0.00003550,0.00001251,-0.00524038,0
 .00292797,-0.00241463,0.00005562,-0.00018207,0.00018776,-0.00248177,0.
 00024413,-0.00011685,-0.00009256,0.00006322,-0.00001069,0.00017469,-0.
 00002819,0.00028318,0.00078971,0.00053433,0.00083162,-0.00282890,-0.00
 264474,-0.00272722,-0.00152535,0.00006549,0.00192592,0.09550463,0.0004
 0524,0.00028300,0.00064969,0.00679158,-0.00330985,-0.01943122,0.011490
 47,-0.05328766,-0.02908113,0.00023454,0.00043391,0.00000442,0.00625292
 ,-0.00260006,-0.01348654,-0.00005327,-0.00007370,0.00013774,0.00205725
 ,-0.00063218,0.00135576,-0.00013789,-0.00028013,0.00004741,0.00059481,
 0.00029056,0.00009675,-0.00006548,0.00001173,0.00004750,0.00008512,-0.
 00005105,0.00003712,0.00084323,0.00049745,0.00029600,-0.00264812,-0.00
 160667,-0.00247804,-0.01111794,0.00419464,0.02728003,-0.01388642,0.054
 96819,0.00090864,-0.00024527,-0.00022855,0.00519548,-0.00261166,-0.017
 86383,0.08909875,-0.02961767,-0.26993458,0.00023883,-0.00104001,-0.000
 52939,-0.00224368,0.00086383,0.00338286,0.00003685,0.00053302,0.000585
 33,-0.00028204,0.00029866,0.00106809,-0.00019190,0.00009682,-0.0001232
 9,0.00059287,0.00078691,0.00106013,-0.00007734,-0.00001445,0.,-0.00013
 437,0.00005629,0.00021276,-0.00006538,-0.00012836,0.00089572,-0.002740
 15,-0.00239989,-0.00039547,0.00475829,-0.00135856,-0.01268168,-0.09577
 556,0.03531654,0.29323300,-0.00014896,0.00006866,0.00009906,0.00209026
 ,0.00123310,0.00010684,0.00065199,0.02935004,-0.01346097,0.00005945,0.
 00003880,0.00004358,-0.04934266,-0.02138903,0.00833513,-0.00000123,-0.
 00002584,-0.00002542,-0.00201160,-0.01494977,0.00725833,-0.00004146,-0
 .00003820,0.00002674,0.00002999,0.00000063,-0.00006012,0.00007978,-0.0
 0025220,0.00010966,-0.00000573,-0.00010787,0.00003843,-0.00024993,-0.0
 0075648,0.00019424,-0.00008905,-0.00008514,-0.00009644,-0.00548125,0.0
 0270238,-0.00076707,0.00114684,-0.00060961,0.00038902,0.05559976,0.000
 07269,0.00036321,-0.00023515,-0.00097653,0.00076310,-0.00053169,0.0000
 0100,-0.01409581,0.00567036,-0.00001635,-0.00011197,0.00002299,-0.0211
 3693,-0.25953803,0.09637957,0.00001516,0.00003763,-0.00001358,0.000254
 01,0.00400329,-0.00200675,0.00004219,0.00005947,-0.00001404,-0.0000238
 9,0.00000562,0.00006142,-0.00025555,0.00004754,-0.00009106,0.00009137,
 0.00002247,0.00000475,0.00066003,0.00064289,0.00042970,0.00009987,0.00
 000655,0.00000028,0.00290262,0.00016157,-0.00044881,0.00011354,0.00008
 190,-0.00040064,0.01988140,0.28225317,-0.00014467,-0.00019213,0.000060
 51,0.00053186,0.00051655,-0.00021662,-0.00019144,0.00270033,-0.0013395
 2,0.00001068,0.00002557,0.00003977,0.00798662,0.09507156,-0.09158062,0
 .00000011,-0.00001188,-0.00002838,0.00353029,0.02755724,-0.01445749,-0
 .00000971,-0.00000018,0.00001204,0.00000691,-0.00002762,-0.00002320,0.
 00010429,-0.00009058,0.00002128,-0.00002709,-0.00000812,-0.00000120,-0
 .00042801,-0.00019827,-0.00001169,-0.00000435,0.00005739,-0.00001937,-
 0.00033322,0.00022224,0.00083075,-0.00030048,-0.00029400,0.00021854,-0
 .01202723,-0.10574760,0.10066345,-0.00059457,-0.00152246,-0.00127409,-
 0.00475820,0.00500352,0.00090000,-0.01893485,-0.01825772,-0.01837976,0
 .00002329,-0.00004326,-0.00027336,-0.12449261,-0.08122651,-0.08965217,
 -0.00001143,0.00000901,0.00014270,0.00863580,0.01082345,0.01220053,-0.
 00000048,-0.00002157,0.00002263,0.00002040,0.00005643,0.00006680,-0.00
 000075,0.00009381,-0.00002663,-0.00069486,0.00025193,-0.00007940,0.000
 24611,0.00012834,0.00029337,0.00022405,0.00011680,-0.00011587,0.001074
 03,0.00030371,-0.00014340,0.00080882,-0.00062888,0.00055590,-0.0019849
 1,-0.00156315,-0.00105270,0.14028846,0.00056040,0.00065822,0.00028719,
 0.00180238,-0.00119314,-0.00008980,0.00998164,0.00823924,0.00987138,-0
 .00003289,0.00000667,0.00003802,-0.08200571,-0.13247866,-0.09048628,0.
 00000804,-0.00000409,-0.00001264,-0.00044454,-0.00136331,-0.00140795,0
 .00000693,-0.00000304,-0.00000923,-0.00000240,-0.00000734,-0.00003021,
 -0.00010609,0.00002408,-0.00000863,0.00024749,-0.00009695,0.00003050,0
 .00029344,0.00039274,-0.00003101,-0.00000588,-0.00005660,0.00007446,-0
 .00072577,0.00053247,0.00010901,-0.00090141,0.00054103,0.00007899,-0.0
 1629940,-0.01702753,-0.01845013,0.08622158,0.14010482,-0.00001978,-0.0
 0037833,0.00008704,-0.00003165,0.00086936,0.00102761,-0.00130724,-0.00
 119084,-0.00200959,-0.00004913,0.00002924,-0.00006830,-0.08930266,-0.0
 8985891,-0.14743829,-0.00000757,-0.00000597,0.00003619,-0.01481265,-0.
 01809169,-0.02050400,-0.00000310,-0.00000422,0.00000384,0.00001114,-0.
 00000406,0.00000318,0.00003732,0.00000256,-0.00000194,-0.00006902,0.00
 002784,-0.00000575,-0.00008890,-0.00020980,-0.00004179,0.00029831,0.00
 006150,0.00020813,-0.00004158,0.00002158,-0.00023551,0.00014466,0.0003
 9215,0.00072653,0.00791455,0.00710645,0.00868505,0.09448666,0.10050093
 ,0.16214832,0.00141291,-0.00140555,-0.00169474,0.00017277,0.00038517,0
 .00006720,-0.00001494,-0.00007384,-0.00031767,-0.01796402,-0.02107042,
 -0.01760832,0.00006790,0.00002986,0.00021701,-0.11579195,-0.08880430,-
 0.07500110,-0.00006981,0.00002624,-0.00003545,0.00145533,0.00017207,0.
 00016714,-0.00551667,0.00286587,-0.00051314,-0.00001521,0.00005571,0.0
 0006086,-0.00001068,0.00058582,0.00108104,-0.00001881,0.00000181,-0.00
 003697,-0.00001682,0.00003577,0.00003278,0.00001437,-0.00000438,0.0000
 0590,0.00003652,0.00002788,0.00030203,-0.00001109,0.00001216,-0.000009
 06,0.00003069,-0.00001156,0.00000182,0.12874638,-0.00009475,0.00038864
 ,0.00066103,-0.00003353,0.00018469,0.00031173,0.00017834,-0.00009192,0
 .00005832,0.00688096,0.00815576,0.00687382,0.00001373,0.00002699,-0.00
 004482,-0.08977408,-0.16096817,-0.09704746,0.00001345,-0.00000499,0.00
 000722,-0.00075196,0.00084617,0.00017693,0.00292542,0.00043298,0.00033
 918,-0.00004150,-0.00005503,-0.00011936,-0.00046561,0.00005681,0.00008
 875,0.00000413,-0.00003083,0.00000664,-0.00008553,-0.00000141,0.000004
 34,-0.00000831,0.00001152,-0.00000868,-0.00000572,-0.00001171,-0.00006
 653,-0.00000104,-0.00000099,0.00000284,0.00000301,-0.00000213,0.000002
 31,0.09614485,0.17184551,0.00098357,0.00067558,0.00071773,0.00003246,0
 .00008542,0.00011053,0.00010268,-0.00001077,-0.00013373,-0.00313214,-0
 .00313165,-0.00396252,0.00002280,-0.00000518,0.00003798,-0.07558166,-0
 .09685027,-0.13039478,-0.00001771,0.00001572,-0.00000916,-0.00001282,0
 .00004741,-0.00016785,-0.00077266,0.00090427,0.00078127,0.00000600,0.0
 0005662,-0.00000828,-0.00013971,-0.00012094,0.00044948,-0.00002781,0.0
 0003137,-0.00003885,-0.00003417,0.00001756,0.00000822,-0.00000360,0.00
 000099,0.00000744,-0.00001810,-0.00001644,0.00006232,-0.00000293,0.000
 00715,-0.00000136,-0.00000457,-0.00000250,-0.00000219,0.08480409,0.106
 59172,0.13826256,0.00188747,0.00042354,-0.00132015,-0.00013488,-0.0000
 4179,-0.00004846,0.00005541,-0.00002617,-0.00007095,-0.00033986,0.0299
 7875,-0.01530751,0.00000059,0.00000277,0.00002859,-0.04646687,-0.00501
 101,0.00259806,-0.00000290,0.00000250,-0.00000063,-0.00611547,0.002216
 15,-0.00067391,0.00148318,-0.00066515,0.00001698,-0.00023371,-0.000568
 81,0.00055549,-0.00000143,-0.00006868,0.00018161,0.00009488,-0.0002489
 8,0.00009194,-0.00001247,-0.00009630,0.00005851,-0.00004986,-0.0000373
 6,0.00003031,0.00004265,0.00006033,0.00002455,0.00001480,-0.00001720,0
 .00000102,0.00000613,-0.00000048,0.00000018,-0.00093331,-0.01408037,0.
 00900899,0.05167088,-0.00092941,0.00030081,0.00026858,0.00013516,0.000
 31792,-0.00024914,-0.00002051,-0.00001386,0.00007977,0.00040373,-0.009
 71244,0.00487891,-0.00001007,0.00000365,-0.00003816,-0.00429634,-0.253
 81813,0.11011281,0.00001541,-0.00001397,0.00000858,0.00226623,0.001002
 70,0.00019935,0.00022356,0.00074597,-0.00011917,0.00061749,0.00008357,
 -0.00060591,0.00005449,-0.00017588,-0.00000913,-0.00021555,0.00013889,
 0.00001094,0.00009219,-0.00000853,-0.00003300,0.00003001,0.00002733,-0
 .00001911,-0.00003737,-0.00003248,-0.00005776,-0.00000754,0.00000800,-
 0.00000194,0.00000174,0.00000034,0.00000264,-0.00015458,-0.01821336,0.
 01034031,0.00228776,0.27483552,0.00019018,-0.00089302,0.00059502,0.000
 01303,-0.00022467,0.00000731,-0.00000416,0.00006367,-0.00000798,-0.000
 33240,0.00458383,-0.00324269,-0.00000446,-0.00002881,-0.00000551,0.002
 24873,0.11017744,-0.10684301,-0.00000701,0.00000815,-0.00000273,-0.001
 07217,-0.00009117,0.00069913,0.00006200,0.00008625,-0.00022923,-0.0000
 6170,0.00015084,0.00048431,-0.00016733,-0.00006089,-0.00000080,0.00010
 599,-0.00001125,-0.00009026,-0.00003230,0.00000484,0.00001056,-0.00001
 934,-0.00001946,0.00003083,0.00000739,0.00002858,-0.00000154,0.0000089
 0,-0.00000609,0.00000306,-0.00002228,0.00000081,-0.00000626,0.00041788
 ,-0.01694063,0.00944111,-0.00122052,-0.12241613,0.11201994,-0.00560847
 ,0.00245265,-0.00346663,-0.00029990,-0.00001825,0.00209553,0.00012508,
 0.00017669,0.00020449,-0.01377175,0.00242633,0.02835262,0.00000838,-0.
 00007661,-0.00005340,-0.10674647,0.01424159,0.11068819,-0.00002082,0.0
 0004209,-0.00000042,0.00126294,0.00016226,-0.00024324,0.00094635,-0.00
 088585,-0.00003746,0.00012391,-0.00016191,-0.00023506,0.00019189,0.000
 19990,-0.00003266,0.00001936,0.00006717,-0.00005008,-0.00065697,0.0002
 9141,-0.00002516,-0.00000967,-0.00003040,0.00000214,0.00002049,-0.0000
 2581,-0.00008489,0.00000644,0.00001703,0.00001295,-0.00007246,-0.00000
 358,-0.00001836,0.00844083,-0.00082319,-0.01520789,-0.00096131,-0.0004
 6456,-0.00010804,0.11700816,0.00196249,-0.00054674,0.00098491,0.000351
 91,0.00057088,-0.00063895,0.00005810,-0.00012118,-0.00004845,0.0043653
 4,-0.00241309,-0.01023917,0.00001186,0.00004881,0.00002634,0.01420426,
 -0.05096545,-0.02685348,0.00000674,-0.00001668,0.00000400,-0.00045422,
 -0.00003994,-0.00033448,-0.00042528,0.00032606,0.00037530,0.00027650,0
 .00027406,-0.00035019,-0.00000780,0.00012475,0.00050856,-0.00010768,0.
 00000993,0.00001696,0.00020887,-0.00009195,-0.00000108,0.00000727,0.00
 000708,0.00000108,-0.00000959,0.00001633,0.00001386,-0.00000094,-0.000
 00957,-0.00000219,0.00002671,-0.00000356,0.00000668,0.01116954,-0.0025
 6468,-0.01863256,-0.01410898,0.00451717,0.02559657,-0.01753718,0.05086
 255,-0.00062765,0.00002875,0.00042354,-0.00039368,0.00026405,0.0003507
 1,0.00010726,-0.00009488,-0.00001094,-0.00429463,0.00094055,0.00676590
 ,-0.00000512,0.00005192,0.00001786,0.11190384,-0.02727354,-0.25351874,
 0.00000797,-0.00000877,0.00000990,0.00058413,-0.00037082,0.00033511,0.
 00067599,-0.00007020,0.00048474,-0.00021816,-0.00008192,0.00010729,-0.
 00006305,0.00030249,0.00027900,0.00006399,-0.00004472,0.00001464,-0.00
 007325,0.00004062,-0.00001424,-0.00000437,0.00000409,-0.00000538,-0.00
 000854,-0.00000705,-0.00001571,-0.00000109,-0.00000863,-0.00000306,0.0
 0003459,-0.00000118,0.00000610,0.00802265,-0.00088571,-0.01516469,0.00
 603859,-0.00234417,-0.01286004,-0.12175041,0.02955687,0.27280153,-0.00
 003735,0.00002431,0.00001684,-0.00070976,0.00000200,-0.00046831,0.0007
 7346,0.00032369,-0.00051772,0.00002917,-0.00000493,0.00005558,0.008968
 45,0.01168667,0.00996989,0.00000552,0.00000170,-0.00003052,-0.10500544
 ,-0.08115744,-0.07650249,-0.00000367,0.00000400,-0.00000173,-0.0000026
 5,0.00000110,0.00000267,0.00002628,-0.00002795,0.00000712,0.00002969,-
 0.00000052,0.00001385,0.00002887,-0.00017319,0.00002369,-0.00246713,0.
 00050387,0.00055800,-0.00008852,0.00003225,0.00001173,0.00005014,-0.00
 021944,-0.00017107,0.00070508,-0.00013260,-0.00097304,-0.00104601,0.00
 069934,0.00341885,0.00000172,0.00000204,0.00000490,-0.00000139,-0.0000
 0150,0.00000429,0.00001833,-0.00000637,-0.00000775,0.11368745,0.000031
 40,-0.00002952,0.00052785,-0.00009144,0.00015967,-0.00099987,-0.000607
 74,-0.00030041,-0.00048741,-0.00014306,0.00005838,-0.00012016,0.000047
 04,-0.00100154,-0.00019365,-0.00000946,0.00001185,0.00008630,-0.080267
 47,-0.15978193,-0.10521301,-0.00000192,-0.00000910,0.00000051,0.000001
 71,0.00002799,0.00003203,0.00001182,-0.00000607,-0.00002437,0.00004220
 ,-0.00000483,-0.00000619,0.00000069,-0.00019807,0.00015796,0.00015549,
 0.00035559,0.00069405,0.00000185,0.00002466,-0.00003420,0.00019935,0.0
 0008972,0.00009431,0.00060619,0.00065915,-0.00000920,0.00028517,0.0013
 5099,0.00016236,0.00000860,-0.00000157,-0.00000451,0.00000142,-0.00000
 015,-0.00000734,-0.00003609,0.00001036,0.00000553,0.08881083,0.1691677
 4,0.00014018,0.00015137,0.00048464,-0.00020567,-0.00011828,-0.00029845
 ,-0.00082899,0.00031496,0.00049639,-0.00015518,0.00002946,-0.00012621,
 -0.01467583,-0.01911070,-0.01873046,-0.00001418,0.00001564,0.00008146,
 -0.07559718,-0.10465354,-0.14544592,0.00000637,-0.00000614,-0.00000983
 ,0.00000347,0.00003711,0.00002526,-0.00005291,0.00005504,-0.00002277,0
 .00007264,-0.00002988,0.00000377,0.00011656,0.00005847,-0.00012007,-0.
 00002534,0.00008252,0.00107544,0.00011424,0.00000535,0.00001048,0.0000
 6215,0.00012355,0.00013064,-0.00055341,0.00049418,0.00108495,0.0037972
 5,-0.00013696,-0.00471601,0.00001023,-0.00000353,0.00000061,0.00000123
 ,0.00000144,-0.00000525,-0.00003287,0.00000749,0.00000213,0.08204190,0
 .11579990,0.15978787,-0.00002110,0.00001172,-0.00003587,-0.00015014,0.
 00012274,-0.00008391,0.00103162,-0.00173153,0.00014323,0.00001543,-0.0
 0001409,0.00001548,-0.00209938,-0.01476126,0.00772233,-0.00000187,0.00
 000484,-0.00000939,-0.04763317,-0.00960736,0.00366133,0.00000580,0.000
 00869,-0.00000834,-0.00000614,0.00000301,0.00001120,-0.00004355,0.0000
 4192,-0.00001347,0.00001271,0.00001032,-0.00000096,0.00020528,0.000102
 58,-0.00007456,0.00003882,-0.00013588,-0.00014603,-0.00009884,0.000602
 56,-0.00010269,0.00021670,0.00016197,-0.00020559,-0.00104575,0.0004513
 6,0.00336004,0.00031142,0.00045905,-0.00060042,0.00000395,0.00000074,0
 .00000430,-0.00000334,0.00000146,0.00000211,0.00001060,-0.00000307,-0.
 00000593,-0.00115982,-0.01391684,0.00792489,0.04782371,0.00002133,-0.0
 0005785,0.00004852,-0.00021652,0.00007860,0.00004197,0.00007813,0.0010
 0223,-0.00047472,-0.00001763,0.00002946,-0.00001538,0.00019825,0.00290
 076,-0.00108894,-0.00000326,-0.00000880,0.00001026,-0.00976123,-0.2581
 6302,0.10566451,0.00000847,0.00000341,-0.00001271,0.00000362,-0.000011
 27,-0.00000867,-0.00003522,0.00005779,0.00000094,-0.00002791,-0.000002
 92,-0.00000618,0.00008497,0.00002901,-0.00011513,-0.00014751,-0.000253
 77,0.00011089,-0.00068687,0.00007356,0.00018246,-0.00010449,0.00023462
 ,-0.00011102,0.00087133,0.00150842,-0.00078986,-0.00024742,0.00048825,
 0.00057174,-0.00000383,-0.00000093,-0.00000113,-0.00000229,0.00000751,
 -0.00000238,-0.00000630,0.00000240,0.00000098,0.00034410,-0.01807312,0
 .00941414,0.01038185,0.27893086,0.00003241,0.00004244,0.00004884,0.000
 17629,-0.00004841,0.00007891,-0.00148355,0.00079493,0.00143106,0.00000
 637,0.00002195,0.00000956,0.00225424,0.02767250,-0.01466724,-0.0000025
 3,-0.00000446,-0.00000634,0.00391945,0.10517886,-0.09943039,-0.0000064
 5,-0.00001212,0.00000469,-0.00000156,-0.00000090,-0.00000779,0.0000252
 4,-0.00000983,0.00001123,0.00002643,-0.00000848,0.00000407,-0.00010922
 ,-0.00011244,-0.00010540,0.00015519,0.00003474,-0.00010504,0.00058878,
 -0.00081758,0.00036750,-0.00042582,-0.00029619,0.00019214,0.00308004,-
 0.00123191,-0.00496107,-0.00080784,-0.00007495,0.00069441,-0.00000129,
 -0.00000057,-0.00000015,0.00000371,-0.00000370,0.00000427,0.00000266,-
 0.00000004,-0.00000151,0.00035745,-0.01811504,0.00969750,-0.00787460,-
 0.11683011,0.10973274,0.00003922,-0.00006022,0.00018308,0.00038922,0.0
 0026817,-0.00001585,0.00012601,-0.00057943,0.00350889,-0.00008909,0.00
 009805,-0.00006715,-0.01307557,0.00449068,-0.00337365,0.00000051,-0.00
 003428,0.00003778,-0.28283259,0.08186911,-0.03690619,0.00000815,-0.000
 00960,0.00000170,0.00001379,-0.00004245,-0.00004173,0.00000222,0.00002
 553,0.00000449,-0.00005431,-0.00000747,-0.00002498,-0.00005583,-0.0000
 6113,0.00004231,0.00011338,0.00002855,0.00023765,0.00017607,-0.0000348
 5,-0.00008192,-0.00093440,0.00038751,-0.00012923,0.00002923,-0.0004922
 4,-0.00004375,0.00092192,0.00025942,0.00003858,-0.00002008,-0.00000105
 ,-0.00001400,0.00000083,0.00000822,-0.00000880,-0.00003495,0.00001152,
 0.00001462,-0.01380243,0.00487025,-0.00214954,0.00258704,-0.00073158,0
 .00008462,0.30649164,0.00003747,0.00000018,0.00021942,-0.00023609,0.00
 010441,-0.00036753,0.00015561,0.00034088,-0.00113883,-0.00007018,0.000
 01987,-0.00004941,0.00148531,-0.00193888,0.00035909,-0.00000936,0.0000
 0844,0.00003551,0.08172483,-0.07562884,0.01322546,-0.00000023,-0.00000
 298,-0.00000651,-0.00000152,0.00002123,0.00001759,-0.00002501,0.000025
 41,-0.00001147,0.00003090,-0.00000404,0.00000239,0.00005258,-0.0000020
 8,0.00001318,-0.00004111,-0.00008327,0.00036764,-0.00035595,0.00045651
 ,-0.00003662,0.00046580,0.00024244,-0.00008742,-0.00022948,0.00015992,
 -0.00033002,0.00018576,-0.00010250,-0.00001353,0.00000714,-0.00000135,
 0.00000186,0.00000035,-0.00000058,0.00000085,-0.00000739,0.00000245,-0
 .00000427,-0.02071196,0.00749021,-0.00253161,0.02780521,-0.00877518,0.
 00382131,-0.09026270,0.07766779,0.00006749,0.00009600,0.00028744,-0.00
 035830,-0.00033687,-0.00077454,0.00160290,0.00037694,-0.00603149,-0.00
 005625,-0.00005125,-0.00007291,0.02943783,-0.01106068,0.00500077,0.000
 00080,0.00004955,0.00006646,-0.03820744,0.01366853,-0.05189129,-0.0000
 0535,0.00000383,-0.00000214,-0.00000563,0.00007639,0.00007046,-0.00000
 968,-0.00001527,-0.00001931,0.00008196,-0.00001162,0.00002269,0.000007
 26,0.00002630,0.00008110,-0.00002125,0.00013474,0.00053184,-0.00017902
 ,-0.00010856,-0.00003084,0.00169956,-0.00072261,0.00000596,-0.00060981
 ,0.00055911,0.00102418,-0.00066836,-0.00024983,0.00140323,0.00002712,-
 0.00000755,0.00000433,0.00000235,-0.00000601,-0.00000023,-0.00001198,0
 .00000196,-0.00000414,-0.01781412,0.00765416,-0.00340614,-0.01368314,0
 .00340983,-0.00299197,0.03870306,-0.01348707,0.05672654\\0.00000023,-0
 .00000022,-0.00000004,-0.00000012,-0.00000002,0.00000015,-0.00000012,0
 .00000009,-0.00000007,0.00000016,0.00000012,-0.00000013,-0.00000005,0.
 00000023,0.00000030,-0.00000024,0.00000008,-0.00000040,0.00000009,-0.0
 0000014,0.00000019,-0.00000007,0.00000028,0.00000006,-0.00000015,0.000
 00026,-0.00000025,0.00000007,-0.00000035,-0.00000037,0.00000009,-0.000
 00042,0.00000006,0.00000008,-0.00000001,0.00000042,0.00000011,-0.00000
 034,0.00000019,-0.00000003,0.,-0.00000027,-0.00000003,0.00000037,-0.00
 000009,0.,0.00000026,0.00000048,-0.00000004,0.00000041,0.00000010,0.,-
 0.00000015,-0.00000023,-0.00000006,-0.00000008,-0.00000061,-0.00000015
 ,0.00000026,-0.00000039,0.00000009,-0.00000032,0.00000045,0.00000006,-
 0.00000022,0.00000003,0.00000009,-0.00000008,0.00000044\\\@


 DON'T WORRY CHARLIE BROWN...WE LEARN MORE FROM LOSING 
 THAN WE DO FROM WINNING.
 THEN THAT MAKES ME THE SMARTEST PERSON IN THE WORLD...
 CHARLES SCHULZ 'PEANUTS'
 Job cpu time:       0 days  6 hours 57 minutes 17.2 seconds.
 Elapsed time:       0 days  3 hours 28 minutes 42.8 seconds.
 File lengths (MBytes):  RWF=   1488 Int=      0 D2E=      0 Chk=     32 Scr=     32
 Normal termination of Gaussian 16 at Sat Sep 28 23:03:59 2019.
