 Entering Gaussian System, Link 0=g16
 Input=med/species/CCCCCCC/conformers/CCCCCCC_804.com
 Output=med/species/CCCCCCC/conformers/CCCCCCC_804.log
 Initial command:
 /shared/centos7/gaussian/g16/l1.exe "/scratch/harms.n/gauss_scrdir/Gau-22402.inp" -scrdir="/scratch/harms.n/gauss_scrdir/"
 Entering Link 1 = /shared/centos7/gaussian/g16/l1.exe PID=     22405.
  
 Copyright (c) 1988,1990,1992,1993,1995,1998,2003,2009,2016,
            Gaussian, Inc.  All Rights Reserved.
  
 This is part of the Gaussian(R) 16 program.  It is based on
 the Gaussian(R) 09 system (copyright 2009, Gaussian, Inc.),
 the Gaussian(R) 03 system (copyright 2003, Gaussian, Inc.),
 the Gaussian(R) 98 system (copyright 1998, Gaussian, Inc.),
 the Gaussian(R) 94 system (copyright 1995, Gaussian, Inc.),
 the Gaussian 92(TM) system (copyright 1992, Gaussian, Inc.),
 the Gaussian 90(TM) system (copyright 1990, Gaussian, Inc.),
 the Gaussian 88(TM) system (copyright 1988, Gaussian, Inc.),
 the Gaussian 86(TM) system (copyright 1986, Carnegie Mellon
 University), and the Gaussian 82(TM) system (copyright 1983,
 Carnegie Mellon University). Gaussian is a federally registered
 trademark of Gaussian, Inc.
  
 This software contains proprietary and confidential information,
 including trade secrets, belonging to Gaussian, Inc.
  
 This software is provided under written license and may be
 used, copied, transmitted, or stored only in accord with that
 written license.
  
 The following legend is applicable only to US Government
 contracts under FAR:
  
                    RESTRICTED RIGHTS LEGEND
  
 Use, reproduction and disclosure by the US Government is
 subject to restrictions as set forth in subparagraphs (a)
 and (c) of the Commercial Computer Software - Restricted
 Rights clause in FAR 52.227-19.
  
 Gaussian, Inc.
 340 Quinnipiac St., Bldg. 40, Wallingford CT 06492
  
  
 ---------------------------------------------------------------
 Warning -- This program may not be used in any manner that
 competes with the business of Gaussian, Inc. or will provide
 assistance to any competitor of Gaussian, Inc.  The licensee
 of this program is prohibited from giving any competitor of
 Gaussian, Inc. access to this program.  By using this program,
 the user acknowledges that Gaussian, Inc. is engaged in the
 business of creating and licensing software in the field of
 computational chemistry and represents and warrants to the
 licensee that it is not a competitor of Gaussian, Inc. and that
 it will not use this program in any manner prohibited above.
 ---------------------------------------------------------------
  

 Cite this work as:
 Gaussian 16, Revision A.03,
 M. J. Frisch, G. W. Trucks, H. B. Schlegel, G. E. Scuseria, 
 M. A. Robb, J. R. Cheeseman, G. Scalmani, V. Barone, 
 G. A. Petersson, H. Nakatsuji, X. Li, M. Caricato, A. V. Marenich, 
 J. Bloino, B. G. Janesko, R. Gomperts, B. Mennucci, H. P. Hratchian, 
 J. V. Ortiz, A. F. Izmaylov, J. L. Sonnenberg, D. Williams-Young, 
 F. Ding, F. Lipparini, F. Egidi, J. Goings, B. Peng, A. Petrone, 
 T. Henderson, D. Ranasinghe, V. G. Zakrzewski, J. Gao, N. Rega, 
 G. Zheng, W. Liang, M. Hada, M. Ehara, K. Toyota, R. Fukuda, 
 J. Hasegawa, M. Ishida, T. Nakajima, Y. Honda, O. Kitao, H. Nakai, 
 T. Vreven, K. Throssell, J. A. Montgomery, Jr., J. E. Peralta, 
 F. Ogliaro, M. J. Bearpark, J. J. Heyd, E. N. Brothers, K. N. Kudin, 
 V. N. Staroverov, T. A. Keith, R. Kobayashi, J. Normand, 
 K. Raghavachari, A. P. Rendell, J. C. Burant, S. S. Iyengar, 
 J. Tomasi, M. Cossi, J. M. Millam, M. Klene, C. Adamo, R. Cammi, 
 J. W. Ochterski, R. L. Martin, K. Morokuma, O. Farkas, 
 J. B. Foresman, and D. J. Fox, Gaussian, Inc., Wallingford CT, 2016.
 
 ******************************************
 Gaussian 16:  EM64L-G16RevA.03 25-Dec-2016
                28-Sep-2019 
 ******************************************
 %nprocshared=20
 Will use up to   20 processors via shared memory.
 %mem=5GB
 ----------------------------------------------------------------------
 #p m062x/cc-pVTZ opt=(calcfc,maxcycles=900,Tight) freq IOP(7/33=1,2/16
 =3) scf=(maxcycle=900)
 ----------------------------------------------------------------------
 1/6=900,7=10,10=4,18=20,19=15,26=3,38=1/1,3;
 2/9=110,12=2,16=3,17=6,18=5,40=1/2;
 3/5=16,6=1,11=2,25=1,30=1,71=2,74=-55,140=1/1,2,3;
 4//1;
 5/5=2,7=900,38=5/2;
 8/6=4,10=90,11=11/1;
 11/6=1,8=1,9=11,15=111,16=1/1,2,10;
 10/6=1,13=1/2;
 6/7=2,8=2,9=2,10=2,28=1/1;
 7/10=1,18=20,25=1,33=1/1,2,3,16;
 1/6=900,7=10,10=4,18=20,19=15,26=3/3(2);
 2/9=110,16=3/2;
 99//99;
 2/9=110,16=3/2;
 3/5=16,6=1,11=2,25=1,30=1,71=1,74=-55/1,2,3;
 4/5=5,16=3,69=1/1;
 5/5=2,7=900,38=5/2;
 7/33=1/1,2,3,16;
 1/6=900,7=10,18=20,19=15,26=3/3(-5);
 2/9=110,16=3/2;
 6/7=2,8=2,9=2,10=2,19=2,28=1/1;
 99/9=1/99;
 Leave Link    1 at Sat Sep 28 01:51:53 2019, MaxMem=   671088640 cpu:               4.1 elap:               2.1
 (Enter /shared/centos7/gaussian/g16/l101.exe)
 ------------------------------
 Gaussian input prepared by ASE
 ------------------------------
 Symbolic Z-matrix:
 Charge =  0 Multiplicity = 1
 C                     1.34956  -1.11336   0.47792 
 C                     0.12169  -0.39143   0.91736 
 C                     0.38438   0.93413   1.58733 
 C                     2.16753  -0.51321  -0.61559 
 C                     1.25137   0.85813   2.82193 
 C                     1.65908   0.72085  -1.23861 
 C                     2.56969   1.57532   2.68931 
 H                     2.32188  -1.2953   -1.41161 
 H                     3.19718  -0.33177  -0.22488 
 H                     1.05001  -2.14096   0.18145 
 H                     1.99327  -1.25071   1.3709 
 H                    -0.43619  -1.04417   1.60684 
 H                    -0.55386  -0.21076   0.05466 
 H                    -0.58334   1.3922    1.85344 
 H                     0.84764   1.60469   0.83441 
 H                     0.69175   1.30082   3.68702 
 H                     1.45038  -0.19514   3.08324 
 H                     0.65969   0.99794  -0.8535 
 H                     2.35332   1.59088  -1.04206 
 H                     1.57007   0.61741  -2.34082 
 H                     2.47374   2.48734   2.09889 
 H                     3.33027   0.91805   2.18397 
 H                     2.97942   1.85755   3.70141 
 
 ITRead=  0  0  0  0  0  0  0  0  0  0  0  0  0  0  0  0  0  0  0  0
 ITRead=  0  0  0
 MicOpt= -1 -1 -1 -1 -1 -1 -1 -1 -1 -1 -1 -1 -1 -1 -1 -1 -1 -1 -1 -1
 MicOpt= -1 -1 -1
 NAtoms=     23 NQM=       23 NQMF=       0 NMMI=      0 NMMIF=      0
                NMic=       0 NMicF=      0.
                    Isotopes and Nuclear Properties:
 (Nuclear quadrupole moments (NQMom) in fm**2, nuclear magnetic moments (NMagM)
  in nuclear magnetons)

  Atom         1           2           3           4           5           6           7           8           9          10
 IAtWgt=          12          12          12          12          12          12          12           1           1           1
 AtmWgt=  12.0000000  12.0000000  12.0000000  12.0000000  12.0000000  12.0000000  12.0000000   1.0078250   1.0078250   1.0078250
 NucSpn=           0           0           0           0           0           0           0           1           1           1
 AtZEff=  -0.0000000  -0.0000000  -0.0000000  -0.0000000  -0.0000000  -0.0000000  -0.0000000  -0.0000000  -0.0000000  -0.0000000
 NQMom=    0.0000000   0.0000000   0.0000000   0.0000000   0.0000000   0.0000000   0.0000000   0.0000000   0.0000000   0.0000000
 NMagM=    0.0000000   0.0000000   0.0000000   0.0000000   0.0000000   0.0000000   0.0000000   2.7928460   2.7928460   2.7928460
 AtZNuc=   6.0000000   6.0000000   6.0000000   6.0000000   6.0000000   6.0000000   6.0000000   1.0000000   1.0000000   1.0000000

  Atom        11          12          13          14          15          16          17          18          19          20
 IAtWgt=           1           1           1           1           1           1           1           1           1           1
 AtmWgt=   1.0078250   1.0078250   1.0078250   1.0078250   1.0078250   1.0078250   1.0078250   1.0078250   1.0078250   1.0078250
 NucSpn=           1           1           1           1           1           1           1           1           1           1
 AtZEff=  -0.0000000  -0.0000000  -0.0000000  -0.0000000  -0.0000000  -0.0000000  -0.0000000  -0.0000000  -0.0000000  -0.0000000
 NQMom=    0.0000000   0.0000000   0.0000000   0.0000000   0.0000000   0.0000000   0.0000000   0.0000000   0.0000000   0.0000000
 NMagM=    2.7928460   2.7928460   2.7928460   2.7928460   2.7928460   2.7928460   2.7928460   2.7928460   2.7928460   2.7928460
 AtZNuc=   1.0000000   1.0000000   1.0000000   1.0000000   1.0000000   1.0000000   1.0000000   1.0000000   1.0000000   1.0000000

  Atom        21          22          23
 IAtWgt=           1           1           1
 AtmWgt=   1.0078250   1.0078250   1.0078250
 NucSpn=           1           1           1
 AtZEff=  -0.0000000  -0.0000000  -0.0000000
 NQMom=    0.0000000   0.0000000   0.0000000
 NMagM=    2.7928460   2.7928460   2.7928460
 AtZNuc=   1.0000000   1.0000000   1.0000000
 Leave Link  101 at Sat Sep 28 01:51:54 2019, MaxMem=   671088640 cpu:               2.1 elap:               1.0
 (Enter /shared/centos7/gaussian/g16/l103.exe)

 GradGradGradGradGradGradGradGradGradGradGradGradGradGradGradGradGradGrad
 Berny optimization.
 Initialization pass.
                           ----------------------------
                           !    Initial Parameters    !
                           ! (Angstroms and Degrees)  !
 --------------------------                            --------------------------
 ! Name  Definition              Value          Derivative Info.                !
 --------------------------------------------------------------------------------
 ! R1    R(1,2)                  1.4906         calculate D2E/DX2 analytically  !
 ! R2    R(1,4)                  1.4917         calculate D2E/DX2 analytically  !
 ! R3    R(1,10)                 1.1107         calculate D2E/DX2 analytically  !
 ! R4    R(1,11)                 1.1093         calculate D2E/DX2 analytically  !
 ! R5    R(2,3)                  1.5083         calculate D2E/DX2 analytically  !
 ! R6    R(2,12)                 1.1012         calculate D2E/DX2 analytically  !
 ! R7    R(2,13)                 1.1105         calculate D2E/DX2 analytically  !
 ! R8    R(3,5)                  1.5105         calculate D2E/DX2 analytically  !
 ! R9    R(3,14)                 1.1032         calculate D2E/DX2 analytically  !
 ! R10   R(3,15)                 1.1096         calculate D2E/DX2 analytically  !
 ! R11   R(4,6)                  1.473          calculate D2E/DX2 analytically  !
 ! R12   R(4,8)                  1.1266         calculate D2E/DX2 analytically  !
 ! R13   R(4,9)                  1.1161         calculate D2E/DX2 analytically  !
 ! R14   R(5,7)                  1.5066         calculate D2E/DX2 analytically  !
 ! R15   R(5,16)                 1.1214         calculate D2E/DX2 analytically  !
 ! R16   R(5,17)                 1.1033         calculate D2E/DX2 analytically  !
 ! R17   R(6,18)                 1.1063         calculate D2E/DX2 analytically  !
 ! R18   R(6,19)                 1.1303         calculate D2E/DX2 analytically  !
 ! R19   R(6,20)                 1.1106         calculate D2E/DX2 analytically  !
 ! R20   R(7,21)                 1.0907         calculate D2E/DX2 analytically  !
 ! R21   R(7,22)                 1.1251         calculate D2E/DX2 analytically  !
 ! R22   R(7,23)                 1.1278         calculate D2E/DX2 analytically  !
 ! A1    A(2,1,4)              118.2266         calculate D2E/DX2 analytically  !
 ! A2    A(2,1,10)             107.7349         calculate D2E/DX2 analytically  !
 ! A3    A(2,1,11)             107.4959         calculate D2E/DX2 analytically  !
 ! A4    A(4,1,10)             108.933          calculate D2E/DX2 analytically  !
 ! A5    A(4,1,11)             108.7674         calculate D2E/DX2 analytically  !
 ! A6    A(10,1,11)            104.8818         calculate D2E/DX2 analytically  !
 ! A7    A(1,2,3)              114.4012         calculate D2E/DX2 analytically  !
 ! A8    A(1,2,12)             108.3494         calculate D2E/DX2 analytically  !
 ! A9    A(1,2,13)             110.5405         calculate D2E/DX2 analytically  !
 ! A10   A(3,2,12)             109.3322         calculate D2E/DX2 analytically  !
 ! A11   A(3,2,13)             107.9404         calculate D2E/DX2 analytically  !
 ! A12   A(12,2,13)            105.9408         calculate D2E/DX2 analytically  !
 ! A13   A(2,3,5)              114.7584         calculate D2E/DX2 analytically  !
 ! A14   A(2,3,14)             108.6194         calculate D2E/DX2 analytically  !
 ! A15   A(2,3,15)             107.6031         calculate D2E/DX2 analytically  !
 ! A16   A(5,3,14)             109.0992         calculate D2E/DX2 analytically  !
 ! A17   A(5,3,15)             110.2051         calculate D2E/DX2 analytically  !
 ! A18   A(14,3,15)            106.1994         calculate D2E/DX2 analytically  !
 ! A19   A(1,4,6)              117.25           calculate D2E/DX2 analytically  !
 ! A20   A(1,4,8)              108.2889         calculate D2E/DX2 analytically  !
 ! A21   A(1,4,9)              108.3402         calculate D2E/DX2 analytically  !
 ! A22   A(6,4,8)              109.2726         calculate D2E/DX2 analytically  !
 ! A23   A(6,4,9)              109.2872         calculate D2E/DX2 analytically  !
 ! A24   A(8,4,9)              103.5218         calculate D2E/DX2 analytically  !
 ! A25   A(3,5,7)              113.9745         calculate D2E/DX2 analytically  !
 ! A26   A(3,5,16)             108.9189         calculate D2E/DX2 analytically  !
 ! A27   A(3,5,17)             110.1907         calculate D2E/DX2 analytically  !
 ! A28   A(7,5,16)             108.4608         calculate D2E/DX2 analytically  !
 ! A29   A(7,5,17)             108.5088         calculate D2E/DX2 analytically  !
 ! A30   A(16,5,17)            106.5096         calculate D2E/DX2 analytically  !
 ! A31   A(4,6,18)             111.9898         calculate D2E/DX2 analytically  !
 ! A32   A(4,6,19)             111.0594         calculate D2E/DX2 analytically  !
 ! A33   A(4,6,20)             111.6784         calculate D2E/DX2 analytically  !
 ! A34   A(18,6,19)            107.5499         calculate D2E/DX2 analytically  !
 ! A35   A(18,6,20)            107.2414         calculate D2E/DX2 analytically  !
 ! A36   A(19,6,20)            107.0673         calculate D2E/DX2 analytically  !
 ! A37   A(5,7,21)             111.6371         calculate D2E/DX2 analytically  !
 ! A38   A(5,7,22)             110.6687         calculate D2E/DX2 analytically  !
 ! A39   A(5,7,23)             110.9792         calculate D2E/DX2 analytically  !
 ! A40   A(21,7,22)            107.7477         calculate D2E/DX2 analytically  !
 ! A41   A(21,7,23)            107.9695         calculate D2E/DX2 analytically  !
 ! A42   A(22,7,23)            107.6785         calculate D2E/DX2 analytically  !
 ! D1    D(4,1,2,3)            -66.5849         calculate D2E/DX2 analytically  !
 ! D2    D(4,1,2,12)           171.1762         calculate D2E/DX2 analytically  !
 ! D3    D(4,1,2,13)            55.5004         calculate D2E/DX2 analytically  !
 ! D4    D(10,1,2,3)           169.4767         calculate D2E/DX2 analytically  !
 ! D5    D(10,1,2,12)           47.2378         calculate D2E/DX2 analytically  !
 ! D6    D(10,1,2,13)          -68.438          calculate D2E/DX2 analytically  !
 ! D7    D(11,1,2,3)            56.9242         calculate D2E/DX2 analytically  !
 ! D8    D(11,1,2,12)          -65.3148         calculate D2E/DX2 analytically  !
 ! D9    D(11,1,2,13)          179.0095         calculate D2E/DX2 analytically  !
 ! D10   D(2,1,4,6)             -3.3318         calculate D2E/DX2 analytically  !
 ! D11   D(2,1,4,8)           -127.4734         calculate D2E/DX2 analytically  !
 ! D12   D(2,1,4,9)            120.873          calculate D2E/DX2 analytically  !
 ! D13   D(10,1,4,6)           120.01           calculate D2E/DX2 analytically  !
 ! D14   D(10,1,4,8)            -4.1317         calculate D2E/DX2 analytically  !
 ! D15   D(10,1,4,9)          -115.7852         calculate D2E/DX2 analytically  !
 ! D16   D(11,1,4,6)          -126.2043         calculate D2E/DX2 analytically  !
 ! D17   D(11,1,4,8)           109.654          calculate D2E/DX2 analytically  !
 ! D18   D(11,1,4,9)            -1.9995         calculate D2E/DX2 analytically  !
 ! D19   D(1,2,3,5)            -58.7326         calculate D2E/DX2 analytically  !
 ! D20   D(1,2,3,14)           178.8824         calculate D2E/DX2 analytically  !
 ! D21   D(1,2,3,15)            64.3161         calculate D2E/DX2 analytically  !
 ! D22   D(12,2,3,5)            62.9691         calculate D2E/DX2 analytically  !
 ! D23   D(12,2,3,14)          -59.4159         calculate D2E/DX2 analytically  !
 ! D24   D(12,2,3,15)         -173.9823         calculate D2E/DX2 analytically  !
 ! D25   D(13,2,3,5)           177.7732         calculate D2E/DX2 analytically  !
 ! D26   D(13,2,3,14)           55.3882         calculate D2E/DX2 analytically  !
 ! D27   D(13,2,3,15)          -59.1781         calculate D2E/DX2 analytically  !
 ! D28   D(2,3,5,7)            115.8266         calculate D2E/DX2 analytically  !
 ! D29   D(2,3,5,16)          -122.9242         calculate D2E/DX2 analytically  !
 ! D30   D(2,3,5,17)            -6.4295         calculate D2E/DX2 analytically  !
 ! D31   D(14,3,5,7)          -122.0481         calculate D2E/DX2 analytically  !
 ! D32   D(14,3,5,16)           -0.7989         calculate D2E/DX2 analytically  !
 ! D33   D(14,3,5,17)          115.6958         calculate D2E/DX2 analytically  !
 ! D34   D(15,3,5,7)            -5.8148         calculate D2E/DX2 analytically  !
 ! D35   D(15,3,5,16)          115.4344         calculate D2E/DX2 analytically  !
 ! D36   D(15,3,5,17)         -128.0709         calculate D2E/DX2 analytically  !
 ! D37   D(1,4,6,18)            -4.9663         calculate D2E/DX2 analytically  !
 ! D38   D(1,4,6,19)           115.2961         calculate D2E/DX2 analytically  !
 ! D39   D(1,4,6,20)          -125.2647         calculate D2E/DX2 analytically  !
 ! D40   D(8,4,6,18)           118.6774         calculate D2E/DX2 analytically  !
 ! D41   D(8,4,6,19)          -121.0602         calculate D2E/DX2 analytically  !
 ! D42   D(8,4,6,20)            -1.621          calculate D2E/DX2 analytically  !
 ! D43   D(9,4,6,18)          -128.6921         calculate D2E/DX2 analytically  !
 ! D44   D(9,4,6,19)            -8.4298         calculate D2E/DX2 analytically  !
 ! D45   D(9,4,6,20)           111.0095         calculate D2E/DX2 analytically  !
 ! D46   D(3,5,7,21)            36.2629         calculate D2E/DX2 analytically  !
 ! D47   D(3,5,7,22)           -83.7461         calculate D2E/DX2 analytically  !
 ! D48   D(3,5,7,23)           156.7646         calculate D2E/DX2 analytically  !
 ! D49   D(16,5,7,21)          -85.2404         calculate D2E/DX2 analytically  !
 ! D50   D(16,5,7,22)          154.7506         calculate D2E/DX2 analytically  !
 ! D51   D(16,5,7,23)           35.2613         calculate D2E/DX2 analytically  !
 ! D52   D(17,5,7,21)          159.4385         calculate D2E/DX2 analytically  !
 ! D53   D(17,5,7,22)           39.4295         calculate D2E/DX2 analytically  !
 ! D54   D(17,5,7,23)          -80.0598         calculate D2E/DX2 analytically  !
 --------------------------------------------------------------------------------
 Trust Radius=3.00D-01 FncErr=1.00D-07 GrdErr=1.00D-06 EigMax=2.50D+02 EigMin=1.00D-04
 Number of steps in this run=    138 maximum allowed number of steps=    138.
 GradGradGradGradGradGradGradGradGradGradGradGradGradGradGradGradGradGrad

 Leave Link  103 at Sat Sep 28 01:51:55 2019, MaxMem=   671088640 cpu:               1.6 elap:               0.8
 (Enter /shared/centos7/gaussian/g16/l202.exe)
                          Input orientation:                          
 ---------------------------------------------------------------------
 Center     Atomic      Atomic             Coordinates (Angstroms)
 Number     Number       Type             X           Y           Z
 ---------------------------------------------------------------------
      1          6           0        1.349562   -1.113364    0.477921
      2          6           0        0.121689   -0.391432    0.917358
      3          6           0        0.384375    0.934131    1.587329
      4          6           0        2.167531   -0.513213   -0.615592
      5          6           0        1.251368    0.858131    2.821934
      6          6           0        1.659084    0.720854   -1.238608
      7          6           0        2.569689    1.575323    2.689309
      8          1           0        2.321878   -1.295304   -1.411612
      9          1           0        3.197180   -0.331766   -0.224883
     10          1           0        1.050005   -2.140957    0.181451
     11          1           0        1.993273   -1.250708    1.370903
     12          1           0       -0.436194   -1.044167    1.606842
     13          1           0       -0.553859   -0.210761    0.054660
     14          1           0       -0.583343    1.392205    1.853439
     15          1           0        0.847638    1.604687    0.834409
     16          1           0        0.691749    1.300820    3.687020
     17          1           0        1.450384   -0.195136    3.083242
     18          1           0        0.659687    0.997941   -0.853501
     19          1           0        2.353315    1.590881   -1.042061
     20          1           0        1.570074    0.617410   -2.340819
     21          1           0        2.473742    2.487343    2.098892
     22          1           0        3.330266    0.918048    2.183966
     23          1           0        2.979424    1.857548    3.701411
 ---------------------------------------------------------------------
                    Distance matrix (angstroms):
                    1          2          3          4          5
     1  C    0.000000
     2  C    1.490625   0.000000
     3  C    2.520835   1.508304   0.000000
     4  C    1.491652   2.559343   3.182343   0.000000
     5  C    3.064447   2.542635   1.510531   3.812680   0.000000
     6  C    2.531133   2.872099   3.107457   1.472952   4.083269
     7  C    3.688900   3.605640   2.530037   3.930151   1.506627
     8  H    2.132799   3.328951   4.209268   1.126559   4.868900
     9  H    2.125682   3.281299   3.577496   1.116134   3.805934
    10  H    1.110665   2.112858   3.446117   2.129247   4.000903
    11  H    1.109344   2.108764   2.721933   2.126130   2.665168
    12  H    2.113806   1.101220   2.141817   3.464176   2.818342
    13  H    2.148686   1.110520   2.130759   2.818985   3.472633
    14  H    3.450514   2.134169   1.103233   4.158610   2.142284
    15  H    2.786900   2.125646   1.109570   2.886195   2.161156
    16  H    4.069315   3.295408   2.153519   4.897052   1.121392
    17  H    2.764236   2.548531   2.156241   3.781117   1.103295
    18  H    2.589637   2.314247   2.457136   2.147971   3.725380
    19  H    3.260492   3.570580   3.349885   2.154902   4.084319
    20  H    3.315042   3.705577   4.115403   2.147480   5.178180
    21  H    4.105657   3.900707   2.653228   4.057773   2.161324
    22  H    3.310651   3.689715   3.005746   3.352310   2.175411
    23  H    4.676928   4.579903   3.472221   4.991612   2.181397
                    6          7          8          9         10
     6  C    0.000000
     7  C    4.121632   0.000000
     8  H    2.129346   5.011931   0.000000
     9  H    2.121647   3.538820   1.761501   0.000000
    10  H    3.252308   4.733870   2.206953   2.837013   0.000000
    11  H    3.287596   3.171262   2.802206   2.200086   1.759856
    12  H    3.949947   4.131440   4.096474   4.130877   2.333126
    13  H    2.727189   4.459599   3.405296   3.763387   2.512790
    14  H    3.878137   3.267082   5.130649   4.645842   4.236343
    15  H    2.395205   2.531200   3.953218   3.223708   3.807513
    16  H    5.053110   2.144164   5.949221   4.923973   4.925768
    17  H    4.422780   2.131326   4.708883   3.743481   3.516662
    18  H    1.106291   4.066077   2.886752   2.932943   3.328086
    19  H    1.130281   3.737670   2.909917   2.253100   4.137900
    20  H    1.110627   5.217185   2.255462   2.832948   3.773713
    21  H    3.863038   1.090678   5.162859   3.724334   5.208144
    22  H    3.813889   1.125104   4.340962   2.717038   4.308964
    23  H    5.238241   1.127778   6.042834   4.500699   5.665758
                   11         12         13         14         15
    11  H    0.000000
    12  H    2.449620   0.000000
    13  H    3.049896   1.765696   0.000000
    14  H    3.722469   2.453237   2.409559   0.000000
    15  H    3.123073   3.043239   2.422406   1.769541   0.000000
    16  H    3.683566   3.331421   4.126798   2.235225   2.872982
    17  H    2.083522   2.541611   3.631740   2.857990   2.942772
    18  H    3.432615   3.380007   1.938661   3.004678   1.803471
    19  H    3.745217   4.662781   3.591708   4.128843   2.405908
    20  H    4.176822   4.729692   3.306853   4.778003   3.402750
    21  H    3.838469   4.602326   4.541477   3.256585   2.241029
    22  H    2.674346   4.285975   4.571059   3.956060   2.907957
    23  H    4.008119   4.947082   5.482771   4.040402   3.581640
                   16         17         18         19         20
    16  H    0.000000
    17  H    1.782683   0.000000
    18  H    4.550725   4.188863   0.000000
    19  H    5.020871   4.585112   1.804303   0.000000
    20  H    6.129711   5.485890   1.784860   1.802190   0.000000
    21  H    2.665612   3.035111   3.771702   3.268597   4.901459
    22  H    3.060631   2.362590   4.045316   3.437206   4.864395
    23  H    2.354487   2.633174   5.183370   4.792040   6.327144
                   21         22         23
    21  H    0.000000
    22  H    1.789848   0.000000
    23  H    1.794554   1.818898   0.000000
 Stoichiometry    C7H16
 Framework group  C1[X(C7H16)]
 Deg. of freedom    63
 Full point group                 C1      NOp   1
 Largest Abelian subgroup         C1      NOp   1
 Largest concise Abelian subgroup C1      NOp   1
                         Standard orientation:                         
 ---------------------------------------------------------------------
 Center     Atomic      Atomic             Coordinates (Angstroms)
 Number     Number       Type             X           Y           Z
 ---------------------------------------------------------------------
      1          6           0        0.987785    0.671052   -0.923517
      2          6           0        0.315421    1.405007    0.186078
      3          6           0       -0.821578    0.653012    0.831615
      4          6           0        1.751128   -0.566379   -0.590207
      5          6           0       -1.938400    0.265551   -0.108750
      6          6           0        1.848969   -0.935845    0.832294
      7          6           0       -2.111046   -1.221982   -0.274169
      8          1           0        2.787407   -0.469398   -1.021318
      9          1           0        1.308966   -1.416606   -1.162362
     10          1           0        1.665069    1.384301   -1.439404
     11          1           0        0.211947    0.420087   -1.675672
     12          1           0       -0.058371    2.362844   -0.208273
     13          1           0        1.046832    1.666538    0.979736
     14          1           0       -1.234357    1.270735    1.647185
     15          1           0       -0.395266   -0.251034    1.313387
     16          1           0       -2.901254    0.694387    0.274046
     17          1           0       -1.770269    0.711430   -1.103830
     18          1           0        1.397608   -0.170268    1.491114
     19          1           0        1.320692   -1.914287    1.035053
     20          1           0        2.905111   -1.063413    1.151331
     21          1           0       -1.922230   -1.754937    0.658508
     22          1           0       -1.397944   -1.620960   -1.047579
     23          1           0       -3.157612   -1.471909   -0.611984
 ---------------------------------------------------------------------
 Rotational constants (GHZ):           3.3977356           1.6548955           1.4531254
 Leave Link  202 at Sat Sep 28 01:51:57 2019, MaxMem=   671088640 cpu:               3.8 elap:               1.9
 (Enter /shared/centos7/gaussian/g16/l301.exe)
 Standard basis: CC-pVTZ (5D, 7F)
 Ernie: Thresh=  0.10000D-02 Tol=  0.10000D-05 Strict=F.
 Ernie:  21 primitive shells out of 310 were deleted.
 There are   485 symmetry adapted cartesian basis functions of A   symmetry.
 There are   434 symmetry adapted basis functions of A   symmetry.
   434 basis functions,   636 primitive gaussians,   485 cartesian basis functions
    29 alpha electrons       29 beta electrons
       nuclear repulsion energy       336.3195438544 Hartrees.
 IExCor= 4336 DFT=T Ex+Corr=M062X ExCW=0 ScaHFX=  0.540000
 ScaDFX=  1.000000  1.000000  1.000000  1.000000 ScalE2=  1.000000  1.000000
 IRadAn=      5 IRanWt=     -1 IRanGd=            0 ICorTp=0 IEmpDi=  4
 NAtoms=   23 NActive=   23 NUniq=   23 SFac= 1.00D+00 NAtFMM=   60 NAOKFM=F Big=F
 Integral buffers will be    131072 words long.
 Raffenetti 2 integral format.
 Two-electron integral symmetry is turned on.
 Leave Link  301 at Sat Sep 28 01:51:58 2019, MaxMem=   671088640 cpu:               1.6 elap:               0.8
 (Enter /shared/centos7/gaussian/g16/l302.exe)
 NPDir=0 NMtPBC=     1 NCelOv=     1 NCel=       1 NClECP=     1 NCelD=      1
         NCelK=      1 NCelE2=     1 NClLst=     1 CellRange=     0.0.
 One-electron integrals computed using PRISM.
 One-electron integral symmetry used in STVInt
 NBasis=   434 RedAO= T EigKep=  1.97D-04  NBF=   434
 NBsUse=   434 1.00D-06 EigRej= -1.00D+00 NBFU=   434
 Precomputing XC quadrature grid using
 IXCGrd= 4 IRadAn=           5 IRanWt=          -1 IRanGd=           0 AccXCQ= 0.00D+00.
 Generated NRdTot=       0 NPtTot=           0 NUsed=           0 NTot=          32
 NSgBfM=   485   485   485   485   485 MxSgAt=    23 MxSgA2=    23.
 Leave Link  302 at Sat Sep 28 01:53:08 2019, MaxMem=   671088640 cpu:             139.9 elap:              70.0
 (Enter /shared/centos7/gaussian/g16/l303.exe)
 DipDrv:  MaxL=1.
 Leave Link  303 at Sat Sep 28 01:53:13 2019, MaxMem=   671088640 cpu:               9.4 elap:               4.7
 (Enter /shared/centos7/gaussian/g16/l401.exe)
 ExpMin= 1.03D-01 ExpMax= 8.24D+03 ExpMxC= 2.81D+02 IAcc=3 IRadAn=         5 AccDes= 0.00D+00
 Harris functional with IExCor= 1009 and IRadAn=       5 diagonalized for initial guess.
 HarFok:  IExCor= 1009 AccDes= 0.00D+00 IRadAn=         5 IDoV= 1 UseB2=F ITyADJ=14
 ICtDFT=  3500011 ScaDFX=  1.000000  1.000000  1.000000  1.000000
 FoFCou: FMM=F IPFlag=           0 FMFlag=      100000 FMFlg1=           0
         NFxFlg=           0 DoJE=T BraDBF=F KetDBF=T FulRan=T
         wScrn=  0.000000 ICntrl=       500 IOpCl=  0 I1Cent=   200000004 NGrid=           0
         NMat0=    1 NMatS0=      1 NMatT0=    0 NMatD0=    1 NMtDS0=    0 NMtDT0=    0
 Petite list used in FoFCou.
 Harris En= -276.309940323119    
 JPrj=0 DoOrth=F DoCkMO=F.
 Leave Link  401 at Sat Sep 28 01:53:58 2019, MaxMem=   671088640 cpu:              90.4 elap:              45.2
 (Enter /shared/centos7/gaussian/g16/l502.exe)
 Integral symmetry usage will be decided dynamically.
 Closed shell SCF:
 Using DIIS extrapolation, IDIIS=  1040.
 NGot=   671088640 LenX=   670604095 LenY=   670368385
 Requested convergence on RMS density matrix=1.00D-08 within 900 cycles.
 Requested convergence on MAX density matrix=1.00D-06.
 Requested convergence on             energy=1.00D-06.
 No special actions if energy rises.
 Fock matrices will be formed incrementally for  20 cycles.
 Integral accuracy reduced to 1.0D-05 until final iterations.

 Cycle   1  Pass 0  IDiag  1:
 FoFJK:  IHMeth= 1 ICntrl=       0 DoSepK=F KAlg= 0 I1Cent=           0 FoldK=F
 IRaf= 960000000 NMat=       1 IRICut=       1 DoRegI=T DoRafI=F ISym2E= 0 IDoP0=0 IntGTp=1.
 FoFCou: FMM=F IPFlag=           0 FMFlag=      100000 FMFlg1=           0
         NFxFlg=           0 DoJE=F BraDBF=F KetDBF=F FulRan=T
         wScrn=  0.000000 ICntrl=         0 IOpCl=  0 I1Cent=           0 NGrid=           0
         NMat0=    1 NMatS0=      1 NMatT0=    0 NMatD0=    1 NMtDS0=    0 NMtDT0=    0
 Symmetry not used in FoFCou.
 E= -275.942664629860    
 DIIS: error= 2.60D-02 at cycle   1 NSaved=   1.
 NSaved= 1 IEnMin= 1 EnMin= -275.942664629860     IErMin= 1 ErrMin= 2.60D-02
 ErrMax= 2.60D-02  0.00D+00 EMaxC= 1.00D-01 BMatC= 3.77D-01 BMatP= 3.77D-01
 IDIUse=3 WtCom= 7.40D-01 WtEn= 2.60D-01
 Coeff-Com:  0.100D+01
 Coeff-En:   0.100D+01
 Coeff:      0.100D+01
 Gap=     0.355 Goal=   None    Shift=    0.000
 GapD=    0.355 DampG=1.000 DampE=0.500 DampFc=0.5000 IDamp=-1.
 Damping current iteration by 5.00D-01
 RMSDP=1.94D-03 MaxDP=7.11D-02              OVMax= 1.63D-01

 Cycle   2  Pass 0  IDiag  1:
 RMSU=  9.69D-04    CP:  9.90D-01
 E= -276.118135580372     Delta-E=       -0.175470950512 Rises=F Damp=T
 DIIS: error= 4.26D-03 at cycle   2 NSaved=   2.
 NSaved= 2 IEnMin= 2 EnMin= -276.118135580372     IErMin= 2 ErrMin= 4.26D-03
 ErrMax= 4.26D-03  0.00D+00 EMaxC= 1.00D-01 BMatC= 1.99D-02 BMatP= 3.77D-01
 IDIUse=3 WtCom= 9.57D-01 WtEn= 4.26D-02
 Coeff-Com: -0.356D-01 0.104D+01
 Coeff-En:   0.000D+00 0.100D+01
 Coeff:     -0.341D-01 0.103D+01
 Gap=     0.437 Goal=   None    Shift=    0.000
 RMSDP=5.88D-04 MaxDP=2.18D-02 DE=-1.75D-01 OVMax= 9.14D-02

 Cycle   3  Pass 0  IDiag  1:
 RMSU=  5.80D-04    CP:  9.99D-01  9.19D-01
 E= -276.299596982188     Delta-E=       -0.181461401816 Rises=F Damp=F
 DIIS: error= 3.43D-03 at cycle   3 NSaved=   3.
 NSaved= 3 IEnMin= 3 EnMin= -276.299596982188     IErMin= 3 ErrMin= 3.43D-03
 ErrMax= 3.43D-03  0.00D+00 EMaxC= 1.00D-01 BMatC= 3.95D-03 BMatP= 1.99D-02
 IDIUse=3 WtCom= 9.66D-01 WtEn= 3.43D-02
 Coeff-Com: -0.536D-01 0.283D+00 0.771D+00
 Coeff-En:   0.000D+00 0.000D+00 0.100D+01
 Coeff:     -0.518D-01 0.273D+00 0.779D+00
 Gap=     0.403 Goal=   None    Shift=    0.000
 RMSDP=1.18D-04 MaxDP=3.25D-03 DE=-1.81D-01 OVMax= 1.22D-02

 Cycle   4  Pass 0  IDiag  1:
 RMSU=  9.23D-05    CP:  9.97D-01  9.65D-01  9.00D-01
 E= -276.303036552699     Delta-E=       -0.003439570510 Rises=F Damp=F
 DIIS: error= 7.73D-04 at cycle   4 NSaved=   4.
 NSaved= 4 IEnMin= 4 EnMin= -276.303036552699     IErMin= 4 ErrMin= 7.73D-04
 ErrMax= 7.73D-04  0.00D+00 EMaxC= 1.00D-01 BMatC= 3.12D-04 BMatP= 3.95D-03
 IDIUse=3 WtCom= 9.92D-01 WtEn= 7.73D-03
 Coeff-Com: -0.136D-01 0.378D-01 0.254D+00 0.721D+00
 Coeff-En:   0.000D+00 0.000D+00 0.000D+00 0.100D+01
 Coeff:     -0.135D-01 0.375D-01 0.252D+00 0.724D+00
 Gap=     0.403 Goal=   None    Shift=    0.000
 RMSDP=3.50D-05 MaxDP=1.35D-03 DE=-3.44D-03 OVMax= 3.16D-03

 Cycle   5  Pass 0  IDiag  1:
 RMSU=  1.97D-05    CP:  9.97D-01  9.60D-01  9.35D-01  7.85D-01
 E= -276.303324426604     Delta-E=       -0.000287873905 Rises=F Damp=F
 DIIS: error= 1.70D-04 at cycle   5 NSaved=   5.
 NSaved= 5 IEnMin= 5 EnMin= -276.303324426604     IErMin= 5 ErrMin= 1.70D-04
 ErrMax= 1.70D-04  0.00D+00 EMaxC= 1.00D-01 BMatC= 1.85D-05 BMatP= 3.12D-04
 IDIUse=3 WtCom= 9.98D-01 WtEn= 1.70D-03
 Coeff-Com: -0.195D-02 0.152D-02 0.533D-01 0.259D+00 0.688D+00
 Coeff-En:   0.000D+00 0.000D+00 0.000D+00 0.000D+00 0.100D+01
 Coeff:     -0.195D-02 0.152D-02 0.532D-01 0.258D+00 0.689D+00
 Gap=     0.403 Goal=   None    Shift=    0.000
 RMSDP=6.96D-06 MaxDP=3.90D-04 DE=-2.88D-04 OVMax= 7.30D-04

 Initial convergence to 1.0D-05 achieved.  Increase integral accuracy.
 Cycle   6  Pass 1  IDiag  1:
 E= -276.303282199620     Delta-E=        0.000042226984 Rises=F Damp=F
 DIIS: error= 6.11D-05 at cycle   1 NSaved=   1.
 NSaved= 1 IEnMin= 1 EnMin= -276.303282199620     IErMin= 1 ErrMin= 6.11D-05
 ErrMax= 6.11D-05  0.00D+00 EMaxC= 1.00D-01 BMatC= 1.79D-06 BMatP= 1.79D-06
 IDIUse=1 WtCom= 1.00D+00 WtEn= 0.00D+00
 Coeff-Com:  0.100D+01
 Coeff:      0.100D+01
 Gap=     0.403 Goal=   None    Shift=    0.000
 RMSDP=6.96D-06 MaxDP=3.90D-04 DE= 4.22D-05 OVMax= 2.83D-04

 Cycle   7  Pass 1  IDiag  1:
 RMSU=  1.00D-05    CP:  1.00D+00
 E= -276.303282926085     Delta-E=       -0.000000726465 Rises=F Damp=F
 DIIS: error= 2.61D-05 at cycle   2 NSaved=   2.
 NSaved= 2 IEnMin= 2 EnMin= -276.303282926085     IErMin= 2 ErrMin= 2.61D-05
 ErrMax= 2.61D-05  0.00D+00 EMaxC= 1.00D-01 BMatC= 6.24D-07 BMatP= 1.79D-06
 IDIUse=1 WtCom= 1.00D+00 WtEn= 0.00D+00
 Coeff-Com:  0.341D+00 0.659D+00
 Coeff:      0.341D+00 0.659D+00
 Gap=     0.403 Goal=   None    Shift=    0.000
 RMSDP=1.57D-06 MaxDP=6.49D-05 DE=-7.26D-07 OVMax= 1.49D-04

 Cycle   8  Pass 1  IDiag  1:
 RMSU=  1.56D-06    CP:  1.00D+00  9.83D-01
 E= -276.303283486017     Delta-E=       -0.000000559932 Rises=F Damp=F
 DIIS: error= 8.80D-06 at cycle   3 NSaved=   3.
 NSaved= 3 IEnMin= 3 EnMin= -276.303283486017     IErMin= 3 ErrMin= 8.80D-06
 ErrMax= 8.80D-06  0.00D+00 EMaxC= 1.00D-01 BMatC= 5.70D-08 BMatP= 6.24D-07
 IDIUse=1 WtCom= 1.00D+00 WtEn= 0.00D+00
 Coeff-Com: -0.331D-02 0.222D+00 0.782D+00
 Coeff:     -0.331D-02 0.222D+00 0.782D+00
 Gap=     0.403 Goal=   None    Shift=    0.000
 RMSDP=4.36D-07 MaxDP=1.65D-05 DE=-5.60D-07 OVMax= 3.91D-05

 Cycle   9  Pass 1  IDiag  1:
 RMSU=  3.33D-07    CP:  1.00D+00  1.00D+00  8.74D-01
 E= -276.303283540720     Delta-E=       -0.000000054702 Rises=F Damp=F
 DIIS: error= 2.16D-06 at cycle   4 NSaved=   4.
 NSaved= 4 IEnMin= 4 EnMin= -276.303283540720     IErMin= 4 ErrMin= 2.16D-06
 ErrMax= 2.16D-06  0.00D+00 EMaxC= 1.00D-01 BMatC= 2.18D-09 BMatP= 5.70D-08
 IDIUse=1 WtCom= 1.00D+00 WtEn= 0.00D+00
 Coeff-Com: -0.114D-01 0.621D-01 0.285D+00 0.664D+00
 Coeff:     -0.114D-01 0.621D-01 0.285D+00 0.664D+00
 Gap=     0.403 Goal=   None    Shift=    0.000
 RMSDP=8.87D-08 MaxDP=2.62D-06 DE=-5.47D-08 OVMax= 8.94D-06

 Cycle  10  Pass 1  IDiag  1:
 RMSU=  8.01D-08    CP:  1.00D+00  1.00D+00  8.69D-01  9.05D-01
 E= -276.303283542892     Delta-E=       -0.000000002173 Rises=F Damp=F
 DIIS: error= 4.15D-07 at cycle   5 NSaved=   5.
 NSaved= 5 IEnMin= 5 EnMin= -276.303283542892     IErMin= 5 ErrMin= 4.15D-07
 ErrMax= 4.15D-07  0.00D+00 EMaxC= 1.00D-01 BMatC= 7.25D-11 BMatP= 2.18D-09
 IDIUse=1 WtCom= 1.00D+00 WtEn= 0.00D+00
 Coeff-Com: -0.103D-02-0.113D-01-0.324D-01 0.693D-01 0.975D+00
 Coeff:     -0.103D-02-0.113D-01-0.324D-01 0.693D-01 0.975D+00
 Gap=     0.403 Goal=   None    Shift=    0.000
 RMSDP=3.59D-08 MaxDP=1.01D-06 DE=-2.17D-09 OVMax= 2.61D-06

 Cycle  11  Pass 1  IDiag  1:
 RMSU=  1.79D-08    CP:  1.00D+00  1.01D+00  8.73D-01  9.90D-01  1.12D+00
 E= -276.303283542973     Delta-E=       -0.000000000081 Rises=F Damp=F
 DIIS: error= 1.86D-07 at cycle   6 NSaved=   6.
 NSaved= 6 IEnMin= 6 EnMin= -276.303283542973     IErMin= 6 ErrMin= 1.86D-07
 ErrMax= 1.86D-07  0.00D+00 EMaxC= 1.00D-01 BMatC= 2.22D-11 BMatP= 7.25D-11
 IDIUse=1 WtCom= 1.00D+00 WtEn= 0.00D+00
 Coeff-Com:  0.378D-03-0.996D-02-0.366D-01-0.198D-01 0.448D+00 0.618D+00
 Coeff:      0.378D-03-0.996D-02-0.366D-01-0.198D-01 0.448D+00 0.618D+00
 Gap=     0.403 Goal=   None    Shift=    0.000
 RMSDP=7.29D-09 MaxDP=3.11D-07 DE=-8.07D-11 OVMax= 8.65D-07

 SCF Done:  E(RM062X) =  -276.303283543     A.U. after   11 cycles
            NFock= 11  Conv=0.73D-08     -V/T= 2.0064
 KE= 2.745378126826D+02 PE=-1.311086147872D+03 EE= 4.239255077920D+02
 Leave Link  502 at Sat Sep 28 02:09:40 2019, MaxMem=   671088640 cpu:            1884.2 elap:             942.3
 (Enter /shared/centos7/gaussian/g16/l801.exe)
 DoSCS=F DFT=T ScalE2(SS,OS)=  1.000000  1.000000
 Range of M.O.s used for correlation:     1   434
 NBasis=   434 NAE=    29 NBE=    29 NFC=     0 NFV=     0
 NROrb=    434 NOA=    29 NOB=    29 NVA=   405 NVB=   405

 **** Warning!!: The largest alpha MO coefficient is  0.10885405D+02

 Leave Link  801 at Sat Sep 28 02:09:41 2019, MaxMem=   671088640 cpu:               1.4 elap:               0.7
 (Enter /shared/centos7/gaussian/g16/l1101.exe)
 Using compressed storage, NAtomX=    23.
 Will process     24 centers per pass.
 Leave Link 1101 at Sat Sep 28 02:10:14 2019, MaxMem=   671088640 cpu:              65.2 elap:              32.6
 (Enter /shared/centos7/gaussian/g16/l1102.exe)
 Symmetrizing basis deriv contribution to polar:
 IMax=3 JMax=2 DiffMx= 0.00D+00
 Leave Link 1102 at Sat Sep 28 02:10:17 2019, MaxMem=   671088640 cpu:               6.4 elap:               3.2
 (Enter /shared/centos7/gaussian/g16/l1110.exe)
 Forming Gx(P) for the SCF density, NAtomX=    23.
 Integral derivatives from FoFJK, PRISM(SPDF).
 Do as many integral derivatives as possible in FoFJK.
 G2DrvN: MDV=     671086848.
 G2DrvN: will do    24 centers at a time, making    1 passes.
 Calling FoFCou, ICntrl=  3107 FMM=F I1Cent=   0 AccDes= 0.00D+00.
 FoFJK:  IHMeth= 1 ICntrl=    3107 DoSepK=F KAlg= 0 I1Cent=           0 FoldK=F
 IRaf=         0 NMat=       1 IRICut=       1 DoRegI=T DoRafI=F ISym2E= 0 IDoP0=0 IntGTp=1.
 FoFCou: FMM=F IPFlag=           0 FMFlag=      100000 FMFlg1=           0
         NFxFlg=           0 DoJE=F BraDBF=F KetDBF=F FulRan=T
         wScrn=  0.000000 ICntrl=      3107 IOpCl=  0 I1Cent=           0 NGrid=           0
         NMat0=    1 NMatS0=      1 NMatT0=    0 NMatD0=    1 NMtDS0=    0 NMtDT0=    0
 Symmetry not used in FoFCou.
 End of G2Drv F.D. properties file   721 does not exist.
 End of G2Drv F.D. properties file   722 does not exist.
 End of G2Drv F.D. properties file   788 does not exist.
 Leave Link 1110 at Sat Sep 28 02:53:21 2019, MaxMem=   671088640 cpu:            5167.7 elap:            2584.2
 (Enter /shared/centos7/gaussian/g16/l1002.exe)
 Minotr:  Closed shell wavefunction.
          IDoAtm=11111111111111111111111
          Direct CPHF calculation.
          Differentiating once with respect to nuclear coordinates.
          Requested convergence is 1.0D-08 RMS, and 1.0D-07 maximum.
          Secondary convergence is 1.0D-12 RMS, and 1.0D-12 maximum.
          NewPWx=T KeepS1=F KeepF1=F KeepIn=T MapXYZ=F SortEE=F KeepMc=T.
         6883 words used for storage of precomputed grid.
 Two-electron integrals replicated using symmetry.
          MDV=     671088640 using IRadAn=       1.
          Solving linear equations simultaneously, MaxMat=     380.
 FoF2E skips out because all densities are zero.
 CalDSu exits because no D1Ps are significant.
 FoFJK:  IHMeth= 1 ICntrl=       0 DoSepK=F KAlg= 0 I1Cent=           0 FoldK=F
 IRaf= 950000000 NMat=      69 IRICut=     172 DoRegI=T DoRafI=T ISym2E= 2 IDoP0=3 IntGTp=3.
 FoFCou: FMM=F IPFlag=           0 FMFlag=      100000 FMFlg1=           0
         NFxFlg=           0 DoJE=F BraDBF=F KetDBF=F FulRan=T
         wScrn=  0.000000 ICntrl=         0 IOpCl=  0 I1Cent=           0 NGrid=           0
         NMat0=   69 NMatS0=     69 NMatT0=    0 NMatD0=   69 NMtDS0=    0 NMtDT0=    0
 Integrals replicated using symmetry in FoFCou.
 Raff kept on since  91.71% of shell-pairs survive, threshold=   0.20 IRatSp=92.
          There are    72 degrees of freedom in the 1st order CPHF.  IDoFFX=6 NUNeed=     0.
     66 vectors produced by pass  0 Test12= 1.63D-14 1.39D-09 XBig12= 5.50D-02 4.52D-02.
 AX will form    66 AO Fock derivatives at one time.
     66 vectors produced by pass  1 Test12= 1.63D-14 1.39D-09 XBig12= 2.35D-03 6.59D-03.
     66 vectors produced by pass  2 Test12= 1.63D-14 1.39D-09 XBig12= 5.85D-05 1.10D-03.
     66 vectors produced by pass  3 Test12= 1.63D-14 1.39D-09 XBig12= 4.83D-07 7.29D-05.
     66 vectors produced by pass  4 Test12= 1.63D-14 1.39D-09 XBig12= 2.04D-09 4.81D-06.
     66 vectors produced by pass  5 Test12= 1.63D-14 1.39D-09 XBig12= 1.07D-11 3.29D-07.
     22 vectors produced by pass  6 Test12= 1.63D-14 1.39D-09 XBig12= 4.15D-14 1.87D-08.
 InvSVY:  IOpt=1 It=  1 EMax= 3.05D-16
 Solved reduced A of dimension   418 with    72 vectors.
 End of Minotr F.D. properties file   721 does not exist.
 End of Minotr F.D. properties file   722 does not exist.
 End of Minotr F.D. properties file   788 does not exist.
 Leave Link 1002 at Sat Sep 28 04:04:43 2019, MaxMem=   671088640 cpu:            8562.4 elap:            4281.7
 (Enter /shared/centos7/gaussian/g16/l601.exe)
 Copying SCF densities to generalized density rwf, IOpCl= 0 IROHF=0.

 **********************************************************************

            Population analysis using the SCF density.

 **********************************************************************

 Orbital symmetries:
       Occupied  (A) (A) (A) (A) (A) (A) (A) (A) (A) (A) (A) (A)
                 (A) (A) (A) (A) (A) (A) (A) (A) (A) (A) (A) (A)
                 (A) (A) (A) (A) (A)
       Virtual   (A) (A) (A) (A) (A) (A) (A) (A) (A) (A) (A) (A)
                 (A) (A) (A) (A) (A) (A) (A) (A) (A) (A) (A) (A)
                 (A) (A) (A) (A) (A) (A) (A) (A) (A) (A) (A) (A)
                 (A) (A) (A) (A) (A) (A) (A) (A) (A) (A) (A) (A)
                 (A) (A) (A) (A) (A) (A) (A) (A) (A) (A) (A) (A)
                 (A) (A) (A) (A) (A) (A) (A) (A) (A) (A) (A) (A)
                 (A) (A) (A) (A) (A) (A) (A) (A) (A) (A) (A) (A)
                 (A) (A) (A) (A) (A) (A) (A) (A) (A) (A) (A) (A)
                 (A) (A) (A) (A) (A) (A) (A) (A) (A) (A) (A) (A)
                 (A) (A) (A) (A) (A) (A) (A) (A) (A) (A) (A) (A)
                 (A) (A) (A) (A) (A) (A) (A) (A) (A) (A) (A) (A)
                 (A) (A) (A) (A) (A) (A) (A) (A) (A) (A) (A) (A)
                 (A) (A) (A) (A) (A) (A) (A) (A) (A) (A) (A) (A)
                 (A) (A) (A) (A) (A) (A) (A) (A) (A) (A) (A) (A)
                 (A) (A) (A) (A) (A) (A) (A) (A) (A) (A) (A) (A)
                 (A) (A) (A) (A) (A) (A) (A) (A) (A) (A) (A) (A)
                 (A) (A) (A) (A) (A) (A) (A) (A) (A) (A) (A) (A)
                 (A) (A) (A) (A) (A) (A) (A) (A) (A) (A) (A) (A)
                 (A) (A) (A) (A) (A) (A) (A) (A) (A) (A) (A) (A)
                 (A) (A) (A) (A) (A) (A) (A) (A) (A) (A) (A) (A)
                 (A) (A) (A) (A) (A) (A) (A) (A) (A) (A) (A) (A)
                 (A) (A) (A) (A) (A) (A) (A) (A) (A) (A) (A) (A)
                 (A) (A) (A) (A) (A) (A) (A) (A) (A) (A) (A) (A)
                 (A) (A) (A) (A) (A) (A) (A) (A) (A) (A) (A) (A)
                 (A) (A) (A) (A) (A) (A) (A) (A) (A) (A) (A) (A)
                 (A) (A) (A) (A) (A) (A) (A) (A) (A) (A) (A) (A)
                 (A) (A) (A) (A) (A) (A) (A) (A) (A) (A) (A) (A)
                 (A) (A) (A) (A) (A) (A) (A) (A) (A) (A) (A) (A)
                 (A) (A) (A) (A) (A) (A) (A) (A) (A) (A) (A) (A)
                 (A) (A) (A) (A) (A) (A) (A) (A) (A) (A) (A) (A)
                 (A) (A) (A) (A) (A) (A) (A) (A) (A) (A) (A) (A)
                 (A) (A) (A) (A) (A) (A) (A) (A) (A) (A) (A) (A)
                 (A) (A) (A) (A) (A) (A) (A) (A) (A) (A) (A) (A)
                 (A) (A) (A) (A) (A) (A) (A) (A) (A)
 The electronic state is 1-A.
 Alpha  occ. eigenvalues --  -10.52700 -10.52611 -10.52482 -10.52423 -10.52216
 Alpha  occ. eigenvalues --  -10.52135 -10.52040  -0.92570  -0.87804  -0.82506
 Alpha  occ. eigenvalues --   -0.77229  -0.70941  -0.65843  -0.61681  -0.55348
 Alpha  occ. eigenvalues --   -0.54395  -0.50826  -0.50061  -0.47807  -0.45774
 Alpha  occ. eigenvalues --   -0.44968  -0.42605  -0.42317  -0.40436  -0.39897
 Alpha  occ. eigenvalues --   -0.37520  -0.36557  -0.35549  -0.34701
 Alpha virt. eigenvalues --    0.05605   0.07686   0.08543   0.08817   0.10291
 Alpha virt. eigenvalues --    0.12616   0.12990   0.13404   0.13820   0.14966
 Alpha virt. eigenvalues --    0.16625   0.17392   0.17815   0.18529   0.19582
 Alpha virt. eigenvalues --    0.21969   0.22715   0.23839   0.26082   0.26457
 Alpha virt. eigenvalues --    0.27662   0.28645   0.29302   0.29682   0.31682
 Alpha virt. eigenvalues --    0.32021   0.32961   0.35726   0.36701   0.38620
 Alpha virt. eigenvalues --    0.39079   0.40198   0.40856   0.43063   0.43851
 Alpha virt. eigenvalues --    0.44957   0.46204   0.46370   0.47586   0.47854
 Alpha virt. eigenvalues --    0.48626   0.49434   0.50503   0.51200   0.51524
 Alpha virt. eigenvalues --    0.51604   0.53011   0.53187   0.53542   0.53811
 Alpha virt. eigenvalues --    0.54191   0.55187   0.55729   0.56012   0.56716
 Alpha virt. eigenvalues --    0.57726   0.58931   0.59729   0.61777   0.63099
 Alpha virt. eigenvalues --    0.63792   0.66394   0.70664   0.73542   0.78760
 Alpha virt. eigenvalues --    0.79460   0.81232   0.82089   0.84582   0.85330
 Alpha virt. eigenvalues --    0.88325   0.88632   0.90311   0.90744   0.93277
 Alpha virt. eigenvalues --    0.94740   0.96252   0.97037   0.98816   1.01303
 Alpha virt. eigenvalues --    1.02043   1.03280   1.03815   1.04486   1.05240
 Alpha virt. eigenvalues --    1.06952   1.08397   1.08867   1.09337   1.10203
 Alpha virt. eigenvalues --    1.11496   1.12579   1.12892   1.13475   1.14535
 Alpha virt. eigenvalues --    1.15996   1.16786   1.17127   1.17954   1.19315
 Alpha virt. eigenvalues --    1.19529   1.20211   1.22041   1.23541   1.24547
 Alpha virt. eigenvalues --    1.25757   1.26351   1.27960   1.29494   1.29922
 Alpha virt. eigenvalues --    1.30854   1.31497   1.32296   1.33427   1.33598
 Alpha virt. eigenvalues --    1.35123   1.35664   1.36675   1.37970   1.38906
 Alpha virt. eigenvalues --    1.39939   1.40217   1.43177   1.44763   1.45381
 Alpha virt. eigenvalues --    1.46502   1.48216   1.48670   1.49610   1.50550
 Alpha virt. eigenvalues --    1.52597   1.53589   1.54650   1.55217   1.56005
 Alpha virt. eigenvalues --    1.57170   1.59745   1.61192   1.63033   1.63946
 Alpha virt. eigenvalues --    1.65780   1.68137   1.70235   1.71486   1.75666
 Alpha virt. eigenvalues --    1.77727   1.78637   1.83222   1.86996   2.21227
 Alpha virt. eigenvalues --    2.24117   2.25572   2.28644   2.31730   2.32909
 Alpha virt. eigenvalues --    2.37199   2.38471   2.41107   2.44000   2.45285
 Alpha virt. eigenvalues --    2.46072   2.49365   2.51946   2.52694   2.53146
 Alpha virt. eigenvalues --    2.56636   2.58152   2.58412   2.60369   2.62541
 Alpha virt. eigenvalues --    2.63441   2.64872   2.65241   2.66190   2.68531
 Alpha virt. eigenvalues --    2.69600   2.70520   2.70927   2.72288   2.73845
 Alpha virt. eigenvalues --    2.74245   2.75948   2.78099   2.79168   2.80031
 Alpha virt. eigenvalues --    2.81906   2.83160   2.84116   2.85250   2.86710
 Alpha virt. eigenvalues --    2.88638   2.89754   2.89952   2.92616   2.92929
 Alpha virt. eigenvalues --    2.95032   2.96069   2.96446   2.97743   2.99523
 Alpha virt. eigenvalues --    3.00632   3.01290   3.01707   3.02715   3.03762
 Alpha virt. eigenvalues --    3.04970   3.06362   3.07081   3.07844   3.08747
 Alpha virt. eigenvalues --    3.10067   3.10594   3.11756   3.12095   3.12425
 Alpha virt. eigenvalues --    3.14122   3.15667   3.16517   3.17486   3.18241
 Alpha virt. eigenvalues --    3.18979   3.21140   3.22227   3.22623   3.24364
 Alpha virt. eigenvalues --    3.25068   3.26358   3.27981   3.29734   3.30279
 Alpha virt. eigenvalues --    3.32197   3.33013   3.34519   3.36459   3.37605
 Alpha virt. eigenvalues --    3.37783   3.39126   3.39551   3.40140   3.41823
 Alpha virt. eigenvalues --    3.42734   3.44672   3.46119   3.48170   3.48507
 Alpha virt. eigenvalues --    3.51765   3.52262   3.53694   3.54249   3.55657
 Alpha virt. eigenvalues --    3.56524   3.58318   3.59440   3.60167   3.61854
 Alpha virt. eigenvalues --    3.62792   3.64418   3.64737   3.66590   3.67595
 Alpha virt. eigenvalues --    3.67826   3.70220   3.71767   3.72068   3.73498
 Alpha virt. eigenvalues --    3.74198   3.74822   3.78008   3.79702   3.79846
 Alpha virt. eigenvalues --    3.80889   3.81825   3.83114   3.84604   3.84764
 Alpha virt. eigenvalues --    3.87509   3.88746   3.89331   3.90026   3.91754
 Alpha virt. eigenvalues --    3.92240   3.93192   3.94373   3.94564   3.96367
 Alpha virt. eigenvalues --    3.97344   3.99175   4.00687   4.01045   4.02308
 Alpha virt. eigenvalues --    4.03095   4.03674   4.05177   4.05320   4.06620
 Alpha virt. eigenvalues --    4.08197   4.09687   4.11631   4.12749   4.13865
 Alpha virt. eigenvalues --    4.14185   4.15460   4.17367   4.19121   4.19305
 Alpha virt. eigenvalues --    4.20312   4.20930   4.21636   4.22786   4.23551
 Alpha virt. eigenvalues --    4.25139   4.25855   4.27579   4.29151   4.31663
 Alpha virt. eigenvalues --    4.32376   4.33974   4.35577   4.38160   4.39868
 Alpha virt. eigenvalues --    4.40880   4.41336   4.43348   4.46044   4.47417
 Alpha virt. eigenvalues --    4.47878   4.49386   4.50316   4.52180   4.54123
 Alpha virt. eigenvalues --    4.57062   4.58640   4.63964   4.64913   4.66691
 Alpha virt. eigenvalues --    4.67909   4.69535   4.72449   4.74480   4.77031
 Alpha virt. eigenvalues --    4.78502   4.79963   4.81530   4.83239   4.83925
 Alpha virt. eigenvalues --    4.85878   4.86426   4.88796   4.90185   4.91211
 Alpha virt. eigenvalues --    4.93817   4.96861   4.97313   4.98624   4.99885
 Alpha virt. eigenvalues --    5.01206   5.03699   5.04158   5.05268   5.07315
 Alpha virt. eigenvalues --    5.10204   5.11755   5.13374   5.15360   5.17263
 Alpha virt. eigenvalues --    5.20483   5.22500   5.24736   5.25365   5.26891
 Alpha virt. eigenvalues --    5.28269   5.29416   5.30400   5.30637   5.34010
 Alpha virt. eigenvalues --    5.36134   5.38476   5.39183   5.43238   5.44848
 Alpha virt. eigenvalues --    5.47742   5.50192   5.52661   5.53705   5.57065
 Alpha virt. eigenvalues --    5.63384   5.64181   5.74605   5.79230   5.80057
 Alpha virt. eigenvalues --    5.82965   5.85545   5.89631   5.95033   5.96178
 Alpha virt. eigenvalues --    6.01677   6.04414   6.08226  11.22013  11.80899
 Alpha virt. eigenvalues --   12.55903  12.95028  13.12386  13.47211  13.97817
          Condensed to atoms (all electrons):
               1          2          3          4          5          6
     1  C    5.128234   0.297056  -0.052939   0.292293  -0.000742  -0.046552
     2  C    0.297056   5.101550   0.295254  -0.043897  -0.044219  -0.016232
     3  C   -0.052939   0.295254   5.203084   0.010842   0.272685  -0.015182
     4  C    0.292293  -0.043897   0.010842   5.093025  -0.003547   0.268526
     5  C   -0.000742  -0.044219   0.272685  -0.003547   5.103500   0.001428
     6  C   -0.046552  -0.016232  -0.015182   0.268526   0.001428   5.045866
     7  C    0.000663   0.004119  -0.046906  -0.000125   0.300467  -0.000718
     8  H   -0.046776   0.006486  -0.001124   0.421153   0.000070  -0.043428
     9  H   -0.052661   0.005384  -0.000082   0.421353   0.000061  -0.051696
    10  H    0.420211  -0.045384   0.009343  -0.045931  -0.000361   0.006164
    11  H    0.422059  -0.047095  -0.013167  -0.057548   0.006374   0.007043
    12  H   -0.045889   0.411004  -0.036925   0.007376  -0.007416   0.000783
    13  H   -0.041840   0.421639  -0.052833  -0.003930   0.010471  -0.006669
    14  H    0.008173  -0.037920   0.407010  -0.000445  -0.038632   0.000713
    15  H   -0.001220  -0.054495   0.434681   0.000317  -0.060184  -0.008325
    16  H    0.000211   0.004217  -0.043563   0.000025   0.409289  -0.000054
    17  H   -0.008091   0.002594  -0.058554   0.000535   0.410918  -0.000092
    18  H   -0.010322   0.003598  -0.020143  -0.055834   0.001683   0.418186
    19  H    0.006587  -0.000348  -0.001344  -0.053618   0.000090   0.410564
    20  H    0.006855  -0.000538   0.001351  -0.041483  -0.000107   0.406937
    21  H   -0.000562   0.001384  -0.009063  -0.000030  -0.047904  -0.000056
    22  H    0.002366  -0.001290   0.001744  -0.000228  -0.045482  -0.000574
    23  H   -0.000004  -0.000545   0.008521   0.000014  -0.039592   0.000013
               7          8          9         10         11         12
     1  C    0.000663  -0.046776  -0.052661   0.420211   0.422059  -0.045889
     2  C    0.004119   0.006486   0.005384  -0.045384  -0.047095   0.411004
     3  C   -0.046906  -0.001124  -0.000082   0.009343  -0.013167  -0.036925
     4  C   -0.000125   0.421153   0.421353  -0.045931  -0.057548   0.007376
     5  C    0.300467   0.000070   0.000061  -0.000361   0.006374  -0.007416
     6  C   -0.000718  -0.043428  -0.051696   0.006164   0.007043   0.000783
     7  C    4.979853   0.000045  -0.000322   0.000199  -0.003456   0.000307
     8  H    0.000045   0.608787  -0.037310  -0.022139   0.007156  -0.000416
     9  H   -0.000322  -0.037310   0.610657   0.007763  -0.020585  -0.000406
    10  H    0.000199  -0.022139   0.007763   0.589516  -0.033431  -0.008835
    11  H   -0.003456   0.007156  -0.020585  -0.033431   0.594599  -0.005286
    12  H    0.000307  -0.000416  -0.000406  -0.008835  -0.005286   0.563009
    13  H   -0.000749   0.000676  -0.000415  -0.005620   0.008600  -0.027284
    14  H    0.006111   0.000033   0.000047  -0.000493  -0.000166  -0.006564
    15  H   -0.009631  -0.000012  -0.001230  -0.000364   0.000204   0.007607
    16  H   -0.039684   0.000003  -0.000026   0.000031   0.000420   0.000820
    17  H   -0.042893  -0.000042  -0.000039  -0.000601  -0.001257   0.001395
    18  H    0.000112   0.004789   0.007131   0.000867   0.000102  -0.000225
    19  H    0.000103   0.007987  -0.020888  -0.000673   0.000240  -0.000065
    20  H    0.000019  -0.020896   0.005923   0.000013  -0.000597   0.000074
    21  H    0.406492  -0.000010  -0.000002  -0.000018  -0.000041  -0.000017
    22  H    0.400707   0.000126   0.000002   0.000161   0.000081   0.000018
    23  H    0.406964  -0.000001  -0.000010  -0.000007   0.000261   0.000017
              13         14         15         16         17         18
     1  C   -0.041840   0.008173  -0.001220   0.000211  -0.008091  -0.010322
     2  C    0.421639  -0.037920  -0.054495   0.004217   0.002594   0.003598
     3  C   -0.052833   0.407010   0.434681  -0.043563  -0.058554  -0.020143
     4  C   -0.003930  -0.000445   0.000317   0.000025   0.000535  -0.055834
     5  C    0.010471  -0.038632  -0.060184   0.409289   0.410918   0.001683
     6  C   -0.006669   0.000713  -0.008325  -0.000054  -0.000092   0.418186
     7  C   -0.000749   0.006111  -0.009631  -0.039684  -0.042893   0.000112
     8  H    0.000676   0.000033  -0.000012   0.000003  -0.000042   0.004789
     9  H   -0.000415   0.000047  -0.001230  -0.000026  -0.000039   0.007131
    10  H   -0.005620  -0.000493  -0.000364   0.000031  -0.000601   0.000867
    11  H    0.008600  -0.000166   0.000204   0.000420  -0.001257   0.000102
    12  H   -0.027284  -0.006564   0.007607   0.000820   0.001395  -0.000225
    13  H    0.592299  -0.007146  -0.006945  -0.000398   0.000262  -0.005226
    14  H   -0.007146   0.575960  -0.032907  -0.018169   0.005226   0.001386
    15  H   -0.006945  -0.032907   0.581284   0.005597   0.006141  -0.014159
    16  H   -0.000398  -0.018169   0.005597   0.606284  -0.035261  -0.000094
    17  H    0.000262   0.005226   0.006141  -0.035261   0.592537  -0.000135
    18  H   -0.005226   0.001386  -0.014159  -0.000094  -0.000135   0.624570
    19  H    0.000788   0.000179  -0.000754  -0.000000   0.000014  -0.041054
    20  H   -0.000321  -0.000050   0.001667   0.000002   0.000012  -0.035654
    21  H   -0.000040   0.001429   0.001817  -0.001543   0.007921  -0.000018
    22  H   -0.000016  -0.000452   0.000494   0.008676  -0.014066   0.000014
    23  H    0.000036  -0.000536   0.000803  -0.012805   0.000656  -0.000015
              19         20         21         22         23
     1  C    0.006587   0.006855  -0.000562   0.002366  -0.000004
     2  C   -0.000348  -0.000538   0.001384  -0.001290  -0.000545
     3  C   -0.001344   0.001351  -0.009063   0.001744   0.008521
     4  C   -0.053618  -0.041483  -0.000030  -0.000228   0.000014
     5  C    0.000090  -0.000107  -0.047904  -0.045482  -0.039592
     6  C    0.410564   0.406937  -0.000056  -0.000574   0.000013
     7  C    0.000103   0.000019   0.406492   0.400707   0.406964
     8  H    0.007987  -0.020896  -0.000010   0.000126  -0.000001
     9  H   -0.020888   0.005923  -0.000002   0.000002  -0.000010
    10  H   -0.000673   0.000013  -0.000018   0.000161  -0.000007
    11  H    0.000240  -0.000597  -0.000041   0.000081   0.000261
    12  H   -0.000065   0.000074  -0.000017   0.000018   0.000017
    13  H    0.000788  -0.000321  -0.000040  -0.000016   0.000036
    14  H    0.000179  -0.000050   0.001429  -0.000452  -0.000536
    15  H   -0.000754   0.001667   0.001817   0.000494   0.000803
    16  H   -0.000000   0.000002  -0.001543   0.008676  -0.012805
    17  H    0.000014   0.000012   0.007921  -0.014066   0.000656
    18  H   -0.041054  -0.035654  -0.000018   0.000014  -0.000015
    19  H    0.605754  -0.027349   0.000291  -0.000071   0.000007
    20  H   -0.027349   0.587743   0.000010   0.000013   0.000000
    21  H    0.000291   0.000010   0.592717  -0.041942  -0.030380
    22  H   -0.000071   0.000013  -0.041942   0.603356  -0.026553
    23  H    0.000007   0.000000  -0.030380  -0.026553   0.582405
 Mulliken charges:
               1
     1  C   -0.277109
     2  C   -0.262322
     3  C   -0.292688
     4  C   -0.208844
     5  C   -0.228850
     6  C   -0.376644
     7  C   -0.361675
     8  H    0.114842
     9  H    0.127349
    10  H    0.129588
    11  H    0.135491
    12  H    0.146917
    13  H    0.124661
    14  H    0.137214
    15  H    0.149615
    16  H    0.116026
    17  H    0.132820
    18  H    0.120443
    19  H    0.113561
    20  H    0.116375
    21  H    0.119565
    22  H    0.112915
    23  H    0.110750
 Sum of Mulliken charges =  -0.00000
 Mulliken charges with hydrogens summed into heavy atoms:
               1
     1  C   -0.012029
     2  C    0.009256
     3  C   -0.005859
     4  C    0.033347
     5  C    0.019995
     6  C   -0.026266
     7  C   -0.018444
 APT charges:
               1
     1  C   -0.694737
     2  C   -0.790624
     3  C   -0.564280
     4  C   -0.778164
     5  C   -0.740779
     6  C   -1.062341
     7  C   -1.117982
     8  H    0.507647
     9  H    0.294673
    10  H    0.470880
    11  H    0.266475
    12  H    0.419205
    13  H    0.354309
    14  H    0.448925
    15  H    0.246622
    16  H    0.490048
    17  H    0.263377
    18  H    0.157117
    19  H    0.274429
    20  H    0.528931
    21  H    0.261347
    22  H    0.191384
    23  H    0.573538
 Sum of APT charges =  -0.00000
 APT charges with hydrogens summed into heavy atoms:
               1
     1  C    0.042618
     2  C   -0.017110
     3  C    0.131266
     4  C    0.024157
     5  C    0.012646
     6  C   -0.101864
     7  C   -0.091713
 Electronic spatial extent (au):  <R**2>=           1008.1320
 Charge=             -0.0000 electrons
 Dipole moment (field-independent basis, Debye):
    X=              0.0107    Y=              0.1628    Z=             -0.0215  Tot=              0.1645
 Quadrupole moment (field-independent basis, Debye-Ang):
   XX=            -48.6802   YY=            -49.5068   ZZ=            -49.4330
   XY=              0.0929   XZ=             -0.3158   YZ=              0.1725
 Traceless Quadrupole moment (field-independent basis, Debye-Ang):
   XX=              0.5265   YY=             -0.3002   ZZ=             -0.2263
   XY=              0.0929   XZ=             -0.3158   YZ=              0.1725
 Octapole moment (field-independent basis, Debye-Ang**2):
  XXX=              1.3075  YYY=              1.6670  ZZZ=             -0.3299  XYY=             -0.0403
  XXY=              1.7297  XXZ=              0.0115  XZZ=             -0.8874  YZZ=              0.9573
  YYZ=              0.1788  XYZ=             -0.1612
 Hexadecapole moment (field-independent basis, Debye-Ang**3):
 XXXX=           -805.6342 YYYY=           -368.9811 ZZZZ=           -243.6791 XXXY=              1.3680
 XXXZ=             -3.1088 YYYX=             -2.3487 YYYZ=             -2.0056 ZZZX=             -1.4507
 ZZZY=              2.5056 XXYY=           -203.8032 XXZZ=           -179.7465 YYZZ=            -99.9921
 XXYZ=              0.9751 YYXZ=             -2.6328 ZZXY=              1.1533
 N-N= 3.363195438544D+02 E-N=-1.311086067259D+03  KE= 2.745378126826D+02
  Exact polarizability:   0.000   0.000   0.000   0.000   0.000   0.000
 Approx polarizability:  99.832   0.066  97.355  -0.139   0.161  97.140
 No NMR shielding tensors so no spin-rotation constants.
 Leave Link  601 at Sat Sep 28 04:05:15 2019, MaxMem=   671088640 cpu:              64.8 elap:              32.4
 (Enter /shared/centos7/gaussian/g16/l701.exe)
 SCFChk:  SCF convergence  7.29D-09 required  1.00D-08
 ... and contract with generalized density number  0.
 Compute integral second derivatives.
 Entering OneElI...
 Calculate overlap and kinetic energy integrals
    NBasis = 485  MinDer = 2  MaxDer = 2
 Requested accuracy = 0.1000D-12
 PrmmSu-InSpLW:  IPartL=    0 NPrtUS=   20 NPrtUL=    1 DoSpLW=F IThBeg=    0 IThEnd=   19 NThAct=   20.
 PrsmSu:  NPrtUS=  20 ThrOK=T IAlg=1 NPAlg=1 LenDen=           0 ISkipM=0 DoSpLW=F IThBeg=    0 IThEnd=   19.
 Prism:   IPart=     0 DynPar=F LinDyn=F Incr=           6.
 PRISM was handed    33194434 working-precision words and 13791 shell-pairs
 PRISM was handed    33194434 working-precision words and 13791 shell-pairs
 PRISM was handed    33194434 working-precision words and 13791 shell-pairs
 PRISM was handed    33194434 working-precision words and 13791 shell-pairs
 PRISM was handed    33194434 working-precision words and 13791 shell-pairs
 PRISM was handed    33194434 working-precision words and 13791 shell-pairs
 PRISM was handed    33194434 working-precision words and 13791 shell-pairs
 PRISM was handed    33194434 working-precision words and 13791 shell-pairs
 PRISM was handed    33194434 working-precision words and 13791 shell-pairs
 PRISM was handed    33194434 working-precision words and 13791 shell-pairs
 PRISM was handed    33194434 working-precision words and 13791 shell-pairs
 IPart=  0 NShTot=         723 NBatch=          79 AvBLen=         9.2
 PRISM was handed    33194434 working-precision words and 13791 shell-pairs
 IPart= 15 NShTot=         671 NBatch=          52 AvBLen=        12.9
 IPart=  2 NShTot=         718 NBatch=          75 AvBLen=         9.6
 PRISM was handed    33194434 working-precision words and 13791 shell-pairs
 PRISM was handed    33194434 working-precision words and 13791 shell-pairs
 PRISM was handed    33194434 working-precision words and 13791 shell-pairs
 PRISM was handed    33194434 working-precision words and 13791 shell-pairs
 PRISM was handed    33194434 working-precision words and 13791 shell-pairs
 PRISM was handed    33194434 working-precision words and 13791 shell-pairs
 PRISM was handed    33194434 working-precision words and 13791 shell-pairs
 IPart= 13 NShTot=         673 NBatch=          52 AvBLen=        12.9
 PRISM was handed    33194434 working-precision words and 13791 shell-pairs
 IPart= 12 NShTot=         674 NBatch=          53 AvBLen=        12.7
 IPart= 19 NShTot=         663 NBatch=          48 AvBLen=        13.8
 IPart=  1 NShTot=         720 NBatch=          76 AvBLen=         9.5
 IPart=  7 NShTot=         696 NBatch=          62 AvBLen=        11.2
 IPart=  6 NShTot=         705 NBatch=          69 AvBLen=        10.2
 IPart= 11 NShTot=         680 NBatch=          56 AvBLen=        12.1
 IPart=  8 NShTot=         694 NBatch=          61 AvBLen=        11.4
 IPart= 14 NShTot=         672 NBatch=          52 AvBLen=        12.9
 IPart= 10 NShTot=         682 NBatch=          56 AvBLen=        12.2
 IPart= 18 NShTot=         665 NBatch=          48 AvBLen=        13.9
 IPart=  3 NShTot=         714 NBatch=          74 AvBLen=         9.6
 IPart= 17 NShTot=         668 NBatch=          50 AvBLen=        13.4
 IPart=  4 NShTot=         709 NBatch=          72 AvBLen=         9.8
 IPart= 16 NShTot=         670 NBatch=          51 AvBLen=        13.1
 IPart=  9 NShTot=         687 NBatch=          59 AvBLen=        11.6
 IPart=  5 NShTot=         707 NBatch=          70 AvBLen=        10.1
 PrSmSu:  NxtVal=            121.
 Entering OneElI...
 Calculate potential energy integrals
    NBasis = 485  MinDer = 2  MaxDer = 2
 Requested accuracy = 0.1000D-12
 PrmmSu-InSpLW:  IPartL=    0 NPrtUS=   20 NPrtUL=    1 DoSpLW=F IThBeg=    0 IThEnd=   19 NThAct=   20.
 PrsmSu:  NPrtUS=  20 ThrOK=T IAlg=1 NPAlg=1 LenDen=           0 ISkipM=0 DoSpLW=F IThBeg=    0 IThEnd=   19.
 Prism:   IPart=     0 DynPar=F LinDyn=F Incr=         145.
 PRISM was handed    33256990 working-precision words and 12692 shell-pairs
 PRISM was handed    33256990 working-precision words and 12692 shell-pairs
 PRISM was handed    33256990 working-precision words and 12692 shell-pairs
 PRISM was handed    33256990 working-precision words and 12692 shell-pairs
 PRISM was handed    33256990 working-precision words and 12692 shell-pairs
 PRISM was handed    33256990 working-precision words and 12692 shell-pairs
 PRISM was handed    33256990 working-precision words and 12692 shell-pairs
 PRISM was handed    33256990 working-precision words and 12692 shell-pairs
 PRISM was handed    33256990 working-precision words and 12692 shell-pairs
 PRISM was handed    33256990 working-precision words and 12692 shell-pairs
 PRISM was handed    33256990 working-precision words and 12692 shell-pairs
 PRISM was handed    33256990 working-precision words and 12692 shell-pairs
 PRISM was handed    33256990 working-precision words and 12692 shell-pairs
 PRISM was handed    33256990 working-precision words and 12692 shell-pairs
 PRISM was handed    33256990 working-precision words and 12692 shell-pairs
 PRISM was handed    33256990 working-precision words and 12692 shell-pairs
 PRISM was handed    33256990 working-precision words and 12692 shell-pairs
 PRISM was handed    33256990 working-precision words and 12692 shell-pairs
 PRISM was handed    33256990 working-precision words and 12692 shell-pairs
 PRISM was handed    33256990 working-precision words and 12692 shell-pairs
 IPart= 19 NShTot=       13984 NBatch=         609 AvBLen=        23.0
 IPart= 18 NShTot=       14030 NBatch=         611 AvBLen=        23.0
 IPart=  0 NShTot=       15272 NBatch=         666 AvBLen=        22.9
 IPart=  3 NShTot=       15111 NBatch=         659 AvBLen=        22.9
 IPart=  6 NShTot=       14835 NBatch=         647 AvBLen=        22.9
 IPart=  1 NShTot=       15226 NBatch=         664 AvBLen=        22.9
 IPart=  7 NShTot=       14674 NBatch=         640 AvBLen=        22.9
 IPart= 15 NShTot=       14214 NBatch=         619 AvBLen=        23.0
 IPart=  2 NShTot=       15134 NBatch=         660 AvBLen=        22.9
 IPart= 16 NShTot=       14168 NBatch=         617 AvBLen=        23.0
 IPart=  8 NShTot=       14559 NBatch=         634 AvBLen=        23.0
 IPart= 17 NShTot=       14099 NBatch=         614 AvBLen=        23.0
 IPart= 12 NShTot=       14352 NBatch=         625 AvBLen=        23.0
 IPart= 10 NShTot=       14559 NBatch=         634 AvBLen=        23.0
 IPart=  9 NShTot=       14559 NBatch=         634 AvBLen=        23.0
 IPart= 13 NShTot=       14329 NBatch=         624 AvBLen=        23.0
 IPart=  4 NShTot=       15042 NBatch=         656 AvBLen=        22.9
 IPart=  5 NShTot=       14996 NBatch=         654 AvBLen=        22.9
 IPart= 14 NShTot=       14283 NBatch=         622 AvBLen=        23.0
 IPart= 11 NShTot=       14490 NBatch=         631 AvBLen=        23.0
 PrSmSu:  NxtVal=           2901.
 Polarizability after L701:
                1             2             3 
      1  0.000000D+00
      2  0.000000D+00  0.000000D+00
      3  0.000000D+00  0.000000D+00  0.000000D+00
 Dipole Derivatives after L701:
                 1             2             3             4             5 
      1  -0.489482D+00 -0.667715D+00  0.484382D+00 -0.573051D+00 -0.931641D-01
      2  -0.378138D+00 -0.434298D+00  0.585382D+00 -0.133599D+00 -0.142322D+01
      3  -0.195906D+00  0.406816D+00 -0.116043D+01 -0.482845D+00 -0.101893D+00
                 6             7             8             9            10 
      1  -0.480545D+00 -0.118666D+00  0.160278D+00  0.734899D+00 -0.129909D+01
      2  -0.265946D+00  0.306445D+00 -0.554454D+00 -0.459331D+00 -0.204051D-01
      3  -0.375598D+00  0.195331D+00  0.118321D+00 -0.101972D+01  0.352051D+00
                11            12            13            14            15 
      1   0.458760D+00  0.115406D+01 -0.134584D+01  0.100206D+01 -0.397312D+00
      2  -0.630464D+00 -0.673286D+00  0.260463D+00 -0.246291D+00  0.219342D+00
      3  -0.582400D+00 -0.404934D+00  0.240984D+00  0.169377D+00 -0.630204D+00
                16            17            18            19            20 
      1  -0.104919D+01  0.311897D+00 -0.126105D+01 -0.114607D+01 -0.121525D+01
      2   0.254220D-01 -0.111833D+01  0.545712D+00 -0.545943D-01 -0.119285D+01
      3  -0.533089D-01  0.817457D-01 -0.101950D+01 -0.241491D-01 -0.119442D+00
                21            22            23            24            25 
      1  -0.130300D+00  0.111794D+01  0.115854D+00 -0.364712D+00 -0.309086D-01
      2  -0.524484D-01 -0.158146D+00  0.127640D+00  0.337010D-01  0.230121D+00
      3  -0.101503D+01 -0.338732D+00 -0.706136D-01  0.277363D+00  0.199426D+00
                26            27            28            29            30 
      1  -0.321411D+00 -0.195410D+00  0.576996D+00  0.361970D+00 -0.296175D+00
      2   0.549989D+00  0.228651D+00  0.306974D+00  0.476896D+00 -0.229756D+00
      3   0.290254D+00  0.364939D+00 -0.353155D+00 -0.323697D+00  0.358747D+00
                31            32            33            34            35 
      1   0.129093D+00 -0.207385D-01 -0.217371D-01  0.168109D+00 -0.408457D-01
      2  -0.997823D-01  0.145670D+00 -0.768114D-01 -0.312355D+00  0.892152D+00
      3   0.437765D+00  0.191729D+00  0.524663D+00  0.129537D-01 -0.814443D-01
                36            37            38            39            40 
      1  -0.370769D-02  0.420529D+00  0.479777D-01  0.295449D+00  0.370454D+00
      2  -0.329891D+00  0.412617D+00  0.215388D+00  0.445673D+00 -0.194067D+00
      3   0.197354D+00  0.252002D+00  0.393040D-01  0.427011D+00 -0.250551D+00
                41            42            43            44            45 
      1  -0.251571D+00 -0.327597D+00  0.126506D+00  0.108353D+00 -0.426480D-01
      2   0.408121D+00  0.357246D+00 -0.551836D-01  0.278575D+00 -0.430101D-01
      3   0.354922D+00  0.568199D+00  0.266700D+00 -0.389649D+00  0.334784D+00
                46            47            48            49            50 
      1   0.105628D+01 -0.365536D+00 -0.384113D+00  0.138447D-01 -0.185376D+00
      2  -0.198723D+00  0.232202D+00  0.124205D+00  0.625446D-01  0.234051D+00
      3  -0.924996D-01  0.701900D-01  0.181665D+00 -0.111484D+00 -0.136523D+00
                51            52            53            54            55 
      1   0.557542D+00 -0.139356D+00  0.277542D+00  0.275855D+00 -0.118387D+00
      2  -0.249163D+00 -0.133312D-01  0.177583D+00 -0.593105D-02  0.376816D+00
      3   0.542234D+00 -0.327084D+00  0.387055D+00  0.433123D+00 -0.166804D+00
                56            57            58            59            60 
      1  -0.349296D+00  0.679380D-01  0.122681D+01 -0.660368D-01  0.249384D+00
      2   0.752690D+00 -0.721303D-01 -0.394413D+00  0.116582D+00 -0.111573D+00
      3  -0.300782D+00  0.188984D+00  0.403052D+00 -0.387480D-01  0.243400D+00
                61            62            63            64            65 
      1  -0.650236D-01  0.356439D+00 -0.509225D+00 -0.165469D+00  0.156459D+00
      2  -0.149259D+00  0.442972D+00 -0.504383D+00 -0.364593D+00  0.324344D+00
      3   0.666175D-01 -0.144851D+00  0.406094D+00 -0.285661D+00  0.126331D+00
                66            67            68            69 
      1   0.269025D+00  0.133397D+01  0.219349D+00  0.325992D+00
      2   0.384171D+00  0.545187D+00  0.225055D+00  0.149578D+00
      3   0.415277D+00  0.255297D+00  0.539983D-01  0.161588D+00
 Hessian after L701:
                1             2             3             4             5 
      1  0.162605D+02
      2  0.737703D+00  0.168305D+02
      3  0.590270D+00  0.161424D+00  0.169349D+02
      4 -0.541669D+01 -0.986594D+00 -0.143853D+01  0.158032D+02
      5 -0.101729D+01 -0.531384D+01  0.148217D+01  0.128702D+00  0.168233D+02
      6 -0.146910D+01  0.146780D+01 -0.425250D+01  0.746888D+00 -0.557348D+00
      7  0.307344D+00  0.205544D-02 -0.252970D+00 -0.378790D+01  0.141907D+01
      8 -0.875377D-02 -0.773550D-01  0.320249D-01  0.136065D+01 -0.520956D+01
      9 -0.269110D+00  0.256770D-01  0.921159D-01 -0.130701D+01 -0.823555D+00
     10 -0.501554D+01 -0.157099D+01  0.471625D+00  0.599627D-01 -0.203354D+00
     11 -0.151962D+01 -0.341508D+01 -0.663323D+00 -0.263053D+00  0.172132D+00
     12  0.489963D+00 -0.706133D+00 -0.601536D+01 -0.730189D-01  0.556374D-01
     13  0.224778D+00  0.891317D-01 -0.961196D-01  0.365721D+00  0.106016D+00
     14  0.132055D+00 -0.169155D+00 -0.137374D-01  0.237749D+00 -0.105151D+00
     15 -0.235569D+00 -0.269189D-01 -0.156724D+00  0.117647D+00  0.476543D-01
     16 -0.796336D-01 -0.828836D-01  0.841042D-01 -0.172101D-01 -0.152895D+00
     17 -0.105877D+00  0.418413D-01 -0.194827D+00 -0.231839D+00  0.292471D-01
     18  0.821503D-01 -0.152000D+00  0.141560D+00  0.235917D-02 -0.965718D-02
     19  0.154031D+00  0.159112D+00 -0.768542D-02  0.357627D-01  0.200518D+00
     20  0.128242D+00 -0.389232D-01 -0.110130D-01  0.188669D+00  0.733843D-01
     21 -0.625708D-01 -0.347461D-01 -0.137383D+00  0.119652D-01  0.234408D-01
     22  0.676671D-01  0.129554D+00 -0.275017D-01  0.873367D-01 -0.816619D-01
     23  0.131077D+00 -0.128619D-01 -0.931828D-02 -0.688057D-01  0.498761D-02
     24 -0.129585D-01 -0.155400D-01  0.117064D+00 -0.635820D-01  0.373082D-01
     25  0.135218D+00  0.144619D+00  0.240660D-01 -0.313207D-01 -0.303024D-01
     26  0.109743D+00 -0.112083D+00  0.329034D-01 -0.473676D-01  0.816693D-01
     27  0.253824D-01 -0.157763D-02  0.169704D+00 -0.232671D-01  0.606200D-01
     28 -0.351718D+01  0.943544D+00 -0.731601D+00  0.399431D-01  0.551880D-01
     29  0.931281D+00 -0.333410D+01 -0.818809D+00  0.518199D-01  0.143505D+00
     30 -0.737785D+00 -0.838057D+00 -0.369466D+01  0.931396D-01 -0.441251D-01
     31 -0.338426D+01  0.390198D+00  0.127950D+01  0.169643D+00  0.179750D-01
     32  0.385674D+00 -0.455166D+01  0.350030D+00 -0.236439D-02  0.447129D-01
     33  0.150525D+01  0.418539D+00 -0.322456D+01  0.235203D-02 -0.155659D+00
     34  0.510022D-01  0.706526D-01  0.618980D-01 -0.417217D+01 -0.685607D+00
     35  0.961216D-01  0.132429D-01 -0.119573D+00 -0.768520D+00 -0.240615D+01
     36  0.735101D-01 -0.112642D+00  0.873007D-01  0.289258D+00 -0.697169D+00
     37  0.146433D+00  0.303584D-01  0.662985D-01 -0.337104D+01  0.431024D+00
     38  0.190261D-01  0.775162D-01 -0.113008D+00  0.560861D+00 -0.435045D+01
     39  0.544251D-01 -0.498251D-01 -0.897035D-01  0.130945D+01  0.441942D+00
     40  0.454567D-01 -0.305347D-01 -0.101174D+00 -0.192484D-01 -0.491564D-01
     41 -0.395917D-01 -0.390174D-01  0.363422D-01 -0.447828D-01  0.110930D+00
     42 -0.117864D+00  0.355550D-01  0.720317D-01  0.678167D-01  0.696587D-01
     43 -0.973752D-02  0.107182D-02 -0.152948D-01  0.122862D+00 -0.180847D+00
     44  0.264193D-01 -0.154783D-01 -0.239689D-01 -0.134012D+00 -0.185919D-01
     45 -0.480728D-01 -0.119281D-01  0.158929D-01  0.973295D-01  0.164944D+00
     46  0.376448D-01 -0.502196D-02 -0.843416D-02  0.117820D+00  0.226339D-01
     47 -0.938151D-02 -0.117443D-01  0.495779D-03  0.164554D-01 -0.318277D-01
     48 -0.196685D-01  0.222881D-02 -0.107079D-01 -0.138592D-01  0.351035D-02
     49 -0.350362D-01  0.179144D-02  0.297354D-01  0.542250D-01  0.344251D-01
     50 -0.132850D-01 -0.455161D-02 -0.504642D-02  0.238390D-01 -0.407745D-01
[...]
 6294,-0.00068534,0.00075615,0.00116958,-0.01258452,-0.02154980,0.01664
 187,-0.07144031,-0.17334647,0.10422663,0.00002188,-0.00030617,-0.00017
 078,-0.00091904,-0.00315060,0.00294587,0.00020685,0.00012108,-0.000219
 03,-0.00059080,0.00082924,-0.00077324,0.00008908,0.00043678,0.00014978
 ,0.00092729,0.00028293,-0.00017659,0.00003065,0.00026203,-0.00005607,0
 .00007417,-0.00004010,-0.00005083,-0.00054396,-0.00438276,-0.00353527,
 -0.00001079,0.00090027,-0.00008807,0.00361113,0.00779415,-0.00627401,0
 .08101609,0.19050425,0.00013101,0.00085807,0.00052189,-0.00804350,-0.0
 1251352,0.01109717,0.06012424,0.10531110,-0.13413811,0.00103441,0.0000
 8279,-0.00020710,0.00861619,0.02011568,-0.01731395,0.00034733,-0.00026
 934,-0.00006281,0.00189770,0.00060181,0.00170321,-0.00014135,-0.000061
 49,-0.00003116,0.00068507,-0.00064397,-0.00064001,-0.00021146,0.000228
 95,0.00008334,0.00007824,-0.00008519,-0.00003228,-0.00036639,-0.003820
 78,-0.00121480,-0.00001164,0.00090656,0.00066296,0.00365474,0.00553402
 ,-0.00544818,-0.06402315,-0.11450673,0.14940595,-0.00038613,0.00006963
 ,-0.00011580,-0.00117467,0.00095606,-0.00320006,0.00281823,-0.01292998
 ,-0.01338049,0.00000522,-0.00017212,-0.00000933,-0.07522951,0.06024647
 ,0.06133699,0.00000964,0.00009701,0.00000260,-0.01650025,0.02343845,0.
 02251443,0.00003839,-0.00000012,-0.00006261,-0.00002911,0.00014493,-0.
 00010205,0.00017283,-0.00005474,0.00005840,-0.00000056,-0.00019343,0.0
 0006754,0.00003724,0.00018800,0.00011879,-0.00024567,-0.00073407,-0.00
 071669,0.00102932,-0.00083990,-0.00064803,0.00007376,0.00027966,-0.000
 02909,0.09185112,0.00001415,0.00016798,0.00027930,-0.00035735,0.000170
 30,-0.00012576,-0.00082041,0.00270329,0.00363595,-0.00008818,-0.000015
 72,-0.00007605,0.06025695,-0.16617523,-0.11496497,0.00006223,0.0000517
 1,-0.00002752,-0.00307806,0.00475310,0.00473655,0.00002155,-0.00000272
 ,-0.00002549,-0.00001436,0.00000480,-0.00003144,-0.00006990,0.00001751
 ,-0.00002273,-0.00019037,0.00010832,0.00013913,0.00026141,0.00026710,-
 0.00003313,0.00013580,0.00005732,-0.00028336,-0.00064542,0.00104887,-0
 .00005188,-0.00027733,-0.00026598,-0.00020023,-0.06547888,0.17567159,-
 0.00032809,0.00032382,0.00020346,-0.00259752,0.00286744,-0.00369608,0.
 00682661,-0.01967672,-0.01877677,0.00001751,-0.00008833,0.00009296,0.0
 6081022,-0.11443521,-0.16249247,-0.00000476,0.00002125,0.00000700,0.00
 233253,-0.00294504,-0.00278642,0.00004818,0.00000513,-0.00005726,-0.00
 003284,0.00001761,0.00005153,0.00007661,-0.00006436,-0.00001722,0.0000
 9084,0.00002294,0.00002894,-0.00004184,-0.00000027,0.00021974,-0.00033
 127,-0.00139402,-0.00078033,-0.00010107,-0.00029215,0.00156052,0.00007
 980,0.00033406,-0.00059667,-0.06233879,0.12614991,0.17629553,0.0001888
 8,-0.00041211,0.00018182,0.00134087,0.00096001,0.00023751,0.00224942,0
 .01451177,-0.00794160,-0.00011979,-0.00000403,-0.00009044,-0.05196391,
 -0.03154513,0.01452647,0.00001109,0.00008265,-0.00000709,-0.00653446,-
 0.03195394,0.01317277,-0.00000397,-0.00002657,0.00000160,-0.00004048,0
 .00001954,-0.00006509,0.00004375,0.00000949,-0.00011620,-0.00018915,0.
 00009459,0.00004266,-0.00024989,-0.00037868,0.00022184,-0.00009401,0.0
 0012302,0.00017479,-0.00035141,0.00006829,0.00024494,-0.00160258,0.000
 20979,-0.00234906,0.00136914,0.01069566,-0.00513140,0.05978176,-0.0000
 2260,0.00046671,0.00007720,-0.00026490,0.00063838,-0.00185000,-0.00027
 147,-0.00239235,0.00179324,-0.00014259,-0.00011403,-0.00014492,-0.0329
 8245,-0.26013819,0.09118252,0.00007811,0.00007060,-0.00005134,-0.00095
 217,-0.00350483,0.00125161,0.00000005,0.00002005,0.00001696,0.00003905
 ,0.00009363,0.00000980,-0.00006240,0.00004327,0.00013249,-0.00003013,-
 0.00004576,0.00035910,0.00014912,0.00077186,0.00050160,0.00014938,0.00
 019808,-0.00025793,0.00021682,-0.00022829,0.00050974,0.00092601,0.0006
 4151,-0.00052954,-0.00294585,-0.02042405,0.00822854,0.03767967,0.28177
 406,-0.00005871,-0.00000203,-0.00029651,0.00115745,0.00165101,0.001285
 15,0.00325888,0.02525512,-0.01502775,0.00010592,0.00020338,0.00009349,
 0.01525301,0.09005348,-0.08608998,-0.00015531,-0.00004714,0.00004423,0
 .00085739,0.00382447,-0.00172586,-0.00002846,-0.00008612,0.00000222,-0
 .00014149,-0.00004371,0.00000981,0.00009629,-0.00009314,0.00012497,0.0
 0044678,-0.00021151,-0.00015003,-0.00058522,-0.00097065,0.00005876,-0.
 00000022,-0.00002456,0.00062290,-0.00039956,0.00008638,-0.00019684,-0.
 00347036,0.00079735,-0.00407995,-0.00366005,-0.01981567,0.00894782,-0.
 01341870,-0.10054120,0.09561057,0.00001164,-0.00061336,0.00029859,-0.0
 0044216,-0.00011521,0.00030614,0.00019528,0.00016931,-0.00025446,-0.01
 455817,0.01041405,0.00482431,-0.00006903,-0.00014905,0.00002499,-0.195
 00240,0.11872128,0.05924042,-0.00003712,0.00008739,0.00004182,-0.00084
 137,0.00089313,-0.00361611,0.00037061,-0.00037778,0.00039650,0.0000321
 5,-0.00002736,-0.00000933,0.00005206,0.00006565,-0.00007523,0.00027569
 ,-0.00015039,0.00009607,0.00006243,-0.00076803,0.00126324,-0.00005777,
 -0.00007329,0.00005575,-0.00004586,-0.00021698,-0.00034973,0.00001953,
 0.00000130,-0.00000540,0.00003319,0.00000373,0.00008688,0.21322479,0.0
 0068916,-0.00017705,-0.00066531,0.00056954,-0.00004925,0.00053063,-0.0
 0012878,0.00039207,-0.00000155,0.00665582,-0.00604228,-0.00293270,0.00
 003545,-0.00009902,-0.00004649,0.11837808,-0.14242480,-0.04724730,0.00
 006622,-0.00002315,-0.00003868,0.00061553,0.00048987,0.00182684,-0.000
 49488,0.00063826,0.00018459,0.00003350,0.00005055,0.00005164,-0.000238
 40,0.00014036,0.00015012,-0.00024651,0.00008403,-0.00032907,-0.0010004
 0,-0.00040521,0.00036577,0.00001302,0.00001486,0.00001590,-0.00005808,
 -0.00001725,0.00005265,-0.00004712,-0.00001282,-0.00005093,-0.00001102
 ,-0.00001935,0.00000015,-0.13104416,0.15134649,0.00011342,-0.00027227,
 0.00111737,0.00111095,0.00056027,-0.00040691,0.00028069,0.00033756,-0.
 00018471,-0.02127386,0.01659352,0.00939088,-0.00022208,-0.00012432,0.0
 0000211,0.05971643,-0.04826228,-0.07050846,-0.00001996,0.00001581,0.00
 003239,-0.00323772,0.00226204,-0.00423041,0.00069947,-0.00060757,0.001
 41423,0.00001329,0.00004502,-0.00010256,0.00009286,-0.00025896,0.00007
 934,-0.00007344,-0.00013015,0.00006481,0.00061130,0.00083728,-0.001230
 13,-0.00001870,-0.00004159,0.00005383,-0.00029203,-0.00048515,-0.00037
 328,0.00003308,0.00001058,0.00004843,0.00004263,-0.00002295,0.00008247
 ,-0.06378768,0.05069981,0.07687498,-0.00246667,0.00082192,-0.00299204,
 -0.00071589,0.00002814,-0.00020874,0.00013136,-0.00008763,0.00001017,0
 .01191606,0.01154699,-0.01321690,-0.00002642,0.00005361,0.00001660,-0.
 13758345,-0.08131228,0.10017305,-0.00002134,-0.00001128,0.00004167,0.0
 0103232,-0.00012518,0.00073919,0.00049056,-0.00047994,0.00073749,-0.00
 009411,0.00009162,0.00004290,0.00049834,0.00073959,-0.00079877,0.00022
 573,-0.00008955,0.00020291,0.00054537,-0.00007026,0.00032993,-0.000006
 98,-0.00003173,-0.00001189,-0.00006039,-0.00007849,-0.00001495,0.00001
 973,0.00000298,0.00003676,0.00000297,0.00000126,0.00002364,-0.01400016
 ,-0.01322127,0.01417584,0.14781172,0.00222455,0.00017334,0.00183838,0.
 00054976,0.00007143,-0.00010842,-0.00008094,-0.00004262,0.00007030,-0.
 00575547,-0.00616579,0.00532459,0.00001399,0.00002853,-0.00001363,-0.0
 8058667,-0.11815641,0.08702130,0.00003498,-0.00001403,-0.00001270,-0.0
 0010643,-0.00011529,-0.00025964,0.00030812,0.00038515,-0.00009219,0.00
 014980,0.00048743,-0.00024643,-0.00045074,-0.00024906,0.00076926,-0.00
 013356,0.00004888,-0.00008227,-0.00016154,-0.00006604,-0.00031256,-0.0
 0001131,0.00004636,0.00002804,0.00006648,0.00007282,0.00001794,-0.0000
 0224,0.00001693,0.00000701,-0.00000311,-0.00000443,-0.00004154,0.01128
 167,0.01109415,-0.01309973,0.08711917,0.12501642,-0.00437431,0.0002574
 4,-0.00316206,-0.00053881,0.00011257,0.00034907,0.00003532,0.00008626,
 0.00007795,0.01586674,0.01299335,-0.01577604,0.00003266,0.00003234,0.0
 0000428,0.09922159,0.08692347,-0.15482091,-0.00001605,0.00005578,0.000
 00205,-0.00000452,-0.00006809,0.00132906,0.00035957,-0.00071974,0.0002
 6281,-0.00000920,0.00016411,0.00011947,0.00081467,0.00111767,-0.000917
 24,0.00005213,-0.00000102,-0.00004723,-0.00003915,-0.00013213,0.000051
 30,0.00001808,-0.00005378,-0.00005176,0.00000368,0.00005193,0.00001597
 ,-0.00000815,-0.00003253,-0.00002821,-0.00003529,-0.00002170,0.0000251
 1,0.00529290,0.00468337,-0.00665435,-0.10677831,-0.09761234,0.16805629
 ,0.00062156,-0.00026556,0.00135005,0.00037286,0.00020789,-0.00000859,0
 .00006868,0.00009130,0.00003660,-0.00781872,-0.01490740,-0.00981011,-0
 .00009437,-0.00008936,0.00002151,-0.08738387,-0.08041335,-0.04912312,-
 0.00008413,0.00008243,-0.00002893,0.00002260,-0.00032289,0.00057544,-0
 .00135074,0.00185939,-0.00268242,0.00040934,0.00052006,-0.00019840,-0.
 00010577,0.00012764,0.00024052,0.00001598,-0.00005508,-0.00008531,-0.0
 0012240,0.00006802,-0.00028373,0.00002397,0.00002070,-0.00001038,-0.00
 008078,-0.00006989,-0.00010897,0.00002449,-0.00000673,-0.00000493,0.00
 003012,-0.00000097,0.00002840,0.01073979,0.01950424,0.01201155,-0.0077
 5117,-0.01439133,-0.00995477,0.09238179,0.00028442,0.00148401,0.000258
 79,-0.00010799,0.00002039,-0.00017714,-0.00000582,-0.00015925,0.000141
 10,0.00407035,0.00911915,0.00585995,0.00006657,0.00010648,0.00000695,-
 0.08061032,-0.20892353,-0.10085382,0.00004316,-0.00007338,0.00005335,-
 0.00047034,0.00051395,-0.00063401,0.00124874,0.00038380,0.00253154,0.0
 0006785,-0.00001317,-0.00069465,0.00011521,0.00014378,-0.00015508,0.00
 002331,0.00002452,-0.00003857,0.00009251,-0.00013210,-0.00017359,0.000
 01310,-0.00000750,-0.00003950,0.00005966,0.00012353,0.00008982,-0.0000
 0151,-0.00000720,0.00000149,-0.00002145,0.00000938,-0.00003440,-0.0080
 3410,-0.01499925,-0.00804288,-0.00491422,-0.01264773,-0.00780486,0.088
 10420,0.22493701,-0.00015798,-0.00177590,0.00120919,-0.00000292,0.0000
 3175,-0.00015843,-0.00011445,-0.00020858,0.00016389,-0.01027877,-0.020
 81584,-0.01486179,-0.00004568,0.00006697,0.00001654,-0.04902962,-0.100
 47576,-0.10861111,-0.00009810,0.00012475,-0.00006537,0.00032369,0.0002
 7922,0.00092534,-0.00323071,0.00247678,-0.00350684,0.00030646,0.000884
 22,-0.00009934,0.00005245,0.00019629,0.00045704,0.00010761,0.00001876,
 0.00003074,0.00027852,-0.00019073,-0.00012397,0.00004447,0.00006757,-0
 .00001797,-0.00002746,0.00020244,0.00007826,0.00004985,0.00000904,0.00
 001687,0.00000704,0.00002128,-0.00005797,-0.00384482,-0.00725940,-0.00
 548310,0.00750684,0.01678264,0.01118058,0.05803546,0.10965470,0.118918
 51,-0.00002679,0.00016295,-0.00007009,-0.00005745,-0.00011094,-0.00022
 249,0.00197901,-0.00102172,0.00186241,-0.00003567,0.00003334,-0.000044
 23,-0.00735734,-0.03139870,0.01329372,0.00001021,-0.00003231,-0.000014
 29,-0.05114439,-0.03381246,0.01532959,0.00001871,0.00003520,-0.0000031
 1,0.00007977,-0.00009940,-0.00012007,0.00002907,-0.00000597,0.00005293
 ,-0.00004459,-0.00007858,0.00004514,0.00008968,0.00025069,-0.00001701,
 0.00003519,-0.00001324,-0.00009650,0.00029355,0.00017336,0.00014926,0.
 00011300,0.00064118,-0.00096562,0.00147574,0.00053141,-0.00004033,-0.0
 0675066,-0.00077348,0.00073608,-0.00001994,-0.00000294,-0.00000535,0.0
 0000626,-0.00000387,0.00000881,-0.00001209,0.00001479,-0.00000013,0.05
 845709,0.00017669,-0.00045550,0.00035047,0.00014412,0.00022190,-0.0001
 2582,0.00058535,0.00020175,0.00020699,-0.00029199,-0.00048731,-0.00007
 354,-0.00108025,-0.00475000,0.00211622,0.00007109,0.00021708,-0.000022
 02,-0.03489779,-0.26300468,0.09626949,0.00003337,0.00011115,0.00008828
 ,0.00009082,0.00001910,-0.00016440,-0.00004658,0.00010755,-0.00020403,
 -0.00019303,0.00025427,-0.00018118,0.00008635,0.00011181,0.00009316,-0
 .00006342,0.00000460,-0.00004875,0.00011211,0.00022430,-0.00024868,-0.
 00049385,0.00017556,-0.00075682,-0.00039644,0.00066933,0.00000837,-0.0
 0102720,0.00150896,0.00017638,-0.00001789,-0.00003101,-0.00000178,-0.0
 0000890,0.00000951,-0.00005445,0.00005294,0.00000455,0.00008523,0.0396
 3304,0.28419409,-0.00000944,-0.00038158,0.00018645,-0.00002850,-0.0002
 1104,-0.00011797,-0.00051516,-0.00112980,0.00065417,-0.00005245,-0.000
 27605,-0.00000976,0.00072143,0.00390310,-0.00243065,0.00004950,0.00012
 697,0.00000747,0.01600158,0.09639001,-0.09074328,-0.00000283,0.0000604
 1,0.00005219,0.00009879,0.00005814,0.00001213,-0.00008960,0.00004467,-
 0.00012868,-0.00012101,0.00015937,-0.00013976,-0.00002211,-0.00001027,
 -0.00012274,-0.00002804,0.00005213,0.00003015,0.00004176,-0.00006975,0
 .00002185,0.00004466,-0.00000678,0.00023207,0.00003600,0.00014036,-0.0
 0023865,0.00080269,-0.00039085,0.00065902,-0.00001538,-0.00000238,-0.0
 0001149,-0.00001307,0.00000025,-0.00001191,0.00002884,-0.00000652,0.00
 005123,-0.01822739,-0.10686537,0.09478474,-0.00081956,0.00021901,-0.00
 069177,-0.00040703,0.00006438,-0.00005294,0.00144915,0.00015931,0.0001
 7996,0.00037190,-0.00022540,-0.00029055,-0.01333057,0.02365637,0.02069
 479,-0.00012056,0.00013866,0.00014984,-0.09425355,0.07837140,0.0662635
 8,-0.00009468,0.00009093,0.00005763,0.00022135,0.00025157,-0.00027919,
 0.00034511,-0.00007230,0.00032220,-0.00007645,-0.00118640,-0.00023347,
 0.00003652,0.00000975,-0.00001452,0.00013415,-0.00016189,-0.00007519,0
 .00026051,-0.00009571,-0.00013702,-0.00002027,0.00007114,-0.00031653,-
 0.00665405,-0.00172898,0.00063449,0.00170067,-0.00030269,-0.00024653,0
 .00002462,-0.00001925,-0.00000039,0.00002735,-0.00005326,0.00006963,0.
 00004853,-0.00001098,0.00005486,0.00124554,-0.00315492,-0.00358427,0.1
 0351992,-0.00024630,-0.00065174,-0.00119029,0.00013264,0.00005146,0.00
 028507,0.00056633,0.00006244,-0.00013641,0.00001647,0.00063186,0.00013
 421,-0.00298961,0.00525550,0.00497518,-0.00016650,-0.00044826,-0.00007
 149,0.07967655,-0.17613681,-0.11013232,0.00007014,-0.00009932,-0.00002
 813,0.00003259,-0.00067313,0.00033090,-0.00010881,-0.00006274,-0.00008
 946,-0.00129920,-0.00143110,-0.00138463,-0.00007541,0.00001226,0.00005
 430,0.00001231,-0.00000379,-0.00000021,0.00006408,0.00000111,0.0001372
 7,0.00011436,-0.00009181,-0.00002658,-0.00202694,0.00107661,0.00057550
 ,0.00068310,0.00066521,0.00019155,-0.00002627,0.00004533,-0.00000865,0
 .00002565,0.00000045,0.00004395,-0.00009858,0.00006981,-0.00015615,0.0
 1186488,-0.01953939,-0.01814436,-0.08453293,0.19021749,-0.00021167,-0.
 00095895,-0.00049645,0.00006473,-0.00012327,0.00034224,0.00034157,0.00
 041651,0.00046208,-0.00043070,-0.00015712,-0.00071744,0.00143952,-0.00
 149210,-0.00238292,-0.00000792,0.00002165,-0.00012358,0.06783433,-0.11
 055628,-0.14169770,0.00014393,-0.00007724,-0.00000273,-0.00042707,0.00
 021380,-0.00150328,0.00000255,0.00012358,-0.00016784,-0.00098847,-0.00
 086222,-0.00062247,0.00004814,-0.00000093,-0.00007028,0.00000400,0.000
 11017,0.00004720,0.00007621,0.00006105,-0.00002292,0.00013969,0.000080
 28,0.00010115,0.00059808,0.00049278,0.00127876,0.00010951,-0.00001186,
 -0.00018388,0.00002989,-0.00000547,0.00001682,-0.00000888,-0.00000118,
 0.00001633,0.00002778,0.00004333,0.00002352,-0.00674308,0.00974478,0.0
 0847064,-0.07430096,0.12314019,0.15365035,-0.00014236,-0.00004435,0.00
 010702,-0.00037933,0.00047572,-0.00014663,-0.00564861,-0.00102690,0.00
 316320,0.00000505,-0.00029865,0.00010354,-0.01472498,0.00153089,-0.030
 31731,-0.00000202,0.00019863,0.00004125,-0.10187091,0.00312485,-0.1081
 2784,0.00002336,0.00004302,-0.00001513,0.00003359,0.00029288,0.0000627
 6,0.00011447,-0.00002440,-0.00002873,0.00007068,-0.00010276,0.00003756
 ,0.00000211,-0.00006760,-0.00002325,0.00004183,-0.00026505,-0.00017261
 ,-0.00119891,-0.00004974,-0.00147874,0.00018805,-0.00003879,0.00036250
 ,0.00127557,0.00077250,0.00000465,0.00114844,-0.00049149,0.00011387,0.
 00003218,-0.00004774,0.00002971,0.00001879,-0.00000807,-0.00001722,0.0
 0004433,-0.00002713,0.00006339,0.00161608,0.00068637,0.00488400,0.0063
 9141,-0.00168855,0.01225883,0.11296118,0.00021170,-0.00031375,0.000044
 88,0.00035081,0.00007203,-0.00003687,-0.00075121,0.00055347,0.00130823
 ,-0.00014291,0.00002501,0.00001061,-0.00284927,-0.00092031,-0.00554943
 ,0.00000499,-0.00006676,-0.00003701,0.00329254,-0.04784991,0.00552722,
 0.00002893,0.00001689,0.00001428,-0.00001013,-0.00023804,-0.00004840,-
 0.00009887,0.00003059,-0.00013077,-0.00012369,0.00013977,-0.00029238,-
 0.00002157,0.00004321,0.00004548,-0.00001551,0.00002145,0.00000342,-0.
 00008754,0.00023152,-0.00037904,0.00002319,0.00025064,-0.00038522,0.00
 040311,0.00011894,0.00038398,0.00024566,-0.00003044,-0.00032759,-0.000
 02363,0.00000446,-0.00000360,-0.00000021,0.00000998,-0.00002159,-0.000
 01770,0.00002278,-0.00001925,0.01401278,0.00023238,0.02655934,-0.01148
 779,0.00104854,-0.02020149,-0.00294365,0.04659755,0.00019849,-0.000087
 61,-0.00000363,0.00017186,-0.00004313,0.00012871,0.00093193,0.00052266
 ,0.00077748,0.00008951,0.00044676,0.00014909,0.00373379,-0.00023427,0.
 00543401,-0.00002728,-0.00021102,-0.00004628,-0.10958944,0.00590600,-0
 .25997057,0.00000066,-0.00010228,-0.00008359,-0.00018785,-0.00039328,-
 0.00001386,-0.00010841,-0.00002982,-0.00007999,-0.00010935,0.00014473,
 -0.00021110,-0.00004372,-0.00003862,0.00001364,-0.00004295,0.00006659,
 0.00002357,0.00006198,-0.00022292,0.00007129,0.00014283,-0.00025723,0.
 00023634,-0.00054463,0.00009718,0.00071853,-0.00061139,-0.00026177,0.0
 0024227,0.00000065,0.00001782,0.00000774,0.00000656,0.00002292,-0.0000
 2059,-0.00005652,0.00001400,-0.00008581,-0.00490826,-0.00039252,-0.011
 20719,-0.00820363,0.00150057,-0.01641758,0.11909515,-0.00646477,0.2803
 3753\\0.00000161,0.00000020,-0.00000035,0.00000099,-0.00000177,0.00000
 032,-0.00000048,-0.00000184,0.00000076,-0.00000008,0.00000183,-0.00000
 050,0.00000009,-0.00000124,0.00000028,-0.00000123,0.00000105,0.0000000
 9,-0.00000034,0.00000094,-0.00000028,0.00000053,0.00000312,-0.00000105
 ,-0.00000108,0.00000205,-0.00000032,0.00000264,0.00000011,-0.00000079,
 0.00000230,0.00000088,-0.00000099,0.00000226,-0.00000265,0.00000011,0.
 00000036,-0.00000242,0.00000054,-0.00000096,-0.00000333,0.00000120,-0.
 00000193,-0.00000098,0.00000077,-0.00000061,-0.00000195,0.00000074,0.0
 0000172,-0.00000147,-0.00000006,-0.00000202,-0.00000022,0.00000063,-0.
 00000231,0.00000222,-0.00000001,-0.00000028,0.00000063,-0.00000012,-0.
 00000183,0.00000147,0.00000009,0.00000048,0.00000200,-0.00000065,0.000
 00017,0.00000138,-0.00000041\\\@


 THOUGH I SPEAK WITH THE TONGUES OF MEN AND OF ANGELS, 
 AND HAVE NOT LOVE,
 I AM BECOME AS SOUNDING BRASS, A TINKLING CYMBAL.
 AND THOUGH I HAVE THE GIFT OF PROPHECY,
 AND UNDERSTAND ALL MYSTERIES, AND ALL KNOWLEDGE.
 AND THOUGH I HAVE ALL FAITH, SO THAT I COULD REMOVE MOUNTAINS,
 AND HAVE NOT LOVE, I AM NOTHING.
 AND THOUGH I BESTOW ALL MY GOODS TO FEED THE POOR,
 AND THOUGH I GIVE MY BODY TO BE BURNED,
 AND HAVE NOT LOVE IT PROFITETH ME NOTHING.
 LOVE SUFFERETH LONG, AND IS KIND,
 LOVE ENVIETH NOT,
 LOVE VAUNTETH NOT ITSELF, IS NOT PUFFED UP,
 DOTH NOT BEHAVE ITSELF UNSEEMLY, SEEKETH NOT HER OWN,
 IS NOT EASILY PROVOKED, THINKETH NO EVIL,
 REJOICETH NOT IN INIQUITY, BUT REJOICETH IN THE TRUTH,
 BEARETH ALL THINGS, BELIEVETH ALL THINGS,
 HOPETH ALL THINGS, ENDURETH ALL THINGS.
 LOVE NEVER FAILETH, BUT WHETHER THERE BE PROPHECIES, THEY SHALL FAIL, 
 WHETHER THERE BE TONGUES, THEY SHALL CEASE,
 WHETHER THERE BE KNOWLEDGE, IT SHALL VANISH AWAY.
 FOR WE KNOW IN PART, AND WE PROPHESY IN PART.
 BUT WHEN THAT WHICH IS PERFECT IS COME, THEN THAT WHICH IS IN PART 
 SHALL BE DONE AWAY. 
 WHEN I WAS A CHILD, I SPAKE AS A CHILD, I UNDERSTOOD AS A CHILD, 
 I THOUGHT AS A CHILD.
 BUT WHEN I BECAME A MAN, I PUT AWAY CHILDISH THINGS.
 FOR NOW WE SEE THROUGH A GLASS, DARKLY, BUT THEN FACE TO FACE.
 NOW I KNOW IN PART. BUT THEN SHALL I KNOW EVEN AS ALSO I AM KNOWN.
 AND NOW ABIDETH FAITH, HOPE AND LOVE, THESE THREE.
 BUT THE GREATEST OF THESE IS LOVE.

                     I CORINTHIANS 13
 Job cpu time:       0 days  8 hours  1 minutes 42.3 seconds.
 Elapsed time:       0 days  4 hours  0 minutes 55.1 seconds.
 File lengths (MBytes):  RWF=   1488 Int=      0 D2E=      0 Chk=     32 Scr=     32
 Normal termination of Gaussian 16 at Sat Sep 28 20:15:54 2019.
