 Entering Gaussian System, Link 0=g16
 Input=med/species/CCCCCCC/conformers/CCCCCCC_1219.com
 Output=med/species/CCCCCCC/conformers/CCCCCCC_1219.log
 Initial command:
 /shared/centos7/gaussian/g16/l1.exe "/scratch/harms.n/gauss_scrdir/Gau-12517.inp" -scrdir="/scratch/harms.n/gauss_scrdir/"
 Entering Link 1 = /shared/centos7/gaussian/g16/l1.exe PID=     12518.
  
 Copyright (c) 1988,1990,1992,1993,1995,1998,2003,2009,2016,
            Gaussian, Inc.  All Rights Reserved.
  
 This is part of the Gaussian(R) 16 program.  It is based on
 the Gaussian(R) 09 system (copyright 2009, Gaussian, Inc.),
 the Gaussian(R) 03 system (copyright 2003, Gaussian, Inc.),
 the Gaussian(R) 98 system (copyright 1998, Gaussian, Inc.),
 the Gaussian(R) 94 system (copyright 1995, Gaussian, Inc.),
 the Gaussian 92(TM) system (copyright 1992, Gaussian, Inc.),
 the Gaussian 90(TM) system (copyright 1990, Gaussian, Inc.),
 the Gaussian 88(TM) system (copyright 1988, Gaussian, Inc.),
 the Gaussian 86(TM) system (copyright 1986, Carnegie Mellon
 University), and the Gaussian 82(TM) system (copyright 1983,
 Carnegie Mellon University). Gaussian is a federally registered
 trademark of Gaussian, Inc.
  
 This software contains proprietary and confidential information,
 including trade secrets, belonging to Gaussian, Inc.
  
 This software is provided under written license and may be
 used, copied, transmitted, or stored only in accord with that
 written license.
  
 The following legend is applicable only to US Government
 contracts under FAR:
  
                    RESTRICTED RIGHTS LEGEND
  
 Use, reproduction and disclosure by the US Government is
 subject to restrictions as set forth in subparagraphs (a)
 and (c) of the Commercial Computer Software - Restricted
 Rights clause in FAR 52.227-19.
  
 Gaussian, Inc.
 340 Quinnipiac St., Bldg. 40, Wallingford CT 06492
  
  
 ---------------------------------------------------------------
 Warning -- This program may not be used in any manner that
 competes with the business of Gaussian, Inc. or will provide
 assistance to any competitor of Gaussian, Inc.  The licensee
 of this program is prohibited from giving any competitor of
 Gaussian, Inc. access to this program.  By using this program,
 the user acknowledges that Gaussian, Inc. is engaged in the
 business of creating and licensing software in the field of
 computational chemistry and represents and warrants to the
 licensee that it is not a competitor of Gaussian, Inc. and that
 it will not use this program in any manner prohibited above.
 ---------------------------------------------------------------
  

 Cite this work as:
 Gaussian 16, Revision A.03,
 M. J. Frisch, G. W. Trucks, H. B. Schlegel, G. E. Scuseria, 
 M. A. Robb, J. R. Cheeseman, G. Scalmani, V. Barone, 
 G. A. Petersson, H. Nakatsuji, X. Li, M. Caricato, A. V. Marenich, 
 J. Bloino, B. G. Janesko, R. Gomperts, B. Mennucci, H. P. Hratchian, 
 J. V. Ortiz, A. F. Izmaylov, J. L. Sonnenberg, D. Williams-Young, 
 F. Ding, F. Lipparini, F. Egidi, J. Goings, B. Peng, A. Petrone, 
 T. Henderson, D. Ranasinghe, V. G. Zakrzewski, J. Gao, N. Rega, 
 G. Zheng, W. Liang, M. Hada, M. Ehara, K. Toyota, R. Fukuda, 
 J. Hasegawa, M. Ishida, T. Nakajima, Y. Honda, O. Kitao, H. Nakai, 
 T. Vreven, K. Throssell, J. A. Montgomery, Jr., J. E. Peralta, 
 F. Ogliaro, M. J. Bearpark, J. J. Heyd, E. N. Brothers, K. N. Kudin, 
 V. N. Staroverov, T. A. Keith, R. Kobayashi, J. Normand, 
 K. Raghavachari, A. P. Rendell, J. C. Burant, S. S. Iyengar, 
 J. Tomasi, M. Cossi, J. M. Millam, M. Klene, C. Adamo, R. Cammi, 
 J. W. Ochterski, R. L. Martin, K. Morokuma, O. Farkas, 
 J. B. Foresman, and D. J. Fox, Gaussian, Inc., Wallingford CT, 2016.
 
 ******************************************
 Gaussian 16:  EM64L-G16RevA.03 25-Dec-2016
                28-Sep-2019 
 ******************************************
 %nprocshared=20
 Will use up to   20 processors via shared memory.
 %mem=5GB
 ----------------------------------------------------------------------
 #p m062x/cc-pVTZ opt=(calcfc,maxcycles=900,Tight) freq IOP(7/33=1,2/16
 =3) scf=(maxcycle=900)
 ----------------------------------------------------------------------
 1/6=900,7=10,10=4,18=20,19=15,26=3,38=1/1,3;
 2/9=110,12=2,16=3,17=6,18=5,40=1/2;
 3/5=16,6=1,11=2,25=1,30=1,71=2,74=-55,140=1/1,2,3;
 4//1;
 5/5=2,7=900,38=5/2;
 8/6=4,10=90,11=11/1;
 11/6=1,8=1,9=11,15=111,16=1/1,2,10;
 10/6=1,13=1/2;
 6/7=2,8=2,9=2,10=2,28=1/1;
 7/10=1,18=20,25=1,33=1/1,2,3,16;
 1/6=900,7=10,10=4,18=20,19=15,26=3/3(2);
 2/9=110,16=3/2;
 99//99;
 2/9=110,16=3/2;
 3/5=16,6=1,11=2,25=1,30=1,71=1,74=-55/1,2,3;
 4/5=5,16=3,69=1/1;
 5/5=2,7=900,38=5/2;
 7/33=1/1,2,3,16;
 1/6=900,7=10,18=20,19=15,26=3/3(-5);
 2/9=110,16=3/2;
 6/7=2,8=2,9=2,10=2,19=2,28=1/1;
 99/9=1/99;
 Leave Link    1 at Sat Sep 28 01:24:48 2019, MaxMem=   671088640 cpu:               4.0 elap:               2.0
 (Enter /shared/centos7/gaussian/g16/l101.exe)
 ------------------------------
 Gaussian input prepared by ASE
 ------------------------------
 Symbolic Z-matrix:
 Charge =  0 Multiplicity = 1
 C                     1.40552  -1.14206   0.47067 
 C                     0.1616   -0.41612   0.85491 
 C                    -0.13424   0.93596   0.25547 
 C                     2.2392   -0.63088  -0.65569 
 C                    -0.24538   2.05364   1.26549 
 C                     3.59546  -0.1853   -0.29289 
 C                    -1.5453    2.81012   1.17677 
 H                     1.70526   0.21093  -1.18047 
 H                     2.31668  -1.42732  -1.43378 
 H                     1.11747  -2.18698   0.2283 
 H                     2.04468  -1.22965   1.37314 
 H                     0.16262  -0.31508   1.95149 
 H                    -0.70794  -1.06958   0.63096 
 H                    -1.0785    0.87106  -0.31135 
 H                     0.63256   1.2059   -0.49971 
 H                    -0.12029   1.64084   2.30061 
 H                     0.58931   2.76159   1.12638 
 H                     3.84561  -0.40221   0.76269 
 H                     4.37937  -0.68787  -0.93356 
 H                     3.71656   0.90794  -0.44669 
 H                    -2.37037   2.14114   0.92914 
 H                    -1.49067   3.60061   0.37802 
 H                    -1.79824   3.31747   2.15171 
 
 ITRead=  0  0  0  0  0  0  0  0  0  0  0  0  0  0  0  0  0  0  0  0
 ITRead=  0  0  0
 MicOpt= -1 -1 -1 -1 -1 -1 -1 -1 -1 -1 -1 -1 -1 -1 -1 -1 -1 -1 -1 -1
 MicOpt= -1 -1 -1
 NAtoms=     23 NQM=       23 NQMF=       0 NMMI=      0 NMMIF=      0
                NMic=       0 NMicF=      0.
                    Isotopes and Nuclear Properties:
 (Nuclear quadrupole moments (NQMom) in fm**2, nuclear magnetic moments (NMagM)
  in nuclear magnetons)

  Atom         1           2           3           4           5           6           7           8           9          10
 IAtWgt=          12          12          12          12          12          12          12           1           1           1
 AtmWgt=  12.0000000  12.0000000  12.0000000  12.0000000  12.0000000  12.0000000  12.0000000   1.0078250   1.0078250   1.0078250
 NucSpn=           0           0           0           0           0           0           0           1           1           1
 AtZEff=  -0.0000000  -0.0000000  -0.0000000  -0.0000000  -0.0000000  -0.0000000  -0.0000000  -0.0000000  -0.0000000  -0.0000000
 NQMom=    0.0000000   0.0000000   0.0000000   0.0000000   0.0000000   0.0000000   0.0000000   0.0000000   0.0000000   0.0000000
 NMagM=    0.0000000   0.0000000   0.0000000   0.0000000   0.0000000   0.0000000   0.0000000   2.7928460   2.7928460   2.7928460
 AtZNuc=   6.0000000   6.0000000   6.0000000   6.0000000   6.0000000   6.0000000   6.0000000   1.0000000   1.0000000   1.0000000

  Atom        11          12          13          14          15          16          17          18          19          20
 IAtWgt=           1           1           1           1           1           1           1           1           1           1
 AtmWgt=   1.0078250   1.0078250   1.0078250   1.0078250   1.0078250   1.0078250   1.0078250   1.0078250   1.0078250   1.0078250
 NucSpn=           1           1           1           1           1           1           1           1           1           1
 AtZEff=  -0.0000000  -0.0000000  -0.0000000  -0.0000000  -0.0000000  -0.0000000  -0.0000000  -0.0000000  -0.0000000  -0.0000000
 NQMom=    0.0000000   0.0000000   0.0000000   0.0000000   0.0000000   0.0000000   0.0000000   0.0000000   0.0000000   0.0000000
 NMagM=    2.7928460   2.7928460   2.7928460   2.7928460   2.7928460   2.7928460   2.7928460   2.7928460   2.7928460   2.7928460
 AtZNuc=   1.0000000   1.0000000   1.0000000   1.0000000   1.0000000   1.0000000   1.0000000   1.0000000   1.0000000   1.0000000

  Atom        21          22          23
 IAtWgt=           1           1           1
 AtmWgt=   1.0078250   1.0078250   1.0078250
 NucSpn=           1           1           1
 AtZEff=  -0.0000000  -0.0000000  -0.0000000
 NQMom=    0.0000000   0.0000000   0.0000000
 NMagM=    2.7928460   2.7928460   2.7928460
 AtZNuc=   1.0000000   1.0000000   1.0000000
 Leave Link  101 at Sat Sep 28 01:24:50 2019, MaxMem=   671088640 cpu:               2.9 elap:               1.5
 (Enter /shared/centos7/gaussian/g16/l103.exe)

 GradGradGradGradGradGradGradGradGradGradGradGradGradGradGradGradGradGrad
 Berny optimization.
 Initialization pass.
                           ----------------------------
                           !    Initial Parameters    !
                           ! (Angstroms and Degrees)  !
 --------------------------                            --------------------------
 ! Name  Definition              Value          Derivative Info.                !
 --------------------------------------------------------------------------------
 ! R1    R(1,2)                  1.4906         calculate D2E/DX2 analytically  !
 ! R2    R(1,4)                  1.4917         calculate D2E/DX2 analytically  !
 ! R3    R(1,10)                 1.1107         calculate D2E/DX2 analytically  !
 ! R4    R(1,11)                 1.1093         calculate D2E/DX2 analytically  !
 ! R5    R(2,3)                  1.5083         calculate D2E/DX2 analytically  !
 ! R6    R(2,12)                 1.1012         calculate D2E/DX2 analytically  !
 ! R7    R(2,13)                 1.1105         calculate D2E/DX2 analytically  !
 ! R8    R(3,5)                  1.5105         calculate D2E/DX2 analytically  !
 ! R9    R(3,14)                 1.1032         calculate D2E/DX2 analytically  !
 ! R10   R(3,15)                 1.1096         calculate D2E/DX2 analytically  !
 ! R11   R(4,6)                  1.473          calculate D2E/DX2 analytically  !
 ! R12   R(4,8)                  1.1266         calculate D2E/DX2 analytically  !
 ! R13   R(4,9)                  1.1161         calculate D2E/DX2 analytically  !
 ! R14   R(5,7)                  1.5066         calculate D2E/DX2 analytically  !
 ! R15   R(5,16)                 1.1214         calculate D2E/DX2 analytically  !
 ! R16   R(5,17)                 1.1033         calculate D2E/DX2 analytically  !
 ! R17   R(6,18)                 1.1063         calculate D2E/DX2 analytically  !
 ! R18   R(6,19)                 1.1303         calculate D2E/DX2 analytically  !
 ! R19   R(6,20)                 1.1106         calculate D2E/DX2 analytically  !
 ! R20   R(7,21)                 1.0907         calculate D2E/DX2 analytically  !
 ! R21   R(7,22)                 1.1251         calculate D2E/DX2 analytically  !
 ! R22   R(7,23)                 1.1278         calculate D2E/DX2 analytically  !
 ! A1    A(2,1,4)              119.6139         calculate D2E/DX2 analytically  !
 ! A2    A(2,1,10)             107.3376         calculate D2E/DX2 analytically  !
 ! A3    A(2,1,11)             108.0326         calculate D2E/DX2 analytically  !
 ! A4    A(4,1,10)             107.6122         calculate D2E/DX2 analytically  !
 ! A5    A(4,1,11)             108.6225         calculate D2E/DX2 analytically  !
 ! A6    A(10,1,11)            104.6359         calculate D2E/DX2 analytically  !
 ! A7    A(1,2,3)              119.8539         calculate D2E/DX2 analytically  !
 ! A8    A(1,2,12)             107.493          calculate D2E/DX2 analytically  !
 ! A9    A(1,2,13)             108.3526         calculate D2E/DX2 analytically  !
 ! A10   A(3,2,12)             108.2816         calculate D2E/DX2 analytically  !
 ! A11   A(3,2,13)             107.0831         calculate D2E/DX2 analytically  !
 ! A12   A(12,2,13)            104.8049         calculate D2E/DX2 analytically  !
 ! A13   A(2,3,5)              114.329          calculate D2E/DX2 analytically  !
 ! A14   A(2,3,14)             108.622          calculate D2E/DX2 analytically  !
 ! A15   A(2,3,15)             110.6728         calculate D2E/DX2 analytically  !
 ! A16   A(5,3,14)             108.9106         calculate D2E/DX2 analytically  !
 ! A17   A(5,3,15)             109.022          calculate D2E/DX2 analytically  !
 ! A18   A(14,3,15)            104.8407         calculate D2E/DX2 analytically  !
 ! A19   A(1,4,6)              115.6139         calculate D2E/DX2 analytically  !
 ! A20   A(1,4,8)              110.0553         calculate D2E/DX2 analytically  !
 ! A21   A(1,4,9)              108.7033         calculate D2E/DX2 analytically  !
 ! A22   A(6,4,8)              108.972          calculate D2E/DX2 analytically  !
 ! A23   A(6,4,9)              108.884          calculate D2E/DX2 analytically  !
 ! A24   A(8,4,9)              103.967          calculate D2E/DX2 analytically  !
 ! A25   A(3,5,7)              113.3051         calculate D2E/DX2 analytically  !
 ! A26   A(3,5,16)             109.6715         calculate D2E/DX2 analytically  !
 ! A27   A(3,5,17)             109.5606         calculate D2E/DX2 analytically  !
 ! A28   A(7,5,16)             109.599          calculate D2E/DX2 analytically  !
 ! A29   A(7,5,17)             108.8531         calculate D2E/DX2 analytically  !
 ! A30   A(16,5,17)            105.5574         calculate D2E/DX2 analytically  !
 ! A31   A(4,6,18)             112.5755         calculate D2E/DX2 analytically  !
 ! A32   A(4,6,19)             111.3762         calculate D2E/DX2 analytically  !
 ! A33   A(4,6,20)             111.3501         calculate D2E/DX2 analytically  !
 ! A34   A(18,6,19)            107.2678         calculate D2E/DX2 analytically  !
 ! A35   A(18,6,20)            107.4859         calculate D2E/DX2 analytically  !
 ! A36   A(19,6,20)            106.4729         calculate D2E/DX2 analytically  !
 ! A37   A(5,7,21)             110.9826         calculate D2E/DX2 analytically  !
 ! A38   A(5,7,22)             110.6516         calculate D2E/DX2 analytically  !
 ! A39   A(5,7,23)             111.622          calculate D2E/DX2 analytically  !
 ! A40   A(21,7,22)            107.8476         calculate D2E/DX2 analytically  !
 ! A41   A(21,7,23)            107.6104         calculate D2E/DX2 analytically  !
 ! A42   A(22,7,23)            107.9709         calculate D2E/DX2 analytically  !
 ! D1    D(4,1,2,3)             -9.4996         calculate D2E/DX2 analytically  !
 ! D2    D(4,1,2,12)          -133.5632         calculate D2E/DX2 analytically  !
 ! D3    D(4,1,2,13)           113.6796         calculate D2E/DX2 analytically  !
 ! D4    D(10,1,2,3)          -132.3227         calculate D2E/DX2 analytically  !
 ! D5    D(10,1,2,12)          103.6138         calculate D2E/DX2 analytically  !
 ! D6    D(10,1,2,13)           -9.1435         calculate D2E/DX2 analytically  !
 ! D7    D(11,1,2,3)           115.3432         calculate D2E/DX2 analytically  !
 ! D8    D(11,1,2,12)           -8.7204         calculate D2E/DX2 analytically  !
 ! D9    D(11,1,2,13)         -121.4776         calculate D2E/DX2 analytically  !
 ! D10   D(2,1,4,6)            116.0237         calculate D2E/DX2 analytically  !
 ! D11   D(2,1,4,8)             -7.951          calculate D2E/DX2 analytically  !
 ! D12   D(2,1,4,9)           -121.2082         calculate D2E/DX2 analytically  !
 ! D13   D(10,1,4,6)          -121.2876         calculate D2E/DX2 analytically  !
 ! D14   D(10,1,4,8)           114.7377         calculate D2E/DX2 analytically  !
 ! D15   D(10,1,4,9)             1.4806         calculate D2E/DX2 analytically  !
 ! D16   D(11,1,4,6)            -8.5369         calculate D2E/DX2 analytically  !
 ! D17   D(11,1,4,8)          -132.5117         calculate D2E/DX2 analytically  !
 ! D18   D(11,1,4,9)           114.2312         calculate D2E/DX2 analytically  !
 ! D19   D(1,2,3,5)           -119.4898         calculate D2E/DX2 analytically  !
 ! D20   D(1,2,3,14)           118.6614         calculate D2E/DX2 analytically  !
 ! D21   D(1,2,3,15)             4.0772         calculate D2E/DX2 analytically  !
 ! D22   D(12,2,3,5)             4.1946         calculate D2E/DX2 analytically  !
 ! D23   D(12,2,3,14)         -117.6541         calculate D2E/DX2 analytically  !
 ! D24   D(12,2,3,15)          127.7617         calculate D2E/DX2 analytically  !
 ! D25   D(13,2,3,5)           116.7179         calculate D2E/DX2 analytically  !
 ! D26   D(13,2,3,14)           -5.1309         calculate D2E/DX2 analytically  !
 ! D27   D(13,2,3,15)         -119.715          calculate D2E/DX2 analytically  !
 ! D28   D(2,3,5,7)           -124.9783         calculate D2E/DX2 analytically  !
 ! D29   D(2,3,5,16)            -2.1674         calculate D2E/DX2 analytically  !
 ! D30   D(2,3,5,17)           113.2553         calculate D2E/DX2 analytically  !
 ! D31   D(14,3,5,7)            -3.2878         calculate D2E/DX2 analytically  !
 ! D32   D(14,3,5,16)          119.5231         calculate D2E/DX2 analytically  !
 ! D33   D(14,3,5,17)         -125.0543         calculate D2E/DX2 analytically  !
 ! D34   D(15,3,5,7)           110.5715         calculate D2E/DX2 analytically  !
 ! D35   D(15,3,5,16)         -126.6176         calculate D2E/DX2 analytically  !
 ! D36   D(15,3,5,17)          -11.1949         calculate D2E/DX2 analytically  !
 ! D37   D(1,4,6,18)             6.5022         calculate D2E/DX2 analytically  !
 ! D38   D(1,4,6,19)           127.0299         calculate D2E/DX2 analytically  !
 ! D39   D(1,4,6,20)          -114.2881         calculate D2E/DX2 analytically  !
 ! D40   D(8,4,6,18)           131.0407         calculate D2E/DX2 analytically  !
 ! D41   D(8,4,6,19)          -108.4317         calculate D2E/DX2 analytically  !
 ! D42   D(8,4,6,20)            10.2503         calculate D2E/DX2 analytically  !
 ! D43   D(9,4,6,18)          -116.1702         calculate D2E/DX2 analytically  !
 ! D44   D(9,4,6,19)             4.3575         calculate D2E/DX2 analytically  !
 ! D45   D(9,4,6,20)           123.0395         calculate D2E/DX2 analytically  !
 ! D46   D(3,5,7,21)            36.2361         calculate D2E/DX2 analytically  !
 ! D47   D(3,5,7,22)           -83.4562         calculate D2E/DX2 analytically  !
 ! D48   D(3,5,7,23)           156.274          calculate D2E/DX2 analytically  !
 ! D49   D(16,5,7,21)          -86.6149         calculate D2E/DX2 analytically  !
 ! D50   D(16,5,7,22)          153.6928         calculate D2E/DX2 analytically  !
 ! D51   D(16,5,7,23)           33.423          calculate D2E/DX2 analytically  !
 ! D52   D(17,5,7,21)          158.3976         calculate D2E/DX2 analytically  !
 ! D53   D(17,5,7,22)           38.7052         calculate D2E/DX2 analytically  !
 ! D54   D(17,5,7,23)          -81.5646         calculate D2E/DX2 analytically  !
 --------------------------------------------------------------------------------
 Trust Radius=3.00D-01 FncErr=1.00D-07 GrdErr=1.00D-06 EigMax=2.50D+02 EigMin=1.00D-04
 Number of steps in this run=    138 maximum allowed number of steps=    138.
 GradGradGradGradGradGradGradGradGradGradGradGradGradGradGradGradGradGrad

 Leave Link  103 at Sat Sep 28 01:24:51 2019, MaxMem=   671088640 cpu:               1.7 elap:               0.8
 (Enter /shared/centos7/gaussian/g16/l202.exe)
                          Input orientation:                          
 ---------------------------------------------------------------------
 Center     Atomic      Atomic             Coordinates (Angstroms)
 Number     Number       Type             X           Y           Z
 ---------------------------------------------------------------------
      1          6           0        1.405517   -1.142058    0.470674
      2          6           0        0.161595   -0.416121    0.854912
      3          6           0       -0.134237    0.935964    0.255468
      4          6           0        2.239204   -0.630878   -0.655685
      5          6           0       -0.245384    2.053639    1.265494
      6          6           0        3.595460   -0.185301   -0.292893
      7          6           0       -1.545305    2.810118    1.176772
      8          1           0        1.705257    0.210927   -1.180472
      9          1           0        2.316678   -1.427324   -1.433778
     10          1           0        1.117469   -2.186978    0.228296
     11          1           0        2.044678   -1.229647    1.373140
     12          1           0        0.162617   -0.315084    1.951486
     13          1           0       -0.707941   -1.069579    0.630959
     14          1           0       -1.078499    0.871057   -0.311347
     15          1           0        0.632564    1.205903   -0.499710
     16          1           0       -0.120292    1.640837    2.300611
     17          1           0        0.589311    2.761587    1.126378
     18          1           0        3.845605   -0.402208    0.762691
     19          1           0        4.379369   -0.687868   -0.933556
     20          1           0        3.716565    0.907938   -0.446688
     21          1           0       -2.370367    2.141144    0.929138
     22          1           0       -1.490672    3.600611    0.378025
     23          1           0       -1.798244    3.317469    2.151708
 ---------------------------------------------------------------------
                    Distance matrix (angstroms):
                    1          2          3          4          5
     1  C    0.000000
     2  C    1.490625   0.000000
     3  C    2.595251   1.508304   0.000000
     4  C    1.491652   2.577690   2.986372   0.000000
     5  C    3.683706   2.536518   1.510531   4.131675   0.000000
     6  C    2.508839   3.627970   3.933011   1.472952   4.710999
     7  C    4.982531   3.664113   2.520391   5.433311   1.506627
     8  H    2.155619   2.630374   2.443632   1.126559   3.630886
     9  H    2.130382   3.302274   3.800745   1.116134   5.095815
    10  H    1.110665   2.107670   3.364561   2.112146   4.573399
    11  H    1.109344   2.115747   3.269056   2.124264   4.004490
    12  H    2.102734   1.101220   2.128314   3.348027   2.499580
    13  H    2.120766   1.110520   2.119512   3.245548   3.220416
    14  H    3.291583   2.134202   1.103233   3.658078   2.139861
    15  H    2.655564   2.165126   1.109570   2.445278   2.146018
    16  H    3.663504   2.529937   2.163249   4.412210   1.121392
    17  H    4.041606   3.217835   2.148233   4.172136   1.103295
    18  H    2.566454   3.685191   4.229317   2.155135   4.797936
    19  H    3.319932   4.589344   4.941988   2.158881   5.808617
    20  H    3.222574   4.010624   3.914394   2.143416   4.465561
    21  H    5.024630   3.599437   2.628035   5.607488   2.153217
    22  H    5.557823   4.369387   2.992538   5.734635   2.175193
    23  H    5.742590   4.411615   3.469325   6.306496   2.189524
                    6          7          8          9         10
     6  C    0.000000
     7  C    6.128615   0.000000
     8  H    2.125479   4.783152   0.000000
     9  H    2.116488   6.299666   1.766880   0.000000
    10  H    3.227815   5.741162   2.842546   2.185788   0.000000
    11  H    2.504247   5.407979   2.951507   2.826986   1.756948
    12  H    4.103473   3.644732   3.530663   4.163781   2.717556
    13  H    4.489400   4.006387   3.277881   3.679598   2.177806
    14  H    4.791881   2.488446   2.990058   4.250839   3.803296
    15  H    3.279782   3.182328   1.613717   3.262300   3.503821
    16  H    4.885474   2.158910   4.182727   5.412771   4.525340
    17  H    4.442456   2.135762   3.615627   5.204341   5.057054
    18  H    1.106291   6.289071   2.955150   2.865825   3.303591
    19  H    1.130281   7.196607   2.831904   2.247601   3.773225
    20  H    1.110627   5.825906   2.251583   2.896114   4.097488
    21  H    6.518957   1.090678   4.978645   6.347104   5.602572
    22  H    6.375892   1.125104   4.912518   6.561911   6.349882
    23  H    6.880227   1.127778   5.747046   7.231967   6.519189
                   11         12         13         14         15
    11  H    0.000000
    12  H    2.170959   0.000000
    13  H    2.855410   1.752406   0.000000
    14  H    4.123674   2.840372   2.188909   0.000000
    15  H    3.381351   2.922775   2.872836   1.753665   0.000000
    16  H    3.713082   2.006876   3.237193   2.886701   2.932193
    17  H    4.255459   3.213841   4.075063   2.902197   2.250819
    18  H    2.073799   3.871076   4.604077   5.198227   3.808321
    19  H    3.326433   5.122835   5.336117   5.710142   4.220561
    20  H    3.267454   4.458427   4.964691   4.797115   3.098815
    21  H    5.572432   3.673454   3.627852   2.195643   3.454545
    22  H    6.067977   4.532308   4.742079   2.845274   3.318611
    23  H    6.004205   4.132857   4.769447   3.545364   4.171038
                   16         17         18         19         20
    16  H    0.000000
    17  H    1.771564   0.000000
    18  H    4.718853   4.554703   0.000000
    19  H    6.010795   5.523279   1.801044   0.000000
    20  H    4.775590   3.961094   1.787661   1.795257   0.000000
    21  H    2.682179   3.030437   6.718233   7.551946   6.361166
    22  H    3.068386   2.364387   6.681795   7.387062   5.919962
    23  H    2.376718   2.657202   6.900608   7.982762   6.555198
                   21         22         23
    21  H    0.000000
    22  H    1.790987   0.000000
    23  H    1.790460   1.822285   0.000000
 Stoichiometry    C7H16
 Framework group  C1[X(C7H16)]
 Deg. of freedom    63
 Full point group                 C1      NOp   1
 Largest Abelian subgroup         C1      NOp   1
 Largest concise Abelian subgroup C1      NOp   1
                         Standard orientation:                         
 ---------------------------------------------------------------------
 Center     Atomic      Atomic             Coordinates (Angstroms)
 Number     Number       Type             X           Y           Z
 ---------------------------------------------------------------------
      1          6           0       -1.438673    0.998342    0.246446
      2          6           0        0.039463    1.182217    0.189286
      3          6           0        0.899943    0.142382   -0.483990
      4          6           0       -2.076345   -0.095985   -0.541492
      5          6           0        1.920364   -0.503404    0.423426
      6          6           0       -2.743563   -1.144442    0.249169
      7          6           0        3.330145   -0.403436   -0.098542
      8          1           0       -1.316427   -0.576787   -1.220087
      9          1           0       -2.818083    0.353985   -1.243708
     10          1           0       -1.903812    1.955771   -0.070654
     11          1           0       -1.729639    0.884353    1.310865
     12          1           0        0.397322    1.310205    1.222844
     13          1           0        0.252169    2.152694   -0.306884
     14          1           0        1.423849    0.614305   -1.332480
     15          1           0        0.271605   -0.648870   -0.942528
     16          1           0        1.863524   -0.042164    1.443988
     17          1           0        1.667353   -1.567886    0.565280
     18          1           0       -2.773943   -0.907220    1.329300
     19          1           0       -3.810355   -1.300290   -0.090244
     20          1           0       -2.231122   -2.123353    0.136782
     21          1           0        3.493463    0.550145   -0.602118
     22          1           0        3.538267   -1.224536   -0.839041
     23          1           0        4.087828   -0.484400    0.732870
 ---------------------------------------------------------------------
 Rotational constants (GHZ):           5.0981542           1.0670449           0.9683536
 Leave Link  202 at Sat Sep 28 01:24:53 2019, MaxMem=   671088640 cpu:               4.4 elap:               2.2
 (Enter /shared/centos7/gaussian/g16/l301.exe)
 Standard basis: CC-pVTZ (5D, 7F)
 Ernie: Thresh=  0.10000D-02 Tol=  0.10000D-05 Strict=F.
 Ernie:  21 primitive shells out of 310 were deleted.
 There are   485 symmetry adapted cartesian basis functions of A   symmetry.
 There are   434 symmetry adapted basis functions of A   symmetry.
   434 basis functions,   636 primitive gaussians,   485 cartesian basis functions
    29 alpha electrons       29 beta electrons
       nuclear repulsion energy       320.6427270284 Hartrees.
 IExCor= 4336 DFT=T Ex+Corr=M062X ExCW=0 ScaHFX=  0.540000
 ScaDFX=  1.000000  1.000000  1.000000  1.000000 ScalE2=  1.000000  1.000000
 IRadAn=      5 IRanWt=     -1 IRanGd=            0 ICorTp=0 IEmpDi=  4
 NAtoms=   23 NActive=   23 NUniq=   23 SFac= 1.00D+00 NAtFMM=   60 NAOKFM=F Big=F
 Integral buffers will be    131072 words long.
 Raffenetti 2 integral format.
 Two-electron integral symmetry is turned on.
 Leave Link  301 at Sat Sep 28 01:24:54 2019, MaxMem=   671088640 cpu:               2.1 elap:               1.0
 (Enter /shared/centos7/gaussian/g16/l302.exe)
 NPDir=0 NMtPBC=     1 NCelOv=     1 NCel=       1 NClECP=     1 NCelD=      1
         NCelK=      1 NCelE2=     1 NClLst=     1 CellRange=     0.0.
 One-electron integrals computed using PRISM.
 One-electron integral symmetry used in STVInt
 NBasis=   434 RedAO= T EigKep=  2.31D-04  NBF=   434
 NBsUse=   434 1.00D-06 EigRej= -1.00D+00 NBFU=   434
 Precomputing XC quadrature grid using
 IXCGrd= 4 IRadAn=           5 IRanWt=          -1 IRanGd=           0 AccXCQ= 0.00D+00.
 Generated NRdTot=       0 NPtTot=           0 NUsed=           0 NTot=          32
 NSgBfM=   485   485   485   485   485 MxSgAt=    23 MxSgA2=    23.
 Leave Link  302 at Sat Sep 28 01:26:52 2019, MaxMem=   671088640 cpu:             235.4 elap:             117.8
 (Enter /shared/centos7/gaussian/g16/l303.exe)
 DipDrv:  MaxL=1.
 Leave Link  303 at Sat Sep 28 01:26:56 2019, MaxMem=   671088640 cpu:               8.8 elap:               4.4
 (Enter /shared/centos7/gaussian/g16/l401.exe)
 ExpMin= 1.03D-01 ExpMax= 8.24D+03 ExpMxC= 2.81D+02 IAcc=3 IRadAn=         5 AccDes= 0.00D+00
 Harris functional with IExCor= 1009 and IRadAn=       5 diagonalized for initial guess.
 HarFok:  IExCor= 1009 AccDes= 0.00D+00 IRadAn=         5 IDoV= 1 UseB2=F ITyADJ=14
 ICtDFT=  3500011 ScaDFX=  1.000000  1.000000  1.000000  1.000000
 FoFCou: FMM=F IPFlag=           0 FMFlag=      100000 FMFlg1=           0
         NFxFlg=           0 DoJE=T BraDBF=F KetDBF=T FulRan=T
         wScrn=  0.000000 ICntrl=       500 IOpCl=  0 I1Cent=   200000004 NGrid=           0
         NMat0=    1 NMatS0=      1 NMatT0=    0 NMatD0=    1 NMtDS0=    0 NMtDT0=    0
 Petite list used in FoFCou.
 Harris En= -276.306038244827    
 JPrj=0 DoOrth=F DoCkMO=F.
 Leave Link  401 at Sat Sep 28 01:27:48 2019, MaxMem=   671088640 cpu:             103.5 elap:              51.8
 (Enter /shared/centos7/gaussian/g16/l502.exe)
 Integral symmetry usage will be decided dynamically.
 Closed shell SCF:
 Using DIIS extrapolation, IDIIS=  1040.
 NGot=   671088640 LenX=   670604095 LenY=   670368385
 Requested convergence on RMS density matrix=1.00D-08 within 900 cycles.
 Requested convergence on MAX density matrix=1.00D-06.
 Requested convergence on             energy=1.00D-06.
 No special actions if energy rises.
 Fock matrices will be formed incrementally for  20 cycles.
 Integral accuracy reduced to 1.0D-05 until final iterations.

 Cycle   1  Pass 0  IDiag  1:
 FoFJK:  IHMeth= 1 ICntrl=       0 DoSepK=F KAlg= 0 I1Cent=           0 FoldK=F
 IRaf= 920000000 NMat=       1 IRICut=       1 DoRegI=T DoRafI=F ISym2E= 0 IDoP0=0 IntGTp=1.
 FoFCou: FMM=F IPFlag=           0 FMFlag=      100000 FMFlg1=           0
         NFxFlg=           0 DoJE=F BraDBF=F KetDBF=F FulRan=T
         wScrn=  0.000000 ICntrl=         0 IOpCl=  0 I1Cent=           0 NGrid=           0
         NMat0=    1 NMatS0=      1 NMatT0=    0 NMatD0=    1 NMtDS0=    0 NMtDT0=    0
 Symmetry not used in FoFCou.
 E= -275.928679522394    
 DIIS: error= 2.64D-02 at cycle   1 NSaved=   1.
 NSaved= 1 IEnMin= 1 EnMin= -275.928679522394     IErMin= 1 ErrMin= 2.64D-02
 ErrMax= 2.64D-02  0.00D+00 EMaxC= 1.00D-01 BMatC= 3.74D-01 BMatP= 3.74D-01
 IDIUse=3 WtCom= 7.36D-01 WtEn= 2.64D-01
 Coeff-Com:  0.100D+01
 Coeff-En:   0.100D+01
 Coeff:      0.100D+01
 Gap=     0.355 Goal=   None    Shift=    0.000
 GapD=    0.355 DampG=1.000 DampE=0.500 DampFc=0.5000 IDamp=-1.
 Damping current iteration by 5.00D-01
 RMSDP=1.94D-03 MaxDP=7.16D-02              OVMax= 1.65D-01

 Cycle   2  Pass 0  IDiag  1:
 RMSU=  9.66D-04    CP:  9.91D-01
 E= -276.108358729492     Delta-E=       -0.179679207098 Rises=F Damp=T
 DIIS: error= 4.13D-03 at cycle   2 NSaved=   2.
 NSaved= 2 IEnMin= 2 EnMin= -276.108358729492     IErMin= 2 ErrMin= 4.13D-03
 ErrMax= 4.13D-03  0.00D+00 EMaxC= 1.00D-01 BMatC= 1.81D-02 BMatP= 3.74D-01
 IDIUse=3 WtCom= 9.59D-01 WtEn= 4.13D-02
 Coeff-Com: -0.590D-01 0.106D+01
 Coeff-En:   0.000D+00 0.100D+01
 Coeff:     -0.565D-01 0.106D+01
 Gap=     0.440 Goal=   None    Shift=    0.000
 RMSDP=5.17D-04 MaxDP=2.20D-02 DE=-1.80D-01 OVMax= 9.04D-02

 Cycle   3  Pass 0  IDiag  1:
 RMSU=  5.08D-04    CP:  9.99D-01  9.24D-01
 E= -276.286398748667     Delta-E=       -0.178040019174 Rises=F Damp=F
 DIIS: error= 2.28D-03 at cycle   3 NSaved=   3.
 NSaved= 3 IEnMin= 3 EnMin= -276.286398748667     IErMin= 3 ErrMin= 2.28D-03
 ErrMax= 2.28D-03  0.00D+00 EMaxC= 1.00D-01 BMatC= 2.15D-03 BMatP= 1.81D-02
 IDIUse=3 WtCom= 9.77D-01 WtEn= 2.28D-02
 Coeff-Com: -0.497D-01 0.218D+00 0.832D+00
 Coeff-En:   0.000D+00 0.000D+00 0.100D+01
 Coeff:     -0.486D-01 0.213D+00 0.836D+00
 Gap=     0.399 Goal=   None    Shift=    0.000
 RMSDP=8.73D-05 MaxDP=2.40D-03 DE=-1.78D-01 OVMax= 9.34D-03

 Cycle   4  Pass 0  IDiag  1:
 RMSU=  6.96D-05    CP:  9.98D-01  9.72D-01  9.53D-01
 E= -276.288253772952     Delta-E=       -0.001855024286 Rises=F Damp=F
 DIIS: error= 6.40D-04 at cycle   4 NSaved=   4.
 NSaved= 4 IEnMin= 4 EnMin= -276.288253772952     IErMin= 4 ErrMin= 6.40D-04
 ErrMax= 6.40D-04  0.00D+00 EMaxC= 1.00D-01 BMatC= 2.48D-04 BMatP= 2.15D-03
 IDIUse=3 WtCom= 9.94D-01 WtEn= 6.40D-03
 Coeff-Com: -0.139D-01 0.390D-01 0.296D+00 0.679D+00
 Coeff-En:   0.000D+00 0.000D+00 0.000D+00 0.100D+01
 Coeff:     -0.138D-01 0.388D-01 0.294D+00 0.681D+00
 Gap=     0.400 Goal=   None    Shift=    0.000
 RMSDP=2.99D-05 MaxDP=1.36D-03 DE=-1.86D-03 OVMax= 2.85D-03

 Cycle   5  Pass 0  IDiag  1:
 RMSU=  1.76D-05    CP:  9.98D-01  9.65D-01  9.83D-01  7.50D-01
 E= -276.288479512895     Delta-E=       -0.000225739943 Rises=F Damp=F
 DIIS: error= 1.74D-04 at cycle   5 NSaved=   5.
 NSaved= 5 IEnMin= 5 EnMin= -276.288479512895     IErMin= 5 ErrMin= 1.74D-04
 ErrMax= 1.74D-04  0.00D+00 EMaxC= 1.00D-01 BMatC= 1.70D-05 BMatP= 2.48D-04
 IDIUse=3 WtCom= 9.98D-01 WtEn= 1.74D-03
 Coeff-Com: -0.120D-02 0.192D-03 0.497D-01 0.247D+00 0.705D+00
 Coeff-En:   0.000D+00 0.000D+00 0.000D+00 0.000D+00 0.100D+01
 Coeff:     -0.120D-02 0.192D-03 0.496D-01 0.246D+00 0.705D+00
 Gap=     0.399 Goal=   None    Shift=    0.000
 RMSDP=6.23D-06 MaxDP=3.86D-04 DE=-2.26D-04 OVMax= 6.96D-04

 Initial convergence to 1.0D-05 achieved.  Increase integral accuracy.
 Cycle   6  Pass 1  IDiag  1:
 E= -276.288456552862     Delta-E=        0.000022960033 Rises=F Damp=F
 DIIS: error= 5.05D-05 at cycle   1 NSaved=   1.
 NSaved= 1 IEnMin= 1 EnMin= -276.288456552862     IErMin= 1 ErrMin= 5.05D-05
 ErrMax= 5.05D-05  0.00D+00 EMaxC= 1.00D-01 BMatC= 1.62D-06 BMatP= 1.62D-06
 IDIUse=1 WtCom= 1.00D+00 WtEn= 0.00D+00
 Coeff-Com:  0.100D+01
 Coeff:      0.100D+01
 Gap=     0.400 Goal=   None    Shift=    0.000
 RMSDP=6.23D-06 MaxDP=3.86D-04 DE= 2.30D-05 OVMax= 2.38D-04

 Cycle   7  Pass 1  IDiag  1:
 RMSU=  1.20D-05    CP:  1.00D+00
 E= -276.288457303393     Delta-E=       -0.000000750531 Rises=F Damp=F
 DIIS: error= 1.97D-05 at cycle   2 NSaved=   2.
 NSaved= 2 IEnMin= 2 EnMin= -276.288457303393     IErMin= 2 ErrMin= 1.97D-05
 ErrMax= 1.97D-05  0.00D+00 EMaxC= 1.00D-01 BMatC= 3.13D-07 BMatP= 1.62D-06
 IDIUse=1 WtCom= 1.00D+00 WtEn= 0.00D+00
 Coeff-Com:  0.242D+00 0.758D+00
 Coeff:      0.242D+00 0.758D+00
 Gap=     0.399 Goal=   None    Shift=    0.000
 RMSDP=1.22D-06 MaxDP=5.41D-05 DE=-7.51D-07 OVMax= 1.31D-04

 Cycle   8  Pass 1  IDiag  1:
 RMSU=  1.21D-06    CP:  1.00D+00  1.01D+00
 E= -276.288457536228     Delta-E=       -0.000000232836 Rises=F Damp=F
 DIIS: error= 1.12D-05 at cycle   3 NSaved=   3.
 NSaved= 3 IEnMin= 3 EnMin= -276.288457536228     IErMin= 3 ErrMin= 1.12D-05
 ErrMax= 1.12D-05  0.00D+00 EMaxC= 1.00D-01 BMatC= 7.99D-08 BMatP= 3.13D-07
 IDIUse=1 WtCom= 1.00D+00 WtEn= 0.00D+00
 Coeff-Com: -0.453D-02 0.329D+00 0.676D+00
 Coeff:     -0.453D-02 0.329D+00 0.676D+00
 Gap=     0.399 Goal=   None    Shift=    0.000
 RMSDP=4.36D-07 MaxDP=1.74D-05 DE=-2.33D-07 OVMax= 4.56D-05

 Cycle   9  Pass 1  IDiag  1:
 RMSU=  2.76D-07    CP:  1.00D+00  1.02D+00  7.52D-01
 E= -276.288457613229     Delta-E=       -0.000000077001 Rises=F Damp=F
 DIIS: error= 2.42D-06 at cycle   4 NSaved=   4.
 NSaved= 4 IEnMin= 4 EnMin= -276.288457613229     IErMin= 4 ErrMin= 2.42D-06
 ErrMax= 2.42D-06  0.00D+00 EMaxC= 1.00D-01 BMatC= 1.60D-09 BMatP= 7.99D-08
 IDIUse=1 WtCom= 1.00D+00 WtEn= 0.00D+00
 Coeff-Com: -0.872D-02 0.903D-01 0.231D+00 0.688D+00
 Coeff:     -0.872D-02 0.903D-01 0.231D+00 0.688D+00
 Gap=     0.399 Goal=   None    Shift=    0.000
 RMSDP=7.68D-08 MaxDP=2.15D-06 DE=-7.70D-08 OVMax= 7.65D-06

 Cycle  10  Pass 1  IDiag  1:
 RMSU=  7.35D-08    CP:  1.00D+00  1.02D+00  7.56D-01  9.36D-01
 E= -276.288457614852     Delta-E=       -0.000000001623 Rises=F Damp=F
 DIIS: error= 3.67D-07 at cycle   5 NSaved=   5.
 NSaved= 5 IEnMin= 5 EnMin= -276.288457614852     IErMin= 5 ErrMin= 3.67D-07
 ErrMax= 3.67D-07  0.00D+00 EMaxC= 1.00D-01 BMatC= 5.37D-11 BMatP= 1.60D-09
 IDIUse=1 WtCom= 1.00D+00 WtEn= 0.00D+00
 Coeff-Com: -0.277D-03-0.223D-01-0.415D-01 0.483D-01 0.102D+01
 Coeff:     -0.277D-03-0.223D-01-0.415D-01 0.483D-01 0.102D+01
 Gap=     0.399 Goal=   None    Shift=    0.000
 RMSDP=3.15D-08 MaxDP=7.33D-07 DE=-1.62D-09 OVMax= 2.92D-06

 Cycle  11  Pass 1  IDiag  1:
 RMSU=  1.64D-08    CP:  1.00D+00  1.02D+00  7.62D-01  1.03D+00  1.09D+00
 E= -276.288457614926     Delta-E=       -0.000000000074 Rises=F Damp=F
 DIIS: error= 1.47D-07 at cycle   6 NSaved=   6.
 NSaved= 6 IEnMin= 6 EnMin= -276.288457614926     IErMin= 6 ErrMin= 1.47D-07
 ErrMax= 1.47D-07  0.00D+00 EMaxC= 1.00D-01 BMatC= 1.01D-11 BMatP= 5.37D-11
 IDIUse=1 WtCom= 1.00D+00 WtEn= 0.00D+00
 Coeff-Com:  0.334D-03-0.138D-01-0.290D-01-0.169D-01 0.415D+00 0.644D+00
 Coeff:      0.334D-03-0.138D-01-0.290D-01-0.169D-01 0.415D+00 0.644D+00
 Gap=     0.399 Goal=   None    Shift=    0.000
 RMSDP=5.61D-09 MaxDP=2.24D-07 DE=-7.36D-11 OVMax= 5.86D-07

 SCF Done:  E(RM062X) =  -276.288457615     A.U. after   11 cycles
            NFock= 11  Conv=0.56D-08     -V/T= 2.0063
 KE= 2.745613998251D+02 PE=-1.279793361061D+03 EE= 4.083007765920D+02
 Leave Link  502 at Sat Sep 28 01:48:01 2019, MaxMem=   671088640 cpu:            2425.3 elap:            1212.9
 (Enter /shared/centos7/gaussian/g16/l801.exe)
 DoSCS=F DFT=T ScalE2(SS,OS)=  1.000000  1.000000
 Range of M.O.s used for correlation:     1   434
 NBasis=   434 NAE=    29 NBE=    29 NFC=     0 NFV=     0
 NROrb=    434 NOA=    29 NOB=    29 NVA=   405 NVB=   405

 **** Warning!!: The largest alpha MO coefficient is  0.12816664D+02

 Leave Link  801 at Sat Sep 28 01:48:02 2019, MaxMem=   671088640 cpu:               1.8 elap:               0.9
 (Enter /shared/centos7/gaussian/g16/l1101.exe)
 Using compressed storage, NAtomX=    23.
 Will process     24 centers per pass.
 Leave Link 1101 at Sat Sep 28 01:48:46 2019, MaxMem=   671088640 cpu:              88.4 elap:              44.2
 (Enter /shared/centos7/gaussian/g16/l1102.exe)
 Symmetrizing basis deriv contribution to polar:
 IMax=3 JMax=2 DiffMx= 0.00D+00
 Leave Link 1102 at Sat Sep 28 01:48:49 2019, MaxMem=   671088640 cpu:               5.5 elap:               2.8
 (Enter /shared/centos7/gaussian/g16/l1110.exe)
 Forming Gx(P) for the SCF density, NAtomX=    23.
 Integral derivatives from FoFJK, PRISM(SPDF).
 Do as many integral derivatives as possible in FoFJK.
 G2DrvN: MDV=     671086848.
 G2DrvN: will do    24 centers at a time, making    1 passes.
 Calling FoFCou, ICntrl=  3107 FMM=F I1Cent=   0 AccDes= 0.00D+00.
 FoFJK:  IHMeth= 1 ICntrl=    3107 DoSepK=F KAlg= 0 I1Cent=           0 FoldK=F
 IRaf=         0 NMat=       1 IRICut=       1 DoRegI=T DoRafI=F ISym2E= 0 IDoP0=0 IntGTp=1.
 FoFCou: FMM=F IPFlag=           0 FMFlag=      100000 FMFlg1=           0
         NFxFlg=           0 DoJE=F BraDBF=F KetDBF=F FulRan=T
         wScrn=  0.000000 ICntrl=      3107 IOpCl=  0 I1Cent=           0 NGrid=           0
         NMat0=    1 NMatS0=      1 NMatT0=    0 NMatD0=    1 NMtDS0=    0 NMtDT0=    0
 Symmetry not used in FoFCou.
 End of G2Drv F.D. properties file   721 does not exist.
 End of G2Drv F.D. properties file   722 does not exist.
 End of G2Drv F.D. properties file   788 does not exist.
 Leave Link 1110 at Sat Sep 28 02:40:56 2019, MaxMem=   671088640 cpu:            6252.9 elap:            3127.0
 (Enter /shared/centos7/gaussian/g16/l1002.exe)
 Minotr:  Closed shell wavefunction.
          IDoAtm=11111111111111111111111
          Direct CPHF calculation.
          Differentiating once with respect to nuclear coordinates.
          Requested convergence is 1.0D-08 RMS, and 1.0D-07 maximum.
          Secondary convergence is 1.0D-12 RMS, and 1.0D-12 maximum.
          NewPWx=T KeepS1=F KeepF1=F KeepIn=T MapXYZ=F SortEE=F KeepMc=T.
         6946 words used for storage of precomputed grid.
 Two-electron integrals replicated using symmetry.
          MDV=     671088640 using IRadAn=       1.
          Solving linear equations simultaneously, MaxMat=     380.
 FoF2E skips out because all densities are zero.
 CalDSu exits because no D1Ps are significant.
 FoFJK:  IHMeth= 1 ICntrl=       0 DoSepK=F KAlg= 0 I1Cent=           0 FoldK=F
 IRaf= 900000000 NMat=      69 IRICut=     172 DoRegI=T DoRafI=T ISym2E= 2 IDoP0=3 IntGTp=3.
 FoFCou: FMM=F IPFlag=           0 FMFlag=      100000 FMFlg1=           0
         NFxFlg=           0 DoJE=F BraDBF=F KetDBF=F FulRan=T
         wScrn=  0.000000 ICntrl=         0 IOpCl=  0 I1Cent=           0 NGrid=           0
         NMat0=   69 NMatS0=     69 NMatT0=    0 NMatD0=   69 NMtDS0=    0 NMtDT0=    0
 Integrals replicated using symmetry in FoFCou.
 Raff kept on since  85.92% of shell-pairs survive, threshold=   0.20 IRatSp=86.
          There are    72 degrees of freedom in the 1st order CPHF.  IDoFFX=6 NUNeed=     0.
     66 vectors produced by pass  0 Test12= 1.63D-14 1.39D-09 XBig12= 5.80D-02 3.86D-02.
 AX will form    66 AO Fock derivatives at one time.
     66 vectors produced by pass  1 Test12= 1.63D-14 1.39D-09 XBig12= 3.66D-03 6.38D-03.
     66 vectors produced by pass  2 Test12= 1.63D-14 1.39D-09 XBig12= 6.25D-05 1.03D-03.
     66 vectors produced by pass  3 Test12= 1.63D-14 1.39D-09 XBig12= 5.21D-07 9.53D-05.
     66 vectors produced by pass  4 Test12= 1.63D-14 1.39D-09 XBig12= 2.57D-09 6.28D-06.
     66 vectors produced by pass  5 Test12= 1.63D-14 1.39D-09 XBig12= 1.29D-11 3.24D-07.
     23 vectors produced by pass  6 Test12= 1.63D-14 1.39D-09 XBig12= 4.70D-14 1.88D-08.
 InvSVY:  IOpt=1 It=  1 EMax= 4.16D-16
 Solved reduced A of dimension   419 with    72 vectors.
 End of Minotr F.D. properties file   721 does not exist.
 End of Minotr F.D. properties file   722 does not exist.
 End of Minotr F.D. properties file   788 does not exist.
 Leave Link 1002 at Sat Sep 28 04:08:23 2019, MaxMem=   671088640 cpu:           10493.5 elap:            5247.6
 (Enter /shared/centos7/gaussian/g16/l601.exe)
 Copying SCF densities to generalized density rwf, IOpCl= 0 IROHF=0.

 **********************************************************************

            Population analysis using the SCF density.

 **********************************************************************

 Orbital symmetries:
       Occupied  (A) (A) (A) (A) (A) (A) (A) (A) (A) (A) (A) (A)
                 (A) (A) (A) (A) (A) (A) (A) (A) (A) (A) (A) (A)
                 (A) (A) (A) (A) (A)
       Virtual   (A) (A) (A) (A) (A) (A) (A) (A) (A) (A) (A) (A)
                 (A) (A) (A) (A) (A) (A) (A) (A) (A) (A) (A) (A)
                 (A) (A) (A) (A) (A) (A) (A) (A) (A) (A) (A) (A)
                 (A) (A) (A) (A) (A) (A) (A) (A) (A) (A) (A) (A)
                 (A) (A) (A) (A) (A) (A) (A) (A) (A) (A) (A) (A)
                 (A) (A) (A) (A) (A) (A) (A) (A) (A) (A) (A) (A)
                 (A) (A) (A) (A) (A) (A) (A) (A) (A) (A) (A) (A)
                 (A) (A) (A) (A) (A) (A) (A) (A) (A) (A) (A) (A)
                 (A) (A) (A) (A) (A) (A) (A) (A) (A) (A) (A) (A)
                 (A) (A) (A) (A) (A) (A) (A) (A) (A) (A) (A) (A)
                 (A) (A) (A) (A) (A) (A) (A) (A) (A) (A) (A) (A)
                 (A) (A) (A) (A) (A) (A) (A) (A) (A) (A) (A) (A)
                 (A) (A) (A) (A) (A) (A) (A) (A) (A) (A) (A) (A)
                 (A) (A) (A) (A) (A) (A) (A) (A) (A) (A) (A) (A)
                 (A) (A) (A) (A) (A) (A) (A) (A) (A) (A) (A) (A)
                 (A) (A) (A) (A) (A) (A) (A) (A) (A) (A) (A) (A)
                 (A) (A) (A) (A) (A) (A) (A) (A) (A) (A) (A) (A)
                 (A) (A) (A) (A) (A) (A) (A) (A) (A) (A) (A) (A)
                 (A) (A) (A) (A) (A) (A) (A) (A) (A) (A) (A) (A)
                 (A) (A) (A) (A) (A) (A) (A) (A) (A) (A) (A) (A)
                 (A) (A) (A) (A) (A) (A) (A) (A) (A) (A) (A) (A)
                 (A) (A) (A) (A) (A) (A) (A) (A) (A) (A) (A) (A)
                 (A) (A) (A) (A) (A) (A) (A) (A) (A) (A) (A) (A)
                 (A) (A) (A) (A) (A) (A) (A) (A) (A) (A) (A) (A)
                 (A) (A) (A) (A) (A) (A) (A) (A) (A) (A) (A) (A)
                 (A) (A) (A) (A) (A) (A) (A) (A) (A) (A) (A) (A)
                 (A) (A) (A) (A) (A) (A) (A) (A) (A) (A) (A) (A)
                 (A) (A) (A) (A) (A) (A) (A) (A) (A) (A) (A) (A)
                 (A) (A) (A) (A) (A) (A) (A) (A) (A) (A) (A) (A)
                 (A) (A) (A) (A) (A) (A) (A) (A) (A) (A) (A) (A)
                 (A) (A) (A) (A) (A) (A) (A) (A) (A) (A) (A) (A)
                 (A) (A) (A) (A) (A) (A) (A) (A) (A) (A) (A) (A)
                 (A) (A) (A) (A) (A) (A) (A) (A) (A) (A) (A) (A)
                 (A) (A) (A) (A) (A) (A) (A) (A) (A)
 The electronic state is 1-A.
 Alpha  occ. eigenvalues --  -10.52615 -10.52497 -10.52239 -10.52192 -10.52150
 Alpha  occ. eigenvalues --  -10.52119 -10.52088  -0.91957  -0.88167  -0.82907
 Alpha  occ. eigenvalues --   -0.76466  -0.70257  -0.66801  -0.62102  -0.55133
 Alpha  occ. eigenvalues --   -0.53603  -0.50224  -0.49544  -0.48852  -0.46108
 Alpha  occ. eigenvalues --   -0.44632  -0.43264  -0.42169  -0.39650  -0.38634
 Alpha  occ. eigenvalues --   -0.37513  -0.36914  -0.36223  -0.33864
 Alpha virt. eigenvalues --    0.06086   0.07239   0.08281   0.08685   0.10788
 Alpha virt. eigenvalues --    0.11805   0.12101   0.12872   0.13910   0.15009
 Alpha virt. eigenvalues --    0.16165   0.16981   0.17730   0.19684   0.21039
 Alpha virt. eigenvalues --    0.21729   0.22087   0.22958   0.25060   0.25213
 Alpha virt. eigenvalues --    0.26447   0.27388   0.29067   0.30599   0.31945
 Alpha virt. eigenvalues --    0.33978   0.35210   0.35815   0.37254   0.38608
 Alpha virt. eigenvalues --    0.39201   0.40249   0.40896   0.42187   0.43300
 Alpha virt. eigenvalues --    0.43391   0.44215   0.45819   0.46627   0.46850
 Alpha virt. eigenvalues --    0.47824   0.48376   0.48672   0.49803   0.50871
 Alpha virt. eigenvalues --    0.51115   0.51518   0.52021   0.52428   0.53367
 Alpha virt. eigenvalues --    0.54382   0.55571   0.55849   0.56753   0.57511
 Alpha virt. eigenvalues --    0.57806   0.58969   0.59286   0.60188   0.61494
 Alpha virt. eigenvalues --    0.62083   0.63495   0.71022   0.74261   0.78206
 Alpha virt. eigenvalues --    0.79774   0.81597   0.82132   0.83248   0.85414
 Alpha virt. eigenvalues --    0.87494   0.89085   0.90036   0.91200   0.91561
 Alpha virt. eigenvalues --    0.92616   0.93399   0.95619   0.96563   0.98330
 Alpha virt. eigenvalues --    1.00005   1.00888   1.02411   1.03268   1.04061
 Alpha virt. eigenvalues --    1.06404   1.07111   1.08148   1.08719   1.08984
 Alpha virt. eigenvalues --    1.10048   1.10904   1.12964   1.13345   1.13926
 Alpha virt. eigenvalues --    1.14409   1.15728   1.16871   1.17605   1.18258
 Alpha virt. eigenvalues --    1.19000   1.20188   1.21343   1.22071   1.23506
 Alpha virt. eigenvalues --    1.24064   1.25712   1.26618   1.28688   1.28880
 Alpha virt. eigenvalues --    1.29560   1.31548   1.31798   1.32293   1.32567
 Alpha virt. eigenvalues --    1.33770   1.34982   1.36523   1.36846   1.37947
 Alpha virt. eigenvalues --    1.38699   1.39715   1.41172   1.41768   1.43751
 Alpha virt. eigenvalues --    1.44381   1.45861   1.47523   1.48261   1.50266
 Alpha virt. eigenvalues --    1.51488   1.52847   1.53188   1.54256   1.55759
 Alpha virt. eigenvalues --    1.56444   1.57433   1.58451   1.61121   1.62403
 Alpha virt. eigenvalues --    1.63886   1.66247   1.68163   1.68567   1.70699
 Alpha virt. eigenvalues --    1.72457   1.76984   1.81508   1.93103   2.12592
 Alpha virt. eigenvalues --    2.19860   2.22721   2.23519   2.25906   2.30443
 Alpha virt. eigenvalues --    2.33428   2.36912   2.38445   2.40039   2.42084
 Alpha virt. eigenvalues --    2.43092   2.45301   2.47888   2.50186   2.51834
 Alpha virt. eigenvalues --    2.54201   2.55078   2.55826   2.57302   2.60511
 Alpha virt. eigenvalues --    2.60864   2.61637   2.62769   2.65049   2.66879
 Alpha virt. eigenvalues --    2.68895   2.70433   2.70807   2.73152   2.74305
 Alpha virt. eigenvalues --    2.75800   2.76116   2.77770   2.79610   2.80908
 Alpha virt. eigenvalues --    2.80939   2.82423   2.83218   2.84349   2.85453
 Alpha virt. eigenvalues --    2.86591   2.87842   2.88899   2.90596   2.91819
 Alpha virt. eigenvalues --    2.92972   2.93809   2.95281   2.95646   2.96697
 Alpha virt. eigenvalues --    2.98388   2.98664   2.99375   3.02275   3.03203
 Alpha virt. eigenvalues --    3.03912   3.05148   3.06074   3.06589   3.07438
 Alpha virt. eigenvalues --    3.08693   3.09529   3.10377   3.12215   3.12916
 Alpha virt. eigenvalues --    3.13160   3.14142   3.14556   3.15010   3.16474
 Alpha virt. eigenvalues --    3.18131   3.18274   3.19172   3.20914   3.22263
 Alpha virt. eigenvalues --    3.23214   3.26590   3.26720   3.28213   3.28944
 Alpha virt. eigenvalues --    3.31151   3.32534   3.33234   3.33880   3.34294
 Alpha virt. eigenvalues --    3.36090   3.36824   3.37531   3.39665   3.40473
 Alpha virt. eigenvalues --    3.41393   3.43615   3.44733   3.45711   3.47283
 Alpha virt. eigenvalues --    3.48207   3.48672   3.51267   3.51787   3.53324
 Alpha virt. eigenvalues --    3.54173   3.56056   3.57551   3.57904   3.59280
 Alpha virt. eigenvalues --    3.61363   3.62504   3.63836   3.65240   3.65931
 Alpha virt. eigenvalues --    3.66811   3.68048   3.69809   3.71502   3.73292
 Alpha virt. eigenvalues --    3.73757   3.75248   3.76618   3.76821   3.77192
 Alpha virt. eigenvalues --    3.78743   3.80458   3.82380   3.83475   3.84453
 Alpha virt. eigenvalues --    3.85754   3.86260   3.88085   3.89007   3.90027
 Alpha virt. eigenvalues --    3.91516   3.93493   3.93777   3.95264   3.95530
 Alpha virt. eigenvalues --    3.96478   3.98112   3.99419   4.00433   4.01885
 Alpha virt. eigenvalues --    4.02577   4.04129   4.04364   4.05075   4.06924
 Alpha virt. eigenvalues --    4.07309   4.08876   4.09490   4.10957   4.12934
 Alpha virt. eigenvalues --    4.13543   4.14097   4.14472   4.16232   4.16676
 Alpha virt. eigenvalues --    4.17410   4.18373   4.20217   4.21188   4.22166
 Alpha virt. eigenvalues --    4.22694   4.23591   4.25131   4.26542   4.28419
 Alpha virt. eigenvalues --    4.29848   4.31325   4.33801   4.34220   4.34562
 Alpha virt. eigenvalues --    4.37920   4.38111   4.42485   4.42874   4.44912
 Alpha virt. eigenvalues --    4.46587   4.48663   4.50560   4.53468   4.55174
 Alpha virt. eigenvalues --    4.56982   4.58747   4.60182   4.62780   4.64783
 Alpha virt. eigenvalues --    4.67143   4.70351   4.72907   4.73379   4.75409
 Alpha virt. eigenvalues --    4.76596   4.77565   4.79379   4.80964   4.83979
 Alpha virt. eigenvalues --    4.85884   4.87208   4.88710   4.90096   4.91201
 Alpha virt. eigenvalues --    4.94309   4.94760   4.95627   4.97201   5.00919
 Alpha virt. eigenvalues --    5.01144   5.03928   5.05057   5.06446   5.06511
 Alpha virt. eigenvalues --    5.08602   5.09284   5.13565   5.15451   5.16908
 Alpha virt. eigenvalues --    5.18635   5.21487   5.23902   5.24507   5.25554
 Alpha virt. eigenvalues --    5.27480   5.27687   5.28134   5.31057   5.35059
 Alpha virt. eigenvalues --    5.36111   5.37389   5.39522   5.41111   5.41674
 Alpha virt. eigenvalues --    5.44404   5.49093   5.52260   5.54582   5.57525
 Alpha virt. eigenvalues --    5.59729   5.64435   5.70416   5.76890   5.79179
 Alpha virt. eigenvalues --    5.79805   5.81264   5.82711   5.84555   5.90056
 Alpha virt. eigenvalues --    5.94757   6.02274   6.05575  10.91019  11.80777
 Alpha virt. eigenvalues --   12.06362  12.79721  13.32445  13.48601  13.97968
          Condensed to atoms (all electrons):
               1          2          3          4          5          6
     1  C    5.082881   0.284935  -0.037290   0.296650   0.005722  -0.057513
     2  C    0.284935   5.067338   0.298601  -0.038302  -0.053015   0.006953
     3  C   -0.037290   0.298601   5.167750  -0.031364   0.300528  -0.000576
     4  C    0.296650  -0.038302  -0.031364   5.123453   0.000279   0.295569
     5  C    0.005722  -0.053015   0.300528   0.000279   5.039276   0.000181
     6  C   -0.057513   0.006953  -0.000576   0.295569   0.000181   4.956100
     7  C   -0.000296   0.003717  -0.052012  -0.000118   0.312021   0.000002
     8  H   -0.046712  -0.008677  -0.015550   0.418267   0.000773  -0.047802
     9  H   -0.045136   0.006074   0.001419   0.411430  -0.000013  -0.042979
    10  H    0.422865  -0.048850   0.007449  -0.050200  -0.000558   0.008254
    11  H    0.423430  -0.051653   0.004223  -0.052395   0.000595  -0.018612
    12  H   -0.053355   0.428702  -0.051640   0.007523  -0.018804  -0.000096
    13  H   -0.046305   0.419997  -0.052451   0.004317   0.008326  -0.000572
    14  H    0.005870  -0.048522   0.419544   0.000885  -0.049260   0.000077
    15  H   -0.011940  -0.037261   0.407798  -0.010676  -0.043580  -0.001076
    16  H    0.000185  -0.011666  -0.056952   0.000003   0.419695   0.000029
    17  H   -0.000037   0.004861  -0.044187   0.000220   0.402895   0.000042
    18  H   -0.009676   0.000358   0.000053  -0.055268   0.000084   0.409725
    19  H    0.007119  -0.000583  -0.000066  -0.045168  -0.000002   0.408044
    20  H    0.004654   0.000192   0.000655  -0.046677  -0.000092   0.402219
    21  H   -0.000049  -0.000553  -0.007862  -0.000005  -0.049175  -0.000000
    22  H    0.000007   0.000007  -0.001129  -0.000008  -0.040573   0.000001
    23  H    0.000025  -0.000397   0.009364   0.000004  -0.041878  -0.000000
               7          8          9         10         11         12
     1  C   -0.000296  -0.046712  -0.045136   0.422865   0.423430  -0.053355
     2  C    0.003717  -0.008677   0.006074  -0.048850  -0.051653   0.428702
     3  C   -0.052012  -0.015550   0.001419   0.007449   0.004223  -0.051640
     4  C   -0.000118   0.418267   0.411430  -0.050200  -0.052395   0.007523
     5  C    0.312021   0.000773  -0.000013  -0.000558   0.000595  -0.018804
     6  C    0.000002  -0.047802  -0.042979   0.008254  -0.018612  -0.000096
     7  C    4.940748  -0.000114   0.000004   0.000020  -0.000001   0.000782
     8  H   -0.000114   0.619050  -0.040991   0.005982   0.005835   0.000107
     9  H    0.000004  -0.040991   0.614100  -0.021671   0.006343  -0.000531
    10  H    0.000020   0.005982  -0.021671   0.618769  -0.039917   0.005638
    11  H   -0.000001   0.005835   0.006343  -0.039917   0.617920  -0.020309
    12  H    0.000782   0.000107  -0.000531   0.005638  -0.020309   0.610375
    13  H   -0.000190   0.000134   0.000338  -0.022785   0.008361  -0.041181
    14  H   -0.012656  -0.000203  -0.000058  -0.000018  -0.000552   0.006441
    15  H    0.006356  -0.004573   0.000928  -0.000024   0.000543   0.005052
    16  H   -0.043736  -0.000220   0.000013  -0.000157  -0.000088   0.002310
    17  H   -0.036047   0.000458  -0.000025   0.000051  -0.000043   0.001608
    18  H   -0.000001   0.006743   0.004662   0.001103   0.003937  -0.000242
    19  H   -0.000000   0.006177  -0.021278  -0.000300   0.000733   0.000027
    20  H    0.000004  -0.020931   0.008741  -0.000748   0.001268  -0.000015
    21  H    0.407652   0.000004  -0.000001   0.000005   0.000003   0.000418
    22  H    0.402640   0.000001   0.000000  -0.000001   0.000002  -0.000102
    23  H    0.404842   0.000002  -0.000000  -0.000001  -0.000003  -0.000091
              13         14         15         16         17         18
     1  C   -0.046305   0.005870  -0.011940   0.000185  -0.000037  -0.009676
     2  C    0.419997  -0.048522  -0.037261  -0.011666   0.004861   0.000358
     3  C   -0.052451   0.419544   0.407798  -0.056952  -0.044187   0.000053
     4  C    0.004317   0.000885  -0.010676   0.000003   0.000220  -0.055268
     5  C    0.008326  -0.049260  -0.043580   0.419695   0.402895   0.000084
     6  C   -0.000572   0.000077  -0.001076   0.000029   0.000042   0.409725
     7  C   -0.000190  -0.012656   0.006356  -0.043736  -0.036047  -0.000001
     8  H    0.000134  -0.000203  -0.004573  -0.000220   0.000458   0.006743
     9  H    0.000338  -0.000058   0.000928   0.000013  -0.000025   0.004662
    10  H   -0.022785  -0.000018  -0.000024  -0.000157   0.000051   0.001103
    11  H    0.008361  -0.000552   0.000543  -0.000088  -0.000043   0.003937
    12  H   -0.041181   0.006441   0.005052   0.002310   0.001608  -0.000242
    13  H    0.622484  -0.021397   0.006759   0.001573  -0.000721  -0.000102
    14  H   -0.021397   0.598754  -0.040391   0.004810   0.007009  -0.000001
    15  H    0.006759  -0.040391   0.602392   0.006526  -0.016935  -0.000421
    16  H    0.001573   0.004810   0.006526   0.623276  -0.042430  -0.000021
    17  H   -0.000721   0.007009  -0.016935  -0.042430   0.613888   0.000022
    18  H   -0.000102  -0.000001  -0.000421  -0.000021   0.000022   0.609895
    19  H    0.000023   0.000002   0.000003  -0.000001   0.000000  -0.034570
    20  H    0.000074  -0.000035   0.001688   0.000022   0.000015  -0.037294
    21  H   -0.000143   0.001682   0.000654  -0.000887   0.007891  -0.000000
    22  H    0.000068   0.000548   0.000423   0.008410  -0.014348  -0.000000
    23  H   -0.000000   0.000898  -0.000619  -0.011854   0.000618   0.000000
              19         20         21         22         23
     1  C    0.007119   0.004654  -0.000049   0.000007   0.000025
     2  C   -0.000583   0.000192  -0.000553   0.000007  -0.000397
     3  C   -0.000066   0.000655  -0.007862  -0.001129   0.009364
     4  C   -0.045168  -0.046677  -0.000005  -0.000008   0.000004
     5  C   -0.000002  -0.000092  -0.049175  -0.040573  -0.041878
     6  C    0.408044   0.402219  -0.000000   0.000001  -0.000000
     7  C   -0.000000   0.000004   0.407652   0.402640   0.404842
     8  H    0.006177  -0.020931   0.000004   0.000001   0.000002
     9  H   -0.021278   0.008741  -0.000001   0.000000  -0.000000
    10  H   -0.000300  -0.000748   0.000005  -0.000001  -0.000001
    11  H    0.000733   0.001268   0.000003   0.000002  -0.000003
    12  H    0.000027  -0.000015   0.000418  -0.000102  -0.000091
    13  H    0.000023   0.000074  -0.000143   0.000068  -0.000000
    14  H    0.000002  -0.000035   0.001682   0.000548   0.000898
    15  H    0.000003   0.001688   0.000654   0.000423  -0.000619
    16  H   -0.000001   0.000022  -0.000887   0.008410  -0.011854
    17  H    0.000000   0.000015   0.007891  -0.014348   0.000618
    18  H   -0.034570  -0.037294  -0.000000  -0.000000   0.000000
    19  H    0.611469  -0.033567   0.000000   0.000000   0.000000
    20  H   -0.033567   0.617783   0.000000  -0.000001  -0.000000
    21  H    0.000000   0.000000   0.605653  -0.039691  -0.034079
    22  H    0.000000  -0.000001  -0.039691   0.607921  -0.029707
    23  H    0.000000  -0.000000  -0.034079  -0.029707   0.602288
 Mulliken charges:
               1
     1  C   -0.226037
     2  C   -0.222257
     3  C   -0.266304
     4  C   -0.228421
     5  C   -0.193423
     6  C   -0.317968
     7  C   -0.333615
     8  H    0.122238
     9  H    0.118630
    10  H    0.115094
    11  H    0.110380
    12  H    0.117383
    13  H    0.113393
    14  H    0.126576
    15  H    0.128375
    16  H    0.101160
    17  H    0.115195
    18  H    0.101018
    19  H    0.101937
    20  H    0.102044
    21  H    0.108483
    22  H    0.105532
    23  H    0.100588
 Sum of Mulliken charges =  -0.00000
 Mulliken charges with hydrogens summed into heavy atoms:
               1
     1  C   -0.000563
     2  C    0.008519
     3  C   -0.011353
     4  C    0.012447
     5  C    0.022932
     6  C   -0.012969
     7  C   -0.019013
 APT charges:
               1
     1  C   -0.820647
     2  C   -0.661604
     3  C   -0.492468
     4  C   -0.470368
     5  C   -0.448051
     6  C   -1.287375
     7  C   -1.414738
     8  H    0.156510
     9  H    0.486546
    10  H    0.443395
    11  H    0.329265
    12  H    0.317085
    13  H    0.391367
    14  H    0.382324
    15  H    0.239834
    16  H    0.276360
    17  H    0.286061
    18  H    0.267664
    19  H    0.587546
    20  H    0.227457
    21  H    0.292552
    22  H    0.378512
    23  H    0.532772
 Sum of APT charges =  -0.00000
 APT charges with hydrogens summed into heavy atoms:
               1
     1  C   -0.047987
     2  C    0.046848
     3  C    0.129690
     4  C    0.172688
     5  C    0.114370
     6  C   -0.204708
     7  C   -0.210901
 Electronic spatial extent (au):  <R**2>=           1321.3934
 Charge=             -0.0000 electrons
 Dipole moment (field-independent basis, Debye):
    X=             -0.0515    Y=              0.0872    Z=             -0.0729  Tot=              0.1248
 Quadrupole moment (field-independent basis, Debye-Ang):
   XX=            -50.3688   YY=            -48.9659   ZZ=            -48.8729
   XY=             -0.2967   XZ=              0.4403   YZ=              0.0276
 Traceless Quadrupole moment (field-independent basis, Debye-Ang):
   XX=             -0.9663   YY=              0.4366   ZZ=              0.5297
   XY=             -0.2967   XZ=              0.4403   YZ=              0.0276
 Octapole moment (field-independent basis, Debye-Ang**2):
  XXX=             -5.1833  YYY=              0.4563  ZZZ=              1.9974  XYY=              1.3813
  XXY=              2.5793  XXZ=             -0.7288  XZZ=              0.4854  YZZ=              1.0814
  YYZ=             -2.6213  XYZ=              0.0214
 Hexadecapole moment (field-independent basis, Debye-Ang**3):
 XXXX=          -1453.8711 YYYY=           -295.8178 ZZZZ=           -152.3861 XXXY=             -1.7470
 XXXZ=             17.2891 YYYX=             -5.3833 YYYZ=             -1.6969 ZZZX=             -0.5303
 ZZZY=              1.1245 XXYY=           -293.1753 XXZZ=           -261.7571 YYZZ=            -75.8145
 XXYZ=             -0.4851 YYXZ=              0.0432 ZZXY=             -0.7282
 N-N= 3.206427270284D+02 E-N=-1.279793318244D+03  KE= 2.745613998251D+02
  Exact polarizability:   0.000   0.000   0.000   0.000   0.000   0.000
 Approx polarizability:  97.866  -0.455  96.396   0.398   0.585  97.981
 No NMR shielding tensors so no spin-rotation constants.
 Leave Link  601 at Sat Sep 28 04:08:57 2019, MaxMem=   671088640 cpu:              68.0 elap:              34.0
 (Enter /shared/centos7/gaussian/g16/l701.exe)
 SCFChk:  SCF convergence  5.61D-09 required  1.00D-08
 ... and contract with generalized density number  0.
 Compute integral second derivatives.
 Entering OneElI...
 Calculate overlap and kinetic energy integrals
    NBasis = 485  MinDer = 2  MaxDer = 2
 Requested accuracy = 0.1000D-12
 PrmmSu-InSpLW:  IPartL=    0 NPrtUS=   20 NPrtUL=    1 DoSpLW=F IThBeg=    0 IThEnd=   19 NThAct=   20.
 PrsmSu:  NPrtUS=  20 ThrOK=T IAlg=1 NPAlg=1 LenDen=           0 ISkipM=0 DoSpLW=F IThBeg=    0 IThEnd=   19.
 Prism:   IPart=     0 DynPar=F LinDyn=F Incr=           6.
 PRISM was handed    33206550 working-precision words and 13504 shell-pairs
 PRISM was handed    33206550 working-precision words and 13504 shell-pairs
 PRISM was handed    33206550 working-precision words and 13504 shell-pairs
 PRISM was handed    33206550 working-precision words and 13504 shell-pairs
 PRISM was handed    33206550 working-precision words and 13504 shell-pairs
 PRISM was handed    33206550 working-precision words and 13504 shell-pairs
 PRISM was handed    33206550 working-precision words and 13504 shell-pairs
 PRISM was handed    33206550 working-precision words and 13504 shell-pairs
 PRISM was handed    33206550 working-precision words and 13504 shell-pairs
 PRISM was handed    33206550 working-precision words and 13504 shell-pairs
 PRISM was handed    33206550 working-precision words and 13504 shell-pairs
 PRISM was handed    33206550 working-precision words and 13504 shell-pairs
 PRISM was handed    33206550 working-precision words and 13504 shell-pairs
 IPart=  0 NShTot=         709 NBatch=          79 AvBLen=         9.0
 PRISM was handed    33206550 working-precision words and 13504 shell-pairs
 PRISM was handed    33206550 working-precision words and 13504 shell-pairs
 PRISM was handed    33206550 working-precision words and 13504 shell-pairs
 PRISM was handed    33206550 working-precision words and 13504 shell-pairs
 PRISM was handed    33206550 working-precision words and 13504 shell-pairs
 PRISM was handed    33206550 working-precision words and 13504 shell-pairs
 IPart=  8 NShTot=         674 NBatch=          59 AvBLen=        11.4
 PRISM was handed    33206550 working-precision words and 13504 shell-pairs
 IPart= 18 NShTot=         648 NBatch=          48 AvBLen=        13.5
 IPart=  2 NShTot=         703 NBatch=          76 AvBLen=         9.3
 IPart=  1 NShTot=         708 NBatch=          79 AvBLen=         9.0
 IPart=  5 NShTot=         690 NBatch=          70 AvBLen=         9.9
 IPart=  9 NShTot=         672 NBatch=          59 AvBLen=        11.4
 IPart=  3 NShTot=         700 NBatch=          74 AvBLen=         9.5
 IPart= 14 NShTot=         660 NBatch=          52 AvBLen=        12.7
 IPart= 12 NShTot=         665 NBatch=          54 AvBLen=        12.3
 IPart=  7 NShTot=         680 NBatch=          61 AvBLen=        11.1
 IPart= 17 NShTot=         653 NBatch=          50 AvBLen=        13.1
 IPart= 13 NShTot=         661 NBatch=          52 AvBLen=        12.7
 IPart= 15 NShTot=         658 NBatch=          52 AvBLen=        12.7
 IPart= 16 NShTot=         656 NBatch=          51 AvBLen=        12.9
 IPart=  4 NShTot=         694 NBatch=          71 AvBLen=         9.8
 IPart= 19 NShTot=         648 NBatch=          48 AvBLen=        13.5
 IPart= 11 NShTot=         668 NBatch=          57 AvBLen=        11.7
 IPart=  6 NShTot=         687 NBatch=          67 AvBLen=        10.3
 IPart= 10 NShTot=         670 NBatch=          58 AvBLen=        11.6
 PrSmSu:  NxtVal=            121.
 Entering OneElI...
 Calculate potential energy integrals
    NBasis = 485  MinDer = 2  MaxDer = 2
 Requested accuracy = 0.1000D-12
 PrmmSu-InSpLW:  IPartL=    0 NPrtUS=   20 NPrtUL=    1 DoSpLW=F IThBeg=    0 IThEnd=   19 NThAct=   20.
 PrsmSu:  NPrtUS=  20 ThrOK=T IAlg=1 NPAlg=1 LenDen=           0 ISkipM=0 DoSpLW=F IThBeg=    0 IThEnd=   19.
 Prism:   IPart=     0 DynPar=F LinDyn=F Incr=         136.
 PRISM was handed    33272906 working-precision words and 11894 shell-pairs
 PRISM was handed    33272906 working-precision words and 11894 shell-pairs
 PRISM was handed    33272906 working-precision words and 11894 shell-pairs
 PRISM was handed    33272906 working-precision words and 11894 shell-pairs
 PRISM was handed    33272906 working-precision words and 11894 shell-pairs
 PRISM was handed    33272906 working-precision words and 11894 shell-pairs
 PRISM was handed    33272906 working-precision words and 11894 shell-pairs
 PRISM was handed    33272906 working-precision words and 11894 shell-pairs
 PRISM was handed    33272906 working-precision words and 11894 shell-pairs
 PRISM was handed    33272906 working-precision words and 11894 shell-pairs
 PRISM was handed    33272906 working-precision words and 11894 shell-pairs
 PRISM was handed    33272906 working-precision words and 11894 shell-pairs
 PRISM was handed    33272906 working-precision words and 11894 shell-pairs
 PRISM was handed    33272906 working-precision words and 11894 shell-pairs
 PRISM was handed    33272906 working-precision words and 11894 shell-pairs
 PRISM was handed    33272906 working-precision words and 11894 shell-pairs
 PRISM was handed    33272906 working-precision words and 11894 shell-pairs
 PRISM was handed    33272906 working-precision words and 11894 shell-pairs
 PRISM was handed    33272906 working-precision words and 11894 shell-pairs
 PRISM was handed    33272906 working-precision words and 11894 shell-pairs
 IPart=  2 NShTot=       14214 NBatch=         620 AvBLen=        22.9
 IPart=  9 NShTot=       13639 NBatch=         594 AvBLen=        23.0
 IPart= 18 NShTot=       13156 NBatch=         573 AvBLen=        23.0
 IPart=  1 NShTot=       14306 NBatch=         624 AvBLen=        22.9
 IPart=  8 NShTot=       13662 NBatch=         595 AvBLen=        23.0
 IPart=  5 NShTot=       14099 NBatch=         614 AvBLen=        23.0
 IPart=  0 NShTot=       14421 NBatch=         629 AvBLen=        22.9
 IPart= 16 NShTot=       13202 NBatch=         575 AvBLen=        23.0
 IPart= 10 NShTot=       13593 NBatch=         592 AvBLen=        23.0
 IPart= 12 NShTot=       13409 NBatch=         584 AvBLen=        23.0
 IPart= 15 NShTot=       13294 NBatch=         579 AvBLen=        23.0
 IPart= 19 NShTot=       13110 NBatch=         571 AvBLen=        23.0
 IPart=  4 NShTot=       14122 NBatch=         616 AvBLen=        22.9
 IPart= 14 NShTot=       13363 NBatch=         582 AvBLen=        23.0
 IPart= 13 NShTot=       13409 NBatch=         584 AvBLen=        23.0
 IPart=  6 NShTot=       13915 NBatch=         606 AvBLen=        23.0
 IPart=  7 NShTot=       13754 NBatch=         599 AvBLen=        23.0
 IPart= 17 NShTot=       13179 NBatch=         574 AvBLen=        23.0
 IPart= 11 NShTot=       13524 NBatch=         589 AvBLen=        23.0
 IPart=  3 NShTot=       14191 NBatch=         619 AvBLen=        22.9
 PrSmSu:  NxtVal=           2721.
 Polarizability after L701:
                1             2             3 
      1  0.000000D+00
      2  0.000000D+00  0.000000D+00
      3  0.000000D+00  0.000000D+00  0.000000D+00
 Dipole Derivatives after L701:
                 1             2             3             4             5 
      1  -0.835596D+00  0.936181D+00  0.722739D+00 -0.306362D-01 -0.243050D+00
      2   0.762654D+00 -0.910497D+00 -0.127602D+00 -0.632135D+00 -0.121612D+01
      3   0.272346D+00  0.158491D+00 -0.715848D+00 -0.300302D+00  0.720920D-01
                 6             7             8             9            10 
      1  -0.236927D+00 -0.329386D+00 -0.174716D+00  0.760679D+00 -0.439136D+00
      2  -0.145588D+00 -0.326223D+00 -0.371484D+00  0.146921D+00  0.342388D+00
      3  -0.738055D+00  0.144452D+00 -0.441693D-01 -0.776533D+00 -0.800170D-01
                11            12            13            14            15 
      1   0.324272D+00 -0.163823D+01  0.245090D+00  0.475909D+00 -0.115823D+01
      2  -0.138147D+00 -0.108831D+00 -0.167854D+00 -0.846869D+00  0.141546D+00
      3  -0.373624D-01 -0.833822D+00  0.788740D-01 -0.337439D-01 -0.742374D+00
                16            17            18            19            20 
      1  -0.177948D+01 -0.119107D+01  0.827308D+00 -0.237578D+01 -0.462949D-01
      2  -0.200510D+00 -0.124143D+01  0.198731D+00  0.242057D+00 -0.969779D+00
      3  -0.609029D-01 -0.754080D-01 -0.841215D+00 -0.142067D+00 -0.266340D-01
                21            22            23            24            25 
      1   0.536103D+00 -0.159480D+00  0.225036D+00  0.252319D+00  0.848429D+00
      2  -0.111438D+00 -0.166619D+00  0.259926D+00  0.112356D+00 -0.755979D-01
      3  -0.898656D+00 -0.345519D+00  0.208597D+00  0.369084D+00  0.309540D+00
                26            27            28            29            30 
      1  -0.388005D+00  0.624157D+00  0.438045D+00 -0.541116D+00  0.240352D+00
      2   0.231000D+00 -0.858220D-01 -0.270386D+00  0.745105D+00 -0.249927D+00
      3  -0.183656D+00  0.380208D+00  0.340674D-01 -0.481199D-01  0.147034D+00
                31            32            33            34            35 
      1   0.282417D+00  0.715009D-01 -0.571056D+00  0.198419D+00  0.811471D-03
      2  -0.446347D-01  0.966302D-01  0.278139D+00  0.124563D+00  0.164111D+00
      3  -0.951936D-01 -0.541607D-01  0.608748D+00  0.130718D+00  0.319124D-01
                36            37            38            39            40 
      1   0.133655D+00  0.181102D+00  0.477840D-01 -0.629202D-01  0.394049D+00
      2   0.418892D+00  0.118735D+00  0.795169D+00 -0.368930D+00  0.989476D-01
      3   0.588727D+00 -0.443430D-01 -0.125401D+00  0.197829D+00 -0.234176D+00
                41            42            43            44            45 
      1   0.231586D+00 -0.397495D+00  0.128233D+00 -0.543947D-01 -0.299730D-01
      2   0.272093D+00 -0.184460D+00  0.157845D+00  0.333818D+00  0.906990D-01
      3  -0.238759D+00  0.480831D+00  0.219483D+00  0.240378D+00  0.257450D+00
                46            47            48            49            50 
      1   0.103305D+00  0.224905D+00  0.629619D+00  0.102580D-01 -0.531373D+00
      2  -0.146176D-01  0.128765D+00  0.205102D-01  0.139668D+00  0.701964D+00
      3  -0.162693D-01  0.223634D+00  0.597010D+00 -0.349464D-01 -0.170792D+00
                51            52            53            54            55 
      1   0.640260D-01  0.106415D+00 -0.149810D+00 -0.942077D+00  0.146530D+01
      2  -0.329250D-01  0.206278D-01  0.676244D-01 -0.268224D+00  0.446225D+00
      3   0.145961D+00 -0.588759D-02  0.122708D+00  0.628954D+00  0.737006D-01
                56            57            58            59            60 
      1   0.137700D+00  0.470258D+00 -0.215393D+00  0.616077D+00  0.694292D-01
      2   0.159932D+00  0.118419D+00 -0.383706D+00  0.792935D+00  0.110608D+00
      3  -0.242945D-01  0.137410D+00 -0.173014D-01 -0.338100D-01  0.104827D+00
                61            62            63            64            65 
      1   0.301928D+00  0.974383D+00 -0.610951D+00  0.322775D+00 -0.908771D+00
      2   0.200987D-01  0.362611D+00 -0.134338D+00 -0.584492D-01  0.492388D+00
      3  -0.308210D-01 -0.209830D+00  0.213118D+00 -0.625263D-01  0.263296D+00
                66            67            68            69 
      1  -0.824635D+00  0.113912D+01 -0.375422D-01  0.114185D+01
      2   0.323796D+00 -0.133078D+00  0.902584D-01 -0.142531D+00
      3   0.320374D+00  0.207091D+00 -0.149665D-01  0.368939D+00
 Hessian after L701:
                1             2             3             4             5 
      1  0.147107D+02
      2 -0.578593D+00  0.162942D+02
      3 -0.150525D+00 -0.324711D+00  0.172748D+02
      4 -0.230333D+01  0.489903D+00 -0.109582D+00  0.147422D+02
      5  0.429664D+00 -0.592676D+01 -0.176418D+00  0.293004D+00  0.166383D+02
      6 -0.174284D+00 -0.184772D+00 -0.582813D+01  0.194071D+00 -0.282196D+00
      7  0.258469D+00 -0.174802D+00 -0.112438D+00 -0.446809D+01 -0.174208D+01
      8 -0.158050D+00 -0.156399D-01  0.846389D-01 -0.174226D+01 -0.420631D+01
      9 -0.776784D-01  0.844112D-01 -0.938833D-01 -0.112195D+01  0.104273D+01
     10 -0.508457D+01  0.143381D+01  0.105076D+01  0.192415D+00  0.187950D+00
     11  0.142241D+01 -0.383749D+01  0.135981D+01  0.180679D+00 -0.187348D-02
     12  0.103334D+01  0.134379D+01 -0.512653D+01  0.912906D-01  0.101540D+00
     13  0.200160D+00 -0.152680D+00  0.347434D-01  0.155289D+00 -0.150516D+00
     14 -0.139530D+00 -0.717297D-01 -0.762457D-02 -0.209451D+00  0.546148D-01
     15 -0.866089D-02  0.509315D-03 -0.152612D+00 -0.110297D-01  0.824465D-02
     16  0.296937D-01  0.143338D+00 -0.582441D-01  0.949570D-01  0.214467D+00
     17  0.219829D+00  0.149253D+00 -0.873123D-01  0.196173D+00  0.307344D-01
     18  0.263994D-01  0.329137D-01 -0.698182D-01  0.796448D-02  0.552497D-02
     19  0.451388D-01 -0.227451D-01 -0.398468D-02  0.175058D+00 -0.132928D+00
     20 -0.276039D-01 -0.416404D-01  0.137542D-02 -0.189407D+00 -0.713101D-01
     21 -0.785954D-03  0.362535D-02 -0.469104D-01 -0.210161D-01  0.112443D-01
     22  0.168461D+00 -0.588816D-01 -0.622790D-01  0.362795D-02 -0.192456D-01
     23 -0.112289D-01 -0.433446D-02 -0.136827D+00  0.128840D-01 -0.228766D-01
     24 -0.170332D-01 -0.141851D+00 -0.325801D-01  0.132418D-01 -0.126358D-01
     25  0.818521D-01 -0.108909D+00 -0.511364D-01  0.883490D-01  0.349616D-01
     26 -0.101509D+00  0.469580D-01 -0.105722D+00  0.235412D-01 -0.311479D-01
     27 -0.252333D-01 -0.111125D+00  0.371386D-01  0.727844D-01  0.184075D-01
     28 -0.380823D+01 -0.985302D+00  0.255499D+00 -0.122925D+00  0.202076D-01
     29 -0.975091D+00 -0.246728D+01 -0.498692D+00  0.399734D-01  0.168068D+00
     30  0.241339D+00 -0.477813D+00 -0.414377D+01  0.394713D-01 -0.377697D-01
     31 -0.424323D+01  0.289409D-01 -0.757219D+00 -0.138445D+00 -0.370147D-01
     32 -0.509864D-02 -0.444766D+01 -0.435116D-01 -0.813344D-02  0.135950D+00
     33 -0.734034D+00 -0.157601D+00 -0.201812D+01  0.903929D-01  0.374219D-02
     34 -0.119946D+00 -0.707206D-01 -0.666590D-01 -0.434273D+01  0.167217D+00
     35 -0.994145D-01  0.120987D+00 -0.336596D-01  0.221152D+00 -0.451759D+01
     36 -0.847014D-01 -0.224334D-01  0.182495D+00  0.875373D+00  0.402109D+00
     37 -0.110368D+00 -0.579081D-01  0.236367D-01 -0.428595D+01  0.514601D+00
     38 -0.840857D-01  0.158610D+00 -0.286018D-01  0.546178D+00 -0.238608D+01
     39  0.188175D-01 -0.433422D-01  0.131031D+00 -0.222311D+00 -0.850357D+00
     40  0.864323D-01 -0.143767D-01 -0.682942D-01  0.445483D-01  0.109798D+00
     41 -0.624278D-02 -0.378893D-01  0.167512D-02  0.103094D+00  0.897727D-01
     42 -0.834645D-01  0.692927D-02 -0.128049D-02  0.771145D-01 -0.126123D+00
     43 -0.425115D-02  0.430407D-01  0.276695D-01  0.111326D+00  0.119796D+00
     44  0.143772D-01 -0.248908D-01 -0.248190D-01  0.732070D-01 -0.186498D-01
     45  0.940554D-02 -0.268768D-01 -0.921920D-02  0.458235D-01 -0.988724D-01
     46  0.153508D-01 -0.120705D-01  0.181102D-01 -0.809575D-02  0.172230D-01
     47 -0.434727D-02 -0.142947D-01  0.191836D-04  0.193355D-01 -0.124092D-01
     48  0.272241D-01 -0.630082D-02  0.198127D-02  0.165515D-01  0.120577D-01
     49  0.722425D-02 -0.141991D-01  0.461207D-02 -0.112840D-01 -0.531125D-01
     50 -0.254734D-01  0.101586D-01 -0.965198D-02 -0.759653D-01  0.804498D-01
[...]
 0347,0.00232028,-0.00561953,-0.00161803,-0.00009311,-0.00027032,0.0001
 1021,0.00028589,0.00007086,0.00004985,0.00006373,0.00017584,0.00009033
 ,-0.00012678,0.00000210,0.00010456,-0.00014101,0.00012319,-0.00003071,
 0.00005575,0.00001077,0.00066845,0.00182717,-0.00088098,0.00003371,-0.
 00069726,0.00016935,-0.01681744,-0.01088308,0.02515336,0.12598506,-0.0
 0065702,0.00133937,-0.00032859,-0.01757415,-0.01274276,0.02655127,-0.0
 4388539,-0.07627084,0.06913624,0.00085378,0.00006255,0.00065753,0.0106
 8856,0.00475903,-0.01570467,-0.00010185,-0.00001603,-0.00044393,0.0005
 9490,0.00169122,-0.00072453,0.00021328,-0.00035935,-0.00053644,-0.0001
 7386,0.00003189,-0.00024787,-0.00016524,0.00018129,-0.00027958,0.00012
 067,-0.00006159,-0.00001463,0.00190185,-0.00620465,0.00084199,-0.00028
 304,0.00100057,-0.00059677,0.00102430,0.00032983,-0.00228746,0.0498126
 4,0.08723639,0.00072090,0.00002862,-0.00031405,0.00175739,0.00234112,-
 0.00384346,0.10222499,0.06838277,-0.20637862,-0.00003504,0.00035305,0.
 00027207,0.01454882,0.00788372,-0.02376449,0.00018588,0.00053711,0.000
 30318,0.00004503,0.00148401,0.00095605,-0.00016793,0.00009842,-0.00006
 865,-0.00005564,-0.00016570,0.00007290,-0.00015950,-0.00004589,0.00009
 881,-0.00003295,0.00006798,0.00000916,-0.00011399,0.00066852,0.0010749
 2,-0.00030783,0.00035909,0.00047508,-0.00303854,-0.00284119,0.00572850
 ,-0.11366067,-0.07392277,0.22706266,-0.00000873,0.00019087,0.00003651,
 0.00010086,0.00016438,0.00024015,0.00349857,0.00196635,-0.00610700,-0.
 00012017,-0.00019333,-0.00020362,-0.12609033,-0.04560392,0.10880821,0.
 00011464,-0.00035949,0.00039561,0.00448522,0.00316165,-0.00704342,0.00
 008053,0.00003257,0.00001592,0.00004431,0.00008735,-0.00001105,0.00001
 104,0.00006981,0.00002348,-0.00018121,-0.00009637,0.00001722,0.0000148
 1,0.00033034,0.00020938,-0.00002155,0.00019164,-0.00013206,0.00070248,
 0.00062372,0.00014602,0.00084328,-0.00078687,-0.00156185,0.13241718,-0
 .00004925,0.00000213,0.00006950,0.00063857,0.00163800,-0.00070446,0.01
 116217,0.00479202,-0.01613463,-0.00008209,0.00003297,-0.00012085,-0.04
 483516,-0.07291372,0.06454211,0.00001993,0.00006248,-0.00004766,-0.018
 30077,-0.01265097,0.02563264,0.00003414,0.00002132,0.00008156,0.000018
 73,-0.00000721,0.00006770,0.00002945,-0.00001138,0.00004636,0.00001226
 ,0.00006290,0.00012915,-0.00038129,-0.00014633,0.00041706,-0.00016362,
 0.00020954,0.00019028,-0.00004054,0.00057312,0.00092461,-0.00064627,-0
 .00203993,-0.00349811,0.04961112,0.08388836,0.00005430,-0.00021695,0.0
 0007320,0.00015716,0.00148840,0.00080283,0.01516977,0.00734291,-0.0239
 7273,-0.00007618,0.00003701,-0.00012090,0.10764162,0.06508594,-0.20061
 425,-0.00011970,0.00004437,0.00013038,0.00252558,0.00187742,-0.0038893
 5,-0.00001257,0.00006514,0.00008570,0.00000945,-0.00003377,0.00006405,
 0.00008027,-0.00005047,-0.00000776,0.00013694,-0.00008599,-0.00016306,
 -0.00009997,-0.00098423,0.00057927,-0.00039252,0.00002249,0.00039598,-
 0.00032682,0.00059601,0.00089329,-0.00163177,-0.00345369,-0.00356080,-
 0.11832398,-0.06942382,0.22128903,-0.00067441,0.00055600,-0.00070001,-
 0.00023885,0.00037220,-0.00042792,-0.00594706,-0.00088921,-0.00253881,
 0.00018528,-0.00003352,-0.00020432,-0.29067156,0.01736421,-0.06343907,
 -0.00025192,-0.00029853,0.00128763,-0.00585309,0.00124412,-0.00138424,
 -0.00002011,-0.00003332,0.00014103,-0.00000188,0.00000023,-0.00002212,
 0.00025122,0.00013999,0.00042306,0.00030696,0.00113003,0.00086575,-0.0
 0000894,-0.00000042,-0.00004852,0.00012408,-0.00017337,0.00003982,0.00
 133768,-0.00060179,-0.00092549,0.00038731,-0.00020660,-0.00008928,-0.0
 1729752,0.00104166,-0.00383812,0.31695186,0.00043278,-0.00077740,-0.00
 024076,-0.00063988,0.00084523,0.00038397,-0.01989019,0.00075186,-0.004
 57809,0.00022171,-0.00005810,-0.00010143,0.01702069,-0.04746327,0.0053
 9427,-0.00014959,0.00008078,-0.00009516,0.03332148,-0.00481109,0.00861
 483,-0.00008833,0.00001362,0.00010667,-0.00003053,-0.00001971,0.000044
 05,-0.00000294,0.00017460,0.00019588,0.00094779,-0.00191877,-0.0000780
 2,-0.00004082,-0.00008969,0.00004208,0.00024379,0.00019935,0.00012822,
 -0.00047157,-0.00210654,-0.00358091,0.00065596,0.00055104,0.00047341,-
 0.01038338,0.00027215,-0.00312949,-0.02166430,0.05775817,0.00018163,-0
 .00004881,0.00033707,0.00000186,0.00093907,0.00057944,-0.02739359,0.00
 132559,-0.00756279,-0.00015712,-0.00023324,-0.00023632,-0.06185830,0.0
 0530437,-0.06541848,0.00047769,-0.00048315,0.00008372,-0.00587320,0.00
 081719,-0.00184575,0.00006096,0.00004390,0.00006903,0.00004600,0.00015
 549,0.00002502,0.00013754,0.00014889,0.00010963,0.00017623,-0.00004561
 ,0.00041027,0.00007704,-0.00012177,0.00001254,0.00011891,0.00015137,0.
 00001775,-0.00106390,-0.00331052,-0.00404366,0.00014829,0.00086390,0.0
 0083554,0.02467154,-0.00227419,0.00674749,0.07020460,-0.00457739,0.070
 28275,0.00035578,0.00055978,-0.00156084,-0.00012587,0.00017128,0.00018
 732,-0.00008708,0.00007174,-0.00062201,-0.00705604,-0.00123915,-0.0109
 2058,-0.00037417,-0.00003935,-0.00035670,-0.10926037,-0.00508549,-0.11
 172863,0.00015524,0.00010764,-0.00000097,-0.00004568,-0.00271374,0.000
 00309,0.00060012,0.00012783,0.00058253,0.00012382,0.00018025,0.0001849
 4,-0.00030867,-0.00010579,0.00083000,-0.00003167,-0.00003513,0.0000762
 7,0.00014229,0.00003282,0.00010465,-0.00010980,-0.00005178,0.00023259,
 -0.00005031,-0.00019288,0.00035822,0.00012112,0.00000810,0.00009482,0.
 00002514,0.00007862,0.00012611,0.11555729,0.00111023,0.00136560,-0.001
 76623,-0.00016230,-0.00002005,0.00004577,0.00011696,-0.00004245,0.0003
 9709,-0.01681343,-0.00348227,-0.02795717,0.00007906,-0.00000413,0.0001
 9752,-0.00461968,-0.04635742,-0.00956146,-0.00005538,-0.00006377,0.000
 04986,-0.00264584,-0.00583653,-0.00047442,0.00075152,0.00137365,0.0000
 6748,0.00025825,0.00011829,-0.00007716,0.00000968,0.00034653,0.0009347
 9,-0.00005910,0.00009380,0.00004380,0.00016828,0.00004571,0.00013887,0
 .00008700,0.00003057,-0.00012950,-0.00001498,-0.00000675,-0.00023223,-
 0.00006163,-0.00000439,-0.00004593,-0.00012914,0.00006822,-0.00001894,
 0.00856305,0.05215483,0.00070261,0.00043642,0.00099449,0.00028894,0.00
 009935,0.00018939,0.00009856,0.00009195,-0.00008791,-0.00166042,-0.000
 47268,-0.00410573,-0.00012958,-0.00005931,0.00001692,-0.11222004,-0.01
 080835,-0.24976730,0.00004261,0.00000687,0.00000450,0.00041587,-0.0009
 1446,0.00125709,0.00020296,-0.00046879,0.00010396,0.00001214,0.0000332
 7,0.00025747,-0.00037716,-0.00014185,0.00052011,-0.00006405,0.00000015
 ,0.00001450,0.00017183,-0.00000916,-0.00008507,0.00000300,0.00002885,0
 .00004665,0.00002546,-0.00003444,0.00004062,0.00000557,0.00001100,0.00
 001810,-0.00018708,0.00002179,0.00003157,0.12381608,0.01255661,0.27010
 557,0.00106472,-0.00268517,-0.00140583,0.00023235,0.00017677,0.0001336
 7,-0.00011192,0.00020525,-0.00021116,-0.00852101,-0.00151695,0.0088838
 0,0.00014203,-0.00010809,0.00006530,-0.16159918,-0.03361334,0.12810170
 ,-0.00002474,-0.00008518,0.00003202,-0.00017801,0.00031799,-0.00018587
 ,0.00078695,0.00008669,-0.00030804,-0.00062081,-0.00021056,0.00058379,
 0.00005366,0.00015702,-0.00001164,-0.00006325,0.00001244,0.00001686,0.
 00000370,-0.00005114,-0.00002669,-0.00013104,-0.00004324,0.00009761,-0
 .00015405,-0.00001758,0.00029477,-0.00012686,0.00002889,-0.00000760,-0
 .00023307,-0.00001392,-0.00020316,0.01154775,0.00356987,-0.01194496,0.
 17256866,-0.00136441,-0.00543434,-0.00213720,0.00007466,-0.00049937,0.
 00050049,0.00001791,-0.00023190,-0.00001735,-0.02009484,-0.00561509,0.
 02396562,-0.00016703,0.00012280,-0.00038118,-0.03287998,-0.05678644,0.
 03729093,0.00004744,0.00010163,0.00003779,0.00019011,0.00121931,-0.000
 40979,0.00080104,0.00106254,0.00050014,-0.00118784,-0.00063106,0.00104
 274,0.00021952,-0.00000324,-0.00028333,-0.00027956,0.00013818,-0.00005
 147,-0.00005709,0.00003589,-0.00002080,0.00004865,0.00013651,-0.000036
 48,0.00003195,0.00007488,-0.00019816,0.00022563,-0.00003747,0.00000226
 ,0.00029948,-0.00006319,0.00025471,0.00138495,-0.00088400,-0.00084366,
 0.03890360,0.06223660,-0.00019712,-0.00082752,0.00003895,0.00000886,0.
 00017827,0.00010826,-0.00006304,-0.00000403,-0.00007046,-0.00482993,-0
 .00176521,0.00416796,-0.00026413,0.00000562,-0.00012052,0.12813607,0.0
 3859869,-0.19167349,0.00007843,0.00004800,-0.00000293,0.00010721,0.000
 55622,0.00045395,0.00001069,0.00061800,0.00010464,0.00009539,-0.000023
 74,0.00036659,-0.00004656,-0.00000873,0.00060439,-0.00001048,0.0000244
 3,-0.00001167,0.00007948,-0.00001045,0.00002865,0.00002022,-0.00000019
 ,0.00003712,-0.00001173,0.00001773,-0.00000971,0.00006937,-0.00001089,
 0.00001665,0.00005759,0.00006017,0.00010944,0.01908166,0.00490316,-0.0
 1992911,-0.14091815,-0.04132104,0.20509481,0.00078452,0.00088953,-0.00
 005822,0.00020765,-0.00013552,-0.00018979,-0.00186247,-0.00002516,0.00
 023026,0.01150534,-0.01045345,0.00032288,-0.00057932,-0.00003384,0.000
 80283,-0.18227334,0.13651450,-0.00202088,-0.00014869,-0.00013411,0.000
 01219,0.00056926,0.00099696,0.00013255,-0.00003452,-0.00366546,-0.0005
 4234,0.00010088,0.00015813,-0.00004266,0.00005582,0.00022726,0.0000378
 1,0.00005144,0.00003356,-0.00000996,0.00000169,0.00000767,0.00000911,-
 0.00001685,0.00004430,0.00006528,-0.00275819,-0.00075069,-0.00042717,-
 0.00009304,-0.00005784,-0.00016102,-0.00055738,0.00010007,0.00041393,-
 0.01114514,0.00980297,0.00080858,-0.01465354,0.01381234,-0.00141254,0.
 20057566,0.00046292,0.00115337,-0.00022714,-0.00018023,-0.00039767,0.0
 0019518,0.00007668,-0.00056894,0.00068206,0.02248855,-0.02140362,-0.00
 004992,0.00008700,0.00049448,-0.00027856,0.13453934,-0.18085116,0.0026
 6355,0.00006882,0.00030827,-0.00026152,0.00006357,0.00145138,-0.000184
 04,-0.00346283,-0.00516356,-0.00095835,-0.00005053,0.00028368,0.000038
 88,-0.00017788,0.00004542,0.00032984,-0.00015239,0.00016991,-0.0000832
 5,0.00002856,0.00005832,0.00000809,0.00032285,0.00022767,-0.00035503,-
 0.00025971,0.00041092,-0.00069618,0.00024462,-0.00013583,-0.00007479,0
 .00024972,0.00019369,0.00035594,-0.00169939,0.00103290,0.00047173,-0.0
 0513934,0.00503206,-0.00098449,-0.14740441,0.19787590,-0.00045804,0.00
 020635,0.00020456,0.00009212,-0.00000972,0.00011497,-0.00009961,0.0001
 1044,0.00052983,0.00332051,-0.00339984,-0.00069103,0.00099996,-0.00001
 435,-0.00013748,-0.00182877,0.00225762,-0.04720116,-0.00013795,-0.0001
 9590,-0.00006360,0.00057416,0.00003601,0.00003328,-0.00049021,-0.00102
 707,0.00085031,0.00000989,-0.00007405,-0.00012638,-0.00016596,0.000011
 36,-0.00007805,-0.00009186,0.00004075,-0.00003411,0.00002126,-0.000092
 64,-0.00003875,-0.00005318,-0.00005081,-0.00015475,-0.00072050,-0.0000
 9411,0.00011353,-0.00027121,-0.00005437,-0.00007580,0.00058319,0.00015
 233,-0.00123302,-0.02056278,0.02098273,0.00036657,0.01702605,-0.017897
 47,0.00066847,0.00226897,-0.00094468,0.04686396,-0.00006298,-0.0002121
 3,-0.00009444,0.00039716,0.00014599,0.00014408,0.00049592,-0.00084803,
 0.00003441,-0.00004081,-0.00000960,-0.00000666,-0.00664021,0.00113226,
 -0.00185211,0.00008003,-0.00004755,0.00000435,-0.29389103,0.02326200,-
 0.06424992,0.00000984,0.00001157,0.00002589,0.00000785,0.00004192,0.00
 000159,0.00007163,0.00000810,0.00002275,0.00003622,-0.00000439,0.00007
 606,-0.00001955,-0.00001540,-0.00001148,-0.00002334,0.00008571,0.00002
 334,0.00022619,0.00059773,0.00054509,-0.00013058,0.00009678,-0.0000008
 9,0.00062815,0.00032958,-0.00014147,0.00146830,0.00133107,-0.00042554,
 0.00002882,-0.00000422,0.00001682,-0.00002473,0.00003075,0.00002363,0.
 00002290,-0.00003647,-0.00010705,0.31862270,0.00012137,-0.00001161,0.0
 0018530,-0.00018276,0.00001032,0.00020477,0.00117590,0.00199254,0.0010
 7916,-0.00007103,0.00002289,0.00002113,0.03307585,-0.00426066,0.007896
 53,0.00006812,0.00005364,-0.00005528,0.02235550,-0.04834198,0.00549914
 ,0.00001896,-0.00000908,-0.00003974,0.00000158,-0.00000080,-0.00000322
 ,-0.00006297,-0.00006157,-0.00014024,-0.00016371,-0.00000358,-0.000209
 94,0.00002234,0.00001187,0.00002461,-0.00004399,0.00000730,-0.00001849
 ,-0.00080090,-0.00022989,-0.00045890,-0.00007036,-0.00002550,-0.000141
 85,-0.00058571,0.00146085,-0.00003766,0.00112015,-0.00633000,0.0010985
 4,-0.00007111,0.00001644,-0.00000771,0.00002547,-0.00003976,-0.0000421
 3,-0.00001774,-0.00004017,0.00007466,-0.02727951,0.05436982,-0.0000189
 5,-0.00003770,-0.00012149,0.00006262,-0.00004010,-0.00005051,0.0008910
 2,-0.00041178,0.00027304,0.00007141,-0.00001371,0.00001017,-0.00703512
 ,0.00100633,-0.00256875,-0.00009131,-0.00001098,0.00003928,-0.06422466
 ,0.00569171,-0.06458602,-0.00000235,-0.00000503,0.00000316,-0.00002036
 ,-0.00001701,0.00000039,0.00000042,0.00001133,0.00002348,0.00000658,0.
 00001189,0.00004911,-0.00000834,0.00004949,-0.00004038,0.00000503,0.00
 001008,0.00000463,-0.00000169,-0.00003117,0.00039904,0.00013175,0.0000
 9550,-0.00001976,-0.00024767,-0.00028544,-0.00015797,0.00005054,0.0014
 1049,0.00051959,0.00003819,-0.00002593,-0.00000043,-0.00001300,0.00001
 178,0.00001706,-0.00006944,0.00012935,0.00001239,0.07164175,-0.0079859
 4,0.06540342,0.00001231,-0.00000912,0.00002130,0.00011311,0.00000344,-
 0.00028973,-0.00004252,-0.00020286,-0.00013411,0.00004894,-0.00001803,
 0.00002081,0.00476940,0.00306058,-0.00674297,-0.00013928,0.00015184,-0
 .00009730,-0.13080292,-0.05053234,0.11208792,-0.00000940,-0.00001825,-
 0.00001852,-0.00001491,-0.00002911,-0.00000582,-0.00000937,-0.00001408
 ,-0.00000600,-0.00001375,0.00000702,-0.00002913,-0.00005328,0.00008643
 ,0.00002235,-0.00000594,-0.00007349,0.00001435,-0.00005671,-0.00003343
 ,0.00012403,0.00008974,-0.00043078,-0.00009270,0.00080121,0.00208051,-
 0.00050576,0.00057967,-0.00064507,-0.00032741,-0.00002383,0.00001437,-
 0.00001131,0.00004751,-0.00005449,-0.00000920,0.00016326,-0.00004727,0
 .00005676,-0.01688847,-0.01038767,0.02457244,0.13825730,0.00000491,0.0
 0003535,0.00007361,0.00026008,-0.00009140,-0.00013549,-0.00074012,0.00
 181084,0.00167166,-0.00012977,-0.00001207,0.00000681,-0.01901796,-0.01
 283687,0.02509235,0.00021976,-0.00017623,-0.00001858,-0.05015882,-0.07
 613521,0.06647107,0.00002121,-0.00001179,-0.00001890,0.00003494,0.0000
 7170,-0.00001404,0.00000039,0.00000442,-0.00003319,-0.00007546,-0.0000
 0047,-0.00002071,0.00009296,0.00027226,-0.00018125,0.00006565,-0.00000
 668,-0.00009717,0.00000179,-0.00005489,-0.00007748,0.00029631,-0.00012
 163,-0.00095234,0.00189682,-0.00615339,0.00074190,0.00010913,0.0015236
 2,-0.00034081,-0.00008021,0.00006598,-0.00001754,-0.00003547,0.0000508
 5,-0.00000323,0.00014370,-0.00012643,-0.00002719,0.00141368,0.00005247
 ,-0.00286870,0.05401798,0.08531770,0.00003520,0.00002620,-0.00005790,-
 0.00018297,-0.00014497,0.00024787,-0.00049053,-0.00074885,0.00083267,0
 .00011619,0.00003230,0.00000007,0.00306366,0.00268498,-0.00577168,-0.0
 0010801,-0.00007558,0.00001736,0.11199404,0.06693208,-0.19813138,-0.00
 001523,-0.00001981,-0.00000953,-0.00003942,-0.00004696,0.00000153,-0.0
 0003697,0.00000565,0.00001934,0.00003179,0.00000165,0.00001068,0.00001
 200,-0.00017624,-0.00008012,-0.00002027,0.00007675,0.00002317,-0.00006
 684,0.00006590,-0.00000903,0.00022741,0.00031551,0.00053891,-0.0009045
 3,0.00109599,0.00092012,-0.00015797,0.00000451,-0.00006859,0.00000029,
 0.00001160,-0.00001695,-0.00001587,-0.00000205,0.00001030,-0.00010810,
 0.00023366,0.00011040,-0.00493971,-0.00373330,0.00705001,-0.12331577,-
 0.07577579,0.21342511,0.00004378,-0.00014647,0.00004974,0.00065740,0.0
 0034591,0.00026012,-0.00017859,0.00122745,-0.00059891,-0.00001997,0.00
 000490,-0.00001370,0.00016919,0.00429087,0.00725150,0.00002167,-0.0000
 2464,0.00000591,-0.05588636,-0.02715845,-0.03850111,-0.00000117,-0.000
 01165,-0.00001079,-0.00000219,0.00000333,-0.00000014,0.00002668,-0.000
 01693,-0.00000603,-0.00002096,-0.00000477,-0.00002755,-0.00001214,0.00
 005970,-0.00000176,-0.00003375,0.00016943,-0.00002532,0.00043545,0.000
 25760,0.00029012,-0.00002093,-0.00008081,-0.00039204,0.00007600,-0.000
 45828,-0.00023242,0.00013826,-0.00033340,0.00045988,-0.00003875,0.0000
 3446,-0.00001642,-0.00000511,-0.00000279,-0.00000571,0.00008404,-0.000
 02219,0.00003424,-0.00437401,-0.01824777,-0.02573888,0.00317792,0.0116
 5852,0.01492161,0.05576353,-0.00020555,-0.00004025,-0.00007312,-0.0005
 8508,-0.00041196,-0.00208147,0.00239262,-0.00580656,0.00367619,-0.0000
 3773,-0.00001933,0.00005872,-0.00641898,-0.01668223,-0.02669302,0.0000
 1809,0.00000368,-0.00003353,-0.02674962,-0.13271364,-0.12256676,-0.000
 02118,0.00002196,0.00002924,0.00005357,0.00000893,-0.00001417,0.000104
 76,-0.00002062,0.00003172,0.00005878,0.00005938,0.00005182,-0.00005055
 ,0.00001164,0.00007613,0.00015118,-0.00076537,0.00005334,-0.00008172,0
 .00015662,0.00025013,0.00018307,0.00018006,0.00001660,-0.00072615,0.00
 108478,0.00023295,0.00040331,0.00120544,-0.00000453,0.00002797,-0.0000
 1077,0.00001996,0.00003599,0.00001459,-0.00000865,-0.00005275,-0.00005
 058,0.00000993,-0.00002980,0.00135646,0.00330556,0.00307382,0.00652187
 ,0.00923678,0.02845597,0.14589588,-0.00000625,-0.00006678,0.00000424,-
 0.00012510,0.00047998,0.00043565,-0.00014396,0.00088941,0.00023433,0.0
 0002056,-0.00000043,0.00000806,0.00200374,0.00567493,0.00724370,-0.000
 04633,0.00006025,-0.00000509,-0.03833217,-0.12374314,-0.22280008,0.000
 00085,0.00002410,0.00000962,0.00001101,-0.00001628,0.00000046,0.000029
 53,-0.00001635,-0.00000468,-0.00001198,0.00000500,-0.00000611,0.000023
 11,-0.00011610,0.00001803,-0.00001721,0.00010853,-0.00001387,0.0000951
 1,0.00014739,-0.00004012,-0.00020088,0.00018982,0.00037761,0.00016741,
 -0.00065356,0.00054652,0.00030977,-0.00065140,0.00023774,0.00003574,-0
 .00004031,0.00002501,0.00001642,-0.00000648,-0.00000935,-0.00006229,-0
 .00001032,-0.00003412,-0.00073049,-0.00320943,-0.00625947,-0.00533423,
 -0.01347500,-0.01906236,0.04229763,0.13442618,0.23909429\\0.00000089,0
 .00000050,0.00000013,0.00000075,-0.00000018,0.00000129,-0.00000043,-0.
 00000062,0.00000077,-0.00000045,-0.00000017,-0.00000091,0.00000034,0.0
 0000023,0.00000042,-0.00000042,0.00000101,-0.00000151,-0.00000031,-0.0
 0000060,0.00000031,-0.00000117,-0.00000055,-0.00000045,-0.00000011,0.0
 0000051,-0.00000130,0.00000140,0.00000030,0.00000050,0.00000167,0.0000
 0076,-0.00000026,0.00000118,-0.00000024,0.00000199,0.00000009,-0.00000
 095,0.00000175,-0.00000049,-0.00000110,0.00000181,-0.00000106,-0.00000
 068,0.00000030,0.00000125,0.00000004,0.00000130,0.00000071,0.00000066,
 -0.00000042,0.00000013,0.00000108,-0.00000238,-0.00000121,0.00000084,-
 0.00000255,-0.00000111,0.00000020,-0.00000147,-0.00000067,-0.00000086,
 0.00000110,-0.00000113,-0.00000034,-0.00000047,0.00000017,0.00000016,0
 .00000008\\\@


 A ROPE OVER THE TOP OF A FENCE HAS THE SAME LENGTH ON EACH SIDE.
 WEIGHS 1/3 POUND PER FOOT.  ON ONE END HANGS A MONKEY HOLDING A
 BANANA, AND ON THE OTHER END A WEIGHT EQUAL TO THE WEIGHT
 OF THE MONKEY.  THE BANANA WEIGHS TWO OUNCES PER INCH.
 THE ROPE IS AS LONG AS THE AGE OF THE MONKEY, 
 AND THE WEIGHT OF THE MONKEY (IN OUNCES) IS AS MUCH
 AS THE AGE OF THE MONKEY'S MOTHER.  THE COMBINED AGES OF MONKEY
 AND MOTHER ARE THIRTY YEARS.  HALF THE WEIGHT OF THE MONKEY,
  PLUS THE WEIGHT OF THE BANANA, IS ONE FOURTH AS MUCH AS THE WEIGHT
 OF THE WEIGHT AND THE ROPE.
 THE MONKEY'S MOTHER IS HALF AS OLD AS THE MONKEY WILL BE
 WHEN IT IS 3 TIMES AS OLD AS ITS MOTHER WAS WHEN
 SHE WAS HALF AS OLD AS THE MONKEY WILL BE WHEN IT IS
 AS OLD AS ITS MOTHER WILL BE WHEN SHE IS 4 TIMES AS
 OLD AS THE MONKEY WAS WHEN IT WAS TWICE AS OLD AS 
 ITS MOTHER WAS WHEN SHE WAS ONE THIRD AS OLD AS THE
 MONKEY WAS WHEN IT WAS AS OLD AS ITS MOTHER WAS WHEN 
 SHE WAS 3 TIMES AS OLD AS THE MONKEY WAS WHEN IT WAS AS OLD AS ITS
 MOTHER WAS WHEN SHE WAS 3 TIMES AS OLD AS THE MONKEY 
 WAS WHEN IT WAS ONE FOURTH WAS OLD AS IT IS NOW.

 HOW LONG IS THE BANANA?
 Job cpu time:       0 days  7 hours 49 minutes  9.2 seconds.
 Elapsed time:       0 days  3 hours 54 minutes 39.4 seconds.
 File lengths (MBytes):  RWF=   1488 Int=      0 D2E=      0 Chk=     32 Scr=     32
 Normal termination of Gaussian 16 at Sat Sep 28 21:58:19 2019.
