 Entering Gaussian System, Link 0=g16
 Input=med/species/CCCCCCC/conformers/CCCCCCC_428.com
 Output=med/species/CCCCCCC/conformers/CCCCCCC_428.log
 Initial command:
 /shared/centos7/gaussian/g16/l1.exe "/scratch/harms.n/gauss_scrdir/Gau-1675.inp" -scrdir="/scratch/harms.n/gauss_scrdir/"
 Entering Link 1 = /shared/centos7/gaussian/g16/l1.exe PID=      1676.
  
 Copyright (c) 1988,1990,1992,1993,1995,1998,2003,2009,2016,
            Gaussian, Inc.  All Rights Reserved.
  
 This is part of the Gaussian(R) 16 program.  It is based on
 the Gaussian(R) 09 system (copyright 2009, Gaussian, Inc.),
 the Gaussian(R) 03 system (copyright 2003, Gaussian, Inc.),
 the Gaussian(R) 98 system (copyright 1998, Gaussian, Inc.),
 the Gaussian(R) 94 system (copyright 1995, Gaussian, Inc.),
 the Gaussian 92(TM) system (copyright 1992, Gaussian, Inc.),
 the Gaussian 90(TM) system (copyright 1990, Gaussian, Inc.),
 the Gaussian 88(TM) system (copyright 1988, Gaussian, Inc.),
 the Gaussian 86(TM) system (copyright 1986, Carnegie Mellon
 University), and the Gaussian 82(TM) system (copyright 1983,
 Carnegie Mellon University). Gaussian is a federally registered
 trademark of Gaussian, Inc.
  
 This software contains proprietary and confidential information,
 including trade secrets, belonging to Gaussian, Inc.
  
 This software is provided under written license and may be
 used, copied, transmitted, or stored only in accord with that
 written license.
  
 The following legend is applicable only to US Government
 contracts under FAR:
  
                    RESTRICTED RIGHTS LEGEND
  
 Use, reproduction and disclosure by the US Government is
 subject to restrictions as set forth in subparagraphs (a)
 and (c) of the Commercial Computer Software - Restricted
 Rights clause in FAR 52.227-19.
  
 Gaussian, Inc.
 340 Quinnipiac St., Bldg. 40, Wallingford CT 06492
  
  
 ---------------------------------------------------------------
 Warning -- This program may not be used in any manner that
 competes with the business of Gaussian, Inc. or will provide
 assistance to any competitor of Gaussian, Inc.  The licensee
 of this program is prohibited from giving any competitor of
 Gaussian, Inc. access to this program.  By using this program,
 the user acknowledges that Gaussian, Inc. is engaged in the
 business of creating and licensing software in the field of
 computational chemistry and represents and warrants to the
 licensee that it is not a competitor of Gaussian, Inc. and that
 it will not use this program in any manner prohibited above.
 ---------------------------------------------------------------
  

 Cite this work as:
 Gaussian 16, Revision A.03,
 M. J. Frisch, G. W. Trucks, H. B. Schlegel, G. E. Scuseria, 
 M. A. Robb, J. R. Cheeseman, G. Scalmani, V. Barone, 
 G. A. Petersson, H. Nakatsuji, X. Li, M. Caricato, A. V. Marenich, 
 J. Bloino, B. G. Janesko, R. Gomperts, B. Mennucci, H. P. Hratchian, 
 J. V. Ortiz, A. F. Izmaylov, J. L. Sonnenberg, D. Williams-Young, 
 F. Ding, F. Lipparini, F. Egidi, J. Goings, B. Peng, A. Petrone, 
 T. Henderson, D. Ranasinghe, V. G. Zakrzewski, J. Gao, N. Rega, 
 G. Zheng, W. Liang, M. Hada, M. Ehara, K. Toyota, R. Fukuda, 
 J. Hasegawa, M. Ishida, T. Nakajima, Y. Honda, O. Kitao, H. Nakai, 
 T. Vreven, K. Throssell, J. A. Montgomery, Jr., J. E. Peralta, 
 F. Ogliaro, M. J. Bearpark, J. J. Heyd, E. N. Brothers, K. N. Kudin, 
 V. N. Staroverov, T. A. Keith, R. Kobayashi, J. Normand, 
 K. Raghavachari, A. P. Rendell, J. C. Burant, S. S. Iyengar, 
 J. Tomasi, M. Cossi, J. M. Millam, M. Klene, C. Adamo, R. Cammi, 
 J. W. Ochterski, R. L. Martin, K. Morokuma, O. Farkas, 
 J. B. Foresman, and D. J. Fox, Gaussian, Inc., Wallingford CT, 2016.
 
 ******************************************
 Gaussian 16:  EM64L-G16RevA.03 25-Dec-2016
                27-Sep-2019 
 ******************************************
 %nprocshared=20
 Will use up to   20 processors via shared memory.
 %mem=5GB
 ----------------------------------------------------------------------
 #p m062x/cc-pVTZ opt=(calcfc,maxcycles=900,Tight) freq IOP(7/33=1,2/16
 =3) scf=(maxcycle=900)
 ----------------------------------------------------------------------
 1/6=900,7=10,10=4,18=20,19=15,26=3,38=1/1,3;
 2/9=110,12=2,16=3,17=6,18=5,40=1/2;
 3/5=16,6=1,11=2,25=1,30=1,71=2,74=-55,140=1/1,2,3;
 4//1;
 5/5=2,7=900,38=5/2;
 8/6=4,10=90,11=11/1;
 11/6=1,8=1,9=11,15=111,16=1/1,2,10;
 10/6=1,13=1/2;
 6/7=2,8=2,9=2,10=2,28=1/1;
 7/10=1,18=20,25=1,33=1/1,2,3,16;
 1/6=900,7=10,10=4,18=20,19=15,26=3/3(2);
 2/9=110,16=3/2;
 99//99;
 2/9=110,16=3/2;
 3/5=16,6=1,11=2,25=1,30=1,71=1,74=-55/1,2,3;
 4/5=5,16=3,69=1/1;
 5/5=2,7=900,38=5/2;
 7/33=1/1,2,3,16;
 1/6=900,7=10,18=20,19=15,26=3/3(-5);
 2/9=110,16=3/2;
 6/7=2,8=2,9=2,10=2,19=2,28=1/1;
 99/9=1/99;
 Leave Link    1 at Fri Sep 27 14:02:02 2019, MaxMem=   671088640 cpu:               4.1 elap:               2.0
 (Enter /shared/centos7/gaussian/g16/l101.exe)
 ------------------------------
 Gaussian input prepared by ASE
 ------------------------------
 Symbolic Z-matrix:
 Charge =  0 Multiplicity = 1
 C                     1.2558   -1.29766   0.75794 
 C                     0.31979  -0.15195   0.94008 
 C                     0.35751   0.91466  -0.12571 
 C                     2.40223  -1.11833  -0.17938 
 C                     1.06002   2.17666   0.3165 
 C                     3.22665   0.09106  -0.01412 
 C                     1.66326   2.97191  -0.81204 
 H                     2.01021  -1.14996  -1.23506 
 H                     3.05449  -2.01853  -0.07964 
 H                     0.68365  -2.18188   0.40527 
 H                     1.65179  -1.59172   1.7516 
 H                     0.51665   0.31809   1.91629 
 H                    -0.7153   -0.54649   1.01867 
 H                    -0.6722    1.18136  -0.41844 
 H                     0.83631   0.51082  -1.04158 
 H                     0.33286   2.82524   0.87156 
 H                     1.85871   1.93238   1.03739 
 H                     3.32719   0.38461   1.04777 
 H                     4.26989  -0.068    -0.41893 
 H                     2.80656   0.95503  -0.5714 
 H                     0.91279   3.2645   -1.54741 
 H                     2.45228   2.35988  -1.33043 
 H                     2.16394   3.90266  -0.41849 
 
 ITRead=  0  0  0  0  0  0  0  0  0  0  0  0  0  0  0  0  0  0  0  0
 ITRead=  0  0  0
 MicOpt= -1 -1 -1 -1 -1 -1 -1 -1 -1 -1 -1 -1 -1 -1 -1 -1 -1 -1 -1 -1
 MicOpt= -1 -1 -1
 NAtoms=     23 NQM=       23 NQMF=       0 NMMI=      0 NMMIF=      0
                NMic=       0 NMicF=      0.
                    Isotopes and Nuclear Properties:
 (Nuclear quadrupole moments (NQMom) in fm**2, nuclear magnetic moments (NMagM)
  in nuclear magnetons)

  Atom         1           2           3           4           5           6           7           8           9          10
 IAtWgt=          12          12          12          12          12          12          12           1           1           1
 AtmWgt=  12.0000000  12.0000000  12.0000000  12.0000000  12.0000000  12.0000000  12.0000000   1.0078250   1.0078250   1.0078250
 NucSpn=           0           0           0           0           0           0           0           1           1           1
 AtZEff=  -0.0000000  -0.0000000  -0.0000000  -0.0000000  -0.0000000  -0.0000000  -0.0000000  -0.0000000  -0.0000000  -0.0000000
 NQMom=    0.0000000   0.0000000   0.0000000   0.0000000   0.0000000   0.0000000   0.0000000   0.0000000   0.0000000   0.0000000
 NMagM=    0.0000000   0.0000000   0.0000000   0.0000000   0.0000000   0.0000000   0.0000000   2.7928460   2.7928460   2.7928460
 AtZNuc=   6.0000000   6.0000000   6.0000000   6.0000000   6.0000000   6.0000000   6.0000000   1.0000000   1.0000000   1.0000000

  Atom        11          12          13          14          15          16          17          18          19          20
 IAtWgt=           1           1           1           1           1           1           1           1           1           1
 AtmWgt=   1.0078250   1.0078250   1.0078250   1.0078250   1.0078250   1.0078250   1.0078250   1.0078250   1.0078250   1.0078250
 NucSpn=           1           1           1           1           1           1           1           1           1           1
 AtZEff=  -0.0000000  -0.0000000  -0.0000000  -0.0000000  -0.0000000  -0.0000000  -0.0000000  -0.0000000  -0.0000000  -0.0000000
 NQMom=    0.0000000   0.0000000   0.0000000   0.0000000   0.0000000   0.0000000   0.0000000   0.0000000   0.0000000   0.0000000
 NMagM=    2.7928460   2.7928460   2.7928460   2.7928460   2.7928460   2.7928460   2.7928460   2.7928460   2.7928460   2.7928460
 AtZNuc=   1.0000000   1.0000000   1.0000000   1.0000000   1.0000000   1.0000000   1.0000000   1.0000000   1.0000000   1.0000000

  Atom        21          22          23
 IAtWgt=           1           1           1
 AtmWgt=   1.0078250   1.0078250   1.0078250
 NucSpn=           1           1           1
 AtZEff=  -0.0000000  -0.0000000  -0.0000000
 NQMom=    0.0000000   0.0000000   0.0000000
 NMagM=    2.7928460   2.7928460   2.7928460
 AtZNuc=   1.0000000   1.0000000   1.0000000
 Leave Link  101 at Fri Sep 27 14:02:03 2019, MaxMem=   671088640 cpu:               2.5 elap:               1.3
 (Enter /shared/centos7/gaussian/g16/l103.exe)

 GradGradGradGradGradGradGradGradGradGradGradGradGradGradGradGradGradGrad
 Berny optimization.
 Initialization pass.
                           ----------------------------
                           !    Initial Parameters    !
                           ! (Angstroms and Degrees)  !
 --------------------------                            --------------------------
 ! Name  Definition              Value          Derivative Info.                !
 --------------------------------------------------------------------------------
 ! R1    R(1,2)                  1.4906         calculate D2E/DX2 analytically  !
 ! R2    R(1,4)                  1.4917         calculate D2E/DX2 analytically  !
 ! R3    R(1,10)                 1.1107         calculate D2E/DX2 analytically  !
 ! R4    R(1,11)                 1.1093         calculate D2E/DX2 analytically  !
 ! R5    R(2,3)                  1.5083         calculate D2E/DX2 analytically  !
 ! R6    R(2,12)                 1.1012         calculate D2E/DX2 analytically  !
 ! R7    R(2,13)                 1.1105         calculate D2E/DX2 analytically  !
 ! R8    R(3,5)                  1.5105         calculate D2E/DX2 analytically  !
 ! R9    R(3,14)                 1.1032         calculate D2E/DX2 analytically  !
 ! R10   R(3,15)                 1.1096         calculate D2E/DX2 analytically  !
 ! R11   R(4,6)                  1.473          calculate D2E/DX2 analytically  !
 ! R12   R(4,8)                  1.1266         calculate D2E/DX2 analytically  !
 ! R13   R(4,9)                  1.1161         calculate D2E/DX2 analytically  !
 ! R14   R(5,7)                  1.5066         calculate D2E/DX2 analytically  !
 ! R15   R(5,16)                 1.1214         calculate D2E/DX2 analytically  !
 ! R16   R(5,17)                 1.1033         calculate D2E/DX2 analytically  !
 ! R17   R(6,18)                 1.1063         calculate D2E/DX2 analytically  !
 ! R18   R(6,19)                 1.1303         calculate D2E/DX2 analytically  !
 ! R19   R(6,20)                 1.1106         calculate D2E/DX2 analytically  !
 ! R20   R(7,21)                 1.0907         calculate D2E/DX2 analytically  !
 ! R21   R(7,22)                 1.1251         calculate D2E/DX2 analytically  !
 ! R22   R(7,23)                 1.1278         calculate D2E/DX2 analytically  !
 ! A1    A(2,1,4)              117.8386         calculate D2E/DX2 analytically  !
 ! A2    A(2,1,10)             109.1007         calculate D2E/DX2 analytically  !
 ! A3    A(2,1,11)             108.5685         calculate D2E/DX2 analytically  !
 ! A4    A(4,1,10)             106.9838         calculate D2E/DX2 analytically  !
 ! A5    A(4,1,11)             108.6855         calculate D2E/DX2 analytically  !
 ! A6    A(10,1,11)            104.9084         calculate D2E/DX2 analytically  !
 ! A7    A(1,2,3)              116.1983         calculate D2E/DX2 analytically  !
 ! A8    A(1,2,12)             108.9131         calculate D2E/DX2 analytically  !
 ! A9    A(1,2,13)             108.7147         calculate D2E/DX2 analytically  !
 ! A10   A(3,2,12)             108.6687         calculate D2E/DX2 analytically  !
 ! A11   A(3,2,13)             108.9389         calculate D2E/DX2 analytically  !
 ! A12   A(12,2,13)            104.8056         calculate D2E/DX2 analytically  !
 ! A13   A(2,3,5)              113.3016         calculate D2E/DX2 analytically  !
 ! A14   A(2,3,14)             109.578          calculate D2E/DX2 analytically  !
 ! A15   A(2,3,15)             109.6748         calculate D2E/DX2 analytically  !
 ! A16   A(5,3,14)             108.0464         calculate D2E/DX2 analytically  !
 ! A17   A(5,3,15)             110.1841         calculate D2E/DX2 analytically  !
 ! A18   A(14,3,15)            105.7671         calculate D2E/DX2 analytically  !
 ! A19   A(1,4,6)              117.2823         calculate D2E/DX2 analytically  !
 ! A20   A(1,4,8)              108.543          calculate D2E/DX2 analytically  !
 ! A21   A(1,4,9)              107.219          calculate D2E/DX2 analytically  !
 ! A22   A(6,4,8)              108.8422         calculate D2E/DX2 analytically  !
 ! A23   A(6,4,9)              108.9717         calculate D2E/DX2 analytically  !
 ! A24   A(8,4,9)              105.3344         calculate D2E/DX2 analytically  !
 ! A25   A(3,5,7)              114.0736         calculate D2E/DX2 analytically  !
 ! A26   A(3,5,16)             109.0593         calculate D2E/DX2 analytically  !
 ! A27   A(3,5,17)             110.0587         calculate D2E/DX2 analytically  !
 ! A28   A(7,5,16)             108.9718         calculate D2E/DX2 analytically  !
 ! A29   A(7,5,17)             108.4483         calculate D2E/DX2 analytically  !
 ! A30   A(16,5,17)            105.9057         calculate D2E/DX2 analytically  !
 ! A31   A(4,6,18)             112.1129         calculate D2E/DX2 analytically  !
 ! A32   A(4,6,19)             111.1542         calculate D2E/DX2 analytically  !
 ! A33   A(4,6,20)             111.7595         calculate D2E/DX2 analytically  !
 ! A34   A(18,6,19)            107.2913         calculate D2E/DX2 analytically  !
 ! A35   A(18,6,20)            108.0346         calculate D2E/DX2 analytically  !
 ! A36   A(19,6,20)            106.1931         calculate D2E/DX2 analytically  !
 ! A37   A(5,7,21)             111.7859         calculate D2E/DX2 analytically  !
 ! A38   A(5,7,22)             109.8029         calculate D2E/DX2 analytically  !
 ! A39   A(5,7,23)             110.6091         calculate D2E/DX2 analytically  !
 ! A40   A(21,7,22)            108.5308         calculate D2E/DX2 analytically  !
 ! A41   A(21,7,23)            108.624          calculate D2E/DX2 analytically  !
 ! A42   A(22,7,23)            107.3604         calculate D2E/DX2 analytically  !
 ! D1    D(4,1,2,3)             18.0389         calculate D2E/DX2 analytically  !
 ! D2    D(4,1,2,12)          -105.0327         calculate D2E/DX2 analytically  !
 ! D3    D(4,1,2,13)           141.3094         calculate D2E/DX2 analytically  !
 ! D4    D(10,1,2,3)          -104.1328         calculate D2E/DX2 analytically  !
 ! D5    D(10,1,2,12)          132.7956         calculate D2E/DX2 analytically  !
 ! D6    D(10,1,2,13)           19.1377         calculate D2E/DX2 analytically  !
 ! D7    D(11,1,2,3)           142.0672         calculate D2E/DX2 analytically  !
 ! D8    D(11,1,2,12)           18.9956         calculate D2E/DX2 analytically  !
 ! D9    D(11,1,2,13)          -94.6623         calculate D2E/DX2 analytically  !
 ! D10   D(2,1,4,6)             49.7886         calculate D2E/DX2 analytically  !
 ! D11   D(2,1,4,8)            -74.0104         calculate D2E/DX2 analytically  !
 ! D12   D(2,1,4,9)            172.6627         calculate D2E/DX2 analytically  !
 ! D13   D(10,1,4,6)           173.0342         calculate D2E/DX2 analytically  !
 ! D14   D(10,1,4,8)            49.2351         calculate D2E/DX2 analytically  !
 ! D15   D(10,1,4,9)           -64.0917         calculate D2E/DX2 analytically  !
 ! D16   D(11,1,4,6)           -74.1812         calculate D2E/DX2 analytically  !
 ! D17   D(11,1,4,8)           162.0197         calculate D2E/DX2 analytically  !
 ! D18   D(11,1,4,9)            48.6929         calculate D2E/DX2 analytically  !
 ! D19   D(1,2,3,5)           -104.8534         calculate D2E/DX2 analytically  !
 ! D20   D(1,2,3,14)           134.4045         calculate D2E/DX2 analytically  !
 ! D21   D(1,2,3,15)            18.7179         calculate D2E/DX2 analytically  !
 ! D22   D(12,2,3,5)            18.3456         calculate D2E/DX2 analytically  !
 ! D23   D(12,2,3,14)         -102.3966         calculate D2E/DX2 analytically  !
 ! D24   D(12,2,3,15)          141.9168         calculate D2E/DX2 analytically  !
 ! D25   D(13,2,3,5)           131.9929         calculate D2E/DX2 analytically  !
 ! D26   D(13,2,3,14)           11.2507         calculate D2E/DX2 analytically  !
 ! D27   D(13,2,3,15)         -104.4359         calculate D2E/DX2 analytically  !
 ! D28   D(2,3,5,7)            153.6169         calculate D2E/DX2 analytically  !
 ! D29   D(2,3,5,16)           -84.3048         calculate D2E/DX2 analytically  !
 ! D30   D(2,3,5,17)            31.4691         calculate D2E/DX2 analytically  !
 ! D31   D(14,3,5,7)           -84.7784         calculate D2E/DX2 analytically  !
 ! D32   D(14,3,5,16)           37.2998         calculate D2E/DX2 analytically  !
 ! D33   D(14,3,5,17)          153.0737         calculate D2E/DX2 analytically  !
 ! D34   D(15,3,5,7)            30.3254         calculate D2E/DX2 analytically  !
 ! D35   D(15,3,5,16)          152.4037         calculate D2E/DX2 analytically  !
 ! D36   D(15,3,5,17)          -91.8224         calculate D2E/DX2 analytically  !
 ! D37   D(1,4,6,18)            35.0639         calculate D2E/DX2 analytically  !
 ! D38   D(1,4,6,19)           155.146          calculate D2E/DX2 analytically  !
 ! D39   D(1,4,6,20)           -86.4021         calculate D2E/DX2 analytically  !
 ! D40   D(8,4,6,18)           158.7114         calculate D2E/DX2 analytically  !
 ! D41   D(8,4,6,19)           -81.2066         calculate D2E/DX2 analytically  !
 ! D42   D(8,4,6,20)            37.2454         calculate D2E/DX2 analytically  !
 ! D43   D(9,4,6,18)           -86.9084         calculate D2E/DX2 analytically  !
 ! D44   D(9,4,6,19)            33.1736         calculate D2E/DX2 analytically  !
 ! D45   D(9,4,6,20)           151.6255         calculate D2E/DX2 analytically  !
 ! D46   D(3,5,7,21)            58.3676         calculate D2E/DX2 analytically  !
 ! D47   D(3,5,7,22)           -62.1426         calculate D2E/DX2 analytically  !
 ! D48   D(3,5,7,23)           179.5483         calculate D2E/DX2 analytically  !
 ! D49   D(16,5,7,21)          -63.7587         calculate D2E/DX2 analytically  !
 ! D50   D(16,5,7,22)          175.7311         calculate D2E/DX2 analytically  !
 ! D51   D(16,5,7,23)           57.422          calculate D2E/DX2 analytically  !
 ! D52   D(17,5,7,21)         -178.6046         calculate D2E/DX2 analytically  !
 ! D53   D(17,5,7,22)           60.8853         calculate D2E/DX2 analytically  !
 ! D54   D(17,5,7,23)          -57.4239         calculate D2E/DX2 analytically  !
 --------------------------------------------------------------------------------
 Trust Radius=3.00D-01 FncErr=1.00D-07 GrdErr=1.00D-06 EigMax=2.50D+02 EigMin=1.00D-04
 Number of steps in this run=    138 maximum allowed number of steps=    138.
 GradGradGradGradGradGradGradGradGradGradGradGradGradGradGradGradGradGrad

 Leave Link  103 at Fri Sep 27 14:02:04 2019, MaxMem=   671088640 cpu:               1.3 elap:               0.7
 (Enter /shared/centos7/gaussian/g16/l202.exe)
                          Input orientation:                          
 ---------------------------------------------------------------------
 Center     Atomic      Atomic             Coordinates (Angstroms)
 Number     Number       Type             X           Y           Z
 ---------------------------------------------------------------------
      1          6           0        1.255803   -1.297660    0.757939
      2          6           0        0.319786   -0.151946    0.940080
      3          6           0        0.357514    0.914657   -0.125714
      4          6           0        2.402230   -1.118326   -0.179382
      5          6           0        1.060018    2.176655    0.316499
      6          6           0        3.226647    0.091058   -0.014115
      7          6           0        1.663256    2.971905   -0.812043
      8          1           0        2.010205   -1.149957   -1.235058
      9          1           0        3.054491   -2.018528   -0.079644
     10          1           0        0.683653   -2.181880    0.405268
     11          1           0        1.651795   -1.591717    1.751601
     12          1           0        0.516651    0.318092    1.916294
     13          1           0       -0.715304   -0.546494    1.018668
     14          1           0       -0.672200    1.181355   -0.418436
     15          1           0        0.836306    0.510821   -1.041585
     16          1           0        0.332856    2.825243    0.871556
     17          1           0        1.858706    1.932385    1.037394
     18          1           0        3.327190    0.384612    1.047768
     19          1           0        4.269894   -0.067996   -0.418927
     20          1           0        2.806559    0.955032   -0.571401
     21          1           0        0.912792    3.264498   -1.547414
     22          1           0        2.452279    2.359879   -1.330432
     23          1           0        2.163945    3.902664   -0.418491
 ---------------------------------------------------------------------
                    Distance matrix (angstroms):
                    1          2          3          4          5
     1  C    0.000000
     2  C    1.490625   0.000000
     3  C    2.545999   1.508304   0.000000
     4  C    1.491652   2.554145   2.883880   0.000000
     5  C    3.507715   2.521741   1.510531   3.592260   0.000000
     6  C    2.531567   3.069101   2.987088   1.472952   3.025442
     7  C    4.567280   3.825348   2.531458   4.204323   1.506627
     8  H    2.136112   2.929978   2.867868   1.126559   3.791640
     9  H    2.111037   3.464474   3.984894   1.116134   4.662018
    10  H    1.110665   2.130506   3.158615   2.103917   4.375655
    11  H    1.109344   2.122677   3.388420   2.125076   4.075580
    12  H    2.121034   1.101220   2.133310   3.163947   2.511742
    13  H    2.125439   1.110520   2.143715   3.388412   3.325711
    14  H    3.353590   2.146460   1.103233   3.846791   2.128692
    15  H    2.585511   2.152452   1.109570   2.418601   2.160889
    16  H    4.226472   2.978006   2.155341   4.575863   1.121392
    17  H    3.297693   2.592717   2.154569   3.329084   1.103295
    18  H    2.684155   3.056791   3.236818   2.149482   2.980981
    19  H    3.461479   4.178194   4.044540   2.156095   3.985300
    20  H    3.040824   3.113521   2.489596   2.148482   2.308925
    21  H    5.123045   4.267478   2.802020   4.826913   2.163158
    22  H    4.378406   4.001501   2.815679   3.664060   2.164334
    23  H    5.408519   4.656876   3.503868   5.032325   2.176688
                    6          7          8          9         10
     6  C    0.000000
     7  C    3.373449   0.000000
     8  H    2.123806   4.158012   0.000000
     9  H    2.117613   5.232243   1.783235   0.000000
    10  H    3.436415   5.385440   2.348462   2.425427   0.000000
    11  H    2.903385   5.234411   3.040352   2.345886   1.760171
    12  H    3.334981   3.975078   3.783767   3.985497   2.925910
    13  H    4.124572   4.624737   3.587736   4.193391   2.237817
    14  H    4.068566   2.969065   3.646531   4.923642   3.718625
    15  H    2.635455   2.606428   2.042953   3.499040   3.060608
    16  H    4.078506   2.150810   4.801411   5.636860   5.041008
    17  H    2.523374   2.130545   3.832470   4.276375   4.325217
    18  H    1.106291   3.594672   3.049696   2.668427   3.740050
    19  H    1.130281   4.023693   2.634939   2.323121   4.243692
    20  H    1.110627   2.330842   2.346401   3.024128   3.911627
    21  H    4.216118   1.090678   4.559528   5.886560   5.790380
    22  H    2.734938   1.125104   3.538852   4.593210   5.173805
    23  H    3.977586   1.127778   5.120488   5.997366   6.315973
                   11         12         13         14         15
    11  H    0.000000
    12  H    2.227790   0.000000
    13  H    2.689394   1.752414   0.000000
    14  H    4.218998   2.758541   2.247797   0.000000
    15  H    3.589927   2.981337   2.787482   1.764517   0.000000
    16  H    4.692933   2.722327   3.533963   2.318746   3.044687
    17  H    3.601694   2.275855   3.573614   3.014792   2.718142
    18  H    2.684811   2.942430   4.148441   4.333552   3.253587
    19  H    3.726575   4.437246   5.210359   5.097565   3.537267
    20  H    3.635348   3.440639   4.145651   3.489467   2.073714
    21  H    5.917132   4.564593   4.874335   2.850662   2.800794
    22  H    5.074920   4.296135   4.898863   3.461650   2.472613
    23  H    5.929572   4.584098   5.490948   3.930551   3.695330
                   16         17         18         19         20
    16  H    0.000000
    17  H    1.775646   0.000000
    18  H    3.867011   2.133579   0.000000
    19  H    5.053361   3.454884   1.801316   0.000000
    20  H    3.420384   2.107574   1.793919   1.791978   0.000000
    21  H    2.526003   3.057861   4.567060   4.863038   3.142067
    22  H    3.091484   2.478242   3.212941   3.166883   1.635615
    23  H    2.485547   2.468759   3.984940   4.494571   3.020740
                   21         22         23
    21  H    0.000000
    22  H    1.798732   0.000000
    23  H    1.801973   1.815202   0.000000
 Stoichiometry    C7H16
 Framework group  C1[X(C7H16)]
 Deg. of freedom    63
 Full point group                 C1      NOp   1
 Largest Abelian subgroup         C1      NOp   1
 Largest concise Abelian subgroup C1      NOp   1
                         Standard orientation:                         
 ---------------------------------------------------------------------
 Center     Atomic      Atomic             Coordinates (Angstroms)
 Number     Number       Type             X           Y           Z
 ---------------------------------------------------------------------
      1          6           0        1.894538   -0.531685    0.076137
      2          6           0        0.709030   -1.423279    0.223085
      3          6           0       -0.546723   -0.983966   -0.487598
      4          6           0        1.660355    0.869127   -0.379833
      5          6           0       -1.592017   -0.415269    0.442803
      6          6           0        0.622097    1.642991    0.322122
      7          6           0       -2.529633    0.565398   -0.212250
      8          1           0        1.419904    0.852220   -1.480303
      9          1           0        2.633260    1.410058   -0.298561
     10          1           0        2.608192   -0.991044   -0.640288
     11          1           0        2.438170   -0.504611    1.042768
     12          1           0        0.483911   -1.544166    1.294249
     13          1           0        0.983329   -2.441233   -0.125895
     14          1           0       -0.991754   -1.843433   -1.017115
     15          1           0       -0.291427   -0.244409   -1.274379
     16          1           0       -2.191148   -1.257021    0.878712
     17          1           0       -1.105866    0.084365    1.297954
     18          1           0        0.574660    1.394990    1.399213
     19          1           0        0.816503    2.753492    0.241317
     20          1           0       -0.384634    1.472202   -0.114703
     21          1           0       -3.059892    0.118129   -1.053887
     22          1           0       -1.950716    1.454707   -0.586209
     23          1           0       -3.288381    0.945854    0.530339
 ---------------------------------------------------------------------
 Rotational constants (GHZ):           3.5389617           1.8243754           1.3581145
 Leave Link  202 at Fri Sep 27 14:02:05 2019, MaxMem=   671088640 cpu:               3.2 elap:               1.6
 (Enter /shared/centos7/gaussian/g16/l301.exe)
 Standard basis: CC-pVTZ (5D, 7F)
 Ernie: Thresh=  0.10000D-02 Tol=  0.10000D-05 Strict=F.
 Ernie:  21 primitive shells out of 310 were deleted.
 There are   485 symmetry adapted cartesian basis functions of A   symmetry.
 There are   434 symmetry adapted basis functions of A   symmetry.
   434 basis functions,   636 primitive gaussians,   485 cartesian basis functions
    29 alpha electrons       29 beta electrons
       nuclear repulsion energy       338.7345509132 Hartrees.
 IExCor= 4336 DFT=T Ex+Corr=M062X ExCW=0 ScaHFX=  0.540000
 ScaDFX=  1.000000  1.000000  1.000000  1.000000 ScalE2=  1.000000  1.000000
 IRadAn=      5 IRanWt=     -1 IRanGd=            0 ICorTp=0 IEmpDi=  4
 NAtoms=   23 NActive=   23 NUniq=   23 SFac= 1.00D+00 NAtFMM=   60 NAOKFM=F Big=F
 Integral buffers will be    131072 words long.
 Raffenetti 2 integral format.
 Two-electron integral symmetry is turned on.
 Leave Link  301 at Fri Sep 27 14:02:07 2019, MaxMem=   671088640 cpu:               2.8 elap:               1.4
 (Enter /shared/centos7/gaussian/g16/l302.exe)
 NPDir=0 NMtPBC=     1 NCelOv=     1 NCel=       1 NClECP=     1 NCelD=      1
         NCelK=      1 NCelE2=     1 NClLst=     1 CellRange=     0.0.
 One-electron integrals computed using PRISM.
 One-electron integral symmetry used in STVInt
 NBasis=   434 RedAO= T EigKep=  1.74D-04  NBF=   434
 NBsUse=   434 1.00D-06 EigRej= -1.00D+00 NBFU=   434
 Precomputing XC quadrature grid using
 IXCGrd= 4 IRadAn=           5 IRanWt=          -1 IRanGd=           0 AccXCQ= 0.00D+00.
 Generated NRdTot=       0 NPtTot=           0 NUsed=           0 NTot=          32
 NSgBfM=   485   485   485   485   485 MxSgAt=    23 MxSgA2=    23.
 Leave Link  302 at Fri Sep 27 14:03:14 2019, MaxMem=   671088640 cpu:             134.7 elap:              67.4
 (Enter /shared/centos7/gaussian/g16/l303.exe)
 DipDrv:  MaxL=1.
 Leave Link  303 at Fri Sep 27 14:03:19 2019, MaxMem=   671088640 cpu:               9.5 elap:               4.8
 (Enter /shared/centos7/gaussian/g16/l401.exe)
 ExpMin= 1.03D-01 ExpMax= 8.24D+03 ExpMxC= 2.81D+02 IAcc=3 IRadAn=         5 AccDes= 0.00D+00
 Harris functional with IExCor= 1009 and IRadAn=       5 diagonalized for initial guess.
 HarFok:  IExCor= 1009 AccDes= 0.00D+00 IRadAn=         5 IDoV= 1 UseB2=F ITyADJ=14
 ICtDFT=  3500011 ScaDFX=  1.000000  1.000000  1.000000  1.000000
 FoFCou: FMM=F IPFlag=           0 FMFlag=      100000 FMFlg1=           0
         NFxFlg=           0 DoJE=T BraDBF=F KetDBF=T FulRan=T
         wScrn=  0.000000 ICntrl=       500 IOpCl=  0 I1Cent=   200000004 NGrid=           0
         NMat0=    1 NMatS0=      1 NMatT0=    0 NMatD0=    1 NMtDS0=    0 NMtDT0=    0
 Petite list used in FoFCou.
 Harris En= -276.306387734552    
 JPrj=0 DoOrth=F DoCkMO=F.
 Leave Link  401 at Fri Sep 27 14:04:05 2019, MaxMem=   671088640 cpu:              92.4 elap:              46.2
 (Enter /shared/centos7/gaussian/g16/l502.exe)
 Integral symmetry usage will be decided dynamically.
 Closed shell SCF:
 Using DIIS extrapolation, IDIIS=  1040.
 NGot=   671088640 LenX=   670604095 LenY=   670368385
 Requested convergence on RMS density matrix=1.00D-08 within 900 cycles.
 Requested convergence on MAX density matrix=1.00D-06.
 Requested convergence on             energy=1.00D-06.
 No special actions if energy rises.
 Fock matrices will be formed incrementally for  20 cycles.
 Integral accuracy reduced to 1.0D-05 until final iterations.

 Cycle   1  Pass 0  IDiag  1:
 FoFJK:  IHMeth= 1 ICntrl=       0 DoSepK=F KAlg= 0 I1Cent=           0 FoldK=F
 IRaf= 960000000 NMat=       1 IRICut=       1 DoRegI=T DoRafI=F ISym2E= 0 IDoP0=0 IntGTp=1.
 FoFCou: FMM=F IPFlag=           0 FMFlag=      100000 FMFlg1=           0
         NFxFlg=           0 DoJE=F BraDBF=F KetDBF=F FulRan=T
         wScrn=  0.000000 ICntrl=         0 IOpCl=  0 I1Cent=           0 NGrid=           0
         NMat0=    1 NMatS0=      1 NMatT0=    0 NMatD0=    1 NMtDS0=    0 NMtDT0=    0
 Symmetry not used in FoFCou.
 E= -275.948846215105    
 DIIS: error= 2.28D-02 at cycle   1 NSaved=   1.
 NSaved= 1 IEnMin= 1 EnMin= -275.948846215105     IErMin= 1 ErrMin= 2.28D-02
 ErrMax= 2.28D-02  0.00D+00 EMaxC= 1.00D-01 BMatC= 3.73D-01 BMatP= 3.73D-01
 IDIUse=3 WtCom= 7.72D-01 WtEn= 2.28D-01
 Coeff-Com:  0.100D+01
 Coeff-En:   0.100D+01
 Coeff:      0.100D+01
 Gap=     0.368 Goal=   None    Shift=    0.000
 GapD=    0.368 DampG=1.000 DampE=0.500 DampFc=0.5000 IDamp=-1.
 Damping current iteration by 5.00D-01
 RMSDP=1.97D-03 MaxDP=7.40D-02              OVMax= 1.67D-01

 Cycle   2  Pass 0  IDiag  1:
 RMSU=  9.82D-04    CP:  9.90D-01
 E= -276.122637527788     Delta-E=       -0.173791312683 Rises=F Damp=T
 DIIS: error= 4.61D-03 at cycle   2 NSaved=   2.
 NSaved= 2 IEnMin= 2 EnMin= -276.122637527788     IErMin= 2 ErrMin= 4.61D-03
 ErrMax= 4.61D-03  0.00D+00 EMaxC= 1.00D-01 BMatC= 1.98D-02 BMatP= 3.73D-01
 IDIUse=3 WtCom= 9.54D-01 WtEn= 4.61D-02
 Coeff-Com: -0.400D-01 0.104D+01
 Coeff-En:   0.000D+00 0.100D+01
 Coeff:     -0.381D-01 0.104D+01
 Gap=     0.443 Goal=   None    Shift=    0.000
 RMSDP=6.15D-04 MaxDP=2.50D-02 DE=-1.74D-01 OVMax= 9.17D-02

 Cycle   3  Pass 0  IDiag  1:
 RMSU=  6.02D-04    CP:  9.99D-01  8.89D-01
 E= -276.300977499297     Delta-E=       -0.178339971509 Rises=F Damp=F
 DIIS: error= 3.47D-03 at cycle   3 NSaved=   3.
 NSaved= 3 IEnMin= 3 EnMin= -276.300977499297     IErMin= 3 ErrMin= 3.47D-03
 ErrMax= 3.47D-03  0.00D+00 EMaxC= 1.00D-01 BMatC= 4.14D-03 BMatP= 1.98D-02
 IDIUse=3 WtCom= 9.65D-01 WtEn= 3.47D-02
 Coeff-Com: -0.546D-01 0.292D+00 0.763D+00
 Coeff-En:   0.000D+00 0.000D+00 0.100D+01
 Coeff:     -0.527D-01 0.281D+00 0.771D+00
 Gap=     0.413 Goal=   None    Shift=    0.000
 RMSDP=1.28D-04 MaxDP=3.24D-03 DE=-1.78D-01 OVMax= 1.27D-02

 Cycle   4  Pass 0  IDiag  1:
 RMSU=  1.00D-04    CP:  9.97D-01  9.40D-01  8.99D-01
 E= -276.304556818892     Delta-E=       -0.003579319595 Rises=F Damp=F
 DIIS: error= 8.78D-04 at cycle   4 NSaved=   4.
 NSaved= 4 IEnMin= 4 EnMin= -276.304556818892     IErMin= 4 ErrMin= 8.78D-04
 ErrMax= 8.78D-04  0.00D+00 EMaxC= 1.00D-01 BMatC= 3.88D-04 BMatP= 4.14D-03
 IDIUse=3 WtCom= 9.91D-01 WtEn= 8.78D-03
 Coeff-Com: -0.148D-01 0.415D-01 0.269D+00 0.704D+00
 Coeff-En:   0.000D+00 0.000D+00 0.000D+00 0.100D+01
 Coeff:     -0.146D-01 0.411D-01 0.267D+00 0.707D+00
 Gap=     0.414 Goal=   None    Shift=    0.000
 RMSDP=3.82D-05 MaxDP=1.83D-03 DE=-3.58D-03 OVMax= 3.72D-03

 Cycle   5  Pass 0  IDiag  1:
 RMSU=  2.00D-05    CP:  9.97D-01  9.33D-01  9.36D-01  7.76D-01
 E= -276.304914116478     Delta-E=       -0.000357297586 Rises=F Damp=F
 DIIS: error= 2.09D-04 at cycle   5 NSaved=   5.
 NSaved= 5 IEnMin= 5 EnMin= -276.304914116478     IErMin= 5 ErrMin= 2.09D-04
 ErrMax= 2.09D-04  0.00D+00 EMaxC= 1.00D-01 BMatC= 2.02D-05 BMatP= 3.88D-04
 IDIUse=3 WtCom= 9.98D-01 WtEn= 2.09D-03
 Coeff-Com: -0.225D-02 0.215D-02 0.573D-01 0.251D+00 0.691D+00
 Coeff-En:   0.000D+00 0.000D+00 0.000D+00 0.000D+00 0.100D+01
 Coeff:     -0.224D-02 0.215D-02 0.572D-01 0.251D+00 0.692D+00
 Gap=     0.414 Goal=   None    Shift=    0.000
 RMSDP=7.60D-06 MaxDP=4.85D-04 DE=-3.57D-04 OVMax= 8.36D-04

 Initial convergence to 1.0D-05 achieved.  Increase integral accuracy.
 Cycle   6  Pass 1  IDiag  1:
 E= -276.304898657035     Delta-E=        0.000015459443 Rises=F Damp=F
 DIIS: error= 3.77D-05 at cycle   1 NSaved=   1.
 NSaved= 1 IEnMin= 1 EnMin= -276.304898657035     IErMin= 1 ErrMin= 3.77D-05
 ErrMax= 3.77D-05  0.00D+00 EMaxC= 1.00D-01 BMatC= 1.77D-06 BMatP= 1.77D-06
 IDIUse=1 WtCom= 1.00D+00 WtEn= 0.00D+00
 Coeff-Com:  0.100D+01
 Coeff:      0.100D+01
 Gap=     0.414 Goal=   None    Shift=    0.000
 RMSDP=7.60D-06 MaxDP=4.85D-04 DE= 1.55D-05 OVMax= 3.03D-04

 Cycle   7  Pass 1  IDiag  1:
 RMSU=  9.83D-06    CP:  1.00D+00
 E= -276.304899405529     Delta-E=       -0.000000748493 Rises=F Damp=F
 DIIS: error= 3.87D-05 at cycle   2 NSaved=   2.
 NSaved= 2 IEnMin= 2 EnMin= -276.304899405529     IErMin= 1 ErrMin= 3.77D-05
 ErrMax= 3.87D-05  0.00D+00 EMaxC= 1.00D-01 BMatC= 6.66D-07 BMatP= 1.77D-06
 IDIUse=1 WtCom= 1.00D+00 WtEn= 0.00D+00
 Coeff-Com:  0.353D+00 0.647D+00
 Coeff:      0.353D+00 0.647D+00
 Gap=     0.414 Goal=   None    Shift=    0.000
 RMSDP=1.51D-06 MaxDP=8.13D-05 DE=-7.48D-07 OVMax= 1.70D-04

 Cycle   8  Pass 1  IDiag  1:
 RMSU=  1.50D-06    CP:  1.00D+00  9.81D-01
 E= -276.304900011805     Delta-E=       -0.000000606276 Rises=F Damp=F
 DIIS: error= 1.05D-05 at cycle   3 NSaved=   3.
 NSaved= 3 IEnMin= 3 EnMin= -276.304900011805     IErMin= 3 ErrMin= 1.05D-05
 ErrMax= 1.05D-05  0.00D+00 EMaxC= 1.00D-01 BMatC= 5.65D-08 BMatP= 6.66D-07
 IDIUse=1 WtCom= 1.00D+00 WtEn= 0.00D+00
 Coeff-Com: -0.250D-02 0.214D+00 0.789D+00
 Coeff:     -0.250D-02 0.214D+00 0.789D+00
 Gap=     0.414 Goal=   None    Shift=    0.000
 RMSDP=4.39D-07 MaxDP=1.93D-05 DE=-6.06D-07 OVMax= 4.18D-05

 Cycle   9  Pass 1  IDiag  1:
 RMSU=  3.33D-07    CP:  1.00D+00  1.00D+00  8.70D-01
 E= -276.304900065717     Delta-E=       -0.000000053912 Rises=F Damp=F
 DIIS: error= 2.86D-06 at cycle   4 NSaved=   4.
 NSaved= 4 IEnMin= 4 EnMin= -276.304900065717     IErMin= 4 ErrMin= 2.86D-06
 ErrMax= 2.86D-06  0.00D+00 EMaxC= 1.00D-01 BMatC= 2.81D-09 BMatP= 5.65D-08
 IDIUse=1 WtCom= 1.00D+00 WtEn= 0.00D+00
 Coeff-Com: -0.142D-01 0.570D-01 0.295D+00 0.663D+00
 Coeff:     -0.142D-01 0.570D-01 0.295D+00 0.663D+00
 Gap=     0.414 Goal=   None    Shift=    0.000
 RMSDP=1.01D-07 MaxDP=3.00D-06 DE=-5.39D-08 OVMax= 9.80D-06

 Cycle  10  Pass 1  IDiag  1:
 RMSU=  9.17D-08    CP:  1.00D+00  1.00D+00  8.68D-01  8.82D-01
 E= -276.304900068499     Delta-E=       -0.000000002783 Rises=F Damp=F
 DIIS: error= 3.79D-07 at cycle   5 NSaved=   5.
 NSaved= 5 IEnMin= 5 EnMin= -276.304900068499     IErMin= 5 ErrMin= 3.79D-07
 ErrMax= 3.79D-07  0.00D+00 EMaxC= 1.00D-01 BMatC= 8.98D-11 BMatP= 2.81D-09
 IDIUse=1 WtCom= 1.00D+00 WtEn= 0.00D+00
 Coeff-Com: -0.147D-02-0.977D-02-0.266D-01 0.795D-01 0.958D+00
 Coeff:     -0.147D-02-0.977D-02-0.266D-01 0.795D-01 0.958D+00
 Gap=     0.414 Goal=   None    Shift=    0.000
 RMSDP=3.82D-08 MaxDP=8.49D-07 DE=-2.78D-09 OVMax= 2.70D-06

 Cycle  11  Pass 1  IDiag  1:
 RMSU=  2.09D-08    CP:  1.00D+00  1.00D+00  8.71D-01  9.70D-01  1.12D+00
 E= -276.304900068597     Delta-E=       -0.000000000097 Rises=F Damp=F
 DIIS: error= 2.32D-07 at cycle   6 NSaved=   6.
 NSaved= 6 IEnMin= 6 EnMin= -276.304900068597     IErMin= 6 ErrMin= 2.32D-07
 ErrMax= 2.32D-07  0.00D+00 EMaxC= 1.00D-01 BMatC= 2.64D-11 BMatP= 8.98D-11
 IDIUse=1 WtCom= 1.00D+00 WtEn= 0.00D+00
 Coeff-Com:  0.434D-03-0.903D-02-0.355D-01-0.175D-01 0.439D+00 0.623D+00
 Coeff:      0.434D-03-0.903D-02-0.355D-01-0.175D-01 0.439D+00 0.623D+00
 Gap=     0.414 Goal=   None    Shift=    0.000
 RMSDP=8.07D-09 MaxDP=2.79D-07 DE=-9.73D-11 OVMax= 9.14D-07

 SCF Done:  E(RM062X) =  -276.304900069     A.U. after   11 cycles
            NFock= 11  Conv=0.81D-08     -V/T= 2.0063
 KE= 2.745623102761D+02 PE=-1.315926291029D+03 EE= 4.263245297710D+02
 Leave Link  502 at Fri Sep 27 14:19:59 2019, MaxMem=   671088640 cpu:            1906.6 elap:             953.5
 (Enter /shared/centos7/gaussian/g16/l801.exe)
 DoSCS=F DFT=T ScalE2(SS,OS)=  1.000000  1.000000
 Range of M.O.s used for correlation:     1   434
 NBasis=   434 NAE=    29 NBE=    29 NFC=     0 NFV=     0
 NROrb=    434 NOA=    29 NOB=    29 NVA=   405 NVB=   405

 **** Warning!!: The largest alpha MO coefficient is  0.12268791D+02

 Leave Link  801 at Fri Sep 27 14:19:59 2019, MaxMem=   671088640 cpu:               1.5 elap:               0.8
 (Enter /shared/centos7/gaussian/g16/l1101.exe)
 Using compressed storage, NAtomX=    23.
 Will process     24 centers per pass.
 Leave Link 1101 at Fri Sep 27 14:20:33 2019, MaxMem=   671088640 cpu:              68.0 elap:              34.0
 (Enter /shared/centos7/gaussian/g16/l1102.exe)
 Symmetrizing basis deriv contribution to polar:
 IMax=3 JMax=2 DiffMx= 0.00D+00
 Leave Link 1102 at Fri Sep 27 14:20:36 2019, MaxMem=   671088640 cpu:               5.0 elap:               2.5
 (Enter /shared/centos7/gaussian/g16/l1110.exe)
 Forming Gx(P) for the SCF density, NAtomX=    23.
 Integral derivatives from FoFJK, PRISM(SPDF).
 Do as many integral derivatives as possible in FoFJK.
 G2DrvN: MDV=     671086848.
 G2DrvN: will do    24 centers at a time, making    1 passes.
 Calling FoFCou, ICntrl=  3107 FMM=F I1Cent=   0 AccDes= 0.00D+00.
 FoFJK:  IHMeth= 1 ICntrl=    3107 DoSepK=F KAlg= 0 I1Cent=           0 FoldK=F
 IRaf=         0 NMat=       1 IRICut=       1 DoRegI=T DoRafI=F ISym2E= 0 IDoP0=0 IntGTp=1.
 FoFCou: FMM=F IPFlag=           0 FMFlag=      100000 FMFlg1=           0
         NFxFlg=           0 DoJE=F BraDBF=F KetDBF=F FulRan=T
         wScrn=  0.000000 ICntrl=      3107 IOpCl=  0 I1Cent=           0 NGrid=           0
         NMat0=    1 NMatS0=      1 NMatT0=    0 NMatD0=    1 NMtDS0=    0 NMtDT0=    0
 Symmetry not used in FoFCou.
 End of G2Drv F.D. properties file   721 does not exist.
 End of G2Drv F.D. properties file   722 does not exist.
 End of G2Drv F.D. properties file   788 does not exist.
 Leave Link 1110 at Fri Sep 27 15:09:18 2019, MaxMem=   671088640 cpu:            5843.2 elap:            2922.1
 (Enter /shared/centos7/gaussian/g16/l1002.exe)
 Minotr:  Closed shell wavefunction.
          IDoAtm=11111111111111111111111
          Direct CPHF calculation.
          Differentiating once with respect to nuclear coordinates.
          Requested convergence is 1.0D-08 RMS, and 1.0D-07 maximum.
          Secondary convergence is 1.0D-12 RMS, and 1.0D-12 maximum.
          NewPWx=T KeepS1=F KeepF1=F KeepIn=T MapXYZ=F SortEE=F KeepMc=T.
         6890 words used for storage of precomputed grid.
 Two-electron integrals replicated using symmetry.
          MDV=     671088640 using IRadAn=       1.
          Solving linear equations simultaneously, MaxMat=     380.
 FoF2E skips out because all densities are zero.
 CalDSu exits because no D1Ps are significant.
 FoFJK:  IHMeth= 1 ICntrl=       0 DoSepK=F KAlg= 0 I1Cent=           0 FoldK=F
 IRaf= 950000000 NMat=      69 IRICut=     172 DoRegI=T DoRafI=T ISym2E= 2 IDoP0=3 IntGTp=3.
 FoFCou: FMM=F IPFlag=           0 FMFlag=      100000 FMFlg1=           0
         NFxFlg=           0 DoJE=F BraDBF=F KetDBF=F FulRan=T
         wScrn=  0.000000 ICntrl=         0 IOpCl=  0 I1Cent=           0 NGrid=           0
         NMat0=   69 NMatS0=     69 NMatT0=    0 NMatD0=   69 NMtDS0=    0 NMtDT0=    0
 Integrals replicated using symmetry in FoFCou.
 Raff kept on since  91.72% of shell-pairs survive, threshold=   0.20 IRatSp=92.
          There are    72 degrees of freedom in the 1st order CPHF.  IDoFFX=6 NUNeed=     0.
     66 vectors produced by pass  0 Test12= 1.63D-14 1.39D-09 XBig12= 5.44D-02 4.07D-02.
 AX will form    66 AO Fock derivatives at one time.
     66 vectors produced by pass  1 Test12= 1.63D-14 1.39D-09 XBig12= 3.26D-03 7.23D-03.
     66 vectors produced by pass  2 Test12= 1.63D-14 1.39D-09 XBig12= 6.41D-05 1.22D-03.
     66 vectors produced by pass  3 Test12= 1.63D-14 1.39D-09 XBig12= 5.26D-07 8.72D-05.
     66 vectors produced by pass  4 Test12= 1.63D-14 1.39D-09 XBig12= 2.12D-09 4.97D-06.
     66 vectors produced by pass  5 Test12= 1.63D-14 1.39D-09 XBig12= 1.20D-11 3.23D-07.
     23 vectors produced by pass  6 Test12= 1.63D-14 1.39D-09 XBig12= 4.81D-14 1.96D-08.
 InvSVY:  IOpt=1 It=  1 EMax= 3.05D-16
 Solved reduced A of dimension   419 with    72 vectors.
 End of Minotr F.D. properties file   721 does not exist.
 End of Minotr F.D. properties file   722 does not exist.
 End of Minotr F.D. properties file   788 does not exist.
 Leave Link 1002 at Fri Sep 27 16:29:33 2019, MaxMem=   671088640 cpu:            9627.8 elap:            4814.8
 (Enter /shared/centos7/gaussian/g16/l601.exe)
 Copying SCF densities to generalized density rwf, IOpCl= 0 IROHF=0.

 **********************************************************************

            Population analysis using the SCF density.

 **********************************************************************

 Orbital symmetries:
       Occupied  (A) (A) (A) (A) (A) (A) (A) (A) (A) (A) (A) (A)
                 (A) (A) (A) (A) (A) (A) (A) (A) (A) (A) (A) (A)
                 (A) (A) (A) (A) (A)
       Virtual   (A) (A) (A) (A) (A) (A) (A) (A) (A) (A) (A) (A)
                 (A) (A) (A) (A) (A) (A) (A) (A) (A) (A) (A) (A)
                 (A) (A) (A) (A) (A) (A) (A) (A) (A) (A) (A) (A)
                 (A) (A) (A) (A) (A) (A) (A) (A) (A) (A) (A) (A)
                 (A) (A) (A) (A) (A) (A) (A) (A) (A) (A) (A) (A)
                 (A) (A) (A) (A) (A) (A) (A) (A) (A) (A) (A) (A)
                 (A) (A) (A) (A) (A) (A) (A) (A) (A) (A) (A) (A)
                 (A) (A) (A) (A) (A) (A) (A) (A) (A) (A) (A) (A)
                 (A) (A) (A) (A) (A) (A) (A) (A) (A) (A) (A) (A)
                 (A) (A) (A) (A) (A) (A) (A) (A) (A) (A) (A) (A)
                 (A) (A) (A) (A) (A) (A) (A) (A) (A) (A) (A) (A)
                 (A) (A) (A) (A) (A) (A) (A) (A) (A) (A) (A) (A)
                 (A) (A) (A) (A) (A) (A) (A) (A) (A) (A) (A) (A)
                 (A) (A) (A) (A) (A) (A) (A) (A) (A) (A) (A) (A)
                 (A) (A) (A) (A) (A) (A) (A) (A) (A) (A) (A) (A)
                 (A) (A) (A) (A) (A) (A) (A) (A) (A) (A) (A) (A)
                 (A) (A) (A) (A) (A) (A) (A) (A) (A) (A) (A) (A)
                 (A) (A) (A) (A) (A) (A) (A) (A) (A) (A) (A) (A)
                 (A) (A) (A) (A) (A) (A) (A) (A) (A) (A) (A) (A)
                 (A) (A) (A) (A) (A) (A) (A) (A) (A) (A) (A) (A)
                 (A) (A) (A) (A) (A) (A) (A) (A) (A) (A) (A) (A)
                 (A) (A) (A) (A) (A) (A) (A) (A) (A) (A) (A) (A)
                 (A) (A) (A) (A) (A) (A) (A) (A) (A) (A) (A) (A)
                 (A) (A) (A) (A) (A) (A) (A) (A) (A) (A) (A) (A)
                 (A) (A) (A) (A) (A) (A) (A) (A) (A) (A) (A) (A)
                 (A) (A) (A) (A) (A) (A) (A) (A) (A) (A) (A) (A)
                 (A) (A) (A) (A) (A) (A) (A) (A) (A) (A) (A) (A)
                 (A) (A) (A) (A) (A) (A) (A) (A) (A) (A) (A) (A)
                 (A) (A) (A) (A) (A) (A) (A) (A) (A) (A) (A) (A)
                 (A) (A) (A) (A) (A) (A) (A) (A) (A) (A) (A) (A)
                 (A) (A) (A) (A) (A) (A) (A) (A) (A) (A) (A) (A)
                 (A) (A) (A) (A) (A) (A) (A) (A) (A) (A) (A) (A)
                 (A) (A) (A) (A) (A) (A) (A) (A) (A) (A) (A) (A)
                 (A) (A) (A) (A) (A) (A) (A) (A) (A)
 The electronic state is 1-A.
 Alpha  occ. eigenvalues --  -10.52682 -10.52637 -10.52567 -10.52345 -10.52244
 Alpha  occ. eigenvalues --  -10.52169 -10.51910  -0.92573  -0.87664  -0.83213
 Alpha  occ. eigenvalues --   -0.76748  -0.70485  -0.66512  -0.61796  -0.56182
 Alpha  occ. eigenvalues --   -0.53658  -0.50733  -0.50017  -0.47267  -0.46154
 Alpha  occ. eigenvalues --   -0.46085  -0.42524  -0.41391  -0.40407  -0.39691
 Alpha  occ. eigenvalues --   -0.37683  -0.36316  -0.35798  -0.35034
 Alpha virt. eigenvalues --    0.06352   0.08261   0.08472   0.08835   0.10966
 Alpha virt. eigenvalues --    0.11913   0.12160   0.12927   0.14589   0.15599
 Alpha virt. eigenvalues --    0.16430   0.17551   0.17897   0.19212   0.20388
 Alpha virt. eigenvalues --    0.21182   0.22545   0.23729   0.25148   0.26260
 Alpha virt. eigenvalues --    0.28157   0.28695   0.30037   0.31255   0.31594
 Alpha virt. eigenvalues --    0.32376   0.33452   0.35746   0.36656   0.37472
 Alpha virt. eigenvalues --    0.38981   0.39917   0.40602   0.42714   0.44158
 Alpha virt. eigenvalues --    0.45056   0.45408   0.47527   0.47927   0.48508
 Alpha virt. eigenvalues --    0.48826   0.49756   0.50184   0.50799   0.51886
 Alpha virt. eigenvalues --    0.52286   0.52809   0.53977   0.54521   0.55072
 Alpha virt. eigenvalues --    0.55146   0.55768   0.56161   0.56399   0.57884
 Alpha virt. eigenvalues --    0.58450   0.60188   0.61776   0.63281   0.64850
 Alpha virt. eigenvalues --    0.66282   0.70544   0.71882   0.72645   0.75420
 Alpha virt. eigenvalues --    0.78264   0.79882   0.81839   0.84292   0.85482
 Alpha virt. eigenvalues --    0.88305   0.89271   0.90680   0.92434   0.92795
 Alpha virt. eigenvalues --    0.94928   0.96070   0.97622   0.99210   1.00182
 Alpha virt. eigenvalues --    1.01565   1.02824   1.03870   1.05223   1.06066
 Alpha virt. eigenvalues --    1.07352   1.08626   1.08931   1.09339   1.11403
 Alpha virt. eigenvalues --    1.12248   1.12702   1.13380   1.14473   1.15613
 Alpha virt. eigenvalues --    1.17118   1.17679   1.18975   1.19673   1.20429
 Alpha virt. eigenvalues --    1.21254   1.22464   1.22925   1.24101   1.24667
 Alpha virt. eigenvalues --    1.26732   1.27636   1.28168   1.28891   1.29294
 Alpha virt. eigenvalues --    1.29938   1.30907   1.32596   1.33558   1.35111
 Alpha virt. eigenvalues --    1.35464   1.36248   1.37799   1.38738   1.39569
 Alpha virt. eigenvalues --    1.41906   1.43811   1.44989   1.45159   1.46324
 Alpha virt. eigenvalues --    1.47839   1.48011   1.48990   1.49872   1.52123
 Alpha virt. eigenvalues --    1.52658   1.54315   1.55764   1.56959   1.57831
 Alpha virt. eigenvalues --    1.59904   1.61363   1.63988   1.64967   1.66361
 Alpha virt. eigenvalues --    1.69789   1.72212   1.73166   1.74115   1.75433
 Alpha virt. eigenvalues --    1.78835   1.82546   1.83524   1.88718   2.24840
 Alpha virt. eigenvalues --    2.28600   2.31403   2.32797   2.35812   2.36942
 Alpha virt. eigenvalues --    2.37583   2.38172   2.41487   2.43772   2.45511
 Alpha virt. eigenvalues --    2.48076   2.50711   2.52777   2.53217   2.54886
 Alpha virt. eigenvalues --    2.56190   2.57525   2.59940   2.60623   2.61382
 Alpha virt. eigenvalues --    2.63043   2.65337   2.66174   2.67172   2.68504
 Alpha virt. eigenvalues --    2.69219   2.70805   2.71723   2.72904   2.75022
 Alpha virt. eigenvalues --    2.75787   2.76917   2.79017   2.79417   2.81137
 Alpha virt. eigenvalues --    2.81664   2.82292   2.84269   2.86622   2.87489
 Alpha virt. eigenvalues --    2.89697   2.90290   2.91580   2.92795   2.93436
 Alpha virt. eigenvalues --    2.95573   2.96751   2.97246   2.98299   3.00881
 Alpha virt. eigenvalues --    3.01674   3.01983   3.03891   3.04551   3.05401
 Alpha virt. eigenvalues --    3.05946   3.07945   3.08116   3.08494   3.09623
 Alpha virt. eigenvalues --    3.10355   3.12185   3.13405   3.14005   3.14717
 Alpha virt. eigenvalues --    3.14947   3.15606   3.16003   3.18518   3.19788
 Alpha virt. eigenvalues --    3.22007   3.22602   3.23835   3.24125   3.25646
 Alpha virt. eigenvalues --    3.26449   3.27869   3.28352   3.29348   3.31642
 Alpha virt. eigenvalues --    3.32198   3.33995   3.34777   3.35681   3.36504
 Alpha virt. eigenvalues --    3.37479   3.39609   3.40407   3.41776   3.42866
 Alpha virt. eigenvalues --    3.44649   3.46572   3.46863   3.47457   3.49594
 Alpha virt. eigenvalues --    3.51854   3.52644   3.53949   3.55184   3.57231
 Alpha virt. eigenvalues --    3.57680   3.58445   3.59802   3.60588   3.62182
 Alpha virt. eigenvalues --    3.64696   3.65485   3.66666   3.67472   3.69079
 Alpha virt. eigenvalues --    3.71713   3.72314   3.72981   3.73978   3.74005
 Alpha virt. eigenvalues --    3.75406   3.78181   3.78368   3.79049   3.80268
 Alpha virt. eigenvalues --    3.80777   3.82966   3.83967   3.84739   3.87271
 Alpha virt. eigenvalues --    3.88818   3.89605   3.91003   3.92051   3.92359
 Alpha virt. eigenvalues --    3.93148   3.94740   3.95100   3.96876   3.97058
 Alpha virt. eigenvalues --    3.99511   4.00062   4.00581   4.01248   4.02276
 Alpha virt. eigenvalues --    4.03562   4.04209   4.05775   4.07903   4.08407
 Alpha virt. eigenvalues --    4.08685   4.10073   4.11581   4.13916   4.14088
 Alpha virt. eigenvalues --    4.14877   4.15877   4.18109   4.18260   4.20054
 Alpha virt. eigenvalues --    4.21878   4.22649   4.23369   4.24596   4.26300
 Alpha virt. eigenvalues --    4.26619   4.28627   4.29347   4.29877   4.32383
 Alpha virt. eigenvalues --    4.33503   4.34185   4.36247   4.39720   4.40850
 Alpha virt. eigenvalues --    4.41183   4.44480   4.45420   4.46954   4.48329
 Alpha virt. eigenvalues --    4.50201   4.52330   4.54189   4.55059   4.58143
 Alpha virt. eigenvalues --    4.61031   4.64460   4.66160   4.67426   4.68569
 Alpha virt. eigenvalues --    4.69042   4.73468   4.74236   4.75431   4.75753
 Alpha virt. eigenvalues --    4.78871   4.80097   4.82631   4.82959   4.83982
 Alpha virt. eigenvalues --    4.84362   4.87423   4.88968   4.89894   4.90740
 Alpha virt. eigenvalues --    4.93042   4.94448   4.98398   4.98706   5.00525
 Alpha virt. eigenvalues --    5.02779   5.04312   5.07295   5.07443   5.09368
 Alpha virt. eigenvalues --    5.10701   5.14287   5.17881   5.19130   5.19283
 Alpha virt. eigenvalues --    5.21193   5.23815   5.25763   5.26726   5.26773
 Alpha virt. eigenvalues --    5.28379   5.30536   5.31859   5.34948   5.36928
 Alpha virt. eigenvalues --    5.38342   5.40289   5.42900   5.43600   5.46720
 Alpha virt. eigenvalues --    5.47834   5.50047   5.53309   5.55270   5.59917
 Alpha virt. eigenvalues --    5.61210   5.65769   5.66089   5.79410   5.81864
 Alpha virt. eigenvalues --    5.83889   5.86847   5.89415   5.92022   6.00343
 Alpha virt. eigenvalues --    6.03840   6.07898   6.08765  11.56267  12.16399
 Alpha virt. eigenvalues --   12.45457  13.01725  13.38064  13.67844  13.97065
          Condensed to atoms (all electrons):
               1          2          3          4          5          6
     1  C    5.074034   0.299278  -0.044107   0.316309   0.001469  -0.049390
     2  C    0.299278   5.112387   0.273508  -0.050941  -0.039486   0.007969
     3  C   -0.044107   0.273508   5.174842  -0.015569   0.294591  -0.003479
     4  C    0.316309  -0.050941  -0.015569   5.042302   0.001802   0.284781
     5  C    0.001469  -0.039486   0.294591   0.001802   5.098864  -0.004777
     6  C   -0.049390   0.007969  -0.003479   0.284781  -0.004777   5.075818
     7  C   -0.000232   0.008172  -0.053032   0.000981   0.306727  -0.015039
     8  H   -0.038236  -0.002436  -0.007574   0.409415   0.001029  -0.051562
     9  H   -0.047493   0.008399   0.001001   0.415781  -0.000256  -0.043207
    10  H    0.419248  -0.045763   0.002714  -0.049111  -0.000509   0.009555
    11  H    0.423148  -0.059326   0.009519  -0.045856  -0.000239  -0.004542
    12  H   -0.050505   0.421490  -0.061306   0.003724  -0.008502  -0.000693
    13  H   -0.045190   0.418291  -0.042402   0.008500   0.007557  -0.001059
    14  H    0.005640  -0.029192   0.396120  -0.000151  -0.037867   0.000849
    15  H   -0.008942  -0.052307   0.417218   0.002382  -0.052271  -0.014955
    16  H    0.000055  -0.003230  -0.036139  -0.000221   0.397355   0.000189
    17  H   -0.001179   0.002872  -0.063724   0.000929   0.430174  -0.004575
    18  H   -0.000118  -0.001122  -0.000819  -0.056264  -0.005643   0.402752
    19  H    0.008290  -0.000758  -0.000034  -0.039422   0.001335   0.411237
    20  H   -0.000938  -0.003898   0.004080  -0.052699  -0.018864   0.410242
    21  H   -0.000030   0.000287  -0.002631  -0.000084  -0.039693   0.000865
    22  H    0.000234  -0.000288  -0.004354   0.000533  -0.053142  -0.016190
    23  H    0.000026  -0.000586   0.008940  -0.000029  -0.040298   0.000940
               7          8          9         10         11         12
     1  C   -0.000232  -0.038236  -0.047493   0.419248   0.423148  -0.050505
     2  C    0.008172  -0.002436   0.008399  -0.045763  -0.059326   0.421490
     3  C   -0.053032  -0.007574   0.001001   0.002714   0.009519  -0.061306
     4  C    0.000981   0.409415   0.415781  -0.049111  -0.045856   0.003724
     5  C    0.306727   0.001029  -0.000256  -0.000509  -0.000239  -0.008502
     6  C   -0.015039  -0.051562  -0.043207   0.009555  -0.004542  -0.000693
     7  C    4.974689   0.000434  -0.000086   0.000065   0.000007   0.001153
     8  H    0.000434   0.625433  -0.035989  -0.011851   0.009280  -0.000725
     9  H   -0.000086  -0.035989   0.601947  -0.004057  -0.011666  -0.000303
    10  H    0.000065  -0.011851  -0.004057   0.602030  -0.034470   0.008908
    11  H    0.000007   0.009280  -0.011666  -0.034470   0.600113  -0.018192
    12  H    0.001153  -0.000725  -0.000303   0.008908  -0.018192   0.593000
    13  H   -0.000572   0.000235  -0.000465  -0.019459   0.003875  -0.034416
    14  H    0.000245  -0.000141   0.000041  -0.000107  -0.000507   0.003282
    15  H   -0.001679  -0.003904   0.000014   0.001264   0.000212   0.007760
    16  H   -0.030510  -0.000060   0.000012   0.000014   0.000011   0.002895
    17  H   -0.042572   0.000065  -0.000039  -0.000141  -0.000263  -0.002246
    18  H    0.001661   0.008893  -0.000812   0.000265   0.003259  -0.000548
    19  H    0.000310   0.001264  -0.015950  -0.000525   0.000046   0.000029
    20  H   -0.015440  -0.013045   0.009219  -0.000443  -0.000090  -0.000041
    21  H    0.397646  -0.000036   0.000004  -0.000004  -0.000000  -0.000043
    22  H    0.421451   0.000284  -0.000124   0.000007  -0.000003   0.000072
    23  H    0.401296  -0.000020   0.000003  -0.000002  -0.000003  -0.000055
              13         14         15         16         17         18
     1  C   -0.045190   0.005640  -0.008942   0.000055  -0.001179  -0.000118
     2  C    0.418291  -0.029192  -0.052307  -0.003230   0.002872  -0.001122
     3  C   -0.042402   0.396120   0.417218  -0.036139  -0.063724  -0.000819
     4  C    0.008500  -0.000151   0.002382  -0.000221   0.000929  -0.056264
     5  C    0.007557  -0.037867  -0.052271   0.397355   0.430174  -0.005643
     6  C   -0.001059   0.000849  -0.014955   0.000189  -0.004575   0.402752
     7  C   -0.000572   0.000245  -0.001679  -0.030510  -0.042572   0.001661
     8  H    0.000235  -0.000141  -0.003904  -0.000060   0.000065   0.008893
     9  H   -0.000465   0.000041   0.000014   0.000012  -0.000039  -0.000812
    10  H   -0.019459  -0.000107   0.001264   0.000014  -0.000141   0.000265
    11  H    0.003875  -0.000507   0.000212   0.000011  -0.000263   0.003259
    12  H   -0.034416   0.003282   0.007760   0.002895  -0.002246  -0.000548
    13  H    0.597198  -0.016444   0.003811  -0.000229   0.000462  -0.000022
    14  H   -0.016444   0.580257  -0.036632  -0.013460   0.007432  -0.000157
    15  H    0.003811  -0.036632   0.606861   0.007880   0.000596   0.000947
    16  H   -0.000229  -0.013460   0.007880   0.586203  -0.038935   0.000299
    17  H    0.000462   0.007432   0.000596  -0.038935   0.598178  -0.004261
    18  H   -0.000022  -0.000157   0.000947   0.000299  -0.004261   0.591204
    19  H    0.000038   0.000000   0.000684  -0.000037   0.001354  -0.023695
    20  H   -0.000028   0.000706  -0.002855   0.002405  -0.012313  -0.042941
    21  H    0.000017   0.002371  -0.001598  -0.006696   0.008366  -0.000124
    22  H   -0.000032   0.000052   0.002777   0.006322  -0.005522   0.001114
    23  H    0.000029  -0.000417   0.000302  -0.004850  -0.006549  -0.000047
              19         20         21         22         23
     1  C    0.008290  -0.000938  -0.000030   0.000234   0.000026
     2  C   -0.000758  -0.003898   0.000287  -0.000288  -0.000586
     3  C   -0.000034   0.004080  -0.002631  -0.004354   0.008940
     4  C   -0.039422  -0.052699  -0.000084   0.000533  -0.000029
     5  C    0.001335  -0.018864  -0.039693  -0.053142  -0.040298
     6  C    0.411237   0.410242   0.000865  -0.016190   0.000940
     7  C    0.000310  -0.015440   0.397646   0.421451   0.401296
     8  H    0.001264  -0.013045  -0.000036   0.000284  -0.000020
     9  H   -0.015950   0.009219   0.000004  -0.000124   0.000003
    10  H   -0.000525  -0.000443  -0.000004   0.000007  -0.000002
    11  H    0.000046  -0.000090  -0.000000  -0.000003  -0.000003
    12  H    0.000029  -0.000041  -0.000043   0.000072  -0.000055
    13  H    0.000038  -0.000028   0.000017  -0.000032   0.000029
    14  H    0.000000   0.000706   0.002371   0.000052  -0.000417
    15  H    0.000684  -0.002855  -0.001598   0.002777   0.000302
    16  H   -0.000037   0.002405  -0.006696   0.006322  -0.004850
    17  H    0.001354  -0.012313   0.008366  -0.005522  -0.006549
    18  H   -0.023695  -0.042941  -0.000124   0.001114  -0.000047
    19  H    0.586739  -0.039403   0.000017   0.001415  -0.000027
    20  H   -0.039403   0.683775   0.000582  -0.010827   0.000618
    21  H    0.000017   0.000582   0.586747  -0.038164  -0.028370
    22  H    0.001415  -0.010827  -0.038164   0.610790  -0.031709
    23  H   -0.000027   0.000618  -0.028370  -0.031709   0.592279
 Mulliken charges:
               1
     1  C   -0.261372
     2  C   -0.263322
     3  C   -0.247363
     4  C   -0.177090
     5  C   -0.239356
     6  C   -0.395729
     7  C   -0.355677
     8  H    0.109250
     9  H    0.124027
    10  H    0.122370
    11  H    0.125688
    12  H    0.135263
    13  H    0.120304
    14  H    0.138081
    15  H    0.122435
    16  H    0.130728
    17  H    0.131891
    18  H    0.126179
    19  H    0.107094
    20  H    0.102197
    21  H    0.120570
    22  H    0.115303
    23  H    0.108530
 Sum of Mulliken charges =  -0.00000
 Mulliken charges with hydrogens summed into heavy atoms:
               1
     1  C   -0.013314
     2  C   -0.007755
     3  C    0.013153
     4  C    0.056188
     5  C    0.023263
     6  C   -0.060260
     7  C   -0.011275
 APT charges:
               1
     1  C   -0.937220
     2  C   -0.785178
     3  C   -0.533810
     4  C   -0.715559
     5  C   -0.563958
     6  C   -0.943652
     7  C   -1.201767
     8  H    0.263020
     9  H    0.501683
    10  H    0.448577
    11  H    0.400787
    12  H    0.313946
    13  H    0.451442
    14  H    0.432681
    15  H    0.219390
    16  H    0.442549
    17  H    0.236739
    18  H    0.245160
    19  H    0.483971
    20  H    0.192319
    21  H    0.407888
    22  H    0.161483
    23  H    0.479511
 Sum of APT charges =  -0.00000
 APT charges with hydrogens summed into heavy atoms:
               1
     1  C   -0.087857
     2  C   -0.019791
     3  C    0.118260
     4  C    0.049144
     5  C    0.115330
     6  C   -0.022202
     7  C   -0.152884
 Electronic spatial extent (au):  <R**2>=            996.7153
 Charge=             -0.0000 electrons
 Dipole moment (field-independent basis, Debye):
    X=             -0.0023    Y=             -0.1323    Z=             -0.0037  Tot=              0.1324
 Quadrupole moment (field-independent basis, Debye-Ang):
   XX=            -49.4676   YY=            -49.1870   ZZ=            -48.9772
   XY=              0.4363   XZ=             -0.0346   YZ=              0.3268
 Traceless Quadrupole moment (field-independent basis, Debye-Ang):
   XX=             -0.2570   YY=              0.0237   ZZ=              0.2334
   XY=              0.4363   XZ=             -0.0346   YZ=              0.3268
 Octapole moment (field-independent basis, Debye-Ang**2):
  XXX=              0.1967  YYY=             -1.8443  ZZZ=              0.9245  XYY=              0.5497
  XXY=             -1.2026  XXZ=              0.8425  XZZ=              0.3431  YZZ=             -0.5613
  YYZ=             -1.4186  XYZ=             -0.0161
 Hexadecapole moment (field-independent basis, Debye-Ang**3):
 XXXX=           -840.0895 YYYY=           -429.5750 ZZZZ=           -147.3982 XXXY=              6.3456
 XXXZ=             -2.9123 YYYX=              4.6954 YYYZ=              2.3086 ZZZX=              1.2621
 ZZZY=              0.1736 XXYY=           -210.7731 XXZZ=           -162.2127 YYZZ=            -99.2682
 XXYZ=              4.6476 YYXZ=             -1.4641 ZZXY=             -1.1152
 N-N= 3.387345509132D+02 E-N=-1.315926196196D+03  KE= 2.745623102761D+02
  Exact polarizability:   0.000   0.000   0.000   0.000   0.000   0.000
 Approx polarizability:  99.325   1.125  98.510   0.058  -0.239  98.880
 No NMR shielding tensors so no spin-rotation constants.
 Leave Link  601 at Fri Sep 27 16:30:07 2019, MaxMem=   671088640 cpu:              67.1 elap:              33.6
 (Enter /shared/centos7/gaussian/g16/l701.exe)
 SCFChk:  SCF convergence  8.07D-09 required  1.00D-08
 ... and contract with generalized density number  0.
 Compute integral second derivatives.
 Entering OneElI...
 Calculate overlap and kinetic energy integrals
    NBasis = 485  MinDer = 2  MaxDer = 2
 Requested accuracy = 0.1000D-12
 PrmmSu-InSpLW:  IPartL=    0 NPrtUS=   20 NPrtUL=    1 DoSpLW=F IThBeg=    0 IThEnd=   19 NThAct=   20.
 PrsmSu:  NPrtUS=  20 ThrOK=T IAlg=1 NPAlg=1 LenDen=           0 ISkipM=0 DoSpLW=F IThBeg=    0 IThEnd=   19.
 Prism:   IPart=     0 DynPar=F LinDyn=F Incr=           6.
 PRISM was handed    33194389 working-precision words and 13783 shell-pairs
 PRISM was handed    33194389 working-precision words and 13783 shell-pairs
 PRISM was handed    33194389 working-precision words and 13783 shell-pairs
 PRISM was handed    33194389 working-precision words and 13783 shell-pairs
 PRISM was handed    33194389 working-precision words and 13783 shell-pairs
 PRISM was handed    33194389 working-precision words and 13783 shell-pairs
 PRISM was handed    33194389 working-precision words and 13783 shell-pairs
 PRISM was handed    33194389 working-precision words and 13783 shell-pairs
 PRISM was handed    33194389 working-precision words and 13783 shell-pairs
 PRISM was handed    33194389 working-precision words and 13783 shell-pairs
 PRISM was handed    33194389 working-precision words and 13783 shell-pairs
 PRISM was handed    33194389 working-precision words and 13783 shell-pairs
 PRISM was handed    33194389 working-precision words and 13783 shell-pairs
 PRISM was handed    33194389 working-precision words and 13783 shell-pairs
 PRISM was handed    33194389 working-precision words and 13783 shell-pairs
 IPart=  4 NShTot=         709 NBatch=          72 AvBLen=         9.8
 IPart= 16 NShTot=         667 NBatch=          49 AvBLen=        13.6
 IPart=  0 NShTot=         726 NBatch=          80 AvBLen=         9.1
 IPart= 10 NShTot=         685 NBatch=          59 AvBLen=        11.6
 PRISM was handed    33194389 working-precision words and 13783 shell-pairs
 PRISM was handed    33194389 working-precision words and 13783 shell-pairs
 IPart=  7 NShTot=         696 NBatch=          63 AvBLen=        11.0
 PRISM was handed    33194389 working-precision words and 13783 shell-pairs
 PRISM was handed    33194389 working-precision words and 13783 shell-pairs
 PRISM was handed    33194389 working-precision words and 13783 shell-pairs
 IPart= 14 NShTot=         670 NBatch=          52 AvBLen=        12.9
 IPart= 18 NShTot=         663 NBatch=          48 AvBLen=        13.8
 IPart=  8 NShTot=         692 NBatch=          61 AvBLen=        11.3
 IPart= 11 NShTot=         677 NBatch=          56 AvBLen=        12.1
 IPart= 19 NShTot=         662 NBatch=          48 AvBLen=        13.8
 IPart=  3 NShTot=         719 NBatch=          77 AvBLen=         9.3
 IPart=  2 NShTot=         719 NBatch=          77 AvBLen=         9.3
 IPart=  9 NShTot=         689 NBatch=          61 AvBLen=        11.3
 IPart=  6 NShTot=         702 NBatch=          68 AvBLen=        10.3
 IPart=  1 NShTot=         722 NBatch=          79 AvBLen=         9.1
 IPart= 12 NShTot=         673 NBatch=          53 AvBLen=        12.7
 IPart= 15 NShTot=         669 NBatch=          51 AvBLen=        13.1
 IPart= 17 NShTot=         666 NBatch=          49 AvBLen=        13.6
 IPart= 13 NShTot=         672 NBatch=          52 AvBLen=        12.9
 IPart=  5 NShTot=         705 NBatch=          69 AvBLen=        10.2
 PrSmSu:  NxtVal=            121.
 Entering OneElI...
 Calculate potential energy integrals
    NBasis = 485  MinDer = 2  MaxDer = 2
 Requested accuracy = 0.1000D-12
 PrmmSu-InSpLW:  IPartL=    0 NPrtUS=   20 NPrtUL=    1 DoSpLW=F IThBeg=    0 IThEnd=   19 NThAct=   20.
 PrsmSu:  NPrtUS=  20 ThrOK=T IAlg=1 NPAlg=1 LenDen=           0 ISkipM=0 DoSpLW=F IThBeg=    0 IThEnd=   19.
 Prism:   IPart=     0 DynPar=F LinDyn=F Incr=         146.
 PRISM was handed    33255059 working-precision words and 12714 shell-pairs
 PRISM was handed    33255059 working-precision words and 12714 shell-pairs
 PRISM was handed    33255059 working-precision words and 12714 shell-pairs
 PRISM was handed    33255059 working-precision words and 12714 shell-pairs
 PRISM was handed    33255059 working-precision words and 12714 shell-pairs
 PRISM was handed    33255059 working-precision words and 12714 shell-pairs
 PRISM was handed    33255059 working-precision words and 12714 shell-pairs
 PRISM was handed    33255059 working-precision words and 12714 shell-pairs
 PRISM was handed    33255059 working-precision words and 12714 shell-pairs
 PRISM was handed    33255059 working-precision words and 12714 shell-pairs
 PRISM was handed    33255059 working-precision words and 12714 shell-pairs
 PRISM was handed    33255059 working-precision words and 12714 shell-pairs
 PRISM was handed    33255059 working-precision words and 12714 shell-pairs
 PRISM was handed    33255059 working-precision words and 12714 shell-pairs
 PRISM was handed    33255059 working-precision words and 12714 shell-pairs
 PRISM was handed    33255059 working-precision words and 12714 shell-pairs
 PRISM was handed    33255059 working-precision words and 12714 shell-pairs
 PRISM was handed    33255059 working-precision words and 12714 shell-pairs
 PRISM was handed    33255059 working-precision words and 12714 shell-pairs
 PRISM was handed    33255059 working-precision words and 12714 shell-pairs
 IPart= 18 NShTot=       14076 NBatch=         613 AvBLen=        23.0
 IPart= 17 NShTot=       14145 NBatch=         616 AvBLen=        23.0
 IPart=  0 NShTot=       15364 NBatch=         670 AvBLen=        22.9
 IPart=  8 NShTot=       14536 NBatch=         633 AvBLen=        23.0
 IPart=  2 NShTot=       15226 NBatch=         664 AvBLen=        22.9
 IPart= 16 NShTot=       14191 NBatch=         618 AvBLen=        23.0
 IPart=  4 NShTot=       15111 NBatch=         659 AvBLen=        22.9
 IPart= 12 NShTot=       14375 NBatch=         626 AvBLen=        23.0
 IPart= 14 NShTot=       14352 NBatch=         625 AvBLen=        23.0
 IPart=  6 NShTot=       14812 NBatch=         646 AvBLen=        22.9
 IPart= 19 NShTot=       14007 NBatch=         610 AvBLen=        23.0
 IPart= 10 NShTot=       14490 NBatch=         631 AvBLen=        23.0
 IPart=  5 NShTot=       15042 NBatch=         656 AvBLen=        22.9
 IPart=  7 NShTot=       14605 NBatch=         637 AvBLen=        22.9
 IPart=  9 NShTot=       14513 NBatch=         632 AvBLen=        23.0
 IPart= 15 NShTot=       14306 NBatch=         623 AvBLen=        23.0
 IPart=  3 NShTot=       15134 NBatch=         660 AvBLen=        22.9
 IPart= 13 NShTot=       14375 NBatch=         626 AvBLen=        23.0
 IPart=  1 NShTot=       15318 NBatch=         668 AvBLen=        22.9
 IPart= 11 NShTot=       14444 NBatch=         629 AvBLen=        23.0
 PrSmSu:  NxtVal=           2921.
 Polarizability after L701:
                1             2             3 
      1  0.000000D+00
      2  0.000000D+00  0.000000D+00
      3  0.000000D+00  0.000000D+00  0.000000D+00
 Dipole Derivatives after L701:
                 1             2             3             4             5 
      1  -0.178152D+01  0.535943D+00 -0.265277D+00 -0.317594D-01  0.573803D+00
      2   0.590205D+00 -0.224046D+00 -0.186398D+00  0.105533D+00 -0.152537D+01
      3  -0.115057D+00 -0.242028D+00 -0.806098D+00  0.229655D+00  0.101599D-01
                 6             7             8             9            10 
      1  -0.664892D-01 -0.264921D+00 -0.333422D+00 -0.363951D+00 -0.104075D+01
      2   0.445653D+00 -0.437386D+00 -0.658621D+00 -0.619096D+00 -0.718829D+00
      3  -0.798407D+00 -0.479973D-01  0.211241D-01 -0.677889D+00 -0.748179D-01
                11            12            13            14            15 
      1  -0.761549D+00  0.678817D+00 -0.428412D+00 -0.653555D+00  0.973757D+00
      2  -0.348860D+00  0.483438D+00 -0.380589D+00 -0.507932D+00  0.160054D+00
      3   0.110270D+00 -0.757073D+00 -0.392874D-01 -0.168865D-01 -0.755529D+00
                16            17            18            19            20 
      1  -0.372541D+00 -0.364253D+00 -0.393291D+00 -0.166624D+01  0.818121D+00
      2   0.484597D+00 -0.152455D+01 -0.415117D+00  0.370937D-01 -0.101385D+01
      3  -0.508084D-01  0.173412D-01 -0.933863D+00  0.827548D-01 -0.580597D-01
                21            22            23            24            25 
      1  -0.469704D+00  0.226550D-01 -0.473573D-01 -0.465909D+00  0.950300D+00
      2   0.256889D-02 -0.958973D-01  0.112447D+00 -0.274317D+00  0.415196D+00
      3  -0.925213D+00  0.163063D+00  0.528694D-01  0.653959D+00 -0.725088D-01
                26            27            28            29            30 
      1   0.474991D+00  0.105618D+00  0.703893D+00 -0.403044D+00 -0.614216D+00
      2   0.435186D+00  0.585545D-01 -0.209865D+00  0.337432D+00  0.238963D+00
      3  -0.441229D-01  0.119563D+00 -0.162264D+00  0.112687D+00  0.304405D+00
                31            32            33            34            35 
      1   0.554519D+00  0.483024D-01  0.732608D+00  0.150354D+00 -0.759822D-02
      2  -0.529927D-01  0.142447D+00 -0.164000D+00  0.683761D-01  0.161594D+00
      3   0.179203D+00 -0.574732D-02  0.505394D+00 -0.673954D-01 -0.127680D-01
                36            37            38            39            40 
      1   0.157155D+00  0.253111D+00 -0.322938D+00 -0.130894D+00  0.305661D+00
      2  -0.516701D+00 -0.205105D+00  0.952124D+00  0.330456D+00  0.259942D+00
      3   0.629890D+00 -0.199213D-01  0.699647D-01  0.149090D+00  0.134323D+00
                41            42            43            44            45 
      1   0.284119D+00  0.140178D+00  0.115810D+00 -0.468713D-01  0.634356D-01
      2   0.704418D+00  0.288281D+00  0.454741D-02  0.115134D+00  0.426697D-01
      3   0.302998D+00  0.287965D+00 -0.128913D+00 -0.345443D+00  0.427225D+00
                46            47            48            49            50 
      1   0.571150D+00  0.593363D+00 -0.284078D+00  0.120275D-01 -0.178690D+00
      2   0.257841D+00  0.509522D+00 -0.148853D+00  0.380240D-01  0.201162D+00
      3  -0.181371D+00 -0.223636D+00  0.246975D+00  0.227949D+00  0.248034D+00
                51            52            53            54            55 
      1  -0.286344D+00  0.851904D-01 -0.593205D-01  0.204246D+00  0.196732D+00
      2   0.338139D-01 -0.949295D-01 -0.133358D-01  0.424006D+00  0.238385D+00
      3   0.497026D+00 -0.682745D-01 -0.161757D+00  0.663626D+00  0.548156D-02
                56            57            58            59            60 
      1   0.313109D+00 -0.495276D-01  0.367970D+00  0.932560D-01  0.967825D-01
      2   0.117874D+01 -0.117792D+00 -0.455631D+00  0.265100D-01 -0.141137D+00
      3   0.889337D-01  0.764430D-01  0.902504D-01  0.169659D-01  0.182478D+00
                61            62            63            64            65 
      1   0.631575D+00  0.411617D+00  0.877865D+00 -0.256257D+00 -0.511083D+00
      2   0.106079D-01  0.142682D+00  0.646461D-02  0.384410D+00  0.567361D+00
      3   0.210737D+00  0.172305D+00  0.449408D+00 -0.130466D+00 -0.186399D+00
                66            67            68            69 
      1   0.207921D+00  0.921447D+00 -0.456941D+00 -0.848703D+00
      2  -0.168693D+00 -0.243533D+00  0.229809D+00  0.237183D+00
      3   0.173346D+00 -0.164335D+00  0.731937D-01  0.287278D+00
 Hessian after L701:
                1             2             3             4             5 
      1  0.158028D+02
      2 -0.166612D+00  0.155036D+02
      3 -0.774775D-01  0.227453D+00  0.178782D+02
      4 -0.376434D+01  0.188827D+01 -0.384753D+00  0.153982D+02
      5  0.190121D+01 -0.480947D+01 -0.170986D+00 -0.212198D+00  0.161238D+02
      6 -0.360161D+00 -0.144409D+00 -0.603840D+01 -0.144496D+00  0.161170D+00
      7  0.281922D+00  0.694248D-01  0.181613D+00 -0.306676D+01 -0.878992D+00
      8  0.533060D-01 -0.760054D-01  0.915846D-02 -0.830648D+00 -0.571469D+01
      9  0.917342D-01 -0.131277D-01 -0.809005D-01  0.143481D+01 -0.330784D+00
     10 -0.627755D+01 -0.517367D+00  0.160925D+00  0.228214D-01  0.111913D+00
     11 -0.542764D+00 -0.256494D+01 -0.116618D+01  0.147353D+00  0.296963D+00
     12  0.175172D+00 -0.113743D+01 -0.588791D+01 -0.764726D-02 -0.287483D-01
     13  0.242331D+00 -0.363169D-02 -0.444045D-01  0.314887D+00 -0.229992D+00
     14  0.982834D-02 -0.136008D+00 -0.619369D-02 -0.315161D+00 -0.460243D-01
     15  0.449809D-02 -0.475219D-02 -0.150298D+00  0.369312D-01 -0.130507D-01
     16 -0.103023D-01 -0.217079D+00 -0.100545D+00 -0.215355D+00 -0.145483D-01
     17 -0.177286D+00  0.300875D+00  0.140707D+00 -0.468016D-01  0.306315D+00
     18 -0.670191D-01  0.647043D-01 -0.101959D+00  0.159704D-03 -0.176317D-01
     19  0.724731D-01 -0.375158D-01  0.869302D-02  0.188512D+00 -0.183313D+00
     20 -0.259143D-01 -0.527026D-01 -0.554079D-02 -0.181647D+00 -0.348493D-01
     21  0.671634D-03 -0.384270D-02 -0.634968D-01  0.490467D-01 -0.318868D-01
     22  0.535965D-01  0.443822D-01 -0.209411D-01 -0.147935D-01  0.600870D-02
     23  0.895081D-01 -0.211807D-01  0.935970D-01  0.112456D-01  0.127072D-01
     24 -0.684812D-01  0.635456D-01  0.107669D+00 -0.119990D-01 -0.293710D-01
     25  0.146829D+00 -0.458085D-01  0.271843D-01  0.310024D-01  0.114176D+00
     26 -0.356766D-01 -0.903086D-01  0.571763D-01  0.102332D+00  0.963591D-01
     27  0.290632D-01  0.670397D-01  0.829683D-01 -0.170530D-01 -0.243933D-01
     28 -0.310725D+01 -0.743954D+00 -0.107380D+01 -0.300176D-01 -0.138695D+00
     29 -0.727870D+00 -0.386992D+01  0.654259D+00 -0.114337D+00  0.812941D-01
     30 -0.101148D+01  0.628975D+00 -0.336354D+01  0.454534D-02  0.662003D-01
     31 -0.357640D+01  0.203483D-01  0.123905D+01 -0.147133D+00 -0.152132D+00
     32 -0.158810D-01 -0.438079D+01 -0.136160D-01 -0.111619D+00  0.120856D+00
     33  0.115198D+01  0.388632D-01 -0.249969D+01 -0.625331D-01 -0.421756D-01
     34 -0.238995D-01 -0.110698D+00  0.883350D-01 -0.457237D+01  0.602425D-01
     35 -0.157047D+00  0.484119D-01  0.914764D-01  0.977783D-01 -0.452190D+01
     36  0.114270D+00  0.706276D-01  0.153328D+00 -0.492324D+00 -0.366611D+00
     37  0.509647D-01 -0.122374D+00  0.321088D-02 -0.423103D+01 -0.556351D+00
     38 -0.143651D+00 -0.107982D-01  0.481359D-01 -0.532214D+00 -0.212245D+01
     39  0.527873D-02  0.554291D-01  0.117702D+00 -0.148425D+00  0.585197D+00
     40  0.807912D-01  0.594200D-01  0.441019D-01 -0.292155D-01  0.836509D-01
     41  0.687810D-01 -0.385281D-02  0.282069D-01  0.861681D-01  0.137953D+00
     42  0.528438D-01  0.269901D-01 -0.233726D-01 -0.228237D-01  0.779474D-01
     43 -0.294476D-02  0.263751D-01 -0.284269D-01  0.465650D-01  0.148038D+00
     44 -0.162311D-03 -0.379516D-03 -0.497303D-02  0.976456D-01  0.118942D+00
     45 -0.976776D-02  0.170521D-01 -0.185591D-01 -0.173407D+00  0.127872D+00
     46  0.208484D-01  0.835167D-02 -0.931869D-02  0.213161D-01 -0.663442D-03
     47  0.118500D-01 -0.503766D-02 -0.444634D-02  0.804433D-02 -0.801097D-02
     48 -0.882371D-02 -0.245503D-02 -0.821423D-02 -0.154458D-01 -0.108632D-02
     49 -0.438647D-02 -0.451026D-02 -0.117859D-01  0.373329D-01 -0.145111D-01
     50 -0.132809D-01 -0.114267D-01  0.106223D-01 -0.548125D-01 -0.510347D-01
[...]
 0522564,0.01302537,-0.06013505,-0.07565943,-0.05530177,0.00001054,0.00
 011595,0.00003890,-0.02288384,-0.01399501,-0.02057683,0.00004482,-0.00
 000272,0.00017498,-0.00087964,0.00163188,-0.00120881,0.00002504,0.0000
 8652,-0.00017871,-0.00002554,0.00001244,-0.00008916,-0.00056243,-0.000
 07890,-0.00025055,-0.00019235,0.00023079,-0.00013477,0.00019522,-0.002
 11120,0.00369652,-0.00032883,0.00047969,-0.00079205,0.06536185,0.08720
 137,0.00005973,-0.00151848,0.00099144,-0.02041641,-0.00807098,-0.01944
 255,-0.10973928,-0.05557419,-0.14872889,-0.00005708,0.00033392,0.00024
 263,-0.00561154,-0.00349734,-0.00610941,0.00005639,-0.00008166,0.00009
 329,0.00051365,0.00067607,0.00071949,-0.00022239,0.00019703,-0.0001214
 7,-0.00007783,0.00003526,0.00002748,0.00031619,0.00094337,0.00037724,0
 .00046205,-0.00013874,0.00022459,0.00051429,0.00324756,-0.00404041,0.0
 0037213,-0.00064441,0.00062698,0.12286726,0.06003266,0.16465292,-0.000
 28944,0.00003472,0.00062412,0.00141318,-0.00070630,-0.00047568,-0.2495
 7814,0.00677696,0.10357989,-0.00029869,0.00068708,0.00103713,-0.006889
 52,0.00102960,0.00340074,0.00026999,0.00054861,-0.00010696,0.00029151,
 -0.00062350,-0.00008980,-0.00003013,0.00066376,-0.00076951,-0.00000594
 ,0.00013582,-0.00042484,0.00005201,0.00006983,0.00001038,0.00012253,-0
 .00023708,-0.00005623,0.00066550,-0.00033181,0.00034278,0.00149392,0.0
 0035909,-0.00057390,-0.02037130,0.00085618,0.01007098,0.27053465,-0.00
 069042,0.00083049,-0.00015881,-0.01810768,0.00035182,0.00890910,0.0070
 6382,-0.04604657,-0.00420131,0.00027051,-0.00108249,0.00001774,0.03037
 072,-0.00435314,-0.01463690,0.00014804,-0.00014043,-0.00015878,0.00067
 191,0.00181667,-0.00110518,0.00047106,-0.00192183,-0.00029441,-0.00002
 423,0.00019322,-0.00015463,0.00004552,-0.00003969,0.00006410,0.0002893
 7,0.00014041,-0.00013275,0.00052903,0.00072356,-0.00072952,0.00043318,
 -0.00214267,0.00331155,-0.01005303,-0.00025759,0.00544480,-0.01122747,
 0.05619467,-0.00002053,-0.00089810,0.00022011,0.02506837,-0.00039731,-
 0.01446072,0.10312161,-0.00437621,-0.10191057,0.00018443,0.00003077,0.
 00022963,0.00779153,-0.00102607,-0.00460608,-0.00004598,0.00038072,0.0
 0007945,-0.00081778,0.00050645,0.00056892,-0.00000855,-0.00041315,0.00
 046099,-0.00014794,-0.00016374,0.00019591,-0.00005264,0.00002926,0.000
 01459,-0.00009217,-0.00001534,0.00005755,-0.00001932,-0.00086222,0.000
 97582,-0.00018127,0.00345681,-0.00413443,-0.01840236,0.00102056,0.0098
 3739,-0.11596854,0.00430688,0.11243456,0.00039309,0.00018554,-0.000285
 11,0.00003911,-0.00073237,0.00024313,-0.00668878,0.00099609,0.00309203
 ,-0.00001494,-0.00019522,0.00011852,-0.25553483,0.00940534,0.10217842,
 0.00001503,-0.00006817,-0.00003734,0.00160805,-0.00028053,-0.00096751,
 0.00000392,-0.00000762,-0.00010058,0.00006263,0.00000937,-0.00006113,-
 0.00002041,0.00001024,0.00001884,-0.00002834,0.00008823,-0.00001324,-0
 .00002520,0.00002673,0.00006688,0.00027401,0.00057053,-0.00062234,0.00
 081699,0.00032169,-0.00000751,0.00148328,0.00141162,0.00023329,0.27550
 872,-0.00024115,0.00002398,-0.00012538,0.00087982,0.00176836,-0.001552
 88,0.03063174,-0.00424225,-0.01409172,0.00007383,-0.00003704,-0.000219
 76,0.00901463,-0.04685997,-0.00573989,-0.00005017,0.00000749,0.0000451
 2,-0.01884767,-0.00024388,0.00991077,-0.00002503,0.00001813,0.00026039
 ,-0.00000457,-0.00008232,0.00015165,-0.00000893,-0.00003064,-0.0000255
 1,-0.00003275,0.00000386,0.00002291,-0.00004757,-0.00003445,0.00008072
 ,-0.00062758,-0.00021201,0.00072490,-0.00063084,0.00142153,0.00016460,
 0.00136880,-0.00600648,-0.00129015,-0.01221767,0.05561430,-0.00009822,
 -0.00001618,0.00002973,-0.00083029,0.00055090,0.00035503,0.00799938,-0
 .00129422,-0.00460738,-0.00001174,0.00008104,-0.00012096,0.10111819,-0
 .00579673,-0.09931335,-0.00001688,0.00000121,0.00002087,0.02486549,-0.
 00005911,-0.01356940,0.00002755,-0.00000555,0.00006456,-0.00001444,-0.
 00000827,0.00003676,-0.00001612,-0.00003634,-0.00003548,-0.00001376,-0
 .00001028,0.00000686,-0.00009025,-0.00002926,0.00001593,-0.00000059,0.
 00003585,0.00045514,0.00010912,0.00029060,-0.00009415,0.00027381,-0.00
 144222,0.00012940,-0.11359366,0.00412228,0.10893506,0.00020053,-0.0000
 0137,0.00030109,0.00025577,-0.00003050,0.00028627,0.00500219,0.0028788
 1,0.00483423,0.00000072,0.00001803,-0.00003090,-0.17015956,-0.05956890
 ,-0.11343035,0.00000315,0.00004569,0.00002298,0.00046042,0.00058034,0.
 00084992,0.00000792,0.00001191,0.00003452,-0.00000921,-0.00000963,0.00
 000958,-0.00005995,0.00011853,-0.00001841,-0.00000923,-0.00009623,-0.0
 0001324,0.00011078,-0.00039273,0.00015071,-0.00012667,-0.00009624,-0.0
 0011731,0.00119138,0.00181312,0.00058703,0.00075403,-0.00060791,0.0001
 2752,-0.02038087,-0.00993489,-0.01895759,0.18068588,0.00025570,-0.0000
 6399,0.00012944,-0.00098348,0.00166198,-0.00136565,-0.02293789,-0.0141
 0504,-0.02102851,-0.00000820,0.00008206,-0.00010650,-0.05944196,-0.075
 41508,-0.05693245,-0.00003816,-0.00012981,0.00003391,0.01497369,0.0063
 5037,0.01462141,-0.00007734,0.00002746,0.00008770,0.00000962,-0.000007
 13,0.00005449,0.00014180,0.00027093,0.00011371,0.00008003,-0.00003731,
 0.00006745,0.00061926,-0.00029781,0.00081343,-0.00006497,-0.00004094,0
 .00013225,0.00191099,-0.00595632,-0.00125960,0.00031059,0.00139920,0.0
 0029433,0.00100926,-0.00010867,0.00131712,0.06430490,0.08706458,0.0003
 2281,0.00006533,0.00012549,0.00026616,0.00074894,0.00055002,-0.0055693
 3,-0.00372404,-0.00602462,-0.00003798,-0.00000752,-0.00005254,-0.11244
 409,-0.05655387,-0.15513193,-0.00001345,-0.00009396,0.00000526,-0.0189
 7029,-0.00813581,-0.01901538,-0.00002208,0.00000012,0.00003451,0.00003
 229,-0.00000104,0.00001127,-0.00002286,0.00018014,-0.00005140,0.000014
 45,-0.00005499,0.00001383,-0.00003789,-0.00019540,0.00057396,0.0001286
 4,-0.00015598,0.00000640,0.00059150,-0.00127964,0.00023776,0.00000051,
 0.00017244,-0.00012282,0.00962129,0.00528314,0.00994995,0.12519674,0.0
 6082032,0.17086973,0.00186018,0.00084476,-0.00120825,-0.00004036,0.000
 07028,0.00004778,0.00000519,-0.00004646,-0.00017822,-0.00311514,0.0112
 9974,-0.02771739,-0.00001690,-0.00003439,0.00009614,-0.04719791,0.0059
 1874,-0.01361575,-0.00000103,-0.00002039,-0.00000279,-0.00490030,-0.00
 220837,-0.00265122,0.00102329,-0.00000700,0.00072651,0.00040246,-0.000
 25267,0.00025352,-0.00017506,-0.00039340,0.00076151,0.00002384,0.00020
 821,0.00004748,0.00003897,0.00004361,0.00008099,0.00005194,0.00001588,
 0.00005813,-0.00005430,-0.00013654,0.00002711,-0.00001127,0.00002691,0
 .00000446,0.00000577,0.00002617,0.00001038,0.05121529,0.00059297,0.000
 39468,0.00011695,0.00007008,0.00010088,0.00043297,-0.00020433,-0.00002
 043,0.00017218,-0.00060595,0.00408828,-0.01103716,0.00007378,0.0000441
 7,-0.00000408,0.00605375,-0.08145932,0.08814143,-0.00002626,-0.0000024
 5,0.00000243,-0.00220088,0.00014246,-0.00108158,0.00073706,0.00036778,
 -0.00012002,0.00013820,-0.00012132,-0.00011737,0.00022120,-0.00005704,
 0.00026950,-0.00017272,-0.00029073,-0.00007514,-0.00002390,0.00001711,
 -0.00009597,0.00015949,-0.00000196,-0.00011562,-0.00004725,0.00012988,
 -0.00024755,0.00002999,-0.00004071,-0.00000884,-0.00003728,0.00000245,
 0.00001995,-0.00477065,0.08400905,0.00112408,-0.00023469,0.00102705,-0
 .00024539,0.00009525,0.00014023,0.00021600,0.00001350,0.00005915,-0.00
 162561,0.00513620,-0.01450585,-0.00005345,-0.00003956,0.00002956,-0.01
 398248,0.08808037,-0.27614512,0.00000961,0.00000663,0.00000537,-0.0024
 4999,-0.00180834,0.00017340,0.00018896,-0.00035638,0.00012926,0.000106
 40,-0.00020211,0.00025712,-0.00085171,0.00016001,0.00047225,-0.0002165
 9,0.00021007,-0.00011271,-0.00004978,0.00008029,0.00001719,0.00004247,
 -0.00006574,0.00001233,-0.00004764,-0.00009818,0.00002800,-0.00001661,
 0.00002865,0.00001157,0.00000990,0.00001832,0.00000602,0.01867947,-0.0
 9631269,0.30097192,-0.00340874,-0.00244939,-0.00463690,0.00027841,-0.0
 0069919,-0.00039184,-0.00004504,0.00001378,0.00014470,-0.02121142,0.00
 909027,0.01550086,0.00002053,-0.00001014,-0.00009726,-0.21652397,0.069
 25277,0.11088507,-0.00002428,0.00003671,0.00004094,0.00069167,0.000553
 70,-0.00030304,0.00112220,-0.00040423,0.00046113,-0.00160170,0.0004286
 2,0.00095356,0.00022610,-0.00008541,-0.00001535,0.00024070,0.00002318,
 0.00005237,0.00001999,0.00009455,0.00005889,-0.00000588,-0.00002908,0.
 00002550,0.00001684,-0.00000997,0.00000407,0.00000416,-0.00000344,-0.0
 0000275,0.00000114,0.00001164,0.00001094,0.00210799,-0.00152188,-0.001
 29807,0.23695053,-0.00208513,-0.00069232,-0.00166677,-0.00011944,-0.00
 036115,-0.00055194,-0.00001325,0.00014018,0.00000183,-0.01000897,0.002
 70380,0.00708371,-0.00000311,0.00004370,-0.00002675,0.07002765,-0.0746
 6840,-0.04458334,0.00002551,0.00000565,-0.00002141,0.00060329,0.000093
 60,-0.00002130,0.00023253,0.00047710,0.00063727,-0.00077606,0.00032498
 ,0.00018836,0.00026569,0.00000986,-0.00022189,0.00031344,0.00020447,0.
 00049643,0.00023755,0.00014664,0.00017085,0.00007787,-0.00002499,0.000
 05952,0.00000135,0.00003247,-0.00016029,0.00001266,-0.00002020,0.00000
 118,-0.00000506,0.00003933,0.00001545,-0.01066266,0.00347912,0.0059791
 5,-0.07427039,0.07767860,-0.00214531,-0.00109756,-0.00133389,-0.000131
 86,-0.00027204,-0.00022841,0.00007394,0.00003399,0.00003879,-0.0135722
 6,0.00582273,0.00855220,-0.00000961,0.00001540,-0.00000460,0.11177286,
 -0.04440075,-0.11950558,0.00000313,-0.00000274,-0.00000325,0.00066596,
 0.00049577,0.00045820,0.00078816,0.00029531,0.00056701,-0.00068192,-0.
 00006329,0.00054642,-0.00029364,-0.00019627,0.00024436,0.00011885,0.00
 024998,0.00011152,0.00008704,0.00005840,0.00006514,-0.00000678,-0.0000
 4665,0.00005640,0.00000911,-0.00000977,0.00000749,0.00000324,-0.000002
 88,-0.00000238,0.00000450,0.00000919,-0.00000115,0.02378527,-0.0109574
 5,-0.01481584,-0.12004919,0.05003406,0.12637007,0.00123040,-0.00060974
 ,0.00014116,-0.00079176,0.00042657,0.00054332,-0.00033945,0.00015400,0
 .00022922,-0.00006651,-0.02993497,-0.00073183,0.00007570,0.00012992,0.
 00000512,-0.04692178,-0.00756593,-0.00008962,0.00002643,-0.00001220,-0
 .00004800,0.00138290,0.00072670,0.00039137,-0.00495841,-0.00173376,-0.
 00262139,0.00017633,0.00030487,-0.00006558,-0.00009822,0.00002934,-0.0
 0003236,-0.00145856,0.00061136,0.00081180,0.00026866,0.00006311,0.0000
 1046,0.00027298,-0.00009455,0.00003989,-0.00001376,0.00023166,-0.00056
 781,0.00003794,-0.00006922,-0.00000969,-0.00000634,0.00003944,0.000013
 19,-0.00122822,0.00151072,0.00046820,0.00112878,0.02615362,-0.00042274
 ,0.05128441,0.00037852,-0.00027837,-0.00041548,0.00027699,-0.00064841,
 -0.00072845,0.00030628,0.00027515,-0.00011192,-0.00103837,-0.00957227,
 -0.00092466,0.00002849,0.00006065,-0.00000890,-0.00872817,-0.31283476,
 -0.00967011,-0.00002125,0.00000154,-0.00000330,-0.00007579,0.00053958,
 -0.00019018,-0.00180350,0.00111504,-0.00095804,-0.00016945,0.00012848,
 0.00008111,0.00003757,0.00004215,-0.00003490,0.00112033,0.00030224,0.0
 0033022,0.00027571,0.00025701,0.00026671,0.00005428,-0.00002444,0.0000
 3649,-0.00028850,0.00019390,0.00005014,0.00000187,-0.00001921,-0.00001
 965,-0.00007411,0.00002317,-0.00001441,0.00008888,-0.01079545,-0.00068
 643,-0.00004761,-0.00959574,0.00003932,0.00966040,0.34082613,0.0004931
 4,0.00069282,0.00000380,0.00038698,0.00011690,0.00050193,-0.00050634,-
 0.00010490,0.00031698,-0.00030083,-0.01635114,-0.00168473,0.00015853,0
 .00010647,-0.00003867,0.00008017,-0.00988696,-0.04743722,-0.00005519,-
 0.00000501,0.00000408,0.00080452,-0.00013489,0.00037314,-0.00322675,-0
 .00098922,-0.00072634,0.00004287,-0.00010794,-0.00001870,-0.00001942,0
 .00002115,0.00004101,0.00079302,-0.00020245,-0.00033360,-0.00006460,0.
 00010402,-0.00011381,0.00013837,0.00002986,-0.00012530,-0.00013034,0.0
 0022837,-0.00040644,0.00003174,-0.00007949,-0.00003071,-0.00003888,-0.
 00004022,-0.00000379,0.00078647,0.03104211,0.00223651,-0.00130921,-0.0
 1743723,-0.00112902,0.00189895,0.01296814,0.04861036,-0.00002140,0.000
 01267,-0.00005719,0.00019733,0.00026121,0.00019616,-0.00001814,-0.0002
 2978,0.00016892,-0.00000349,0.00002960,-0.00003593,0.00048950,0.000503
 96,0.00062646,-0.00000376,-0.00003208,0.00000629,-0.17347404,-0.058633
 56,-0.11875609,-0.00001037,-0.00000619,0.00000928,0.00000028,0.0000076
 4,0.00000821,0.00001664,0.00001454,-0.00000445,-0.00000192,0.00001991,
 0.00000748,-0.00000391,-0.00010518,0.00011514,-0.00002653,-0.00002169,
 0.00003206,0.00002443,0.00056113,-0.00012532,-0.00010358,-0.00003437,-
 0.00010410,0.00062831,0.00057621,-0.00008784,0.00147918,-0.00007452,0.
 00041860,0.00000698,0.00000702,0.00000527,-0.00000170,0.00000306,-0.00
 000090,0.00000084,0.00001131,0.00000465,0.18487179,-0.00006409,-0.0000
 0060,-0.00010395,0.00002380,-0.00005334,0.00018944,0.00087757,0.001896
 70,0.00052658,0.00000733,-0.00001464,0.00001957,0.01481460,0.00577410,
 0.01328760,0.00000445,0.00000810,-0.00000399,-0.05908189,-0.07505687,-
 0.05682946,0.00000916,-0.00000838,-0.00001714,-0.00000458,0.00000939,-
 0.00000575,-0.00000699,-0.00004659,-0.00000264,-0.00001156,0.00004293,
 -0.00000439,-0.00012563,-0.00007371,-0.00015533,0.00001898,0.00003609,
 -0.00001575,-0.00046697,-0.00017910,-0.00023084,0.00003588,-0.00004046
 ,-0.00011158,-0.00018382,0.00064725,-0.00096995,0.00026336,-0.00204786
 ,0.00364139,-0.00000273,0.00000314,-0.00000576,-0.00000618,-0.00000145
 ,0.00000065,0.00000273,0.00000335,0.00000776,0.06489078,0.07883042,0.0
 0005460,0.00000405,0.00003228,0.00030565,0.00016567,0.00013986,0.00010
 457,-0.00157177,0.00085077,0.00000772,0.00002910,-0.00000949,-0.019834
 31,-0.00870332,-0.01963755,-0.00000495,-0.00002452,0.00000722,-0.11825
 639,-0.05620301,-0.15848056,-0.00000206,-0.00000451,0.00000036,-0.0000
 0816,0.00001238,0.00000427,0.00000548,0.00006066,0.00001267,-0.0000048
 3,0.00000773,-0.00000939,0.00013335,-0.00015889,0.00023162,-0.00002310
 ,-0.00003779,-0.00005356,0.00011241,0.00091471,0.00050000,0.00004289,0
 .00012526,0.00000238,0.00041375,-0.00070471,0.00073538,0.00062009,0.00
 399478,-0.00382419,0.00000284,-0.00000317,0.00000123,-0.00000391,0.000
 01205,0.00000406,0.00001335,0.00000497,-0.00001151,0.13112565,0.058806
 00,0.17465741,-0.00002048,-0.00001645,0.00005647,0.00038243,-0.0001459
 5,-0.00024067,0.00042712,0.00007862,-0.00044176,-0.00001627,-0.0000247
 8,0.00004625,0.00101117,0.00002991,-0.00025136,0.00000845,0.00000050,-
 0.00001644,-0.26080830,0.00499839,0.10566822,-0.00000814,-0.00000249,-
 0.00000601,0.00001214,-0.00000487,-0.00000886,0.00000260,-0.00000418,-
 0.00000205,0.00000786,-0.00003421,-0.00000371,-0.00002200,0.00000136,0
 .00000738,-0.00004493,0.00016568,-0.00011758,-0.00008322,-0.00000239,0
 .00010068,0.00014693,-0.00065703,0.00005834,0.00167161,0.00041886,-0.0
 0030512,0.00070939,-0.00033076,0.00040631,-0.00000270,0.00000806,-0.00
 000709,0.00001462,-0.00001071,-0.00000013,-0.00001012,0.00000094,0.000
 01703,-0.01938647,0.00130152,0.01005492,0.28142902,0.00006391,0.000006
 24,-0.00007003,0.00009714,-0.00011819,0.00019021,-0.00157071,0.0014859
 7,0.00013148,-0.00000537,-0.00004016,0.00005563,-0.01830755,-0.0006443
 0,0.00872281,0.00000461,-0.00001580,-0.00001887,0.00562904,-0.04751081
 ,-0.00359628,-0.00000464,-0.00001543,-0.00003746,0.00000740,0.00001464
 ,-0.00002232,-0.00000020,-0.00000013,0.00000533,-0.00000248,0.00003168
 ,-0.00000458,-0.00001462,0.00000663,-0.00001825,0.00017737,-0.00000859
 ,-0.00018707,-0.00001558,-0.00005351,-0.00005766,0.00060030,-0.0002448
 8,-0.00007648,0.00017732,-0.00195245,0.00341919,0.00043949,0.00060976,
 -0.00080503,-0.00000278,0.00001584,-0.00001176,0.00000135,0.00000135,0
 .00000390,0.00001419,0.00000870,0.00002694,-0.00984332,-0.00064574,0.0
 0550549,-0.00585038,0.04852888,-0.00011071,-0.00002693,0.00005268,-0.0
 0021234,-0.00000184,-0.00001983,0.00030505,-0.00152658,0.00072136,0.00
 003380,0.00004671,-0.00000816,0.02608144,-0.00013137,-0.01385432,-0.00
 000442,0.00004526,0.00001896,0.10494578,-0.00327691,-0.09877324,0.0000
 0538,0.00000267,0.00000072,-0.00003032,0.00000405,0.00000780,-0.000003
 43,-0.00000363,0.00000328,0.00000416,0.00000005,-0.00000981,0.00000293
 ,-0.00000106,-0.00006215,-0.00013707,-0.00013782,0.00019962,-0.0001079
 9,0.00008595,0.00001404,-0.00051695,0.00061917,0.00047129,-0.00064947,
 0.00381043,-0.00406087,-0.00012052,-0.00092633,0.00075376,-0.00000106,
 -0.00001861,-0.00000012,-0.00001083,0.00000270,0.00000214,0.00000638,-
 0.00000891,-0.00002094,-0.01946356,0.00135359,0.01037661,-0.11675372,0
 .00012471,0.10858939,-0.00000047,-0.00000364,-0.00004718,0.00058430,0.
 00006784,0.00014936,0.00027923,-0.00003941,-0.00018198,0.00000138,-0.0
 0000168,0.00002387,-0.00137311,-0.00084437,-0.00012322,-0.00000169,-0.
 00000870,-0.00000381,-0.05953634,0.05410492,0.01392423,-0.00001007,-0.
 00000801,-0.00001022,-0.00000348,0.00000881,-0.00000462,0.00000403,0.0
 0000022,-0.00000148,-0.00000877,0.00001626,0.00000019,-0.00002358,-0.0
 0005669,0.00006094,-0.00001216,0.00006100,-0.00007989,0.00011605,0.000
 36630,0.00021345,0.00039044,-0.00038778,-0.00018730,0.00015779,-0.0002
 4933,-0.00034907,-0.00011643,0.00026420,0.00008414,0.00000129,0.000008
 81,-0.00000595,-0.00000096,0.00000057,0.00000229,0.00000775,0.00000519
 ,0.00001511,0.00534003,-0.02229572,-0.00485957,-0.00542070,0.02840549,
 0.00673745,0.05962548,0.00001406,-0.00007789,0.00052099,0.00035362,-0.
 00086460,-0.00103115,-0.00037605,-0.00071296,0.00488245,-0.00006069,0.
 00001186,0.00000137,0.00359263,-0.01632384,-0.00598074,0.00000732,0.00
 000653,-0.00001682,0.05393713,-0.28861419,-0.06283722,0.00000021,0.000
 03012,0.00002253,0.00003476,-0.00003677,-0.00000374,-0.00000947,0.0000
 0494,-0.00003503,0.00002942,-0.00021763,-0.00001940,0.00006743,-0.0000
 2286,0.00009903,-0.00008077,-0.00001186,0.00003503,-0.00003723,0.00037
 441,0.00001825,-0.00001667,0.00026993,-0.00003775,-0.00057108,0.000385
 39,-0.00012276,0.00038067,0.00067869,0.00007447,-0.00000514,-0.0000054
 4,0.00001320,0.00003035,-0.00001659,-0.00000931,-0.00003827,-0.0000084
 4,-0.00000507,0.00208168,-0.00908273,-0.00223117,0.00008038,0.00054031
 ,-0.00003529,-0.05941427,0.31369364,-0.00002436,0.00019048,-0.00059023
 ,-0.00029148,0.00159168,0.00093593,0.00029892,0.00190084,-0.00519570,0
 .00005473,-0.00000318,-0.00005794,-0.00655621,0.02780195,0.00835080,-0
 .00000618,0.00000470,0.00002298,0.01417913,-0.06408898,-0.06325872,-0.
 00000194,-0.00001702,0.00001067,-0.00002089,0.00000995,0.00001278,0.00
 001744,-0.00000874,0.00001298,-0.00002983,0.00022539,0.00001936,-0.000
 06121,-0.00005669,0.00002811,0.00007051,-0.00003912,0.00004147,0.00028
 088,0.00014100,0.00004819,-0.00023195,-0.00007698,-0.00007243,0.000333
 36,-0.00077321,0.00108844,-0.00030789,-0.00084858,0.00108985,0.0000066
 3,-0.00000226,0.00000148,-0.00001968,0.00000834,0.00000033,0.00001661,
 -0.00000175,-0.00000704,0.00591122,-0.01937606,-0.00552988,0.00173889,
 -0.01327989,-0.00440223,-0.01535672,0.06669813,0.06745079\\0.00000065,
 0.00000049,0.00000112,0.00000045,0.00000028,0.00000051,-0.00000003,-0.
 00000057,0.00000007,0.00000013,0.00000005,0.00000041,-0.00000038,0.000
 00014,-0.00000047,0.00000043,0.00000038,-0.00000037,-0.00000104,-0.000
 00065,-0.00000104,-0.00000060,-0.00000058,0.00000051,0.00000007,-0.000
 00011,0.00000115,0.00000019,-0.00000015,0.00000199,0.00000120,0.000000
 85,0.00000152,0.00000099,0.00000098,-0.00000028,0.00000088,0.00000065,
 0.00000111,-0.00000063,-0.00000064,0.00000061,-0.00000060,-0.00000046,
 -0.00000043,0.00000007,0.00000008,0.00000008,0.00000030,0.00000032,-0.
 00000108,0.00000115,0.00000098,-0.00000028,0.00000013,0.00000029,-0.00
 000079,0.00000042,0.00000054,-0.00000102,-0.00000143,-0.00000125,-0.00
 000034,-0.00000132,-0.00000093,-0.00000156,-0.00000102,-0.00000070,-0.
 00000141\\\@


 Statistics are no substitute for judgment.
                            -- Henry Clay
 Job cpu time:       0 days  5 hours 18 minutes 10.3 seconds.
 Elapsed time:       0 days  2 hours 39 minutes  7.3 seconds.
 File lengths (MBytes):  RWF=   1488 Int=      0 D2E=      0 Chk=     32 Scr=     32
 Normal termination of Gaussian 16 at Sat Sep 28 05:52:38 2019.
