 Entering Gaussian System, Link 0=g16
 Input=med/species/CCCCCCC/conformers/CCCCCCC_425.com
 Output=med/species/CCCCCCC/conformers/CCCCCCC_425.log
 Initial command:
 /shared/centos7/gaussian/g16/l1.exe "/scratch/harms.n/gauss_scrdir/Gau-27708.inp" -scrdir="/scratch/harms.n/gauss_scrdir/"
 Entering Link 1 = /shared/centos7/gaussian/g16/l1.exe PID=     27709.
  
 Copyright (c) 1988,1990,1992,1993,1995,1998,2003,2009,2016,
            Gaussian, Inc.  All Rights Reserved.
  
 This is part of the Gaussian(R) 16 program.  It is based on
 the Gaussian(R) 09 system (copyright 2009, Gaussian, Inc.),
 the Gaussian(R) 03 system (copyright 2003, Gaussian, Inc.),
 the Gaussian(R) 98 system (copyright 1998, Gaussian, Inc.),
 the Gaussian(R) 94 system (copyright 1995, Gaussian, Inc.),
 the Gaussian 92(TM) system (copyright 1992, Gaussian, Inc.),
 the Gaussian 90(TM) system (copyright 1990, Gaussian, Inc.),
 the Gaussian 88(TM) system (copyright 1988, Gaussian, Inc.),
 the Gaussian 86(TM) system (copyright 1986, Carnegie Mellon
 University), and the Gaussian 82(TM) system (copyright 1983,
 Carnegie Mellon University). Gaussian is a federally registered
 trademark of Gaussian, Inc.
  
 This software contains proprietary and confidential information,
 including trade secrets, belonging to Gaussian, Inc.
  
 This software is provided under written license and may be
 used, copied, transmitted, or stored only in accord with that
 written license.
  
 The following legend is applicable only to US Government
 contracts under FAR:
  
                    RESTRICTED RIGHTS LEGEND
  
 Use, reproduction and disclosure by the US Government is
 subject to restrictions as set forth in subparagraphs (a)
 and (c) of the Commercial Computer Software - Restricted
 Rights clause in FAR 52.227-19.
  
 Gaussian, Inc.
 340 Quinnipiac St., Bldg. 40, Wallingford CT 06492
  
  
 ---------------------------------------------------------------
 Warning -- This program may not be used in any manner that
 competes with the business of Gaussian, Inc. or will provide
 assistance to any competitor of Gaussian, Inc.  The licensee
 of this program is prohibited from giving any competitor of
 Gaussian, Inc. access to this program.  By using this program,
 the user acknowledges that Gaussian, Inc. is engaged in the
 business of creating and licensing software in the field of
 computational chemistry and represents and warrants to the
 licensee that it is not a competitor of Gaussian, Inc. and that
 it will not use this program in any manner prohibited above.
 ---------------------------------------------------------------
  

 Cite this work as:
 Gaussian 16, Revision A.03,
 M. J. Frisch, G. W. Trucks, H. B. Schlegel, G. E. Scuseria, 
 M. A. Robb, J. R. Cheeseman, G. Scalmani, V. Barone, 
 G. A. Petersson, H. Nakatsuji, X. Li, M. Caricato, A. V. Marenich, 
 J. Bloino, B. G. Janesko, R. Gomperts, B. Mennucci, H. P. Hratchian, 
 J. V. Ortiz, A. F. Izmaylov, J. L. Sonnenberg, D. Williams-Young, 
 F. Ding, F. Lipparini, F. Egidi, J. Goings, B. Peng, A. Petrone, 
 T. Henderson, D. Ranasinghe, V. G. Zakrzewski, J. Gao, N. Rega, 
 G. Zheng, W. Liang, M. Hada, M. Ehara, K. Toyota, R. Fukuda, 
 J. Hasegawa, M. Ishida, T. Nakajima, Y. Honda, O. Kitao, H. Nakai, 
 T. Vreven, K. Throssell, J. A. Montgomery, Jr., J. E. Peralta, 
 F. Ogliaro, M. J. Bearpark, J. J. Heyd, E. N. Brothers, K. N. Kudin, 
 V. N. Staroverov, T. A. Keith, R. Kobayashi, J. Normand, 
 K. Raghavachari, A. P. Rendell, J. C. Burant, S. S. Iyengar, 
 J. Tomasi, M. Cossi, J. M. Millam, M. Klene, C. Adamo, R. Cammi, 
 J. W. Ochterski, R. L. Martin, K. Morokuma, O. Farkas, 
 J. B. Foresman, and D. J. Fox, Gaussian, Inc., Wallingford CT, 2016.
 
 ******************************************
 Gaussian 16:  EM64L-G16RevA.03 25-Dec-2016
                29-Sep-2019 
 ******************************************
 %nprocshared=20
 Will use up to   20 processors via shared memory.
 %mem=5GB
 ----------------------------------------------------------------------
 #p m062x/cc-pVTZ opt=(calcfc,maxcycles=900,Tight) freq IOP(7/33=1,2/16
 =3) scf=(maxcycle=900)
 ----------------------------------------------------------------------
 1/6=900,7=10,10=4,18=20,19=15,26=3,38=1/1,3;
 2/9=110,12=2,16=3,17=6,18=5,40=1/2;
 3/5=16,6=1,11=2,25=1,30=1,71=2,74=-55,140=1/1,2,3;
 4//1;
 5/5=2,7=900,38=5/2;
 8/6=4,10=90,11=11/1;
 11/6=1,8=1,9=11,15=111,16=1/1,2,10;
 10/6=1,13=1/2;
 6/7=2,8=2,9=2,10=2,28=1/1;
 7/10=1,18=20,25=1,33=1/1,2,3,16;
 1/6=900,7=10,10=4,18=20,19=15,26=3/3(2);
 2/9=110,16=3/2;
 99//99;
 2/9=110,16=3/2;
 3/5=16,6=1,11=2,25=1,30=1,71=1,74=-55/1,2,3;
 4/5=5,16=3,69=1/1;
 5/5=2,7=900,38=5/2;
 7/33=1/1,2,3,16;
 1/6=900,7=10,18=20,19=15,26=3/3(-5);
 2/9=110,16=3/2;
 6/7=2,8=2,9=2,10=2,19=2,28=1/1;
 99/9=1/99;
 Leave Link    1 at Sun Sep 29 08:54:48 2019, MaxMem=   671088640 cpu:               4.2 elap:               2.1
 (Enter /shared/centos7/gaussian/g16/l101.exe)
 ------------------------------
 Gaussian input prepared by ASE
 ------------------------------
 Symbolic Z-matrix:
 Charge =  0 Multiplicity = 1
 C                     1.48804  -1.03423   0.5307 
 C                     0.19277  -0.41596   0.93316 
 C                    -0.57596  -1.20649   1.96228 
 C                     2.21241  -0.3369   -0.57113 
 C                     0.00331  -2.55287   2.32753 
 C                     1.47654  -0.22579  -1.84225 
 C                    -0.02364  -3.58237   1.22783 
 H                     3.17963  -0.88762  -0.74523 
 H                     2.51676   0.67761  -0.21913 
 H                     1.2932   -2.08492   0.22794 
 H                     2.15993  -1.09642   1.41123 
 H                    -0.42754  -0.27475   0.03429 
 H                     0.38328   0.60854   1.31704 
 H                    -1.61277  -1.34934   1.61335 
 H                    -0.6449   -0.61313   2.89733 
 H                     1.06017  -2.41931   2.67786 
 H                    -0.53967  -2.94275   3.20527 
 H                     0.45741  -0.65178  -1.78073 
 H                     1.36609   0.85538  -2.15275 
 H                     2.00492  -0.74643  -2.66883 
 H                    -0.07893  -3.13347   0.23536 
 H                    -0.90595  -4.27078   1.34397 
 H                     0.90547  -4.2212    1.25089 
 
 ITRead=  0  0  0  0  0  0  0  0  0  0  0  0  0  0  0  0  0  0  0  0
 ITRead=  0  0  0
 MicOpt= -1 -1 -1 -1 -1 -1 -1 -1 -1 -1 -1 -1 -1 -1 -1 -1 -1 -1 -1 -1
 MicOpt= -1 -1 -1
 NAtoms=     23 NQM=       23 NQMF=       0 NMMI=      0 NMMIF=      0
                NMic=       0 NMicF=      0.
                    Isotopes and Nuclear Properties:
 (Nuclear quadrupole moments (NQMom) in fm**2, nuclear magnetic moments (NMagM)
  in nuclear magnetons)

  Atom         1           2           3           4           5           6           7           8           9          10
 IAtWgt=          12          12          12          12          12          12          12           1           1           1
 AtmWgt=  12.0000000  12.0000000  12.0000000  12.0000000  12.0000000  12.0000000  12.0000000   1.0078250   1.0078250   1.0078250
 NucSpn=           0           0           0           0           0           0           0           1           1           1
 AtZEff=  -0.0000000  -0.0000000  -0.0000000  -0.0000000  -0.0000000  -0.0000000  -0.0000000  -0.0000000  -0.0000000  -0.0000000
 NQMom=    0.0000000   0.0000000   0.0000000   0.0000000   0.0000000   0.0000000   0.0000000   0.0000000   0.0000000   0.0000000
 NMagM=    0.0000000   0.0000000   0.0000000   0.0000000   0.0000000   0.0000000   0.0000000   2.7928460   2.7928460   2.7928460
 AtZNuc=   6.0000000   6.0000000   6.0000000   6.0000000   6.0000000   6.0000000   6.0000000   1.0000000   1.0000000   1.0000000

  Atom        11          12          13          14          15          16          17          18          19          20
 IAtWgt=           1           1           1           1           1           1           1           1           1           1
 AtmWgt=   1.0078250   1.0078250   1.0078250   1.0078250   1.0078250   1.0078250   1.0078250   1.0078250   1.0078250   1.0078250
 NucSpn=           1           1           1           1           1           1           1           1           1           1
 AtZEff=  -0.0000000  -0.0000000  -0.0000000  -0.0000000  -0.0000000  -0.0000000  -0.0000000  -0.0000000  -0.0000000  -0.0000000
 NQMom=    0.0000000   0.0000000   0.0000000   0.0000000   0.0000000   0.0000000   0.0000000   0.0000000   0.0000000   0.0000000
 NMagM=    2.7928460   2.7928460   2.7928460   2.7928460   2.7928460   2.7928460   2.7928460   2.7928460   2.7928460   2.7928460
 AtZNuc=   1.0000000   1.0000000   1.0000000   1.0000000   1.0000000   1.0000000   1.0000000   1.0000000   1.0000000   1.0000000

  Atom        21          22          23
 IAtWgt=           1           1           1
 AtmWgt=   1.0078250   1.0078250   1.0078250
 NucSpn=           1           1           1
 AtZEff=  -0.0000000  -0.0000000  -0.0000000
 NQMom=    0.0000000   0.0000000   0.0000000
 NMagM=    2.7928460   2.7928460   2.7928460
 AtZNuc=   1.0000000   1.0000000   1.0000000
 Leave Link  101 at Sun Sep 29 08:54:49 2019, MaxMem=   671088640 cpu:               2.7 elap:               1.3
 (Enter /shared/centos7/gaussian/g16/l103.exe)

 GradGradGradGradGradGradGradGradGradGradGradGradGradGradGradGradGradGrad
 Berny optimization.
 Initialization pass.
                           ----------------------------
                           !    Initial Parameters    !
                           ! (Angstroms and Degrees)  !
 --------------------------                            --------------------------
 ! Name  Definition              Value          Derivative Info.                !
 --------------------------------------------------------------------------------
 ! R1    R(1,2)                  1.4906         calculate D2E/DX2 analytically  !
 ! R2    R(1,4)                  1.4917         calculate D2E/DX2 analytically  !
 ! R3    R(1,10)                 1.1107         calculate D2E/DX2 analytically  !
 ! R4    R(1,11)                 1.1093         calculate D2E/DX2 analytically  !
 ! R5    R(2,3)                  1.5083         calculate D2E/DX2 analytically  !
 ! R6    R(2,12)                 1.1012         calculate D2E/DX2 analytically  !
 ! R7    R(2,13)                 1.1105         calculate D2E/DX2 analytically  !
 ! R8    R(3,5)                  1.5105         calculate D2E/DX2 analytically  !
 ! R9    R(3,14)                 1.1032         calculate D2E/DX2 analytically  !
 ! R10   R(3,15)                 1.1096         calculate D2E/DX2 analytically  !
 ! R11   R(4,6)                  1.473          calculate D2E/DX2 analytically  !
 ! R12   R(4,8)                  1.1266         calculate D2E/DX2 analytically  !
 ! R13   R(4,9)                  1.1161         calculate D2E/DX2 analytically  !
 ! R14   R(5,7)                  1.5066         calculate D2E/DX2 analytically  !
 ! R15   R(5,16)                 1.1214         calculate D2E/DX2 analytically  !
 ! R16   R(5,17)                 1.1033         calculate D2E/DX2 analytically  !
 ! R17   R(6,18)                 1.1063         calculate D2E/DX2 analytically  !
 ! R18   R(6,19)                 1.1303         calculate D2E/DX2 analytically  !
 ! R19   R(6,20)                 1.1106         calculate D2E/DX2 analytically  !
 ! R20   R(7,21)                 1.0907         calculate D2E/DX2 analytically  !
 ! R21   R(7,22)                 1.1251         calculate D2E/DX2 analytically  !
 ! R22   R(7,23)                 1.1278         calculate D2E/DX2 analytically  !
 ! A1    A(2,1,4)              115.3091         calculate D2E/DX2 analytically  !
 ! A2    A(2,1,10)             108.2726         calculate D2E/DX2 analytically  !
 ! A3    A(2,1,11)             109.5869         calculate D2E/DX2 analytically  !
 ! A4    A(4,1,10)             109.0311         calculate D2E/DX2 analytically  !
 ! A5    A(4,1,11)             108.566          calculate D2E/DX2 analytically  !
 ! A6    A(10,1,11)            105.6401         calculate D2E/DX2 analytically  !
 ! A7    A(1,2,3)              114.1858         calculate D2E/DX2 analytically  !
 ! A8    A(1,2,12)             108.8004         calculate D2E/DX2 analytically  !
 ! A9    A(1,2,13)             109.0811         calculate D2E/DX2 analytically  !
 ! A10   A(3,2,12)             109.6969         calculate D2E/DX2 analytically  !
 ! A11   A(3,2,13)             109.5786         calculate D2E/DX2 analytically  !
 ! A12   A(12,2,13)            105.0997         calculate D2E/DX2 analytically  !
 ! A13   A(2,3,5)              115.893          calculate D2E/DX2 analytically  !
 ! A14   A(2,3,14)             109.332          calculate D2E/DX2 analytically  !
 ! A15   A(2,3,15)             109.0484         calculate D2E/DX2 analytically  !
 ! A16   A(5,3,14)             108.7515         calculate D2E/DX2 analytically  !
 ! A17   A(5,3,15)             107.2603         calculate D2E/DX2 analytically  !
 ! A18   A(14,3,15)            106.1045         calculate D2E/DX2 analytically  !
 ! A19   A(1,4,6)              115.4742         calculate D2E/DX2 analytically  !
 ! A20   A(1,4,8)              107.6106         calculate D2E/DX2 analytically  !
 ! A21   A(1,4,9)              108.9287         calculate D2E/DX2 analytically  !
 ! A22   A(6,4,8)              109.4168         calculate D2E/DX2 analytically  !
 ! A23   A(6,4,9)              109.8664         calculate D2E/DX2 analytically  !
 ! A24   A(8,4,9)              105.0088         calculate D2E/DX2 analytically  !
 ! A25   A(3,5,7)              115.1955         calculate D2E/DX2 analytically  !
 ! A26   A(3,5,16)             109.3176         calculate D2E/DX2 analytically  !
 ! A27   A(3,5,17)             108.5786         calculate D2E/DX2 analytically  !
 ! A28   A(7,5,16)             109.0427         calculate D2E/DX2 analytically  !
 ! A29   A(7,5,17)             109.2938         calculate D2E/DX2 analytically  !
 ! A30   A(16,5,17)            104.9141         calculate D2E/DX2 analytically  !
 ! A31   A(4,6,18)             112.5318         calculate D2E/DX2 analytically  !
 ! A32   A(4,6,19)             110.9799         calculate D2E/DX2 analytically  !
 ! A33   A(4,6,20)             111.668          calculate D2E/DX2 analytically  !
 ! A34   A(18,6,19)            107.0724         calculate D2E/DX2 analytically  !
 ! A35   A(18,6,20)            107.4066         calculate D2E/DX2 analytically  !
 ! A36   A(19,6,20)            106.8844         calculate D2E/DX2 analytically  !
 ! A37   A(5,7,21)             112.5724         calculate D2E/DX2 analytically  !
 ! A38   A(5,7,22)             110.9027         calculate D2E/DX2 analytically  !
 ! A39   A(5,7,23)             110.9407         calculate D2E/DX2 analytically  !
 ! A40   A(21,7,22)            107.8183         calculate D2E/DX2 analytically  !
 ! A41   A(21,7,23)            107.0677         calculate D2E/DX2 analytically  !
 ! A42   A(22,7,23)            107.2998         calculate D2E/DX2 analytically  !
 ! D1    D(4,1,2,3)            174.8814         calculate D2E/DX2 analytically  !
 ! D2    D(4,1,2,12)            51.9799         calculate D2E/DX2 analytically  !
 ! D3    D(4,1,2,13)           -62.1584         calculate D2E/DX2 analytically  !
 ! D4    D(10,1,2,3)            52.4695         calculate D2E/DX2 analytically  !
 ! D5    D(10,1,2,12)          -70.432          calculate D2E/DX2 analytically  !
 ! D6    D(10,1,2,13)          175.4297         calculate D2E/DX2 analytically  !
 ! D7    D(11,1,2,3)           -62.2917         calculate D2E/DX2 analytically  !
 ! D8    D(11,1,2,12)          174.8067         calculate D2E/DX2 analytically  !
 ! D9    D(11,1,2,13)           60.6685         calculate D2E/DX2 analytically  !
 ! D10   D(2,1,4,6)            -59.3321         calculate D2E/DX2 analytically  !
 ! D11   D(2,1,4,8)            178.1494         calculate D2E/DX2 analytically  !
 ! D12   D(2,1,4,9)             64.8155         calculate D2E/DX2 analytically  !
 ! D13   D(10,1,4,6)            62.6734         calculate D2E/DX2 analytically  !
 ! D14   D(10,1,4,8)           -59.8451         calculate D2E/DX2 analytically  !
 ! D15   D(10,1,4,9)          -173.179          calculate D2E/DX2 analytically  !
 ! D16   D(11,1,4,6)           177.2994         calculate D2E/DX2 analytically  !
 ! D17   D(11,1,4,8)            54.7809         calculate D2E/DX2 analytically  !
 ! D18   D(11,1,4,9)           -58.553          calculate D2E/DX2 analytically  !
 ! D19   D(1,2,3,5)             -5.7184         calculate D2E/DX2 analytically  !
 ! D20   D(1,2,3,14)          -129.0159         calculate D2E/DX2 analytically  !
 ! D21   D(1,2,3,15)           115.3817         calculate D2E/DX2 analytically  !
 ! D22   D(12,2,3,5)           116.6947         calculate D2E/DX2 analytically  !
 ! D23   D(12,2,3,14)           -6.6027         calculate D2E/DX2 analytically  !
 ! D24   D(12,2,3,15)         -122.2052         calculate D2E/DX2 analytically  !
 ! D25   D(13,2,3,5)          -128.408          calculate D2E/DX2 analytically  !
 ! D26   D(13,2,3,14)          108.2945         calculate D2E/DX2 analytically  !
 ! D27   D(13,2,3,15)           -7.3079         calculate D2E/DX2 analytically  !
 ! D28   D(2,3,5,7)            -67.1072         calculate D2E/DX2 analytically  !
 ! D29   D(2,3,5,16)            56.0548         calculate D2E/DX2 analytically  !
 ! D30   D(2,3,5,17)           169.98           calculate D2E/DX2 analytically  !
 ! D31   D(14,3,5,7)            56.4936         calculate D2E/DX2 analytically  !
 ! D32   D(14,3,5,16)          179.6556         calculate D2E/DX2 analytically  !
 ! D33   D(14,3,5,17)          -66.4193         calculate D2E/DX2 analytically  !
 ! D34   D(15,3,5,7)           170.8388         calculate D2E/DX2 analytically  !
 ! D35   D(15,3,5,16)          -65.9992         calculate D2E/DX2 analytically  !
 ! D36   D(15,3,5,17)           47.9259         calculate D2E/DX2 analytically  !
 ! D37   D(1,4,6,18)             2.1913         calculate D2E/DX2 analytically  !
 ! D38   D(1,4,6,19)           122.1578         calculate D2E/DX2 analytically  !
 ! D39   D(1,4,6,20)          -118.6943         calculate D2E/DX2 analytically  !
 ! D40   D(8,4,6,18)           123.7431         calculate D2E/DX2 analytically  !
 ! D41   D(8,4,6,19)          -116.2903         calculate D2E/DX2 analytically  !
 ! D42   D(8,4,6,20)             2.8576         calculate D2E/DX2 analytically  !
 ! D43   D(9,4,6,18)          -121.4651         calculate D2E/DX2 analytically  !
 ! D44   D(9,4,6,19)            -1.4985         calculate D2E/DX2 analytically  !
 ! D45   D(9,4,6,20)           117.6494         calculate D2E/DX2 analytically  !
 ! D46   D(3,5,7,21)            22.8927         calculate D2E/DX2 analytically  !
 ! D47   D(3,5,7,22)           -98.0041         calculate D2E/DX2 analytically  !
 ! D48   D(3,5,7,23)           142.8534         calculate D2E/DX2 analytically  !
 ! D49   D(16,5,7,21)         -100.4153         calculate D2E/DX2 analytically  !
 ! D50   D(16,5,7,22)          138.6879         calculate D2E/DX2 analytically  !
 ! D51   D(16,5,7,23)           19.5454         calculate D2E/DX2 analytically  !
 ! D52   D(17,5,7,21)          145.4236         calculate D2E/DX2 analytically  !
 ! D53   D(17,5,7,22)           24.5269         calculate D2E/DX2 analytically  !
 ! D54   D(17,5,7,23)          -94.6156         calculate D2E/DX2 analytically  !
 --------------------------------------------------------------------------------
 Trust Radius=3.00D-01 FncErr=1.00D-07 GrdErr=1.00D-06 EigMax=2.50D+02 EigMin=1.00D-04
 Number of steps in this run=    138 maximum allowed number of steps=    138.
 GradGradGradGradGradGradGradGradGradGradGradGradGradGradGradGradGradGrad

 Leave Link  103 at Sun Sep 29 08:54:50 2019, MaxMem=   671088640 cpu:               1.5 elap:               0.8
 (Enter /shared/centos7/gaussian/g16/l202.exe)
                          Input orientation:                          
 ---------------------------------------------------------------------
 Center     Atomic      Atomic             Coordinates (Angstroms)
 Number     Number       Type             X           Y           Z
 ---------------------------------------------------------------------
      1          6           0        1.488038   -1.034233    0.530701
      2          6           0        0.192767   -0.415958    0.933159
      3          6           0       -0.575964   -1.206490    1.962282
      4          6           0        2.212407   -0.336895   -0.571132
      5          6           0        0.003311   -2.552870    2.327527
      6          6           0        1.476539   -0.225792   -1.842250
      7          6           0       -0.023643   -3.582373    1.227835
      8          1           0        3.179631   -0.887625   -0.745231
      9          1           0        2.516761    0.677610   -0.219134
     10          1           0        1.293196   -2.084922    0.227937
     11          1           0        2.159929   -1.096418    1.411235
     12          1           0       -0.427540   -0.274754    0.034290
     13          1           0        0.383281    0.608540    1.317039
     14          1           0       -1.612769   -1.349340    1.613349
     15          1           0       -0.644900   -0.613126    2.897328
     16          1           0        1.060169   -2.419311    2.677860
     17          1           0       -0.539671   -2.942746    3.205267
     18          1           0        0.457407   -0.651778   -1.780734
     19          1           0        1.366089    0.855376   -2.152753
     20          1           0        2.004924   -0.746428   -2.668834
     21          1           0       -0.078934   -3.133471    0.235359
     22          1           0       -0.905954   -4.270777    1.343967
     23          1           0        0.905474   -4.221195    1.250888
 ---------------------------------------------------------------------
                    Distance matrix (angstroms):
                    1          2          3          4          5
     1  C    0.000000
     2  C    1.490625   0.000000
     3  C    2.517777   1.508304   0.000000
     4  C    1.491652   2.519541   3.866444   0.000000
     5  C    2.781951   2.558622   1.510531   4.265310   0.000000
     6  C    2.506912   3.063843   4.432720   1.472952   4.997272
     7  C    3.043714   3.187452   2.547409   4.332358   1.506627
     8  H    2.123907   3.458441   4.640775   1.126559   4.722699
     9  H    2.133291   2.815070   4.227689   1.116134   4.820675
    10  H    1.110665   2.119840   2.696915   2.130506   2.508197
    11  H    1.109344   2.135722   2.793006   2.123536   2.758957
    12  H    2.119593   1.101220   2.146465   2.709191   3.261040
    13  H    2.130145   1.110520   2.151935   2.793696   3.340655
    14  H    3.299458   2.143320   1.103233   4.519842   2.137814
    15  H    3.213671   2.144417   1.109570   4.502302   2.123077
    16  H    2.590715   2.794600   2.158685   4.027413   1.121392
    17  H    3.861001   3.476147   2.135630   5.350287   1.103295
    18  H    2.559532   2.736944   3.922465   2.154603   4.549523
    19  H    3.284269   3.537772   4.995635   2.153901   5.791909
    20  H    3.253771   4.045674   5.321642   2.147352   5.677438
    21  H    2.636177   2.818798   2.634873   3.704256   2.172793
    22  H    4.107045   4.029340   3.143416   5.372821   2.178384
    23  H    3.318852   3.884422   3.433539   4.485044   2.180908
                    6          7          8          9         10
     6  C    0.000000
     7  C    4.789844   0.000000
     8  H    2.131195   4.627701   0.000000
     9  H    2.129015   5.166704   1.779364   0.000000
    10  H    2.788486   2.230744   2.437050   3.054270   0.000000
    11  H    3.436594   3.313849   2.394521   2.435695   1.768774
    12  H    2.673821   3.539495   3.740982   3.104856   2.505023
    13  H    3.445640   4.211567   3.782993   2.629892   3.044474
    14  H    4.769418   2.767738   5.361266   4.951721   3.302283
    15  H    5.207124   3.462599   5.288726   4.623250   3.612208
    16  H    5.041456   2.151728   4.307636   4.483877   2.483594
    17  H    6.076542   2.141412   5.801996   5.845962   3.599966
    18  H    1.106291   4.227444   2.922053   2.906339   2.605226
    19  H    1.130281   5.749204   2.882378   2.257107   3.783960
    20  H    1.110627   5.228928   2.258345   2.879391   3.269465
    21  H    3.897506   1.090678   4.077208   4.633416   1.726920
    22  H    5.673637   1.125104   5.701094   6.216494   3.295413
    23  H    5.084964   1.127778   4.502107   5.362416   2.400088
                   11         12         13         14         15
    11  H    0.000000
    12  H    3.044028   0.000000
    13  H    2.464190   1.755871   0.000000
    14  H    3.786564   2.247872   2.811638   0.000000
    15  H    3.210781   2.891147   2.246540   1.768441   0.000000
    16  H    2.136318   3.714952   3.387904   3.069628   2.493538
    17  H    3.730324   4.145582   4.126606   2.494931   2.352238
    18  H    3.644853   2.054164   3.345160   4.036337   4.806334
    19  H    4.140253   3.045892   3.614733   5.283738   5.630622
    20  H    4.097985   3.666911   4.511413   5.638111   6.166158
    21  H    3.247272   2.886905   3.922540   2.726651   3.709250
    22  H    4.413697   4.232297   5.046839   3.017772   3.982397
    23  H    3.370994   4.339520   4.858333   3.836727   4.258238
                   16         17         18         19         20
    16  H    0.000000
    17  H    1.763982   0.000000
    18  H    4.833897   5.576998   0.000000
    19  H    5.843970   6.838569   1.798781   0.000000
    20  H    5.681393   6.767853   1.786754   1.800063   0.000000
    21  H    2.788080   3.011479   3.242082   4.868477   4.298229
    22  H    3.012115   2.315657   4.971888   6.608077   6.082501
    23  H    2.303685   2.746356   4.704491   6.129316   5.352291
                   21         22         23
    21  H    0.000000
    22  H    1.790653   0.000000
    23  H    1.784237   1.814495   0.000000
 Stoichiometry    C7H16
 Framework group  C1[X(C7H16)]
 Deg. of freedom    63
 Full point group                 C1      NOp   1
 Largest Abelian subgroup         C1      NOp   1
 Largest concise Abelian subgroup C1      NOp   1
                         Standard orientation:                         
 ---------------------------------------------------------------------
 Center     Atomic      Atomic             Coordinates (Angstroms)
 Number     Number       Type             X           Y           Z
 ---------------------------------------------------------------------
      1          6           0       -0.601262    0.020234    0.627946
      2          6           0       -0.068697   -1.081657   -0.223039
      3          6           0        1.436189   -1.116722   -0.318271
      4          6           0       -2.086984    0.152091    0.644413
      5          6           0        2.165696    0.030710    0.339698
      6          6           0       -2.715878    0.396273   -0.664959
      7          6           0        1.958785    1.376472   -0.305312
      8          1           0       -2.346737    0.993258    1.347338
      9          1           0       -2.526375   -0.761276    1.111800
     10          1           0       -0.156687    0.976139    0.278413
     11          1           0       -0.246710   -0.110788    1.670908
     12          1           0       -0.502434   -0.992690   -1.231326
     13          1           0       -0.439645   -2.053100    0.166769
     14          1           0        1.733969   -1.164390   -1.379486
     15          1           0        1.806814   -2.052993    0.147754
     16          1           0        1.864922    0.091801    1.418273
     17          1           0        3.243857   -0.202700    0.358349
     18          1           0       -1.981501    0.408691   -1.492254
     19          1           0       -3.473712   -0.406922   -0.906000
     20          1           0       -3.256272    1.366340   -0.685807
     21          1           0        1.036886    1.425064   -0.886105
     22          1           0        2.812834    1.627376   -0.993430
     23          1           0        1.903697    2.191781    0.471941
 ---------------------------------------------------------------------
 Rotational constants (GHZ):           4.3706080           1.3256838           1.1923595
 Leave Link  202 at Sun Sep 29 08:54:52 2019, MaxMem=   671088640 cpu:               3.5 elap:               1.8
 (Enter /shared/centos7/gaussian/g16/l301.exe)
 Standard basis: CC-pVTZ (5D, 7F)
 Ernie: Thresh=  0.10000D-02 Tol=  0.10000D-05 Strict=F.
 Ernie:  21 primitive shells out of 310 were deleted.
 There are   485 symmetry adapted cartesian basis functions of A   symmetry.
 There are   434 symmetry adapted basis functions of A   symmetry.
   434 basis functions,   636 primitive gaussians,   485 cartesian basis functions
    29 alpha electrons       29 beta electrons
       nuclear repulsion energy       330.5661251735 Hartrees.
 IExCor= 4336 DFT=T Ex+Corr=M062X ExCW=0 ScaHFX=  0.540000
 ScaDFX=  1.000000  1.000000  1.000000  1.000000 ScalE2=  1.000000  1.000000
 IRadAn=      5 IRanWt=     -1 IRanGd=            0 ICorTp=0 IEmpDi=  4
 NAtoms=   23 NActive=   23 NUniq=   23 SFac= 1.00D+00 NAtFMM=   60 NAOKFM=F Big=F
 Integral buffers will be    131072 words long.
 Raffenetti 2 integral format.
 Two-electron integral symmetry is turned on.
 Leave Link  301 at Sun Sep 29 08:54:53 2019, MaxMem=   671088640 cpu:               1.5 elap:               0.8
 (Enter /shared/centos7/gaussian/g16/l302.exe)
 NPDir=0 NMtPBC=     1 NCelOv=     1 NCel=       1 NClECP=     1 NCelD=      1
         NCelK=      1 NCelE2=     1 NClLst=     1 CellRange=     0.0.
 One-electron integrals computed using PRISM.
 One-electron integral symmetry used in STVInt
 NBasis=   434 RedAO= T EigKep=  1.88D-04  NBF=   434
 NBsUse=   434 1.00D-06 EigRej= -1.00D+00 NBFU=   434
 Precomputing XC quadrature grid using
 IXCGrd= 4 IRadAn=           5 IRanWt=          -1 IRanGd=           0 AccXCQ= 0.00D+00.
 Generated NRdTot=       0 NPtTot=           0 NUsed=           0 NTot=          32
 NSgBfM=   485   485   485   485   485 MxSgAt=    23 MxSgA2=    23.
 Leave Link  302 at Sun Sep 29 08:56:03 2019, MaxMem=   671088640 cpu:             141.0 elap:              70.5
 (Enter /shared/centos7/gaussian/g16/l303.exe)
 DipDrv:  MaxL=1.
 Leave Link  303 at Sun Sep 29 08:56:08 2019, MaxMem=   671088640 cpu:               9.5 elap:               4.8
 (Enter /shared/centos7/gaussian/g16/l401.exe)
 ExpMin= 1.03D-01 ExpMax= 8.24D+03 ExpMxC= 2.81D+02 IAcc=3 IRadAn=         5 AccDes= 0.00D+00
 Harris functional with IExCor= 1009 and IRadAn=       5 diagonalized for initial guess.
 HarFok:  IExCor= 1009 AccDes= 0.00D+00 IRadAn=         5 IDoV= 1 UseB2=F ITyADJ=14
 ICtDFT=  3500011 ScaDFX=  1.000000  1.000000  1.000000  1.000000
 FoFCou: FMM=F IPFlag=           0 FMFlag=      100000 FMFlg1=           0
         NFxFlg=           0 DoJE=T BraDBF=F KetDBF=T FulRan=T
         wScrn=  0.000000 ICntrl=       500 IOpCl=  0 I1Cent=   200000004 NGrid=           0
         NMat0=    1 NMatS0=      1 NMatT0=    0 NMatD0=    1 NMtDS0=    0 NMtDT0=    0
 Petite list used in FoFCou.
 Harris En= -276.313725626091    
 JPrj=0 DoOrth=F DoCkMO=F.
 Leave Link  401 at Sun Sep 29 08:56:52 2019, MaxMem=   671088640 cpu:              87.4 elap:              43.7
 (Enter /shared/centos7/gaussian/g16/l502.exe)
 Integral symmetry usage will be decided dynamically.
 Closed shell SCF:
 Using DIIS extrapolation, IDIIS=  1040.
 NGot=   671088640 LenX=   670604095 LenY=   670368385
 Requested convergence on RMS density matrix=1.00D-08 within 900 cycles.
 Requested convergence on MAX density matrix=1.00D-06.
 Requested convergence on             energy=1.00D-06.
 No special actions if energy rises.
 Fock matrices will be formed incrementally for  20 cycles.
 Integral accuracy reduced to 1.0D-05 until final iterations.

 Cycle   1  Pass 0  IDiag  1:
 FoFJK:  IHMeth= 1 ICntrl=       0 DoSepK=F KAlg= 0 I1Cent=           0 FoldK=F
 IRaf= 940000000 NMat=       1 IRICut=       1 DoRegI=T DoRafI=F ISym2E= 0 IDoP0=0 IntGTp=1.
 FoFCou: FMM=F IPFlag=           0 FMFlag=      100000 FMFlg1=           0
         NFxFlg=           0 DoJE=F BraDBF=F KetDBF=F FulRan=T
         wScrn=  0.000000 ICntrl=         0 IOpCl=  0 I1Cent=           0 NGrid=           0
         NMat0=    1 NMatS0=      1 NMatT0=    0 NMatD0=    1 NMtDS0=    0 NMtDT0=    0
 Symmetry not used in FoFCou.
 E= -275.946909275253    
 DIIS: error= 2.52D-02 at cycle   1 NSaved=   1.
 NSaved= 1 IEnMin= 1 EnMin= -275.946909275253     IErMin= 1 ErrMin= 2.52D-02
 ErrMax= 2.52D-02  0.00D+00 EMaxC= 1.00D-01 BMatC= 3.74D-01 BMatP= 3.74D-01
 IDIUse=3 WtCom= 7.48D-01 WtEn= 2.52D-01
 Coeff-Com:  0.100D+01
 Coeff-En:   0.100D+01
 Coeff:      0.100D+01
 Gap=     0.357 Goal=   None    Shift=    0.000
 GapD=    0.357 DampG=1.000 DampE=0.500 DampFc=0.5000 IDamp=-1.
 Damping current iteration by 5.00D-01
 RMSDP=1.93D-03 MaxDP=7.01D-02              OVMax= 1.61D-01

 Cycle   2  Pass 0  IDiag  1:
 RMSU=  9.63D-04    CP:  9.90D-01
 E= -276.124492453958     Delta-E=       -0.177583178705 Rises=F Damp=T
 DIIS: error= 3.76D-03 at cycle   2 NSaved=   2.
 NSaved= 2 IEnMin= 2 EnMin= -276.124492453958     IErMin= 2 ErrMin= 3.76D-03
 ErrMax= 3.76D-03  0.00D+00 EMaxC= 1.00D-01 BMatC= 1.88D-02 BMatP= 3.74D-01
 IDIUse=3 WtCom= 9.62D-01 WtEn= 3.76D-02
 Coeff-Com: -0.488D-01 0.105D+01
 Coeff-En:   0.000D+00 0.100D+01
 Coeff:     -0.470D-01 0.105D+01
 Gap=     0.446 Goal=   None    Shift=    0.000
 RMSDP=5.39D-04 MaxDP=1.67D-02 DE=-1.78D-01 OVMax= 8.98D-02

 Cycle   3  Pass 0  IDiag  1:
 RMSU=  5.30D-04    CP:  9.98D-01  9.14D-01
 E= -276.303711022233     Delta-E=       -0.179218568275 Rises=F Damp=F
 DIIS: error= 3.05D-03 at cycle   3 NSaved=   3.
 NSaved= 3 IEnMin= 3 EnMin= -276.303711022233     IErMin= 3 ErrMin= 3.05D-03
 ErrMax= 3.05D-03  0.00D+00 EMaxC= 1.00D-01 BMatC= 2.89D-03 BMatP= 1.88D-02
 IDIUse=3 WtCom= 9.69D-01 WtEn= 3.05D-02
 Coeff-Com: -0.520D-01 0.249D+00 0.803D+00
 Coeff-En:   0.000D+00 0.000D+00 0.100D+01
 Coeff:     -0.504D-01 0.242D+00 0.809D+00
 Gap=     0.408 Goal=   None    Shift=    0.000
 RMSDP=9.75D-05 MaxDP=2.94D-03 DE=-1.79D-01 OVMax= 1.02D-02

 Cycle   4  Pass 0  IDiag  1:
 RMSU=  7.72D-05    CP:  9.97D-01  9.62D-01  9.30D-01
 E= -276.306240820190     Delta-E=       -0.002529797957 Rises=F Damp=F
 DIIS: error= 6.62D-04 at cycle   4 NSaved=   4.
 NSaved= 4 IEnMin= 4 EnMin= -276.306240820190     IErMin= 4 ErrMin= 6.62D-04
 ErrMax= 6.62D-04  0.00D+00 EMaxC= 1.00D-01 BMatC= 2.70D-04 BMatP= 2.89D-03
 IDIUse=3 WtCom= 9.93D-01 WtEn= 6.62D-03
 Coeff-Com: -0.133D-01 0.366D-01 0.271D+00 0.706D+00
 Coeff-En:   0.000D+00 0.000D+00 0.000D+00 0.100D+01
 Coeff:     -0.132D-01 0.363D-01 0.269D+00 0.708D+00
 Gap=     0.409 Goal=   None    Shift=    0.000
 RMSDP=3.34D-05 MaxDP=1.04D-03 DE=-2.53D-03 OVMax= 3.22D-03

 Cycle   5  Pass 0  IDiag  1:
 RMSU=  1.95D-05    CP:  9.97D-01  9.55D-01  9.64D-01  7.55D-01
 E= -276.306489317089     Delta-E=       -0.000248496900 Rises=F Damp=F
 DIIS: error= 1.77D-04 at cycle   5 NSaved=   5.
 NSaved= 5 IEnMin= 5 EnMin= -276.306489317089     IErMin= 5 ErrMin= 1.77D-04
 ErrMax= 1.77D-04  0.00D+00 EMaxC= 1.00D-01 BMatC= 1.88D-05 BMatP= 2.70D-04
 IDIUse=3 WtCom= 9.98D-01 WtEn= 1.77D-03
 Coeff-Com: -0.175D-02 0.116D-02 0.562D-01 0.264D+00 0.681D+00
 Coeff-En:   0.000D+00 0.000D+00 0.000D+00 0.000D+00 0.100D+01
 Coeff:     -0.175D-02 0.116D-02 0.561D-01 0.263D+00 0.681D+00
 Gap=     0.408 Goal=   None    Shift=    0.000
 RMSDP=6.75D-06 MaxDP=2.92D-04 DE=-2.48D-04 OVMax= 7.26D-04

 Initial convergence to 1.0D-05 achieved.  Increase integral accuracy.
 Cycle   6  Pass 1  IDiag  1:
 E= -276.306466393056     Delta-E=        0.000022924034 Rises=F Damp=F
 DIIS: error= 5.04D-05 at cycle   1 NSaved=   1.
 NSaved= 1 IEnMin= 1 EnMin= -276.306466393056     IErMin= 1 ErrMin= 5.04D-05
 ErrMax= 5.04D-05  0.00D+00 EMaxC= 1.00D-01 BMatC= 1.73D-06 BMatP= 1.73D-06
 IDIUse=1 WtCom= 1.00D+00 WtEn= 0.00D+00
 Coeff-Com:  0.100D+01
 Coeff:      0.100D+01
 Gap=     0.409 Goal=   None    Shift=    0.000
 RMSDP=6.75D-06 MaxDP=2.92D-04 DE= 2.29D-05 OVMax= 3.06D-04

 Cycle   7  Pass 1  IDiag  1:
 RMSU=  1.36D-05    CP:  1.00D+00
 E= -276.306467251122     Delta-E=       -0.000000858067 Rises=F Damp=F
 DIIS: error= 3.32D-05 at cycle   2 NSaved=   2.
 NSaved= 2 IEnMin= 2 EnMin= -276.306467251122     IErMin= 2 ErrMin= 3.32D-05
 ErrMax= 3.32D-05  0.00D+00 EMaxC= 1.00D-01 BMatC= 5.75D-07 BMatP= 1.73D-06
 IDIUse=1 WtCom= 1.00D+00 WtEn= 0.00D+00
 Coeff-Com:  0.332D+00 0.668D+00
 Coeff:      0.332D+00 0.668D+00
 Gap=     0.409 Goal=   None    Shift=    0.000
 RMSDP=1.47D-06 MaxDP=5.87D-05 DE=-8.58D-07 OVMax= 1.55D-04

 Cycle   8  Pass 1  IDiag  1:
 RMSU=  1.47D-06    CP:  1.00D+00  9.99D-01
 E= -276.306467750302     Delta-E=       -0.000000499180 Rises=F Damp=F
 DIIS: error= 8.98D-06 at cycle   3 NSaved=   3.
 NSaved= 3 IEnMin= 3 EnMin= -276.306467750302     IErMin= 3 ErrMin= 8.98D-06
 ErrMax= 8.98D-06  0.00D+00 EMaxC= 1.00D-01 BMatC= 6.53D-08 BMatP= 5.75D-07
 IDIUse=1 WtCom= 1.00D+00 WtEn= 0.00D+00
 Coeff-Com: -0.410D-02 0.242D+00 0.762D+00
 Coeff:     -0.410D-02 0.242D+00 0.762D+00
 Gap=     0.409 Goal=   None    Shift=    0.000
 RMSDP=4.68D-07 MaxDP=1.88D-05 DE=-4.99D-07 OVMax= 4.69D-05

 Cycle   9  Pass 1  IDiag  1:
 RMSU=  3.28D-07    CP:  1.00D+00  1.02D+00  8.30D-01
 E= -276.306467812385     Delta-E=       -0.000000062083 Rises=F Damp=F
 DIIS: error= 2.48D-06 at cycle   4 NSaved=   4.
 NSaved= 4 IEnMin= 4 EnMin= -276.306467812385     IErMin= 4 ErrMin= 2.48D-06
 ErrMax= 2.48D-06  0.00D+00 EMaxC= 1.00D-01 BMatC= 2.26D-09 BMatP= 6.53D-08
 IDIUse=1 WtCom= 1.00D+00 WtEn= 0.00D+00
 Coeff-Com: -0.120D-01 0.667D-01 0.275D+00 0.671D+00
 Coeff:     -0.120D-01 0.667D-01 0.275D+00 0.671D+00
 Gap=     0.409 Goal=   None    Shift=    0.000
 RMSDP=9.36D-08 MaxDP=3.82D-06 DE=-6.21D-08 OVMax= 8.74D-06

 Cycle  10  Pass 1  IDiag  1:
 RMSU=  8.55D-08    CP:  1.00D+00  1.02D+00  8.27D-01  9.11D-01
 E= -276.306467814660     Delta-E=       -0.000000002275 Rises=F Damp=F
 DIIS: error= 4.46D-07 at cycle   5 NSaved=   5.
 NSaved= 5 IEnMin= 5 EnMin= -276.306467814660     IErMin= 5 ErrMin= 4.46D-07
 ErrMax= 4.46D-07  0.00D+00 EMaxC= 1.00D-01 BMatC= 7.58D-11 BMatP= 2.26D-09
 IDIUse=1 WtCom= 1.00D+00 WtEn= 0.00D+00
 Coeff-Com: -0.963D-03-0.118D-01-0.307D-01 0.712D-01 0.972D+00
 Coeff:     -0.963D-03-0.118D-01-0.307D-01 0.712D-01 0.972D+00
 Gap=     0.409 Goal=   None    Shift=    0.000
 RMSDP=3.47D-08 MaxDP=9.38D-07 DE=-2.27D-09 OVMax= 2.74D-06

 Cycle  11  Pass 1  IDiag  1:
 RMSU=  2.01D-08    CP:  1.00D+00  1.02D+00  8.30D-01  9.93D-01  1.09D+00
 E= -276.306467814748     Delta-E=       -0.000000000088 Rises=F Damp=F
 DIIS: error= 1.66D-07 at cycle   6 NSaved=   6.
 NSaved= 6 IEnMin= 6 EnMin= -276.306467814748     IErMin= 6 ErrMin= 1.66D-07
 ErrMax= 1.66D-07  0.00D+00 EMaxC= 1.00D-01 BMatC= 2.10D-11 BMatP= 7.58D-11
 IDIUse=1 WtCom= 1.00D+00 WtEn= 0.00D+00
 Coeff-Com:  0.485D-03-0.104D-01-0.350D-01-0.216D-01 0.432D+00 0.634D+00
 Coeff:      0.485D-03-0.104D-01-0.350D-01-0.216D-01 0.432D+00 0.634D+00
 Gap=     0.409 Goal=   None    Shift=    0.000
 RMSDP=7.93D-09 MaxDP=2.60D-07 DE=-8.80D-11 OVMax= 7.53D-07

 SCF Done:  E(RM062X) =  -276.306467815     A.U. after   11 cycles
            NFock= 11  Conv=0.79D-08     -V/T= 2.0065
 KE= 2.745313042587D+02 PE=-1.299594840855D+03 EE= 4.181909436083D+02
 Leave Link  502 at Sun Sep 29 09:12:08 2019, MaxMem=   671088640 cpu:            1831.8 elap:             916.0
 (Enter /shared/centos7/gaussian/g16/l801.exe)
 DoSCS=F DFT=T ScalE2(SS,OS)=  1.000000  1.000000
 Range of M.O.s used for correlation:     1   434
 NBasis=   434 NAE=    29 NBE=    29 NFC=     0 NFV=     0
 NROrb=    434 NOA=    29 NOB=    29 NVA=   405 NVB=   405

 **** Warning!!: The largest alpha MO coefficient is  0.12808806D+02

 Leave Link  801 at Sun Sep 29 09:12:09 2019, MaxMem=   671088640 cpu:               1.4 elap:               0.7
 (Enter /shared/centos7/gaussian/g16/l1101.exe)
 Using compressed storage, NAtomX=    23.
 Will process     24 centers per pass.
 Leave Link 1101 at Sun Sep 29 09:12:42 2019, MaxMem=   671088640 cpu:              67.6 elap:              33.8
 (Enter /shared/centos7/gaussian/g16/l1102.exe)
 Symmetrizing basis deriv contribution to polar:
 IMax=3 JMax=2 DiffMx= 0.00D+00
 Leave Link 1102 at Sun Sep 29 09:12:45 2019, MaxMem=   671088640 cpu:               4.9 elap:               2.5
 (Enter /shared/centos7/gaussian/g16/l1110.exe)
 Forming Gx(P) for the SCF density, NAtomX=    23.
 Integral derivatives from FoFJK, PRISM(SPDF).
 Do as many integral derivatives as possible in FoFJK.
 G2DrvN: MDV=     671086848.
 G2DrvN: will do    24 centers at a time, making    1 passes.
 Calling FoFCou, ICntrl=  3107 FMM=F I1Cent=   0 AccDes= 0.00D+00.
 FoFJK:  IHMeth= 1 ICntrl=    3107 DoSepK=F KAlg= 0 I1Cent=           0 FoldK=F
 IRaf=         0 NMat=       1 IRICut=       1 DoRegI=T DoRafI=F ISym2E= 0 IDoP0=0 IntGTp=1.
 FoFCou: FMM=F IPFlag=           0 FMFlag=      100000 FMFlg1=           0
         NFxFlg=           0 DoJE=F BraDBF=F KetDBF=F FulRan=T
         wScrn=  0.000000 ICntrl=      3107 IOpCl=  0 I1Cent=           0 NGrid=           0
         NMat0=    1 NMatS0=      1 NMatT0=    0 NMatD0=    1 NMtDS0=    0 NMtDT0=    0
 Symmetry not used in FoFCou.
 End of G2Drv F.D. properties file   721 does not exist.
 End of G2Drv F.D. properties file   722 does not exist.
 End of G2Drv F.D. properties file   788 does not exist.
 Leave Link 1110 at Sun Sep 29 09:53:33 2019, MaxMem=   671088640 cpu:            4894.9 elap:            2447.8
 (Enter /shared/centos7/gaussian/g16/l1002.exe)
 Minotr:  Closed shell wavefunction.
          IDoAtm=11111111111111111111111
          Direct CPHF calculation.
          Differentiating once with respect to nuclear coordinates.
          Requested convergence is 1.0D-08 RMS, and 1.0D-07 maximum.
          Secondary convergence is 1.0D-12 RMS, and 1.0D-12 maximum.
          NewPWx=T KeepS1=F KeepF1=F KeepIn=T MapXYZ=F SortEE=F KeepMc=T.
         6918 words used for storage of precomputed grid.
 Two-electron integrals replicated using symmetry.
          MDV=     671088640 using IRadAn=       1.
          Solving linear equations simultaneously, MaxMat=     380.
 FoF2E skips out because all densities are zero.
 CalDSu exits because no D1Ps are significant.
 FoFJK:  IHMeth= 1 ICntrl=       0 DoSepK=F KAlg= 0 I1Cent=           0 FoldK=F
 IRaf= 930000000 NMat=      69 IRICut=     172 DoRegI=T DoRafI=T ISym2E= 2 IDoP0=3 IntGTp=3.
 FoFCou: FMM=F IPFlag=           0 FMFlag=      100000 FMFlg1=           0
         NFxFlg=           0 DoJE=F BraDBF=F KetDBF=F FulRan=T
         wScrn=  0.000000 ICntrl=         0 IOpCl=  0 I1Cent=           0 NGrid=           0
         NMat0=   69 NMatS0=     69 NMatT0=    0 NMatD0=   69 NMtDS0=    0 NMtDT0=    0
 Integrals replicated using symmetry in FoFCou.
 Raff kept on since  89.05% of shell-pairs survive, threshold=   0.20 IRatSp=89.
          There are    72 degrees of freedom in the 1st order CPHF.  IDoFFX=6 NUNeed=     0.
     66 vectors produced by pass  0 Test12= 1.63D-14 1.39D-09 XBig12= 5.44D-02 3.60D-02.
 AX will form    66 AO Fock derivatives at one time.
     66 vectors produced by pass  1 Test12= 1.63D-14 1.39D-09 XBig12= 2.93D-03 6.39D-03.
     66 vectors produced by pass  2 Test12= 1.63D-14 1.39D-09 XBig12= 5.06D-05 8.75D-04.
     66 vectors produced by pass  3 Test12= 1.63D-14 1.39D-09 XBig12= 4.50D-07 8.04D-05.
     66 vectors produced by pass  4 Test12= 1.63D-14 1.39D-09 XBig12= 2.05D-09 4.18D-06.
     66 vectors produced by pass  5 Test12= 1.63D-14 1.39D-09 XBig12= 9.68D-12 2.83D-07.
     24 vectors produced by pass  6 Test12= 1.63D-14 1.39D-09 XBig12= 3.47D-14 1.96D-08.
 InvSVY:  IOpt=1 It=  1 EMax= 4.16D-16
 Solved reduced A of dimension   420 with    72 vectors.
 End of Minotr F.D. properties file   721 does not exist.
 End of Minotr F.D. properties file   722 does not exist.
 End of Minotr F.D. properties file   788 does not exist.
 Leave Link 1002 at Sun Sep 29 11:01:34 2019, MaxMem=   671088640 cpu:            8161.0 elap:            4081.1
 (Enter /shared/centos7/gaussian/g16/l601.exe)
 Copying SCF densities to generalized density rwf, IOpCl= 0 IROHF=0.

 **********************************************************************

            Population analysis using the SCF density.

 **********************************************************************

 Orbital symmetries:
       Occupied  (A) (A) (A) (A) (A) (A) (A) (A) (A) (A) (A) (A)
                 (A) (A) (A) (A) (A) (A) (A) (A) (A) (A) (A) (A)
                 (A) (A) (A) (A) (A)
       Virtual   (A) (A) (A) (A) (A) (A) (A) (A) (A) (A) (A) (A)
                 (A) (A) (A) (A) (A) (A) (A) (A) (A) (A) (A) (A)
                 (A) (A) (A) (A) (A) (A) (A) (A) (A) (A) (A) (A)
                 (A) (A) (A) (A) (A) (A) (A) (A) (A) (A) (A) (A)
                 (A) (A) (A) (A) (A) (A) (A) (A) (A) (A) (A) (A)
                 (A) (A) (A) (A) (A) (A) (A) (A) (A) (A) (A) (A)
                 (A) (A) (A) (A) (A) (A) (A) (A) (A) (A) (A) (A)
                 (A) (A) (A) (A) (A) (A) (A) (A) (A) (A) (A) (A)
                 (A) (A) (A) (A) (A) (A) (A) (A) (A) (A) (A) (A)
                 (A) (A) (A) (A) (A) (A) (A) (A) (A) (A) (A) (A)
                 (A) (A) (A) (A) (A) (A) (A) (A) (A) (A) (A) (A)
                 (A) (A) (A) (A) (A) (A) (A) (A) (A) (A) (A) (A)
                 (A) (A) (A) (A) (A) (A) (A) (A) (A) (A) (A) (A)
                 (A) (A) (A) (A) (A) (A) (A) (A) (A) (A) (A) (A)
                 (A) (A) (A) (A) (A) (A) (A) (A) (A) (A) (A) (A)
                 (A) (A) (A) (A) (A) (A) (A) (A) (A) (A) (A) (A)
                 (A) (A) (A) (A) (A) (A) (A) (A) (A) (A) (A) (A)
                 (A) (A) (A) (A) (A) (A) (A) (A) (A) (A) (A) (A)
                 (A) (A) (A) (A) (A) (A) (A) (A) (A) (A) (A) (A)
                 (A) (A) (A) (A) (A) (A) (A) (A) (A) (A) (A) (A)
                 (A) (A) (A) (A) (A) (A) (A) (A) (A) (A) (A) (A)
                 (A) (A) (A) (A) (A) (A) (A) (A) (A) (A) (A) (A)
                 (A) (A) (A) (A) (A) (A) (A) (A) (A) (A) (A) (A)
                 (A) (A) (A) (A) (A) (A) (A) (A) (A) (A) (A) (A)
                 (A) (A) (A) (A) (A) (A) (A) (A) (A) (A) (A) (A)
                 (A) (A) (A) (A) (A) (A) (A) (A) (A) (A) (A) (A)
                 (A) (A) (A) (A) (A) (A) (A) (A) (A) (A) (A) (A)
                 (A) (A) (A) (A) (A) (A) (A) (A) (A) (A) (A) (A)
                 (A) (A) (A) (A) (A) (A) (A) (A) (A) (A) (A) (A)
                 (A) (A) (A) (A) (A) (A) (A) (A) (A) (A) (A) (A)
                 (A) (A) (A) (A) (A) (A) (A) (A) (A) (A) (A) (A)
                 (A) (A) (A) (A) (A) (A) (A) (A) (A) (A) (A) (A)
                 (A) (A) (A) (A) (A) (A) (A) (A) (A) (A) (A) (A)
                 (A) (A) (A) (A) (A) (A) (A) (A) (A)
 The electronic state is 1-A.
 Alpha  occ. eigenvalues --  -10.52749 -10.52586 -10.52483 -10.52392 -10.52204
 Alpha  occ. eigenvalues --  -10.52162 -10.51873  -0.92429  -0.88062  -0.82247
 Alpha  occ. eigenvalues --   -0.77001  -0.71124  -0.65652  -0.62138  -0.54937
 Alpha  occ. eigenvalues --   -0.53551  -0.51472  -0.49972  -0.47739  -0.45941
 Alpha  occ. eigenvalues --   -0.44784  -0.43122  -0.42870  -0.39779  -0.38739
 Alpha  occ. eigenvalues --   -0.38372  -0.36816  -0.35269  -0.34783
 Alpha virt. eigenvalues --    0.06074   0.08027   0.08085   0.08998   0.10494
 Alpha virt. eigenvalues --    0.11710   0.12371   0.13106   0.13874   0.15380
 Alpha virt. eigenvalues --    0.16059   0.17399   0.18228   0.19821   0.20192
 Alpha virt. eigenvalues --    0.21453   0.21988   0.22746   0.25165   0.25923
 Alpha virt. eigenvalues --    0.28160   0.28597   0.30170   0.30706   0.31821
 Alpha virt. eigenvalues --    0.32366   0.33442   0.35615   0.36049   0.37577
 Alpha virt. eigenvalues --    0.38190   0.39362   0.41411   0.42111   0.43446
 Alpha virt. eigenvalues --    0.44685   0.45245   0.45870   0.47456   0.48036
 Alpha virt. eigenvalues --    0.48833   0.48982   0.49928   0.50462   0.51561
 Alpha virt. eigenvalues --    0.52500   0.52757   0.53151   0.53378   0.53983
 Alpha virt. eigenvalues --    0.55049   0.55655   0.56101   0.56451   0.57765
 Alpha virt. eigenvalues --    0.58596   0.59474   0.60772   0.62792   0.63615
 Alpha virt. eigenvalues --    0.64839   0.68892   0.71588   0.73073   0.75586
 Alpha virt. eigenvalues --    0.77494   0.80189   0.81493   0.85527   0.85962
 Alpha virt. eigenvalues --    0.88204   0.89157   0.89867   0.92594   0.92873
 Alpha virt. eigenvalues --    0.94029   0.95442   0.96245   0.98051   0.99023
 Alpha virt. eigenvalues --    1.01031   1.01567   1.02365   1.03935   1.05016
 Alpha virt. eigenvalues --    1.06346   1.08059   1.09282   1.09628   1.09904
 Alpha virt. eigenvalues --    1.11086   1.11655   1.12468   1.14245   1.14775
 Alpha virt. eigenvalues --    1.15887   1.16300   1.18381   1.18908   1.19946
 Alpha virt. eigenvalues --    1.21514   1.22679   1.23005   1.23988   1.24533
 Alpha virt. eigenvalues --    1.25674   1.26953   1.28410   1.28838   1.29737
 Alpha virt. eigenvalues --    1.30794   1.31954   1.33007   1.34459   1.34883
 Alpha virt. eigenvalues --    1.35347   1.36897   1.37162   1.37660   1.38374
 Alpha virt. eigenvalues --    1.39988   1.41347   1.42531   1.43821   1.44122
 Alpha virt. eigenvalues --    1.45766   1.46481   1.48898   1.49318   1.50397
 Alpha virt. eigenvalues --    1.51574   1.52999   1.54394   1.54683   1.55355
 Alpha virt. eigenvalues --    1.57061   1.58351   1.59459   1.61883   1.64045
 Alpha virt. eigenvalues --    1.65199   1.65572   1.69996   1.75583   1.75636
 Alpha virt. eigenvalues --    1.78889   1.83229   1.88535   1.91333   2.22471
 Alpha virt. eigenvalues --    2.26923   2.28217   2.28672   2.32946   2.34788
 Alpha virt. eigenvalues --    2.38728   2.40766   2.41648   2.42323   2.44825
 Alpha virt. eigenvalues --    2.45725   2.49402   2.49963   2.51913   2.52875
 Alpha virt. eigenvalues --    2.55362   2.56186   2.57861   2.60930   2.62891
 Alpha virt. eigenvalues --    2.63131   2.64197   2.64955   2.65115   2.66864
 Alpha virt. eigenvalues --    2.68805   2.69879   2.70874   2.72289   2.74023
 Alpha virt. eigenvalues --    2.75086   2.75703   2.77759   2.79742   2.80896
 Alpha virt. eigenvalues --    2.81855   2.82219   2.83581   2.84570   2.86054
 Alpha virt. eigenvalues --    2.86917   2.88445   2.90877   2.91528   2.93671
 Alpha virt. eigenvalues --    2.93930   2.95331   2.97095   2.98365   3.00111
 Alpha virt. eigenvalues --    3.00750   3.01820   3.03104   3.04499   3.05274
 Alpha virt. eigenvalues --    3.05713   3.07138   3.08070   3.08801   3.09547
 Alpha virt. eigenvalues --    3.10136   3.11448   3.11934   3.12912   3.13531
 Alpha virt. eigenvalues --    3.14403   3.16148   3.16516   3.17050   3.18127
 Alpha virt. eigenvalues --    3.19377   3.20091   3.21433   3.22919   3.23285
 Alpha virt. eigenvalues --    3.24594   3.26322   3.26650   3.28210   3.30047
 Alpha virt. eigenvalues --    3.30856   3.31870   3.32956   3.35174   3.36362
 Alpha virt. eigenvalues --    3.36972   3.37869   3.39179   3.39749   3.42865
 Alpha virt. eigenvalues --    3.44450   3.45917   3.46426   3.47906   3.48429
 Alpha virt. eigenvalues --    3.49609   3.51275   3.52668   3.53727   3.55362
 Alpha virt. eigenvalues --    3.56469   3.57178   3.58912   3.60041   3.61502
 Alpha virt. eigenvalues --    3.62312   3.63744   3.64101   3.65840   3.67072
 Alpha virt. eigenvalues --    3.68111   3.69658   3.70886   3.72966   3.73483
 Alpha virt. eigenvalues --    3.74352   3.76021   3.78058   3.79283   3.80307
 Alpha virt. eigenvalues --    3.80975   3.82032   3.83451   3.85375   3.86299
 Alpha virt. eigenvalues --    3.86847   3.88491   3.89379   3.89417   3.91439
 Alpha virt. eigenvalues --    3.92663   3.93713   3.94595   3.95608   3.96523
 Alpha virt. eigenvalues --    3.97127   3.98060   3.99652   4.00325   4.03102
 Alpha virt. eigenvalues --    4.04245   4.04295   4.05159   4.05693   4.06756
 Alpha virt. eigenvalues --    4.07574   4.08658   4.11378   4.12376   4.13341
 Alpha virt. eigenvalues --    4.14767   4.16201   4.17056   4.18170   4.18662
 Alpha virt. eigenvalues --    4.19142   4.20014   4.20082   4.22262   4.23799
 Alpha virt. eigenvalues --    4.23825   4.25083   4.26389   4.29728   4.30802
 Alpha virt. eigenvalues --    4.31985   4.33030   4.37126   4.37464   4.40354
 Alpha virt. eigenvalues --    4.41620   4.44545   4.45060   4.45884   4.48059
 Alpha virt. eigenvalues --    4.50126   4.51536   4.52431   4.56099   4.57570
 Alpha virt. eigenvalues --    4.59986   4.60805   4.63971   4.64947   4.66238
 Alpha virt. eigenvalues --    4.67463   4.69251   4.71612   4.73495   4.77185
 Alpha virt. eigenvalues --    4.77962   4.79620   4.80254   4.82340   4.85144
 Alpha virt. eigenvalues --    4.86129   4.86403   4.88559   4.89930   4.92556
 Alpha virt. eigenvalues --    4.93466   4.96624   4.98468   4.98906   4.99585
 Alpha virt. eigenvalues --    5.03960   5.04227   5.05398   5.06965   5.08523
 Alpha virt. eigenvalues --    5.10589   5.11289   5.12795   5.14172   5.16248
 Alpha virt. eigenvalues --    5.19280   5.20713   5.25570   5.25888   5.26841
 Alpha virt. eigenvalues --    5.28790   5.29498   5.31435   5.34617   5.36221
 Alpha virt. eigenvalues --    5.37573   5.38401   5.41452   5.44355   5.44758
 Alpha virt. eigenvalues --    5.46020   5.50970   5.53008   5.56048   5.58766
 Alpha virt. eigenvalues --    5.61591   5.66541   5.71490   5.78589   5.79957
 Alpha virt. eigenvalues --    5.82027   5.85441   5.86190   5.91239   5.95424
 Alpha virt. eigenvalues --    5.96917   6.03615   6.07484  11.55172  11.90736
 Alpha virt. eigenvalues --   12.12973  13.08089  13.31489  13.80281  13.97271
          Condensed to atoms (all electrons):
               1          2          3          4          5          6
     1  C    5.145621   0.283859  -0.057540   0.323732  -0.009223  -0.044033
     2  C    0.283859   5.153660   0.313041  -0.053073  -0.049621  -0.012102
     3  C   -0.057540   0.313041   5.059442   0.007162   0.315108  -0.000107
     4  C    0.323732  -0.053073   0.007162   5.054053   0.000130   0.287449
     5  C   -0.009223  -0.049621   0.315108   0.000130   5.068018  -0.000071
     6  C   -0.044033  -0.012102  -0.000107   0.287449  -0.000071   5.000471
     7  C   -0.018775   0.000349  -0.046656   0.000880   0.292238  -0.000030
     8  H   -0.043399   0.009989  -0.000500   0.414832   0.000059  -0.046511
     9  H   -0.047163  -0.008148  -0.000178   0.416919   0.000131  -0.049933
    10  H    0.422420  -0.054611  -0.006509  -0.039008   0.002123  -0.006882
    11  H    0.414872  -0.044592  -0.001533  -0.035135  -0.009170   0.009119
    12  H   -0.050860   0.423687  -0.049127  -0.005595   0.005298  -0.000131
    13  H   -0.047862   0.406825  -0.038711  -0.000274   0.006718  -0.000797
    14  H    0.007210  -0.055418   0.416423  -0.000318  -0.044753   0.000069
    15  H    0.004266  -0.046230   0.416434  -0.000453  -0.046052  -0.000036
    16  H    0.000205  -0.008628  -0.039231   0.000947   0.410960  -0.000050
    17  H    0.001009   0.007485  -0.036645   0.000021   0.408403   0.000006
    18  H    0.003488  -0.005044  -0.000397  -0.063363  -0.000033   0.407863
    19  H    0.004861   0.000668   0.000018  -0.043422   0.000001   0.404872
    20  H    0.004159   0.000097   0.000036  -0.042666   0.000005   0.404628
    21  H   -0.010579   0.002538   0.001815   0.001184  -0.059410   0.000193
    22  H    0.001578  -0.001136   0.001709  -0.000016  -0.038003  -0.000003
    23  H   -0.000802   0.000090   0.006679   0.000001  -0.044691   0.000027
               7          8          9         10         11         12
     1  C   -0.018775  -0.043399  -0.047163   0.422420   0.414872  -0.050860
     2  C    0.000349   0.009989  -0.008148  -0.054611  -0.044592   0.423687
     3  C   -0.046656  -0.000500  -0.000178  -0.006509  -0.001533  -0.049127
     4  C    0.000880   0.414832   0.416919  -0.039008  -0.035135  -0.005595
     5  C    0.292238   0.000059   0.000131   0.002123  -0.009170   0.005298
     6  C   -0.000030  -0.046511  -0.049933  -0.006882   0.009119  -0.000131
     7  C    5.016805   0.000088  -0.000156  -0.021818   0.002168   0.000595
     8  H    0.000088   0.613330  -0.035378  -0.009607  -0.006905  -0.000200
     9  H   -0.000156  -0.035378   0.605077   0.010296  -0.006867  -0.000506
    10  H   -0.021818  -0.009607   0.010296   0.601884  -0.034588  -0.005551
    11  H    0.002168  -0.006905  -0.006867  -0.034588   0.572935   0.008048
    12  H    0.000595  -0.000200  -0.000506  -0.005551   0.008048   0.578136
    13  H   -0.000688   0.000007   0.004631   0.008929  -0.008252  -0.034388
    14  H   -0.004662   0.000041  -0.000008   0.000208  -0.000440  -0.015274
    15  H    0.008903   0.000023  -0.000039  -0.000546   0.001303   0.006915
    16  H   -0.046166   0.000108  -0.000053  -0.004046  -0.004233  -0.000245
    17  H   -0.038501  -0.000004   0.000002   0.000094   0.000335  -0.000428
    18  H   -0.000157   0.006274   0.006036  -0.000088   0.000499  -0.002113
    19  H    0.000004   0.006766  -0.019993  -0.000075  -0.000578  -0.001068
    20  H   -0.000017  -0.020583   0.007003   0.001202  -0.000428   0.000264
    21  H    0.414570   0.000105  -0.000111  -0.018791   0.001400  -0.001666
    22  H    0.396826  -0.000002   0.000004   0.002714  -0.000200  -0.000038
    23  H    0.409644   0.000013  -0.000000  -0.000226  -0.000051   0.000033
              13         14         15         16         17         18
     1  C   -0.047862   0.007210   0.004266   0.000205   0.001009   0.003488
     2  C    0.406825  -0.055418  -0.046230  -0.008628   0.007485  -0.005044
     3  C   -0.038711   0.416423   0.416434  -0.039231  -0.036645  -0.000397
     4  C   -0.000274  -0.000318  -0.000453   0.000947   0.000021  -0.063363
     5  C    0.006718  -0.044753  -0.046052   0.410960   0.408403  -0.000033
     6  C   -0.000797   0.000069  -0.000036  -0.000050   0.000006   0.407863
     7  C   -0.000688  -0.004662   0.008903  -0.046166  -0.038501  -0.000157
     8  H    0.000007   0.000041   0.000023   0.000108  -0.000004   0.006274
     9  H    0.004631  -0.000008  -0.000039  -0.000053   0.000002   0.006036
    10  H    0.008929   0.000208  -0.000546  -0.004046   0.000094  -0.000088
    11  H   -0.008252  -0.000440   0.001303  -0.004233   0.000335   0.000499
    12  H   -0.034388  -0.015274   0.006915  -0.000245  -0.000428  -0.002113
    13  H    0.588601   0.005427  -0.017231   0.000705  -0.000334   0.000858
    14  H    0.005427   0.593673  -0.032035   0.008759  -0.006088   0.000266
    15  H   -0.017231  -0.032035   0.596465  -0.005149  -0.008138  -0.000015
    16  H    0.000705   0.008759  -0.005149   0.613336  -0.036758   0.000016
    17  H   -0.000334  -0.006088  -0.008138  -0.036758   0.587017   0.000007
    18  H    0.000858   0.000266  -0.000015   0.000016   0.000007   0.604833
    19  H   -0.000031   0.000001  -0.000002   0.000002  -0.000000  -0.036112
    20  H   -0.000043  -0.000010   0.000001   0.000000  -0.000000  -0.035201
    21  H   -0.000365  -0.000327   0.000231   0.003323   0.006547   0.000485
    22  H    0.000077   0.002852  -0.000473   0.007855  -0.016604   0.000015
    23  H    0.000024  -0.000182  -0.000499  -0.015245   0.003169  -0.000008
              19         20         21         22         23
     1  C    0.004861   0.004159  -0.010579   0.001578  -0.000802
     2  C    0.000668   0.000097   0.002538  -0.001136   0.000090
     3  C    0.000018   0.000036   0.001815   0.001709   0.006679
     4  C   -0.043422  -0.042666   0.001184  -0.000016   0.000001
     5  C    0.000001   0.000005  -0.059410  -0.038003  -0.044691
     6  C    0.404872   0.404628   0.000193  -0.000003   0.000027
     7  C    0.000004  -0.000017   0.414570   0.396826   0.409644
     8  H    0.006766  -0.020583   0.000105  -0.000002   0.000013
     9  H   -0.019993   0.007003  -0.000111   0.000004  -0.000000
    10  H   -0.000075   0.001202  -0.018791   0.002714  -0.000226
    11  H   -0.000578  -0.000428   0.001400  -0.000200  -0.000051
    12  H   -0.001068   0.000264  -0.001666  -0.000038   0.000033
    13  H   -0.000031  -0.000043  -0.000365   0.000077   0.000024
    14  H    0.000001  -0.000010  -0.000327   0.002852  -0.000182
    15  H   -0.000002   0.000001   0.000231  -0.000473  -0.000499
    16  H    0.000002   0.000000   0.003323   0.007855  -0.015245
    17  H   -0.000000  -0.000000   0.006547  -0.016604   0.003169
    18  H   -0.036112  -0.035201   0.000485   0.000015  -0.000008
    19  H    0.605757  -0.030302  -0.000013  -0.000000  -0.000000
    20  H   -0.030302   0.599490  -0.000007   0.000001  -0.000003
    21  H   -0.000013  -0.000007   0.619902  -0.037838  -0.039992
    22  H   -0.000000   0.000001  -0.037838   0.594487  -0.024861
    23  H   -0.000000  -0.000003  -0.039992  -0.024861   0.589559
 Mulliken charges:
               1
     1  C   -0.287043
     2  C   -0.263688
     3  C   -0.260733
     4  C   -0.223988
     5  C   -0.208166
     6  C   -0.354011
     7  C   -0.365446
     8  H    0.111454
     9  H    0.118434
    10  H    0.152479
    11  H    0.142290
    12  H    0.144214
    13  H    0.126173
    14  H    0.124587
    15  H    0.122356
    16  H    0.113586
    17  H    0.129406
    18  H    0.111891
    19  H    0.108646
    20  H    0.112374
    21  H    0.116808
    22  H    0.111057
    23  H    0.117320
 Sum of Mulliken charges =  -0.00000
 Mulliken charges with hydrogens summed into heavy atoms:
               1
     1  C    0.007726
     2  C    0.006699
     3  C   -0.013790
     4  C    0.005900
     5  C    0.034827
     6  C   -0.021100
     7  C   -0.020260
 APT charges:
               1
     1  C   -0.450378
     2  C   -0.612093
     3  C   -0.900476
     4  C   -0.803587
     5  C   -0.711358
     6  C   -1.195511
     7  C   -1.058772
     8  H    0.400575
     9  H    0.402485
    10  H    0.281363
    11  H    0.348450
    12  H    0.319297
    13  H    0.382994
    14  H    0.361125
    15  H    0.431487
    16  H    0.247916
    17  H    0.536806
    18  H    0.126804
    19  H    0.462873
    20  H    0.465254
    21  H    0.111552
    22  H    0.509219
    23  H    0.343978
 Sum of APT charges =  -0.00000
 APT charges with hydrogens summed into heavy atoms:
               1
     1  C    0.179435
     2  C    0.090198
     3  C   -0.107865
     4  C   -0.000527
     5  C    0.073364
     6  C   -0.140581
     7  C   -0.094024
 Electronic spatial extent (au):  <R**2>=           1133.7159
 Charge=              0.0000 electrons
 Dipole moment (field-independent basis, Debye):
    X=              0.1252    Y=             -0.0125    Z=              0.0944  Tot=              0.1573
 Quadrupole moment (field-independent basis, Debye-Ang):
   XX=            -49.4733   YY=            -49.0699   ZZ=            -49.1223
   XY=             -0.0940   XZ=             -0.2211   YZ=             -0.0165
 Traceless Quadrupole moment (field-independent basis, Debye-Ang):
   XX=             -0.2515   YY=              0.1519   ZZ=              0.0996
   XY=             -0.0940   XZ=             -0.2211   YZ=             -0.0165
 Octapole moment (field-independent basis, Debye-Ang**2):
  XXX=              3.1895  YYY=             -1.0560  ZZZ=              0.4682  XYY=             -2.0912
  XXY=             -0.7573  XXZ=              0.0796  XZZ=              1.5902  YZZ=             -0.2257
  YYZ=              2.3578  XYZ=             -0.3493
 Hexadecapole moment (field-independent basis, Debye-Ang**3):
 XXXX=          -1107.8131 YYYY=           -316.0972 ZZZZ=           -186.1526 XXXY=              1.2202
 XXXZ=             -7.0071 YYYX=             -4.7409 YYYZ=             -0.1040 ZZZX=             -1.7275
 ZZZY=              1.7364 XXYY=           -234.4518 XXZZ=           -222.0417 YYZZ=            -84.1640
 XXYZ=              0.2806 YYXZ=              0.9145 ZZXY=              0.7754
 N-N= 3.305661251735D+02 E-N=-1.299594776962D+03  KE= 2.745313042587D+02
  Exact polarizability:   0.000   0.000   0.000   0.000   0.000   0.000
 Approx polarizability:  98.473   0.800  98.264  -0.975   0.076  97.839
 No NMR shielding tensors so no spin-rotation constants.
 Leave Link  601 at Sun Sep 29 11:02:02 2019, MaxMem=   671088640 cpu:              57.0 elap:              28.6
 (Enter /shared/centos7/gaussian/g16/l701.exe)
 SCFChk:  SCF convergence  7.93D-09 required  1.00D-08
 ... and contract with generalized density number  0.
 Compute integral second derivatives.
 Entering OneElI...
 Calculate overlap and kinetic energy integrals
    NBasis = 485  MinDer = 2  MaxDer = 2
 Requested accuracy = 0.1000D-12
 PrmmSu-InSpLW:  IPartL=    0 NPrtUS=   20 NPrtUL=    1 DoSpLW=F IThBeg=    0 IThEnd=   19 NThAct=   20.
 PrsmSu:  NPrtUS=  20 ThrOK=T IAlg=1 NPAlg=1 LenDen=           0 ISkipM=0 DoSpLW=F IThBeg=    0 IThEnd=   19.
 Prism:   IPart=     0 DynPar=F LinDyn=F Incr=           6.
 PRISM was handed    33200359 working-precision words and 13682 shell-pairs
 PRISM was handed    33200359 working-precision words and 13682 shell-pairs
 PRISM was handed    33200359 working-precision words and 13682 shell-pairs
 PRISM was handed    33200359 working-precision words and 13682 shell-pairs
 PRISM was handed    33200359 working-precision words and 13682 shell-pairs
 PRISM was handed    33200359 working-precision words and 13682 shell-pairs
 PRISM was handed    33200359 working-precision words and 13682 shell-pairs
 PRISM was handed    33200359 working-precision words and 13682 shell-pairs
 PRISM was handed    33200359 working-precision words and 13682 shell-pairs
 IPart=  2 NShTot=         713 NBatch=          77 AvBLen=         9.3
 IPart=  0 NShTot=         719 NBatch=          80 AvBLen=         9.0
 PRISM was handed    33200359 working-precision words and 13682 shell-pairs
 PRISM was handed    33200359 working-precision words and 13682 shell-pairs
 PRISM was handed    33200359 working-precision words and 13682 shell-pairs
 PRISM was handed    33200359 working-precision words and 13682 shell-pairs
 IPart= 10 NShTot=         677 NBatch=          57 AvBLen=        11.9
 PRISM was handed    33200359 working-precision words and 13682 shell-pairs
 PRISM was handed    33200359 working-precision words and 13682 shell-pairs
 PRISM was handed    33200359 working-precision words and 13682 shell-pairs
 IPart= 12 NShTot=         669 NBatch=          53 AvBLen=        12.6
 IPart=  3 NShTot=         709 NBatch=          74 AvBLen=         9.6
 PRISM was handed    33200359 working-precision words and 13682 shell-pairs
 PRISM was handed    33200359 working-precision words and 13682 shell-pairs
 IPart=  8 NShTot=         686 NBatch=          59 AvBLen=        11.6
 IPart=  6 NShTot=         699 NBatch=          66 AvBLen=        10.6
 PRISM was handed    33200359 working-precision words and 13682 shell-pairs
 PRISM was handed    33200359 working-precision words and 13682 shell-pairs
 IPart= 11 NShTot=         674 NBatch=          56 AvBLen=        12.0
 IPart=  7 NShTot=         690 NBatch=          60 AvBLen=        11.5
 IPart=  9 NShTot=         682 NBatch=          58 AvBLen=        11.8
 IPart= 19 NShTot=         657 NBatch=          48 AvBLen=        13.7
 IPart= 18 NShTot=         657 NBatch=          48 AvBLen=        13.7
 IPart= 17 NShTot=         660 NBatch=          50 AvBLen=        13.2
 IPart= 15 NShTot=         667 NBatch=          52 AvBLen=        12.8
 IPart= 16 NShTot=         664 NBatch=          51 AvBLen=        13.0
 IPart= 14 NShTot=         667 NBatch=          52 AvBLen=        12.8
 IPart=  1 NShTot=         716 NBatch=          79 AvBLen=         9.1
 IPart=  4 NShTot=         705 NBatch=          71 AvBLen=         9.9
 IPart=  5 NShTot=         703 NBatch=          70 AvBLen=        10.0
 IPart= 13 NShTot=         668 NBatch=          52 AvBLen=        12.8
 PrSmSu:  NxtVal=            121.
 Entering OneElI...
 Calculate potential energy integrals
    NBasis = 485  MinDer = 2  MaxDer = 2
 Requested accuracy = 0.1000D-12
 PrmmSu-InSpLW:  IPartL=    0 NPrtUS=   20 NPrtUL=    1 DoSpLW=F IThBeg=    0 IThEnd=   19 NThAct=   20.
 PrsmSu:  NPrtUS=  20 ThrOK=T IAlg=1 NPAlg=1 LenDen=           0 ISkipM=0 DoSpLW=F IThBeg=    0 IThEnd=   19.
 Prism:   IPart=     0 DynPar=F LinDyn=F Incr=         142.
 PRISM was handed    33262913 working-precision words and 12350 shell-pairs
 PRISM was handed    33262913 working-precision words and 12350 shell-pairs
 PRISM was handed    33262913 working-precision words and 12350 shell-pairs
 PRISM was handed    33262913 working-precision words and 12350 shell-pairs
 PRISM was handed    33262913 working-precision words and 12350 shell-pairs
 PRISM was handed    33262913 working-precision words and 12350 shell-pairs
 PRISM was handed    33262913 working-precision words and 12350 shell-pairs
 PRISM was handed    33262913 working-precision words and 12350 shell-pairs
 PRISM was handed    33262913 working-precision words and 12350 shell-pairs
 PRISM was handed    33262913 working-precision words and 12350 shell-pairs
 PRISM was handed    33262913 working-precision words and 12350 shell-pairs
 PRISM was handed    33262913 working-precision words and 12350 shell-pairs
 PRISM was handed    33262913 working-precision words and 12350 shell-pairs
 PRISM was handed    33262913 working-precision words and 12350 shell-pairs
 PRISM was handed    33262913 working-precision words and 12350 shell-pairs
 PRISM was handed    33262913 working-precision words and 12350 shell-pairs
 PRISM was handed    33262913 working-precision words and 12350 shell-pairs
 PRISM was handed    33262913 working-precision words and 12350 shell-pairs
 PRISM was handed    33262913 working-precision words and 12350 shell-pairs
 PRISM was handed    33262913 working-precision words and 12350 shell-pairs
 IPart= 16 NShTot=       13754 NBatch=         599 AvBLen=        23.0
 IPart= 18 NShTot=       13662 NBatch=         595 AvBLen=        23.0
 IPart= 12 NShTot=       13938 NBatch=         607 AvBLen=        23.0
 IPart= 19 NShTot=       13616 NBatch=         593 AvBLen=        23.0
 IPart=  2 NShTot=       14789 NBatch=         645 AvBLen=        22.9
 IPart=  3 NShTot=       14720 NBatch=         642 AvBLen=        22.9
 IPart=  5 NShTot=       14605 NBatch=         637 AvBLen=        22.9
 IPart=  7 NShTot=       14260 NBatch=         621 AvBLen=        23.0
 IPart=  8 NShTot=       14168 NBatch=         617 AvBLen=        23.0
 IPart= 10 NShTot=       14076 NBatch=         613 AvBLen=        23.0
 IPart= 17 NShTot=       13685 NBatch=         596 AvBLen=        23.0
 IPart=  9 NShTot=       14145 NBatch=         616 AvBLen=        23.0
 IPart= 14 NShTot=       13915 NBatch=         606 AvBLen=        23.0
 IPart=  0 NShTot=       14950 NBatch=         652 AvBLen=        22.9
 IPart= 11 NShTot=       14007 NBatch=         610 AvBLen=        23.0
 IPart= 13 NShTot=       13915 NBatch=         606 AvBLen=        23.0
 IPart=  4 NShTot=       14628 NBatch=         638 AvBLen=        22.9
 IPart= 15 NShTot=       13823 NBatch=         602 AvBLen=        23.0
 IPart=  6 NShTot=       14467 NBatch=         631 AvBLen=        22.9
 IPart=  1 NShTot=       14927 NBatch=         651 AvBLen=        22.9
 PrSmSu:  NxtVal=           2841.
 Polarizability after L701:
                1             2             3 
      1  0.000000D+00
      2  0.000000D+00  0.000000D+00
      3  0.000000D+00  0.000000D+00  0.000000D+00
 Dipole Derivatives after L701:
                 1             2             3             4             5 
      1   0.570091D-01  0.117416D+00 -0.582241D-01 -0.150640D+00 -0.243208D+00
      2  -0.982621D-01 -0.494440D+00  0.269810D+00 -0.639473D+00 -0.981564D+00
      3  -0.376521D+00  0.193467D-02 -0.913704D+00 -0.255268D+00  0.152002D+00
                 6             7             8             9            10 
      1  -0.176922D+00 -0.743787D+00  0.885325D+00  0.527370D+00 -0.922750D+00
      2  -0.115062D+00  0.629692D+00 -0.111480D+01 -0.968851D-01 -0.287806D-01
      3  -0.704076D+00  0.261770D+00  0.582342D-01 -0.842839D+00  0.442622D+00
                11            12            13            14            15 
      1  -0.199084D+00  0.173633D+01 -0.148710D+01  0.295154D+00 -0.104109D+01
      2  -0.820312D+00 -0.192815D+00  0.299553D-01  0.105065D+00 -0.790801D-01
      3  -0.642003D-01 -0.667698D+00  0.111774D-01 -0.247867D-01 -0.752040D+00
                16            17            18            19            20 
      1  -0.168308D+01  0.243071D+00 -0.148303D+01 -0.834017D+00 -0.119376D+01
      2   0.639780D-01 -0.980601D+00  0.149811D+00 -0.695982D-02 -0.141448D+01
      3  -0.187626D-01 -0.153059D-01 -0.922849D+00 -0.626383D-02 -0.587404D-01
                21            22            23            24            25 
      1   0.528779D+00  0.344998D+00 -0.670688D+00 -0.465504D+00  0.534477D+00
      2   0.152632D+00 -0.108789D+00  0.437954D+00  0.212368D+00  0.143435D+00
      3  -0.927816D+00 -0.954983D-01  0.377384D+00  0.418772D+00 -0.138384D+00
                26            27            28            29            30 
      1   0.738844D+00 -0.320952D+00  0.184919D+00 -0.402568D-01 -0.111867D-01
      2   0.376353D+00 -0.115080D+00  0.202837D+00  0.506191D+00 -0.163146D+00
      3  -0.321805D+00  0.296624D+00  0.189588D-01  0.599208D-01  0.152979D+00
                31            32            33            34            35 
      1   0.149331D+00 -0.438641D-03 -0.769776D-01  0.240637D+00 -0.311518D-01
      2  -0.251552D-01  0.154361D+00 -0.512698D-01  0.124592D+00  0.112194D+00
      3   0.209960D+00 -0.759769D-01  0.741659D+00  0.174445D+00 -0.606407D-01
                36            37            38            39            40 
      1   0.164664D+00  0.181142D+00  0.132847D+00 -0.577888D-01  0.297884D+00
      2   0.306184D+00  0.191270D+00  0.807589D+00 -0.286979D+00 -0.914601D-01
      3   0.605060D+00 -0.199756D-01 -0.796416D-01  0.160251D+00 -0.108219D+00
                41            42            43            44            45 
      1  -0.250757D-01 -0.582736D+00  0.356657D+00 -0.528118D+00  0.290926D+00
      2   0.128370D+00  0.389126D+00 -0.208912D+00  0.782340D+00 -0.351826D+00
      3   0.164238D-01  0.657122D+00  0.262223D-01 -0.743246D-01  0.155463D+00
                46            47            48            49            50 
      1  -0.576020D-01  0.796045D-01  0.618167D+00  0.130117D+01 -0.232476D+00
      2  -0.175424D-01  0.162034D+00  0.333868D-01 -0.697021D-01  0.172223D+00
      3  -0.185548D+00  0.650634D-01  0.639316D+00  0.103080D+00 -0.369217D-01
                51            52            53            54            55 
      1  -0.120288D-01 -0.244648D+00  0.867594D-02  0.481439D+00  0.941875D+00
      2  -0.123032D-01  0.777263D-01  0.910499D-01 -0.113838D+00  0.140299D+00
      3   0.137022D+00 -0.376194D+00  0.100302D-01  0.534011D+00  0.220066D+00
                56            57            58            59            60 
      1   0.977546D+00  0.216399D+00  0.654139D+00 -0.106526D+01 -0.213065D-01
      2   0.266595D+00  0.353038D-02 -0.268135D+00  0.603999D+00  0.393494D-01
      3   0.221821D+00  0.180149D+00  0.119066D+00 -0.186844D+00  0.137623D+00
                61            62            63            64            65 
      1  -0.106811D+00  0.768053D-01 -0.105204D+00  0.968265D+00  0.179100D+00
      2  -0.415375D+00  0.165973D+00 -0.188842D+00  0.450071D+00  0.226033D+00
      3   0.313595D+00 -0.219798D-01  0.275493D+00 -0.312724D+00 -0.894812D-01
                66            67            68            69 
      1  -0.649271D+00  0.179328D-01  0.495130D+00  0.498150D+00
      2  -0.379814D+00 -0.753079D-01  0.707880D+00  0.590741D+00
      3   0.333357D+00 -0.760444D-02  0.147835D+00  0.306121D+00
 Hessian after L701:
                1             2             3             4             5 
      1  0.152519D+02
      2  0.870587D+00  0.181295D+02
      3  0.206091D+00 -0.261881D+00  0.182301D+02
      4 -0.561171D+01 -0.133665D+01 -0.108822D+01  0.151580D+02
      5 -0.138629D+01 -0.432441D+01  0.154985D+01  0.477691D+00  0.171476D+02
      6 -0.107246D+01  0.150595D+01 -0.503667D+01  0.418705D+00 -0.472832D+00
      7  0.270829D+00 -0.918103D-01 -0.109281D+00 -0.215293D+01 -0.201131D-01
      8 -0.107717D+00 -0.274202D-01  0.751882D-01 -0.222788D-01 -0.606166D+01
      9 -0.150762D+00  0.942073D-01 -0.339060D-01 -0.224595D+00 -0.132354D+00
     10 -0.221327D+01 -0.519554D+00  0.712044D-01  0.174524D+00 -0.190576D+00
     11 -0.473970D+00 -0.623107D+01 -0.459193D-01 -0.295401D+00  0.947530D-01
     12  0.106136D+00 -0.550442D-01 -0.628899D+01 -0.773665D-01  0.968947D-01
     13  0.346365D+00  0.824980D-02  0.282618D-01  0.273526D+00  0.161063D+00
     14 -0.286132D-01 -0.212059D+00  0.227629D-01  0.194035D+00  0.364921D-01
     15 -0.103948D+00  0.190747D-02 -0.234467D+00  0.142297D-01  0.289149D-01
     16  0.164737D+00 -0.126506D+00  0.318480D+00  0.176201D+00 -0.120211D+00
     17 -0.622423D-01 -0.148335D+00 -0.535804D-01 -0.166783D+00 -0.106776D+00
     18  0.245567D+00 -0.604328D-01  0.108880D+00 -0.394747D-01  0.238100D-01
     19  0.172215D+00  0.234728D+00 -0.100191D+00  0.345824D-01  0.235471D+00
     20  0.781858D-01 -0.739923D-01 -0.318142D-01  0.200796D+00  0.658637D-01
     21 -0.756664D-01 -0.604187D-01 -0.140709D+00  0.161936D-01  0.370044D-01
     22 -0.693893D-01  0.959510D-01  0.481591D-01  0.540151D-01 -0.100777D+00
     23  0.752580D-01  0.829836D-01  0.134883D-01 -0.112721D+00  0.414180D-01
     24  0.468773D-01  0.590334D-02  0.100723D+00 -0.871419D-01  0.722973D-01
     25 -0.105777D+00 -0.964699D-01  0.681861D-03  0.265123D-02  0.392379D-02
     26 -0.583261D-01  0.123445D+00 -0.284827D-01  0.165839D-01  0.433150D-02
     27  0.215782D-01 -0.406798D-02  0.127313D+00 -0.993521D-02 -0.188578D-02
     28 -0.447603D+01  0.100543D+01 -0.304881D+00  0.186069D+00  0.471433D-01
     29  0.117185D+01 -0.262158D+01 -0.764271D+00 -0.156584D-01 -0.129425D+00
     30 -0.311641D+00 -0.671866D+00 -0.464516D+01 -0.160010D-01 -0.151469D+00
     31 -0.436504D+01 -0.258954D-01  0.774053D+00  0.127657D+00  0.164156D-01
     32 -0.335970D-01 -0.458051D+01 -0.191690D+00 -0.162853D-02  0.170692D-01
     33  0.907356D+00 -0.190376D+00 -0.218224D+01  0.135974D-01 -0.159535D+00
     34  0.169508D+00 -0.212907D-02  0.459841D-01 -0.423030D+01 -0.286493D-01
     35 -0.447308D-02  0.453149D-01 -0.188841D+00  0.285395D-01 -0.468218D+01
     36  0.234795D-01 -0.172625D+00 -0.437485D-01  0.111563D+01 -0.147368D+00
     37  0.131099D+00  0.693466D-01 -0.210377D-02 -0.411809D+01  0.785964D+00
     38  0.535827D-01 -0.769141D-01 -0.123895D+00  0.850548D+00 -0.241627D+01
     39  0.634137D-03 -0.116944D+00  0.110179D+00 -0.246056D+00 -0.658704D+00
     40  0.524294D-01 -0.446966D-01 -0.813952D-01 -0.121743D+00  0.245593D-01
     41 -0.517945D-01 -0.284505D-01  0.408830D-01  0.575278D-01  0.149306D+00
     42 -0.108707D+00  0.391198D-01  0.343407D-01  0.121709D+00 -0.571760D-02
     43  0.553952D-01 -0.704540D-01 -0.865169D-02 -0.119621D+00  0.446592D-01
     44 -0.988357D-01  0.302396D-01  0.353819D-02  0.666770D-01  0.160870D+00
     45 -0.147466D-02  0.364077D-02 -0.388696D-01 -0.293269D-03 -0.349735D-01
     46  0.920437D-02  0.235126D-01  0.435624D-01 -0.281880D-02 -0.895986D-02
     47  0.238962D-01 -0.452438D-01  0.101624D-01 -0.111425D-02 -0.165932D-02
     48  0.100519D+00  0.225906D-01 -0.509584D-02 -0.290482D-02 -0.702588D-02
     49  0.702934D-01  0.461888D-02 -0.169008D-02  0.141326D+00  0.442981D-01
     50 -0.719132D-02 -0.196257D-01 -0.604531D-03  0.360383D-01 -0.354181D-01
[...]
 59795,0.03424183,-0.05169984,-0.00414376,-0.00071589,0.00050418,0.0001
 1057,0.03448203,-0.00783882,-0.00164785,-0.00007177,-0.00006571,0.0000
 0647,0.00111260,0.00180406,0.00081189,-0.00013166,-0.00015369,0.000219
 24,0.00002346,-0.00001212,-0.00004839,-0.00020243,0.00014151,0.0002778
 1,0.00041700,-0.00010180,0.00003046,0.00054891,0.00045333,-0.00026771,
 -0.00017176,0.00014797,-0.00065870,-0.03898469,0.05961391,-0.00035577,
 0.00340690,-0.00494875,0.03096306,-0.00384496,-0.00383372,0.01708036,-
 0.00436562,-0.04908132,0.00185794,-0.00050448,0.00023986,-0.00341287,0
 .00111856,-0.00053141,0.00006704,0.00001564,0.00016717,0.00103641,-0.0
 0001875,-0.00006956,0.00026588,0.00033413,-0.00052169,-0.00002988,0.00
 003640,0.00001793,-0.00011655,-0.00018841,0.00006616,0.00013262,0.0001
 5635,0.00021458,-0.00034456,-0.00083982,0.00097539,-0.00061213,-0.0000
 6254,0.00107698,-0.02123894,-0.00007323,0.05344201,0.00153947,0.000890
 63,0.00087581,0.00379156,0.00533210,0.00859520,-0.09715276,-0.05348231
 ,-0.08517546,0.00011887,-0.00013604,0.00000173,0.00240403,0.00496370,0
 .00640780,-0.00006308,-0.00002838,0.00008352,0.00027331,0.00112312,-0.
 00029794,0.00001552,0.00000401,-0.00004675,-0.00001025,0.00001590,-0.0
 0000762,-0.00005364,-0.00003745,0.00005972,-0.00002887,-0.00021196,-0.
 00042360,0.00015275,-0.00040240,0.00226084,0.00028473,0.00036520,-0.00
 075895,-0.01365628,-0.01555701,-0.02462239,0.10117268,0.00074903,-0.00
 000028,-0.00028133,0.00580682,0.00606715,0.01248029,-0.05235791,-0.105
 39419,-0.09509536,0.00024055,0.00007358,0.00007306,-0.01491822,-0.0170
 4795,-0.02594406,-0.00001151,-0.00015019,0.00014100,0.00232467,-0.0062
 1242,0.00278426,0.00000774,-0.00000661,-0.00004526,-0.00000046,-0.0000
 2904,0.00000114,-0.00006033,0.00003773,0.00001901,0.00013731,0.0000217
 1,-0.00043441,-0.00134908,-0.00042703,0.00294141,0.00049963,0.00073890
 ,-0.00041861,0.00161481,0.00175964,0.00403007,0.05795448,0.11901142,-0
 .00177490,-0.00055887,0.00083060,-0.01259134,-0.01262925,-0.02526697,-
 0.08440577,-0.09531107,-0.19823929,0.00014853,0.00029447,0.00020461,0.
 00166081,0.00181458,0.00239501,-0.00021519,0.00007227,-0.00006447,0.00
 000110,0.00053355,0.00107944,0.00005966,0.00002950,-0.00001451,-0.0000
 2163,0.00004732,-0.00004293,0.00001195,0.00006943,0.00006922,0.0012049
 0,0.00008164,0.00032763,0.00247808,0.00289103,-0.00414718,-0.00025393,
 0.00024567,0.00108097,0.00062812,0.00182004,0.00191930,0.09241906,0.10
 105304,0.21891893,-0.00044937,0.00031034,0.00121140,-0.00026961,0.0000
 1367,0.00040400,-0.00594363,0.00197215,-0.00011452,0.00046121,-0.00044
 232,-0.00018961,-0.30178909,0.03702237,-0.01295460,-0.00005089,-0.0000
 2114,-0.00001961,-0.01181910,0.00091060,-0.00139181,0.00004216,0.00005
 429,-0.00006530,-0.00005915,-0.00014536,0.00016461,-0.00007253,-0.0012
 7765,0.00044354,-0.00005877,0.00029067,-0.00017877,0.00004104,-0.00004
 490,0.00004939,0.00009881,0.00007271,-0.00014082,0.00138698,0.00121401
 ,0.00013871,0.00055891,0.00047665,0.00018238,0.32930420,-0.00004654,0.
 00010628,0.00070230,0.00015304,0.00127990,-0.00063835,0.03440782,-0.00
 621698,0.00063018,-0.00026352,0.00004846,-0.00003620,0.03628348,-0.052
 44667,0.00290535,0.00008756,0.00006423,-0.00003818,-0.01930640,0.00204
 024,-0.00152794,-0.00000657,-0.00002559,0.00003754,0.00006124,0.000061
 81,-0.00007976,-0.00054894,-0.00019743,0.00086938,-0.00031059,-0.00030
 719,-0.00018281,-0.00003733,-0.00007650,0.00003202,-0.00020959,0.00010
 069,-0.00016204,0.00127613,-0.00659053,0.00097681,-0.00045455,0.001358
 54,-0.00035197,-0.03980814,0.06046963,0.00015248,0.00057026,-0.0000831
 0,-0.00090590,-0.00024495,-0.00000222,-0.00262238,-0.00011756,-0.00065
 495,0.00004501,-0.00015696,-0.00015174,-0.01107442,0.00291779,-0.04874
 773,-0.00004712,0.00000094,-0.00000292,-0.02728153,0.00312115,-0.00279
 673,-0.00001846,0.00000432,0.00002601,-0.00002604,-0.00007868,0.000091
 14,0.00062439,0.00066963,-0.00130468,0.00000136,-0.00008014,-0.0000059
 4,0.00002128,0.00007871,0.00001022,0.00021961,-0.00006251,0.00004269,-
 0.00036305,0.00025395,0.00076739,0.00041169,-0.00015889,0.00013563,0.0
 1410653,-0.00019579,0.05311851,-0.00008973,0.00035667,0.00046547,-0.00
 010650,0.00153174,0.00021386,0.00221567,0.00394155,-0.00749488,0.00026
 367,-0.00023894,-0.00014947,-0.08985975,-0.03409100,0.08939198,-0.0000
 4146,-0.00004698,0.00000123,0.00535091,0.00411342,-0.01283787,0.000010
 97,0.00001992,-0.00002210,-0.00005411,-0.00009239,0.00013217,0.0001956
 3,-0.00041769,-0.00027192,0.00006095,0.00011639,-0.00003706,-0.0000079
 6,-0.00017212,0.00011306,0.00022174,0.00026022,-0.00029679,0.00057501,
 -0.00040193,-0.00042571,-0.00008023,-0.00056475,0.00022176,-0.01303930
 ,-0.01083153,0.02803322,0.09372109,0.00076239,-0.00015276,-0.00030937,
 0.00217937,-0.00611410,-0.00185062,-0.01350934,-0.01303082,0.02978699,
 -0.00015695,0.00006944,-0.00002028,-0.03330918,-0.07315000,0.07400256,
 0.00002204,-0.00007089,-0.00001450,0.00789858,0.00488678,-0.01808031,-
 0.00007554,0.00000188,0.00008361,0.00003223,0.00007329,-0.00000447,-0.
 00010914,0.00014415,-0.00002394,-0.00007698,0.00001504,-0.00004642,0.0
 0020448,0.00012201,0.00004335,-0.00051231,-0.00091988,0.00179629,0.000
 33406,0.00146300,-0.00005139,-0.00062731,0.00098028,-0.00048116,0.0014
 7807,0.00102243,-0.00443475,0.03679139,0.08511439,-0.00011237,-0.00019
 134,0.00017290,-0.00045525,0.00053417,0.00144091,0.00091763,0.00068965
 ,-0.00204090,-0.00000084,0.00002032,0.00002050,0.08833752,0.07395925,-
 0.24117005,0.00001196,-0.00003097,-0.00001661,0.00988779,0.00650965,-0
 .02304246,0.00001943,-0.00000327,-0.00001124,-0.00000179,0.00001280,-0
 .00000674,-0.00015576,-0.00003924,0.00001706,0.00004171,0.00008015,0.0
 0001200,0.00000710,-0.00026620,0.00018707,0.00019171,0.00010666,-0.000
 28604,-0.00040419,0.00009435,0.00010892,-0.00006496,0.00041966,0.00049
 400,0.00009917,-0.00093278,0.00151787,-0.09560342,-0.07820661,0.263620
 23,0.00042821,0.00017924,0.00084735,0.00011264,0.00019311,0.00011300,0
 .00000333,-0.00008269,-0.00007145,0.00155038,-0.01490816,-0.00214252,0
 .00005115,0.00003251,0.00002592,-0.05111713,0.02938060,0.00455194,-0.0
 0007831,-0.00002879,0.00010465,0.00022763,-0.00021100,0.00075495,-0.00
 044144,-0.00076235,-0.00282787,0.00010755,0.00035204,0.00006262,-0.000
 15286,-0.00001710,0.00017838,-0.00018128,0.00006421,-0.00014504,-0.000
 07514,-0.00011961,-0.00013147,0.00000647,0.00001105,-0.00000347,0.0000
 1026,0.00000376,-0.00002678,-0.00001096,-0.00000951,-0.00000353,-0.000
 00458,-0.00002898,-0.00003096,0.05067829,0.00004402,0.00110501,0.00100
 572,0.00009225,0.00006658,-0.00025065,0.00001794,-0.00001168,0.0000460
 1,0.00075578,-0.00964367,-0.00183303,-0.00001351,-0.00004938,-0.000053
 05,0.02908088,-0.30216118,-0.03457937,0.00002118,0.00000401,-0.0000421
 7,-0.00040961,0.00021540,-0.00007285,-0.00143196,0.00111823,-0.0013521
 5,0.00028459,0.00043537,-0.00078403,-0.00008110,0.00034102,0.00008610,
 0.00015346,-0.00020939,-0.00026629,-0.00005380,0.00009111,0.00009965,0
 .00002132,0.00000815,-0.00003191,-0.00000121,0.00001445,0.00000051,0.0
 0001406,-0.00000335,0.00000194,0.00001304,0.00003649,0.00001835,-0.031
 20361,0.32893613,0.00046170,-0.00167583,0.00190116,0.00009923,0.000089
 70,-0.00009622,0.00006978,0.00006527,0.00003296,0.00395780,-0.03003483
 ,-0.00587933,0.00001373,-0.00002374,-0.00001553,0.00462217,-0.03420542
 ,-0.05097599,0.00003544,0.00002176,-0.00012045,0.00014105,0.00065092,0
 .00105923,-0.00292559,-0.00153866,-0.00518440,-0.00011215,0.00095179,-
 0.00021064,-0.00016391,0.00029200,0.00044524,0.00017039,-0.00002101,0.
 00002566,-0.00021278,0.00009211,0.00013346,-0.00000779,0.00000250,-0.0
 0000812,-0.00001228,-0.00001048,0.00003118,-0.00001492,0.00001225,-0.0
 0002217,-0.00001398,0.00001827,0.00002483,-0.00227670,0.04050571,0.056
 05756,-0.00018737,-0.00032036,0.00035812,-0.00087179,-0.00083222,0.000
 18482,0.00054112,0.00022487,0.00022778,-0.01298138,0.00237950,-0.00062
 101,-0.00006297,0.00002690,0.00000667,-0.30288983,0.05772293,-0.004353
 24,0.00002167,-0.00001732,-0.00000198,0.00053937,-0.00114204,-0.002607
 91,0.00058935,-0.00035419,0.00005902,0.00002724,-0.00004148,-0.0000048
 1,0.00012136,0.00002636,-0.00012120,0.00041167,0.00011337,0.00163170,-
 0.00007418,0.00013333,-0.00027026,0.00003778,0.00003057,-0.00008099,-0
 .00005210,-0.00007504,0.00020013,0.00003215,-0.00002653,0.00002072,0.0
 0001370,-0.00002058,0.00000388,-0.00227404,0.00049609,0.00031339,0.330
 37406,0.00078889,-0.00010539,0.00021393,0.00029719,0.00068555,0.000357
 40,-0.00013775,-0.00024007,-0.00014205,-0.01119570,0.00148457,-0.00000
 491,0.00003266,-0.00000932,0.00004106,0.05782472,-0.06064597,0.0013344
 4,-0.00005215,0.00001575,0.00004755,-0.00114875,0.00031774,-0.00232817
 ,-0.00026336,0.00040942,0.00073551,0.00003121,0.00004525,-0.00000124,-
 0.00013814,0.00000492,0.00007148,-0.00042434,-0.00021926,0.00047160,0.
 00003222,-0.00026744,-0.00007505,0.00000630,0.00001507,0.00000407,0.00
 001023,0.00004057,-0.00010913,-0.00002203,-0.00000428,-0.00001257,-0.0
 0000542,-0.00000673,-0.00001969,0.03213951,-0.00606590,0.00032668,-0.0
 6163537,0.06133906,-0.00027778,0.00020365,0.00133856,0.00028455,0.0004
 3770,-0.00037433,0.00024198,0.00001126,0.00001565,-0.03013058,0.006915
 58,0.00023119,-0.00008526,0.00003978,0.00007085,-0.00306050,0.00080228
 ,-0.04665763,0.00004130,-0.00004276,-0.00003132,-0.00248714,-0.0016693
 8,-0.00529041,0.00083216,0.00016115,0.00146290,0.00005393,-0.00000894,
 -0.00010604,0.00027809,-0.00015230,0.00013207,0.00093998,0.00071713,-0
 .00147066,0.00008686,-0.00029207,-0.00010372,-0.00001061,0.00000496,-0
 .00002025,-0.00005390,-0.00004711,0.00011893,0.00002635,-0.00001803,-0
 .00000104,0.00001187,-0.00005706,0.00001652,0.00399987,-0.00031024,-0.
 00121082,0.00522458,0.00018576,0.05133656,-0.00141758,-0.00134227,-0.0
 0267127,-0.00061356,-0.00051391,-0.00016154,0.00038418,0.00019490,0.00
 013347,0.00626291,0.00866543,-0.01244892,-0.00005594,0.00001768,0.0000
 1552,-0.09962417,-0.05711890,0.09200676,0.00003885,-0.00002140,-0.0000
 3354,0.00074024,0.00056452,0.00046062,0.00021445,-0.00001331,0.0007444
 1,-0.00009846,-0.00017708,0.00014436,0.00035497,0.00027072,-0.00089302
 ,0.00046029,0.00037048,0.00036081,0.00004039,0.00001386,-0.00006608,0.
 00002803,0.00002428,-0.00004062,-0.00004991,-0.00006488,0.00017428,0.0
 0002029,-0.00002497,0.00000800,0.00000710,-0.00002353,0.00001299,0.001
 10139,0.00215435,-0.00413633,-0.01330451,-0.01620026,0.02411190,0.1055
 3685,-0.00076519,-0.00032847,-0.00125505,-0.00009506,0.00014735,-0.000
 12952,0.00000233,-0.00001353,0.00000102,0.00541202,0.00468733,-0.00857
 958,-0.00002431,-0.00002492,-0.00001613,-0.05687398,-0.10910003,0.0984
 9554,0.00004205,0.00001755,-0.00009405,0.00029569,0.00025971,0.0006456
 4,0.00051449,0.00028504,0.00047375,-0.00008612,0.00041936,-0.00028924,
 -0.00005648,0.00050993,-0.00027365,0.00010620,-0.00011397,-0.00007295,
 0.00000414,0.00002142,0.00010756,0.00000502,-0.00000049,-0.00000302,0.
 00000531,0.00001515,0.00000827,0.00000882,-0.00000150,-0.00000951,0.00
 000781,0.00001531,0.00002748,-0.01496079,-0.01429814,0.02446224,0.0032
 7447,0.00325308,-0.00689920,0.06319039,0.11421997,-0.00374244,-0.00350
 424,-0.00383143,-0.00076730,-0.00000873,0.00021413,0.00011980,-0.00003
 364,0.00003203,0.01319149,0.01470679,-0.02077871,-0.00004104,-0.000039
 96,-0.00001985,0.09092081,0.09774562,-0.20207448,0.00000303,0.00001144
 ,-0.00001066,-0.00023248,0.00048109,0.00125390,0.00048718,-0.00045416,
 0.00063628,-0.00011655,-0.00003755,0.00026473,0.00069084,0.00092982,-0
 .00151660,0.00005577,0.00003287,0.00013854,0.00006775,-0.00005320,-0.0
 0000984,0.00008467,0.00005097,-0.00004524,-0.00000477,0.00003305,0.000
 05157,0.00002429,-0.00004906,0.00003502,0.00003619,0.00003284,-0.00001
 070,-0.00293264,-0.00213129,0.00390224,-0.00012306,-0.00107590,0.00050
 344,-0.09773798,-0.10665442,0.22129966,0.00030253,-0.00068312,-0.00028
 313,0.00046990,-0.00040795,0.00076386,-0.00000688,0.00020654,0.0007768
 9,-0.00006942,0.00008498,0.00009851,0.00637215,0.00427306,-0.01268720,
 0.00008332,-0.00005974,-0.00006409,-0.10207564,-0.02753157,0.10431619,
 -0.00002214,-0.00001478,-0.00000591,0.00001828,0.00004472,-0.00006161,
 -0.00044373,0.00012684,-0.00008436,-0.00007836,0.00015607,0.00002405,-
 0.00017289,0.00005574,-0.00031978,-0.00020824,-0.00004086,-0.00016035,
 0.00002781,-0.00006469,-0.00000181,0.00001870,0.00018442,-0.00004869,0
 .00070426,0.00078621,0.00035861,-0.00024001,-0.00188711,-0.00275614,0.
 00003604,0.00005587,0.00003107,-0.00003147,0.00007911,-0.00002646,-0.0
 0003699,0.00002110,-0.00000350,0.10758134,0.00004052,-0.00028314,0.000
 07161,-0.00000958,-0.00115799,0.00020228,0.00068841,0.00086795,-0.0001
 1380,-0.00002710,-0.00004012,0.00008643,0.00955147,0.00489603,-0.01562
 300,0.00001927,0.00005879,-0.00009503,-0.02827412,-0.06129821,0.053880
 92,0.00003839,0.00001667,-0.00002011,-0.00000170,0.00002272,-0.0000291
 2,-0.00032797,0.00015691,-0.00010315,0.00014110,0.00016907,0.00002768,
 0.00007018,-0.00217493,0.00008958,0.00004113,0.00019969,0.00002957,-0.
 00005464,-0.00007247,-0.00003600,-0.00016755,0.00012824,0.00027673,0.0
 0013053,0.00067222,0.00096850,-0.00142456,-0.00164151,-0.00313025,-0.0
 0004423,0.00006332,0.00003518,0.00003973,-0.00006262,0.00002947,0.0000
 3928,0.00004149,-0.00000942,0.03214257,0.06557307,-0.00004033,-0.00017
 949,0.00018681,0.00001107,0.00025909,-0.00033029,0.00003818,0.00099675
 ,0.00006908,-0.00008291,0.00011929,0.00013114,0.01104259,0.00606772,-0
 .02263236,-0.00002228,-0.00003996,0.00007572,0.10402991,0.05302651,-0.
 24342786,0.00000469,-0.00001141,-0.00000852,0.00001907,0.00006266,-0.0
 0007333,-0.00050381,-0.00025119,0.00001536,0.00006304,0.00019283,0.000
 04157,0.00028767,0.00043817,0.00075141,0.00007316,0.00014547,0.0004169
 4,-0.00005146,-0.00002021,0.00003286,-0.00006890,-0.00010318,0.0001425
 6,-0.00004172,0.00049349,0.00094752,-0.00259239,-0.00349488,-0.0027230
 9,0.00000967,-0.00008977,0.00004226,-0.00004521,-0.00000009,0.00002269
 ,-0.00000071,-0.00000015,-0.00004068,-0.11253026,-0.05769267,0.2672893
 5,-0.00000763,0.00028227,0.00010456,-0.00013657,-0.00020194,-0.0000901
 0,0.00079403,0.00076440,0.00040771,0.00007127,-0.00008110,-0.00005669,
 -0.01274887,0.00155921,-0.00169220,-0.00006072,0.00004775,0.00001284,-
 0.30014319,0.04645445,-0.02416882,0.00001092,0.00001140,-0.00000014,-0
 .00001751,-0.00004230,0.00004075,0.00020699,-0.00004160,-0.00010615,0.
 00008779,-0.00003753,-0.00002232,-0.00024265,-0.00016313,0.00025738,0.
 00003193,-0.00006279,0.00008101,0.00015012,-0.00094725,-0.00009496,0.0
 0037010,0.00001495,0.00002951,0.00078988,-0.00129388,-0.00234528,0.000
 49053,0.00000570,-0.00029465,0.00000493,-0.00000731,-0.00002801,0.0000
 2253,-0.00002762,0.00000632,0.00001403,-0.00001764,0.00001534,-0.01371
 693,0.00290294,-0.00156498,0.32700855,-0.00018780,0.00007272,-0.000138
 84,-0.00009184,0.00007549,-0.00003381,-0.00140058,0.00135042,0.0004786
 9,0.00007947,-0.00003679,0.00000967,-0.01880331,0.00224998,-0.00150316
 ,-0.00002819,0.00001267,-0.00000430,0.04678571,-0.05572830,0.00527630,
 0.00001600,0.00000894,-0.00002139,-0.00001460,-0.00001663,0.00001665,0
 .00012038,-0.00002708,-0.00008194,0.00004246,-0.00004787,0.00006929,0.
 00001147,0.00004035,0.00026438,0.00008643,0.00002237,0.00006599,0.0006
 1495,0.00003051,-0.00011981,0.00026363,0.00023930,0.00006839,-0.001741
 54,-0.00165134,-0.00321680,0.00066275,0.00038842,0.00053820,0.00000700
 ,-0.00000141,-0.00000498,0.00001053,-0.00000728,0.00001607,0.00001337,
 -0.00000184,-0.00000073,-0.00838007,0.00044557,-0.00122803,-0.04974206
 ,0.05708332,0.00009058,-0.00012924,-0.00003478,0.00029491,-0.00023538,
 0.00027940,0.00007976,0.00134222,0.00112756,0.00003705,0.00003815,0.00
 003628,-0.02696015,0.00429592,-0.00290278,0.00003157,-0.00008186,-0.00
 001509,-0.02396529,0.00519986,-0.04921783,-0.00000424,0.00000030,-0.00
 001009,0.00001099,0.00001469,-0.00000792,-0.00018684,0.00000055,-0.000
 07293,-0.00001268,0.00018476,0.00002701,-0.00008422,-0.00016269,-0.000
 17469,-0.00007370,-0.00002514,0.00002370,0.00062608,-0.00041598,0.0000
 8027,0.00028113,0.00031437,-0.00007664,-0.00172688,-0.00324470,-0.0037
 3211,0.00032489,0.00086354,0.00063777,-0.00001618,0.00000947,0.0000349
 1,-0.00001069,0.00002067,-0.00000199,-0.00000483,0.00002609,0.00000651
 ,0.02770938,-0.00616243,0.00351533,0.02943887,-0.00271685,0.05222484,0
 .00007932,0.00004889,0.00001745,0.00009009,0.00004352,-0.00016423,-0.0
 0076966,-0.00063080,-0.00189713,0.00000569,-0.00000721,-0.00001615,0.0
 0106928,-0.01325109,0.00307738,-0.00001970,0.00000868,0.00000616,-0.05
 215102,0.03489670,-0.00578552,-0.00001191,-0.00000625,0.00000893,-0.00
 000251,-0.00000350,0.00000662,0.00009047,-0.00002025,0.00001120,0.0000
 2942,-0.00004134,-0.00003777,-0.00017799,0.00001360,0.00004258,-0.0000
 1955,-0.00002858,-0.00002418,0.00029431,-0.00036714,-0.00016137,0.0004
 3624,-0.00061264,-0.00008202,0.00012252,0.00012313,0.00068481,0.000396
 67,0.00062866,0.00034944,0.00001748,-0.00000272,-0.00001130,-0.0000023
 5,0.00000885,-0.00000752,-0.00000285,-0.00001027,0.00000462,0.00148836
 ,-0.01551404,0.00196593,-0.00297954,0.03167584,-0.00587952,0.05201724,
 0.00010931,-0.00008370,-0.00001988,0.00015569,0.00045841,-0.00030789,-
 0.00233952,-0.00008512,-0.00337673,-0.00003079,0.00004865,-0.00003742,
 0.00289731,-0.01550493,0.00370055,-0.00000451,-0.00004360,0.00002200,0
 .03456011,-0.30447366,0.04534365,-0.00004510,-0.00001810,0.00004022,0.
 00001115,-0.00000117,0.00000679,0.00004300,-0.00000260,0.00000830,-0.0
 0000799,-0.00001395,-0.00001435,-0.00001787,0.00015872,-0.00011528,-0.
 00003766,-0.00006863,-0.00000583,0.00001719,0.00023376,0.00006098,0.00
 017787,-0.00121894,0.00013501,-0.00046586,0.00029691,0.00018193,0.0004
 7241,0.00075377,-0.00019034,0.00001379,0.00000883,-0.00001143,-0.00001
 352,0.00002328,-0.00002771,-0.00001875,-0.00000978,0.00002781,0.000852
 67,-0.00658073,0.00130904,0.00062310,-0.00450149,0.00086366,-0.0369520
 4,0.33062407,-0.00001011,-0.00005991,0.00013848,-0.00026878,0.00038399
 ,-0.00085564,-0.00293242,-0.00176633,-0.00458705,-0.00006303,0.0000303
 0,0.00002697,0.00485724,-0.02707071,0.00443084,-0.00000340,-0.00002531
 ,-0.00002992,-0.00590423,0.04642514,-0.05404482,0.00000740,-0.00000326
 ,0.00001177,0.00000784,0.00001904,-0.00001391,-0.00011987,0.00005340,-
 0.00002186,0.00010854,0.00003603,0.00001605,0.00035438,0.00014085,0.00
 056546,0.00012133,0.00010730,0.00031908,0.00000810,0.00023275,-0.00004
 877,0.00014105,-0.00175167,0.00005241,-0.00001178,0.00079830,0.0008133
 5,0.00079986,0.00044830,0.00103726,-0.00003972,0.00002332,0.00003296,0
 .00000954,-0.00004135,0.00001885,0.00002171,0.00002886,0.00000013,-0.0
 0504527,0.02731704,-0.00444447,0.00007000,0.00226699,-0.00174673,0.007
 89161,-0.04759307,0.05832955\\-0.00000009,-0.00000003,0.00000077,-0.00
 000018,-0.00000004,-0.00000082,-0.00000122,0.00000045,-0.00000054,0.00
 000112,-0.00000041,0.00000099,-0.00000165,0.00000051,-0.00000031,0.000
 00186,-0.00000079,0.00000015,-0.00000057,0.00000038,-0.00000032,0.0000
 0105,-0.00000054,0.00000164,0.00000092,-0.00000029,0.00000049,0.000000
 04,-0.00000016,0.00000107,-0.00000065,0.00000019,0.00000100,0.00000049
 ,-0.00000007,-0.00000092,-0.00000003,0.00000022,-0.00000100,-0.0000012
 1,0.00000057,-0.00000164,-0.00000178,0.00000067,-0.00000054,-0.0000013
 8,0.00000042,0.00000064,-0.00000214,0.00000075,-0.00000040,0.00000195,
 -0.00000075,0.00000087,0.00000192,-0.00000056,-0.00000047,0.00000269,-
 0.00000098,0.00000068,0.00000016,-0.00000005,-0.00000008,-0.00000047,0
 .00000033,-0.00000126,-0.00000083,0.00000017,0.00000002\\\@


 TIMES HAVE CHANGED. IN THE BIBLE WHEN AN ASS
 SPOKE IT WAS CONSIDERED A MIRACLE.
 Job cpu time:       0 days  5 hours 30 minutes 59.6 seconds.
 Elapsed time:       0 days  2 hours 45 minutes 31.9 seconds.
 File lengths (MBytes):  RWF=   1488 Int=      0 D2E=      0 Chk=     32 Scr=     32
 Normal termination of Gaussian 16 at Sun Sep 29 22:26:48 2019.
