 Entering Gaussian System, Link 0=g16
 Input=med/species/CCCCCCC/conformers/CCCCCCC_630.com
 Output=med/species/CCCCCCC/conformers/CCCCCCC_630.log
 Initial command:
 /shared/centos7/gaussian/g16/l1.exe "/scratch/harms.n/gauss_scrdir/Gau-35065.inp" -scrdir="/scratch/harms.n/gauss_scrdir/"
 Entering Link 1 = /shared/centos7/gaussian/g16/l1.exe PID=     35122.
  
 Copyright (c) 1988,1990,1992,1993,1995,1998,2003,2009,2016,
            Gaussian, Inc.  All Rights Reserved.
  
 This is part of the Gaussian(R) 16 program.  It is based on
 the Gaussian(R) 09 system (copyright 2009, Gaussian, Inc.),
 the Gaussian(R) 03 system (copyright 2003, Gaussian, Inc.),
 the Gaussian(R) 98 system (copyright 1998, Gaussian, Inc.),
 the Gaussian(R) 94 system (copyright 1995, Gaussian, Inc.),
 the Gaussian 92(TM) system (copyright 1992, Gaussian, Inc.),
 the Gaussian 90(TM) system (copyright 1990, Gaussian, Inc.),
 the Gaussian 88(TM) system (copyright 1988, Gaussian, Inc.),
 the Gaussian 86(TM) system (copyright 1986, Carnegie Mellon
 University), and the Gaussian 82(TM) system (copyright 1983,
 Carnegie Mellon University). Gaussian is a federally registered
 trademark of Gaussian, Inc.
  
 This software contains proprietary and confidential information,
 including trade secrets, belonging to Gaussian, Inc.
  
 This software is provided under written license and may be
 used, copied, transmitted, or stored only in accord with that
 written license.
  
 The following legend is applicable only to US Government
 contracts under FAR:
  
                    RESTRICTED RIGHTS LEGEND
  
 Use, reproduction and disclosure by the US Government is
 subject to restrictions as set forth in subparagraphs (a)
 and (c) of the Commercial Computer Software - Restricted
 Rights clause in FAR 52.227-19.
  
 Gaussian, Inc.
 340 Quinnipiac St., Bldg. 40, Wallingford CT 06492
  
  
 ---------------------------------------------------------------
 Warning -- This program may not be used in any manner that
 competes with the business of Gaussian, Inc. or will provide
 assistance to any competitor of Gaussian, Inc.  The licensee
 of this program is prohibited from giving any competitor of
 Gaussian, Inc. access to this program.  By using this program,
 the user acknowledges that Gaussian, Inc. is engaged in the
 business of creating and licensing software in the field of
 computational chemistry and represents and warrants to the
 licensee that it is not a competitor of Gaussian, Inc. and that
 it will not use this program in any manner prohibited above.
 ---------------------------------------------------------------
  

 Cite this work as:
 Gaussian 16, Revision A.03,
 M. J. Frisch, G. W. Trucks, H. B. Schlegel, G. E. Scuseria, 
 M. A. Robb, J. R. Cheeseman, G. Scalmani, V. Barone, 
 G. A. Petersson, H. Nakatsuji, X. Li, M. Caricato, A. V. Marenich, 
 J. Bloino, B. G. Janesko, R. Gomperts, B. Mennucci, H. P. Hratchian, 
 J. V. Ortiz, A. F. Izmaylov, J. L. Sonnenberg, D. Williams-Young, 
 F. Ding, F. Lipparini, F. Egidi, J. Goings, B. Peng, A. Petrone, 
 T. Henderson, D. Ranasinghe, V. G. Zakrzewski, J. Gao, N. Rega, 
 G. Zheng, W. Liang, M. Hada, M. Ehara, K. Toyota, R. Fukuda, 
 J. Hasegawa, M. Ishida, T. Nakajima, Y. Honda, O. Kitao, H. Nakai, 
 T. Vreven, K. Throssell, J. A. Montgomery, Jr., J. E. Peralta, 
 F. Ogliaro, M. J. Bearpark, J. J. Heyd, E. N. Brothers, K. N. Kudin, 
 V. N. Staroverov, T. A. Keith, R. Kobayashi, J. Normand, 
 K. Raghavachari, A. P. Rendell, J. C. Burant, S. S. Iyengar, 
 J. Tomasi, M. Cossi, J. M. Millam, M. Klene, C. Adamo, R. Cammi, 
 J. W. Ochterski, R. L. Martin, K. Morokuma, O. Farkas, 
 J. B. Foresman, and D. J. Fox, Gaussian, Inc., Wallingford CT, 2016.
 
 ******************************************
 Gaussian 16:  EM64L-G16RevA.03 25-Dec-2016
                28-Sep-2019 
 ******************************************
 %nprocshared=20
 Will use up to   20 processors via shared memory.
 %mem=5GB
 ----------------------------------------------------------------------
 #p m062x/cc-pVTZ opt=(calcfc,maxcycles=900,Tight) freq IOP(7/33=1,2/16
 =3) scf=(maxcycle=900)
 ----------------------------------------------------------------------
 1/6=900,7=10,10=4,18=20,19=15,26=3,38=1/1,3;
 2/9=110,12=2,16=3,17=6,18=5,40=1/2;
 3/5=16,6=1,11=2,25=1,30=1,71=2,74=-55,140=1/1,2,3;
 4//1;
 5/5=2,7=900,38=5/2;
 8/6=4,10=90,11=11/1;
 11/6=1,8=1,9=11,15=111,16=1/1,2,10;
 10/6=1,13=1/2;
 6/7=2,8=2,9=2,10=2,28=1/1;
 7/10=1,18=20,25=1,33=1/1,2,3,16;
 1/6=900,7=10,10=4,18=20,19=15,26=3/3(2);
 2/9=110,16=3/2;
 99//99;
 2/9=110,16=3/2;
 3/5=16,6=1,11=2,25=1,30=1,71=1,74=-55/1,2,3;
 4/5=5,16=3,69=1/1;
 5/5=2,7=900,38=5/2;
 7/33=1/1,2,3,16;
 1/6=900,7=10,18=20,19=15,26=3/3(-5);
 2/9=110,16=3/2;
 6/7=2,8=2,9=2,10=2,19=2,28=1/1;
 99/9=1/99;
 Leave Link    1 at Sat Sep 28 02:44:17 2019, MaxMem=   671088640 cpu:               4.4 elap:               2.2
 (Enter /shared/centos7/gaussian/g16/l101.exe)
 ------------------------------
 Gaussian input prepared by ASE
 ------------------------------
 Symbolic Z-matrix:
 Charge =  0 Multiplicity = 1
 C                     1.37692  -1.14712   0.51674 
 C                     0.13683  -0.44334   0.95131 
 C                    -1.12209  -1.22446   0.66856 
 C                     2.15531  -0.47735  -0.56518 
 C                    -2.07722  -0.47713  -0.23197 
 C                     1.45685  -0.30216  -1.85011 
 C                    -3.3469   -1.23196  -0.52872 
 H                     3.09073  -1.08362  -0.72814 
 H                     2.51137   0.51199  -0.19077 
 H                     1.11959  -2.17669   0.1891 
 H                     2.05288  -1.27799   1.38656 
 H                     0.07452   0.54583   0.47138 
 H                     0.19127  -0.23217   2.0402 
 H                    -1.63507  -1.47838   1.61169 
 H                    -0.86628  -2.19822   0.20219 
 H                    -2.32251   0.50719   0.24601 
 H                    -1.55986  -0.23377  -1.17557 
 H                     0.42771  -0.70797  -1.84088 
 H                     1.38601   0.79047  -2.13062 
 H                     2.00399  -0.80384  -2.67621 
 H                    -3.66998  -1.82732   0.32611 
 H                    -3.21103  -1.92717  -1.40284 
 H                    -4.18315  -0.52233  -0.7914 
 
 ITRead=  0  0  0  0  0  0  0  0  0  0  0  0  0  0  0  0  0  0  0  0
 ITRead=  0  0  0
 MicOpt= -1 -1 -1 -1 -1 -1 -1 -1 -1 -1 -1 -1 -1 -1 -1 -1 -1 -1 -1 -1
 MicOpt= -1 -1 -1
 NAtoms=     23 NQM=       23 NQMF=       0 NMMI=      0 NMMIF=      0
                NMic=       0 NMicF=      0.
                    Isotopes and Nuclear Properties:
 (Nuclear quadrupole moments (NQMom) in fm**2, nuclear magnetic moments (NMagM)
  in nuclear magnetons)

  Atom         1           2           3           4           5           6           7           8           9          10
 IAtWgt=          12          12          12          12          12          12          12           1           1           1
 AtmWgt=  12.0000000  12.0000000  12.0000000  12.0000000  12.0000000  12.0000000  12.0000000   1.0078250   1.0078250   1.0078250
 NucSpn=           0           0           0           0           0           0           0           1           1           1
 AtZEff=  -0.0000000  -0.0000000  -0.0000000  -0.0000000  -0.0000000  -0.0000000  -0.0000000  -0.0000000  -0.0000000  -0.0000000
 NQMom=    0.0000000   0.0000000   0.0000000   0.0000000   0.0000000   0.0000000   0.0000000   0.0000000   0.0000000   0.0000000
 NMagM=    0.0000000   0.0000000   0.0000000   0.0000000   0.0000000   0.0000000   0.0000000   2.7928460   2.7928460   2.7928460
 AtZNuc=   6.0000000   6.0000000   6.0000000   6.0000000   6.0000000   6.0000000   6.0000000   1.0000000   1.0000000   1.0000000

  Atom        11          12          13          14          15          16          17          18          19          20
 IAtWgt=           1           1           1           1           1           1           1           1           1           1
 AtmWgt=   1.0078250   1.0078250   1.0078250   1.0078250   1.0078250   1.0078250   1.0078250   1.0078250   1.0078250   1.0078250
 NucSpn=           1           1           1           1           1           1           1           1           1           1
 AtZEff=  -0.0000000  -0.0000000  -0.0000000  -0.0000000  -0.0000000  -0.0000000  -0.0000000  -0.0000000  -0.0000000  -0.0000000
 NQMom=    0.0000000   0.0000000   0.0000000   0.0000000   0.0000000   0.0000000   0.0000000   0.0000000   0.0000000   0.0000000
 NMagM=    2.7928460   2.7928460   2.7928460   2.7928460   2.7928460   2.7928460   2.7928460   2.7928460   2.7928460   2.7928460
 AtZNuc=   1.0000000   1.0000000   1.0000000   1.0000000   1.0000000   1.0000000   1.0000000   1.0000000   1.0000000   1.0000000

  Atom        21          22          23
 IAtWgt=           1           1           1
 AtmWgt=   1.0078250   1.0078250   1.0078250
 NucSpn=           1           1           1
 AtZEff=  -0.0000000  -0.0000000  -0.0000000
 NQMom=    0.0000000   0.0000000   0.0000000
 NMagM=    2.7928460   2.7928460   2.7928460
 AtZNuc=   1.0000000   1.0000000   1.0000000
 Leave Link  101 at Sat Sep 28 02:44:18 2019, MaxMem=   671088640 cpu:               2.1 elap:               1.1
 (Enter /shared/centos7/gaussian/g16/l103.exe)

 GradGradGradGradGradGradGradGradGradGradGradGradGradGradGradGradGradGrad
 Berny optimization.
 Initialization pass.
                           ----------------------------
                           !    Initial Parameters    !
                           ! (Angstroms and Degrees)  !
 --------------------------                            --------------------------
 ! Name  Definition              Value          Derivative Info.                !
 --------------------------------------------------------------------------------
 ! R1    R(1,2)                  1.4906         calculate D2E/DX2 analytically  !
 ! R2    R(1,4)                  1.4917         calculate D2E/DX2 analytically  !
 ! R3    R(1,10)                 1.1107         calculate D2E/DX2 analytically  !
 ! R4    R(1,11)                 1.1093         calculate D2E/DX2 analytically  !
 ! R5    R(2,3)                  1.5083         calculate D2E/DX2 analytically  !
 ! R6    R(2,12)                 1.1012         calculate D2E/DX2 analytically  !
 ! R7    R(2,13)                 1.1105         calculate D2E/DX2 analytically  !
 ! R8    R(3,5)                  1.5105         calculate D2E/DX2 analytically  !
 ! R9    R(3,14)                 1.1032         calculate D2E/DX2 analytically  !
 ! R10   R(3,15)                 1.1096         calculate D2E/DX2 analytically  !
 ! R11   R(4,6)                  1.473          calculate D2E/DX2 analytically  !
 ! R12   R(4,8)                  1.1266         calculate D2E/DX2 analytically  !
 ! R13   R(4,9)                  1.1161         calculate D2E/DX2 analytically  !
 ! R14   R(5,7)                  1.5066         calculate D2E/DX2 analytically  !
 ! R15   R(5,16)                 1.1214         calculate D2E/DX2 analytically  !
 ! R16   R(5,17)                 1.1033         calculate D2E/DX2 analytically  !
 ! R17   R(6,18)                 1.1063         calculate D2E/DX2 analytically  !
 ! R18   R(6,19)                 1.1303         calculate D2E/DX2 analytically  !
 ! R19   R(6,20)                 1.1106         calculate D2E/DX2 analytically  !
 ! R20   R(7,21)                 1.0907         calculate D2E/DX2 analytically  !
 ! R21   R(7,22)                 1.1251         calculate D2E/DX2 analytically  !
 ! R22   R(7,23)                 1.1278         calculate D2E/DX2 analytically  !
 ! A1    A(2,1,4)              115.695          calculate D2E/DX2 analytically  !
 ! A2    A(2,1,10)             109.3242         calculate D2E/DX2 analytically  !
 ! A3    A(2,1,11)             109.5136         calculate D2E/DX2 analytically  !
 ! A4    A(4,1,10)             108.8546         calculate D2E/DX2 analytically  !
 ! A5    A(4,1,11)             107.6805         calculate D2E/DX2 analytically  !
 ! A6    A(10,1,11)            105.2555         calculate D2E/DX2 analytically  !
 ! A7    A(1,2,3)              113.2794         calculate D2E/DX2 analytically  !
 ! A8    A(1,2,12)             110.1281         calculate D2E/DX2 analytically  !
 ! A9    A(1,2,13)             109.564          calculate D2E/DX2 analytically  !
 ! A10   A(3,2,12)             109.6491         calculate D2E/DX2 analytically  !
 ! A11   A(3,2,13)             108.8566         calculate D2E/DX2 analytically  !
 ! A12   A(12,2,13)            105.0279         calculate D2E/DX2 analytically  !
 ! A13   A(2,3,5)              112.5387         calculate D2E/DX2 analytically  !
 ! A14   A(2,3,14)             110.3061         calculate D2E/DX2 analytically  !
 ! A15   A(2,3,15)             109.9283         calculate D2E/DX2 analytically  !
 ! A16   A(5,3,14)             109.2391         calculate D2E/DX2 analytically  !
 ! A17   A(5,3,15)             109.2319         calculate D2E/DX2 analytically  !
 ! A18   A(14,3,15)            105.3392         calculate D2E/DX2 analytically  !
 ! A19   A(1,4,6)              116.0201         calculate D2E/DX2 analytically  !
 ! A20   A(1,4,8)              107.2521         calculate D2E/DX2 analytically  !
 ! A21   A(1,4,9)              108.7335         calculate D2E/DX2 analytically  !
 ! A22   A(6,4,8)              109.3631         calculate D2E/DX2 analytically  !
 ! A23   A(6,4,9)              109.7839         calculate D2E/DX2 analytically  !
 ! A24   A(8,4,9)              105.1096         calculate D2E/DX2 analytically  !
 ! A25   A(3,5,7)              113.7299         calculate D2E/DX2 analytically  !
 ! A26   A(3,5,16)             108.5707         calculate D2E/DX2 analytically  !
 ! A27   A(3,5,17)             108.8144         calculate D2E/DX2 analytically  !
 ! A28   A(7,5,16)             109.8392         calculate D2E/DX2 analytically  !
 ! A29   A(7,5,17)             109.708          calculate D2E/DX2 analytically  !
 ! A30   A(16,5,17)            105.8721         calculate D2E/DX2 analytically  !
 ! A31   A(4,6,18)             112.9678         calculate D2E/DX2 analytically  !
 ! A32   A(4,6,19)             111.1737         calculate D2E/DX2 analytically  !
 ! A33   A(4,6,20)             111.1943         calculate D2E/DX2 analytically  !
 ! A34   A(18,6,19)            107.3596         calculate D2E/DX2 analytically  !
 ! A35   A(18,6,20)            107.3851         calculate D2E/DX2 analytically  !
 ! A36   A(19,6,20)            106.4356         calculate D2E/DX2 analytically  !
 ! A37   A(5,7,21)             111.6379         calculate D2E/DX2 analytically  !
 ! A38   A(5,7,22)             111.1515         calculate D2E/DX2 analytically  !
 ! A39   A(5,7,23)             110.8254         calculate D2E/DX2 analytically  !
 ! A40   A(21,7,22)            107.9025         calculate D2E/DX2 analytically  !
 ! A41   A(21,7,23)            107.8407         calculate D2E/DX2 analytically  !
 ! A42   A(22,7,23)            107.3011         calculate D2E/DX2 analytically  !
 ! D1    D(4,1,2,3)            115.8381         calculate D2E/DX2 analytically  !
 ! D2    D(4,1,2,12)            -7.3615         calculate D2E/DX2 analytically  !
 ! D3    D(4,1,2,13)          -122.4061         calculate D2E/DX2 analytically  !
 ! D4    D(10,1,2,3)            -7.4446         calculate D2E/DX2 analytically  !
 ! D5    D(10,1,2,12)         -130.6443         calculate D2E/DX2 analytically  !
 ! D6    D(10,1,2,13)          114.3112         calculate D2E/DX2 analytically  !
 ! D7    D(11,1,2,3)          -122.2853         calculate D2E/DX2 analytically  !
 ! D8    D(11,1,2,12)          114.515          calculate D2E/DX2 analytically  !
 ! D9    D(11,1,2,13)           -0.5295         calculate D2E/DX2 analytically  !
 ! D10   D(2,1,4,6)            -61.4886         calculate D2E/DX2 analytically  !
 ! D11   D(2,1,4,8)            175.9685         calculate D2E/DX2 analytically  !
 ! D12   D(2,1,4,9)             62.794          calculate D2E/DX2 analytically  !
 ! D13   D(10,1,4,6)            62.0406         calculate D2E/DX2 analytically  !
 ! D14   D(10,1,4,8)           -60.5024         calculate D2E/DX2 analytically  !
 ! D15   D(10,1,4,9)          -173.6768         calculate D2E/DX2 analytically  !
 ! D16   D(11,1,4,6)           175.6615         calculate D2E/DX2 analytically  !
 ! D17   D(11,1,4,8)            53.1186         calculate D2E/DX2 analytically  !
 ! D18   D(11,1,4,9)           -60.0558         calculate D2E/DX2 analytically  !
 ! D19   D(1,2,3,5)           -120.7921         calculate D2E/DX2 analytically  !
 ! D20   D(1,2,3,14)           116.9341         calculate D2E/DX2 analytically  !
 ! D21   D(1,2,3,15)             1.2005         calculate D2E/DX2 analytically  !
 ! D22   D(12,2,3,5)             2.6711         calculate D2E/DX2 analytically  !
 ! D23   D(12,2,3,14)         -119.6028         calculate D2E/DX2 analytically  !
 ! D24   D(12,2,3,15)          124.6637         calculate D2E/DX2 analytically  !
 ! D25   D(13,2,3,5)           117.057          calculate D2E/DX2 analytically  !
 ! D26   D(13,2,3,14)           -5.2169         calculate D2E/DX2 analytically  !
 ! D27   D(13,2,3,15)         -120.9504         calculate D2E/DX2 analytically  !
 ! D28   D(2,3,5,7)           -179.824          calculate D2E/DX2 analytically  !
 ! D29   D(2,3,5,16)           -57.2236         calculate D2E/DX2 analytically  !
 ! D30   D(2,3,5,17)            57.5647         calculate D2E/DX2 analytically  !
 ! D31   D(14,3,5,7)           -56.9497         calculate D2E/DX2 analytically  !
 ! D32   D(14,3,5,16)           65.6507         calculate D2E/DX2 analytically  !
 ! D33   D(14,3,5,17)         -179.5611         calculate D2E/DX2 analytically  !
 ! D34   D(15,3,5,7)            57.7898         calculate D2E/DX2 analytically  !
 ! D35   D(15,3,5,16)         -179.6097         calculate D2E/DX2 analytically  !
 ! D36   D(15,3,5,17)          -64.8215         calculate D2E/DX2 analytically  !
 ! D37   D(1,4,6,18)            -0.4659         calculate D2E/DX2 analytically  !
 ! D38   D(1,4,6,19)           120.31           calculate D2E/DX2 analytically  !
 ! D39   D(1,4,6,20)          -121.2896         calculate D2E/DX2 analytically  !
 ! D40   D(8,4,6,18)           120.9586         calculate D2E/DX2 analytically  !
 ! D41   D(8,4,6,19)          -118.2656         calculate D2E/DX2 analytically  !
 ! D42   D(8,4,6,20)             0.1349         calculate D2E/DX2 analytically  !
 ! D43   D(9,4,6,18)          -124.2045         calculate D2E/DX2 analytically  !
 ! D44   D(9,4,6,19)            -3.4287         calculate D2E/DX2 analytically  !
 ! D45   D(9,4,6,20)           114.9717         calculate D2E/DX2 analytically  !
 ! D46   D(3,5,7,21)            34.8413         calculate D2E/DX2 analytically  !
 ! D47   D(3,5,7,22)           -85.6942         calculate D2E/DX2 analytically  !
 ! D48   D(3,5,7,23)           155.0749         calculate D2E/DX2 analytically  !
 ! D49   D(16,5,7,21)          -87.0588         calculate D2E/DX2 analytically  !
 ! D50   D(16,5,7,22)          152.4057         calculate D2E/DX2 analytically  !
 ! D51   D(16,5,7,23)           33.1748         calculate D2E/DX2 analytically  !
 ! D52   D(17,5,7,21)          156.9599         calculate D2E/DX2 analytically  !
 ! D53   D(17,5,7,22)           36.4245         calculate D2E/DX2 analytically  !
 ! D54   D(17,5,7,23)          -82.8065         calculate D2E/DX2 analytically  !
 --------------------------------------------------------------------------------
 Trust Radius=3.00D-01 FncErr=1.00D-07 GrdErr=1.00D-06 EigMax=2.50D+02 EigMin=1.00D-04
 Number of steps in this run=    138 maximum allowed number of steps=    138.
 GradGradGradGradGradGradGradGradGradGradGradGradGradGradGradGradGradGrad

 Leave Link  103 at Sat Sep 28 02:44:18 2019, MaxMem=   671088640 cpu:               1.4 elap:               0.7
 (Enter /shared/centos7/gaussian/g16/l202.exe)
                          Input orientation:                          
 ---------------------------------------------------------------------
 Center     Atomic      Atomic             Coordinates (Angstroms)
 Number     Number       Type             X           Y           Z
 ---------------------------------------------------------------------
      1          6           0        1.376918   -1.147124    0.516740
      2          6           0        0.136833   -0.443345    0.951305
      3          6           0       -1.122093   -1.224459    0.668557
      4          6           0        2.155308   -0.477353   -0.565176
      5          6           0       -2.077218   -0.477134   -0.231968
      6          6           0        1.456847   -0.302158   -1.850107
      7          6           0       -3.346902   -1.231960   -0.528725
      8          1           0        3.090730   -1.083623   -0.728144
      9          1           0        2.511367    0.511987   -0.190767
     10          1           0        1.119586   -2.176692    0.189102
     11          1           0        2.052881   -1.277991    1.386563
     12          1           0        0.074521    0.545834    0.471380
     13          1           0        0.191266   -0.232170    2.040203
     14          1           0       -1.635071   -1.478380    1.611691
     15          1           0       -0.866277   -2.198217    0.202188
     16          1           0       -2.322510    0.507188    0.246010
     17          1           0       -1.559865   -0.233766   -1.175566
     18          1           0        0.427714   -0.707966   -1.840881
     19          1           0        1.386012    0.790468   -2.130619
     20          1           0        2.003991   -0.803841   -2.676206
     21          1           0       -3.669985   -1.827323    0.326108
     22          1           0       -3.211034   -1.927173   -1.402841
     23          1           0       -4.183154   -0.522334   -0.791399
 ---------------------------------------------------------------------
                    Distance matrix (angstroms):
                    1          2          3          4          5
     1  C    0.000000
     2  C    1.490625   0.000000
     3  C    2.504813   1.508304   0.000000
     4  C    1.491652   2.524899   3.580729   0.000000
     5  C    3.597291   2.510637   1.510531   4.245621   0.000000
     6  C    2.514422   3.100045   3.720919   1.472952   3.890836
     7  C    4.838871   3.866369   2.526522   5.553834   1.506627
     8  H    2.119179   3.457747   4.440550   1.126559   5.227016
     9  H    2.130772   2.802748   4.117732   1.116134   4.694163
    10  H    1.110665   2.133366   2.482288   2.128240   3.644908
    11  H    1.109344   2.134789   3.255589   2.112060   4.507630
    12  H    2.136446   1.101220   2.145857   2.539889   2.484178
    13  H    2.136317   1.110520   2.142653   3.271937   3.220060
    14  H    3.221913   2.155702   1.103233   4.484169   2.144077
    15  H    2.497130   2.155686   1.109570   3.560925   2.148720
    16  H    4.061503   2.729344   2.148988   4.655985   1.121392
    17  H    3.510387   2.728789   2.138669   3.772853   1.103295
    18  H    2.579190   2.819741   2.994319   2.159903   2.986062
    19  H    3.280679   3.546971   4.264494   2.156339   4.147970
    20  H    3.271998   4.095739   4.597473   2.141481   4.768365
    21  H    5.096100   4.098552   2.640543   6.045729   2.161334
    22  H    5.034141   4.353385   3.024594   5.621502   2.181536
    23  H    5.745954   4.658921   3.463314   6.342657   2.179444
                    6          7          8          9         10
     6  C    0.000000
     7  C    5.068194   0.000000
     8  H    2.130507   6.442428   0.000000
     9  H    2.127969   6.121673   1.780564   0.000000
    10  H    2.790339   4.621397   2.433422   3.051286   0.000000
    11  H    3.432716   5.729581   2.363662   2.429444   1.764261
    12  H    2.831822   3.983327   3.632011   2.525431   2.929845
    13  H    4.091589   4.485265   4.098244   3.303614   2.840690
    14  H    4.788267   2.751812   5.288086   4.939976   3.177977
    15  H    3.633711   2.760686   4.214942   4.348344   1.986023
    16  H    4.396849   2.161997   5.725628   4.853572   4.365143
    17  H    3.091963   2.146695   4.748734   4.254516   3.580047
    18  H    1.106291   4.030391   2.910490   2.924512   2.599360
    19  H    1.130281   5.390432   2.895723   2.259868   3.775728
    20  H    1.110627   5.781610   2.248160   2.857664   3.298012
    21  H    5.774638   1.090678   6.882717   6.629377   4.804250
    22  H    4.962846   1.125104   6.393670   6.337547   4.620694
    23  H    5.742730   1.127778   7.295782   6.800529   5.640686
                   11         12         13         14         15
    11  H    0.000000
    12  H    2.842148   0.000000
    13  H    2.233068   1.755029   0.000000
    14  H    3.700246   2.884520   2.252147   0.000000
    15  H    3.281926   2.913310   2.891718   1.759519   0.000000
    16  H    4.861251   2.407912   3.175665   2.506020   3.072743
    17  H    4.550477   2.447738   3.661643   3.053444   2.497666
    18  H    3.658208   2.653923   3.917282   4.094981   2.840667
    19  H    4.134466   2.924082   4.457462   5.317847   4.409879
    20  H    4.090636   3.930875   5.085007   5.664259   4.297426
    21  H    5.846154   4.435572   4.515738   2.432151   2.830847
    22  H    5.992580   4.519219   5.128668   3.431104   2.854378
    23  H    6.648509   4.567646   5.218977   3.630647   3.846749
                   16         17         18         19         20
    16  H    0.000000
    17  H    1.775252   0.000000
    18  H    3.659978   2.148948   0.000000
    19  H    4.413814   3.261805   1.802106   0.000000
    20  H    5.383006   3.908705   1.786507   1.794821   0.000000
    21  H    2.696673   3.040897   4.768641   6.200923   6.500415
    22  H    3.071530   2.376056   3.862491   5.389626   5.484507
    23  H    2.366037   2.666928   4.732439   5.876442   6.473987
                   21         22         23
    21  H    0.000000
    22  H    1.791611   0.000000
    23  H    1.793087   1.814510   0.000000
 Stoichiometry    C7H16
 Framework group  C1[X(C7H16)]
 Deg. of freedom    63
 Full point group                 C1      NOp   1
 Largest Abelian subgroup         C1      NOp   1
 Largest concise Abelian subgroup C1      NOp   1
                         Standard orientation:                         
 ---------------------------------------------------------------------
 Center     Atomic      Atomic             Coordinates (Angstroms)
 Number     Number       Type             X           Y           Z
 ---------------------------------------------------------------------
      1          6           0        1.482973   -0.930080   -0.385739
      2          6           0        0.286573   -1.095551    0.487879
      3          6           0       -1.014111   -0.818577   -0.223801
      4          6           0        2.422481    0.160990    0.004025
      5          6           0       -1.800390    0.298506    0.420865
      6          6           0        1.867410    1.525327   -0.004292
      7          6           0       -3.107744    0.594989   -0.266775
      8          1           0        3.301997    0.111285   -0.698198
      9          1           0        2.841756   -0.070143    1.012261
     10          1           0        1.153042   -0.762593   -1.432960
     11          1           0        2.058672   -1.878060   -0.409152
     12          1           0        0.370440   -0.445123    1.372524
     13          1           0        0.261426   -2.129589    0.892091
     14          1           0       -1.635362   -1.729749   -0.254422
     15          1           0       -0.817260   -0.561738   -1.285134
     16          1           0       -1.986808    0.031017    1.493813
     17          1           0       -1.175842    1.207796    0.440701
     18          1           0        0.805734    1.557563   -0.313618
     19          1           0        1.934986    1.999814    1.019345
     20          1           0        2.434366    2.185273   -0.694600
     21          1           0       -3.567687   -0.310689   -0.663988
     22          1           0       -2.963499    1.312879   -1.120992
     23          1           0       -3.839112    1.068425    0.449356
 ---------------------------------------------------------------------
 Rotational constants (GHZ):           4.3284113           1.2332423           1.0490551
 Leave Link  202 at Sat Sep 28 02:44:20 2019, MaxMem=   671088640 cpu:               3.7 elap:               1.8
 (Enter /shared/centos7/gaussian/g16/l301.exe)
 Standard basis: CC-pVTZ (5D, 7F)
 Ernie: Thresh=  0.10000D-02 Tol=  0.10000D-05 Strict=F.
 Ernie:  21 primitive shells out of 310 were deleted.
 There are   485 symmetry adapted cartesian basis functions of A   symmetry.
 There are   434 symmetry adapted basis functions of A   symmetry.
   434 basis functions,   636 primitive gaussians,   485 cartesian basis functions
    29 alpha electrons       29 beta electrons
       nuclear repulsion energy       324.3349226601 Hartrees.
 IExCor= 4336 DFT=T Ex+Corr=M062X ExCW=0 ScaHFX=  0.540000
 ScaDFX=  1.000000  1.000000  1.000000  1.000000 ScalE2=  1.000000  1.000000
 IRadAn=      5 IRanWt=     -1 IRanGd=            0 ICorTp=0 IEmpDi=  4
 NAtoms=   23 NActive=   23 NUniq=   23 SFac= 1.00D+00 NAtFMM=   60 NAOKFM=F Big=F
 Integral buffers will be    131072 words long.
 Raffenetti 2 integral format.
 Two-electron integral symmetry is turned on.
 Leave Link  301 at Sat Sep 28 02:44:21 2019, MaxMem=   671088640 cpu:               1.7 elap:               0.9
 (Enter /shared/centos7/gaussian/g16/l302.exe)
 NPDir=0 NMtPBC=     1 NCelOv=     1 NCel=       1 NClECP=     1 NCelD=      1
         NCelK=      1 NCelE2=     1 NClLst=     1 CellRange=     0.0.
 One-electron integrals computed using PRISM.
 One-electron integral symmetry used in STVInt
 NBasis=   434 RedAO= T EigKep=  3.22D-04  NBF=   434
 NBsUse=   434 1.00D-06 EigRej= -1.00D+00 NBFU=   434
 Precomputing XC quadrature grid using
 IXCGrd= 4 IRadAn=           5 IRanWt=          -1 IRanGd=           0 AccXCQ= 0.00D+00.
 Generated NRdTot=       0 NPtTot=           0 NUsed=           0 NTot=          32
 NSgBfM=   485   485   485   485   485 MxSgAt=    23 MxSgA2=    23.
 Leave Link  302 at Sat Sep 28 02:45:27 2019, MaxMem=   671088640 cpu:             132.6 elap:              66.3
 (Enter /shared/centos7/gaussian/g16/l303.exe)
 DipDrv:  MaxL=1.
 Leave Link  303 at Sat Sep 28 02:45:31 2019, MaxMem=   671088640 cpu:               7.6 elap:               3.8
 (Enter /shared/centos7/gaussian/g16/l401.exe)
 ExpMin= 1.03D-01 ExpMax= 8.24D+03 ExpMxC= 2.81D+02 IAcc=3 IRadAn=         5 AccDes= 0.00D+00
 Harris functional with IExCor= 1009 and IRadAn=       5 diagonalized for initial guess.
 HarFok:  IExCor= 1009 AccDes= 0.00D+00 IRadAn=         5 IDoV= 1 UseB2=F ITyADJ=14
 ICtDFT=  3500011 ScaDFX=  1.000000  1.000000  1.000000  1.000000
 FoFCou: FMM=F IPFlag=           0 FMFlag=      100000 FMFlg1=           0
         NFxFlg=           0 DoJE=T BraDBF=F KetDBF=T FulRan=T
         wScrn=  0.000000 ICntrl=       500 IOpCl=  0 I1Cent=   200000004 NGrid=           0
         NMat0=    1 NMatS0=      1 NMatT0=    0 NMatD0=    1 NMtDS0=    0 NMtDT0=    0
 Petite list used in FoFCou.
 Harris En= -276.321318131356    
 JPrj=0 DoOrth=F DoCkMO=F.
 Leave Link  401 at Sat Sep 28 02:46:16 2019, MaxMem=   671088640 cpu:              89.3 elap:              44.7
 (Enter /shared/centos7/gaussian/g16/l502.exe)
 Integral symmetry usage will be decided dynamically.
 Closed shell SCF:
 Using DIIS extrapolation, IDIIS=  1040.
 NGot=   671088640 LenX=   670604095 LenY=   670368385
 Requested convergence on RMS density matrix=1.00D-08 within 900 cycles.
 Requested convergence on MAX density matrix=1.00D-06.
 Requested convergence on             energy=1.00D-06.
 No special actions if energy rises.
 Fock matrices will be formed incrementally for  20 cycles.
 Integral accuracy reduced to 1.0D-05 until final iterations.

 Cycle   1  Pass 0  IDiag  1:
 FoFJK:  IHMeth= 1 ICntrl=       0 DoSepK=F KAlg= 0 I1Cent=           0 FoldK=F
 IRaf= 930000000 NMat=       1 IRICut=       1 DoRegI=T DoRafI=F ISym2E= 0 IDoP0=0 IntGTp=1.
 FoFCou: FMM=F IPFlag=           0 FMFlag=      100000 FMFlg1=           0
         NFxFlg=           0 DoJE=F BraDBF=F KetDBF=F FulRan=T
         wScrn=  0.000000 ICntrl=         0 IOpCl=  0 I1Cent=           0 NGrid=           0
         NMat0=    1 NMatS0=      1 NMatT0=    0 NMatD0=    1 NMtDS0=    0 NMtDT0=    0
 Symmetry not used in FoFCou.
 E= -275.948944468252    
 DIIS: error= 2.62D-02 at cycle   1 NSaved=   1.
 NSaved= 1 IEnMin= 1 EnMin= -275.948944468252     IErMin= 1 ErrMin= 2.62D-02
 ErrMax= 2.62D-02  0.00D+00 EMaxC= 1.00D-01 BMatC= 3.75D-01 BMatP= 3.75D-01
 IDIUse=3 WtCom= 7.38D-01 WtEn= 2.62D-01
 Coeff-Com:  0.100D+01
 Coeff-En:   0.100D+01
 Coeff:      0.100D+01
 Gap=     0.386 Goal=   None    Shift=    0.000
 GapD=    0.386 DampG=1.000 DampE=0.500 DampFc=0.5000 IDamp=-1.
 Damping current iteration by 5.00D-01
 RMSDP=1.93D-03 MaxDP=7.09D-02              OVMax= 1.73D-01

 Cycle   2  Pass 0  IDiag  1:
 RMSU=  9.62D-04    CP:  9.90D-01
 E= -276.129421554755     Delta-E=       -0.180477086504 Rises=F Damp=T
 DIIS: error= 3.57D-03 at cycle   2 NSaved=   2.
 NSaved= 2 IEnMin= 2 EnMin= -276.129421554755     IErMin= 2 ErrMin= 3.57D-03
 ErrMax= 3.57D-03  0.00D+00 EMaxC= 1.00D-01 BMatC= 1.83D-02 BMatP= 3.75D-01
 IDIUse=3 WtCom= 9.64D-01 WtEn= 3.57D-02
 Coeff-Com: -0.550D-01 0.105D+01
 Coeff-En:   0.000D+00 0.100D+01
 Coeff:     -0.530D-01 0.105D+01
 Gap=     0.442 Goal=   None    Shift=    0.000
 RMSDP=5.34D-04 MaxDP=1.95D-02 DE=-1.80D-01 OVMax= 9.16D-02

 Cycle   3  Pass 0  IDiag  1:
 RMSU=  5.25D-04    CP:  9.98D-01  9.15D-01
 E= -276.308920800679     Delta-E=       -0.179499245923 Rises=F Damp=F
 DIIS: error= 2.38D-03 at cycle   3 NSaved=   3.
 NSaved= 3 IEnMin= 3 EnMin= -276.308920800679     IErMin= 3 ErrMin= 2.38D-03
 ErrMax= 2.38D-03  0.00D+00 EMaxC= 1.00D-01 BMatC= 2.57D-03 BMatP= 1.83D-02
 IDIUse=3 WtCom= 9.76D-01 WtEn= 2.38D-02
 Coeff-Com: -0.501D-01 0.238D+00 0.812D+00
 Coeff-En:   0.000D+00 0.000D+00 0.100D+01
 Coeff:     -0.489D-01 0.233D+00 0.816D+00
 Gap=     0.421 Goal=   None    Shift=    0.000
 RMSDP=1.05D-04 MaxDP=4.09D-03 DE=-1.79D-01 OVMax= 1.10D-02

 Cycle   4  Pass 0  IDiag  1:
 RMSU=  8.51D-05    CP:  9.97D-01  9.57D-01  9.12D-01
 E= -276.311145416765     Delta-E=       -0.002224616087 Rises=F Damp=F
 DIIS: error= 7.48D-04 at cycle   4 NSaved=   4.
 NSaved= 4 IEnMin= 4 EnMin= -276.311145416765     IErMin= 4 ErrMin= 7.48D-04
 ErrMax= 7.48D-04  0.00D+00 EMaxC= 1.00D-01 BMatC= 2.96D-04 BMatP= 2.57D-03
 IDIUse=3 WtCom= 9.93D-01 WtEn= 7.48D-03
 Coeff-Com: -0.136D-01 0.373D-01 0.290D+00 0.686D+00
 Coeff-En:   0.000D+00 0.000D+00 0.000D+00 0.100D+01
 Coeff:     -0.135D-01 0.370D-01 0.288D+00 0.689D+00
 Gap=     0.420 Goal=   None    Shift=    0.000
 RMSDP=3.34D-05 MaxDP=1.56D-03 DE=-2.22D-03 OVMax= 2.92D-03

 Cycle   5  Pass 0  IDiag  1:
 RMSU=  1.79D-05    CP:  9.97D-01  9.52D-01  9.50D-01  7.72D-01
 E= -276.311421888390     Delta-E=       -0.000276471624 Rises=F Damp=F
 DIIS: error= 1.42D-04 at cycle   5 NSaved=   5.
 NSaved= 5 IEnMin= 5 EnMin= -276.311421888390     IErMin= 5 ErrMin= 1.42D-04
 ErrMax= 1.42D-04  0.00D+00 EMaxC= 1.00D-01 BMatC= 1.59D-05 BMatP= 2.96D-04
 IDIUse=3 WtCom= 9.99D-01 WtEn= 1.42D-03
 Coeff-Com: -0.140D-02 0.516D-03 0.530D-01 0.236D+00 0.712D+00
 Coeff-En:   0.000D+00 0.000D+00 0.000D+00 0.000D+00 0.100D+01
 Coeff:     -0.140D-02 0.515D-03 0.529D-01 0.235D+00 0.713D+00
 Gap=     0.420 Goal=   None    Shift=    0.000
 RMSDP=6.42D-06 MaxDP=4.32D-04 DE=-2.76D-04 OVMax= 7.59D-04

 Initial convergence to 1.0D-05 achieved.  Increase integral accuracy.
 Cycle   6  Pass 1  IDiag  1:
 E= -276.311380531424     Delta-E=        0.000041356965 Rises=F Damp=F
 DIIS: error= 4.90D-05 at cycle   1 NSaved=   1.
 NSaved= 1 IEnMin= 1 EnMin= -276.311380531424     IErMin= 1 ErrMin= 4.90D-05
 ErrMax= 4.90D-05  0.00D+00 EMaxC= 1.00D-01 BMatC= 1.91D-06 BMatP= 1.91D-06
 IDIUse=1 WtCom= 1.00D+00 WtEn= 0.00D+00
 Coeff-Com:  0.100D+01
 Coeff:      0.100D+01
 Gap=     0.420 Goal=   None    Shift=    0.000
 RMSDP=6.42D-06 MaxDP=4.32D-04 DE= 4.14D-05 OVMax= 2.95D-04

 Cycle   7  Pass 1  IDiag  1:
 RMSU=  1.15D-05    CP:  1.00D+00
 E= -276.311381392860     Delta-E=       -0.000000861436 Rises=F Damp=F
 DIIS: error= 2.55D-05 at cycle   2 NSaved=   2.
 NSaved= 2 IEnMin= 2 EnMin= -276.311381392860     IErMin= 2 ErrMin= 2.55D-05
 ErrMax= 2.55D-05  0.00D+00 EMaxC= 1.00D-01 BMatC= 5.39D-07 BMatP= 1.91D-06
 IDIUse=1 WtCom= 1.00D+00 WtEn= 0.00D+00
 Coeff-Com:  0.304D+00 0.696D+00
 Coeff:      0.304D+00 0.696D+00
 Gap=     0.420 Goal=   None    Shift=    0.000
 RMSDP=1.47D-06 MaxDP=7.71D-05 DE=-8.61D-07 OVMax= 1.65D-04

 Cycle   8  Pass 1  IDiag  1:
 RMSU=  1.47D-06    CP:  1.00D+00  1.00D+00
 E= -276.311381851705     Delta-E=       -0.000000458844 Rises=F Damp=F
 DIIS: error= 1.03D-05 at cycle   3 NSaved=   3.
 NSaved= 3 IEnMin= 3 EnMin= -276.311381851705     IErMin= 3 ErrMin= 1.03D-05
 ErrMax= 1.03D-05  0.00D+00 EMaxC= 1.00D-01 BMatC= 8.02D-08 BMatP= 5.39D-07
 IDIUse=1 WtCom= 1.00D+00 WtEn= 0.00D+00
 Coeff-Com: -0.297D-02 0.270D+00 0.733D+00
 Coeff:     -0.297D-02 0.270D+00 0.733D+00
 Gap=     0.420 Goal=   None    Shift=    0.000
 RMSDP=4.73D-07 MaxDP=2.09D-05 DE=-4.59D-07 OVMax= 5.14D-05

 Cycle   9  Pass 1  IDiag  1:
 RMSU=  3.20D-07    CP:  1.00D+00  1.02D+00  8.07D-01
 E= -276.311381929132     Delta-E=       -0.000000077428 Rises=F Damp=F
 DIIS: error= 2.28D-06 at cycle   4 NSaved=   4.
 NSaved= 4 IEnMin= 4 EnMin= -276.311381929132     IErMin= 4 ErrMin= 2.28D-06
 ErrMax= 2.28D-06  0.00D+00 EMaxC= 1.00D-01 BMatC= 2.42D-09 BMatP= 8.02D-08
 IDIUse=1 WtCom= 1.00D+00 WtEn= 0.00D+00
 Coeff-Com: -0.106D-01 0.765D-01 0.264D+00 0.670D+00
 Coeff:     -0.106D-01 0.765D-01 0.264D+00 0.670D+00
 Gap=     0.420 Goal=   None    Shift=    0.000
 RMSDP=9.80D-08 MaxDP=3.63D-06 DE=-7.74D-08 OVMax= 1.02D-05

 Cycle  10  Pass 1  IDiag  1:
 RMSU=  8.80D-08    CP:  1.00D+00  1.02D+00  8.05D-01  8.83D-01
 E= -276.311381931534     Delta-E=       -0.000000002402 Rises=F Damp=F
 DIIS: error= 3.28D-07 at cycle   5 NSaved=   5.
 NSaved= 5 IEnMin= 5 EnMin= -276.311381931534     IErMin= 5 ErrMin= 3.28D-07
 ErrMax= 3.28D-07  0.00D+00 EMaxC= 1.00D-01 BMatC= 7.36D-11 BMatP= 2.42D-09
 IDIUse=1 WtCom= 1.00D+00 WtEn= 0.00D+00
 Coeff-Com: -0.607D-03-0.162D-01-0.396D-01 0.505D-01 0.101D+01
 Coeff:     -0.607D-03-0.162D-01-0.396D-01 0.505D-01 0.101D+01
 Gap=     0.420 Goal=   None    Shift=    0.000
 RMSDP=3.42D-08 MaxDP=8.67D-07 DE=-2.40D-09 OVMax= 2.50D-06

 Cycle  11  Pass 1  IDiag  1:
 RMSU=  1.76D-08    CP:  1.00D+00  1.02D+00  8.08D-01  9.66D-01  1.12D+00
 E= -276.311381931616     Delta-E=       -0.000000000082 Rises=F Damp=F
 DIIS: error= 1.72D-07 at cycle   6 NSaved=   6.
 NSaved= 6 IEnMin= 6 EnMin= -276.311381931616     IErMin= 6 ErrMin= 1.72D-07
 ErrMax= 1.72D-07  0.00D+00 EMaxC= 1.00D-01 BMatC= 1.69D-11 BMatP= 7.36D-11
 IDIUse=1 WtCom= 1.00D+00 WtEn= 0.00D+00
 Coeff-Com:  0.400D-03-0.115D-01-0.329D-01-0.206D-01 0.430D+00 0.635D+00
 Coeff:      0.400D-03-0.115D-01-0.329D-01-0.206D-01 0.430D+00 0.635D+00
 Gap=     0.420 Goal=   None    Shift=    0.000
 RMSDP=6.52D-09 MaxDP=3.16D-07 DE=-8.23D-11 OVMax= 7.52D-07

 SCF Done:  E(RM062X) =  -276.311381932     A.U. after   11 cycles
            NFock= 11  Conv=0.65D-08     -V/T= 2.0066
 KE= 2.744996734964D+02 PE=-1.287102916933D+03 EE= 4.119569388453D+02
 Leave Link  502 at Sat Sep 28 03:01:07 2019, MaxMem=   671088640 cpu:            1781.6 elap:             891.0
 (Enter /shared/centos7/gaussian/g16/l801.exe)
 DoSCS=F DFT=T ScalE2(SS,OS)=  1.000000  1.000000
 Range of M.O.s used for correlation:     1   434
 NBasis=   434 NAE=    29 NBE=    29 NFC=     0 NFV=     0
 NROrb=    434 NOA=    29 NOB=    29 NVA=   405 NVB=   405

 **** Warning!!: The largest alpha MO coefficient is  0.12036325D+02

 Leave Link  801 at Sat Sep 28 03:01:08 2019, MaxMem=   671088640 cpu:               1.5 elap:               0.8
 (Enter /shared/centos7/gaussian/g16/l1101.exe)
 Using compressed storage, NAtomX=    23.
 Will process     24 centers per pass.
 Leave Link 1101 at Sat Sep 28 03:01:47 2019, MaxMem=   671088640 cpu:              78.3 elap:              39.2
 (Enter /shared/centos7/gaussian/g16/l1102.exe)
 Symmetrizing basis deriv contribution to polar:
 IMax=3 JMax=2 DiffMx= 0.00D+00
 Leave Link 1102 at Sat Sep 28 03:01:49 2019, MaxMem=   671088640 cpu:               4.8 elap:               2.4
 (Enter /shared/centos7/gaussian/g16/l1110.exe)
 Forming Gx(P) for the SCF density, NAtomX=    23.
 Integral derivatives from FoFJK, PRISM(SPDF).
 Do as many integral derivatives as possible in FoFJK.
 G2DrvN: MDV=     671086848.
 G2DrvN: will do    24 centers at a time, making    1 passes.
 Calling FoFCou, ICntrl=  3107 FMM=F I1Cent=   0 AccDes= 0.00D+00.
 FoFJK:  IHMeth= 1 ICntrl=    3107 DoSepK=F KAlg= 0 I1Cent=           0 FoldK=F
 IRaf=         0 NMat=       1 IRICut=       1 DoRegI=T DoRafI=F ISym2E= 0 IDoP0=0 IntGTp=1.
 FoFCou: FMM=F IPFlag=           0 FMFlag=      100000 FMFlg1=           0
         NFxFlg=           0 DoJE=F BraDBF=F KetDBF=F FulRan=T
         wScrn=  0.000000 ICntrl=      3107 IOpCl=  0 I1Cent=           0 NGrid=           0
         NMat0=    1 NMatS0=      1 NMatT0=    0 NMatD0=    1 NMtDS0=    0 NMtDT0=    0
 Symmetry not used in FoFCou.
 End of G2Drv F.D. properties file   721 does not exist.
 End of G2Drv F.D. properties file   722 does not exist.
 End of G2Drv F.D. properties file   788 does not exist.
 Leave Link 1110 at Sat Sep 28 03:40:47 2019, MaxMem=   671088640 cpu:            4673.4 elap:            2337.1
 (Enter /shared/centos7/gaussian/g16/l1002.exe)
 Minotr:  Closed shell wavefunction.
          IDoAtm=11111111111111111111111
          Direct CPHF calculation.
          Differentiating once with respect to nuclear coordinates.
          Requested convergence is 1.0D-08 RMS, and 1.0D-07 maximum.
          Secondary convergence is 1.0D-12 RMS, and 1.0D-12 maximum.
          NewPWx=T KeepS1=F KeepF1=F KeepIn=T MapXYZ=F SortEE=F KeepMc=T.
         6932 words used for storage of precomputed grid.
 Two-electron integrals replicated using symmetry.
          MDV=     671088640 using IRadAn=       1.
          Solving linear equations simultaneously, MaxMat=     380.
 FoF2E skips out because all densities are zero.
 CalDSu exits because no D1Ps are significant.
 FoFJK:  IHMeth= 1 ICntrl=       0 DoSepK=F KAlg= 0 I1Cent=           0 FoldK=F
 IRaf= 910000000 NMat=      69 IRICut=     172 DoRegI=T DoRafI=T ISym2E= 2 IDoP0=3 IntGTp=3.
 FoFCou: FMM=F IPFlag=           0 FMFlag=      100000 FMFlg1=           0
         NFxFlg=           0 DoJE=F BraDBF=F KetDBF=F FulRan=T
         wScrn=  0.000000 ICntrl=         0 IOpCl=  0 I1Cent=           0 NGrid=           0
         NMat0=   69 NMatS0=     69 NMatT0=    0 NMatD0=   69 NMtDS0=    0 NMtDT0=    0
 Integrals replicated using symmetry in FoFCou.
 Raff kept on since  87.40% of shell-pairs survive, threshold=   0.20 IRatSp=87.
          There are    72 degrees of freedom in the 1st order CPHF.  IDoFFX=6 NUNeed=     0.
     66 vectors produced by pass  0 Test12= 1.63D-14 1.39D-09 XBig12= 5.48D-02 3.97D-02.
 AX will form    66 AO Fock derivatives at one time.
     66 vectors produced by pass  1 Test12= 1.63D-14 1.39D-09 XBig12= 3.59D-03 7.18D-03.
     66 vectors produced by pass  2 Test12= 1.63D-14 1.39D-09 XBig12= 5.18D-05 8.60D-04.
     66 vectors produced by pass  3 Test12= 1.63D-14 1.39D-09 XBig12= 3.99D-07 6.42D-05.
     66 vectors produced by pass  4 Test12= 1.63D-14 1.39D-09 XBig12= 2.04D-09 4.59D-06.
     66 vectors produced by pass  5 Test12= 1.63D-14 1.39D-09 XBig12= 9.79D-12 2.89D-07.
     22 vectors produced by pass  6 Test12= 1.63D-14 1.39D-09 XBig12= 3.34D-14 1.67D-08.
 InvSVY:  IOpt=1 It=  1 EMax= 3.61D-16
 Solved reduced A of dimension   418 with    72 vectors.
 End of Minotr F.D. properties file   721 does not exist.
 End of Minotr F.D. properties file   722 does not exist.
 End of Minotr F.D. properties file   788 does not exist.
 Leave Link 1002 at Sat Sep 28 04:45:58 2019, MaxMem=   671088640 cpu:            7821.9 elap:            3911.7
 (Enter /shared/centos7/gaussian/g16/l601.exe)
 Copying SCF densities to generalized density rwf, IOpCl= 0 IROHF=0.

 **********************************************************************

            Population analysis using the SCF density.

 **********************************************************************

 Orbital symmetries:
       Occupied  (A) (A) (A) (A) (A) (A) (A) (A) (A) (A) (A) (A)
                 (A) (A) (A) (A) (A) (A) (A) (A) (A) (A) (A) (A)
                 (A) (A) (A) (A) (A)
       Virtual   (A) (A) (A) (A) (A) (A) (A) (A) (A) (A) (A) (A)
                 (A) (A) (A) (A) (A) (A) (A) (A) (A) (A) (A) (A)
                 (A) (A) (A) (A) (A) (A) (A) (A) (A) (A) (A) (A)
                 (A) (A) (A) (A) (A) (A) (A) (A) (A) (A) (A) (A)
                 (A) (A) (A) (A) (A) (A) (A) (A) (A) (A) (A) (A)
                 (A) (A) (A) (A) (A) (A) (A) (A) (A) (A) (A) (A)
                 (A) (A) (A) (A) (A) (A) (A) (A) (A) (A) (A) (A)
                 (A) (A) (A) (A) (A) (A) (A) (A) (A) (A) (A) (A)
                 (A) (A) (A) (A) (A) (A) (A) (A) (A) (A) (A) (A)
                 (A) (A) (A) (A) (A) (A) (A) (A) (A) (A) (A) (A)
                 (A) (A) (A) (A) (A) (A) (A) (A) (A) (A) (A) (A)
                 (A) (A) (A) (A) (A) (A) (A) (A) (A) (A) (A) (A)
                 (A) (A) (A) (A) (A) (A) (A) (A) (A) (A) (A) (A)
                 (A) (A) (A) (A) (A) (A) (A) (A) (A) (A) (A) (A)
                 (A) (A) (A) (A) (A) (A) (A) (A) (A) (A) (A) (A)
                 (A) (A) (A) (A) (A) (A) (A) (A) (A) (A) (A) (A)
                 (A) (A) (A) (A) (A) (A) (A) (A) (A) (A) (A) (A)
                 (A) (A) (A) (A) (A) (A) (A) (A) (A) (A) (A) (A)
                 (A) (A) (A) (A) (A) (A) (A) (A) (A) (A) (A) (A)
                 (A) (A) (A) (A) (A) (A) (A) (A) (A) (A) (A) (A)
                 (A) (A) (A) (A) (A) (A) (A) (A) (A) (A) (A) (A)
                 (A) (A) (A) (A) (A) (A) (A) (A) (A) (A) (A) (A)
                 (A) (A) (A) (A) (A) (A) (A) (A) (A) (A) (A) (A)
                 (A) (A) (A) (A) (A) (A) (A) (A) (A) (A) (A) (A)
                 (A) (A) (A) (A) (A) (A) (A) (A) (A) (A) (A) (A)
                 (A) (A) (A) (A) (A) (A) (A) (A) (A) (A) (A) (A)
                 (A) (A) (A) (A) (A) (A) (A) (A) (A) (A) (A) (A)
                 (A) (A) (A) (A) (A) (A) (A) (A) (A) (A) (A) (A)
                 (A) (A) (A) (A) (A) (A) (A) (A) (A) (A) (A) (A)
                 (A) (A) (A) (A) (A) (A) (A) (A) (A) (A) (A) (A)
                 (A) (A) (A) (A) (A) (A) (A) (A) (A) (A) (A) (A)
                 (A) (A) (A) (A) (A) (A) (A) (A) (A) (A) (A) (A)
                 (A) (A) (A) (A) (A) (A) (A) (A) (A) (A) (A) (A)
                 (A) (A) (A) (A) (A) (A) (A) (A) (A)
 The electronic state is 1-A.
 Alpha  occ. eigenvalues --  -10.52816 -10.52523 -10.52510 -10.52381 -10.52363
 Alpha  occ. eigenvalues --  -10.52160 -10.52107  -0.92192  -0.88254  -0.82852
 Alpha  occ. eigenvalues --   -0.76483  -0.69913  -0.65691  -0.63937  -0.54863
 Alpha  occ. eigenvalues --   -0.52400  -0.51778  -0.49500  -0.47377  -0.47350
 Alpha  occ. eigenvalues --   -0.44728  -0.42764  -0.41735  -0.40543  -0.39068
 Alpha  occ. eigenvalues --   -0.37808  -0.36637  -0.35941  -0.35485
 Alpha virt. eigenvalues --    0.06517   0.07406   0.08694   0.08788   0.10884
 Alpha virt. eigenvalues --    0.11075   0.12336   0.12778   0.13675   0.14964
 Alpha virt. eigenvalues --    0.16183   0.17539   0.17831   0.17984   0.19334
 Alpha virt. eigenvalues --    0.20483   0.22010   0.23352   0.24665   0.26286
 Alpha virt. eigenvalues --    0.26787   0.28464   0.29708   0.30301   0.31034
 Alpha virt. eigenvalues --    0.33656   0.34213   0.34510   0.36582   0.37175
 Alpha virt. eigenvalues --    0.37742   0.39310   0.40789   0.41073   0.43060
 Alpha virt. eigenvalues --    0.44541   0.45578   0.46476   0.46708   0.48410
 Alpha virt. eigenvalues --    0.48555   0.49914   0.50471   0.51286   0.51695
 Alpha virt. eigenvalues --    0.51831   0.52135   0.52662   0.53337   0.53960
 Alpha virt. eigenvalues --    0.54719   0.54981   0.55521   0.56946   0.57354
 Alpha virt. eigenvalues --    0.57907   0.59151   0.59815   0.59906   0.61208
 Alpha virt. eigenvalues --    0.62139   0.66694   0.68712   0.72666   0.74304
 Alpha virt. eigenvalues --    0.78788   0.80099   0.82556   0.83853   0.85306
 Alpha virt. eigenvalues --    0.86505   0.87215   0.88880   0.90994   0.92030
 Alpha virt. eigenvalues --    0.92343   0.94229   0.98062   0.98540   0.99310
 Alpha virt. eigenvalues --    1.00075   1.01460   1.01939   1.03085   1.04570
 Alpha virt. eigenvalues --    1.04855   1.07199   1.08419   1.08942   1.09473
 Alpha virt. eigenvalues --    1.10482   1.11429   1.12646   1.13119   1.13672
 Alpha virt. eigenvalues --    1.15610   1.16041   1.18068   1.18688   1.19186
 Alpha virt. eigenvalues --    1.19724   1.21361   1.21891   1.22496   1.23375
 Alpha virt. eigenvalues --    1.23460   1.24667   1.25812   1.27611   1.29215
 Alpha virt. eigenvalues --    1.29953   1.30648   1.31451   1.33155   1.33655
 Alpha virt. eigenvalues --    1.34046   1.35415   1.35879   1.36714   1.37880
 Alpha virt. eigenvalues --    1.38426   1.38776   1.40081   1.41033   1.43141
 Alpha virt. eigenvalues --    1.46496   1.47039   1.47992   1.49133   1.49694
 Alpha virt. eigenvalues --    1.50546   1.52281   1.53890   1.54408   1.56391
 Alpha virt. eigenvalues --    1.56499   1.57814   1.59483   1.60313   1.60721
 Alpha virt. eigenvalues --    1.62164   1.64317   1.66129   1.68053   1.73119
 Alpha virt. eigenvalues --    1.76055   1.76739   1.79479   1.84921   2.19816
 Alpha virt. eigenvalues --    2.22275   2.28282   2.29310   2.32961   2.33480
 Alpha virt. eigenvalues --    2.34104   2.37176   2.39284   2.41924   2.42798
 Alpha virt. eigenvalues --    2.44532   2.47138   2.49971   2.51481   2.53716
 Alpha virt. eigenvalues --    2.54207   2.55703   2.56889   2.58056   2.60254
 Alpha virt. eigenvalues --    2.60948   2.62734   2.63468   2.64708   2.65387
 Alpha virt. eigenvalues --    2.67135   2.68473   2.70273   2.71654   2.73206
 Alpha virt. eigenvalues --    2.74408   2.76318   2.76796   2.78406   2.79678
 Alpha virt. eigenvalues --    2.80696   2.82764   2.83407   2.84232   2.84678
 Alpha virt. eigenvalues --    2.85716   2.87623   2.89009   2.90228   2.92570
 Alpha virt. eigenvalues --    2.92713   2.94621   2.97018   2.97533   2.97853
 Alpha virt. eigenvalues --    2.99819   3.00872   3.01800   3.02362   3.03517
 Alpha virt. eigenvalues --    3.04020   3.05865   3.06035   3.06976   3.08166
 Alpha virt. eigenvalues --    3.09201   3.09443   3.10870   3.11306   3.12031
 Alpha virt. eigenvalues --    3.12742   3.13799   3.14925   3.15970   3.17732
 Alpha virt. eigenvalues --    3.18235   3.19588   3.20778   3.22693   3.23027
 Alpha virt. eigenvalues --    3.24682   3.25582   3.26556   3.27793   3.29848
 Alpha virt. eigenvalues --    3.31334   3.31818   3.32417   3.34406   3.37188
 Alpha virt. eigenvalues --    3.37350   3.38008   3.39177   3.39483   3.40858
 Alpha virt. eigenvalues --    3.40958   3.42648   3.44420   3.45464   3.46512
 Alpha virt. eigenvalues --    3.47925   3.48586   3.51441   3.52572   3.53963
 Alpha virt. eigenvalues --    3.54530   3.55312   3.57102   3.57781   3.58665
 Alpha virt. eigenvalues --    3.60272   3.60911   3.62589   3.63230   3.64817
 Alpha virt. eigenvalues --    3.65775   3.67637   3.69641   3.70698   3.72928
 Alpha virt. eigenvalues --    3.74359   3.74975   3.76327   3.77382   3.78932
 Alpha virt. eigenvalues --    3.79768   3.81164   3.81947   3.84319   3.85080
 Alpha virt. eigenvalues --    3.86011   3.86675   3.88678   3.89329   3.90749
 Alpha virt. eigenvalues --    3.91829   3.92190   3.93102   3.94081   3.94655
 Alpha virt. eigenvalues --    3.95688   3.96668   3.98403   4.00797   4.01458
 Alpha virt. eigenvalues --    4.01854   4.02634   4.03055   4.04653   4.05806
 Alpha virt. eigenvalues --    4.06085   4.07410   4.08735   4.09867   4.11038
 Alpha virt. eigenvalues --    4.12242   4.13132   4.13386   4.15541   4.17165
 Alpha virt. eigenvalues --    4.18484   4.18934   4.20456   4.21864   4.22945
 Alpha virt. eigenvalues --    4.24343   4.24635   4.27372   4.29009   4.29765
 Alpha virt. eigenvalues --    4.31231   4.31403   4.32934   4.34559   4.35488
 Alpha virt. eigenvalues --    4.38596   4.40163   4.41719   4.43420   4.45680
 Alpha virt. eigenvalues --    4.47293   4.48388   4.51095   4.51681   4.54130
 Alpha virt. eigenvalues --    4.59651   4.60567   4.61702   4.62606   4.66562
 Alpha virt. eigenvalues --    4.67628   4.68642   4.69044   4.71276   4.73600
 Alpha virt. eigenvalues --    4.75054   4.77906   4.80697   4.81491   4.81812
 Alpha virt. eigenvalues --    4.82859   4.85540   4.86979   4.88843   4.90661
 Alpha virt. eigenvalues --    4.93560   4.95880   4.97482   4.98462   4.99494
 Alpha virt. eigenvalues --    5.01838   5.03806   5.06010   5.06860   5.08732
 Alpha virt. eigenvalues --    5.09299   5.11388   5.12622   5.14139   5.15513
 Alpha virt. eigenvalues --    5.19845   5.21914   5.22666   5.25008   5.25216
 Alpha virt. eigenvalues --    5.26596   5.28074   5.30013   5.32721   5.34008
 Alpha virt. eigenvalues --    5.35603   5.39320   5.40849   5.41620   5.42436
 Alpha virt. eigenvalues --    5.44182   5.47329   5.49128   5.51362   5.54878
 Alpha virt. eigenvalues --    5.55952   5.62747   5.69150   5.73472   5.76727
 Alpha virt. eigenvalues --    5.78908   5.82092   5.83576   5.90150   5.95299
 Alpha virt. eigenvalues --    5.95458   6.00462   6.01459  11.52996  11.75854
 Alpha virt. eigenvalues --   12.32516  12.97614  13.23591  13.63210  13.90672
          Condensed to atoms (all electrons):
               1          2          3          4          5          6
     1  C    5.092923   0.278065  -0.048170   0.315870   0.004927  -0.047502
     2  C    0.278065   5.180984   0.296467  -0.050426  -0.048517   0.000586
     3  C   -0.048170   0.296467   5.125753   0.006331   0.308291  -0.000632
     4  C    0.315870  -0.050426   0.006331   5.057326   0.000034   0.274852
     5  C    0.004927  -0.048517   0.308291   0.000034   5.055926  -0.002061
     6  C   -0.047502   0.000586  -0.000632   0.274852  -0.002061   5.030606
     7  C   -0.000560   0.009095  -0.056520   0.000003   0.313239   0.000130
     8  H   -0.047963   0.011148  -0.000812   0.417894   0.000000  -0.046052
     9  H   -0.041866  -0.009128   0.000501   0.412843   0.000038  -0.051686
    10  H    0.421401  -0.064715  -0.014916  -0.043135   0.001243  -0.007141
    11  H    0.414404  -0.045732   0.006510  -0.044568  -0.000503   0.009792
    12  H   -0.058054   0.414397  -0.057871  -0.004099  -0.007794  -0.000570
    13  H   -0.035902   0.403234  -0.035607   0.005295   0.005163  -0.000257
    14  H    0.005120  -0.036336   0.404308  -0.000556  -0.034565   0.000055
    15  H   -0.013428  -0.054665   0.416277   0.001609  -0.049133  -0.000201
    16  H    0.000499  -0.007092  -0.044194   0.000095   0.409867   0.000033
    17  H   -0.000343   0.001029  -0.045131  -0.000760   0.407769  -0.002038
    18  H   -0.001385   0.002031  -0.001191  -0.061084  -0.002005   0.404750
    19  H    0.005051  -0.000169  -0.000085  -0.044365   0.000020   0.404933
    20  H    0.005500  -0.000731   0.000040  -0.041692   0.000134   0.406530
    21  H   -0.000056   0.000393  -0.004321   0.000002  -0.050836  -0.000009
    22  H    0.000057  -0.000439  -0.001874  -0.000003  -0.041951   0.000042
    23  H    0.000026  -0.000583   0.008335  -0.000001  -0.041187  -0.000006
               7          8          9         10         11         12
     1  C   -0.000560  -0.047963  -0.041866   0.421401   0.414404  -0.058054
     2  C    0.009095   0.011148  -0.009128  -0.064715  -0.045732   0.414397
     3  C   -0.056520  -0.000812   0.000501  -0.014916   0.006510  -0.057871
     4  C    0.000003   0.417894   0.412843  -0.043135  -0.044568  -0.004099
     5  C    0.313239   0.000000   0.000038   0.001243  -0.000503  -0.007794
     6  C    0.000130  -0.046052  -0.051686  -0.007141   0.009792  -0.000570
     7  C    4.943920  -0.000001   0.000003  -0.000025   0.000031   0.001265
     8  H   -0.000001   0.613523  -0.035577  -0.007848  -0.007456   0.000517
     9  H    0.000003  -0.035577   0.610205   0.008938  -0.007232   0.000832
    10  H   -0.000025  -0.007848   0.008938   0.601999  -0.034880   0.006519
    11  H    0.000031  -0.007456  -0.007232  -0.034880   0.599789   0.006105
    12  H    0.001265   0.000517   0.000832   0.006519   0.006105   0.580558
    13  H   -0.000486  -0.000430   0.000838   0.005208  -0.018932  -0.034841
    14  H   -0.007190   0.000035   0.000012   0.001667  -0.000276   0.006006
    15  H    0.000871  -0.000145  -0.000059   0.000908   0.001193   0.005674
    16  H   -0.037104   0.000004  -0.000024  -0.000107   0.000002   0.001248
    17  H   -0.037845   0.000017  -0.000021   0.000254  -0.000072  -0.001364
    18  H    0.000190   0.005534   0.006778   0.000440   0.000437  -0.000621
    19  H   -0.000014   0.006669  -0.019508  -0.000212  -0.000616  -0.000937
    20  H   -0.000005  -0.019777   0.006617   0.001412  -0.000499   0.000105
    21  H    0.407196  -0.000000  -0.000000   0.000009   0.000001   0.000050
    22  H    0.403248   0.000001   0.000000  -0.000008  -0.000002  -0.000029
    23  H    0.404779   0.000000   0.000000   0.000008  -0.000001  -0.000079
              13         14         15         16         17         18
     1  C   -0.035902   0.005120  -0.013428   0.000499  -0.000343  -0.001385
     2  C    0.403234  -0.036336  -0.054665  -0.007092   0.001029   0.002031
     3  C   -0.035607   0.404308   0.416277  -0.044194  -0.045131  -0.001191
     4  C    0.005295  -0.000556   0.001609   0.000095  -0.000760  -0.061084
     5  C    0.005163  -0.034565  -0.049133   0.409867   0.407769  -0.002005
     6  C   -0.000257   0.000055  -0.000201   0.000033  -0.002038   0.404750
     7  C   -0.000486  -0.007190   0.000871  -0.037104  -0.037845   0.000190
     8  H   -0.000430   0.000035  -0.000145   0.000004   0.000017   0.005534
     9  H    0.000838   0.000012  -0.000059  -0.000024  -0.000021   0.006778
    10  H    0.005208   0.001667   0.000908  -0.000107   0.000254   0.000440
    11  H   -0.018932  -0.000276   0.001193   0.000002  -0.000072   0.000437
    12  H   -0.034841   0.006006   0.005674   0.001248  -0.001364  -0.000621
    13  H    0.586450  -0.016783   0.005551   0.000567   0.000019   0.000098
    14  H   -0.016783   0.582109  -0.038982  -0.007461   0.007626   0.000200
    15  H    0.005551  -0.038982   0.589209   0.008714  -0.008596  -0.000901
    16  H    0.000567  -0.007461   0.008714   0.604276  -0.040511   0.000316
    17  H    0.000019   0.007626  -0.008596  -0.040511   0.587538  -0.002720
    18  H    0.000098   0.000200  -0.000901   0.000316  -0.002720   0.599464
    19  H    0.000059  -0.000008  -0.000005   0.000015   0.000358  -0.039526
    20  H    0.000012   0.000002   0.000055  -0.000011   0.000274  -0.031077
    21  H   -0.000005   0.003733  -0.001130  -0.000162   0.007731  -0.000043
    22  H   -0.000000  -0.000098   0.002561   0.007773  -0.012325   0.000236
    23  H    0.000038   0.000180  -0.000185  -0.012055   0.000190   0.000019
              19         20         21         22         23
     1  C    0.005051   0.005500  -0.000056   0.000057   0.000026
     2  C   -0.000169  -0.000731   0.000393  -0.000439  -0.000583
     3  C   -0.000085   0.000040  -0.004321  -0.001874   0.008335
     4  C   -0.044365  -0.041692   0.000002  -0.000003  -0.000001
     5  C    0.000020   0.000134  -0.050836  -0.041951  -0.041187
     6  C    0.404933   0.406530  -0.000009   0.000042  -0.000006
     7  C   -0.000014  -0.000005   0.407196   0.403248   0.404779
     8  H    0.006669  -0.019777  -0.000000   0.000001   0.000000
     9  H   -0.019508   0.006617  -0.000000   0.000000   0.000000
    10  H   -0.000212   0.001412   0.000009  -0.000008   0.000008
    11  H   -0.000616  -0.000499   0.000001  -0.000002  -0.000001
    12  H   -0.000937   0.000105   0.000050  -0.000029  -0.000079
    13  H    0.000059   0.000012  -0.000005  -0.000000   0.000038
    14  H   -0.000008   0.000002   0.003733  -0.000098   0.000180
    15  H   -0.000005   0.000055  -0.001130   0.002561  -0.000185
    16  H    0.000015  -0.000011  -0.000162   0.007773  -0.012055
    17  H    0.000358   0.000274   0.007731  -0.012325   0.000190
    18  H   -0.039526  -0.031077  -0.000043   0.000236   0.000019
    19  H    0.603385  -0.028218   0.000000  -0.000001   0.000001
    20  H   -0.028218   0.583612   0.000001  -0.000006   0.000000
    21  H    0.000000   0.000001   0.597070  -0.037785  -0.033433
    22  H   -0.000001  -0.000006  -0.037785   0.606449  -0.030064
    23  H    0.000001   0.000000  -0.033433  -0.030064   0.601492
 Mulliken charges:
               1
     1  C   -0.248612
     2  C   -0.278895
     3  C   -0.261488
     4  C   -0.201466
     5  C   -0.228100
     6  C   -0.374153
     7  C   -0.344219
     8  H    0.110720
     9  H    0.117496
    10  H    0.122980
    11  H    0.122504
    12  H    0.142983
    13  H    0.130709
    14  H    0.131202
    15  H    0.134805
    16  H    0.115312
    17  H    0.138921
    18  H    0.120062
    19  H    0.113175
    20  H    0.117724
    21  H    0.111596
    22  H    0.104219
    23  H    0.102526
 Sum of Mulliken charges =  -0.00000
 Mulliken charges with hydrogens summed into heavy atoms:
               1
     1  C   -0.003128
     2  C   -0.005203
     3  C    0.004519
     4  C    0.026750
     5  C    0.026134
     6  C   -0.023193
     7  C   -0.025880
 APT charges:
               1
     1  C   -0.718175
     2  C   -0.608438
     3  C   -0.652207
     4  C   -0.952298
     5  C   -0.405209
     6  C   -0.959591
     7  C   -1.399513
     8  H    0.499421
     9  H    0.385705
    10  H    0.249579
    11  H    0.462562
    12  H    0.255129
    13  H    0.434061
    14  H    0.428661
    15  H    0.264940
    16  H    0.355735
    17  H    0.215501
    18  H    0.083622
    19  H    0.353867
    20  H    0.512780
    21  H    0.380466
    22  H    0.289295
    23  H    0.524108
 Sum of APT charges =  -0.00000
 APT charges with hydrogens summed into heavy atoms:
               1
     1  C   -0.006034
     2  C    0.080752
     3  C    0.041394
     4  C   -0.067172
     5  C    0.166027
     6  C   -0.009322
     7  C   -0.205645
 Electronic spatial extent (au):  <R**2>=           1225.9159
 Charge=             -0.0000 electrons
 Dipole moment (field-independent basis, Debye):
    X=              0.1038    Y=             -0.1160    Z=              0.0562  Tot=              0.1655
 Quadrupole moment (field-independent basis, Debye-Ang):
   XX=            -49.7748   YY=            -49.0401   ZZ=            -48.8769
   XY=              0.4352   XZ=             -0.4126   YZ=             -0.3159
 Traceless Quadrupole moment (field-independent basis, Debye-Ang):
   XX=             -0.5442   YY=              0.1905   ZZ=              0.3537
   XY=              0.4352   XZ=             -0.4126   YZ=             -0.3159
 Octapole moment (field-independent basis, Debye-Ang**2):
  XXX=              2.8430  YYY=             -3.8196  ZZZ=              0.6610  XYY=             -0.1710
  XXY=             -0.7728  XXZ=              1.0528  XZZ=              1.0411  YZZ=              1.1640
  YYZ=              0.2648  XYZ=             -0.7057
 Hexadecapole moment (field-independent basis, Debye-Ang**3):
 XXXX=          -1261.6126 YYYY=           -360.4587 ZZZZ=           -143.0975 XXXY=              6.7661
 XXXZ=            -13.6140 YYYX=             -0.1624 YYYZ=             -3.5270 ZZZX=             -0.5348
 ZZZY=             -0.0227 XXYY=           -264.5533 XXZZ=           -226.9066 YYZZ=            -84.2090
 XXYZ=              0.6100 YYXZ=             -0.1417 ZZXY=              1.4440
 N-N= 3.243349226601D+02 E-N=-1.287102856800D+03  KE= 2.744996734964D+02
  Exact polarizability:   0.000   0.000   0.000   0.000   0.000   0.000
 Approx polarizability:  98.098   0.143  97.145  -0.172  -0.122  99.909
 No NMR shielding tensors so no spin-rotation constants.
 Leave Link  601 at Sat Sep 28 04:46:27 2019, MaxMem=   671088640 cpu:              57.3 elap:              28.7
 (Enter /shared/centos7/gaussian/g16/l701.exe)
 SCFChk:  SCF convergence  6.52D-09 required  1.00D-08
 ... and contract with generalized density number  0.
 Compute integral second derivatives.
 Entering OneElI...
 Calculate overlap and kinetic energy integrals
    NBasis = 485  MinDer = 2  MaxDer = 2
 Requested accuracy = 0.1000D-12
 PrmmSu-InSpLW:  IPartL=    0 NPrtUS=   20 NPrtUL=    1 DoSpLW=F IThBeg=    0 IThEnd=   19 NThAct=   20.
 PrsmSu:  NPrtUS=  20 ThrOK=T IAlg=1 NPAlg=1 LenDen=           0 ISkipM=0 DoSpLW=F IThBeg=    0 IThEnd=   19.
 Prism:   IPart=     0 DynPar=F LinDyn=F Incr=           6.
 PRISM was handed    33203548 working-precision words and 13610 shell-pairs
 PRISM was handed    33203548 working-precision words and 13610 shell-pairs
 PRISM was handed    33203548 working-precision words and 13610 shell-pairs
 PRISM was handed    33203548 working-precision words and 13610 shell-pairs
 PRISM was handed    33203548 working-precision words and 13610 shell-pairs
 PRISM was handed    33203548 working-precision words and 13610 shell-pairs
 PRISM was handed    33203548 working-precision words and 13610 shell-pairs
 PRISM was handed    33203548 working-precision words and 13610 shell-pairs
 PRISM was handed    33203548 working-precision words and 13610 shell-pairs
 PRISM was handed    33203548 working-precision words and 13610 shell-pairs
 PRISM was handed    33203548 working-precision words and 13610 shell-pairs
 PRISM was handed    33203548 working-precision words and 13610 shell-pairs
 PRISM was handed    33203548 working-precision words and 13610 shell-pairs
 PRISM was handed    33203548 working-precision words and 13610 shell-pairs
 PRISM was handed    33203548 working-precision words and 13610 shell-pairs
 IPart=  0 NShTot=         717 NBatch=          81 AvBLen=         8.9
 IPart= 17 NShTot=         657 NBatch=          49 AvBLen=        13.4
 IPart= 16 NShTot=         657 NBatch=          49 AvBLen=        13.4
 PRISM was handed    33203548 working-precision words and 13610 shell-pairs
 IPart=  2 NShTot=         710 NBatch=          76 AvBLen=         9.3
 PRISM was handed    33203548 working-precision words and 13610 shell-pairs
 PRISM was handed    33203548 working-precision words and 13610 shell-pairs
 IPart=  5 NShTot=         701 NBatch=          72 AvBLen=         9.7
 IPart=  4 NShTot=         703 NBatch=          73 AvBLen=         9.6
 PRISM was handed    33203548 working-precision words and 13610 shell-pairs
 IPart= 10 NShTot=         676 NBatch=          58 AvBLen=        11.7
 IPart= 15 NShTot=         661 NBatch=          52 AvBLen=        12.7
 PRISM was handed    33203548 working-precision words and 13610 shell-pairs
 IPart= 18 NShTot=         653 NBatch=          47 AvBLen=        13.9
 IPart= 13 NShTot=         662 NBatch=          52 AvBLen=        12.7
 IPart=  6 NShTot=         697 NBatch=          69 AvBLen=        10.1
 IPart=  3 NShTot=         705 NBatch=          74 AvBLen=         9.5
 IPart= 11 NShTot=         670 NBatch=          57 AvBLen=        11.8
 IPart= 14 NShTot=         661 NBatch=          52 AvBLen=        12.7
 IPart= 12 NShTot=         666 NBatch=          54 AvBLen=        12.3
 IPart=  7 NShTot=         685 NBatch=          63 AvBLen=        10.9
 IPart= 19 NShTot=         653 NBatch=          47 AvBLen=        13.9
 IPart=  1 NShTot=         714 NBatch=          80 AvBLen=         8.9
 IPart=  9 NShTot=         679 NBatch=          59 AvBLen=        11.5
 IPart=  8 NShTot=         683 NBatch=          62 AvBLen=        11.0
 PrSmSu:  NxtVal=            121.
 Entering OneElI...
 Calculate potential energy integrals
    NBasis = 485  MinDer = 2  MaxDer = 2
 Requested accuracy = 0.1000D-12
 PrmmSu-InSpLW:  IPartL=    0 NPrtUS=   20 NPrtUL=    1 DoSpLW=F IThBeg=    0 IThEnd=   19 NThAct=   20.
 PrsmSu:  NPrtUS=  20 ThrOK=T IAlg=1 NPAlg=1 LenDen=           0 ISkipM=0 DoSpLW=F IThBeg=    0 IThEnd=   19.
 Prism:   IPart=     0 DynPar=F LinDyn=F Incr=         139.
 PRISM was handed    33267855 working-precision words and 12138 shell-pairs
 PRISM was handed    33267855 working-precision words and 12138 shell-pairs
 PRISM was handed    33267855 working-precision words and 12138 shell-pairs
 PRISM was handed    33267855 working-precision words and 12138 shell-pairs
 PRISM was handed    33267855 working-precision words and 12138 shell-pairs
 PRISM was handed    33267855 working-precision words and 12138 shell-pairs
 PRISM was handed    33267855 working-precision words and 12138 shell-pairs
 PRISM was handed    33267855 working-precision words and 12138 shell-pairs
 PRISM was handed    33267855 working-precision words and 12138 shell-pairs
 PRISM was handed    33267855 working-precision words and 12138 shell-pairs
 PRISM was handed    33267855 working-precision words and 12138 shell-pairs
 PRISM was handed    33267855 working-precision words and 12138 shell-pairs
 PRISM was handed    33267855 working-precision words and 12138 shell-pairs
 PRISM was handed    33267855 working-precision words and 12138 shell-pairs
 PRISM was handed    33267855 working-precision words and 12138 shell-pairs
 PRISM was handed    33267855 working-precision words and 12138 shell-pairs
 PRISM was handed    33267855 working-precision words and 12138 shell-pairs
 PRISM was handed    33267855 working-precision words and 12138 shell-pairs
 PRISM was handed    33267855 working-precision words and 12138 shell-pairs
 PRISM was handed    33267855 working-precision words and 12138 shell-pairs
 IPart=  4 NShTot=       14513 NBatch=         633 AvBLen=        22.9
 IPart=  5 NShTot=       14398 NBatch=         628 AvBLen=        22.9
 IPart=  7 NShTot=       13984 NBatch=         609 AvBLen=        23.0
 IPart= 16 NShTot=       13455 NBatch=         586 AvBLen=        23.0
 IPart=  8 NShTot=       13938 NBatch=         607 AvBLen=        23.0
 IPart=  6 NShTot=       14191 NBatch=         618 AvBLen=        23.0
 IPart= 18 NShTot=       13386 NBatch=         583 AvBLen=        23.0
 IPart=  0 NShTot=       14697 NBatch=         641 AvBLen=        22.9
 IPart= 17 NShTot=       13409 NBatch=         584 AvBLen=        23.0
 IPart=  1 NShTot=       14628 NBatch=         638 AvBLen=        22.9
 IPart= 19 NShTot=       13386 NBatch=         583 AvBLen=        23.0
 IPart= 10 NShTot=       13846 NBatch=         603 AvBLen=        23.0
 IPart=  9 NShTot=       13892 NBatch=         605 AvBLen=        23.0
 IPart=  2 NShTot=       14536 NBatch=         634 AvBLen=        22.9
 IPart= 12 NShTot=       13685 NBatch=         596 AvBLen=        23.0
 IPart= 14 NShTot=       13662 NBatch=         595 AvBLen=        23.0
 IPart= 13 NShTot=       13685 NBatch=         596 AvBLen=        23.0
 IPart=  3 NShTot=       14536 NBatch=         634 AvBLen=        22.9
 IPart= 15 NShTot=       13570 NBatch=         591 AvBLen=        23.0
 IPart= 11 NShTot=       13777 NBatch=         600 AvBLen=        23.0
 PrSmSu:  NxtVal=           2781.
 Polarizability after L701:
                1             2             3 
      1  0.000000D+00
      2  0.000000D+00  0.000000D+00
      3  0.000000D+00  0.000000D+00  0.000000D+00
 Dipole Derivatives after L701:
                 1             2             3             4             5 
      1  -0.402495D+00  0.866006D+00  0.681707D+00 -0.650317D-01 -0.211953D-01
      2   0.457997D+00 -0.968356D+00 -0.473846D+00 -0.632512D-01 -0.100291D+01
      3  -0.130696D+00 -0.676259D-01 -0.783675D+00 -0.571251D-01  0.115313D-02
                 6             7             8             9            10 
      1  -0.264898D+00 -0.523062D+00 -0.620399D+00 -0.431342D+00 -0.222743D+01
      2   0.678882D+00 -0.476161D+00 -0.754018D+00 -0.302017D+00 -0.154619D+00
      3  -0.757377D+00  0.972614D-01  0.668874D-01 -0.679542D+00  0.112138D+00
                11            12            13            14            15 
      1   0.523673D+00 -0.285910D+00  0.201710D+00  0.235940D+00  0.110959D+01
      2   0.144070D+00  0.112184D+00 -0.343317D+00 -0.627318D+00 -0.250428D-03
      3   0.145115D+00 -0.773530D+00  0.554896D-01  0.312502D-01 -0.790019D+00
                16            17            18            19            20 
      1  -0.379322D+00 -0.143141D+01 -0.271611D-01 -0.221683D+01  0.383844D+00
      2   0.173915D+00 -0.152078D+01 -0.348325D-01  0.203826D+00 -0.103316D+01
      3   0.730212D-02 -0.252612D-01 -0.978665D+00  0.651477D-01  0.344923D-02
                21            22            23            24            25 
      1  -0.611675D+00  0.102785D+01 -0.801013D-02 -0.777804D+00  0.482872D+00
      2   0.107880D+00  0.392930D-01  0.165770D+00 -0.375786D-01 -0.183583D-01
      3  -0.948553D+00 -0.215584D+00 -0.751835D-02  0.304646D+00  0.136793D+00
                26            27            28            29            30 
      1  -0.167980D+00  0.905703D+00  0.452502D-01  0.610221D-01 -0.363441D+00
      2   0.171708D+00 -0.115744D-01  0.852182D-01  0.793051D-01  0.230424D+00
      3  -0.472100D-01  0.502534D+00  0.176035D+00 -0.967194D-01  0.624183D+00
                31            32            33            34            35 
      1   0.517650D+00 -0.623562D+00 -0.409410D-02  0.160064D+00  0.787732D-01
      2  -0.326367D+00  0.746567D+00 -0.320032D-01 -0.959905D-02  0.817093D-01
      3  -0.808696D-01  0.977454D-01  0.123468D+00  0.348659D-01  0.318469D+00
                36            37            38            39            40 
      1   0.102772D+00  0.176503D+00 -0.886192D-01  0.261300D-01  0.455813D+00
      2  -0.884814D-01  0.179450D-01  0.901113D+00 -0.252013D+00  0.325812D+00
      3   0.523614D+00 -0.126934D-01 -0.300146D+00  0.224567D+00  0.439930D-01
                41            42            43            44            45 
      1   0.501088D+00  0.143016D-01  0.103241D+00 -0.479624D-01  0.241195D+00
      2   0.695760D+00 -0.119160D-01 -0.314381D-01  0.100313D+00  0.163277D+00
      3   0.496642D-01  0.134410D+00 -0.118895D+00 -0.114630D+00  0.591266D+00
                46            47            48            49            50 
      1   0.272751D+00  0.125234D+00 -0.694578D+00 -0.486885D-01 -0.313145D+00
      2  -0.952263D-02  0.139075D+00 -0.177979D-01  0.265986D+00  0.538186D+00
      3  -0.113350D+00 -0.128106D+00  0.655379D+00  0.770200D-01  0.100719D+00
                51            52            53            54            55 
      1  -0.153200D-01 -0.570035D-01  0.528035D-01 -0.172098D-01  0.136008D+00
      2  -0.245901D-01 -0.499812D+00  0.170876D+00 -0.105080D+00  0.232693D-01
      3   0.157006D+00  0.145951D+00  0.299886D-02  0.136994D+00  0.517594D-01
                56            57            58            59            60 
      1   0.239477D+00  0.671164D+00  0.651046D+00  0.497989D+00 -0.618132D+00
      2   0.395407D+00  0.669835D+00  0.455821D+00  0.589301D+00 -0.528430D+00
      3   0.143208D+00  0.530184D+00 -0.192399D+00 -0.159435D+00  0.297993D+00
                61            62            63            64            65 
      1   0.653797D+00  0.978382D+00  0.527769D+00 -0.732027D-02 -0.650179D+00
      2   0.757119D-01  0.288999D+00  0.677364D-01  0.904380D-01  0.438011D+00
      3   0.109169D+00  0.201387D+00  0.198601D+00 -0.620677D-01 -0.305832D+00
                66            67            68            69 
      1   0.766919D+00  0.104263D+01 -0.571771D+00 -0.935681D+00
      2  -0.391255D+00 -0.282786D+00  0.260371D+00  0.281447D+00
      3   0.437196D+00 -0.129245D+00  0.904368D-01  0.269321D+00
 Hessian after L701:
                1             2             3             4             5 
      1  0.155042D+02
      2 -0.936199D+00  0.158879D+02
      3  0.377382D+00 -0.257138D+00  0.174945D+02
      4 -0.341813D+01  0.409691D+00 -0.169881D+01  0.146444D+02
      5  0.440460D+00 -0.584953D+01 -0.322827D+00 -0.136391D+00  0.168410D+02
      6 -0.169967D+01 -0.317779D+00 -0.501054D+01  0.102474D+00  0.493476D+00
      7  0.348275D+00  0.123446D-01  0.558572D-01 -0.297771D+01 -0.614192D+00
      8 -0.551967D-01 -0.132328D+00 -0.120472D-01 -0.583138D+00 -0.574166D+01
      9 -0.125084D+00 -0.654967D-02 -0.720319D-01  0.152170D+01 -0.344018D+00
     10 -0.460817D+01  0.187553D+01  0.612222D+00  0.243359D+00  0.207781D+00
     11  0.188465D+01 -0.386977D+01  0.665483D+00  0.258084D+00  0.426236D-01
     12  0.622153D+00  0.686640D+00 -0.591918D+01 -0.238660D+00 -0.122175D+00
     13  0.238313D+00 -0.125231D+00 -0.635299D-01  0.264823D+00 -0.286255D+00
     14 -0.973257D-01 -0.117762D+00  0.244145D-01 -0.262394D+00  0.360964D-02
     15 -0.803341D-01  0.339029D-01 -0.126369D+00  0.127992D+00 -0.537570D-01
     16 -0.118885D+00  0.488953D-01 -0.273990D-01 -0.225553D-01  0.270665D+00
     17  0.580081D-02  0.395891D+00 -0.329748D-03  0.196761D+00  0.125201D+00
     18 -0.666472D-02  0.719720D-01 -0.153143D+00 -0.468191D-01 -0.629887D-01
     19  0.519596D-01 -0.324024D-01  0.131109D-01  0.212736D+00 -0.168124D+00
     20 -0.337069D-01 -0.440881D-01 -0.373730D-02 -0.166763D+00 -0.648578D-01
     21 -0.172246D-01  0.368310D-02 -0.588785D-01  0.779445D-01 -0.435066D-01
     22 -0.389911D-01 -0.105925D+00 -0.475880D-02  0.161041D+00  0.815094D-01
     23 -0.986094D-01  0.439062D-01  0.273636D-01  0.656001D-01 -0.333817D-01
     24 -0.150484D-01  0.206053D-01  0.126861D+00 -0.911222D-01 -0.361702D-01
     25  0.528639D-01 -0.767808D-01 -0.724527D-01 -0.367545D-01  0.724021D-02
     26 -0.612490D-01  0.275286D-01 -0.101926D+00 -0.516499D-02  0.662534D-02
     27 -0.175242D-01 -0.911269D-01  0.496785D-01  0.392778D-02  0.552229D-02
     28 -0.438731D+01 -0.104874D+00  0.611294D+00  0.793648D-01 -0.402824D-01
     29 -0.941536D-01 -0.450180D+01 -0.234316D+00 -0.153301D-01  0.199253D+00
     30  0.768616D+00 -0.346357D+00 -0.192045D+01  0.233115D+00  0.306636D-01
     31 -0.364200D+01 -0.108473D+01 -0.809296D-01 -0.389363D-01 -0.182534D-01
     32 -0.106572D+01 -0.244553D+01  0.142592D+00 -0.152700D-01  0.182475D+00
     33 -0.837364D-01  0.153799D+00 -0.420407D+01  0.104014D+00 -0.162961D-01
     34  0.461525D-01  0.472916D-01  0.214959D+00 -0.472290D+01  0.137333D+00
     35  0.203828D-01  0.217253D+00  0.181528D-01  0.122094D+00 -0.384254D+01
     36  0.229390D+00 -0.180371D-01 -0.937602D-01  0.216424D+00  0.135307D+01
     37 -0.319259D-01 -0.340798D-01  0.918463D-01 -0.433119D+01  0.547477D-01
     38 -0.333195D-01  0.176322D+00  0.112978D-01  0.742400D-01 -0.231960D+01
     39  0.884760D-01 -0.694684D-02 -0.802313D-04 -0.278394D-01 -0.898024D+00
     40  0.110378D+00  0.439398D-01 -0.114628D-02 -0.249357D-01  0.611050D-01
     41  0.601374D-01 -0.198286D-01  0.529388D-02  0.693101D-01  0.160159D+00
     42 -0.696227D-02 -0.441749D-02 -0.436856D-01 -0.789777D-01  0.976571D-03
     43 -0.567186D-01  0.343078D-01 -0.241300D-01 -0.479949D-02  0.596122D-01
     44  0.138214D-01  0.531925D-02 -0.389282D-03  0.333400D-01  0.160177D+00
     45  0.176937D-02  0.147614D-01  0.300983D-01 -0.206883D+00  0.269952D-01
     46  0.214741D-01 -0.766647D-02 -0.125561D-01 -0.285411D-01 -0.189459D-01
     47 -0.560399D-02 -0.111870D-01  0.180158D-02 -0.617379D-02  0.558405D-02
     48 -0.305239D-01  0.422812D-02 -0.600479D-02 -0.124158D-01  0.156475D-01
     49 -0.346601D-02 -0.122551D-01 -0.711308D-02  0.116131D-01 -0.331640D-01
     50 -0.328556D-01  0.101819D-01  0.175845D-02 -0.764115D-01  0.233966D-01
[...]
 53009,0.00047795,-0.00016617,0.02886060,0.24524666,0.00068351,-0.00012
 078,0.00014418,-0.00344169,-0.01241999,0.00655139,0.01866793,0.1155577
 8,-0.12442623,-0.00012445,-0.00030573,-0.00010493,-0.00003417,-0.00033
 879,-0.00023636,0.00001989,0.00055222,-0.00029714,0.00017269,0.0001606
 9,-0.00002910,0.00005959,0.00003785,0.00006801,-0.00003406,0.00008666,
 0.00007460,0.00047556,0.00004564,0.00000285,0.00010393,-0.00018992,-0.
 00002808,-0.00244615,-0.00197810,-0.00000754,0.00068506,0.00007030,0.0
 0108595,-0.01731375,-0.12531099,0.13194224,0.00159631,-0.00009314,0.00
 006496,0.00448682,-0.00697630,-0.02567475,-0.05873861,0.01641945,0.054
 93133,-0.00008067,-0.00000492,-0.00021673,-0.00926044,0.00818401,0.027
 44968,-0.00127479,-0.00053196,0.00064452,0.00156030,0.00031803,0.00138
 414,0.00005206,0.00001348,0.00008938,0.00007105,0.00005382,0.00008177,
 0.00016846,0.00048563,0.00015075,0.00030531,0.00015317,0.00015652,0.00
 087980,0.00049673,0.00092888,-0.00379846,-0.00344813,-0.00233745,-0.00
 157273,0.00098351,0.00353771,0.07036514,0.00052683,0.00040887,0.000634
 11,0.00343626,-0.00535847,-0.01744149,0.01527236,-0.06767807,-0.064685
 90,-0.00027135,-0.00008181,-0.00027106,0.00562433,-0.00611459,-0.01764
 515,-0.00022589,0.00072501,-0.00022271,-0.00097272,0.00027822,0.000206
 17,-0.00000005,-0.00003366,0.00019088,-0.00000071,0.00001082,-0.000016
 20,-0.00019664,0.00005412,0.00024252,0.00011233,-0.00006081,0.00008198
 ,0.00078572,0.00032278,0.00011061,-0.00261943,-0.00139566,-0.00155089,
 -0.00611578,0.00766118,0.02563327,-0.01776978,0.07274456,0.00040981,-0
 .00047390,0.00060355,0.00192887,-0.00356998,-0.01252645,0.05389106,-0.
 06602440,-0.27437249,-0.00057913,-0.00000046,-0.00008085,-0.00025466,-
 0.00014759,0.00059230,0.00113456,0.00062880,-0.00136791,-0.00011498,0.
 00041342,0.00069298,-0.00003957,-0.00002847,0.00015360,0.00005113,0.00
 006713,-0.00001765,-0.00035058,0.00043514,-0.00007392,0.00007776,0.000
 26387,0.00013989,-0.00006616,-0.00004297,0.00057112,-0.00219085,-0.001
 54155,0.00060043,0.00397653,-0.00440465,-0.01689536,-0.06000982,0.0739
 7371,0.29943465,0.00008858,0.00012889,-0.00044299,0.00148532,0.0004261
 8,0.00151640,-0.00897861,0.00839028,0.02792584,0.00017586,-0.00008199,
 0.00010866,-0.05818744,0.01587497,0.05278404,-0.00003588,0.00000514,0.
 00014000,0.00460340,-0.00819851,-0.02629335,0.00002567,0.00001676,-0.0
 0006980,-0.00002254,-0.00001733,-0.00001499,0.00010046,-0.00012842,0.0
 0002215,-0.00007893,-0.00005326,-0.00003142,-0.00003918,-0.00014024,0.
 00001523,-0.00035497,-0.00020953,-0.00090147,0.00114186,-0.00036092,-0
 .00056677,-0.00467874,0.00316488,-0.00073122,0.06837150,-0.00011031,-0
 .00022249,0.00029566,-0.00095688,0.00033402,-0.00004501,0.00549703,-0.
 00620004,-0.01782160,-0.00013383,0.00005554,-0.00005285,0.01548135,-0.
 06966379,-0.06656010,0.00007099,-0.00001464,-0.00010286,0.00317330,-0.
 00588351,-0.01745512,-0.00001688,-0.00001342,0.00003078,0.00001077,0.0
 0000906,0.00001508,-0.00000076,0.00002698,-0.00004264,0.00004656,0.000
 03233,0.00001101,0.00008512,-0.00002376,0.00018469,0.00016748,0.000490
 31,0.00037542,-0.00074810,0.00024693,-0.00025755,0.00309061,-0.0012985
 3,0.00003595,-0.01788852,0.07439475,0.00008871,0.00003038,0.00037502,-
 0.00040462,0.00038236,0.00054927,0.00023080,-0.00033283,-0.00003291,-0
 .00007782,0.00005926,-0.00002316,0.05244367,-0.06757516,-0.27290888,-0
 .00006807,0.00000695,-0.00002215,0.00170149,-0.00323041,-0.01093011,-0
 .00000474,-0.00001410,0.00004081,0.00001262,0.00001246,-0.00000104,-0.
 00007876,0.00005030,-0.00003132,0.00010643,-0.00003431,0.00001167,0.00
 012873,-0.00008151,-0.00011686,0.00056359,0.00025262,0.00029219,0.0003
 2348,-0.00034944,0.00059513,-0.00048878,-0.00014169,0.00155564,-0.0558
 6775,0.07671572,0.29609199,-0.00014285,0.00014951,0.00032326,0.0018698
 6,0.00131424,-0.00022071,0.00144749,0.02488986,-0.01747975,-0.00001670
 ,-0.00010774,-0.00005379,-0.05015420,-0.02593296,0.01837041,-0.0001112
 0,0.00009335,-0.00004690,-0.00486052,-0.02260054,0.01461143,0.00001099
 ,-0.00000198,0.00000966,-0.00004566,-0.00002040,0.00003684,0.00002275,
 -0.00027328,-0.00000930,0.00006315,-0.00006411,0.00000618,-0.00035981,
 -0.00066209,0.00023428,-0.00004961,-0.00007371,-0.00001266,-0.00490960
 ,0.00302086,-0.00021279,0.00122095,-0.00074518,0.00032789,-0.00159244,
 -0.00591129,0.00394827,0.05951506,0.00009570,0.00019394,-0.00029010,-0
 .00100294,0.00040953,-0.00042979,-0.00086260,-0.01654007,0.01049368,0.
 00003678,0.00002978,0.00007987,-0.02599771,-0.22191382,0.11645613,0.00
 010069,-0.00007509,-0.00002996,-0.00305985,-0.01475785,0.00923856,-0.0
 0000788,0.00000251,-0.00004335,0.00003757,0.00001187,-0.00002295,-0.00
 019443,0.00014231,-0.00000223,0.00000214,0.00008053,-0.00000081,0.0005
 3791,0.00074731,0.00016650,0.00005747,0.00000921,-0.00007523,0.0032121
 3,-0.00098417,-0.00051427,-0.00044182,0.00031665,-0.00034990,0.0011035
 9,0.00818237,-0.00464365,0.02848382,0.24394487,-0.00015465,-0.00030078
 ,0.00004882,0.00031258,0.00038110,-0.00012824,-0.00017633,-0.00046822,
 -0.00013888,-0.00003292,0.00005478,0.00002365,0.01849651,0.11744608,-0
 .12866674,0.00003129,-0.00007464,0.00005541,-0.00217804,-0.01199027,0.
 00735983,-0.00000639,-0.00001076,-0.00001079,-0.00002812,-0.00002023,-
 0.00000375,0.00013785,-0.00008233,0.00001303,-0.00003033,-0.00000121,-
 0.00000706,-0.00055474,-0.00019243,0.00007243,0.00003643,0.00009935,-0
 .00002330,-0.00016298,-0.00057109,0.00138913,-0.00054415,-0.00027133,0
 .00061563,0.00356489,0.02537794,-0.01722269,-0.01767463,-0.12801041,0.
 13542798,0.00066827,0.00072929,0.00075367,0.00001056,0.00044889,0.0000
 4065,0.00005014,0.00025150,0.00020270,-0.00459333,-0.01491728,-0.00119
 149,-0.00003073,0.00004983,-0.00014638,-0.06599451,-0.06705984,-0.0055
 6217,0.00000526,-0.00002472,0.00003450,-0.00005409,-0.00010389,0.00061
 974,-0.00051845,-0.00008641,-0.00294542,0.00034445,0.00021177,-0.00029
 305,-0.00013107,0.00012854,0.00013109,-0.00007003,-0.00015716,0.000031
 24,-0.00003526,-0.00017338,0.00004654,0.00002349,-0.00005981,-0.000068
 94,-0.00043009,0.00025982,-0.00004703,0.00005330,-0.00005485,0.0000017
 4,0.00004017,-0.00004177,0.00001609,0.06853308,0.00029412,0.00088036,0
 .00036918,-0.00012483,-0.00044149,-0.00003924,-0.00027786,-0.00014975,
 -0.00083421,-0.00154593,-0.00499455,-0.00085625,0.00007138,0.00001311,
 0.00037319,-0.06659631,-0.29122969,-0.02184139,0.00002137,0.00001397,-
 0.00004818,-0.00027643,0.00046910,-0.00033758,-0.00066130,0.00160708,-
 0.00076080,0.00036513,0.00005037,-0.00078368,0.00010102,0.00027711,-0.
 00000676,-0.00003623,0.00022170,-0.00002264,0.00010642,0.00015591,-0.0
 0001818,0.00003734,0.00001743,0.00005457,0.00011752,-0.00000494,0.0004
 4748,-0.00012375,0.00009334,0.00002816,-0.00003816,0.00004691,-0.00003
 333,0.07500664,0.31573599,0.00001354,-0.00133981,0.00218866,0.00007149
 ,-0.00004234,-0.00019111,0.00004173,-0.00003012,-0.00012829,-0.0078114
 3,-0.03064192,-0.00375084,0.00005646,0.00001588,0.00005816,-0.00534882
 ,-0.02123849,-0.04842566,0.00000111,0.00001978,0.00002223,0.00033297,0
 .00061106,0.00111651,-0.00299308,-0.00091204,-0.00550520,0.00030629,0.
 00087818,-0.00017458,-0.00009554,0.00036409,0.00039992,-0.00017898,0.0
 0011522,-0.00000179,0.00004761,0.00003385,-0.00000802,0.00003325,0.000
 03445,-0.00001088,0.00038785,-0.00012490,0.00006232,-0.00004246,0.0000
 1911,0.00000667,-0.00001640,0.00001846,-0.00000922,0.00870652,0.025522
 14,0.05293022,0.00001951,-0.00031973,0.00043748,0.00011718,0.00025665,
 -0.00004149,-0.00052033,-0.00072240,0.00057835,-0.01227565,0.00758100,
 -0.00205403,0.00004915,-0.00006609,0.00013449,-0.22333746,0.12421481,-
 0.02448053,0.00001169,-0.00000526,-0.00000630,0.00009639,-0.00107363,-
 0.00280586,0.00020483,-0.00025380,0.00025815,0.00002513,-0.00004388,-0
 .00006467,0.00006237,-0.00004286,-0.00004780,0.00012395,-0.00009657,-0
 .00002051,0.00005512,-0.00020303,0.00004704,-0.00012845,-0.00000336,0.
 00013184,-0.00086875,-0.00063593,0.00126500,0.00000140,0.00006252,-0.0
 0003382,0.00007388,0.00012066,-0.00012717,0.00784706,-0.00545518,0.001
 56323,0.24500140,0.00087535,-0.00013962,0.00014649,0.00022793,0.000459
 50,-0.00019541,0.00007858,0.00043991,0.00068026,-0.00639579,0.00366363
 ,-0.00014249,-0.00014542,0.00010814,-0.00029375,0.12339936,-0.13393532
 ,0.01754530,-0.00002021,-0.00003423,0.00006642,-0.00091448,0.00100099,
 -0.00166824,-0.00021463,0.00065305,0.00071203,0.00002331,-0.00000897,-
 0.00000080,-0.00015035,0.00000895,0.00013376,0.00009374,-0.00022311,-0
 .00016365,-0.00016718,-0.00006780,-0.00006053,0.00007513,-0.00006065,-
 0.00037080,-0.00061483,-0.00073603,-0.00006000,0.00012072,-0.00010125,
 -0.00003120,-0.00004186,-0.00004989,0.00013263,0.02582706,-0.01695923,
 0.00324751,-0.13512669,0.14185311,-0.00025558,0.00040494,0.00130283,0.
 00040692,0.00067458,-0.00068513,0.00061886,-0.00012197,-0.00040161,-0.
 02574523,0.01829477,-0.00301831,0.00014157,-0.00000193,-0.00000764,-0.
 02349421,0.01676075,-0.04985380,0.00000159,0.00002979,0.00005989,-0.00
 256692,-0.00128014,-0.00557273,0.00077276,-0.00018638,0.00143769,0.000
 05029,-0.00005765,-0.00010286,0.00012802,-0.00025163,0.00026150,0.0002
 0564,-0.00072995,-0.00048941,-0.00001404,-0.00018306,0.00026671,-0.000
 14491,-0.00005691,0.00015393,0.00067044,0.00062545,-0.00023127,-0.0000
 4864,0.00000983,0.00002306,0.00004765,-0.00003753,0.00001982,0.0024710
 4,-0.00108094,-0.00096999,0.02781449,-0.01788434,0.05492194,-0.0014375
 5,-0.00072029,-0.00264758,-0.00012825,-0.00007732,-0.00025532,-0.00015
 652,-0.00043015,-0.00055254,0.01075942,0.00440817,-0.01306709,0.000108
 17,-0.00001721,0.00024852,-0.15849189,-0.03850245,0.12839087,0.0000126
 9,0.00003377,0.00001198,0.00089441,0.00029142,0.00065207,0.00039024,0.
 00007145,0.00083934,-0.00007659,0.00006557,-0.00000294,0.00039552,0.00
 016873,-0.00081503,0.00005835,-0.00017286,-0.00007340,0.00010739,-0.00
 003790,0.00013612,-0.00010486,0.00001790,0.00023638,0.00001610,0.00031
 284,0.00065590,-0.00011601,0.00006610,0.00002138,0.00002607,-0.0000030
 6,-0.00003916,-0.00570902,-0.00101075,0.00492739,-0.01657198,-0.006914
 38,0.01897482,0.17003517,-0.00021739,0.00019504,-0.00071736,-0.0001796
 2,0.00003282,0.00003939,-0.00016108,0.00004448,-0.00037008,0.00449261,
 0.00023862,-0.00436549,0.00001984,0.00002182,0.00013909,-0.03855139,-0
 .06121884,0.04397352,0.00000432,0.00000710,-0.00000881,-0.00004609,0.0
 0007293,0.00048082,0.00050624,0.00013027,0.00020028,0.00012366,0.00031
 935,-0.00032853,0.00004514,0.00043246,-0.00015926,-0.00003917,0.000163
 66,0.00016759,-0.00003916,0.00009314,-0.00003699,0.00005332,0.00001010
 ,-0.00008729,0.00000885,-0.00011278,0.00013943,-0.00003759,0.00003045,
 0.00000447,-0.00003252,0.00002634,0.00000373,-0.02023637,-0.00581061,0
 .02345708,0.01181216,0.00414773,-0.01489314,0.04246451,0.06117809,-0.0
 0491793,-0.00208509,-0.00413254,-0.00052643,0.00017101,0.00020916,-0.0
 0017908,-0.00015911,-0.00002751,0.02001943,0.00733005,-0.02118754,0.00
 001966,0.00009527,0.00009974,0.12715194,0.04368447,-0.19081354,0.00003
 199,-0.00003751,-0.00001300,-0.00004752,0.00066309,0.00118925,0.000263
 67,-0.00056838,0.00085270,-0.00014076,0.00003539,0.00030219,0.00114453
 ,0.00048508,-0.00166135,0.00003718,-0.00009648,0.00013256,0.00008772,-
 0.00005195,0.00003116,-0.00001008,-0.00000924,0.00002958,0.00001861,0.
 00006760,0.00011650,-0.00003178,0.00001565,0.00000521,0.00000801,-0.00
 001359,-0.00000744,-0.00277150,-0.00017643,0.00240463,-0.00253622,-0.0
 0172302,0.00291894,-0.13764782,-0.04764343,0.20952991,0.00000423,0.000
 08027,-0.00004479,-0.00009920,-0.00001582,-0.00021581,0.00165825,-0.00
 115005,0.00128910,0.00000446,0.00000858,0.00001230,-0.00494586,-0.0215
 0420,0.01492660,0.00002260,-0.00002164,-0.00000648,-0.05236090,-0.0299
 1766,0.02123063,-0.00000105,-0.00000140,-0.00000818,0.00001208,0.00000
 689,-0.00000462,-0.00005437,0.00003519,-0.00000435,0.00000447,0.000005
 35,-0.00000188,0.00011479,0.00028400,-0.00005262,0.00000679,-0.0000121
 6,0.00001268,-0.00030207,0.00061212,-0.00050354,-0.00006433,0.00006506
 ,0.00002868,0.00101016,0.00082409,-0.00002234,-0.00371250,-0.00270776,
 -0.00231109,-0.00001122,0.00001560,0.00000647,0.00000645,-0.00000627,-
 0.00000498,0.00000283,0.00000756,-0.00000345,0.05581514,-0.00001998,0.
 00002033,-0.00005084,0.00003034,0.00031137,-0.00021017,0.00117394,0.00
 063231,0.00007864,0.00000220,0.00000841,-0.00001012,-0.00309604,-0.016
 16842,0.00998581,0.00002088,-0.00002133,0.00000975,-0.03053456,-0.2252
 2925,0.12098992,-0.00001557,0.00000229,0.00000208,0.00000804,-0.000001
 56,0.00000275,-0.00002654,0.00001166,0.00000605,-0.00003944,0.00000361
 ,-0.00000997,0.00023894,0.00012128,0.00003695,-0.00001097,-0.00005738,
 -0.00002503,-0.00066419,0.00065146,-0.00008882,-0.00006910,-0.00000020
 ,-0.00007077,0.00052114,0.00024123,-0.00021355,-0.00292891,-0.00077695
 ,-0.00218292,-0.00000268,0.00000685,-0.00000336,-0.00000101,0.00000503
 ,-0.00001686,-0.00001195,0.00000186,0.00000330,0.03683831,0.24538965,0
 .00005244,0.00010908,-0.00000512,0.00007532,-0.00031639,0.00009228,0.0
 0055246,-0.00033220,0.00033217,0.00001830,-0.00002483,-0.00000682,-0.0
 0229586,-0.01167894,0.00770465,-0.00000955,0.00003135,0.00001184,0.021
 76906,0.12156309,-0.12977045,0.00001017,0.00000264,0.00000094,0.000000
 03,-0.00000076,0.00000127,-0.00001464,-0.00000159,-0.00000116,0.000012
 86,-0.00000965,0.00000302,-0.00006611,0.00005047,-0.00008557,-0.000004
 31,-0.00001537,-0.00003261,0.00034342,0.00020897,0.00004269,0.00000152
 ,0.00014784,-0.00006454,0.00080560,0.00010395,0.00078656,-0.00263575,-
 0.00178778,0.00010862,-0.00000163,0.,-0.00000362,0.00000122,-0.0000249
 9,-0.00001222,0.00000057,-0.00000301,-0.00000001,-0.02156884,-0.132220
 07,0.13755401,-0.00000789,0.00003406,0.00013183,-0.00009745,-0.0001249
 0,-0.00005849,0.00210012,-0.00039685,-0.00101738,-0.00002118,0.0000130
 1,-0.00002074,0.00447375,-0.00708495,-0.02576898,-0.00001760,0.0000139
 6,-0.00000725,-0.05762724,0.01600651,0.05113875,0.00000332,-0.00000394
 ,0.00001676,0.00000559,0.00000773,0.00000548,-0.00003028,0.00001293,-0
 .00001078,0.00003786,-0.00001142,0.00000559,0.00004074,0.00000395,-0.0
 0002169,-0.00001965,0.00010514,0.00024139,-0.00004180,0.00011566,0.000
 04443,-0.00029333,0.00013449,0.00059736,-0.00387946,-0.00290990,-0.002
 17994,0.00105761,0.00061722,0.00070438,-0.00001834,0.00002670,0.000004
 94,-0.00000247,-0.00004713,0.00000807,0.00002619,0.00000430,0.00000177
 ,-0.00207749,0.00144743,0.00343906,0.06148374,0.00001431,0.00000381,0.
 00005510,-0.00000667,-0.00002485,0.00016176,0.00090607,0.00029929,0.00
 060326,-0.00000107,0.00000396,-0.00003199,0.00354283,-0.00625422,-0.01
 857650,-0.00003812,0.00004167,0.00001982,0.01569051,-0.06800634,-0.069
 07226,-0.00000537,0.00000122,0.00002478,-0.00000054,-0.00000349,0.0000
 0184,-0.00000886,-0.00000079,0.00000434,-0.00000617,-0.00001333,-0.000
 00250,-0.00000476,-0.00005382,-0.00003405,0.00011035,0.00002274,0.0001
 2138,-0.00010498,0.00000748,0.00009973,-0.00031518,0.00047672,0.000190
 72,-0.00337709,-0.00134684,-0.00119469,0.00079222,0.00018423,0.0001572
 0,0.00001009,-0.00001020,-0.00000469,-0.00000302,-0.00001834,-0.000017
 24,-0.00000626,-0.00000805,0.00000814,-0.00575313,0.00874571,0.0256622
 6,-0.01421944,0.07140353,-0.00003556,-0.00006478,0.00000964,-0.0002656
 9,0.00013954,0.00040543,0.00099572,0.00023881,0.00032389,-0.00001396,0
 .00002460,-0.00005105,0.00194420,-0.00359502,-0.01163977,-0.00000894,-
 0.00001760,0.00001231,0.05029438,-0.06942812,-0.28143244,-0.00001108,-
 0.00000116,0.00002629,0.00000932,0.00000655,0.00001414,-0.00001189,0.0
 0001159,-0.00001261,-0.00001903,0.00000510,0.00000192,0.00003416,0.000
 00703,-0.00002602,0.00021306,0.00010895,0.00014905,-0.00005340,-0.0000
 3929,-0.00010469,-0.00086781,0.00029488,0.00016278,-0.00213507,-0.0014
 4373,0.00086171,-0.00017724,-0.00013270,0.00077261,-0.00001996,0.00002
 946,-0.00000445,-0.00000760,-0.00003140,-0.00001491,0.00000578,0.00000
 547,0.00001202,0.00363363,-0.00531763,-0.01632031,-0.05362067,0.078614
 16,0.30558442,-0.00023388,-0.00043979,-0.00031619,-0.00088177,0.001486
 24,0.00030001,-0.00251958,-0.00499379,-0.00248784,-0.00002018,0.000072
 79,-0.00007772,-0.01968451,0.01430662,0.00100574,-0.00001389,-0.000030
 08,0.00003261,-0.23893704,0.12211883,-0.00000407,-0.00004861,0.0000057
 1,0.00005068,0.00000137,-0.00001953,0.00000619,0.00004595,0.00000569,0
 .00002803,-0.00021433,0.00006432,0.00000186,-0.00001182,-0.00007198,0.
 00007826,-0.00001880,-0.00002537,-0.00010760,0.00023194,0.00001832,-0.
 00007222,0.00033864,-0.00014148,0.00003948,0.00090667,0.00015541,-0.00
 034429,0.00060709,-0.00008585,0.00072066,0.00002034,-0.00001650,-0.000
 01414,0.00000956,0.00003806,-0.00003766,-0.00003990,-0.00000214,0.0000
 2806,0.00496673,-0.00286024,-0.00048533,-0.00509474,0.00278426,0.00011
 763,0.26059074,-0.00023304,-0.00023544,-0.00018426,-0.00089855,0.00087
 520,-0.00007126,-0.00211056,-0.00232767,-0.00141752,-0.00001392,0.0000
 2951,-0.00003614,-0.01759288,0.01135542,0.00061352,-0.00000698,-0.0000
 1499,0.00000425,0.12331093,-0.12512955,0.00038250,-0.00000775,-0.00000
 495,0.00002010,0.00000045,0.00000061,0.00000411,0.00001249,-0.00000645
 ,0.00000130,-0.00010396,0.00003273,-0.00000177,0.00007982,0.00003137,0
 .00008031,0.00003209,0.00002229,-0.00001303,-0.00016048,0.00025578,-0.
 00031568,-0.00005965,-0.00012337,0.00011899,0.00086457,0.00063098,0.00
 029987,0.00069089,0.00076948,0.00055712,-0.00000525,0.00001122,0.00000
 084,0.00000463,-0.00000560,-0.00000043,0.00000412,0.00000402,0.0000051
 8,0.02230708,-0.01389797,-0.00146407,0.00625547,-0.00545009,0.00058531
 ,-0.13236952,0.13317746,-0.00012877,-0.00020121,-0.00013223,-0.0006914
 3,0.00042023,0.00062687,-0.00138706,-0.00204287,-0.00079434,-0.0000074
 2,0.00002496,-0.00004433,-0.01052188,0.00795265,-0.00108481,-0.0000039
 0,-0.00001610,0.00001522,0.00042544,0.00011178,-0.04734410,-0.00001236
 ,0.00000297,0.00002419,0.00000375,-0.00000049,0.00000897,0.00002162,0.
 00000260,-0.00000470,-0.00008417,0.00002608,-0.00000171,-0.00004814,-0
 .00004559,-0.00000712,0.00009851,0.00007207,-0.00000539,0.00028012,-0.
 00034030,0.00006067,-0.00035856,0.00016231,0.00032904,0.00029491,0.000
 59068,0.00009421,0.00061603,-0.00006895,0.00031115,-0.00000795,0.00001
 543,-0.00000567,-0.00000529,-0.00001376,-0.00000643,-0.00000024,0.0000
 0253,0.00000938,-0.01638714,0.00930484,-0.00033563,0.02636609,-0.01679
 057,0.00127006,0.00153784,0.00083075,0.04701673\\0.,-0.00000084,-0.000
 00020,0.00000026,-0.00000022,0.00000002,-0.00000008,0.00000019,0.00000
 003,0.00000016,-0.00000068,0.00000006,0.00000019,0.00000056,0.00000028
 ,-0.00000042,-0.00000019,-0.00000044,-0.00000012,0.00000109,0.00000017
 ,-0.00000010,-0.00000103,-0.00000038,0.00000033,-0.00000087,0.00000003
 ,-0.00000039,-0.00000072,-0.00000044,0.00000017,-0.00000116,-0.0000002
 3,0.00000049,-0.00000031,0.00000032,0.00000040,-0.00000053,0.00000018,
 -0.00000028,0.00000006,-0.00000019,-0.00000017,0.00000033,-0.00000009,
 0.00000035,0.00000037,0.00000038,0.00000040,0.00000062,0.00000050,-0.0
 0000051,-0.00000006,-0.00000045,0.00000009,0.00000003,0.00000006,-0.00
 000018,-0.00000021,-0.00000019,-0.00000036,0.00000097,0.00000003,-0.00
 000031,0.00000123,0.00000015,0.00000008,0.00000136,0.00000041\\\@


 SATCHEL PAIGE'S GUIDE TO LONGEVITY

    1.  AVOID FRIED MEATS, WHICH ANGRY UP THE BLOOD.

    2.  IF YOUR STOMACH DISPUTES YOU, LIE DOWN AND PACIFY IT WITH COOL
        THOUGHTS.

    3.  KEEP THE JUICES FLOWING BY JANGLING AROUND GENTLY AS YOU MOVE.

    4.  GO VERY LIGHT ON THE VICES, SUCH AS CARRYING ON IN SOCIETY.
        THE SOCIAL RUMBLE AIN'T RESTFUL.

    5.  AVOID RUNNING AT ALL TIMES.

    6.  DON'T LOOK BACK.  SOMETHING MAY BE GAINING ON YOU.
 Job cpu time:       0 days  7 hours  8 minutes 41.4 seconds.
 Elapsed time:       0 days  3 hours 34 minutes 24.8 seconds.
 File lengths (MBytes):  RWF=   1488 Int=      0 D2E=      0 Chk=     32 Scr=     32
 Normal termination of Gaussian 16 at Sat Sep 28 15:30:07 2019.
