 Entering Gaussian System, Link 0=g16
 Input=med/species/CCCCCCC/conformers/CCCCCCC_779.com
 Output=med/species/CCCCCCC/conformers/CCCCCCC_779.log
 Initial command:
 /shared/centos7/gaussian/g16/l1.exe "/scratch/harms.n/gauss_scrdir/Gau-4305.inp" -scrdir="/scratch/harms.n/gauss_scrdir/"
 Entering Link 1 = /shared/centos7/gaussian/g16/l1.exe PID=      4306.
  
 Copyright (c) 1988,1990,1992,1993,1995,1998,2003,2009,2016,
            Gaussian, Inc.  All Rights Reserved.
  
 This is part of the Gaussian(R) 16 program.  It is based on
 the Gaussian(R) 09 system (copyright 2009, Gaussian, Inc.),
 the Gaussian(R) 03 system (copyright 2003, Gaussian, Inc.),
 the Gaussian(R) 98 system (copyright 1998, Gaussian, Inc.),
 the Gaussian(R) 94 system (copyright 1995, Gaussian, Inc.),
 the Gaussian 92(TM) system (copyright 1992, Gaussian, Inc.),
 the Gaussian 90(TM) system (copyright 1990, Gaussian, Inc.),
 the Gaussian 88(TM) system (copyright 1988, Gaussian, Inc.),
 the Gaussian 86(TM) system (copyright 1986, Carnegie Mellon
 University), and the Gaussian 82(TM) system (copyright 1983,
 Carnegie Mellon University). Gaussian is a federally registered
 trademark of Gaussian, Inc.
  
 This software contains proprietary and confidential information,
 including trade secrets, belonging to Gaussian, Inc.
  
 This software is provided under written license and may be
 used, copied, transmitted, or stored only in accord with that
 written license.
  
 The following legend is applicable only to US Government
 contracts under FAR:
  
                    RESTRICTED RIGHTS LEGEND
  
 Use, reproduction and disclosure by the US Government is
 subject to restrictions as set forth in subparagraphs (a)
 and (c) of the Commercial Computer Software - Restricted
 Rights clause in FAR 52.227-19.
  
 Gaussian, Inc.
 340 Quinnipiac St., Bldg. 40, Wallingford CT 06492
  
  
 ---------------------------------------------------------------
 Warning -- This program may not be used in any manner that
 competes with the business of Gaussian, Inc. or will provide
 assistance to any competitor of Gaussian, Inc.  The licensee
 of this program is prohibited from giving any competitor of
 Gaussian, Inc. access to this program.  By using this program,
 the user acknowledges that Gaussian, Inc. is engaged in the
 business of creating and licensing software in the field of
 computational chemistry and represents and warrants to the
 licensee that it is not a competitor of Gaussian, Inc. and that
 it will not use this program in any manner prohibited above.
 ---------------------------------------------------------------
  

 Cite this work as:
 Gaussian 16, Revision A.03,
 M. J. Frisch, G. W. Trucks, H. B. Schlegel, G. E. Scuseria, 
 M. A. Robb, J. R. Cheeseman, G. Scalmani, V. Barone, 
 G. A. Petersson, H. Nakatsuji, X. Li, M. Caricato, A. V. Marenich, 
 J. Bloino, B. G. Janesko, R. Gomperts, B. Mennucci, H. P. Hratchian, 
 J. V. Ortiz, A. F. Izmaylov, J. L. Sonnenberg, D. Williams-Young, 
 F. Ding, F. Lipparini, F. Egidi, J. Goings, B. Peng, A. Petrone, 
 T. Henderson, D. Ranasinghe, V. G. Zakrzewski, J. Gao, N. Rega, 
 G. Zheng, W. Liang, M. Hada, M. Ehara, K. Toyota, R. Fukuda, 
 J. Hasegawa, M. Ishida, T. Nakajima, Y. Honda, O. Kitao, H. Nakai, 
 T. Vreven, K. Throssell, J. A. Montgomery, Jr., J. E. Peralta, 
 F. Ogliaro, M. J. Bearpark, J. J. Heyd, E. N. Brothers, K. N. Kudin, 
 V. N. Staroverov, T. A. Keith, R. Kobayashi, J. Normand, 
 K. Raghavachari, A. P. Rendell, J. C. Burant, S. S. Iyengar, 
 J. Tomasi, M. Cossi, J. M. Millam, M. Klene, C. Adamo, R. Cammi, 
 J. W. Ochterski, R. L. Martin, K. Morokuma, O. Farkas, 
 J. B. Foresman, and D. J. Fox, Gaussian, Inc., Wallingford CT, 2016.
 
 ******************************************
 Gaussian 16:  EM64L-G16RevA.03 25-Dec-2016
                28-Sep-2019 
 ******************************************
 %nprocshared=20
 Will use up to   20 processors via shared memory.
 %mem=5GB
 ----------------------------------------------------------------------
 #p m062x/cc-pVTZ opt=(calcfc,maxcycles=900,Tight) freq IOP(7/33=1,2/16
 =3) scf=(maxcycle=900)
 ----------------------------------------------------------------------
 1/6=900,7=10,10=4,18=20,19=15,26=3,38=1/1,3;
 2/9=110,12=2,16=3,17=6,18=5,40=1/2;
 3/5=16,6=1,11=2,25=1,30=1,71=2,74=-55,140=1/1,2,3;
 4//1;
 5/5=2,7=900,38=5/2;
 8/6=4,10=90,11=11/1;
 11/6=1,8=1,9=11,15=111,16=1/1,2,10;
 10/6=1,13=1/2;
 6/7=2,8=2,9=2,10=2,28=1/1;
 7/10=1,18=20,25=1,33=1/1,2,3,16;
 1/6=900,7=10,10=4,18=20,19=15,26=3/3(2);
 2/9=110,16=3/2;
 99//99;
 2/9=110,16=3/2;
 3/5=16,6=1,11=2,25=1,30=1,71=1,74=-55/1,2,3;
 4/5=5,16=3,69=1/1;
 5/5=2,7=900,38=5/2;
 7/33=1/1,2,3,16;
 1/6=900,7=10,18=20,19=15,26=3/3(-5);
 2/9=110,16=3/2;
 6/7=2,8=2,9=2,10=2,19=2,28=1/1;
 99/9=1/99;
 Leave Link    1 at Sat Sep 28 00:09:58 2019, MaxMem=   671088640 cpu:               4.0 elap:               2.0
 (Enter /shared/centos7/gaussian/g16/l101.exe)
 ------------------------------
 Gaussian input prepared by ASE
 ------------------------------
 Symbolic Z-matrix:
 Charge =  0 Multiplicity = 1
 C                     1.3873   -1.15519   0.41129 
 C                     0.14851  -0.46954   0.87741 
 C                    -0.974    -0.33859  -0.12149 
 C                     2.24749  -0.48269  -0.60499 
 C                    -2.1683    0.44834   0.36442 
 C                     1.8396    0.8478   -1.08771 
 C                    -2.2107    0.78954   1.83129 
 H                     2.35545  -1.17324  -1.48852 
 H                     3.27869  -0.40651  -0.18478 
 H                     1.11425  -2.16931   0.04993 
 H                     2.00567  -1.34139   1.31328 
 H                     0.39273   0.52524   1.28169 
 H                    -0.24085  -1.05731   1.73541 
 H                    -1.30303  -1.34602  -0.42802 
 H                    -0.59411   0.13491  -1.05027 
 H                    -2.23528   1.39999  -0.22497 
 H                    -3.08888  -0.109     0.12117 
 H                     1.04653   1.3019   -0.46424 
 H                     2.72046   1.556    -1.09637 
 H                     1.45061   0.80609  -2.12716 
 H                    -1.25236   1.1611    2.19611 
 H                    -2.48656  -0.11054   2.44743 
 H                    -2.99586   1.57787   2.0155 
 
 ITRead=  0  0  0  0  0  0  0  0  0  0  0  0  0  0  0  0  0  0  0  0
 ITRead=  0  0  0
 MicOpt= -1 -1 -1 -1 -1 -1 -1 -1 -1 -1 -1 -1 -1 -1 -1 -1 -1 -1 -1 -1
 MicOpt= -1 -1 -1
 NAtoms=     23 NQM=       23 NQMF=       0 NMMI=      0 NMMIF=      0
                NMic=       0 NMicF=      0.
                    Isotopes and Nuclear Properties:
 (Nuclear quadrupole moments (NQMom) in fm**2, nuclear magnetic moments (NMagM)
  in nuclear magnetons)

  Atom         1           2           3           4           5           6           7           8           9          10
 IAtWgt=          12          12          12          12          12          12          12           1           1           1
 AtmWgt=  12.0000000  12.0000000  12.0000000  12.0000000  12.0000000  12.0000000  12.0000000   1.0078250   1.0078250   1.0078250
 NucSpn=           0           0           0           0           0           0           0           1           1           1
 AtZEff=  -0.0000000  -0.0000000  -0.0000000  -0.0000000  -0.0000000  -0.0000000  -0.0000000  -0.0000000  -0.0000000  -0.0000000
 NQMom=    0.0000000   0.0000000   0.0000000   0.0000000   0.0000000   0.0000000   0.0000000   0.0000000   0.0000000   0.0000000
 NMagM=    0.0000000   0.0000000   0.0000000   0.0000000   0.0000000   0.0000000   0.0000000   2.7928460   2.7928460   2.7928460
 AtZNuc=   6.0000000   6.0000000   6.0000000   6.0000000   6.0000000   6.0000000   6.0000000   1.0000000   1.0000000   1.0000000

  Atom        11          12          13          14          15          16          17          18          19          20
 IAtWgt=           1           1           1           1           1           1           1           1           1           1
 AtmWgt=   1.0078250   1.0078250   1.0078250   1.0078250   1.0078250   1.0078250   1.0078250   1.0078250   1.0078250   1.0078250
 NucSpn=           1           1           1           1           1           1           1           1           1           1
 AtZEff=  -0.0000000  -0.0000000  -0.0000000  -0.0000000  -0.0000000  -0.0000000  -0.0000000  -0.0000000  -0.0000000  -0.0000000
 NQMom=    0.0000000   0.0000000   0.0000000   0.0000000   0.0000000   0.0000000   0.0000000   0.0000000   0.0000000   0.0000000
 NMagM=    2.7928460   2.7928460   2.7928460   2.7928460   2.7928460   2.7928460   2.7928460   2.7928460   2.7928460   2.7928460
 AtZNuc=   1.0000000   1.0000000   1.0000000   1.0000000   1.0000000   1.0000000   1.0000000   1.0000000   1.0000000   1.0000000

  Atom        21          22          23
 IAtWgt=           1           1           1
 AtmWgt=   1.0078250   1.0078250   1.0078250
 NucSpn=           1           1           1
 AtZEff=  -0.0000000  -0.0000000  -0.0000000
 NQMom=    0.0000000   0.0000000   0.0000000
 NMagM=    2.7928460   2.7928460   2.7928460
 AtZNuc=   1.0000000   1.0000000   1.0000000
 Leave Link  101 at Sat Sep 28 00:09:59 2019, MaxMem=   671088640 cpu:               2.3 elap:               1.2
 (Enter /shared/centos7/gaussian/g16/l103.exe)

 GradGradGradGradGradGradGradGradGradGradGradGradGradGradGradGradGradGrad
 Berny optimization.
 Initialization pass.
                           ----------------------------
                           !    Initial Parameters    !
                           ! (Angstroms and Degrees)  !
 --------------------------                            --------------------------
 ! Name  Definition              Value          Derivative Info.                !
 --------------------------------------------------------------------------------
 ! R1    R(1,2)                  1.4906         calculate D2E/DX2 analytically  !
 ! R2    R(1,4)                  1.4917         calculate D2E/DX2 analytically  !
 ! R3    R(1,10)                 1.1107         calculate D2E/DX2 analytically  !
 ! R4    R(1,11)                 1.1093         calculate D2E/DX2 analytically  !
 ! R5    R(2,3)                  1.5083         calculate D2E/DX2 analytically  !
 ! R6    R(2,12)                 1.1012         calculate D2E/DX2 analytically  !
 ! R7    R(2,13)                 1.1105         calculate D2E/DX2 analytically  !
 ! R8    R(3,5)                  1.5105         calculate D2E/DX2 analytically  !
 ! R9    R(3,14)                 1.1032         calculate D2E/DX2 analytically  !
 ! R10   R(3,15)                 1.1096         calculate D2E/DX2 analytically  !
 ! R11   R(4,6)                  1.473          calculate D2E/DX2 analytically  !
 ! R12   R(4,8)                  1.1266         calculate D2E/DX2 analytically  !
 ! R13   R(4,9)                  1.1161         calculate D2E/DX2 analytically  !
 ! R14   R(5,7)                  1.5066         calculate D2E/DX2 analytically  !
 ! R15   R(5,16)                 1.1214         calculate D2E/DX2 analytically  !
 ! R16   R(5,17)                 1.1033         calculate D2E/DX2 analytically  !
 ! R17   R(6,18)                 1.1063         calculate D2E/DX2 analytically  !
 ! R18   R(6,19)                 1.1303         calculate D2E/DX2 analytically  !
 ! R19   R(6,20)                 1.1106         calculate D2E/DX2 analytically  !
 ! R20   R(7,21)                 1.0907         calculate D2E/DX2 analytically  !
 ! R21   R(7,22)                 1.1251         calculate D2E/DX2 analytically  !
 ! R22   R(7,23)                 1.1278         calculate D2E/DX2 analytically  !
 ! A1    A(2,1,4)              119.0069         calculate D2E/DX2 analytically  !
 ! A2    A(2,1,10)             108.5071         calculate D2E/DX2 analytically  !
 ! A3    A(2,1,11)             106.6312         calculate D2E/DX2 analytically  !
 ! A4    A(4,1,10)             109.3752         calculate D2E/DX2 analytically  !
 ! A5    A(4,1,11)             107.95           calculate D2E/DX2 analytically  !
 ! A6    A(10,1,11)            104.3778         calculate D2E/DX2 analytically  !
 ! A7    A(1,2,3)              116.8292         calculate D2E/DX2 analytically  !
 ! A8    A(1,2,12)             110.2433         calculate D2E/DX2 analytically  !
 ! A9    A(1,2,13)             106.8294         calculate D2E/DX2 analytically  !
 ! A10   A(3,2,12)             109.2536         calculate D2E/DX2 analytically  !
 ! A11   A(3,2,13)             107.2595         calculate D2E/DX2 analytically  !
 ! A12   A(12,2,13)            105.7968         calculate D2E/DX2 analytically  !
 ! A13   A(2,3,5)              114.8728         calculate D2E/DX2 analytically  !
 ! A14   A(2,3,14)             109.0674         calculate D2E/DX2 analytically  !
 ! A15   A(2,3,15)             109.67           calculate D2E/DX2 analytically  !
 ! A16   A(5,3,14)             109.2258         calculate D2E/DX2 analytically  !
 ! A17   A(5,3,15)             108.5209         calculate D2E/DX2 analytically  !
 ! A18   A(14,3,15)            105.0241         calculate D2E/DX2 analytically  !
 ! A19   A(1,4,6)              118.088          calculate D2E/DX2 analytically  !
 ! A20   A(1,4,8)              108.2546         calculate D2E/DX2 analytically  !
 ! A21   A(1,4,9)              107.8813         calculate D2E/DX2 analytically  !
 ! A22   A(6,4,8)              108.8567         calculate D2E/DX2 analytically  !
 ! A23   A(6,4,9)              108.5172         calculate D2E/DX2 analytically  !
 ! A24   A(8,4,9)              104.3927         calculate D2E/DX2 analytically  !
 ! A25   A(3,5,7)              116.9638         calculate D2E/DX2 analytically  !
 ! A26   A(3,5,16)             108.6786         calculate D2E/DX2 analytically  !
 ! A27   A(3,5,17)             109.0029         calculate D2E/DX2 analytically  !
 ! A28   A(7,5,16)             108.5331         calculate D2E/DX2 analytically  !
 ! A29   A(7,5,17)             107.7927         calculate D2E/DX2 analytically  !
 ! A30   A(16,5,17)            105.2468         calculate D2E/DX2 analytically  !
 ! A31   A(4,6,18)             112.6182         calculate D2E/DX2 analytically  !
 ! A32   A(4,6,19)             110.6503         calculate D2E/DX2 analytically  !
 ! A33   A(4,6,20)             111.7024         calculate D2E/DX2 analytically  !
 ! A34   A(18,6,19)            107.8067         calculate D2E/DX2 analytically  !
 ! A35   A(18,6,20)            106.9652         calculate D2E/DX2 analytically  !
 ! A36   A(19,6,20)            106.8168         calculate D2E/DX2 analytically  !
 ! A37   A(5,7,21)             112.2148         calculate D2E/DX2 analytically  !
 ! A38   A(5,7,22)             111.0331         calculate D2E/DX2 analytically  !
 ! A39   A(5,7,23)             109.6899         calculate D2E/DX2 analytically  !
 ! A40   A(21,7,22)            107.746          calculate D2E/DX2 analytically  !
 ! A41   A(21,7,23)            108.6002         calculate D2E/DX2 analytically  !
 ! A42   A(22,7,23)            107.4009         calculate D2E/DX2 analytically  !
 ! D1    D(4,1,2,3)             68.9713         calculate D2E/DX2 analytically  !
 ! D2    D(4,1,2,12)           -56.506          calculate D2E/DX2 analytically  !
 ! D3    D(4,1,2,13)          -171.0052         calculate D2E/DX2 analytically  !
 ! D4    D(10,1,2,3)           -56.8756         calculate D2E/DX2 analytically  !
 ! D5    D(10,1,2,12)          177.6471         calculate D2E/DX2 analytically  !
 ! D6    D(10,1,2,13)           63.1478         calculate D2E/DX2 analytically  !
 ! D7    D(11,1,2,3)          -168.7934         calculate D2E/DX2 analytically  !
 ! D8    D(11,1,2,12)           65.7293         calculate D2E/DX2 analytically  !
 ! D9    D(11,1,2,13)          -48.77           calculate D2E/DX2 analytically  !
 ! D10   D(2,1,4,6)              0.9669         calculate D2E/DX2 analytically  !
 ! D11   D(2,1,4,8)           -123.2129         calculate D2E/DX2 analytically  !
 ! D12   D(2,1,4,9)            124.3642         calculate D2E/DX2 analytically  !
 ! D13   D(10,1,4,6)           126.3983         calculate D2E/DX2 analytically  !
 ! D14   D(10,1,4,8)             2.2185         calculate D2E/DX2 analytically  !
 ! D15   D(10,1,4,9)          -110.2044         calculate D2E/DX2 analytically  !
 ! D16   D(11,1,4,6)          -120.6089         calculate D2E/DX2 analytically  !
 ! D17   D(11,1,4,8)           115.2113         calculate D2E/DX2 analytically  !
 ! D18   D(11,1,4,9)             2.7884         calculate D2E/DX2 analytically  !
 ! D19   D(1,2,3,5)           -175.8393         calculate D2E/DX2 analytically  !
 ! D20   D(1,2,3,14)            61.1858         calculate D2E/DX2 analytically  !
 ! D21   D(1,2,3,15)           -53.3225         calculate D2E/DX2 analytically  !
 ! D22   D(12,2,3,5)           -49.868          calculate D2E/DX2 analytically  !
 ! D23   D(12,2,3,14)         -172.8429         calculate D2E/DX2 analytically  !
 ! D24   D(12,2,3,15)           72.6488         calculate D2E/DX2 analytically  !
 ! D25   D(13,2,3,5)            64.3665         calculate D2E/DX2 analytically  !
 ! D26   D(13,2,3,14)          -58.6085         calculate D2E/DX2 analytically  !
 ! D27   D(13,2,3,15)         -173.1168         calculate D2E/DX2 analytically  !
 ! D28   D(2,3,5,7)            -10.571          calculate D2E/DX2 analytically  !
 ! D29   D(2,3,5,16)           112.6885         calculate D2E/DX2 analytically  !
 ! D30   D(2,3,5,17)          -133.1052         calculate D2E/DX2 analytically  !
 ! D31   D(14,3,5,7)           112.3191         calculate D2E/DX2 analytically  !
 ! D32   D(14,3,5,16)         -124.4215         calculate D2E/DX2 analytically  !
 ! D33   D(14,3,5,17)          -10.2152         calculate D2E/DX2 analytically  !
 ! D34   D(15,3,5,7)          -133.7044         calculate D2E/DX2 analytically  !
 ! D35   D(15,3,5,16)          -10.445          calculate D2E/DX2 analytically  !
 ! D36   D(15,3,5,17)          103.7613         calculate D2E/DX2 analytically  !
 ! D37   D(1,4,6,18)            13.0356         calculate D2E/DX2 analytically  !
 ! D38   D(1,4,6,19)           133.7695         calculate D2E/DX2 analytically  !
 ! D39   D(1,4,6,20)          -107.3646         calculate D2E/DX2 analytically  !
 ! D40   D(8,4,6,18)           136.9161         calculate D2E/DX2 analytically  !
 ! D41   D(8,4,6,19)          -102.35           calculate D2E/DX2 analytically  !
 ! D42   D(8,4,6,20)            16.5159         calculate D2E/DX2 analytically  !
 ! D43   D(9,4,6,18)          -110.0426         calculate D2E/DX2 analytically  !
 ! D44   D(9,4,6,19)            10.6913         calculate D2E/DX2 analytically  !
 ! D45   D(9,4,6,20)           129.5572         calculate D2E/DX2 analytically  !
 ! D46   D(3,5,7,21)            45.2337         calculate D2E/DX2 analytically  !
 ! D47   D(3,5,7,22)           -75.4153         calculate D2E/DX2 analytically  !
 ! D48   D(3,5,7,23)           166.036          calculate D2E/DX2 analytically  !
 ! D49   D(16,5,7,21)          -78.1003         calculate D2E/DX2 analytically  !
 ! D50   D(16,5,7,22)          161.2507         calculate D2E/DX2 analytically  !
 ! D51   D(16,5,7,23)           42.702          calculate D2E/DX2 analytically  !
 ! D52   D(17,5,7,21)          168.3915         calculate D2E/DX2 analytically  !
 ! D53   D(17,5,7,22)           47.7425         calculate D2E/DX2 analytically  !
 ! D54   D(17,5,7,23)          -70.8062         calculate D2E/DX2 analytically  !
 --------------------------------------------------------------------------------
 Trust Radius=3.00D-01 FncErr=1.00D-07 GrdErr=1.00D-06 EigMax=2.50D+02 EigMin=1.00D-04
 Number of steps in this run=    138 maximum allowed number of steps=    138.
 GradGradGradGradGradGradGradGradGradGradGradGradGradGradGradGradGradGrad

 Leave Link  103 at Sat Sep 28 00:10:00 2019, MaxMem=   671088640 cpu:               1.6 elap:               0.8
 (Enter /shared/centos7/gaussian/g16/l202.exe)
                          Input orientation:                          
 ---------------------------------------------------------------------
 Center     Atomic      Atomic             Coordinates (Angstroms)
 Number     Number       Type             X           Y           Z
 ---------------------------------------------------------------------
      1          6           0        1.387296   -1.155188    0.411291
      2          6           0        0.148508   -0.469544    0.877405
      3          6           0       -0.974003   -0.338590   -0.121495
      4          6           0        2.247489   -0.482685   -0.604993
      5          6           0       -2.168298    0.448336    0.364417
      6          6           0        1.839596    0.847801   -1.087712
      7          6           0       -2.210703    0.789535    1.831288
      8          1           0        2.355447   -1.173238   -1.488519
      9          1           0        3.278688   -0.406514   -0.184777
     10          1           0        1.114254   -2.169309    0.049930
     11          1           0        2.005674   -1.341392    1.313278
     12          1           0        0.392727    0.525241    1.281689
     13          1           0       -0.240855   -1.057312    1.735415
     14          1           0       -1.303033   -1.346016   -0.428018
     15          1           0       -0.594111    0.134911   -1.050270
     16          1           0       -2.235279    1.399993   -0.224975
     17          1           0       -3.088876   -0.109001    0.121167
     18          1           0        1.046531    1.301898   -0.464236
     19          1           0        2.720457    1.555999   -1.096370
     20          1           0        1.450610    0.806094   -2.127156
     21          1           0       -1.252357    1.161097    2.196107
     22          1           0       -2.486564   -0.110539    2.447427
     23          1           0       -2.995865    1.577869    2.015502
 ---------------------------------------------------------------------
                    Distance matrix (angstroms):
                    1          2          3          4          5
     1  C    0.000000
     2  C    1.490625   0.000000
     3  C    2.554687   1.508304   0.000000
     4  C    1.491652   2.569708   3.260758   0.000000
     5  C    3.900734   2.544258   1.510531   4.615812   0.000000
     6  C    2.542351   2.908069   3.202724   1.472952   4.281526
     7  C    4.329427   2.839199   2.572053   5.237317   1.506627
     8  H    2.132351   3.311097   3.694676   1.126559   5.150450
     9  H    2.119711   3.306089   4.253704   1.116134   5.540941
    10  H    1.110665   2.122871   2.782397   2.134912   4.210239
    11  H    1.109344   2.097420   3.455816   2.115565   4.639559
    12  H    2.137895   1.101220   2.140813   2.831188   2.721424
    13  H    2.100894   1.110520   2.121835   3.464038   2.803863
    14  H    2.824664   2.139931   1.103233   3.658260   2.143907
    15  H    2.779656   2.152390   1.109570   2.941834   2.139541
    16  H    4.478485   3.223795   2.150395   4.876894   1.121392
    17  H    4.605951   3.344031   2.141093   5.398493   1.103295
    18  H    2.630577   2.396759   2.625116   2.155655   3.427879
    19  H    3.376521   3.822765   4.264843   2.149740   5.221181
    20  H    3.208480   3.514272   3.348392   2.147777   4.408222
    21  H    3.939354   2.521981   2.774495   4.774631   2.168424
    22  H    4.499325   3.088278   2.989851   5.645088   2.180038
    23  H    5.408806   3.921001   3.511054   6.213343   2.164900
                    6          7          8          9         10
     6  C    0.000000
     7  C    4.992883   0.000000
     8  H    2.123993   5.976899   0.000000
     9  H    2.111773   5.968959   1.772000   0.000000
    10  H    3.305043   4.794094   2.213492   2.801305   0.000000
    11  H    3.253445   4.752581   2.828548   2.176862   1.753888
    12  H    2.794912   2.673904   3.796202   3.368598   3.049332
    13  H    3.990962   2.701914   4.141011   4.061755   2.431813
    14  H    3.888977   3.238659   3.813002   4.683374   2.597984
    15  H    2.536246   3.368275   3.256257   4.005096   3.072195
    16  H    4.201647   2.145106   5.412284   5.802492   4.902536
    17  H    5.163980   2.122044   5.776186   6.381847   4.681478
    18  H    1.106291   4.017651   2.981394   2.824764   3.509734
    19  H    1.130281   5.785758   2.781321   2.234745   4.215663
    20  H    1.110627   5.392103   2.268113   2.930038   3.702143
    21  H    4.521260   1.090678   5.660551   5.353165   4.615033
    22  H    5.668447   1.125104   6.329776   6.344622   4.790868
    23  H    5.791772   1.127778   6.962994   6.938949   5.898974
                   11         12         13         14         15
    11  H    0.000000
    12  H    2.467167   0.000000
    13  H    2.303431   1.764020   0.000000
    14  H    3.738941   3.049640   2.427348   0.000000
    15  H    3.811130   2.562077   3.050611   1.755822   0.000000
    16  H    5.278930   3.153037   3.722796   2.907039   2.230465
    17  H    5.375347   3.724330   3.408271   2.240768   2.766876
    18  H    3.326634   2.019630   3.472995   3.540227   2.096903
    19  H    3.835648   3.483669   4.859812   5.005683   3.606658
    20  H    4.093455   3.580254   4.610075   3.886025   2.406461
    21  H    4.201977   1.986650   2.481273   3.629630   3.467752
    22  H    4.793902   3.170723   2.539006   3.345943   3.984408
    23  H    5.833575   3.623405   3.822658   4.169602   4.153252
                   16         17         18         19         20
    16  H    0.000000
    17  H    1.767910   0.000000
    18  H    3.291982   4.408505   0.000000
    19  H    5.034182   6.164655   1.807260   0.000000
    20  H    4.190082   5.147745   1.781686   1.799275   0.000000
    21  H    2.623898   3.048168   3.518825   5.174901   5.111033
    22  H    3.080030   2.402971   4.791192   6.515283   6.104782
    23  H    2.372734   2.538246   4.750392   6.508499   6.126042
                   21         22         23
    21  H    0.000000
    22  H    1.789829   0.000000
    23  H    1.801704   1.815673   0.000000
 Stoichiometry    C7H16
 Framework group  C1[X(C7H16)]
 Deg. of freedom    63
 Full point group                 C1      NOp   1
 Largest Abelian subgroup         C1      NOp   1
 Largest concise Abelian subgroup C1      NOp   1
                         Standard orientation:                         
 ---------------------------------------------------------------------
 Center     Atomic      Atomic             Coordinates (Angstroms)
 Number     Number       Type             X           Y           Z
 ---------------------------------------------------------------------
      1          6           0       -1.351449   -1.144114    0.107872
      2          6           0        0.062419   -0.762373   -0.170006
      3          6           0        0.729963    0.150130    0.828345
      4          6           0       -2.415123   -0.103351    0.005711
      5          6           0        2.126554    0.587677    0.454461
      6          6           0       -2.017040    1.258678   -0.389250
      7          6           0        2.772759   -0.113353   -0.712116
      8          1           0       -2.955455   -0.052909    0.992945
      9          1           0       -3.185525   -0.470165   -0.713791
     10          1           0       -1.397468   -1.620879    1.109947
     11          1           0       -1.604182   -1.961703   -0.598044
     12          1           0        0.147930   -0.323916   -1.176549
     13          1           0        0.649889   -1.704315   -0.199665
     14          1           0        0.756801   -0.349519    1.811582
     15          1           0        0.106524    1.054964    0.982436
     16          1           0        2.113951    1.689405    0.245755
     17          1           0        2.787562    0.465654    1.329354
     18          1           0       -0.986721    1.301491   -0.789862
     19          1           0       -2.713355    1.663285   -1.182328
     20          1           0       -2.061235    1.964147    0.467402
     21          1           0        2.094136   -0.214214   -1.559982
     22          1           0        3.116412   -1.145028   -0.423309
     23          1           0        3.682233    0.463942   -1.045988
 ---------------------------------------------------------------------
 Rotational constants (GHZ):           4.7577249           1.2417818           1.1441760
 Leave Link  202 at Sat Sep 28 00:10:02 2019, MaxMem=   671088640 cpu:               3.9 elap:               2.0
 (Enter /shared/centos7/gaussian/g16/l301.exe)
 Standard basis: CC-pVTZ (5D, 7F)
 Ernie: Thresh=  0.10000D-02 Tol=  0.10000D-05 Strict=F.
 Ernie:  21 primitive shells out of 310 were deleted.
 There are   485 symmetry adapted cartesian basis functions of A   symmetry.
 There are   434 symmetry adapted basis functions of A   symmetry.
   434 basis functions,   636 primitive gaussians,   485 cartesian basis functions
    29 alpha electrons       29 beta electrons
       nuclear repulsion energy       328.4203760973 Hartrees.
 IExCor= 4336 DFT=T Ex+Corr=M062X ExCW=0 ScaHFX=  0.540000
 ScaDFX=  1.000000  1.000000  1.000000  1.000000 ScalE2=  1.000000  1.000000
 IRadAn=      5 IRanWt=     -1 IRanGd=            0 ICorTp=0 IEmpDi=  4
 NAtoms=   23 NActive=   23 NUniq=   23 SFac= 1.00D+00 NAtFMM=   60 NAOKFM=F Big=F
 Integral buffers will be    131072 words long.
 Raffenetti 2 integral format.
 Two-electron integral symmetry is turned on.
 Leave Link  301 at Sat Sep 28 00:10:03 2019, MaxMem=   671088640 cpu:               1.6 elap:               0.8
 (Enter /shared/centos7/gaussian/g16/l302.exe)
 NPDir=0 NMtPBC=     1 NCelOv=     1 NCel=       1 NClECP=     1 NCelD=      1
         NCelK=      1 NCelE2=     1 NClLst=     1 CellRange=     0.0.
 One-electron integrals computed using PRISM.
 One-electron integral symmetry used in STVInt
 NBasis=   434 RedAO= T EigKep=  1.93D-04  NBF=   434
 NBsUse=   434 1.00D-06 EigRej= -1.00D+00 NBFU=   434
 Precomputing XC quadrature grid using
 IXCGrd= 4 IRadAn=           5 IRanWt=          -1 IRanGd=           0 AccXCQ= 0.00D+00.
 Generated NRdTot=       0 NPtTot=           0 NUsed=           0 NTot=          32
 NSgBfM=   485   485   485   485   485 MxSgAt=    23 MxSgA2=    23.
 Leave Link  302 at Sat Sep 28 00:11:13 2019, MaxMem=   671088640 cpu:             140.3 elap:              70.5
 (Enter /shared/centos7/gaussian/g16/l303.exe)
 DipDrv:  MaxL=1.
 Leave Link  303 at Sat Sep 28 00:11:17 2019, MaxMem=   671088640 cpu:               8.0 elap:               4.0
 (Enter /shared/centos7/gaussian/g16/l401.exe)
 ExpMin= 1.03D-01 ExpMax= 8.24D+03 ExpMxC= 2.81D+02 IAcc=3 IRadAn=         5 AccDes= 0.00D+00
 Harris functional with IExCor= 1009 and IRadAn=       5 diagonalized for initial guess.
 HarFok:  IExCor= 1009 AccDes= 0.00D+00 IRadAn=         5 IDoV= 1 UseB2=F ITyADJ=14
 ICtDFT=  3500011 ScaDFX=  1.000000  1.000000  1.000000  1.000000
 FoFCou: FMM=F IPFlag=           0 FMFlag=      100000 FMFlg1=           0
         NFxFlg=           0 DoJE=T BraDBF=F KetDBF=T FulRan=T
         wScrn=  0.000000 ICntrl=       500 IOpCl=  0 I1Cent=   200000004 NGrid=           0
         NMat0=    1 NMatS0=      1 NMatT0=    0 NMatD0=    1 NMtDS0=    0 NMtDT0=    0
 Petite list used in FoFCou.
 Harris En= -276.312353923355    
 JPrj=0 DoOrth=F DoCkMO=F.
 Leave Link  401 at Sat Sep 28 00:12:03 2019, MaxMem=   671088640 cpu:              92.0 elap:              46.0
 (Enter /shared/centos7/gaussian/g16/l502.exe)
 Integral symmetry usage will be decided dynamically.
 Closed shell SCF:
 Using DIIS extrapolation, IDIIS=  1040.
 NGot=   671088640 LenX=   670604095 LenY=   670368385
 Requested convergence on RMS density matrix=1.00D-08 within 900 cycles.
 Requested convergence on MAX density matrix=1.00D-06.
 Requested convergence on             energy=1.00D-06.
 No special actions if energy rises.
 Fock matrices will be formed incrementally for  20 cycles.
 Integral accuracy reduced to 1.0D-05 until final iterations.

 Cycle   1  Pass 0  IDiag  1:
 FoFJK:  IHMeth= 1 ICntrl=       0 DoSepK=F KAlg= 0 I1Cent=           0 FoldK=F
 IRaf= 940000000 NMat=       1 IRICut=       1 DoRegI=T DoRafI=F ISym2E= 0 IDoP0=0 IntGTp=1.
 FoFCou: FMM=F IPFlag=           0 FMFlag=      100000 FMFlg1=           0
         NFxFlg=           0 DoJE=F BraDBF=F KetDBF=F FulRan=T
         wScrn=  0.000000 ICntrl=         0 IOpCl=  0 I1Cent=           0 NGrid=           0
         NMat0=    1 NMatS0=      1 NMatT0=    0 NMatD0=    1 NMtDS0=    0 NMtDT0=    0
 Symmetry not used in FoFCou.
 E= -275.945316816714    
 DIIS: error= 2.92D-02 at cycle   1 NSaved=   1.
 NSaved= 1 IEnMin= 1 EnMin= -275.945316816714     IErMin= 1 ErrMin= 2.92D-02
 ErrMax= 2.92D-02  0.00D+00 EMaxC= 1.00D-01 BMatC= 3.73D-01 BMatP= 3.73D-01
 IDIUse=3 WtCom= 7.08D-01 WtEn= 2.92D-01
 Coeff-Com:  0.100D+01
 Coeff-En:   0.100D+01
 Coeff:      0.100D+01
 Gap=     0.358 Goal=   None    Shift=    0.000
 GapD=    0.358 DampG=1.000 DampE=0.500 DampFc=0.5000 IDamp=-1.
 Damping current iteration by 5.00D-01
 RMSDP=1.91D-03 MaxDP=6.43D-02              OVMax= 1.63D-01

 Cycle   2  Pass 0  IDiag  1:
 RMSU=  9.52D-04    CP:  9.90D-01
 E= -276.122703688807     Delta-E=       -0.177386872093 Rises=F Damp=T
 DIIS: error= 4.39D-03 at cycle   2 NSaved=   2.
 NSaved= 2 IEnMin= 2 EnMin= -276.122703688807     IErMin= 2 ErrMin= 4.39D-03
 ErrMax= 4.39D-03  0.00D+00 EMaxC= 1.00D-01 BMatC= 1.88D-02 BMatP= 3.73D-01
 IDIUse=3 WtCom= 9.56D-01 WtEn= 4.39D-02
 Coeff-Com: -0.510D-01 0.105D+01
 Coeff-En:   0.000D+00 0.100D+01
 Coeff:     -0.488D-01 0.105D+01
 Gap=     0.441 Goal=   None    Shift=    0.000
 RMSDP=5.37D-04 MaxDP=1.63D-02 DE=-1.77D-01 OVMax= 8.65D-02

 Cycle   3  Pass 0  IDiag  1:
 RMSU=  5.30D-04    CP:  9.98D-01  9.28D-01
 E= -276.300996224442     Delta-E=       -0.178292535635 Rises=F Damp=F
 DIIS: error= 2.40D-03 at cycle   3 NSaved=   3.
 NSaved= 3 IEnMin= 3 EnMin= -276.300996224442     IErMin= 3 ErrMin= 2.40D-03
 ErrMax= 2.40D-03  0.00D+00 EMaxC= 1.00D-01 BMatC= 2.84D-03 BMatP= 1.88D-02
 IDIUse=3 WtCom= 9.76D-01 WtEn= 2.40D-02
 Coeff-Com: -0.521D-01 0.249D+00 0.803D+00
 Coeff-En:   0.000D+00 0.000D+00 0.100D+01
 Coeff:     -0.509D-01 0.243D+00 0.808D+00
 Gap=     0.403 Goal=   None    Shift=    0.000
 RMSDP=9.65D-05 MaxDP=3.24D-03 DE=-1.78D-01 OVMax= 1.09D-02

 Cycle   4  Pass 0  IDiag  1:
 RMSU=  7.48D-05    CP:  9.97D-01  9.76D-01  9.25D-01
 E= -276.303504302978     Delta-E=       -0.002508078536 Rises=F Damp=F
 DIIS: error= 6.56D-04 at cycle   4 NSaved=   4.
 NSaved= 4 IEnMin= 4 EnMin= -276.303504302978     IErMin= 4 ErrMin= 6.56D-04
 ErrMax= 6.56D-04  0.00D+00 EMaxC= 1.00D-01 BMatC= 2.43D-04 BMatP= 2.84D-03
 IDIUse=3 WtCom= 9.93D-01 WtEn= 6.56D-03
 Coeff-Com: -0.128D-01 0.355D-01 0.262D+00 0.716D+00
 Coeff-En:   0.000D+00 0.000D+00 0.000D+00 0.100D+01
 Coeff:     -0.127D-01 0.352D-01 0.260D+00 0.718D+00
 Gap=     0.403 Goal=   None    Shift=    0.000
 RMSDP=3.14D-05 MaxDP=1.18D-03 DE=-2.51D-03 OVMax= 3.21D-03

 Cycle   5  Pass 0  IDiag  1:
 RMSU=  1.90D-05    CP:  9.97D-01  9.69D-01  9.58D-01  7.73D-01
 E= -276.303725391763     Delta-E=       -0.000221088785 Rises=F Damp=F
 DIIS: error= 1.68D-04 at cycle   5 NSaved=   5.
 NSaved= 5 IEnMin= 5 EnMin= -276.303725391763     IErMin= 5 ErrMin= 1.68D-04
 ErrMax= 1.68D-04  0.00D+00 EMaxC= 1.00D-01 BMatC= 1.89D-05 BMatP= 2.43D-04
 IDIUse=3 WtCom= 9.98D-01 WtEn= 1.68D-03
 Coeff-Com: -0.177D-02 0.124D-02 0.567D-01 0.275D+00 0.669D+00
 Coeff-En:   0.000D+00 0.000D+00 0.000D+00 0.000D+00 0.100D+01
 Coeff:     -0.176D-02 0.124D-02 0.566D-01 0.274D+00 0.670D+00
 Gap=     0.403 Goal=   None    Shift=    0.000
 RMSDP=6.89D-06 MaxDP=3.41D-04 DE=-2.21D-04 OVMax= 8.27D-04

 Initial convergence to 1.0D-05 achieved.  Increase integral accuracy.
 Cycle   6  Pass 1  IDiag  1:
 E= -276.303698744012     Delta-E=        0.000026647751 Rises=F Damp=F
 DIIS: error= 3.25D-05 at cycle   1 NSaved=   1.
 NSaved= 1 IEnMin= 1 EnMin= -276.303698744012     IErMin= 1 ErrMin= 3.25D-05
 ErrMax= 3.25D-05  0.00D+00 EMaxC= 1.00D-01 BMatC= 1.39D-06 BMatP= 1.39D-06
 IDIUse=1 WtCom= 1.00D+00 WtEn= 0.00D+00
 Coeff-Com:  0.100D+01
 Coeff:      0.100D+01
 Gap=     0.403 Goal=   None    Shift=    0.000
 RMSDP=6.89D-06 MaxDP=3.41D-04 DE= 2.66D-05 OVMax= 2.76D-04

 Cycle   7  Pass 1  IDiag  1:
 RMSU=  9.94D-06    CP:  1.00D+00
 E= -276.303699452832     Delta-E=       -0.000000708819 Rises=F Damp=F
 DIIS: error= 2.35D-05 at cycle   2 NSaved=   2.
 NSaved= 2 IEnMin= 2 EnMin= -276.303699452832     IErMin= 2 ErrMin= 2.35D-05
 ErrMax= 2.35D-05  0.00D+00 EMaxC= 1.00D-01 BMatC= 4.19D-07 BMatP= 1.39D-06
 IDIUse=1 WtCom= 1.00D+00 WtEn= 0.00D+00
 Coeff-Com:  0.313D+00 0.687D+00
 Coeff:      0.313D+00 0.687D+00
 Gap=     0.403 Goal=   None    Shift=    0.000
 RMSDP=1.27D-06 MaxDP=4.93D-05 DE=-7.09D-07 OVMax= 1.40D-04

 Cycle   8  Pass 1  IDiag  1:
 RMSU=  1.27D-06    CP:  1.00D+00  1.00D+00
 E= -276.303699807885     Delta-E=       -0.000000355053 Rises=F Damp=F
 DIIS: error= 9.14D-06 at cycle   3 NSaved=   3.
 NSaved= 3 IEnMin= 3 EnMin= -276.303699807885     IErMin= 3 ErrMin= 9.14D-06
 ErrMax= 9.14D-06  0.00D+00 EMaxC= 1.00D-01 BMatC= 6.07D-08 BMatP= 4.19D-07
 IDIUse=1 WtCom= 1.00D+00 WtEn= 0.00D+00
 Coeff-Com: -0.847D-02 0.265D+00 0.744D+00
 Coeff:     -0.847D-02 0.265D+00 0.744D+00
 Gap=     0.403 Goal=   None    Shift=    0.000
 RMSDP=4.35D-07 MaxDP=1.42D-05 DE=-3.55D-07 OVMax= 4.56D-05

 Cycle   9  Pass 1  IDiag  1:
 RMSU=  3.06D-07    CP:  1.00D+00  1.02D+00  8.14D-01
 E= -276.303699866512     Delta-E=       -0.000000058627 Rises=F Damp=F
 DIIS: error= 1.90D-06 at cycle   4 NSaved=   4.
 NSaved= 4 IEnMin= 4 EnMin= -276.303699866512     IErMin= 4 ErrMin= 1.90D-06
 ErrMax= 1.90D-06  0.00D+00 EMaxC= 1.00D-01 BMatC= 1.45D-09 BMatP= 6.07D-08
 IDIUse=1 WtCom= 1.00D+00 WtEn= 0.00D+00
 Coeff-Com: -0.125D-01 0.650D-01 0.237D+00 0.710D+00
 Coeff:     -0.125D-01 0.650D-01 0.237D+00 0.710D+00
 Gap=     0.403 Goal=   None    Shift=    0.000
 RMSDP=7.56D-08 MaxDP=3.05D-06 DE=-5.86D-08 OVMax= 8.26D-06

 Cycle  10  Pass 1  IDiag  1:
 RMSU=  7.16D-08    CP:  1.00D+00  1.02D+00  8.16D-01  9.40D-01
 E= -276.303699867973     Delta-E=       -0.000000001462 Rises=F Damp=F
 DIIS: error= 4.46D-07 at cycle   5 NSaved=   5.
 NSaved= 5 IEnMin= 5 EnMin= -276.303699867973     IErMin= 5 ErrMin= 4.46D-07
 ErrMax= 4.46D-07  0.00D+00 EMaxC= 1.00D-01 BMatC= 7.84D-11 BMatP= 1.45D-09
 IDIUse=1 WtCom= 1.00D+00 WtEn= 0.00D+00
 Coeff-Com: -0.144D-02-0.105D-01-0.218D-01 0.122D+00 0.912D+00
 Coeff:     -0.144D-02-0.105D-01-0.218D-01 0.122D+00 0.912D+00
 Gap=     0.403 Goal=   None    Shift=    0.000
 RMSDP=2.98D-08 MaxDP=7.68D-07 DE=-1.46D-09 OVMax= 2.53D-06

 Cycle  11  Pass 1  IDiag  1:
 RMSU=  1.90D-08    CP:  1.00D+00  1.02D+00  8.18D-01  1.01D+00  1.05D+00
 E= -276.303699868061     Delta-E=       -0.000000000088 Rises=F Damp=F
 DIIS: error= 1.66D-07 at cycle   6 NSaved=   6.
 NSaved= 6 IEnMin= 6 EnMin= -276.303699868061     IErMin= 6 ErrMin= 1.66D-07
 ErrMax= 1.66D-07  0.00D+00 EMaxC= 1.00D-01 BMatC= 1.76D-11 BMatP= 7.84D-11
 IDIUse=1 WtCom= 1.00D+00 WtEn= 0.00D+00
 Coeff-Com:  0.462D-03-0.101D-01-0.298D-01-0.102D-01 0.390D+00 0.659D+00
 Coeff:      0.462D-03-0.101D-01-0.298D-01-0.102D-01 0.390D+00 0.659D+00
 Gap=     0.403 Goal=   None    Shift=    0.000
 RMSDP=7.50D-09 MaxDP=2.47D-07 DE=-8.80D-11 OVMax= 7.67D-07

 SCF Done:  E(RM062X) =  -276.303699868     A.U. after   11 cycles
            NFock= 11  Conv=0.75D-08     -V/T= 2.0065
 KE= 2.745189007355D+02 PE=-1.295295187125D+03 EE= 4.160522104242D+02
 Leave Link  502 at Sat Sep 28 00:27:22 2019, MaxMem=   671088640 cpu:            1837.2 elap:             918.7
 (Enter /shared/centos7/gaussian/g16/l801.exe)
 DoSCS=F DFT=T ScalE2(SS,OS)=  1.000000  1.000000
 Range of M.O.s used for correlation:     1   434
 NBasis=   434 NAE=    29 NBE=    29 NFC=     0 NFV=     0
 NROrb=    434 NOA=    29 NOB=    29 NVA=   405 NVB=   405

 **** Warning!!: The largest alpha MO coefficient is  0.11854716D+02

 Leave Link  801 at Sat Sep 28 00:27:23 2019, MaxMem=   671088640 cpu:               1.5 elap:               0.8
 (Enter /shared/centos7/gaussian/g16/l1101.exe)
 Using compressed storage, NAtomX=    23.
 Will process     24 centers per pass.
 Leave Link 1101 at Sat Sep 28 00:28:00 2019, MaxMem=   671088640 cpu:              74.5 elap:              37.2
 (Enter /shared/centos7/gaussian/g16/l1102.exe)
 Symmetrizing basis deriv contribution to polar:
 IMax=3 JMax=2 DiffMx= 0.00D+00
 Leave Link 1102 at Sat Sep 28 00:28:03 2019, MaxMem=   671088640 cpu:               4.9 elap:               2.5
 (Enter /shared/centos7/gaussian/g16/l1110.exe)
 Forming Gx(P) for the SCF density, NAtomX=    23.
 Integral derivatives from FoFJK, PRISM(SPDF).
 Do as many integral derivatives as possible in FoFJK.
 G2DrvN: MDV=     671086848.
 G2DrvN: will do    24 centers at a time, making    1 passes.
 Calling FoFCou, ICntrl=  3107 FMM=F I1Cent=   0 AccDes= 0.00D+00.
 FoFJK:  IHMeth= 1 ICntrl=    3107 DoSepK=F KAlg= 0 I1Cent=           0 FoldK=F
 IRaf=         0 NMat=       1 IRICut=       1 DoRegI=T DoRafI=F ISym2E= 0 IDoP0=0 IntGTp=1.
 FoFCou: FMM=F IPFlag=           0 FMFlag=      100000 FMFlg1=           0
         NFxFlg=           0 DoJE=F BraDBF=F KetDBF=F FulRan=T
         wScrn=  0.000000 ICntrl=      3107 IOpCl=  0 I1Cent=           0 NGrid=           0
         NMat0=    1 NMatS0=      1 NMatT0=    0 NMatD0=    1 NMtDS0=    0 NMtDT0=    0
 Symmetry not used in FoFCou.
 End of G2Drv F.D. properties file   721 does not exist.
 End of G2Drv F.D. properties file   722 does not exist.
 End of G2Drv F.D. properties file   788 does not exist.
 Leave Link 1110 at Sat Sep 28 01:07:56 2019, MaxMem=   671088640 cpu:            4786.1 elap:            2393.4
 (Enter /shared/centos7/gaussian/g16/l1002.exe)
 Minotr:  Closed shell wavefunction.
          IDoAtm=11111111111111111111111
          Direct CPHF calculation.
          Differentiating once with respect to nuclear coordinates.
          Requested convergence is 1.0D-08 RMS, and 1.0D-07 maximum.
          Secondary convergence is 1.0D-12 RMS, and 1.0D-12 maximum.
          NewPWx=T KeepS1=F KeepF1=F KeepIn=T MapXYZ=F SortEE=F KeepMc=T.
         6918 words used for storage of precomputed grid.
 Two-electron integrals replicated using symmetry.
          MDV=     671088640 using IRadAn=       1.
          Solving linear equations simultaneously, MaxMat=     380.
 FoF2E skips out because all densities are zero.
 CalDSu exits because no D1Ps are significant.
 FoFJK:  IHMeth= 1 ICntrl=       0 DoSepK=F KAlg= 0 I1Cent=           0 FoldK=F
 IRaf= 920000000 NMat=      69 IRICut=     172 DoRegI=T DoRafI=T ISym2E= 2 IDoP0=3 IntGTp=3.
 FoFCou: FMM=F IPFlag=           0 FMFlag=      100000 FMFlg1=           0
         NFxFlg=           0 DoJE=F BraDBF=F KetDBF=F FulRan=T
         wScrn=  0.000000 ICntrl=         0 IOpCl=  0 I1Cent=           0 NGrid=           0
         NMat0=   69 NMatS0=     69 NMatT0=    0 NMatD0=   69 NMtDS0=    0 NMtDT0=    0
 Integrals replicated using symmetry in FoFCou.
 Raff kept on since  88.46% of shell-pairs survive, threshold=   0.20 IRatSp=88.
          There are    72 degrees of freedom in the 1st order CPHF.  IDoFFX=6 NUNeed=     0.
     66 vectors produced by pass  0 Test12= 1.63D-14 1.39D-09 XBig12= 5.64D-02 4.33D-02.
 AX will form    66 AO Fock derivatives at one time.
     66 vectors produced by pass  1 Test12= 1.63D-14 1.39D-09 XBig12= 3.87D-03 7.52D-03.
     66 vectors produced by pass  2 Test12= 1.63D-14 1.39D-09 XBig12= 6.60D-05 1.34D-03.
     66 vectors produced by pass  3 Test12= 1.63D-14 1.39D-09 XBig12= 5.62D-07 9.35D-05.
     66 vectors produced by pass  4 Test12= 1.63D-14 1.39D-09 XBig12= 2.49D-09 4.79D-06.
     66 vectors produced by pass  5 Test12= 1.63D-14 1.39D-09 XBig12= 1.33D-11 3.14D-07.
     22 vectors produced by pass  6 Test12= 1.63D-14 1.39D-09 XBig12= 5.53D-14 2.03D-08.
 InvSVY:  IOpt=1 It=  1 EMax= 3.33D-16
 Solved reduced A of dimension   418 with    72 vectors.
 End of Minotr F.D. properties file   721 does not exist.
 End of Minotr F.D. properties file   722 does not exist.
 End of Minotr F.D. properties file   788 does not exist.
 Leave Link 1002 at Sat Sep 28 02:14:43 2019, MaxMem=   671088640 cpu:            8013.7 elap:            4007.4
 (Enter /shared/centos7/gaussian/g16/l601.exe)
 Copying SCF densities to generalized density rwf, IOpCl= 0 IROHF=0.

 **********************************************************************

            Population analysis using the SCF density.

 **********************************************************************

 Orbital symmetries:
       Occupied  (A) (A) (A) (A) (A) (A) (A) (A) (A) (A) (A) (A)
                 (A) (A) (A) (A) (A) (A) (A) (A) (A) (A) (A) (A)
                 (A) (A) (A) (A) (A)
       Virtual   (A) (A) (A) (A) (A) (A) (A) (A) (A) (A) (A) (A)
                 (A) (A) (A) (A) (A) (A) (A) (A) (A) (A) (A) (A)
                 (A) (A) (A) (A) (A) (A) (A) (A) (A) (A) (A) (A)
                 (A) (A) (A) (A) (A) (A) (A) (A) (A) (A) (A) (A)
                 (A) (A) (A) (A) (A) (A) (A) (A) (A) (A) (A) (A)
                 (A) (A) (A) (A) (A) (A) (A) (A) (A) (A) (A) (A)
                 (A) (A) (A) (A) (A) (A) (A) (A) (A) (A) (A) (A)
                 (A) (A) (A) (A) (A) (A) (A) (A) (A) (A) (A) (A)
                 (A) (A) (A) (A) (A) (A) (A) (A) (A) (A) (A) (A)
                 (A) (A) (A) (A) (A) (A) (A) (A) (A) (A) (A) (A)
                 (A) (A) (A) (A) (A) (A) (A) (A) (A) (A) (A) (A)
                 (A) (A) (A) (A) (A) (A) (A) (A) (A) (A) (A) (A)
                 (A) (A) (A) (A) (A) (A) (A) (A) (A) (A) (A) (A)
                 (A) (A) (A) (A) (A) (A) (A) (A) (A) (A) (A) (A)
                 (A) (A) (A) (A) (A) (A) (A) (A) (A) (A) (A) (A)
                 (A) (A) (A) (A) (A) (A) (A) (A) (A) (A) (A) (A)
                 (A) (A) (A) (A) (A) (A) (A) (A) (A) (A) (A) (A)
                 (A) (A) (A) (A) (A) (A) (A) (A) (A) (A) (A) (A)
                 (A) (A) (A) (A) (A) (A) (A) (A) (A) (A) (A) (A)
                 (A) (A) (A) (A) (A) (A) (A) (A) (A) (A) (A) (A)
                 (A) (A) (A) (A) (A) (A) (A) (A) (A) (A) (A) (A)
                 (A) (A) (A) (A) (A) (A) (A) (A) (A) (A) (A) (A)
                 (A) (A) (A) (A) (A) (A) (A) (A) (A) (A) (A) (A)
                 (A) (A) (A) (A) (A) (A) (A) (A) (A) (A) (A) (A)
                 (A) (A) (A) (A) (A) (A) (A) (A) (A) (A) (A) (A)
                 (A) (A) (A) (A) (A) (A) (A) (A) (A) (A) (A) (A)
                 (A) (A) (A) (A) (A) (A) (A) (A) (A) (A) (A) (A)
                 (A) (A) (A) (A) (A) (A) (A) (A) (A) (A) (A) (A)
                 (A) (A) (A) (A) (A) (A) (A) (A) (A) (A) (A) (A)
                 (A) (A) (A) (A) (A) (A) (A) (A) (A) (A) (A) (A)
                 (A) (A) (A) (A) (A) (A) (A) (A) (A) (A) (A) (A)
                 (A) (A) (A) (A) (A) (A) (A) (A) (A) (A) (A) (A)
                 (A) (A) (A) (A) (A) (A) (A) (A) (A) (A) (A) (A)
                 (A) (A) (A) (A) (A) (A) (A) (A) (A)
 The electronic state is 1-A.
 Alpha  occ. eigenvalues --  -10.52727 -10.52461 -10.52439 -10.52397 -10.52285
 Alpha  occ. eigenvalues --  -10.52228 -10.52169  -0.92210  -0.88144  -0.82187
 Alpha  occ. eigenvalues --   -0.77042  -0.71946  -0.64822  -0.61561  -0.55676
 Alpha  occ. eigenvalues --   -0.53245  -0.51859  -0.50050  -0.47611  -0.45715
 Alpha  occ. eigenvalues --   -0.44270  -0.43471  -0.42393  -0.40207  -0.39455
 Alpha  occ. eigenvalues --   -0.37762  -0.36863  -0.35221  -0.34446
 Alpha virt. eigenvalues --    0.05857   0.07300   0.08648   0.08895   0.10452
 Alpha virt. eigenvalues --    0.11452   0.12458   0.13438   0.14490   0.15047
 Alpha virt. eigenvalues --    0.15808   0.17345   0.18646   0.19874   0.20983
 Alpha virt. eigenvalues --    0.21593   0.22100   0.22751   0.25182   0.26236
 Alpha virt. eigenvalues --    0.27167   0.28879   0.29852   0.30729   0.31417
 Alpha virt. eigenvalues --    0.32955   0.34497   0.35251   0.36692   0.37455
 Alpha virt. eigenvalues --    0.38780   0.39596   0.41280   0.42162   0.44559
 Alpha virt. eigenvalues --    0.44964   0.45452   0.46447   0.47489   0.48192
 Alpha virt. eigenvalues --    0.48569   0.49506   0.50089   0.50593   0.50884
 Alpha virt. eigenvalues --    0.52138   0.52579   0.53167   0.53963   0.54579
 Alpha virt. eigenvalues --    0.54735   0.54927   0.55735   0.55818   0.57154
 Alpha virt. eigenvalues --    0.58327   0.58837   0.61099   0.62069   0.62458
 Alpha virt. eigenvalues --    0.63505   0.66607   0.71638   0.74350   0.78611
 Alpha virt. eigenvalues --    0.78985   0.80794   0.82961   0.84444   0.85689
 Alpha virt. eigenvalues --    0.87134   0.87743   0.88244   0.90153   0.91474
 Alpha virt. eigenvalues --    0.92803   0.95583   0.97287   0.98214   1.00400
 Alpha virt. eigenvalues --    1.01491   1.02015   1.04062   1.04679   1.05270
 Alpha virt. eigenvalues --    1.06105   1.07762   1.08911   1.10114   1.10732
 Alpha virt. eigenvalues --    1.11187   1.11957   1.12688   1.13582   1.15302
 Alpha virt. eigenvalues --    1.16121   1.17116   1.17364   1.18221   1.19718
 Alpha virt. eigenvalues --    1.20758   1.21660   1.22762   1.23490   1.24426
 Alpha virt. eigenvalues --    1.24751   1.26881   1.27101   1.27926   1.28888
 Alpha virt. eigenvalues --    1.30152   1.31137   1.31737   1.32200   1.33464
 Alpha virt. eigenvalues --    1.34110   1.35311   1.35721   1.36647   1.37439
 Alpha virt. eigenvalues --    1.39316   1.40857   1.42320   1.43182   1.45069
 Alpha virt. eigenvalues --    1.47813   1.48721   1.49585   1.50456   1.51666
 Alpha virt. eigenvalues --    1.52101   1.53885   1.54603   1.55098   1.56237
 Alpha virt. eigenvalues --    1.56778   1.59343   1.60854   1.61994   1.63230
 Alpha virt. eigenvalues --    1.66016   1.67117   1.69986   1.72134   1.74112
 Alpha virt. eigenvalues --    1.76540   1.80015   1.85525   1.87272   2.19165
 Alpha virt. eigenvalues --    2.23332   2.25604   2.27627   2.27981   2.32333
 Alpha virt. eigenvalues --    2.36322   2.37412   2.40081   2.42521   2.43431
 Alpha virt. eigenvalues --    2.45858   2.47992   2.48805   2.51625   2.54447
 Alpha virt. eigenvalues --    2.55012   2.58459   2.59556   2.59991   2.60393
 Alpha virt. eigenvalues --    2.64460   2.65131   2.66041   2.67385   2.68292
 Alpha virt. eigenvalues --    2.69644   2.70540   2.70882   2.71505   2.73255
 Alpha virt. eigenvalues --    2.74154   2.75512   2.75726   2.77040   2.78992
 Alpha virt. eigenvalues --    2.79710   2.82226   2.83680   2.84217   2.87061
 Alpha virt. eigenvalues --    2.87958   2.89474   2.91032   2.92837   2.93509
 Alpha virt. eigenvalues --    2.94572   2.95556   2.95802   2.97398   2.98269
 Alpha virt. eigenvalues --    2.99926   3.00221   3.01571   3.03214   3.03591
 Alpha virt. eigenvalues --    3.04776   3.05630   3.06676   3.08304   3.09094
 Alpha virt. eigenvalues --    3.09615   3.10785   3.11308   3.11914   3.13702
 Alpha virt. eigenvalues --    3.14910   3.14985   3.15727   3.17375   3.17548
 Alpha virt. eigenvalues --    3.18578   3.20279   3.21153   3.22376   3.23293
 Alpha virt. eigenvalues --    3.25640   3.26843   3.27708   3.28450   3.29227
 Alpha virt. eigenvalues --    3.29714   3.32472   3.34300   3.35363   3.36102
 Alpha virt. eigenvalues --    3.36929   3.37664   3.38790   3.39633   3.39923
 Alpha virt. eigenvalues --    3.41779   3.42735   3.44500   3.46603   3.48193
 Alpha virt. eigenvalues --    3.48298   3.49889   3.52272   3.53679   3.55722
 Alpha virt. eigenvalues --    3.56331   3.59038   3.59585   3.60608   3.62881
 Alpha virt. eigenvalues --    3.63363   3.65242   3.65703   3.67415   3.68249
 Alpha virt. eigenvalues --    3.69834   3.69925   3.71831   3.72386   3.73183
 Alpha virt. eigenvalues --    3.74537   3.74949   3.75769   3.76650   3.79132
 Alpha virt. eigenvalues --    3.79592   3.80718   3.83780   3.84963   3.85598
 Alpha virt. eigenvalues --    3.85827   3.87378   3.88332   3.90539   3.91389
 Alpha virt. eigenvalues --    3.91858   3.92961   3.94958   3.95636   3.96147
 Alpha virt. eigenvalues --    3.96671   3.98910   4.00475   4.00566   4.02282
 Alpha virt. eigenvalues --    4.03633   4.04133   4.04387   4.05703   4.06710
 Alpha virt. eigenvalues --    4.07662   4.08046   4.08989   4.09897   4.11135
 Alpha virt. eigenvalues --    4.12190   4.12889   4.15648   4.16592   4.16936
 Alpha virt. eigenvalues --    4.18598   4.20223   4.20867   4.21389   4.23853
 Alpha virt. eigenvalues --    4.24228   4.25711   4.27022   4.28040   4.30158
 Alpha virt. eigenvalues --    4.31894   4.33214   4.36196   4.37742   4.38939
 Alpha virt. eigenvalues --    4.39911   4.41015   4.43310   4.45578   4.46810
 Alpha virt. eigenvalues --    4.48887   4.50335   4.52163   4.53943   4.56713
 Alpha virt. eigenvalues --    4.58444   4.60061   4.61667   4.63968   4.64941
 Alpha virt. eigenvalues --    4.67602   4.67697   4.71997   4.72927   4.76803
 Alpha virt. eigenvalues --    4.78195   4.79020   4.79861   4.81319   4.83134
 Alpha virt. eigenvalues --    4.83455   4.84980   4.86874   4.89331   4.91090
 Alpha virt. eigenvalues --    4.94061   4.95426   4.96295   4.99664   5.00228
 Alpha virt. eigenvalues --    5.02214   5.03518   5.04108   5.06188   5.07395
 Alpha virt. eigenvalues --    5.10008   5.10684   5.12607   5.12880   5.14942
 Alpha virt. eigenvalues --    5.18012   5.21563   5.24104   5.26203   5.26797
 Alpha virt. eigenvalues --    5.28385   5.29097   5.29755   5.31368   5.34560
 Alpha virt. eigenvalues --    5.38951   5.40442   5.43302   5.44046   5.46004
 Alpha virt. eigenvalues --    5.49993   5.51225   5.52837   5.56928   5.59722
 Alpha virt. eigenvalues --    5.61934   5.64597   5.75227   5.77457   5.78153
 Alpha virt. eigenvalues --    5.82198   5.84490   5.85934   5.87670   5.93491
 Alpha virt. eigenvalues --    6.01349   6.04684   6.08354  11.23408  11.52916
 Alpha virt. eigenvalues --   12.75995  13.05623  13.09998  13.52876  13.96801
          Condensed to atoms (all electrons):
               1          2          3          4          5          6
     1  C    5.070820   0.322149  -0.059245   0.299141   0.005810  -0.044345
     2  C    0.322149   5.133727   0.290182  -0.040802  -0.045808  -0.013850
     3  C   -0.059245   0.290182   5.170451   0.000974   0.303767  -0.006914
     4  C    0.299141  -0.040802   0.000974   5.051380  -0.000335   0.275770
     5  C    0.005810  -0.045808   0.303767  -0.000335   5.021442  -0.000363
     6  C   -0.044345  -0.013850  -0.006914   0.275770  -0.000363   5.021840
     7  C    0.000567  -0.017882  -0.047342   0.000015   0.308804   0.000025
     8  H   -0.049024   0.005953   0.000163   0.415548  -0.000002  -0.046113
     9  H   -0.049934   0.004958  -0.000553   0.425265   0.000042  -0.046923
    10  H    0.418355  -0.047729  -0.007430  -0.051966   0.000240   0.006338
    11  H    0.421165  -0.048474   0.009780  -0.050083  -0.000489   0.005911
    12  H   -0.032390   0.410719  -0.055372  -0.003205   0.002665  -0.007148
    13  H   -0.033626   0.403479  -0.037573   0.006374  -0.007143   0.001332
    14  H   -0.000633  -0.043813   0.402397  -0.001154  -0.036988   0.000458
    15  H    0.001418  -0.054273   0.427089   0.000268  -0.050160   0.000359
    16  H   -0.000370   0.002750  -0.047925  -0.000012   0.412605   0.000068
    17  H   -0.000291   0.007301  -0.048815   0.000003   0.417923  -0.000007
    18  H   -0.009851   0.004846  -0.011953  -0.056732   0.000511   0.409424
    19  H    0.007817  -0.000835   0.000898  -0.043560  -0.000065   0.408514
    20  H    0.005894  -0.000923  -0.002640  -0.051858   0.000300   0.411426
    21  H    0.000834   0.000307  -0.008905   0.000005  -0.039312   0.000020
    22  H   -0.000143  -0.005066   0.003569  -0.000016  -0.050524  -0.000006
    23  H    0.000009   0.000904   0.007940   0.000003  -0.038162   0.000001
               7          8          9         10         11         12
     1  C    0.000567  -0.049024  -0.049934   0.418355   0.421165  -0.032390
     2  C   -0.017882   0.005953   0.004958  -0.047729  -0.048474   0.410719
     3  C   -0.047342   0.000163  -0.000553  -0.007430   0.009780  -0.055372
     4  C    0.000015   0.415548   0.425265  -0.051966  -0.050083  -0.003205
     5  C    0.308804  -0.000002   0.000042   0.000240  -0.000489   0.002665
     6  C    0.000025  -0.046113  -0.046923   0.006338   0.005911  -0.007148
     7  C    4.977695   0.000001  -0.000001  -0.000095   0.000067  -0.011997
     8  H    0.000001   0.627728  -0.040098  -0.020003   0.007834  -0.000366
     9  H   -0.000001  -0.040098   0.620936   0.007097  -0.022324   0.000724
    10  H   -0.000095  -0.020003   0.007097   0.603302  -0.036389   0.009436
    11  H    0.000067   0.007834  -0.022324  -0.036389   0.607543  -0.006768
    12  H   -0.011997  -0.000366   0.000724   0.009436  -0.006768   0.594614
    13  H    0.002714  -0.000396  -0.000410  -0.006462  -0.009522  -0.033915
    14  H    0.003853   0.000142   0.000008   0.004447  -0.000041   0.008015
    15  H    0.007045  -0.001543   0.000091  -0.000263  -0.000408  -0.003120
    16  H   -0.044910   0.000007  -0.000003  -0.000017   0.000031   0.000805
    17  H   -0.042383  -0.000001  -0.000001  -0.000050   0.000035  -0.000429
    18  H   -0.000298   0.008019   0.003566   0.000056   0.001108  -0.005024
    19  H    0.000010   0.004992  -0.020906  -0.000577  -0.000177  -0.000234
    20  H   -0.000015  -0.020015   0.008668   0.000411  -0.000666   0.000864
    21  H    0.403359   0.000001   0.000000  -0.000097   0.000176  -0.005687
    22  H    0.409242   0.000000   0.000000   0.000027   0.000012   0.001380
    23  H    0.404798  -0.000000  -0.000000   0.000003  -0.000005  -0.000088
              13         14         15         16         17         18
     1  C   -0.033626  -0.000633   0.001418  -0.000370  -0.000291  -0.009851
     2  C    0.403479  -0.043813  -0.054273   0.002750   0.007301   0.004846
     3  C   -0.037573   0.402397   0.427089  -0.047925  -0.048815  -0.011953
     4  C    0.006374  -0.001154   0.000268  -0.000012   0.000003  -0.056732
     5  C   -0.007143  -0.036988  -0.050160   0.412605   0.417923   0.000511
     6  C    0.001332   0.000458   0.000359   0.000068  -0.000007   0.409424
     7  C    0.002714   0.003853   0.007045  -0.044910  -0.042383  -0.000298
     8  H   -0.000396   0.000142  -0.001543   0.000007  -0.000001   0.008019
     9  H   -0.000410   0.000008   0.000091  -0.000003  -0.000001   0.003566
    10  H   -0.006462   0.004447  -0.000263  -0.000017  -0.000050   0.000056
    11  H   -0.009522  -0.000041  -0.000408   0.000031   0.000035   0.001108
    12  H   -0.033915   0.008015  -0.003120   0.000805  -0.000429  -0.005024
    13  H    0.570101  -0.009083   0.007762  -0.000150   0.000100  -0.000123
    14  H   -0.009083   0.584401  -0.036052   0.007677  -0.017236   0.001114
    15  H    0.007762  -0.036052   0.580022  -0.017821   0.004564  -0.011838
    16  H   -0.000150   0.007677  -0.017821   0.623188  -0.038700   0.000940
    17  H    0.000100  -0.017236   0.004564  -0.038700   0.605374  -0.000049
    18  H   -0.000123   0.001114  -0.011838   0.000940  -0.000049   0.623279
    19  H    0.000060  -0.000045   0.000996  -0.000030   0.000002  -0.031992
    20  H   -0.000086   0.000169  -0.001129   0.000040  -0.000015  -0.043330
    21  H   -0.003240  -0.000121   0.000167  -0.002969   0.007961   0.000072
    22  H   -0.001864   0.001283  -0.000508   0.009010  -0.011476   0.000021
    23  H    0.000238  -0.000430  -0.000272  -0.011003  -0.002564  -0.000001
              19         20         21         22         23
     1  C    0.007817   0.005894   0.000834  -0.000143   0.000009
     2  C   -0.000835  -0.000923   0.000307  -0.005066   0.000904
     3  C    0.000898  -0.002640  -0.008905   0.003569   0.007940
     4  C   -0.043560  -0.051858   0.000005  -0.000016   0.000003
     5  C   -0.000065   0.000300  -0.039312  -0.050524  -0.038162
     6  C    0.408514   0.411426   0.000020  -0.000006   0.000001
     7  C    0.000010  -0.000015   0.403359   0.409242   0.404798
     8  H    0.004992  -0.020015   0.000001   0.000000  -0.000000
     9  H   -0.020906   0.008668   0.000000   0.000000  -0.000000
    10  H   -0.000577   0.000411  -0.000097   0.000027   0.000003
    11  H   -0.000177  -0.000666   0.000176   0.000012  -0.000005
    12  H   -0.000234   0.000864  -0.005687   0.001380  -0.000088
    13  H    0.000060  -0.000086  -0.003240  -0.001864   0.000238
    14  H   -0.000045   0.000169  -0.000121   0.001283  -0.000430
    15  H    0.000996  -0.001129   0.000167  -0.000508  -0.000272
    16  H   -0.000030   0.000040  -0.002969   0.009010  -0.011003
    17  H    0.000002  -0.000015   0.007961  -0.011476  -0.002564
    18  H   -0.031992  -0.043330   0.000072   0.000021  -0.000001
    19  H    0.600556  -0.030687   0.000003  -0.000000  -0.000000
    20  H   -0.030687   0.604813  -0.000012   0.000001   0.000000
    21  H    0.000003  -0.000012   0.598848  -0.041104  -0.031082
    22  H   -0.000000   0.000001  -0.041104   0.604311  -0.028590
    23  H   -0.000000   0.000000  -0.031082  -0.028590   0.591205
 Mulliken charges:
               1
     1  C   -0.274126
     2  C   -0.267820
     3  C   -0.282541
     4  C   -0.175022
     5  C   -0.204757
     6  C   -0.375817
     7  C   -0.353271
     8  H    0.107172
     9  H    0.109795
    10  H    0.121365
    11  H    0.121685
    12  H    0.136521
    13  H    0.151436
    14  H    0.131634
    15  H    0.147605
    16  H    0.106789
    17  H    0.118753
    18  H    0.118235
    19  H    0.105261
    20  H    0.118789
    21  H    0.120775
    22  H    0.110443
    23  H    0.107096
 Sum of Mulliken charges =  -0.00000
 Mulliken charges with hydrogens summed into heavy atoms:
               1
     1  C   -0.031076
     2  C    0.020137
     3  C   -0.003302
     4  C    0.041946
     5  C    0.020785
     6  C   -0.033532
     7  C   -0.014958
 APT charges:
               1
     1  C   -0.816118
     2  C   -0.496295
     3  C   -0.536675
     4  C   -0.955780
     5  C   -0.834837
     6  C   -0.971672
     7  C   -1.177556
     8  H    0.403643
     9  H    0.487524
    10  H    0.364318
    11  H    0.416357
    12  H    0.284648
    13  H    0.386360
    14  H    0.370759
    15  H    0.289651
    16  H    0.336247
    17  H    0.465608
    18  H    0.075891
    19  H    0.514579
    20  H    0.335828
    21  H    0.136939
    22  H    0.357475
    23  H    0.563106
 Sum of APT charges =  -0.00000
 APT charges with hydrogens summed into heavy atoms:
               1
     1  C   -0.035443
     2  C    0.174712
     3  C    0.123735
     4  C   -0.064612
     5  C   -0.032983
     6  C   -0.045374
     7  C   -0.120035
 Electronic spatial extent (au):  <R**2>=           1170.1923
 Charge=             -0.0000 electrons
 Dipole moment (field-independent basis, Debye):
    X=             -0.0388    Y=             -0.0948    Z=              0.0461  Tot=              0.1123
 Quadrupole moment (field-independent basis, Debye-Ang):
   XX=            -49.5674   YY=            -49.3671   ZZ=            -48.7057
   XY=              0.0769   XZ=              0.6042   YZ=             -0.1196
 Traceless Quadrupole moment (field-independent basis, Debye-Ang):
   XX=             -0.3540   YY=             -0.1537   ZZ=              0.5077
   XY=              0.0769   XZ=              0.6042   YZ=             -0.1196
 Octapole moment (field-independent basis, Debye-Ang**2):
  XXX=             -0.6747  YYY=             -1.2503  ZZZ=              1.0914  XYY=              1.2781
  XXY=              0.2378  XXZ=              0.4760  XZZ=             -2.0611  YZZ=             -0.5826
  YYZ=              0.5611  XYZ=             -1.9567
 Hexadecapole moment (field-independent basis, Debye-Ang**3):
 XXXX=          -1200.2798 YYYY=           -293.7575 ZZZZ=           -182.2045 XXXY=              3.9804
 XXXZ=             10.3378 YYYX=              0.6718 YYYZ=              2.6209 ZZZX=              3.4525
 ZZZY=             -1.6325 XXYY=           -247.4816 XXZZ=           -224.8477 YYZZ=            -79.1143
 XXYZ=             -3.1415 YYXZ=             -0.1198 ZZXY=              0.2464
 N-N= 3.284203760973D+02 E-N=-1.295295137505D+03  KE= 2.745189007355D+02
  Exact polarizability:   0.000   0.000   0.000   0.000   0.000   0.000
 Approx polarizability:  98.069  -0.119  97.482   0.170  -0.308  97.594
 No NMR shielding tensors so no spin-rotation constants.
 Leave Link  601 at Sat Sep 28 02:15:11 2019, MaxMem=   671088640 cpu:              56.0 elap:              28.1
 (Enter /shared/centos7/gaussian/g16/l701.exe)
 SCFChk:  SCF convergence  7.50D-09 required  1.00D-08
 ... and contract with generalized density number  0.
 Compute integral second derivatives.
 Entering OneElI...
 Calculate overlap and kinetic energy integrals
    NBasis = 485  MinDer = 2  MaxDer = 2
 Requested accuracy = 0.1000D-12
 PrmmSu-InSpLW:  IPartL=    0 NPrtUS=   20 NPrtUL=    1 DoSpLW=F IThBeg=    0 IThEnd=   19 NThAct=   20.
 PrsmSu:  NPrtUS=  20 ThrOK=T IAlg=1 NPAlg=1 LenDen=           0 ISkipM=0 DoSpLW=F IThBeg=    0 IThEnd=   19.
 Prism:   IPart=     0 DynPar=F LinDyn=F Incr=           6.
 PRISM was handed    33201702 working-precision words and 13644 shell-pairs
 PRISM was handed    33201702 working-precision words and 13644 shell-pairs
 PRISM was handed    33201702 working-precision words and 13644 shell-pairs
 PRISM was handed    33201702 working-precision words and 13644 shell-pairs
 PRISM was handed    33201702 working-precision words and 13644 shell-pairs
 PRISM was handed    33201702 working-precision words and 13644 shell-pairs
 PRISM was handed    33201702 working-precision words and 13644 shell-pairs
 PRISM was handed    33201702 working-precision words and 13644 shell-pairs
 PRISM was handed    33201702 working-precision words and 13644 shell-pairs
 PRISM was handed    33201702 working-precision words and 13644 shell-pairs
 PRISM was handed    33201702 working-precision words and 13644 shell-pairs
 PRISM was handed    33201702 working-precision words and 13644 shell-pairs
 PRISM was handed    33201702 working-precision words and 13644 shell-pairs
 PRISM was handed    33201702 working-precision words and 13644 shell-pairs
 IPart=  1 NShTot=         714 NBatch=          79 AvBLen=         9.0
 IPart=  0 NShTot=         718 NBatch=          79 AvBLen=         9.1
 IPart=  2 NShTot=         708 NBatch=          75 AvBLen=         9.4
 PRISM was handed    33201702 working-precision words and 13644 shell-pairs
 IPart= 11 NShTot=         673 NBatch=          55 AvBLen=        12.2
 PRISM was handed    33201702 working-precision words and 13644 shell-pairs
 PRISM was handed    33201702 working-precision words and 13644 shell-pairs
 IPart=  8 NShTot=         684 NBatch=          58 AvBLen=        11.8
 PRISM was handed    33201702 working-precision words and 13644 shell-pairs
 IPart=  7 NShTot=         686 NBatch=          59 AvBLen=        11.6
 PRISM was handed    33201702 working-precision words and 13644 shell-pairs
 IPart= 12 NShTot=         671 NBatch=          53 AvBLen=        12.7
 PRISM was handed    33201702 working-precision words and 13644 shell-pairs
 IPart= 13 NShTot=         668 NBatch=          52 AvBLen=        12.8
 IPart=  4 NShTot=         704 NBatch=          72 AvBLen=         9.8
 IPart= 16 NShTot=         661 NBatch=          52 AvBLen=        12.7
 IPart= 17 NShTot=         661 NBatch=          52 AvBLen=        12.7
 IPart= 14 NShTot=         664 NBatch=          52 AvBLen=        12.8
 IPart=  9 NShTot=         679 NBatch=          57 AvBLen=        11.9
 IPart= 10 NShTot=         674 NBatch=          55 AvBLen=        12.3
 IPart=  6 NShTot=         697 NBatch=          69 AvBLen=        10.1
 IPart=  3 NShTot=         707 NBatch=          74 AvBLen=         9.6
 IPart= 19 NShTot=         657 NBatch=          49 AvBLen=        13.4
 IPart= 18 NShTot=         658 NBatch=          50 AvBLen=        13.2
 IPart= 15 NShTot=         662 NBatch=          52 AvBLen=        12.7
 IPart=  5 NShTot=         698 NBatch=          70 AvBLen=        10.0
 PrSmSu:  NxtVal=            121.
 Entering OneElI...
 Calculate potential energy integrals
    NBasis = 485  MinDer = 2  MaxDer = 2
 Requested accuracy = 0.1000D-12
 PrmmSu-InSpLW:  IPartL=    0 NPrtUS=   20 NPrtUL=    1 DoSpLW=F IThBeg=    0 IThEnd=   19 NThAct=   20.
 PrsmSu:  NPrtUS=  20 ThrOK=T IAlg=1 NPAlg=1 LenDen=           0 ISkipM=0 DoSpLW=F IThBeg=    0 IThEnd=   19.
 Prism:   IPart=     0 DynPar=F LinDyn=F Incr=         140.
 PRISM was handed    33265360 working-precision words and 12256 shell-pairs
 PRISM was handed    33265360 working-precision words and 12256 shell-pairs
 PRISM was handed    33265360 working-precision words and 12256 shell-pairs
 PRISM was handed    33265360 working-precision words and 12256 shell-pairs
 PRISM was handed    33265360 working-precision words and 12256 shell-pairs
 PRISM was handed    33265360 working-precision words and 12256 shell-pairs
 PRISM was handed    33265360 working-precision words and 12256 shell-pairs
 PRISM was handed    33265360 working-precision words and 12256 shell-pairs
 PRISM was handed    33265360 working-precision words and 12256 shell-pairs
 PRISM was handed    33265360 working-precision words and 12256 shell-pairs
 PRISM was handed    33265360 working-precision words and 12256 shell-pairs
 PRISM was handed    33265360 working-precision words and 12256 shell-pairs
 PRISM was handed    33265360 working-precision words and 12256 shell-pairs
 PRISM was handed    33265360 working-precision words and 12256 shell-pairs
 PRISM was handed    33265360 working-precision words and 12256 shell-pairs
 PRISM was handed    33265360 working-precision words and 12256 shell-pairs
 PRISM was handed    33265360 working-precision words and 12256 shell-pairs
 PRISM was handed    33265360 working-precision words and 12256 shell-pairs
 PRISM was handed    33265360 working-precision words and 12256 shell-pairs
 PRISM was handed    33265360 working-precision words and 12256 shell-pairs
 IPart=  8 NShTot=       14076 NBatch=         613 AvBLen=        23.0
 IPart= 17 NShTot=       13593 NBatch=         592 AvBLen=        23.0
 IPart= 12 NShTot=       13869 NBatch=         604 AvBLen=        23.0
 IPart=  2 NShTot=       14628 NBatch=         638 AvBLen=        22.9
 IPart= 13 NShTot=       13846 NBatch=         603 AvBLen=        23.0
 IPart= 14 NShTot=       13823 NBatch=         602 AvBLen=        23.0
 IPart= 11 NShTot=       13961 NBatch=         608 AvBLen=        23.0
 IPart=  3 NShTot=       14582 NBatch=         636 AvBLen=        22.9
 IPart=  5 NShTot=       14513 NBatch=         633 AvBLen=        22.9
 IPart=  7 NShTot=       14076 NBatch=         613 AvBLen=        23.0
 IPart= 16 NShTot=       13662 NBatch=         595 AvBLen=        23.0
 IPart=  1 NShTot=       14743 NBatch=         643 AvBLen=        22.9
 IPart=  9 NShTot=       14030 NBatch=         611 AvBLen=        23.0
 IPart= 10 NShTot=       13984 NBatch=         609 AvBLen=        23.0
 IPart=  4 NShTot=       14536 NBatch=         634 AvBLen=        22.9
 IPart= 18 NShTot=       13547 NBatch=         590 AvBLen=        23.0
 IPart=  0 NShTot=       14858 NBatch=         648 AvBLen=        22.9
 IPart= 15 NShTot=       13800 NBatch=         601 AvBLen=        23.0
 IPart= 19 NShTot=       13524 NBatch=         589 AvBLen=        23.0
 IPart=  6 NShTot=       14237 NBatch=         620 AvBLen=        23.0
 PrSmSu:  NxtVal=           2801.
 Polarizability after L701:
                1             2             3 
      1  0.000000D+00
      2  0.000000D+00  0.000000D+00
      3  0.000000D+00  0.000000D+00  0.000000D+00
 Dipole Derivatives after L701:
                 1             2             3             4             5 
      1  -0.172196D+00 -0.109446D+01  0.127835D+00 -0.211941D+00  0.361017D+00
      2  -0.261898D+00 -0.139716D+01  0.926787D-01  0.487371D+00 -0.655227D+00
      3  -0.468764D-01  0.511247D-01 -0.879001D+00  0.693752D-02  0.183418D+00
                 6             7             8             9            10 
      1   0.864809D-01  0.124536D-01  0.156909D+00 -0.362151D+00 -0.229420D+01
      2  -0.106083D+00  0.367134D+00 -0.638952D+00  0.547146D-01 -0.159778D+00
      3  -0.621716D+00  0.304887D+00 -0.705361D-02 -0.983526D+00 -0.240243D-01
                11            12            13            14            15 
      1  -0.561805D+00  0.284976D+00 -0.103072D+01 -0.108851D+01 -0.102313D+01
      2   0.170600D+00 -0.202219D+00 -0.231889D+00 -0.904281D+00  0.433478D-01
      3  -0.220375D+00 -0.743737D+00 -0.542057D+00 -0.752872D-02 -0.569512D+00
                16            17            18            19            20 
      1  -0.526889D+00  0.147210D+01 -0.374768D+00 -0.167693D+01  0.785897D+00
      2  -0.617467D-01 -0.137408D+01  0.704186D-01 -0.288766D-01 -0.891417D+00
      3   0.182148D-01  0.118534D+00 -0.101405D+01  0.752648D-01 -0.993199D-02
                21            22            23            24            25 
      1   0.102802D+01  0.569615D+00 -0.601678D-01 -0.926816D+00  0.907233D+00
      2   0.165672D+00 -0.134046D-02  0.157527D+00 -0.165365D-01  0.101875D+00
      3  -0.964320D+00 -0.158908D+00  0.171763D-01  0.483788D+00  0.202040D+00
                26            27            28            29            30 
      1   0.349553D+00  0.766064D+00  0.199770D+00  0.178444D+00 -0.445906D+00
      2   0.228247D+00  0.116833D+00  0.285155D-01  0.366264D+00 -0.501747D+00
      3   0.890391D-01  0.327093D+00 -0.587558D-01 -0.170967D+00  0.526921D+00
                31            32            33            34            35 
      1   0.330916D+00  0.379474D+00  0.383312D+00  0.182419D+00  0.180213D-01
      2   0.166308D+00  0.622761D+00  0.465063D+00 -0.116726D-01  0.120398D+00
      3   0.797051D-01  0.174206D+00  0.295394D+00 -0.372784D-01 -0.214101D+00
                36            37            38            39            40 
      1  -0.455425D-01  0.305622D+00 -0.201332D+00  0.651650D-02  0.175360D+00
      2   0.759250D-01 -0.304660D+00  0.692832D+00 -0.102436D-01 -0.106196D-01
      3   0.551125D+00 -0.250398D-01  0.494358D-01  0.160625D+00  0.815343D-01
                41            42            43            44            45 
      1  -0.102755D+00  0.258862D+00  0.167729D+00  0.159677D-01  0.991312D-02
      2   0.202778D+00 -0.138640D+00 -0.225850D+00  0.524505D+00  0.935572D-02
      3  -0.276293D+00  0.734139D+00 -0.185402D+00  0.280570D+00  0.176718D+00
                46            47            48            49            50 
      1   0.156631D+00  0.697707D+00 -0.132113D+00  0.736182D+00 -0.143241D+00
      2  -0.192411D-01  0.737994D+00 -0.113123D+00  0.868592D-01  0.113736D+00
      3  -0.228334D-01  0.599075D-01  0.114115D+00  0.288922D+00 -0.905486D-01
                51            52            53            54            55 
      1   0.770033D+00 -0.125890D+00 -0.594763D-01  0.145245D-01  0.794834D+00
      2   0.101835D+00  0.412799D+00  0.153235D+00 -0.719466D-01 -0.392392D+00
      3   0.546906D+00 -0.310161D+00 -0.108586D-01  0.200327D+00  0.328863D+00
                56            57            58            59            60 
      1  -0.280596D+00  0.760530D+00  0.127083D+00 -0.409752D+00 -0.585259D+00
      2   0.315042D+00 -0.446856D+00 -0.113018D-01  0.548005D+00  0.555888D+00
      3  -0.134614D+00  0.433860D+00 -0.340314D-01  0.120262D+00  0.332396D+00
                61            62            63            64            65 
      1  -0.289896D+00 -0.172386D+00 -0.486670D+00  0.425359D+00 -0.101988D+01
      2   0.417635D-01  0.132255D+00  0.397652D-01 -0.140378D+00  0.541172D+00
      3   0.415690D+00  0.100922D+00  0.568459D+00 -0.309096D-01  0.104789D+00
                66            67            68            69 
      1   0.302750D+00  0.123746D+01  0.779267D+00 -0.417460D+00
      2  -0.138669D+00  0.169018D+00  0.233761D+00 -0.454321D-01
      3   0.105895D+00 -0.325779D+00 -0.207113D+00  0.218102D+00
 Hessian after L701:
                1             2             3             4             5 
      1  0.147978D+02
      2  0.225746D+00  0.163210D+02
      3 -0.378568D-01  0.201947D+00  0.177887D+02
      4 -0.243456D+01  0.812787D+00 -0.722593D+00  0.148096D+02
      5  0.824216D+00 -0.618882D+01 -0.139977D+00 -0.705366D+00  0.179149D+02
      6 -0.691316D+00 -0.143851D+00 -0.624339D+01 -0.412065D+00 -0.197139D+00
      7  0.190416D+00  0.136422D+00  0.186174D+00 -0.506176D+01  0.129716D+01
      8  0.174077D+00  0.300737D-01  0.132398D+00  0.125969D+01 -0.459523D+01
      9  0.814640D-01  0.825199D-01  0.176698D-01  0.138378D+01  0.146507D+01
     10 -0.404141D+01 -0.190040D+01  0.216359D+00  0.320373D+00 -0.156440D+00
     11 -0.193506D+01 -0.419650D+01 -0.130954D+00 -0.165152D+00 -0.151521D-01
     12  0.228276D+00 -0.135457D+00 -0.580604D+01 -0.235629D-01 -0.146379D-02
     13  0.178857D+00  0.135534D+00  0.255723D-01  0.322894D+00  0.175517D+00
     14  0.138561D+00 -0.521095D-01  0.137668D-01  0.205253D+00 -0.758070D-01
     15  0.200786D-01  0.169327D-01 -0.126611D+00  0.112371D+00  0.102264D+00
     16 -0.920058D-01 -0.729990D-01  0.151966D-01  0.879280D-01 -0.244100D+00
     17 -0.495465D-01  0.290842D+00 -0.107093D+00 -0.168340D+00 -0.541922D-02
     18  0.979126D-03 -0.907696D-01 -0.130324D+00  0.269162D-02 -0.627806D-02
     19  0.116686D+00  0.281451D-01 -0.416276D-01  0.171461D+00  0.117865D+00
     20  0.644925D-01 -0.774501D-01 -0.111258D-01  0.197207D+00 -0.147821D+00
     21 -0.277903D-01 -0.900677D-02 -0.775466D-01 -0.593520D-01 -0.685264D-02
     22 -0.363357D-01  0.123054D+00  0.235510D-01  0.964416D-01 -0.338110D-01
     23  0.934586D-01  0.425266D-01 -0.246981D-01 -0.292901D-01 -0.360051D-01
     24  0.785912D-02 -0.326704D-01  0.167223D+00 -0.716341D-01  0.175259D-01
     25 -0.327380D-01  0.120819D+00 -0.184830D-01  0.119067D+00 -0.154200D-01
     26  0.103129D+00  0.760495D-01  0.418776D-01 -0.849742D-03 -0.383016D-01
     27 -0.165979D-02  0.468452D-01  0.136607D+00  0.442973D-01 -0.244482D-02
     28 -0.438417D+01  0.959958D-01 -0.188840D+00 -0.233591D-01 -0.593461D-01
     29  0.492562D-01 -0.373694D+01 -0.114093D+01 -0.732080D-01  0.991054D-01
     30 -0.976375D-01 -0.106516D+01 -0.236336D+01  0.113851D+00  0.146797D-01
     31 -0.419910D+01  0.492173D+00  0.389710D+00 -0.910735D-01 -0.105815D+00
     32  0.461035D+00 -0.283926D+01  0.115939D+01 -0.116667D+00  0.832948D-01
     33  0.350691D+00  0.111400D+01 -0.343613D+01 -0.340832D-01  0.195051D-01
     34 -0.501585D-01 -0.885097D-01  0.671232D-01 -0.483856D+01  0.372844D-01
     35 -0.447343D-01  0.372152D-01 -0.893579D-02  0.298977D-01 -0.440146D+01
     36  0.419955D-01  0.196097D-01  0.117919D+00 -0.194659D+00 -0.101621D+01
     37 -0.533849D-01 -0.357294D-01  0.151555D-01 -0.385533D+01 -0.109038D+01
     38 -0.461820D-01  0.137406D+00  0.306903D-02 -0.119007D+01 -0.268327D+01
     39  0.265645D-01 -0.829450D-03  0.532905D-01 -0.908695D-01  0.966798D-01
     40  0.119918D-01  0.950421D-02  0.327761D-01  0.901379D-01 -0.262568D-01
     41  0.457513D-02 -0.249952D-01  0.340291D-03 -0.274614D-01  0.103634D+00
     42  0.481518D-01  0.341143D-02  0.139028D-01 -0.494755D-01 -0.115249D+00
     43  0.640673D-02  0.370061D-01  0.142855D-01  0.199592D+00 -0.874338D-01
     44  0.719819D-01  0.250961D-01  0.322817D-01 -0.501341D-01 -0.446945D-01
     45  0.240119D-01  0.173883D-01 -0.296093D-01 -0.135081D-01 -0.193672D+00
     46  0.271690D-02  0.450674D-02  0.434613D-03  0.167202D-01  0.564156D-01
     47  0.181303D-01 -0.641891D-03  0.227936D-02  0.801781D-01  0.542914D-01
     48 -0.546509D-03  0.511494D-03 -0.856477D-02  0.287559D-02  0.454013D-02
     49  0.124968D-01  0.505412D-03  0.683797D-02  0.962833D-01  0.562777D-01
     50  0.391211D-02 -0.624592D-02  0.418603D-03  0.496144D-01 -0.262217D-01
[...]
 27826,0.00003458,0.00003441,-0.00339839,-0.01949294,0.00040586,0.00021
 161,0.00000084,0.00006522,-0.00098941,0.00098289,0.00064133,-0.0002316
 3,-0.00017208,0.00013216,-0.00006245,0.00001069,0.00002980,-0.00069845
 ,0.00035139,0.00010446,-0.00000604,0.00031183,-0.00001268,-0.00038910,
 0.00113138,-0.00097796,-0.00005437,0.00030594,-0.00035511,0.06461148,0
 .31243361,0.00103643,-0.00015768,0.00057845,-0.00686213,-0.02154568,-0
 .00038959,0.00201981,0.00565605,-0.04885171,-0.00001392,0.00028972,0.0
 0021107,-0.00152773,-0.00820862,-0.00059659,-0.00006039,0.00010698,0.0
 0002459,-0.00090880,-0.00118759,0.00048399,-0.00019237,0.00002051,-0.0
 0018712,-0.00002036,-0.00006568,0.00002378,-0.00001388,0.00051969,0.00
 013910,0.00028461,0.00009357,-0.00014276,-0.00359432,-0.00088389,-0.00
 199503,0.00091798,-0.00013541,0.00062847,0.00050865,-0.00383693,0.0500
 0359,0.00130238,0.00016340,0.00010571,0.00669302,0.00677369,-0.0265047
 1,-0.06294279,-0.01674911,0.06318583,-0.00115452,0.00065641,0.00065457
 ,-0.00905724,-0.00688872,0.02573598,-0.00034489,0.00022994,0.00011289,
 -0.00410423,0.00402893,0.00010371,-0.00198292,0.00080285,0.00039578,0.
 00015361,-0.00007507,0.00002062,-0.00010107,0.00004038,0.00000554,0.00
 022303,-0.00021242,0.00022675,0.00105169,-0.00010310,0.00091255,-0.004
 37459,-0.00082202,-0.00353610,-0.00277138,-0.00165158,0.00711424,0.075
 97206,-0.00001928,-0.00005239,0.00073172,0.00162558,0.00104712,-0.0061
 6275,-0.01702336,-0.06296564,0.05675911,0.00051159,0.00039055,0.000496
 48,0.00636201,0.00364261,-0.01887462,-0.00038129,0.00033474,-0.0002043
 3,0.00255190,-0.00195138,0.00008274,0.00084463,-0.00045237,-0.00046826
 ,-0.00019042,-0.00016025,-0.00009848,-0.00000540,0.00001117,0.00003908
 ,0.00008974,-0.00001496,-0.00016928,0.00065460,0.00034047,-0.00011216,
 -0.00073698,0.00072397,-0.00125983,-0.00815044,-0.00727245,0.02988425,
 0.01491043,0.06502040,0.00078880,-0.00035454,-0.00027067,0.00363977,0.
 00504229,-0.02088392,0.06329031,0.05643606,-0.27520586,0.00040048,-0.0
 0032838,-0.00057479,0.00194286,0.00198835,-0.00722688,0.00002067,-0.00
 014568,0.00024304,0.00145921,-0.00149090,0.00127738,0.00109091,0.00008
 639,0.00074290,0.00031078,0.00006578,0.00043156,-0.00003576,-0.0000401
 8,0.00003920,-0.00010101,0.00000488,0.00016293,0.00029631,-0.00024757,
 0.00059947,-0.00362027,-0.00114493,-0.00134090,0.00005528,0.00067718,-
 0.00025288,-0.06922473,-0.06008001,0.30149262,-0.00009118,0.00008054,0
 .00011355,0.00214745,0.00093124,0.00025025,0.00514300,0.02797323,-0.00
 029114,0.00006907,-0.00001369,0.00004604,-0.06397860,-0.06253697,-0.00
 052762,-0.00008551,0.00007485,-0.00003648,-0.00366045,-0.01235830,0.00
 048580,0.00001676,0.00000580,-0.00006237,-0.00000454,-0.00001695,-0.00
 002674,-0.00000149,-0.00024177,-0.00000151,-0.00000922,-0.00010381,-0.
 00000128,-0.00023081,-0.00064258,0.00001458,-0.00008893,-0.00001289,-0
 .00010193,-0.00408467,0.00347051,0.00116304,0.00097499,-0.00082937,-0.
 00015105,0.06953268,0.00021700,0.00045656,-0.00010614,-0.00139357,0.00
 066532,-0.00001105,-0.00333238,-0.01972771,-0.00055720,-0.00007441,-0.
 00007210,-0.00005411,-0.06204299,-0.28840374,0.00368511,0.00009842,-0.
 00006125,0.00003687,-0.00197941,-0.00663948,0.00067217,-0.00000723,0.0
 0002455,0.00008955,0.00003144,0.00003662,0.00000834,-0.00025518,0.0001
 9262,-0.00000496,0.00010709,0.00000944,-0.00000284,0.00095364,0.000397
 88,0.00050280,0.00010242,-0.00003032,-0.00000341,0.00336538,-0.0006291
 1,-0.00131119,0.00007855,0.00048651,-0.00035010,0.06605908,0.31570459,
 -0.00009036,0.00000746,-0.00005408,-0.00017571,0.00076818,-0.00011210,
 -0.00172609,-0.00863810,-0.00038288,-0.00001981,-0.00003276,0.00002018
 ,-0.00090063,0.00243745,-0.04768779,0.00007168,-0.00006127,-0.00001334
 ,0.00856640,0.03144828,-0.00220968,-0.00000974,-0.00000706,0.00001602,
 0.00002095,0.00001943,-0.00002362,-0.00002758,-0.00000259,-0.00003984,
 0.00001821,0.00001234,0.00000256,-0.00002879,0.00013309,0.00022690,0.0
 0005703,0.00005440,0.00002135,0.00174877,-0.00074196,0.00025630,-0.000
 41521,-0.00004723,-0.00002215,-0.00372904,-0.00376067,0.05298016,-0.00
 083194,-0.00064952,-0.00152891,-0.00307862,0.00443006,0.00345276,-0.02
 060067,-0.00466714,-0.01818683,0.00000626,0.00001022,-0.00023160,-0.17
 620876,-0.02668506,-0.12922360,0.00000583,0.00003098,0.00008615,0.0096
 5621,0.00232445,0.01139474,0.00005441,0.00000525,0.00007137,-0.0000356
 2,-0.00000577,0.00009629,-0.00002439,0.00011006,0.00001408,-0.00057339
 ,0.00034682,0.00012580,0.00036745,0.00001484,0.00026419,0.00024279,0.0
 0008905,-0.00007371,0.00094802,0.00027795,-0.00010244,0.00053987,-0.00
 078519,0.00026269,-0.00604806,-0.00147349,-0.00502876,0.19462025,0.000
 85720,0.00062821,0.00067729,0.00180048,-0.00208739,-0.00191939,0.01546
 521,0.00204896,0.01369297,-0.00001722,-0.00001005,0.00009226,-0.027676
 91,-0.05496451,-0.02593835,0.00001011,-0.00002162,-0.00000854,0.006007
 07,0.00113361,0.00633041,-0.00002397,0.00000608,-0.00004448,0.00000246
 ,-0.00000103,-0.00003362,-0.00010442,0.00002414,0.00002476,0.00034001,
 -0.00021402,-0.00007918,0.00033318,0.00035170,0.00009093,-0.00019172,-
 0.00005112,-0.00001931,-0.00067089,0.00040357,0.00050822,-0.00091573,0
 .00066742,0.00003540,-0.02251173,-0.00436169,-0.02237040,0.02702652,0.
 05554532,0.00037648,-0.00005982,0.00038049,0.00139825,-0.00104971,0.00
 020108,0.00743237,0.00143954,0.00593810,-0.00005831,0.00004585,0.00001
 972,-0.12918554,-0.02545035,-0.17364959,-0.00000154,-0.00000150,-0.000
 00367,-0.02014824,-0.00492960,-0.02399013,-0.00000311,-0.00000984,-0.0
 0002665,-0.00001792,-0.00000277,0.00000517,-0.00000487,-0.00000222,-0.
 00000110,0.00013836,-0.00007968,-0.00002824,-0.00001271,0.00000450,-0.
 00010709,0.00024600,-0.00013284,0.00017991,-0.00047273,0.00032073,0.00
 004239,-0.00018514,0.00040726,0.00086357,0.00067658,-0.00061235,0.0001
 2115,0.13674500,0.02817574,0.19262061,0.00025866,0.00022507,-0.0005921
 1,-0.00013402,-0.00030340,-0.00012521,0.00002951,0.00004549,-0.0003031
 0,-0.00496531,-0.00296317,-0.00417270,0.00003914,-0.00006642,0.0000896
 2,-0.15317518,-0.06088528,-0.11357705,-0.00005001,0.00002189,-0.000019
 08,0.00097663,-0.00146505,0.00052137,0.00044500,-0.00010435,0.00044194
 ,0.00017809,0.00017688,0.00016404,-0.00008978,-0.00026063,0.00052388,-
 0.00030958,0.00030356,-0.00001249,0.00002883,0.00010276,0.00007827,0.0
 0001270,0.00000315,0.00016448,0.00024563,0.00004962,0.00016602,0.00000
 221,0.00001351,-0.00003527,0.00002881,0.00000340,0.00000057,0.16329837
 ,0.00029049,0.00166732,-0.00150448,-0.00007478,0.00019181,0.00035124,0
 .00004827,0.00004081,-0.00002711,-0.02221203,-0.01326974,-0.02248359,0
 .00004017,0.00001461,0.00007332,-0.06073124,-0.08171504,-0.06627987,-0
 .00001506,0.00001739,-0.00000073,-0.00097568,-0.00614151,0.00198708,0.
 00062400,0.00096285,-0.00036058,0.00052924,0.00021782,-0.00007142,0.00
 028623,0.00006755,0.00099872,-0.00021510,-0.00010235,0.00008173,-0.000
 07070,0.00004194,0.00001915,0.00007195,0.00004704,-0.00010018,0.000011
 02,-0.00015835,-0.00000142,-0.00002114,0.00002307,0.00002277,0.0000074
 0,-0.00001341,-0.00000384,0.06942985,0.09129944,0.00100593,0.00022720,
 0.00139819,-0.00006218,-0.00004001,0.00018336,0.00008973,0.00020538,-0
 .00000169,0.00535753,0.00250536,0.00477574,-0.00001915,-0.00004303,-0.
 00000857,-0.11381717,-0.06654133,-0.17001217,-0.00000893,0.00001633,0.
 00000328,0.00110836,0.00187510,0.00059035,-0.00009045,-0.00068056,0.00
 005178,-0.00006913,-0.00009210,0.00014606,-0.00059275,-0.00023747,0.00
 025287,-0.00013049,-0.00016598,0.00002500,-0.00006265,-0.00004453,0.00
 001173,0.00003633,-0.00004525,-0.00001141,-0.00001375,0.00001545,0.000
 01218,0.00000244,-0.00000177,-0.00000078,-0.00001289,0.00000893,0.0000
 0093,0.12547577,0.07234422,0.18162344,0.00023562,-0.00104654,-0.000478
 98,0.00021392,0.00021223,0.00008077,0.00012599,-0.00000711,0.00002772,
 -0.00357623,0.00043298,0.00510073,0.00003808,-0.00001753,-0.00000529,-
 0.09672733,-0.00802316,0.10397254,-0.00002221,0.00001634,-0.00000047,-
 0.00025781,0.00017351,0.00003840,0.00056257,-0.00000379,-0.00046028,0.
 00016091,0.00002189,0.00043896,0.00008551,-0.00007245,0.00035101,-0.00
 011346,-0.00033615,-0.00018656,-0.00004008,-0.00020056,0.00003057,-0.0
 0003208,-0.00005695,0.00002949,0.00007875,0.00006452,0.00010393,0.0000
 3098,-0.00001663,0.00000021,-0.00004771,-0.00000605,-0.00000298,0.0098
 7382,0.00206672,-0.01929226,0.10078570,-0.00116763,-0.00681233,-0.0006
 7109,0.00045639,-0.00076540,-0.00055715,-0.00003773,0.00012823,0.00008
 159,-0.01370001,-0.00169915,0.03116349,-0.00004786,-0.00002892,-0.0000
 5301,-0.00754169,-0.04701595,0.01517815,-0.00000156,0.00000781,0.00000
 534,-0.00011508,0.00111446,-0.00071877,0.00070211,0.00145868,-0.000108
 12,-0.00074264,-0.00041911,0.00196621,0.00019083,0.00000600,-0.0000716
 2,0.00006311,0.00059226,0.00001005,-0.00000519,0.00029910,0.00000268,0
 .00008908,0.00003475,0.00003600,-0.00000718,-0.00003531,-0.00006472,-0
 .00002465,0.00003040,0.00000798,-0.00002071,0.00001851,0.00000231,0.00
 619157,-0.00011592,-0.01026509,0.00918180,0.05241288,0.00026871,0.0018
 1795,0.00114365,-0.00028800,-0.00001173,0.00024035,-0.00000725,0.00002
 974,-0.00010449,0.00139088,-0.00044151,-0.00476818,-0.00000741,0.00002
 867,0.00004135,0.10389181,0.01620683,-0.26699828,0.00000812,-0.0000212
 8,-0.00000491,0.00018184,0.00034967,0.00037605,-0.00041620,0.00023861,
 0.00018128,0.00041195,0.00005742,-0.00048224,-0.00000629,-0.00018791,0
 .00038538,-0.00016132,0.00008523,0.00007865,0.00003196,0.00003610,-0.0
 0002231,0.00002647,0.00000516,0.00002794,-0.00000447,0.00000354,0.0000
 0561,-0.00000551,-0.00000645,-0.00001706,0.00004711,-0.00000580,0.0000
 0356,0.00980749,0.00138318,-0.01893375,-0.11453939,-0.01889204,0.28784
 107,0.00004906,0.00060826,0.00007856,-0.00039878,0.00067973,0.00106531
 ,0.00002366,-0.00027919,0.00056588,0.00812995,-0.00436809,-0.00042577,
 0.00001445,0.00002693,-0.00005619,-0.23023953,0.12392309,-0.00102847,0
 .00004192,-0.00001208,0.00001928,0.00068359,0.00069090,-0.00022308,0.0
 0091808,-0.00227490,0.00061917,0.00007750,0.00007570,-0.00022705,-0.00
 000581,-0.00004815,0.00007287,-0.00049857,-0.00089215,0.00080219,-0.00
 002281,-0.00033115,-0.00009535,0.00004209,0.00002391,-0.00012048,-0.00
 003135,-0.00015541,-0.00048212,0.00006148,0.00006034,-0.00002511,0.000
 00866,0.00000531,-0.00000059,-0.01668928,0.01090975,0.00110017,-0.0113
 6756,0.00653398,-0.00063663,0.24919471,0.00058238,0.00068330,-0.000870
 00,-0.00001850,-0.00004563,0.00033000,-0.00021454,0.00008435,0.0004309
 5,0.02758571,-0.01893903,-0.00051994,-0.00010942,0.00018899,-0.0001090
 6,0.12322922,-0.12967004,0.00029451,0.00007176,-0.00007741,0.00000610,
 0.00002655,0.00140549,-0.00055251,-0.00230571,-0.00587349,0.00183293,-
 0.00015841,0.00013379,-0.00005004,-0.00007388,-0.00001614,0.00002045,-
 0.00013872,0.00057942,0.00022019,-0.00005775,0.00034634,-0.00012024,0.
 00016275,0.00011771,-0.00020689,-0.00046248,-0.00039512,-0.00029452,-0
 .00005644,-0.00003271,0.00003145,-0.00000012,-0.00000612,0.00000664,-0
 .01051985,0.00692455,0.00096656,-0.00237692,0.00079116,-0.00068322,-0.
 13517899,0.14379358,-0.00092227,0.00009662,0.00017033,0.00043251,0.000
 50879,-0.00048818,0.00011977,-0.00015194,0.00018565,-0.00607768,0.0029
 2744,-0.00063228,0.00002655,0.00004872,-0.00005838,-0.00019747,0.00014
 357,-0.04713978,0.00000137,-0.00000802,0.00000399,0.00040636,-0.000449
 74,0.00021324,0.00036383,0.00126307,0.00039741,0.00021969,-0.00017980,
 0.00007842,0.00004409,0.00005651,0.00001115,0.00080749,0.00022493,-0.0
 0159385,-0.00014976,-0.00018158,0.00007107,-0.00014270,-0.00006459,-0.
 00004994,-0.00007329,-0.00000070,0.00011558,0.00004008,-0.00005567,0.0
 0002515,-0.00006710,-0.00002456,-0.00000019,-0.01865183,0.01357371,-0.
 00010715,0.02479541,-0.01703917,0.00099000,-0.00096397,-0.00068162,0.0
 4783497,-0.00000277,-0.00004982,0.00018789,-0.00076195,0.00048322,-0.0
 0049981,0.00056995,0.00038646,-0.00049848,-0.00001841,0.00001345,0.000
 01973,0.01002385,0.00378770,0.00999070,-0.00000572,0.00001030,-0.00001
 708,-0.15724654,-0.04054521,-0.12704325,-0.00000096,0.00001051,0.00001
 345,0.00001458,0.00000171,-0.00000014,0.00002243,-0.00002654,-0.000014
 86,0.00004599,-0.00001725,0.00000094,-0.00000984,-0.00022357,-0.000051
 93,-0.00228068,0.00060838,0.00130351,-0.00006248,0.00003971,0.00003080
 ,0.00004382,-0.00012174,-0.00021421,0.00068826,0.00031559,-0.00090922,
 -0.00021288,-0.00033986,0.00319728,0.00000206,0.00000090,0.00000500,0.
 00000890,-0.00000209,-0.00000842,0.00000287,-0.00001407,0.00000618,0.1
 7093098,-0.00002168,-0.00018528,0.00019900,0.00011047,0.00044830,-0.00
 055380,-0.00043535,-0.00010906,-0.00064833,-0.00005453,0.00005035,-0.0
 0003088,0.00654012,0.00131499,0.00720175,-0.00000339,0.00001923,0.0000
 1958,-0.04022477,-0.06243053,-0.04646147,0.00000443,-0.00000329,0.0000
 1957,-0.00001697,-0.00000233,0.00003574,0.00002614,-0.00002795,-0.0000
 2890,-0.00000354,0.00001125,-0.00000462,-0.00007208,-0.00022762,0.0000
 9432,0.00063563,0.00002089,0.00007336,-0.00003311,0.00003267,-0.000021
 37,0.00015507,0.00000664,0.00005314,0.00071366,0.00037882,-0.00023705,
 -0.00082103,0.00049990,0.00214669,-0.00000182,0.00000169,-0.00000741,-
 0.00000615,-0.00000998,0.00000874,0.00000353,0.00000417,-0.00000172,0.
 04407900,0.06290879,0.00023468,-0.00017565,0.00060322,-0.00016239,0.00
 024642,-0.00054477,-0.00105703,0.00012410,0.00051548,-0.00021156,0.000
 12858,-0.00008979,-0.01997092,-0.00680824,-0.02229976,-0.00000264,0.00
 002314,0.00004298,-0.12572238,-0.04602472,-0.19083373,0.00001776,0.000
 02122,0.00004267,-0.00003741,-0.00000580,0.00010057,-0.00003212,0.0000
 5739,-0.00000284,0.00006260,-0.00003697,-0.00002524,0.00011224,0.00001
 031,-0.00007036,0.00048747,-0.00042864,0.00098855,0.00011360,-0.000005
 72,-0.00001997,0.00017546,0.00006811,0.00022112,-0.00011903,0.00021151
 ,0.00139609,0.00330470,0.00173819,-0.00473926,0.00002681,-0.00000138,-
 0.00000400,-0.00001648,-0.00000592,0.00001930,-0.00001438,-0.00001212,
 -0.00002990,0.13755707,0.04876631,0.20944250,-0.00001611,0.00001062,-0
 .00001120,-0.00014801,0.00017260,0.00002995,0.00057791,-0.00144865,-0.
 00056594,-0.00000395,0.00000911,0.00001100,-0.00378939,-0.01265760,0.0
 0107254,0.00001844,-0.00001960,-0.00001312,-0.05776233,-0.05083425,0.0
 0123533,-0.00000448,0.00000392,0.00000952,0.00001153,0.00000429,-0.000
 00359,-0.00003824,0.00006082,0.00001357,0.00001263,0.00000834,-0.00000
 088,0.00021394,0.00010000,-0.00008751,-0.00002014,-0.00010836,-0.00019
 308,-0.00006577,0.00051483,0.00021214,0.00016910,0.00023291,-0.0001348
 5,-0.00021756,-0.00049174,0.00279638,0.00027013,0.00063206,-0.00017830
 ,0.00000263,0.00000306,0.00000379,0.00000478,0.00000903,-0.00000789,-0
 .00000352,-0.00000621,-0.00000018,-0.00428352,-0.02111076,0.00186138,0
 .05831267,-0.00000283,-0.00007910,-0.00000394,-0.00022209,0.00009743,0
 .00008451,0.00062728,0.00110544,-0.00069091,-0.00002493,0.00003574,-0.
 00000233,-0.00163659,-0.00795646,0.00088780,0.00002267,-0.00001135,-0.
 00000527,-0.05100262,-0.30034451,0.01100984,0.00000541,-0.00000810,-0.
 00000861,-0.00001721,0.00000432,0.00001025,-0.00002599,0.00005232,0.00
 001900,-0.00003607,0.00001120,0.00000041,0.00009608,0.00005646,-0.0000
 3331,-0.00023531,-0.00023359,0.00009597,-0.00078151,0.00042392,0.00031
 366,0.00010747,0.00032571,-0.00001364,0.00007096,0.00126008,0.00161597
 ,0.00019046,0.00020631,0.00040616,0.00000235,0.00000016,-0.00000178,-0
 .00000537,0.00000595,0.00000488,-0.00000475,0.00000753,-0.00000903,-0.
 00073237,-0.00647642,0.00006959,0.05715820,0.32654110,0.00004903,-0.00
 002311,0.00005876,0.00008844,-0.00009766,0.00006754,-0.00102109,0.0010
 1611,0.00171484,0.00001078,0.00001986,0.00001471,0.00734921,0.03127721
 ,-0.00206417,-0.00002598,0.00001342,-0.00000758,0.00136404,0.01045717,
 -0.04701884,-0.00000172,-0.00000519,-0.00001342,-0.00000704,-0.0000083
 5,0.00000296,0.00001447,0.00000018,0.00001190,0.00000900,-0.00001005,-
 0.00000573,-0.00012234,-0.00001490,-0.00014597,0.00005737,-0.00004765,
 -0.00005391,0.00010570,-0.00092104,0.00001443,-0.00046548,-0.00017553,
 0.00013369,0.00266766,0.00128637,-0.00552805,-0.00077902,-0.00023229,0
 .00104953,0.00000364,-0.00000634,0.00000089,0.00000301,-0.00000284,0.0
 0000177,-0.00000646,0.00000382,0.00000567,-0.00312907,-0.02394928,0.00
 125364,-0.00461472,-0.01409641,0.05153632,0.00007248,-0.00015394,0.000
 19634,0.00033961,0.00024972,-0.00009206,0.00038753,-0.00162833,0.00216
 189,-0.00008254,0.00010456,-0.00002134,-0.00937836,0.00560618,0.000402
 89,0.00001194,0.00000898,0.00001633,-0.24246764,0.11552810,0.03558418,
 0.00000724,-0.00003207,-0.00003750,-0.00006548,-0.00001146,0.00003987,
 0.00000123,0.00002484,0.00000931,-0.00004513,0.00000775,-0.00001517,-0
 .00004170,-0.00006396,0.00001867,0.00011825,-0.00015799,0.00032161,0.0
 0007817,0.00007972,-0.00006486,-0.00058296,0.00050134,0.00013596,-0.00
 016585,-0.00033543,-0.00015830,0.00091338,-0.00002451,0.00006110,-0.00
 000892,-0.00000332,-0.00001324,-0.00002105,-0.00000388,0.00002245,0.00
 000918,0.00003366,-0.00001710,-0.01746795,0.01053711,0.00339257,0.0067
 5926,-0.00355323,-0.00154941,0.26162931,-0.00000566,-0.00004488,0.0000
 3524,-0.00006572,0.00018405,0.00010233,-0.00043179,-0.00013354,0.00111
 277,-0.00002554,0.00003063,0.00001337,-0.00867911,0.00416255,0.0013207
 1,-0.00000460,0.00000643,-0.00000978,0.11587835,-0.11581020,-0.0213363
 8,-0.00000795,-0.00000350,-0.00001063,-0.00000681,-0.00000659,-0.00000
 163,-0.00001382,0.00002809,0.00000786,0.00000314,0.00000587,-0.0000039
 7,0.00005055,0.00000299,-0.00004010,-0.00007728,-0.00013952,0.00000875
 ,-0.00016620,0.00044620,0.00023246,-0.00007072,0.00046091,0.00016714,-
 0.00000957,0.00029165,-0.00065970,0.00024399,0.00019724,-0.00062089,0.
 00000087,-0.00000174,0.00000180,0.00000536,0.00000188,-0.00000579,0.00
 000345,-0.00000470,0.00000478,-0.00766444,0.00377479,0.00204029,0.0277
 5736,-0.01502413,-0.00448351,-0.12671385,0.12157556,0.00011806,-0.0000
 5506,0.00030381,-0.00060994,0.00018900,-0.00079114,0.00104190,0.003068
 82,-0.00576165,-0.00008987,0.00000036,-0.00006559,0.02631428,-0.017144
 79,-0.00480028,-0.00000741,0.00001043,0.00002813,0.03444213,-0.0206178
 8,-0.05216937,0.00001337,0.00005697,0.00009038,0.00003841,0.00000710,0
 .00005826,-0.00001317,-0.00000191,-0.00001871,0.00008882,-0.00003544,0
 .00000261,0.00005219,-0.00000770,0.00006742,0.00000954,-0.00017772,0.0
 0057362,-0.00029771,0.00013951,0.00006288,0.00167323,-0.00083455,-0.00
 056280,-0.00040630,0.00034517,0.00102551,-0.00063001,-0.00069918,0.001
 11971,0.00002494,0.00000584,0.00000372,0.00000992,-0.00000426,-0.00000
 470,-0.00001777,-0.00004344,-0.00000300,-0.01992608,0.01332664,0.00403
 348,-0.00143434,0.00034720,-0.00102896,-0.04039419,0.02212488,0.057836
 68\\-0.00000016,-0.00000064,-0.00000076,-0.00000023,-0.00000070,0.,-0.
 00000009,0.00000038,-0.00000028,0.,0.00000067,-0.00000082,0.00000018,0
 .00000010,0.00000030,0.00000024,0.00000092,0.00000077,-0.00000004,-0.0
 0000099,0.00000017,-0.00000012,0.00000145,-0.00000094,-0.00000025,0.00
 000063,-0.00000108,-0.00000035,-0.00000067,-0.00000176,-0.00000013,-0.
 00000138,-0.00000050,0.00000021,-0.00000063,0.00000101,-0.00000011,-0.
 00000163,-0.00000024,-0.00000020,0.00000048,-0.00000121,0.00000002,0.0
 0000128,-0.00000008,0.00000030,0.00000028,0.00000149,0.00000016,0.0000
 0113,0.00000030,0.00000020,0.00000009,0.00000117,0.00000020,0.00000176
 ,0.00000093,0.00000025,0.00000107,0.00000135,0.00000001,-0.00000180,0.
 00000040,-0.00000017,-0.00000087,-0.00000085,0.00000008,-0.00000095,0.
 00000063\\\@


 The impersonal hand of government can
 never replace the helping hand of a neighbor.
                        -- Hubert H. Humphrey
 Job cpu time:       0 days  7 hours  9 minutes 35.5 seconds.
 Elapsed time:       0 days  3 hours 34 minutes 51.3 seconds.
 File lengths (MBytes):  RWF=   1488 Int=      0 D2E=      0 Chk=     32 Scr=     32
 Normal termination of Gaussian 16 at Sat Sep 28 15:06:12 2019.
