 Entering Gaussian System, Link 0=g16
 Input=med/species/CCCCCCC/conformers/CCCCCCC_341.com
 Output=med/species/CCCCCCC/conformers/CCCCCCC_341.log
 Initial command:
 /shared/centos7/gaussian/g16/l1.exe "/scratch/harms.n/gauss_scrdir/Gau-40242.inp" -scrdir="/scratch/harms.n/gauss_scrdir/"
 Entering Link 1 = /shared/centos7/gaussian/g16/l1.exe PID=     40243.
  
 Copyright (c) 1988,1990,1992,1993,1995,1998,2003,2009,2016,
            Gaussian, Inc.  All Rights Reserved.
  
 This is part of the Gaussian(R) 16 program.  It is based on
 the Gaussian(R) 09 system (copyright 2009, Gaussian, Inc.),
 the Gaussian(R) 03 system (copyright 2003, Gaussian, Inc.),
 the Gaussian(R) 98 system (copyright 1998, Gaussian, Inc.),
 the Gaussian(R) 94 system (copyright 1995, Gaussian, Inc.),
 the Gaussian 92(TM) system (copyright 1992, Gaussian, Inc.),
 the Gaussian 90(TM) system (copyright 1990, Gaussian, Inc.),
 the Gaussian 88(TM) system (copyright 1988, Gaussian, Inc.),
 the Gaussian 86(TM) system (copyright 1986, Carnegie Mellon
 University), and the Gaussian 82(TM) system (copyright 1983,
 Carnegie Mellon University). Gaussian is a federally registered
 trademark of Gaussian, Inc.
  
 This software contains proprietary and confidential information,
 including trade secrets, belonging to Gaussian, Inc.
  
 This software is provided under written license and may be
 used, copied, transmitted, or stored only in accord with that
 written license.
  
 The following legend is applicable only to US Government
 contracts under FAR:
  
                    RESTRICTED RIGHTS LEGEND
  
 Use, reproduction and disclosure by the US Government is
 subject to restrictions as set forth in subparagraphs (a)
 and (c) of the Commercial Computer Software - Restricted
 Rights clause in FAR 52.227-19.
  
 Gaussian, Inc.
 340 Quinnipiac St., Bldg. 40, Wallingford CT 06492
  
  
 ---------------------------------------------------------------
 Warning -- This program may not be used in any manner that
 competes with the business of Gaussian, Inc. or will provide
 assistance to any competitor of Gaussian, Inc.  The licensee
 of this program is prohibited from giving any competitor of
 Gaussian, Inc. access to this program.  By using this program,
 the user acknowledges that Gaussian, Inc. is engaged in the
 business of creating and licensing software in the field of
 computational chemistry and represents and warrants to the
 licensee that it is not a competitor of Gaussian, Inc. and that
 it will not use this program in any manner prohibited above.
 ---------------------------------------------------------------
  

 Cite this work as:
 Gaussian 16, Revision A.03,
 M. J. Frisch, G. W. Trucks, H. B. Schlegel, G. E. Scuseria, 
 M. A. Robb, J. R. Cheeseman, G. Scalmani, V. Barone, 
 G. A. Petersson, H. Nakatsuji, X. Li, M. Caricato, A. V. Marenich, 
 J. Bloino, B. G. Janesko, R. Gomperts, B. Mennucci, H. P. Hratchian, 
 J. V. Ortiz, A. F. Izmaylov, J. L. Sonnenberg, D. Williams-Young, 
 F. Ding, F. Lipparini, F. Egidi, J. Goings, B. Peng, A. Petrone, 
 T. Henderson, D. Ranasinghe, V. G. Zakrzewski, J. Gao, N. Rega, 
 G. Zheng, W. Liang, M. Hada, M. Ehara, K. Toyota, R. Fukuda, 
 J. Hasegawa, M. Ishida, T. Nakajima, Y. Honda, O. Kitao, H. Nakai, 
 T. Vreven, K. Throssell, J. A. Montgomery, Jr., J. E. Peralta, 
 F. Ogliaro, M. J. Bearpark, J. J. Heyd, E. N. Brothers, K. N. Kudin, 
 V. N. Staroverov, T. A. Keith, R. Kobayashi, J. Normand, 
 K. Raghavachari, A. P. Rendell, J. C. Burant, S. S. Iyengar, 
 J. Tomasi, M. Cossi, J. M. Millam, M. Klene, C. Adamo, R. Cammi, 
 J. W. Ochterski, R. L. Martin, K. Morokuma, O. Farkas, 
 J. B. Foresman, and D. J. Fox, Gaussian, Inc., Wallingford CT, 2016.
 
 ******************************************
 Gaussian 16:  EM64L-G16RevA.03 25-Dec-2016
                29-Sep-2019 
 ******************************************
 %nprocshared=20
 Will use up to   20 processors via shared memory.
 %mem=5GB
 ----------------------------------------------------------------------
 #p m062x/cc-pVTZ opt=(calcfc,maxcycles=900,Tight) freq IOP(7/33=1,2/16
 =3) scf=(maxcycle=900)
 ----------------------------------------------------------------------
 1/6=900,7=10,10=4,18=20,19=15,26=3,38=1/1,3;
 2/9=110,12=2,16=3,17=6,18=5,40=1/2;
 3/5=16,6=1,11=2,25=1,30=1,71=2,74=-55,140=1/1,2,3;
 4//1;
 5/5=2,7=900,38=5/2;
 8/6=4,10=90,11=11/1;
 11/6=1,8=1,9=11,15=111,16=1/1,2,10;
 10/6=1,13=1/2;
 6/7=2,8=2,9=2,10=2,28=1/1;
 7/10=1,18=20,25=1,33=1/1,2,3,16;
 1/6=900,7=10,10=4,18=20,19=15,26=3/3(2);
 2/9=110,16=3/2;
 99//99;
 2/9=110,16=3/2;
 3/5=16,6=1,11=2,25=1,30=1,71=1,74=-55/1,2,3;
 4/5=5,16=3,69=1/1;
 5/5=2,7=900,38=5/2;
 7/33=1/1,2,3,16;
 1/6=900,7=10,18=20,19=15,26=3/3(-5);
 2/9=110,16=3/2;
 6/7=2,8=2,9=2,10=2,19=2,28=1/1;
 99/9=1/99;
 Leave Link    1 at Sun Sep 29 05:56:55 2019, MaxMem=   671088640 cpu:               4.7 elap:               2.4
 (Enter /shared/centos7/gaussian/g16/l101.exe)
 ------------------------------
 Gaussian input prepared by ASE
 ------------------------------
 Symbolic Z-matrix:
 Charge =  0 Multiplicity = 1
 C                     1.03605  -0.9585    0.84424 
 C                    -0.21478  -0.42728   0.23171 
 C                    -0.16107   0.97462  -0.32216 
 C                     2.32449  -0.35647   0.39422 
 C                     0.44399   1.07899  -1.70228 
 C                     2.82198  -0.7958   -0.92072 
 C                     0.15605  -0.08012  -2.62068 
 H                     3.10011  -0.58413   1.17889 
 H                     2.23143   0.75575   0.40268 
 H                     1.07037  -2.05741   0.68675 
 H                     0.97647  -0.83579   1.94516 
 H                    -1.02138  -0.47526   0.9799 
 H                    -0.54599  -1.10284  -0.58509 
 H                     0.39253   1.63694   0.36484 
 H                    -1.19662   1.37136  -0.35903 
 H                     0.07775   2.02633  -2.17762 
 H                     1.53986   1.1736   -1.61635 
 H                     2.28213  -1.68286  -1.30226 
 H                     2.70719   0.02164  -1.69283 
 H                     3.90174  -1.05034  -0.86769 
 H                    -0.91105  -0.21677  -2.80011 
 H                     0.56413  -1.03857  -2.19559 
 H                     0.66169   0.10053  -3.61244 
 
 ITRead=  0  0  0  0  0  0  0  0  0  0  0  0  0  0  0  0  0  0  0  0
 ITRead=  0  0  0
 MicOpt= -1 -1 -1 -1 -1 -1 -1 -1 -1 -1 -1 -1 -1 -1 -1 -1 -1 -1 -1 -1
 MicOpt= -1 -1 -1
 NAtoms=     23 NQM=       23 NQMF=       0 NMMI=      0 NMMIF=      0
                NMic=       0 NMicF=      0.
                    Isotopes and Nuclear Properties:
 (Nuclear quadrupole moments (NQMom) in fm**2, nuclear magnetic moments (NMagM)
  in nuclear magnetons)

  Atom         1           2           3           4           5           6           7           8           9          10
 IAtWgt=          12          12          12          12          12          12          12           1           1           1
 AtmWgt=  12.0000000  12.0000000  12.0000000  12.0000000  12.0000000  12.0000000  12.0000000   1.0078250   1.0078250   1.0078250
 NucSpn=           0           0           0           0           0           0           0           1           1           1
 AtZEff=  -0.0000000  -0.0000000  -0.0000000  -0.0000000  -0.0000000  -0.0000000  -0.0000000  -0.0000000  -0.0000000  -0.0000000
 NQMom=    0.0000000   0.0000000   0.0000000   0.0000000   0.0000000   0.0000000   0.0000000   0.0000000   0.0000000   0.0000000
 NMagM=    0.0000000   0.0000000   0.0000000   0.0000000   0.0000000   0.0000000   0.0000000   2.7928460   2.7928460   2.7928460
 AtZNuc=   6.0000000   6.0000000   6.0000000   6.0000000   6.0000000   6.0000000   6.0000000   1.0000000   1.0000000   1.0000000

  Atom        11          12          13          14          15          16          17          18          19          20
 IAtWgt=           1           1           1           1           1           1           1           1           1           1
 AtmWgt=   1.0078250   1.0078250   1.0078250   1.0078250   1.0078250   1.0078250   1.0078250   1.0078250   1.0078250   1.0078250
 NucSpn=           1           1           1           1           1           1           1           1           1           1
 AtZEff=  -0.0000000  -0.0000000  -0.0000000  -0.0000000  -0.0000000  -0.0000000  -0.0000000  -0.0000000  -0.0000000  -0.0000000
 NQMom=    0.0000000   0.0000000   0.0000000   0.0000000   0.0000000   0.0000000   0.0000000   0.0000000   0.0000000   0.0000000
 NMagM=    2.7928460   2.7928460   2.7928460   2.7928460   2.7928460   2.7928460   2.7928460   2.7928460   2.7928460   2.7928460
 AtZNuc=   1.0000000   1.0000000   1.0000000   1.0000000   1.0000000   1.0000000   1.0000000   1.0000000   1.0000000   1.0000000

  Atom        21          22          23
 IAtWgt=           1           1           1
 AtmWgt=   1.0078250   1.0078250   1.0078250
 NucSpn=           1           1           1
 AtZEff=  -0.0000000  -0.0000000  -0.0000000
 NQMom=    0.0000000   0.0000000   0.0000000
 NMagM=    2.7928460   2.7928460   2.7928460
 AtZNuc=   1.0000000   1.0000000   1.0000000
 Leave Link  101 at Sun Sep 29 05:56:57 2019, MaxMem=   671088640 cpu:               2.6 elap:               1.3
 (Enter /shared/centos7/gaussian/g16/l103.exe)

 GradGradGradGradGradGradGradGradGradGradGradGradGradGradGradGradGradGrad
 Berny optimization.
 Initialization pass.
                           ----------------------------
                           !    Initial Parameters    !
                           ! (Angstroms and Degrees)  !
 --------------------------                            --------------------------
 ! Name  Definition              Value          Derivative Info.                !
 --------------------------------------------------------------------------------
 ! R1    R(1,2)                  1.4906         calculate D2E/DX2 analytically  !
 ! R2    R(1,4)                  1.4917         calculate D2E/DX2 analytically  !
 ! R3    R(1,10)                 1.1107         calculate D2E/DX2 analytically  !
 ! R4    R(1,11)                 1.1093         calculate D2E/DX2 analytically  !
 ! R5    R(2,3)                  1.5083         calculate D2E/DX2 analytically  !
 ! R6    R(2,12)                 1.1012         calculate D2E/DX2 analytically  !
 ! R7    R(2,13)                 1.1105         calculate D2E/DX2 analytically  !
 ! R8    R(3,5)                  1.5105         calculate D2E/DX2 analytically  !
 ! R9    R(3,14)                 1.1032         calculate D2E/DX2 analytically  !
 ! R10   R(3,15)                 1.1096         calculate D2E/DX2 analytically  !
 ! R11   R(4,6)                  1.473          calculate D2E/DX2 analytically  !
 ! R12   R(4,8)                  1.1266         calculate D2E/DX2 analytically  !
 ! R13   R(4,9)                  1.1161         calculate D2E/DX2 analytically  !
 ! R14   R(5,7)                  1.5066         calculate D2E/DX2 analytically  !
 ! R15   R(5,16)                 1.1214         calculate D2E/DX2 analytically  !
 ! R16   R(5,17)                 1.1033         calculate D2E/DX2 analytically  !
 ! R17   R(6,18)                 1.1063         calculate D2E/DX2 analytically  !
 ! R18   R(6,19)                 1.1303         calculate D2E/DX2 analytically  !
 ! R19   R(6,20)                 1.1106         calculate D2E/DX2 analytically  !
 ! R20   R(7,21)                 1.0907         calculate D2E/DX2 analytically  !
 ! R21   R(7,22)                 1.1251         calculate D2E/DX2 analytically  !
 ! R22   R(7,23)                 1.1278         calculate D2E/DX2 analytically  !
 ! A1    A(2,1,4)              117.1941         calculate D2E/DX2 analytically  !
 ! A2    A(2,1,10)             108.6788         calculate D2E/DX2 analytically  !
 ! A3    A(2,1,11)             108.863          calculate D2E/DX2 analytically  !
 ! A4    A(4,1,10)             109.2604         calculate D2E/DX2 analytically  !
 ! A5    A(4,1,11)             107.5269         calculate D2E/DX2 analytically  !
 ! A6    A(10,1,11)            104.5856         calculate D2E/DX2 analytically  !
 ! A7    A(1,2,3)              116.8881         calculate D2E/DX2 analytically  !
 ! A8    A(1,2,12)             108.6583         calculate D2E/DX2 analytically  !
 ! A9    A(1,2,13)             109.6163         calculate D2E/DX2 analytically  !
 ! A10   A(3,2,12)             108.4253         calculate D2E/DX2 analytically  !
 ! A11   A(3,2,13)             107.8144         calculate D2E/DX2 analytically  !
 ! A12   A(12,2,13)            104.7592         calculate D2E/DX2 analytically  !
 ! A13   A(2,3,5)              114.4565         calculate D2E/DX2 analytically  !
 ! A14   A(2,3,14)             110.3155         calculate D2E/DX2 analytically  !
 ! A15   A(2,3,15)             108.1383         calculate D2E/DX2 analytically  !
 ! A16   A(5,3,14)             109.0546         calculate D2E/DX2 analytically  !
 ! A17   A(5,3,15)             108.5888         calculate D2E/DX2 analytically  !
 ! A18   A(14,3,15)            105.9235         calculate D2E/DX2 analytically  !
 ! A19   A(1,4,6)              116.1476         calculate D2E/DX2 analytically  !
 ! A20   A(1,4,8)              107.6374         calculate D2E/DX2 analytically  !
 ! A21   A(1,4,9)              109.1403         calculate D2E/DX2 analytically  !
 ! A22   A(6,4,8)              109.2076         calculate D2E/DX2 analytically  !
 ! A23   A(6,4,9)              109.3994         calculate D2E/DX2 analytically  !
 ! A24   A(8,4,9)              104.6843         calculate D2E/DX2 analytically  !
 ! A25   A(3,5,7)              115.292          calculate D2E/DX2 analytically  !
 ! A26   A(3,5,16)             108.3513         calculate D2E/DX2 analytically  !
 ! A27   A(3,5,17)             109.4286         calculate D2E/DX2 analytically  !
 ! A28   A(7,5,16)             109.2154         calculate D2E/DX2 analytically  !
 ! A29   A(7,5,17)             107.6545         calculate D2E/DX2 analytically  !
 ! A30   A(16,5,17)            106.5568         calculate D2E/DX2 analytically  !
 ! A31   A(4,6,18)             112.4714         calculate D2E/DX2 analytically  !
 ! A32   A(4,6,19)             111.0889         calculate D2E/DX2 analytically  !
 ! A33   A(4,6,20)             110.7382         calculate D2E/DX2 analytically  !
 ! A34   A(18,6,19)            107.1427         calculate D2E/DX2 analytically  !
 ! A35   A(18,6,20)            107.8857         calculate D2E/DX2 analytically  !
 ! A36   A(19,6,20)            107.284          calculate D2E/DX2 analytically  !
 ! A37   A(5,7,21)             112.5604         calculate D2E/DX2 analytically  !
 ! A38   A(5,7,22)             110.8394         calculate D2E/DX2 analytically  !
 ! A39   A(5,7,23)             109.0949         calculate D2E/DX2 analytically  !
 ! A40   A(21,7,22)            108.0767         calculate D2E/DX2 analytically  !
 ! A41   A(21,7,23)            108.3043         calculate D2E/DX2 analytically  !
 ! A42   A(22,7,23)            107.8239         calculate D2E/DX2 analytically  !
 ! D1    D(4,1,2,3)            -24.2411         calculate D2E/DX2 analytically  !
 ! D2    D(4,1,2,12)          -147.2835         calculate D2E/DX2 analytically  !
 ! D3    D(4,1,2,13)            98.775          calculate D2E/DX2 analytically  !
 ! D4    D(10,1,2,3)          -148.6555         calculate D2E/DX2 analytically  !
 ! D5    D(10,1,2,12)           88.302          calculate D2E/DX2 analytically  !
 ! D6    D(10,1,2,13)          -25.6395         calculate D2E/DX2 analytically  !
 ! D7    D(11,1,2,3)            97.9901         calculate D2E/DX2 analytically  !
 ! D8    D(11,1,2,12)          -25.0523         calculate D2E/DX2 analytically  !
 ! D9    D(11,1,2,13)         -138.9939         calculate D2E/DX2 analytically  !
 ! D10   D(2,1,4,6)            -77.0802         calculate D2E/DX2 analytically  !
 ! D11   D(2,1,4,8)            160.1911         calculate D2E/DX2 analytically  !
 ! D12   D(2,1,4,9)             47.1178         calculate D2E/DX2 analytically  !
 ! D13   D(10,1,4,6)            47.0407         calculate D2E/DX2 analytically  !
 ! D14   D(10,1,4,8)           -75.6879         calculate D2E/DX2 analytically  !
 ! D15   D(10,1,4,9)           171.2388         calculate D2E/DX2 analytically  !
 ! D16   D(11,1,4,6)           160.0012         calculate D2E/DX2 analytically  !
 ! D17   D(11,1,4,8)            37.2725         calculate D2E/DX2 analytically  !
 ! D18   D(11,1,4,9)           -75.8007         calculate D2E/DX2 analytically  !
 ! D19   D(1,2,3,5)             81.2653         calculate D2E/DX2 analytically  !
 ! D20   D(1,2,3,14)           -42.1578         calculate D2E/DX2 analytically  !
 ! D21   D(1,2,3,15)          -157.5702         calculate D2E/DX2 analytically  !
 ! D22   D(12,2,3,5)          -155.5725         calculate D2E/DX2 analytically  !
 ! D23   D(12,2,3,14)           81.0045         calculate D2E/DX2 analytically  !
 ! D24   D(12,2,3,15)          -34.4079         calculate D2E/DX2 analytically  !
 ! D25   D(13,2,3,5)           -42.6739         calculate D2E/DX2 analytically  !
 ! D26   D(13,2,3,14)         -166.097          calculate D2E/DX2 analytically  !
 ! D27   D(13,2,3,15)           78.4906         calculate D2E/DX2 analytically  !
 ! D28   D(2,3,5,7)             34.9121         calculate D2E/DX2 analytically  !
 ! D29   D(2,3,5,16)           157.6136         calculate D2E/DX2 analytically  !
 ! D30   D(2,3,5,17)           -86.578          calculate D2E/DX2 analytically  !
 ! D31   D(14,3,5,7)           159.01           calculate D2E/DX2 analytically  !
 ! D32   D(14,3,5,16)          -78.2885         calculate D2E/DX2 analytically  !
 ! D33   D(14,3,5,17)           37.5199         calculate D2E/DX2 analytically  !
 ! D34   D(15,3,5,7)           -86.004          calculate D2E/DX2 analytically  !
 ! D35   D(15,3,5,16)           36.6975         calculate D2E/DX2 analytically  !
 ! D36   D(15,3,5,17)          152.5059         calculate D2E/DX2 analytically  !
 ! D37   D(1,4,6,18)           -12.6031         calculate D2E/DX2 analytically  !
 ! D38   D(1,4,6,19)           107.4885         calculate D2E/DX2 analytically  !
 ! D39   D(1,4,6,20)          -133.3997         calculate D2E/DX2 analytically  !
 ! D40   D(8,4,6,18)           109.2987         calculate D2E/DX2 analytically  !
 ! D41   D(8,4,6,19)          -130.6097         calculate D2E/DX2 analytically  !
 ! D42   D(8,4,6,20)           -11.4979         calculate D2E/DX2 analytically  !
 ! D43   D(9,4,6,18)          -136.6676         calculate D2E/DX2 analytically  !
 ! D44   D(9,4,6,19)           -16.5759         calculate D2E/DX2 analytically  !
 ! D45   D(9,4,6,20)           102.5358         calculate D2E/DX2 analytically  !
 ! D46   D(3,5,7,21)            60.262          calculate D2E/DX2 analytically  !
 ! D47   D(3,5,7,22)           -60.9136         calculate D2E/DX2 analytically  !
 ! D48   D(3,5,7,23)          -179.4921         calculate D2E/DX2 analytically  !
 ! D49   D(16,5,7,21)          -61.9776         calculate D2E/DX2 analytically  !
 ! D50   D(16,5,7,22)          176.8468         calculate D2E/DX2 analytically  !
 ! D51   D(16,5,7,23)           58.2683         calculate D2E/DX2 analytically  !
 ! D52   D(17,5,7,21)         -177.2943         calculate D2E/DX2 analytically  !
 ! D53   D(17,5,7,22)           61.5301         calculate D2E/DX2 analytically  !
 ! D54   D(17,5,7,23)          -57.0484         calculate D2E/DX2 analytically  !
 --------------------------------------------------------------------------------
 Trust Radius=3.00D-01 FncErr=1.00D-07 GrdErr=1.00D-06 EigMax=2.50D+02 EigMin=1.00D-04
 Number of steps in this run=    138 maximum allowed number of steps=    138.
 GradGradGradGradGradGradGradGradGradGradGradGradGradGradGradGradGradGrad

 Leave Link  103 at Sun Sep 29 05:56:57 2019, MaxMem=   671088640 cpu:               1.3 elap:               0.7
 (Enter /shared/centos7/gaussian/g16/l202.exe)
                          Input orientation:                          
 ---------------------------------------------------------------------
 Center     Atomic      Atomic             Coordinates (Angstroms)
 Number     Number       Type             X           Y           Z
 ---------------------------------------------------------------------
      1          6           0        1.036054   -0.958503    0.844238
      2          6           0       -0.214778   -0.427283    0.231714
      3          6           0       -0.161069    0.974615   -0.322163
      4          6           0        2.324488   -0.356467    0.394218
      5          6           0        0.443990    1.078994   -1.702275
      6          6           0        2.821981   -0.795800   -0.920725
      7          6           0        0.156049   -0.080120   -2.620682
      8          1           0        3.100110   -0.584125    1.178894
      9          1           0        2.231431    0.755748    0.402684
     10          1           0        1.070372   -2.057410    0.686749
     11          1           0        0.976468   -0.835792    1.945163
     12          1           0       -1.021379   -0.475260    0.979896
     13          1           0       -0.545994   -1.102840   -0.585093
     14          1           0        0.392534    1.636938    0.364842
     15          1           0       -1.196625    1.371364   -0.359032
     16          1           0        0.077754    2.026328   -2.177617
     17          1           0        1.539858    1.173601   -1.616348
     18          1           0        2.282132   -1.682861   -1.302256
     19          1           0        2.707189    0.021640   -1.692832
     20          1           0        3.901744   -1.050341   -0.867693
     21          1           0       -0.911055   -0.216771   -2.800109
     22          1           0        0.564128   -1.038569   -2.195586
     23          1           0        0.661692    0.100528   -3.612436
 ---------------------------------------------------------------------
                    Distance matrix (angstroms):
                    1          2          3          4          5
     1  C    0.000000
     2  C    1.490625   0.000000
     3  C    2.555493   1.508304   0.000000
     4  C    1.491652   2.545445   2.909119   0.000000
     5  C    3.314614   2.538338   1.510531   3.161029   0.000000
     6  C    2.516168   3.268918   3.520118   1.472952   3.127381
     7  C    3.681255   2.897274   2.548769   3.723992   1.506627
     8  H    2.124260   3.451121   3.913839   1.126559   4.257003
     9  H    2.136014   2.722633   2.509454   1.116134   2.780339
    10  H    1.110665   2.125084   3.424548   2.133445   3.992094
    11  H    1.109344   2.126466   3.116461   2.110057   4.153763
    12  H    2.117773   1.101220   2.130172   3.398817   3.428857
    13  H    2.136984   1.110520   2.129113   3.123426   2.643589
    14  H    2.716663   2.155820   1.103233   2.776144   2.141711
    15  H    3.443980   2.132635   1.109570   3.993873   2.140421
    16  H    4.354212   3.451181   2.146123   4.164116   1.121392
    17  H    3.294567   3.009470   2.146547   2.645587   1.103295
    18  H    2.585506   3.188118   3.740587   2.153866   3.341649
    19  H    3.192194   3.527506   3.318705   2.155274   2.498030
    20  H    3.339359   4.306118   4.572144   2.135794   4.145679
    21  H    4.197936   3.117862   2.849930   4.548843   2.172646
    22  H    3.077281   2.621478   2.844035   3.204873   2.177581
    23  H    4.596046   3.977973   3.502408   4.361996   2.157198
                    6          7          8          9         10
     6  C    0.000000
     7  C    3.241797   0.000000
     8  H    2.128512   4.833043   0.000000
     9  H    2.123079   3.761201   1.775491   0.000000
    10  H    2.691424   3.960399   2.555897   3.056569   0.000000
    11  H    3.408934   4.700114   2.271643   2.546993   1.756353
    12  H    4.299596   3.808758   4.127727   3.525526   2.639045
    13  H    3.398556   2.383787   4.083479   3.484845   2.267472
    14  H    3.670574   3.452184   3.595382   2.039478   3.769788
    15  H    4.600140   3.008587   4.964986   3.565215   4.241394
    16  H    4.132186   2.153964   5.216826   3.593139   5.085941
    17  H    2.450770   2.120243   3.652037   2.174711   3.995511
    18  H    1.106291   2.971070   2.834151   2.975938   2.358981
    19  H    1.130281   2.716537   2.961107   2.270782   3.558655
    20  H    1.110627   4.247886   2.246885   2.768711   3.383363
    21  H    4.219350   1.090678   5.661878   4.591176   4.412730
    22  H    2.604248   1.125104   4.245567   3.570781   3.098737
    23  H    3.565888   1.127778   5.419546   4.360571   4.827702
                   11         12         13         14         15
    11  H    0.000000
    12  H    2.247914   0.000000
    13  H    2.965030   1.751868   0.000000
    14  H    2.992121   2.615115   3.047884   0.000000
    15  H    3.860464   2.287675   2.568289   1.766338   0.000000
    16  H    5.098699   4.175634   3.566074   2.591295   2.315226
    17  H    4.127885   4.002395   3.255219   2.335840   3.017995
    18  H    3.601113   4.192816   2.974735   4.167837   4.724374
    19  H    4.118931   4.614392   3.615901   3.492970   4.340569
    20  H    4.063918   5.289750   4.457017   4.588591   5.667165
    21  H    5.144272   3.790439   2.413438   3.892621   2.926189
    22  H    4.166167   3.593722   1.957087   3.707233   3.504420
    23  H    5.644704   4.924812   3.474393   4.272206   3.956388
                   16         17         18         19         20
    16  H    0.000000
    17  H    1.783231   0.000000
    18  H    4.402683   2.967996   0.000000
    19  H    3.341813   1.641805   1.799596   0.000000
    20  H    5.079832   3.329400   1.792225   1.804705   0.000000
    21  H    2.529176   3.056370   3.819611   3.791384   5.252819
    22  H    3.103300   2.486214   2.040757   2.443259   3.592091
    23  H    2.471517   2.430437   3.338148   2.806271   4.399551
                   21         22         23
    21  H    0.000000
    22  H    1.793590   0.000000
    23  H    1.798357   1.820584   0.000000
 Stoichiometry    C7H16
 Framework group  C1[X(C7H16)]
 Deg. of freedom    63
 Full point group                 C1      NOp   1
 Largest Abelian subgroup         C1      NOp   1
 Largest concise Abelian subgroup C1      NOp   1
                         Standard orientation:                         
 ---------------------------------------------------------------------
 Center     Atomic      Atomic             Coordinates (Angstroms)
 Number     Number       Type             X           Y           Z
 ---------------------------------------------------------------------
      1          6           0       -1.371270   -0.923837    0.429131
      2          6           0        0.046074   -1.375554    0.524264
      3          6           0        0.942425   -1.060781   -0.647254
      4          6           0       -1.661020    0.225953   -0.475886
      5          6           0        1.492741    0.345923   -0.653372
      6          6           0       -1.305468    1.560555    0.035979
      7          6           0        1.801843    0.922091    0.703983
      8          1           0       -2.761371    0.202255   -0.716302
      9          1           0       -1.153653    0.057399   -1.455643
     10          1           0       -1.738720   -0.687911    1.450354
     11          1           0       -1.997994   -1.776739    0.096838
     12          1           0        0.058536   -2.464250    0.689401
     13          1           0        0.513980   -0.945866    1.435137
     14          1           0        0.410635   -1.243623   -1.596407
     15          1           0        1.792912   -1.773245   -0.632684
     16          1           0        2.422538    0.358572   -1.280140
     17          1           0        0.771847    1.019876   -1.146687
     18          1           0       -1.072452    1.550396    1.117404
     19          1           0       -0.397307    1.971749   -0.496655
     20          1           0       -2.136901    2.278628   -0.127062
     21          1           0        2.547862    0.339505    1.245857
     22          1           0        0.873282    0.975454    1.337060
     23          1           0        2.194852    1.971697    0.578457
 ---------------------------------------------------------------------
 Rotational constants (GHZ):           3.0828403           2.1081334           1.5893534
 Leave Link  202 at Sun Sep 29 05:56:59 2019, MaxMem=   671088640 cpu:               4.3 elap:               2.2
 (Enter /shared/centos7/gaussian/g16/l301.exe)
 Standard basis: CC-pVTZ (5D, 7F)
 Ernie: Thresh=  0.10000D-02 Tol=  0.10000D-05 Strict=F.
 Ernie:  21 primitive shells out of 310 were deleted.
 There are   485 symmetry adapted cartesian basis functions of A   symmetry.
 There are   434 symmetry adapted basis functions of A   symmetry.
   434 basis functions,   636 primitive gaussians,   485 cartesian basis functions
    29 alpha electrons       29 beta electrons
       nuclear repulsion energy       343.2663579026 Hartrees.
 IExCor= 4336 DFT=T Ex+Corr=M062X ExCW=0 ScaHFX=  0.540000
 ScaDFX=  1.000000  1.000000  1.000000  1.000000 ScalE2=  1.000000  1.000000
 IRadAn=      5 IRanWt=     -1 IRanGd=            0 ICorTp=0 IEmpDi=  4
 NAtoms=   23 NActive=   23 NUniq=   23 SFac= 1.00D+00 NAtFMM=   60 NAOKFM=F Big=F
 Integral buffers will be    131072 words long.
 Raffenetti 2 integral format.
 Two-electron integral symmetry is turned on.
 Leave Link  301 at Sun Sep 29 05:57:01 2019, MaxMem=   671088640 cpu:               2.8 elap:               1.4
 (Enter /shared/centos7/gaussian/g16/l302.exe)
 NPDir=0 NMtPBC=     1 NCelOv=     1 NCel=       1 NClECP=     1 NCelD=      1
         NCelK=      1 NCelE2=     1 NClLst=     1 CellRange=     0.0.
 One-electron integrals computed using PRISM.
 One-electron integral symmetry used in STVInt
 NBasis=   434 RedAO= T EigKep=  2.02D-04  NBF=   434
 NBsUse=   434 1.00D-06 EigRej= -1.00D+00 NBFU=   434
 Precomputing XC quadrature grid using
 IXCGrd= 4 IRadAn=           5 IRanWt=          -1 IRanGd=           0 AccXCQ= 0.00D+00.
 Generated NRdTot=       0 NPtTot=           0 NUsed=           0 NTot=          32
 NSgBfM=   485   485   485   485   485 MxSgAt=    23 MxSgA2=    23.
 Leave Link  302 at Sun Sep 29 05:58:09 2019, MaxMem=   671088640 cpu:             136.0 elap:              68.0
 (Enter /shared/centos7/gaussian/g16/l303.exe)
 DipDrv:  MaxL=1.
 Leave Link  303 at Sun Sep 29 05:58:14 2019, MaxMem=   671088640 cpu:               9.7 elap:               4.9
 (Enter /shared/centos7/gaussian/g16/l401.exe)
 ExpMin= 1.03D-01 ExpMax= 8.24D+03 ExpMxC= 2.81D+02 IAcc=3 IRadAn=         5 AccDes= 0.00D+00
 Harris functional with IExCor= 1009 and IRadAn=       5 diagonalized for initial guess.
 HarFok:  IExCor= 1009 AccDes= 0.00D+00 IRadAn=         5 IDoV= 1 UseB2=F ITyADJ=14
 ICtDFT=  3500011 ScaDFX=  1.000000  1.000000  1.000000  1.000000
 FoFCou: FMM=F IPFlag=           0 FMFlag=      100000 FMFlg1=           0
         NFxFlg=           0 DoJE=T BraDBF=F KetDBF=T FulRan=T
         wScrn=  0.000000 ICntrl=       500 IOpCl=  0 I1Cent=   200000004 NGrid=           0
         NMat0=    1 NMatS0=      1 NMatT0=    0 NMatD0=    1 NMtDS0=    0 NMtDT0=    0
 Petite list used in FoFCou.
 Harris En= -276.306207993962    
 JPrj=0 DoOrth=F DoCkMO=F.
 Leave Link  401 at Sun Sep 29 05:59:00 2019, MaxMem=   671088640 cpu:              93.0 elap:              46.5
 (Enter /shared/centos7/gaussian/g16/l502.exe)
 Integral symmetry usage will be decided dynamically.
 Closed shell SCF:
 Using DIIS extrapolation, IDIIS=  1040.
 NGot=   671088640 LenX=   670604095 LenY=   670368385
 Requested convergence on RMS density matrix=1.00D-08 within 900 cycles.
 Requested convergence on MAX density matrix=1.00D-06.
 Requested convergence on             energy=1.00D-06.
 No special actions if energy rises.
 Fock matrices will be formed incrementally for  20 cycles.
 Integral accuracy reduced to 1.0D-05 until final iterations.

 Cycle   1  Pass 0  IDiag  1:
 FoFJK:  IHMeth= 1 ICntrl=       0 DoSepK=F KAlg= 0 I1Cent=           0 FoldK=F
 IRaf= 970000000 NMat=       1 IRICut=       1 DoRegI=T DoRafI=F ISym2E= 0 IDoP0=0 IntGTp=1.
 FoFCou: FMM=F IPFlag=           0 FMFlag=      100000 FMFlg1=           0
         NFxFlg=           0 DoJE=F BraDBF=F KetDBF=F FulRan=T
         wScrn=  0.000000 ICntrl=         0 IOpCl=  0 I1Cent=           0 NGrid=           0
         NMat0=    1 NMatS0=      1 NMatT0=    0 NMatD0=    1 NMtDS0=    0 NMtDT0=    0
 Symmetry not used in FoFCou.
 E= -275.946934483058    
 DIIS: error= 2.58D-02 at cycle   1 NSaved=   1.
 NSaved= 1 IEnMin= 1 EnMin= -275.946934483058     IErMin= 1 ErrMin= 2.58D-02
 ErrMax= 2.58D-02  0.00D+00 EMaxC= 1.00D-01 BMatC= 3.76D-01 BMatP= 3.76D-01
 IDIUse=3 WtCom= 7.42D-01 WtEn= 2.58D-01
 Coeff-Com:  0.100D+01
 Coeff-En:   0.100D+01
 Coeff:      0.100D+01
 Gap=     0.368 Goal=   None    Shift=    0.000
 GapD=    0.368 DampG=1.000 DampE=0.500 DampFc=0.5000 IDamp=-1.
 Damping current iteration by 5.00D-01
 RMSDP=1.95D-03 MaxDP=7.15D-02              OVMax= 1.63D-01

 Cycle   2  Pass 0  IDiag  1:
 RMSU=  9.71D-04    CP:  9.90D-01
 E= -276.119518218799     Delta-E=       -0.172583735741 Rises=F Damp=T
 DIIS: error= 3.99D-03 at cycle   2 NSaved=   2.
 NSaved= 2 IEnMin= 2 EnMin= -276.119518218799     IErMin= 2 ErrMin= 3.99D-03
 ErrMax= 3.99D-03  0.00D+00 EMaxC= 1.00D-01 BMatC= 2.06D-02 BMatP= 3.76D-01
 IDIUse=3 WtCom= 9.60D-01 WtEn= 3.99D-02
 Coeff-Com: -0.279D-01 0.103D+01
 Coeff-En:   0.000D+00 0.100D+01
 Coeff:     -0.267D-01 0.103D+01
 Gap=     0.445 Goal=   None    Shift=    0.000
 RMSDP=6.14D-04 MaxDP=2.49D-02 DE=-1.73D-01 OVMax= 9.62D-02

 Cycle   3  Pass 0  IDiag  1:
 RMSU=  6.02D-04    CP:  9.99D-01  8.94D-01
 E= -276.300779552653     Delta-E=       -0.181261333854 Rises=F Damp=F
 DIIS: error= 3.87D-03 at cycle   3 NSaved=   3.
 NSaved= 3 IEnMin= 3 EnMin= -276.300779552653     IErMin= 3 ErrMin= 3.87D-03
 ErrMax= 3.87D-03  0.00D+00 EMaxC= 1.00D-01 BMatC= 4.71D-03 BMatP= 2.06D-02
 IDIUse=3 WtCom= 9.61D-01 WtEn= 3.87D-02
 Coeff-Com: -0.547D-01 0.302D+00 0.753D+00
 Coeff-En:   0.000D+00 0.000D+00 0.100D+01
 Coeff:     -0.526D-01 0.290D+00 0.763D+00
 Gap=     0.416 Goal=   None    Shift=    0.000
 RMSDP=1.43D-04 MaxDP=4.97D-03 DE=-1.81D-01 OVMax= 1.33D-02

 Cycle   4  Pass 0  IDiag  1:
 RMSU=  1.06D-04    CP:  9.97D-01  9.48D-01  8.67D-01
 E= -276.304884542514     Delta-E=       -0.004104989861 Rises=F Damp=F
 DIIS: error= 9.44D-04 at cycle   4 NSaved=   4.
 NSaved= 4 IEnMin= 4 EnMin= -276.304884542514     IErMin= 4 ErrMin= 9.44D-04
 ErrMax= 9.44D-04  0.00D+00 EMaxC= 1.00D-01 BMatC= 3.44D-04 BMatP= 4.71D-03
 IDIUse=3 WtCom= 9.91D-01 WtEn= 9.44D-03
 Coeff-Com: -0.140D-01 0.387D-01 0.248D+00 0.728D+00
 Coeff-En:   0.000D+00 0.000D+00 0.000D+00 0.100D+01
 Coeff:     -0.138D-01 0.384D-01 0.245D+00 0.730D+00
 Gap=     0.417 Goal=   None    Shift=    0.000
 RMSDP=3.93D-05 MaxDP=1.45D-03 DE=-4.10D-03 OVMax= 3.23D-03

 Cycle   5  Pass 0  IDiag  1:
 RMSU=  1.94D-05    CP:  9.97D-01  9.42D-01  9.10D-01  7.95D-01
 E= -276.305201545193     Delta-E=       -0.000317002679 Rises=F Damp=F
 DIIS: error= 1.50D-04 at cycle   5 NSaved=   5.
 NSaved= 5 IEnMin= 5 EnMin= -276.305201545193     IErMin= 5 ErrMin= 1.50D-04
 ErrMax= 1.50D-04  0.00D+00 EMaxC= 1.00D-01 BMatC= 1.78D-05 BMatP= 3.44D-04
 IDIUse=3 WtCom= 9.98D-01 WtEn= 1.50D-03
 Coeff-Com: -0.209D-02 0.165D-02 0.513D-01 0.253D+00 0.696D+00
 Coeff-En:   0.000D+00 0.000D+00 0.000D+00 0.000D+00 0.100D+01
 Coeff:     -0.209D-02 0.165D-02 0.512D-01 0.253D+00 0.696D+00
 Gap=     0.416 Goal=   None    Shift=    0.000
 RMSDP=6.77D-06 MaxDP=3.74D-04 DE=-3.17D-04 OVMax= 8.68D-04

 Initial convergence to 1.0D-05 achieved.  Increase integral accuracy.
 Cycle   6  Pass 1  IDiag  1:
 E= -276.305178777758     Delta-E=        0.000022767435 Rises=F Damp=F
 DIIS: error= 5.21D-05 at cycle   1 NSaved=   1.
 NSaved= 1 IEnMin= 1 EnMin= -276.305178777758     IErMin= 1 ErrMin= 5.21D-05
 ErrMax= 5.21D-05  0.00D+00 EMaxC= 1.00D-01 BMatC= 1.99D-06 BMatP= 1.99D-06
 IDIUse=1 WtCom= 1.00D+00 WtEn= 0.00D+00
 Coeff-Com:  0.100D+01
 Coeff:      0.100D+01
 Gap=     0.416 Goal=   None    Shift=    0.000
 RMSDP=6.77D-06 MaxDP=3.74D-04 DE= 2.28D-05 OVMax= 2.88D-04

 Cycle   7  Pass 1  IDiag  1:
 RMSU=  1.02D-05    CP:  1.00D+00
 E= -276.305179510309     Delta-E=       -0.000000732551 Rises=F Damp=F
 DIIS: error= 3.03D-05 at cycle   2 NSaved=   2.
 NSaved= 2 IEnMin= 2 EnMin= -276.305179510309     IErMin= 2 ErrMin= 3.03D-05
 ErrMax= 3.03D-05  0.00D+00 EMaxC= 1.00D-01 BMatC= 6.63D-07 BMatP= 1.99D-06
 IDIUse=1 WtCom= 1.00D+00 WtEn= 0.00D+00
 Coeff-Com:  0.334D+00 0.666D+00
 Coeff:      0.334D+00 0.666D+00
 Gap=     0.416 Goal=   None    Shift=    0.000
 RMSDP=1.60D-06 MaxDP=7.60D-05 DE=-7.33D-07 OVMax= 1.81D-04

 Cycle   8  Pass 1  IDiag  1:
 RMSU=  1.57D-06    CP:  1.00D+00  9.73D-01
 E= -276.305180104699     Delta-E=       -0.000000594390 Rises=F Damp=F
 DIIS: error= 1.01D-05 at cycle   3 NSaved=   3.
 NSaved= 3 IEnMin= 3 EnMin= -276.305180104699     IErMin= 3 ErrMin= 1.01D-05
 ErrMax= 1.01D-05  0.00D+00 EMaxC= 1.00D-01 BMatC= 6.32D-08 BMatP= 6.63D-07
 IDIUse=1 WtCom= 1.00D+00 WtEn= 0.00D+00
 Coeff-Com: -0.440D-02 0.226D+00 0.779D+00
 Coeff:     -0.440D-02 0.226D+00 0.779D+00
 Gap=     0.416 Goal=   None    Shift=    0.000
 RMSDP=4.67D-07 MaxDP=1.94D-05 DE=-5.94D-07 OVMax= 4.12D-05

 Cycle   9  Pass 1  IDiag  1:
 RMSU=  3.37D-07    CP:  1.00D+00  9.93D-01  8.43D-01
 E= -276.305180165456     Delta-E=       -0.000000060757 Rises=F Damp=F
 DIIS: error= 2.57D-06 at cycle   4 NSaved=   4.
 NSaved= 4 IEnMin= 4 EnMin= -276.305180165456     IErMin= 4 ErrMin= 2.57D-06
 ErrMax= 2.57D-06  0.00D+00 EMaxC= 1.00D-01 BMatC= 2.12D-09 BMatP= 6.32D-08
 IDIUse=1 WtCom= 1.00D+00 WtEn= 0.00D+00
 Coeff-Com: -0.107D-01 0.626D-01 0.275D+00 0.673D+00
 Coeff:     -0.107D-01 0.626D-01 0.275D+00 0.673D+00
 Gap=     0.416 Goal=   None    Shift=    0.000
 RMSDP=9.56D-08 MaxDP=3.10D-06 DE=-6.08D-08 OVMax= 9.07D-06

 Cycle  10  Pass 1  IDiag  1:
 RMSU=  8.70D-08    CP:  1.00D+00  9.95D-01  8.37D-01  9.05D-01
 E= -276.305180167579     Delta-E=       -0.000000002123 Rises=F Damp=F
 DIIS: error= 5.99D-07 at cycle   5 NSaved=   5.
 NSaved= 5 IEnMin= 5 EnMin= -276.305180167579     IErMin= 5 ErrMin= 5.99D-07
 ErrMax= 5.99D-07  0.00D+00 EMaxC= 1.00D-01 BMatC= 9.11D-11 BMatP= 2.12D-09
 IDIUse=1 WtCom= 1.00D+00 WtEn= 0.00D+00
 Coeff-Com: -0.892D-03-0.138D-01-0.406D-01 0.828D-01 0.972D+00
 Coeff:     -0.892D-03-0.138D-01-0.406D-01 0.828D-01 0.972D+00
 Gap=     0.416 Goal=   None    Shift=    0.000
 RMSDP=4.03D-08 MaxDP=1.16D-06 DE=-2.12D-09 OVMax= 3.02D-06

 Cycle  11  Pass 1  IDiag  1:
 RMSU=  1.99D-08    CP:  1.00D+00  9.96D-01  8.39D-01  1.00D+00  1.10D+00
 E= -276.305180167676     Delta-E=       -0.000000000097 Rises=F Damp=F
 DIIS: error= 2.27D-07 at cycle   6 NSaved=   6.
 NSaved= 6 IEnMin= 6 EnMin= -276.305180167676     IErMin= 6 ErrMin= 2.27D-07
 ErrMax= 2.27D-07  0.00D+00 EMaxC= 1.00D-01 BMatC= 2.73D-11 BMatP= 9.11D-11
 IDIUse=1 WtCom= 1.00D+00 WtEn= 0.00D+00
 Coeff-Com:  0.324D-03-0.111D-01-0.392D-01-0.975D-02 0.466D+00 0.594D+00
 Coeff:      0.324D-03-0.111D-01-0.392D-01-0.975D-02 0.466D+00 0.594D+00
 Gap=     0.416 Goal=   None    Shift=    0.000
 RMSDP=8.01D-09 MaxDP=2.91D-07 DE=-9.71D-11 OVMax= 8.60D-07

 SCF Done:  E(RM062X) =  -276.305180168     A.U. after   11 cycles
            NFock= 11  Conv=0.80D-08     -V/T= 2.0064
 KE= 2.745576382344D+02 PE=-1.324990995057D+03 EE= 4.308618187518D+02
 Leave Link  502 at Sun Sep 29 06:18:11 2019, MaxMem=   671088640 cpu:            2300.2 elap:            1150.2
 (Enter /shared/centos7/gaussian/g16/l801.exe)
 DoSCS=F DFT=T ScalE2(SS,OS)=  1.000000  1.000000
 Range of M.O.s used for correlation:     1   434
 NBasis=   434 NAE=    29 NBE=    29 NFC=     0 NFV=     0
 NROrb=    434 NOA=    29 NOB=    29 NVA=   405 NVB=   405

 **** Warning!!: The largest alpha MO coefficient is  0.11003929D+02

 Leave Link  801 at Sun Sep 29 06:18:12 2019, MaxMem=   671088640 cpu:               1.6 elap:               0.8
 (Enter /shared/centos7/gaussian/g16/l1101.exe)
 Using compressed storage, NAtomX=    23.
 Will process     24 centers per pass.
 Leave Link 1101 at Sun Sep 29 06:18:50 2019, MaxMem=   671088640 cpu:              76.9 elap:              38.5
 (Enter /shared/centos7/gaussian/g16/l1102.exe)
 Symmetrizing basis deriv contribution to polar:
 IMax=3 JMax=2 DiffMx= 0.00D+00
 Leave Link 1102 at Sun Sep 29 06:18:52 2019, MaxMem=   671088640 cpu:               4.7 elap:               2.4
 (Enter /shared/centos7/gaussian/g16/l1110.exe)
 Forming Gx(P) for the SCF density, NAtomX=    23.
 Integral derivatives from FoFJK, PRISM(SPDF).
 Do as many integral derivatives as possible in FoFJK.
 G2DrvN: MDV=     671086848.
 G2DrvN: will do    24 centers at a time, making    1 passes.
 Calling FoFCou, ICntrl=  3107 FMM=F I1Cent=   0 AccDes= 0.00D+00.
 FoFJK:  IHMeth= 1 ICntrl=    3107 DoSepK=F KAlg= 0 I1Cent=           0 FoldK=F
 IRaf=         0 NMat=       1 IRICut=       1 DoRegI=T DoRafI=F ISym2E= 0 IDoP0=0 IntGTp=1.
 FoFCou: FMM=F IPFlag=           0 FMFlag=      100000 FMFlg1=           0
         NFxFlg=           0 DoJE=F BraDBF=F KetDBF=F FulRan=T
         wScrn=  0.000000 ICntrl=      3107 IOpCl=  0 I1Cent=           0 NGrid=           0
         NMat0=    1 NMatS0=      1 NMatT0=    0 NMatD0=    1 NMtDS0=    0 NMtDT0=    0
 Symmetry not used in FoFCou.
 End of G2Drv F.D. properties file   721 does not exist.
 End of G2Drv F.D. properties file   722 does not exist.
 End of G2Drv F.D. properties file   788 does not exist.
 Leave Link 1110 at Sun Sep 29 07:08:58 2019, MaxMem=   671088640 cpu:            6010.7 elap:            3005.6
 (Enter /shared/centos7/gaussian/g16/l1002.exe)
 Minotr:  Closed shell wavefunction.
          IDoAtm=11111111111111111111111
          Direct CPHF calculation.
          Differentiating once with respect to nuclear coordinates.
          Requested convergence is 1.0D-08 RMS, and 1.0D-07 maximum.
          Secondary convergence is 1.0D-12 RMS, and 1.0D-12 maximum.
          NewPWx=T KeepS1=F KeepF1=F KeepIn=T MapXYZ=F SortEE=F KeepMc=T.
         6890 words used for storage of precomputed grid.
 Two-electron integrals replicated using symmetry.
          MDV=     671088640 using IRadAn=       1.
          Solving linear equations simultaneously, MaxMat=     380.
 FoF2E skips out because all densities are zero.
 CalDSu exits because no D1Ps are significant.
 FoFJK:  IHMeth= 1 ICntrl=       0 DoSepK=F KAlg= 0 I1Cent=           0 FoldK=F
 IRaf= 960000000 NMat=      69 IRICut=     172 DoRegI=T DoRafI=T ISym2E= 2 IDoP0=3 IntGTp=3.
 FoFCou: FMM=F IPFlag=           0 FMFlag=      100000 FMFlg1=           0
         NFxFlg=           0 DoJE=F BraDBF=F KetDBF=F FulRan=T
         wScrn=  0.000000 ICntrl=         0 IOpCl=  0 I1Cent=           0 NGrid=           0
         NMat0=   69 NMatS0=     69 NMatT0=    0 NMatD0=   69 NMtDS0=    0 NMtDT0=    0
 Integrals replicated using symmetry in FoFCou.
 Raff kept on since  93.01% of shell-pairs survive, threshold=   0.20 IRatSp=93.
          There are    72 degrees of freedom in the 1st order CPHF.  IDoFFX=6 NUNeed=     0.
     66 vectors produced by pass  0 Test12= 1.63D-14 1.39D-09 XBig12= 5.59D-02 3.89D-02.
 AX will form    66 AO Fock derivatives at one time.
     66 vectors produced by pass  1 Test12= 1.63D-14 1.39D-09 XBig12= 3.10D-03 6.42D-03.
     66 vectors produced by pass  2 Test12= 1.63D-14 1.39D-09 XBig12= 6.01D-05 9.52D-04.
     66 vectors produced by pass  3 Test12= 1.63D-14 1.39D-09 XBig12= 4.87D-07 7.25D-05.
     66 vectors produced by pass  4 Test12= 1.63D-14 1.39D-09 XBig12= 2.22D-09 5.50D-06.
     66 vectors produced by pass  5 Test12= 1.63D-14 1.39D-09 XBig12= 1.05D-11 2.82D-07.
     23 vectors produced by pass  6 Test12= 1.63D-14 1.39D-09 XBig12= 3.80D-14 1.58D-08.
 InvSVY:  IOpt=1 It=  1 EMax= 3.33D-16
 Solved reduced A of dimension   419 with    72 vectors.
 End of Minotr F.D. properties file   721 does not exist.
 End of Minotr F.D. properties file   722 does not exist.
 End of Minotr F.D. properties file   788 does not exist.
 Leave Link 1002 at Sun Sep 29 08:35:34 2019, MaxMem=   671088640 cpu:           10390.3 elap:            5195.6
 (Enter /shared/centos7/gaussian/g16/l601.exe)
 Copying SCF densities to generalized density rwf, IOpCl= 0 IROHF=0.

 **********************************************************************

            Population analysis using the SCF density.

 **********************************************************************

 Orbital symmetries:
       Occupied  (A) (A) (A) (A) (A) (A) (A) (A) (A) (A) (A) (A)
                 (A) (A) (A) (A) (A) (A) (A) (A) (A) (A) (A) (A)
                 (A) (A) (A) (A) (A)
       Virtual   (A) (A) (A) (A) (A) (A) (A) (A) (A) (A) (A) (A)
                 (A) (A) (A) (A) (A) (A) (A) (A) (A) (A) (A) (A)
                 (A) (A) (A) (A) (A) (A) (A) (A) (A) (A) (A) (A)
                 (A) (A) (A) (A) (A) (A) (A) (A) (A) (A) (A) (A)
                 (A) (A) (A) (A) (A) (A) (A) (A) (A) (A) (A) (A)
                 (A) (A) (A) (A) (A) (A) (A) (A) (A) (A) (A) (A)
                 (A) (A) (A) (A) (A) (A) (A) (A) (A) (A) (A) (A)
                 (A) (A) (A) (A) (A) (A) (A) (A) (A) (A) (A) (A)
                 (A) (A) (A) (A) (A) (A) (A) (A) (A) (A) (A) (A)
                 (A) (A) (A) (A) (A) (A) (A) (A) (A) (A) (A) (A)
                 (A) (A) (A) (A) (A) (A) (A) (A) (A) (A) (A) (A)
                 (A) (A) (A) (A) (A) (A) (A) (A) (A) (A) (A) (A)
                 (A) (A) (A) (A) (A) (A) (A) (A) (A) (A) (A) (A)
                 (A) (A) (A) (A) (A) (A) (A) (A) (A) (A) (A) (A)
                 (A) (A) (A) (A) (A) (A) (A) (A) (A) (A) (A) (A)
                 (A) (A) (A) (A) (A) (A) (A) (A) (A) (A) (A) (A)
                 (A) (A) (A) (A) (A) (A) (A) (A) (A) (A) (A) (A)
                 (A) (A) (A) (A) (A) (A) (A) (A) (A) (A) (A) (A)
                 (A) (A) (A) (A) (A) (A) (A) (A) (A) (A) (A) (A)
                 (A) (A) (A) (A) (A) (A) (A) (A) (A) (A) (A) (A)
                 (A) (A) (A) (A) (A) (A) (A) (A) (A) (A) (A) (A)
                 (A) (A) (A) (A) (A) (A) (A) (A) (A) (A) (A) (A)
                 (A) (A) (A) (A) (A) (A) (A) (A) (A) (A) (A) (A)
                 (A) (A) (A) (A) (A) (A) (A) (A) (A) (A) (A) (A)
                 (A) (A) (A) (A) (A) (A) (A) (A) (A) (A) (A) (A)
                 (A) (A) (A) (A) (A) (A) (A) (A) (A) (A) (A) (A)
                 (A) (A) (A) (A) (A) (A) (A) (A) (A) (A) (A) (A)
                 (A) (A) (A) (A) (A) (A) (A) (A) (A) (A) (A) (A)
                 (A) (A) (A) (A) (A) (A) (A) (A) (A) (A) (A) (A)
                 (A) (A) (A) (A) (A) (A) (A) (A) (A) (A) (A) (A)
                 (A) (A) (A) (A) (A) (A) (A) (A) (A) (A) (A) (A)
                 (A) (A) (A) (A) (A) (A) (A) (A) (A) (A) (A) (A)
                 (A) (A) (A) (A) (A) (A) (A) (A) (A) (A) (A) (A)
                 (A) (A) (A) (A) (A) (A) (A) (A) (A)
 The electronic state is 1-A.
 Alpha  occ. eigenvalues --  -10.52634 -10.52518 -10.52499 -10.52436 -10.52259
 Alpha  occ. eigenvalues --  -10.52089 -10.51980  -0.92629  -0.87562  -0.83034
 Alpha  occ. eigenvalues --   -0.76541  -0.71699  -0.65864  -0.60933  -0.56194
 Alpha  occ. eigenvalues --   -0.54905  -0.49734  -0.49086  -0.48069  -0.47531
 Alpha  occ. eigenvalues --   -0.44945  -0.43462  -0.42057  -0.39846  -0.39107
 Alpha  occ. eigenvalues --   -0.37081  -0.36199  -0.35935  -0.35318
 Alpha virt. eigenvalues --    0.06323   0.07956   0.08308   0.08800   0.10690
 Alpha virt. eigenvalues --    0.12479   0.12898   0.13223   0.13927   0.15868
 Alpha virt. eigenvalues --    0.16069   0.16624   0.19417   0.19793   0.20756
 Alpha virt. eigenvalues --    0.22092   0.22684   0.23302   0.25014   0.26515
 Alpha virt. eigenvalues --    0.27171   0.29474   0.30094   0.31031   0.31882
 Alpha virt. eigenvalues --    0.32670   0.33123   0.34442   0.34545   0.36625
 Alpha virt. eigenvalues --    0.39497   0.40472   0.43108   0.43549   0.44764
 Alpha virt. eigenvalues --    0.45777   0.46016   0.46747   0.47539   0.48205
 Alpha virt. eigenvalues --    0.49275   0.49690   0.50364   0.50869   0.51847
 Alpha virt. eigenvalues --    0.52758   0.53212   0.54269   0.54492   0.54920
 Alpha virt. eigenvalues --    0.55233   0.55864   0.56745   0.56769   0.57854
 Alpha virt. eigenvalues --    0.58872   0.60637   0.60981   0.61947   0.64155
 Alpha virt. eigenvalues --    0.65346   0.65442   0.72810   0.73851   0.76091
 Alpha virt. eigenvalues --    0.78149   0.80929   0.81518   0.84853   0.86209
 Alpha virt. eigenvalues --    0.87373   0.90194   0.90859   0.92087   0.92906
 Alpha virt. eigenvalues --    0.95379   0.97392   0.98263   0.99453   1.02366
 Alpha virt. eigenvalues --    1.03516   1.04117   1.05381   1.05575   1.05913
 Alpha virt. eigenvalues --    1.07693   1.08410   1.09298   1.09631   1.10953
 Alpha virt. eigenvalues --    1.12120   1.12751   1.13807   1.15176   1.16218
 Alpha virt. eigenvalues --    1.16698   1.17348   1.18713   1.19970   1.20317
 Alpha virt. eigenvalues --    1.21391   1.22463   1.23794   1.25132   1.25579
 Alpha virt. eigenvalues --    1.26069   1.26421   1.27417   1.28081   1.30261
 Alpha virt. eigenvalues --    1.31111   1.31873   1.32674   1.33013   1.34951
 Alpha virt. eigenvalues --    1.36760   1.37895   1.38095   1.38934   1.40101
 Alpha virt. eigenvalues --    1.42057   1.42861   1.45109   1.46283   1.46760
 Alpha virt. eigenvalues --    1.47170   1.48494   1.50157   1.51091   1.51155
 Alpha virt. eigenvalues --    1.51507   1.52395   1.55263   1.56019   1.57033
 Alpha virt. eigenvalues --    1.58175   1.60725   1.63729   1.64744   1.66476
 Alpha virt. eigenvalues --    1.68372   1.72024   1.72936   1.74786   1.78564
 Alpha virt. eigenvalues --    1.81328   1.84356   1.86426   1.90572   2.20461
 Alpha virt. eigenvalues --    2.26404   2.30532   2.31913   2.35020   2.35516
 Alpha virt. eigenvalues --    2.38023   2.39456   2.44149   2.45294   2.47573
 Alpha virt. eigenvalues --    2.49229   2.50478   2.51998   2.54785   2.55911
 Alpha virt. eigenvalues --    2.57388   2.58735   2.60021   2.60305   2.62958
 Alpha virt. eigenvalues --    2.63385   2.64924   2.67004   2.67346   2.68140
 Alpha virt. eigenvalues --    2.69791   2.70563   2.71545   2.73674   2.74780
 Alpha virt. eigenvalues --    2.76453   2.77819   2.79386   2.80047   2.82072
 Alpha virt. eigenvalues --    2.82272   2.83316   2.84278   2.85776   2.86251
 Alpha virt. eigenvalues --    2.88124   2.90201   2.90960   2.91964   2.93079
 Alpha virt. eigenvalues --    2.94067   2.96166   2.96716   2.98606   2.99449
 Alpha virt. eigenvalues --    3.00334   3.01879   3.03130   3.03703   3.04892
 Alpha virt. eigenvalues --    3.06277   3.06702   3.07094   3.08772   3.10228
 Alpha virt. eigenvalues --    3.10866   3.12090   3.13414   3.14346   3.14781
 Alpha virt. eigenvalues --    3.15591   3.16153   3.16846   3.18075   3.19668
 Alpha virt. eigenvalues --    3.20407   3.21244   3.22461   3.24423   3.25653
 Alpha virt. eigenvalues --    3.26846   3.27488   3.29012   3.30310   3.31687
 Alpha virt. eigenvalues --    3.31774   3.33616   3.34318   3.36970   3.37280
 Alpha virt. eigenvalues --    3.40001   3.41331   3.42799   3.43491   3.44159
 Alpha virt. eigenvalues --    3.45857   3.46440   3.48304   3.48827   3.50596
 Alpha virt. eigenvalues --    3.51979   3.53322   3.54572   3.54920   3.55244
 Alpha virt. eigenvalues --    3.58924   3.59298   3.60792   3.61279   3.62515
 Alpha virt. eigenvalues --    3.64005   3.64525   3.64670   3.66357   3.69375
 Alpha virt. eigenvalues --    3.69994   3.70457   3.71321   3.73390   3.74280
 Alpha virt. eigenvalues --    3.75868   3.77360   3.79822   3.80042   3.80862
 Alpha virt. eigenvalues --    3.82396   3.82873   3.83409   3.85561   3.86541
 Alpha virt. eigenvalues --    3.86959   3.89097   3.90235   3.91221   3.91825
 Alpha virt. eigenvalues --    3.94505   3.94795   3.95015   3.96020   3.98951
 Alpha virt. eigenvalues --    4.00050   4.00492   4.01994   4.02932   4.03618
 Alpha virt. eigenvalues --    4.04240   4.05646   4.06379   4.07131   4.09788
 Alpha virt. eigenvalues --    4.10636   4.11253   4.12952   4.15180   4.16553
 Alpha virt. eigenvalues --    4.16678   4.17891   4.18619   4.19251   4.20370
 Alpha virt. eigenvalues --    4.21850   4.23541   4.24992   4.25857   4.26495
 Alpha virt. eigenvalues --    4.28175   4.29143   4.29588   4.29904   4.30883
 Alpha virt. eigenvalues --    4.33453   4.34429   4.36079   4.38080   4.38823
 Alpha virt. eigenvalues --    4.40428   4.43892   4.44523   4.45543   4.47338
 Alpha virt. eigenvalues --    4.48439   4.50247   4.53322   4.55844   4.57905
 Alpha virt. eigenvalues --    4.61192   4.65042   4.66016   4.67602   4.68784
 Alpha virt. eigenvalues --    4.70233   4.70935   4.72437   4.74968   4.75993
 Alpha virt. eigenvalues --    4.76953   4.80643   4.81128   4.81766   4.83331
 Alpha virt. eigenvalues --    4.84750   4.87185   4.88738   4.89906   4.92138
 Alpha virt. eigenvalues --    4.93768   4.94888   4.96921   5.01086   5.02150
 Alpha virt. eigenvalues --    5.03303   5.04019   5.06270   5.07136   5.08683
 Alpha virt. eigenvalues --    5.10609   5.13060   5.14348   5.16839   5.19491
 Alpha virt. eigenvalues --    5.21162   5.24646   5.25405   5.26138   5.26445
 Alpha virt. eigenvalues --    5.29503   5.30436   5.33193   5.33807   5.36499
 Alpha virt. eigenvalues --    5.37187   5.39080   5.40318   5.41588   5.44063
 Alpha virt. eigenvalues --    5.45801   5.50220   5.54102   5.55091   5.58881
 Alpha virt. eigenvalues --    5.59784   5.68314   5.71767   5.77720   5.81639
 Alpha virt. eigenvalues --    5.84004   5.88812   5.92348   5.95164   6.01598
 Alpha virt. eigenvalues --    6.06891   6.08055   6.10172  11.55763  12.08182
 Alpha virt. eigenvalues --   12.21563  12.99880  13.44109  13.46775  13.84636
          Condensed to atoms (all electrons):
               1          2          3          4          5          6
     1  C    5.081246   0.309424  -0.050638   0.283983  -0.000646  -0.044841
     2  C    0.309424   5.142875   0.277078  -0.045816  -0.043921   0.008602
     3  C   -0.050638   0.277078   5.102187  -0.009347   0.309860  -0.003279
     4  C    0.283983  -0.045816  -0.009347   5.116426   0.009709   0.269821
     5  C   -0.000646  -0.043921   0.309860   0.009709   5.121143  -0.014331
     6  C   -0.044841   0.008602  -0.003279   0.269821  -0.014331   5.073615
     7  C    0.000727  -0.012659  -0.049975  -0.003845   0.295218  -0.000175
     8  H   -0.044213   0.008522  -0.000073   0.416597   0.000275  -0.043004
     9  H   -0.033436  -0.017303   0.006525   0.402593  -0.007925  -0.047561
    10  H    0.422272  -0.059221   0.009523  -0.042942  -0.000764  -0.011284
    11  H    0.421452  -0.048094   0.001194  -0.052051  -0.000443   0.009652
    12  H   -0.046372   0.422245  -0.040720   0.008916   0.007542  -0.000623
    13  H   -0.045482   0.411906  -0.042181   0.001155  -0.015705   0.000443
    14  H    0.001017  -0.046561   0.423295  -0.010736  -0.049940   0.001815
    15  H    0.007968  -0.048477   0.415933   0.000550  -0.044874  -0.000326
    16  H   -0.000521   0.009231  -0.046536  -0.000463   0.414966   0.001235
    17  H   -0.000137  -0.000506  -0.047212   0.002088   0.418739  -0.023661
    18  H    0.002007  -0.003643   0.001702  -0.066755  -0.000590   0.409583
    19  H    0.003272   0.000947   0.000500  -0.048712  -0.013125   0.413374
    20  H    0.007544  -0.000786   0.000048  -0.041012   0.000212   0.405570
    21  H    0.000498  -0.005597   0.004025   0.000007  -0.045012  -0.000099
    22  H    0.000469   0.001394  -0.008473  -0.003344  -0.041922   0.002747
    23  H   -0.000225   0.000805   0.007961   0.000368  -0.043559  -0.000478
               7          8          9         10         11         12
     1  C    0.000727  -0.044213  -0.033436   0.422272   0.421452  -0.046372
     2  C   -0.012659   0.008522  -0.017303  -0.059221  -0.048094   0.422245
     3  C   -0.049975  -0.000073   0.006525   0.009523   0.001194  -0.040720
     4  C   -0.003845   0.416597   0.402593  -0.042942  -0.052051   0.008916
     5  C    0.295218   0.000275  -0.007925  -0.000764  -0.000443   0.007542
     6  C   -0.000175  -0.043004  -0.047561  -0.011284   0.009652  -0.000623
     7  C    5.030032  -0.000087   0.000399   0.000217  -0.000053   0.000885
     8  H   -0.000087   0.602507  -0.035928  -0.003567  -0.012882  -0.000455
     9  H    0.000399  -0.035928   0.617521   0.008055  -0.001861   0.000174
    10  H    0.000217  -0.003567   0.008055   0.588928  -0.032465   0.002840
    11  H   -0.000053  -0.012882  -0.001861  -0.032465   0.597847  -0.019461
    12  H    0.000885  -0.000455   0.000174   0.002840  -0.019461   0.584343
    13  H   -0.003494  -0.000509   0.000106  -0.016230   0.009696  -0.036418
    14  H    0.008202  -0.000247  -0.002951  -0.000338   0.002493  -0.001861
    15  H   -0.000096   0.000033   0.000418  -0.000420  -0.000294  -0.012594
    16  H   -0.037009  -0.000008   0.000391   0.000052   0.000023  -0.000310
    17  H   -0.048736   0.000627  -0.000166  -0.000106   0.000031  -0.000610
    18  H   -0.007524   0.004095   0.007563   0.001847   0.000852  -0.000226
    19  H   -0.001027   0.007155  -0.018090   0.000197  -0.000680   0.000055
    20  H    0.000723  -0.020352   0.005220   0.000920  -0.000583   0.000029
    21  H    0.407598   0.000012  -0.000069  -0.000052  -0.000016  -0.000355
    22  H    0.405109  -0.000082   0.000547   0.000884  -0.000033   0.000684
    23  H    0.406630  -0.000004  -0.000017  -0.000040   0.000008  -0.000006
              13         14         15         16         17         18
     1  C   -0.045482   0.001017   0.007968  -0.000521  -0.000137   0.002007
     2  C    0.411906  -0.046561  -0.048477   0.009231  -0.000506  -0.003643
     3  C   -0.042181   0.423295   0.415933  -0.046536  -0.047212   0.001702
     4  C    0.001155  -0.010736   0.000550  -0.000463   0.002088  -0.066755
     5  C   -0.015705  -0.049940  -0.044874   0.414966   0.418739  -0.000590
     6  C    0.000443   0.001815  -0.000326   0.001235  -0.023661   0.409583
     7  C   -0.003494   0.008202  -0.000096  -0.037009  -0.048736  -0.007524
     8  H   -0.000509  -0.000247   0.000033  -0.000008   0.000627   0.004095
     9  H    0.000106  -0.002951   0.000418   0.000391  -0.000166   0.007563
    10  H   -0.016230  -0.000338  -0.000420   0.000052  -0.000106   0.001847
    11  H    0.009696   0.002493  -0.000294   0.000023   0.000031   0.000852
    12  H   -0.036418  -0.001861  -0.012594  -0.000310  -0.000610  -0.000226
    13  H    0.605824   0.008082  -0.001140  -0.000009   0.000821  -0.000441
    14  H    0.008082   0.579941  -0.029740  -0.000729  -0.011215  -0.000167
    15  H   -0.001140  -0.029740   0.581188  -0.014118   0.008641   0.000048
    16  H   -0.000009  -0.000729  -0.014118   0.584413  -0.035166  -0.000049
    17  H    0.000821  -0.011215   0.008641  -0.035166   0.612297   0.001448
    18  H   -0.000441  -0.000167   0.000048  -0.000049   0.001448   0.593241
    19  H   -0.000322   0.000266  -0.000205   0.001113  -0.011843  -0.040180
    20  H   -0.000000  -0.000073   0.000010  -0.000018   0.001354  -0.028213
    21  H    0.000357  -0.000215   0.002562  -0.007077   0.008473   0.000407
    22  H   -0.013890  -0.000529   0.000019   0.007605  -0.006765  -0.005022
    23  H    0.000943  -0.000277  -0.000398  -0.005607  -0.007178   0.000596
              19         20         21         22         23
     1  C    0.003272   0.007544   0.000498   0.000469  -0.000225
     2  C    0.000947  -0.000786  -0.005597   0.001394   0.000805
     3  C    0.000500   0.000048   0.004025  -0.008473   0.007961
     4  C   -0.048712  -0.041012   0.000007  -0.003344   0.000368
     5  C   -0.013125   0.000212  -0.045012  -0.041922  -0.043559
     6  C    0.413374   0.405570  -0.000099   0.002747  -0.000478
     7  C   -0.001027   0.000723   0.407598   0.405109   0.406630
     8  H    0.007155  -0.020352   0.000012  -0.000082  -0.000004
     9  H   -0.018090   0.005220  -0.000069   0.000547  -0.000017
    10  H    0.000197   0.000920  -0.000052   0.000884  -0.000040
    11  H   -0.000680  -0.000583  -0.000016  -0.000033   0.000008
    12  H    0.000055   0.000029  -0.000355   0.000684  -0.000006
    13  H   -0.000322  -0.000000   0.000357  -0.013890   0.000943
    14  H    0.000266  -0.000073  -0.000215  -0.000529  -0.000277
    15  H   -0.000205   0.000010   0.002562   0.000019  -0.000398
    16  H    0.001113  -0.000018  -0.007077   0.007605  -0.005607
    17  H   -0.011843   0.001354   0.008473  -0.006765  -0.007178
    18  H   -0.040180  -0.028213   0.000407  -0.005022   0.000596
    19  H    0.621808  -0.030893   0.000232  -0.005137   0.000446
    20  H   -0.030893   0.580865  -0.000013   0.000815  -0.000085
    21  H    0.000232  -0.000013   0.562647  -0.040731  -0.023600
    22  H   -0.005137   0.000815  -0.040731   0.629622  -0.034076
    23  H    0.000446  -0.000085  -0.023600  -0.034076   0.572413
 Mulliken charges:
               1
     1  C   -0.275369
     2  C   -0.260446
     3  C   -0.261398
     4  C   -0.187188
     5  C   -0.254909
     6  C   -0.406794
     7  C   -0.391060
     8  H    0.121589
     9  H    0.115794
    10  H    0.131692
    11  H    0.125667
    12  H    0.132295
    13  H    0.136488
    14  H    0.130466
    15  H    0.135312
    16  H    0.128588
    17  H    0.138783
    18  H    0.129420
    19  H    0.120847
    20  H    0.118718
    21  H    0.136017
    22  H    0.110107
    23  H    0.125380
 Sum of Mulliken charges =  -0.00000
 Mulliken charges with hydrogens summed into heavy atoms:
               1
     1  C   -0.018010
     2  C    0.008337
     3  C    0.004381
     4  C    0.050194
     5  C    0.012463
     6  C   -0.037809
     7  C   -0.019556
 APT charges:
               1
     1  C   -0.907948
     2  C   -0.653479
     3  C   -0.804288
     4  C   -0.584950
     5  C   -0.611206
     6  C   -1.063042
     7  C   -1.122983
     8  H    0.496574
     9  H    0.220504
    10  H    0.359722
    11  H    0.451651
    12  H    0.465361
    13  H    0.280621
    14  H    0.306895
    15  H    0.460240
    16  H    0.482151
    17  H    0.238540
    18  H    0.233834
    19  H    0.205414
    20  H    0.520968
    21  H    0.411565
    22  H    0.164931
    23  H    0.448925
 Sum of APT charges =  -0.00000
 APT charges with hydrogens summed into heavy atoms:
               1
     1  C   -0.096575
     2  C    0.092503
     3  C   -0.037154
     4  C    0.132128
     5  C    0.109485
     6  C   -0.102826
     7  C   -0.097562
 Electronic spatial extent (au):  <R**2>=            922.9704
 Charge=             -0.0000 electrons
 Dipole moment (field-independent basis, Debye):
    X=             -0.0173    Y=             -0.0930    Z=             -0.0815  Tot=              0.1248
 Quadrupole moment (field-independent basis, Debye-Ang):
   XX=            -48.7671   YY=            -49.5743   ZZ=            -49.2765
   XY=             -0.1698   XZ=             -0.0230   YZ=             -0.1731
 Traceless Quadrupole moment (field-independent basis, Debye-Ang):
   XX=              0.4388   YY=             -0.3683   ZZ=             -0.0705
   XY=             -0.1698   XZ=             -0.0230   YZ=             -0.1731
 Octapole moment (field-independent basis, Debye-Ang**2):
  XXX=             -0.0993  YYY=             -2.8351  ZZZ=              0.3094  XYY=              0.1644
  XXY=             -0.2714  XXZ=             -0.8909  XZZ=             -0.4856  YZZ=             -0.2133
  YYZ=             -1.1640  XYZ=             -0.6297
 Hexadecapole moment (field-independent basis, Debye-Ang**3):
 XXXX=           -651.5436 YYYY=           -441.8949 ZZZZ=           -207.1730 XXXY=             -6.3522
 XXXZ=              1.1460 YYYX=              2.9359 YYYZ=             -2.7769 ZZZX=             -2.0127
 ZZZY=              0.5529 XXYY=           -180.9784 XXZZ=           -147.2488 YYZZ=           -112.2244
 XXYZ=             -1.5365 YYXZ=              0.5995 ZZXY=             -0.9111
 N-N= 3.432663579026D+02 E-N=-1.324990899328D+03  KE= 2.745576382344D+02
  Exact polarizability:   0.000   0.000   0.000   0.000   0.000   0.000
 Approx polarizability: 100.304  -0.091  97.704  -0.490   0.167  98.460
 No NMR shielding tensors so no spin-rotation constants.
 Leave Link  601 at Sun Sep 29 08:36:06 2019, MaxMem=   671088640 cpu:              63.6 elap:              31.8
 (Enter /shared/centos7/gaussian/g16/l701.exe)
 SCFChk:  SCF convergence  8.01D-09 required  1.00D-08
 ... and contract with generalized density number  0.
 Compute integral second derivatives.
 Entering OneElI...
 Calculate overlap and kinetic energy integrals
    NBasis = 485  MinDer = 2  MaxDer = 2
 Requested accuracy = 0.1000D-12
 PrmmSu-InSpLW:  IPartL=    0 NPrtUS=   20 NPrtUL=    1 DoSpLW=F IThBeg=    0 IThEnd=   19 NThAct=   20.
 PrsmSu:  NPrtUS=  20 ThrOK=T IAlg=1 NPAlg=1 LenDen=           0 ISkipM=0 DoSpLW=F IThBeg=    0 IThEnd=   19.
 Prism:   IPart=     0 DynPar=F LinDyn=F Incr=           6.
 PRISM was handed    33191043 working-precision words and 13841 shell-pairs
 PRISM was handed    33191043 working-precision words and 13841 shell-pairs
 PRISM was handed    33191043 working-precision words and 13841 shell-pairs
 PRISM was handed    33191043 working-precision words and 13841 shell-pairs
 PRISM was handed    33191043 working-precision words and 13841 shell-pairs
 PRISM was handed    33191043 working-precision words and 13841 shell-pairs
 PRISM was handed    33191043 working-precision words and 13841 shell-pairs
 PRISM was handed    33191043 working-precision words and 13841 shell-pairs
 PRISM was handed    33191043 working-precision words and 13841 shell-pairs
 PRISM was handed    33191043 working-precision words and 13841 shell-pairs
 PRISM was handed    33191043 working-precision words and 13841 shell-pairs
 PRISM was handed    33191043 working-precision words and 13841 shell-pairs
 PRISM was handed    33191043 working-precision words and 13841 shell-pairs
 PRISM was handed    33191043 working-precision words and 13841 shell-pairs
 PRISM was handed    33191043 working-precision words and 13841 shell-pairs
 IPart=  0 NShTot=         728 NBatch=          78 AvBLen=         9.3
 PRISM was handed    33191043 working-precision words and 13841 shell-pairs
 PRISM was handed    33191043 working-precision words and 13841 shell-pairs
 PRISM was handed    33191043 working-precision words and 13841 shell-pairs
 PRISM was handed    33191043 working-precision words and 13841 shell-pairs
 IPart=  3 NShTot=         718 NBatch=          73 AvBLen=         9.8
 IPart=  8 NShTot=         694 NBatch=          61 AvBLen=        11.4
 IPart= 15 NShTot=         674 NBatch=          52 AvBLen=        13.0
 IPart=  2 NShTot=         720 NBatch=          74 AvBLen=         9.7
 PRISM was handed    33191043 working-precision words and 13841 shell-pairs
 IPart= 10 NShTot=         683 NBatch=          58 AvBLen=        11.8
 IPart=  7 NShTot=         701 NBatch=          62 AvBLen=        11.3
 IPart=  9 NShTot=         687 NBatch=          60 AvBLen=        11.5
 IPart= 14 NShTot=         674 NBatch=          52 AvBLen=        13.0
 IPart= 16 NShTot=         671 NBatch=          49 AvBLen=        13.7
 IPart= 11 NShTot=         681 NBatch=          57 AvBLen=        11.9
 IPart=  4 NShTot=         714 NBatch=          72 AvBLen=         9.9
 IPart=  5 NShTot=         710 NBatch=          69 AvBLen=        10.3
 IPart=  6 NShTot=         707 NBatch=          67 AvBLen=        10.6
 IPart= 18 NShTot=         668 NBatch=          48 AvBLen=        13.9
 IPart= 17 NShTot=         670 NBatch=          49 AvBLen=        13.7
 IPart= 12 NShTot=         676 NBatch=          53 AvBLen=        12.8
 IPart= 19 NShTot=         666 NBatch=          47 AvBLen=        14.2
 IPart= 13 NShTot=         674 NBatch=          52 AvBLen=        13.0
 IPart=  1 NShTot=         725 NBatch=          77 AvBLen=         9.4
 PrSmSu:  NxtVal=            121.
 Entering OneElI...
 Calculate potential energy integrals
    NBasis = 485  MinDer = 2  MaxDer = 2
 Requested accuracy = 0.1000D-12
 PrmmSu-InSpLW:  IPartL=    0 NPrtUS=   20 NPrtUL=    1 DoSpLW=F IThBeg=    0 IThEnd=   19 NThAct=   20.
 PrsmSu:  NPrtUS=  20 ThrOK=T IAlg=1 NPAlg=1 LenDen=           0 ISkipM=0 DoSpLW=F IThBeg=    0 IThEnd=   19.
 Prism:   IPart=     0 DynPar=F LinDyn=F Incr=         148.
 PRISM was handed    33251193 working-precision words and 12891 shell-pairs
 PRISM was handed    33251193 working-precision words and 12891 shell-pairs
 PRISM was handed    33251193 working-precision words and 12891 shell-pairs
 PRISM was handed    33251193 working-precision words and 12891 shell-pairs
 PRISM was handed    33251193 working-precision words and 12891 shell-pairs
 PRISM was handed    33251193 working-precision words and 12891 shell-pairs
 PRISM was handed    33251193 working-precision words and 12891 shell-pairs
 PRISM was handed    33251193 working-precision words and 12891 shell-pairs
 PRISM was handed    33251193 working-precision words and 12891 shell-pairs
 PRISM was handed    33251193 working-precision words and 12891 shell-pairs
 PRISM was handed    33251193 working-precision words and 12891 shell-pairs
 PRISM was handed    33251193 working-precision words and 12891 shell-pairs
 PRISM was handed    33251193 working-precision words and 12891 shell-pairs
 PRISM was handed    33251193 working-precision words and 12891 shell-pairs
 PRISM was handed    33251193 working-precision words and 12891 shell-pairs
 PRISM was handed    33251193 working-precision words and 12891 shell-pairs
 PRISM was handed    33251193 working-precision words and 12891 shell-pairs
 PRISM was handed    33251193 working-precision words and 12891 shell-pairs
 PRISM was handed    33251193 working-precision words and 12891 shell-pairs
 PRISM was handed    33251193 working-precision words and 12891 shell-pairs
 IPart= 16 NShTot=       14306 NBatch=         623 AvBLen=        23.0
 IPart=  8 NShTot=       14766 NBatch=         643 AvBLen=        23.0
 IPart=  0 NShTot=       15594 NBatch=         680 AvBLen=        22.9
 IPart=  9 NShTot=       14743 NBatch=         642 AvBLen=        23.0
 IPart= 10 NShTot=       14720 NBatch=         641 AvBLen=        23.0
 IPart= 11 NShTot=       14674 NBatch=         639 AvBLen=        23.0
 IPart=  5 NShTot=       15272 NBatch=         666 AvBLen=        22.9
 IPart=  3 NShTot=       15433 NBatch=         673 AvBLen=        22.9
 IPart= 15 NShTot=       14375 NBatch=         626 AvBLen=        23.0
 IPart= 17 NShTot=       14283 NBatch=         622 AvBLen=        23.0
 IPart= 19 NShTot=       14260 NBatch=         621 AvBLen=        23.0
 IPart=  1 NShTot=       15479 NBatch=         675 AvBLen=        22.9
 IPart= 13 NShTot=       14536 NBatch=         633 AvBLen=        23.0
 IPart= 18 NShTot=       14260 NBatch=         621 AvBLen=        23.0
 IPart=  6 NShTot=       15111 NBatch=         659 AvBLen=        22.9
 IPart= 12 NShTot=       14582 NBatch=         635 AvBLen=        23.0
 IPart=  4 NShTot=       15364 NBatch=         670 AvBLen=        22.9
 IPart=  7 NShTot=       14812 NBatch=         646 AvBLen=        22.9
 IPart= 14 NShTot=       14467 NBatch=         630 AvBLen=        23.0
 IPart=  2 NShTot=       15456 NBatch=         674 AvBLen=        22.9
 PrSmSu:  NxtVal=           2961.
 Polarizability after L701:
                1             2             3 
      1  0.000000D+00
      2  0.000000D+00  0.000000D+00
      3  0.000000D+00  0.000000D+00  0.000000D+00
 Dipole Derivatives after L701:
                 1             2             3             4             5 
      1  -0.107831D+01 -0.696741D+00  0.641778D+00 -0.466623D-01 -0.654636D-01
      2  -0.741159D+00 -0.811878D+00 -0.285716D-02  0.269456D+00 -0.121989D+01
      3   0.404860D+00 -0.187515D+00 -0.833658D+00 -0.405807D+00  0.101952D+00
                 6             7             8             9            10 
      1  -0.305832D+00 -0.788857D+00  0.661479D+00  0.169103D+00 -0.124592D+01
      2   0.703451D+00  0.433614D+00 -0.795035D+00 -0.678924D+00  0.187397D+00
      3  -0.693889D+00 -0.190744D+00 -0.459104D+00 -0.828972D+00 -0.415821D-01
                11            12            13            14            15 
      1  -0.114939D+00 -0.991499D+00 -0.887818D+00 -0.263449D+00  0.978536D+00
      2   0.219006D+00  0.158904D+00  0.159896D+00 -0.327438D+00  0.461370D+00
      3  -0.532934D-01 -0.727935D+00  0.218771D+00  0.480957D+00 -0.618362D+00
                16            17            18            19            20 
      1  -0.698020D+00  0.903556D+00  0.356805D+00 -0.125831D+01 -0.430326D+00
      2  -0.116069D+00 -0.156591D+01 -0.221045D+00 -0.113105D+00 -0.116290D+01
      3   0.146032D-02  0.163191D+00 -0.925191D+00 -0.305211D-01 -0.331725D-01
                21            22            23            24            25 
      1  -0.852236D+00  0.112935D+01 -0.119547D-02  0.220951D+00 -0.654295D-01
      2  -0.327801D+00 -0.824849D-01  0.192070D+00 -0.214328D-01  0.195924D-01
      3  -0.947744D+00  0.241377D+00 -0.260991D-02  0.168300D+00 -0.318345D+00
                26            27            28            29            30 
      1   0.433380D-01  0.312121D+00  0.327859D+00 -0.137145D+00 -0.571877D+00
      2   0.147022D+00 -0.413881D-02  0.513487D-01  0.915726D-01 -0.207228D+00
      3   0.617547D-01  0.579919D+00 -0.132396D+00  0.125149D+00  0.659735D+00
                31            32            33            34            35 
      1   0.557727D+00  0.535781D+00  0.227885D+00  0.184175D+00 -0.740075D-02
      2   0.338491D+00  0.679597D+00  0.180721D+00 -0.107154D-01  0.105149D+01
      3   0.123931D-01 -0.222489D-01  0.117629D+00 -0.300071D-03 -0.234285D+00
                36            37            38            39            40 
      1  -0.314888D-02  0.243343D+00  0.119541D+00  0.156757D+00  0.715131D-01
      2  -0.120589D+00 -0.987176D-01  0.131718D-01 -0.244849D+00  0.240366D+00
      3   0.160416D+00  0.197624D+00  0.300866D+00  0.585348D+00  0.343596D+00
                41            42            43            44            45 
      1  -0.191636D-01 -0.103603D+00  0.679512D+00 -0.403686D+00 -0.186281D-01
      2   0.187585D+00  0.392509D+00 -0.493297D+00  0.568031D+00 -0.243665D-01
      3   0.450322D-01  0.661586D+00 -0.188334D+00  0.110099D+00  0.133176D+00
                46            47            48            49            50 
      1   0.904956D+00 -0.238539D-01 -0.484441D+00 -0.101326D-01  0.152102D+00
      2   0.109603D+00  0.154497D+00 -0.599916D-01 -0.325646D+00  0.427037D+00
      3  -0.402929D+00  0.227369D-01  0.386999D+00  0.338788D+00 -0.257808D+00
                51            52            53            54            55 
      1  -0.768796D-01 -0.155630D-01 -0.429256D-02 -0.341385D+00  0.588358D-01
      2  -0.105942D+00  0.199125D+00  0.131424D+00  0.485317D+00  0.647716D+00
      3   0.298717D+00  0.152164D+00 -0.248476D-01  0.585641D+00 -0.215784D+00
                56            57            58            59            60 
      1  -0.272303D-01  0.124998D-01  0.805511D+00 -0.482307D+00  0.161726D+00
      2   0.294192D+00 -0.327064D+00 -0.690271D+00  0.650873D+00 -0.140156D+00
      3  -0.320689D-01  0.263213D+00  0.645672D-01 -0.246044D-01  0.106521D+00
                61            62            63            64            65 
      1   0.777729D+00 -0.531659D+00  0.499540D+00 -0.271078D-01 -0.677676D-02
      2   0.344013D-01  0.836722D-01  0.502579D-01 -0.286118D+00  0.131188D+00
      3   0.310561D+00 -0.251346D+00  0.373292D+00 -0.424720D+00 -0.212810D-01
                66            67            68            69 
      1   0.141605D+00  0.381615D+00  0.799832D+00 -0.129776D+00
      2   0.176945D+00  0.266577D+00  0.860614D+00 -0.123090D+00
      3   0.390714D+00  0.652995D-01  0.192446D+00  0.104545D+00
 Hessian after L701:
                1             2             3             4             5 
      1  0.158753D+02
      2  0.394200D+00  0.163547D+02
      3  0.172086D+00  0.694095D+00  0.177454D+02
      4 -0.274824D+01 -0.114726D+01  0.334472D+00  0.159519D+02
      5 -0.117922D+01 -0.594402D+01 -0.557473D-02  0.136313D+00  0.168515D+02
      6  0.312703D+00  0.175500D-01 -0.629170D+01  0.375224D+00  0.643458D+00
      7  0.220082D+00 -0.128168D+00 -0.207776D+00 -0.453521D+01  0.572991D+00
      8 -0.586214D-01 -0.603679D-01  0.885760D-02  0.550615D+00 -0.587901D+01
      9 -0.141707D+00  0.342351D-01  0.359824D-01 -0.191387D+01 -0.752327D+00
     10 -0.605321D+01 -0.672171D+00  0.608110D+00  0.151955D+00 -0.218052D+00
     11 -0.655881D+00 -0.381015D+01 -0.182288D+01 -0.235593D+00  0.160777D+00
     12  0.567443D+00 -0.180328D+01 -0.482988D+01  0.285414D-01 -0.676376D-01
     13  0.132013D+00  0.147606D+00 -0.105460D+00  0.128245D+00  0.229888D+00
     14  0.124622D+00 -0.776977D-01 -0.497665D-01  0.250189D+00  0.127212D+00
     15 -0.901358D-01 -0.513964D-01 -0.115949D+00 -0.160722D+00 -0.118304D+00
     16 -0.122090D+00  0.283152D-01 -0.484748D-02 -0.102692D+00 -0.217070D+00
     17 -0.661244D-02  0.394985D+00  0.891662D-01 -0.175074D+00  0.204685D+00
     18  0.187490D-01 -0.319527D-01 -0.159196D+00  0.529554D-01 -0.132378D+00
     19  0.127837D+00  0.145770D+00  0.577164D-01 -0.605053D-01  0.203271D+00
     20  0.118455D+00 -0.529954D-01  0.202618D-01  0.215957D+00  0.954648D-01
     21  0.866672D-02 -0.555737D-02 -0.133962D+00 -0.625019D-01 -0.521667D-01
     22  0.126796D+00  0.846197D-01 -0.468489D-01  0.111797D+00 -0.902933D-01
     23  0.803746D-01 -0.130337D-02  0.727025D-01 -0.731854D-01 -0.823841D-02
     24 -0.415564D-01  0.752037D-01  0.361316D-01  0.685351D-01 -0.378712D-01
     25  0.861793D-01 -0.664683D-02 -0.346803D-01  0.119545D-01  0.327588D-01
     26 -0.425705D-01  0.178924D-01  0.108526D+00  0.209893D-01  0.101000D-01
     27  0.349778D-01  0.996537D-01 -0.292574D-02 -0.422317D-01  0.476569D-01
     28 -0.409511D+01 -0.169144D+00 -0.957411D+00 -0.184319D+00  0.803824D-01
     29 -0.116889D+00 -0.441947D+01  0.340121D+00  0.448148D-01  0.179290D+00
     30 -0.892615D+00  0.447720D+00 -0.217033D+01  0.128262D+00 -0.145144D-01
     31 -0.346165D+01  0.121034D+01  0.392538D+00 -0.129302D+00  0.552242D-01
     32  0.118254D+01 -0.285405D+01  0.515595D+00  0.385755D-01  0.185568D+00
     33  0.355498D+00  0.478154D+00 -0.420195D+01 -0.246452D-01  0.273200D-01
     34 -0.418478D-01  0.120702D+00 -0.452087D-01 -0.444775D+01 -0.115232D+00
     35  0.136512D+00  0.102103D+00  0.234810D-01 -0.128407D+00 -0.205062D+01
     36 -0.542801D-01  0.305988D-01  0.974767D-01  0.368038D-01 -0.520216D+00
     37 -0.142718D+00  0.128899D-01 -0.803761D-01 -0.425627D+01  0.433266D+00
     38  0.671145D-01  0.152578D+00  0.539915D-01  0.363096D+00 -0.433833D+01
     39 -0.112647D+00  0.224357D-01  0.147945D+00  0.103371D+01  0.966886D+00
     40  0.165059D-01 -0.422217D-02 -0.299574D-01  0.129491D+00 -0.561489D-02
     41 -0.128650D-01 -0.353081D-01  0.564391D-02  0.619752D-02  0.123789D+00
     42 -0.696760D-01  0.171798D-01  0.145785D-01  0.794666D-01  0.610954D-01
     43  0.139968D+00 -0.556458D-01 -0.591708D-01 -0.780047D-02 -0.311059D-01
     44 -0.678501D-01 -0.258283D-01  0.211891D-01 -0.158792D-01  0.151196D+00
     45 -0.599954D-01  0.157701D-01 -0.316357D-01  0.138638D+00 -0.130863D-01
     46  0.867253D-02  0.213810D-02 -0.564642D-02  0.828720D-01  0.892582D-01
     47  0.294671D-02 -0.726575D-02 -0.108176D-02  0.744353D-01 -0.838405D-03
     48 -0.833577D-02 -0.151842D-02 -0.533968D-02 -0.969511D-01 -0.659849D-01
     49 -0.124987D-01  0.531956D-02 -0.611768D-02 -0.244845D-01 -0.375666D-02
     50  0.267979D-01  0.110879D-01 -0.223781D-01  0.233114D-01  0.338535D-01
[...]
   D27        1.39563  -0.00001  -0.00071   0.00946   0.00879   1.40442
   D28        1.01587   0.00047  -0.00564   0.00680   0.00106   1.01693
   D29        3.12629   0.00006  -0.00627   0.00668   0.00031   3.12661
   D30       -1.13892   0.00009  -0.00682   0.00775   0.00083  -1.13810
   D31       -3.10840   0.00064  -0.01286   0.00907  -0.00371  -3.11212
   D32       -0.99798   0.00023  -0.01349   0.00895  -0.00446  -1.00244
   D33        1.01999   0.00026  -0.01404   0.01002  -0.00395   1.01604
   D34       -1.10980   0.00049  -0.01433   0.01159  -0.00271  -1.11252
   D35        1.00062   0.00008  -0.01496   0.01147  -0.00346   0.99716
   D36        3.01859   0.00011  -0.01551   0.01254  -0.00294   3.01565
   D37       -0.12076  -0.00042   0.02979  -0.02370   0.00609  -0.11467
   D38        1.96909  -0.00020   0.02780  -0.02265   0.00513   1.97423
   D39       -2.21195  -0.00021   0.02797  -0.02287   0.00506  -2.20689
   D40        1.99526  -0.00063   0.03175  -0.02338   0.00842   2.00368
   D41       -2.19808  -0.00042   0.02975  -0.02233   0.00746  -2.19062
   D42       -0.09593  -0.00042   0.02993  -0.02255   0.00739  -0.08854
   D43       -2.27119  -0.00047   0.03000  -0.02239   0.00761  -2.26358
   D44       -0.18133  -0.00025   0.02801  -0.02135   0.00665  -0.17468
   D45        1.92081  -0.00026   0.02818  -0.02157   0.00658   1.92739
   D46        0.91498  -0.00011  -0.00213   0.01059   0.00847   0.92346
   D47       -1.18525  -0.00000  -0.00410   0.01196   0.00787  -1.17738
   D48        3.00766  -0.00020  -0.00302   0.01159   0.00858   3.01624
   D49       -1.18590   0.00020  -0.00311   0.01193   0.00882  -1.17708
   D50        2.99705   0.00030  -0.00508   0.01330   0.00822   3.00527
   D51        0.90677   0.00011  -0.00400   0.01292   0.00893   0.91570
   D52        3.08466   0.00007  -0.00108   0.00946   0.00837   3.09303
   D53        0.98443   0.00018  -0.00305   0.01083   0.00776   0.99219
   D54       -1.10585  -0.00001  -0.00197   0.01046   0.00848  -1.09737
         Item               Value     Threshold  Converged?
 Maximum Force            0.001299     0.000015     NO 
 RMS     Force            0.000403     0.000010     NO 
 Maximum Displacement     0.022125     0.000060     NO 
 RMS     Displacement     0.006527     0.000040     NO 
 Predicted change in Energy=-4.032564D-05
 Lowest energy point so far.  Saving SCF results.
 GradGradGradGradGradGradGradGradGradGradGradGradGradGradGradGradGradGrad

 Leave Link  103 at Sun Sep 29 14:43:31 2019, MaxMem=   671088640 cpu:             254.7 elap:             127.7
 (Enter /shared/centos7/gaussian/g16/l202.exe)
                          Input orientation:                          
 ---------------------------------------------------------------------
 Center     Atomic      Atomic             Coordinates (Angstroms)
 Number     Number       Type             X           Y           Z
 ---------------------------------------------------------------------
      1          6           0        1.165765   -0.713357    1.062056
      2          6           0       -0.081936   -0.592058    0.182783
      3          6           0       -0.365867    0.812782   -0.364213
      4          6           0        2.502867   -0.363171    0.403370
      5          6           0        0.367596    1.213560   -1.650998
      6          6           0        2.810938   -1.183872   -0.860675
      7          6           0        0.092759    0.284248   -2.829646
      8          1           0        3.292265   -0.511782    1.140024
      9          1           0        2.520845    0.701641    0.172638
     10          1           0        1.224341   -1.743914    1.423009
     11          1           0        1.029478   -0.088620    1.948280
     12          1           0       -0.935608   -0.900890    0.788679
     13          1           0       -0.034716   -1.308917   -0.638642
     14          1           0       -0.138366    1.544372    0.416778
     15          1           0       -1.437692    0.898901   -0.558272
     16          1           0        0.051267    2.223571   -1.917090
     17          1           0        1.442519    1.269872   -1.481461
     18          1           0        2.070162   -1.968835   -1.017635
     19          1           0        2.812198   -0.567319   -1.758951
     20          1           0        3.783691   -1.667561   -0.798707
     21          1           0       -0.980337    0.168738   -2.993460
     22          1           0        0.514417   -0.707237   -2.668144
     23          1           0        0.530490    0.677462   -3.746168
 ---------------------------------------------------------------------
                    Distance matrix (angstroms):
                    1          2          3          4          5
     1  C    0.000000
     2  C    1.531207   0.000000
     3  C    2.590221   1.534078   0.000000
     4  C    1.531123   2.604276   3.194007   0.000000
     5  C    3.422097   2.612486   1.534407   3.356469   0.000000
     6  C    2.573883   3.131735   3.784863   1.538267   3.513148
     7  C    4.158353   3.142157   2.562819   4.084135   1.525898
     8  H    2.137455   3.508274   4.171226   1.089906   4.395486
     9  H    2.151634   2.906584   2.938310   1.089672   2.867785
    10  H    1.093511   2.138059   3.501374   2.140267   4.350883
    11  H    1.092823   2.146083   2.847303   2.152441   3.884400
    12  H    2.127363   1.091441   2.142530   3.501530   3.481560
    13  H    2.165230   1.091263   2.164851   2.901646   2.747655
    14  H    2.685979   2.149947   1.094042   3.258068   2.154328
    15  H    3.464510   2.147136   1.092650   4.248009   2.133570
    16  H    4.329315   3.514964   2.139101   4.252777   1.091326
    17  H    3.237170   2.925825   2.174266   2.709936   1.089667
    18  H    2.592157   2.822773   3.754809   2.187383   3.664358
    19  H    3.269579   3.485248   3.734978   2.193854   3.026427
    20  H    3.350593   4.130750   4.853834   2.187905   4.549391
    21  H    4.672371   3.387396   2.775842   4.894291   2.170432
    22  H    3.786646   2.914908   2.897146   3.675121   2.178440
    23  H    5.045491   4.174135   3.501341   4.710823   2.168796
                    6          7          8          9         10
     6  C    0.000000
     7  C    3.663430   0.000000
     8  H    2.164758   5.160308   0.000000
     9  H    2.169573   3.883752   1.733009   0.000000
    10  H    2.836573   4.845513   2.423745   3.037284   0.000000
    11  H    3.501914   4.883139   2.439785   2.449815   1.747535
    12  H    4.103298   3.943902   4.260254   3.859363   2.403840
    13  H    2.857040   2.711996   3.855889   3.351330   2.454558
    14  H    4.215874   3.490071   4.064490   2.800215   3.698959
    15  H    4.741333   2.806993   5.219840   4.030280   4.242212
    16  H    4.510262   2.143700   5.228018   3.575200   5.317265
    17  H    2.877291   2.147303   3.669882   2.054682   4.191235
    18  H    1.090666   3.502841   2.876114   2.958261   2.592826
    19  H    1.089514   3.044158   2.938981   2.329417   3.745736
    20  H    1.088137   4.642978   2.309979   2.855067   3.390003
    21  H    4.555446   1.091655   5.983638   4.750414   5.293773
    22  H    2.961104   1.089458   4.717710   3.752431   4.279746
    23  H    4.122023   1.089146   5.737297   4.395355   5.750207
                   11         12         13         14         15
    11  H    0.000000
    12  H    2.421986   0.000000
    13  H    3.051851   1.736473   0.000000
    14  H    2.525078   2.598694   3.043996   0.000000
    15  H    3.653071   2.303391   2.617109   1.748029   0.000000
    16  H    4.609144   4.249396   3.757698   2.438075   2.412081
    17  H    3.712038   3.939699   3.089129   2.485530   3.047214
    18  H    3.662634   3.665779   2.238223   4.390645   4.554115
    19  H    4.141353   4.543978   3.148011   4.230704   4.653277
    20  H    4.198175   5.037793   3.838551   5.213103   5.823003
    21  H    5.341009   3.930735   2.936465   3.772400   2.583108
    22  H    4.686080   3.753625   2.186880   3.874611   3.292714
    23  H    5.767375   5.020506   3.731203   4.304535   3.753059
                   16         17         18         19         20
    16  H    0.000000
    17  H    1.742096   0.000000
    18  H    4.739328   3.331410   0.000000
    19  H    3.928971   2.308308   1.750547   0.000000
    20  H    5.506603   3.817819   1.753532   1.753967   0.000000
    21  H    2.538723   3.060860   4.216473   4.055750   5.557417
    22  H    3.060755   2.485669   2.595411   2.475077   3.886537
    23  H    2.442465   2.512299   4.101021   3.271804   4.976944
                   21         22         23
    21  H    0.000000
    22  H    1.762796   0.000000
    23  H    1.762943   1.754931   0.000000
 Stoichiometry    C7H16
 Framework group  C1[X(C7H16)]
 Deg. of freedom    63
 Full point group                 C1      NOp   1
 RotChk:  IX=2 Diff= 2.54D-03
 Largest Abelian subgroup         C1      NOp   1
 Largest concise Abelian subgroup C1      NOp   1
                         Standard orientation:                         
 ---------------------------------------------------------------------
 Center     Atomic      Atomic             Coordinates (Angstroms)
 Number     Number       Type             X           Y           Z
 ---------------------------------------------------------------------
      1          6           0       -1.498550   -1.003320    0.138450
      2          6           0       -0.094425   -1.192910    0.719038
      3          6           0        1.046705   -1.185490   -0.306225
      4          6           0       -1.759737    0.310192   -0.603713
      5          6           0        1.592409    0.187165   -0.721472
      6          6           0       -1.491530    1.568573    0.239381
      7          6           0        2.124057    1.015306    0.444675
      8          1           0       -2.795899    0.307712   -0.941732
      9          1           0       -1.160033    0.333440   -1.513218
     10          1           0       -2.215647   -1.077472    0.960666
     11          1           0       -1.715203   -1.840515   -0.529703
     12          1           0       -0.084509   -2.155649    1.233120
     13          1           0        0.096263   -0.448391    1.493753
     14          1           0        0.716170   -1.721661   -1.200762
     15          1           0        1.882100   -1.760049    0.101059
     16          1           0        2.400989    0.024812   -1.436197
     17          1           0        0.832696    0.760609   -1.251917
     18          1           0       -1.265617    1.314381    1.275674
     19          1           0       -0.644044    2.140584   -0.136930
     20          1           0       -2.351753    2.234832    0.251978
     21          1           0        2.853250    0.447675    1.025867
     22          1           0        1.325056    1.321393    1.119085
     23          1           0        2.612607    1.921208    0.088446
 ---------------------------------------------------------------------
 Rotational constants (GHZ):           3.1291028           1.8085107           1.3893371
 Leave Link  202 at Sun Sep 29 14:43:33 2019, MaxMem=   671088640 cpu:               3.8 elap:               1.9
 (Enter /shared/centos7/gaussian/g16/l301.exe)
 Standard basis: CC-pVTZ (5D, 7F)
 Ernie: Thresh=  0.10000D-02 Tol=  0.10000D-05 Strict=F.
 Ernie:  21 primitive shells out of 310 were deleted.
 There are   485 symmetry adapted cartesian basis functions of A   symmetry.
 There are   434 symmetry adapted basis functions of A   symmetry.
   434 basis functions,   636 primitive gaussians,   485 cartesian basis functions
    29 alpha electrons       29 beta electrons
       nuclear repulsion energy       333.6885805851 Hartrees.
 IExCor= 4336 DFT=T Ex+Corr=M062X ExCW=0 ScaHFX=  0.540000
 ScaDFX=  1.000000  1.000000  1.000000  1.000000 ScalE2=  1.000000  1.000000
 IRadAn=      5 IRanWt=     -1 IRanGd=            0 ICorTp=0 IEmpDi=  4
 NAtoms=   23 NActive=   23 NUniq=   23 SFac= 1.00D+00 NAtFMM=   60 NAOKFM=F Big=F
 Integral buffers will be    131072 words long.
 Raffenetti 2 integral format.
 Two-electron integral symmetry is turned on.
 Leave Link  301 at Sun Sep 29 14:43:34 2019, MaxMem=   671088640 cpu:               1.8 elap:               0.9
 (Enter /shared/centos7/gaussian/g16/l302.exe)
 NPDir=0 NMtPBC=     1 NCelOv=     1 NCel=       1 NClECP=     1 NCelD=      1
         NCelK=      1 NCelE2=     1 NClLst=     1 CellRange=     0.0.
 One-electron integrals computed using PRISM.
 One-electron integral symmetry used in STVInt
 NBasis=   434 RedAO= T EigKep=  3.37D-04  NBF=   434
 NBsUse=   434 1.00D-06 EigRej= -1.00D+00 NBFU=   434
 Precomputing XC quadrature grid using
 IXCGrd= 4 IRadAn=           5 IRanWt=          -1 IRanGd=           0 AccXCQ= 0.00D+00.
 Generated NRdTot=       0 NPtTot=           0 NUsed=           0 NTot=          32
 NSgBfM=   485   485   485   485   485 MxSgAt=    23 MxSgA2=    23.
 Leave Link  302 at Sun Sep 29 14:44:50 2019, MaxMem=   671088640 cpu:             152.6 elap:              76.3
 (Enter /shared/centos7/gaussian/g16/l303.exe)
 DipDrv:  MaxL=1.
 Leave Link  303 at Sun Sep 29 14:44:56 2019, MaxMem=   671088640 cpu:              10.7 elap:               5.4
 (Enter /shared/centos7/gaussian/g16/l401.exe)
 Initial guess from the checkpoint file:  "/scratch/harms.n/gauss_scrdir/Gau-40243.chk"
 B after Tr=    -0.000000   -0.000000    0.000000
         Rot=    1.000000    0.000751    0.000232   -0.000340 Ang=   0.10 deg.
 Guess basis will be translated and rotated to current coordinates.
 JPrj=2 DoOrth=T DoCkMO=T.
 Generating alternative initial guess.
 ExpMin= 1.03D-01 ExpMax= 8.24D+03 ExpMxC= 2.81D+02 IAcc=2 IRadAn=         4 AccDes= 0.00D+00
 Harris functional with IExCor= 1009 and IRadAn=       4 diagonalized for initial guess.
 HarFok:  IExCor= 1009 AccDes= 0.00D+00 IRadAn=         4 IDoV= 1 UseB2=F ITyADJ=14
 ICtDFT=  3500011 ScaDFX=  1.000000  1.000000  1.000000  1.000000
 FoFCou: FMM=F IPFlag=           0 FMFlag=      100000 FMFlg1=           0
         NFxFlg=           0 DoJE=T BraDBF=F KetDBF=T FulRan=T
         wScrn=  0.000000 ICntrl=       500 IOpCl=  0 I1Cent=   200000004 NGrid=           0
         NMat0=    1 NMatS0=      1 NMatT0=    0 NMatD0=    1 NMtDS0=    0 NMtDT0=    0
 Petite list used in FoFCou.
 Harris En= -276.340557609118    
 Leave Link  401 at Sun Sep 29 14:46:02 2019, MaxMem=   671088640 cpu:             133.0 elap:              66.5
 (Enter /shared/centos7/gaussian/g16/l502.exe)
 Integral symmetry usage will be decided dynamically.
 Closed shell SCF:
 Using DIIS extrapolation, IDIIS=  1040.
 NGot=   671088640 LenX=   670604095 LenY=   670368385
 Requested convergence on RMS density matrix=1.00D-08 within 900 cycles.
 Requested convergence on MAX density matrix=1.00D-06.
 Requested convergence on             energy=1.00D-06.
 No special actions if energy rises.
 Fock matrices will be formed incrementally for  20 cycles.
 Integral accuracy reduced to 1.0D-05 until final iterations.

 Cycle   1  Pass 0  IDiag  1:
 FoFJK:  IHMeth= 1 ICntrl=       0 DoSepK=F KAlg= 0 I1Cent=           0 FoldK=F
 IRaf= 960000000 NMat=       1 IRICut=       1 DoRegI=T DoRafI=F ISym2E= 0 IDoP0=0 IntGTp=1.
 FoFCou: FMM=F IPFlag=           0 FMFlag=      100000 FMFlg1=           0
         NFxFlg=           0 DoJE=F BraDBF=F KetDBF=F FulRan=T
         wScrn=  0.000000 ICntrl=         0 IOpCl=  0 I1Cent=           0 NGrid=           0
         NMat0=    1 NMatS0=      1 NMatT0=    0 NMatD0=    1 NMtDS0=    0 NMtDT0=    0
 Symmetry not used in FoFCou.
 E= -276.331919534466    
 DIIS: error= 2.83D-04 at cycle   1 NSaved=   1.
 NSaved= 1 IEnMin= 1 EnMin= -276.331919534466     IErMin= 1 ErrMin= 2.83D-04
 ErrMax= 2.83D-04  0.00D+00 EMaxC= 1.00D-01 BMatC= 5.16D-05 BMatP= 5.16D-05
 IDIUse=3 WtCom= 9.97D-01 WtEn= 2.83D-03
 Coeff-Com:  0.100D+01
 Coeff-En:   0.100D+01
 Coeff:      0.100D+01
 Gap=     0.768 Goal=   None    Shift=    0.000
 RMSDP=1.50D-05 MaxDP=3.93D-04              OVMax= 1.36D-03

 Cycle   2  Pass 0  IDiag  1:
 RMSU=  1.50D-05    CP:  1.00D+00
 E= -276.331979561362     Delta-E=       -0.000060026895 Rises=F Damp=F
 DIIS: error= 3.37D-05 at cycle   2 NSaved=   2.
 NSaved= 2 IEnMin= 2 EnMin= -276.331979561362     IErMin= 2 ErrMin= 3.37D-05
 ErrMax= 3.37D-05  0.00D+00 EMaxC= 1.00D-01 BMatC= 1.06D-06 BMatP= 5.16D-05
 IDIUse=1 WtCom= 1.00D+00 WtEn= 0.00D+00
 Coeff-Com: -0.114D+00 0.111D+01
 Coeff:     -0.114D+00 0.111D+01
 Gap=     0.421 Goal=   None    Shift=    0.000
 RMSDP=3.49D-06 MaxDP=1.01D-04 DE=-6.00D-05 OVMax= 3.59D-04

 Initial convergence to 1.0D-05 achieved.  Increase integral accuracy.
 Cycle   3  Pass 1  IDiag  1:
 E= -276.331979760867     Delta-E=       -0.000000199505 Rises=F Damp=F
 DIIS: error= 5.30D-05 at cycle   1 NSaved=   1.
 NSaved= 1 IEnMin= 1 EnMin= -276.331979760867     IErMin= 1 ErrMin= 5.30D-05
 ErrMax= 5.30D-05  0.00D+00 EMaxC= 1.00D-01 BMatC= 9.55D-07 BMatP= 9.55D-07
 IDIUse=1 WtCom= 1.00D+00 WtEn= 0.00D+00
 Coeff-Com:  0.100D+01
 Coeff:      0.100D+01
 Gap=     0.421 Goal=   None    Shift=    0.000
 RMSDP=3.49D-06 MaxDP=1.01D-04 DE=-2.00D-07 OVMax= 9.30D-05

 Cycle   4  Pass 1  IDiag  1:
 RMSU=  8.23D-06    CP:  1.00D+00
 E= -276.331980182338     Delta-E=       -0.000000421471 Rises=F Damp=F
 DIIS: error= 3.66D-06 at cycle   2 NSaved=   2.
 NSaved= 2 IEnMin= 2 EnMin= -276.331980182338     IErMin= 2 ErrMin= 3.66D-06
 ErrMax= 3.66D-06  0.00D+00 EMaxC= 1.00D-01 BMatC= 1.31D-08 BMatP= 9.55D-07
 IDIUse=1 WtCom= 1.00D+00 WtEn= 0.00D+00
 Coeff-Com: -0.419D-02 0.100D+01
 Coeff:     -0.419D-02 0.100D+01
 Gap=     0.421 Goal=   None    Shift=    0.000
 RMSDP=4.57D-07 MaxDP=1.29D-05 DE=-4.21D-07 OVMax= 3.39D-05

 Cycle   5  Pass 1  IDiag  1:
 RMSU=  3.78D-07    CP:  1.00D+00  1.03D+00
 E= -276.331980189033     Delta-E=       -0.000000006696 Rises=F Damp=F
 DIIS: error= 3.08D-06 at cycle   3 NSaved=   3.
 NSaved= 3 IEnMin= 3 EnMin= -276.331980189033     IErMin= 3 ErrMin= 3.08D-06
 ErrMax= 3.08D-06  0.00D+00 EMaxC= 1.00D-01 BMatC= 8.72D-09 BMatP= 1.31D-08
 IDIUse=1 WtCom= 1.00D+00 WtEn= 0.00D+00
 Coeff-Com: -0.142D-01 0.452D+00 0.563D+00
 Coeff:     -0.142D-01 0.452D+00 0.563D+00
 Gap=     0.421 Goal=   None    Shift=    0.000
 RMSDP=1.33D-07 MaxDP=7.02D-06 DE=-6.70D-09 OVMax= 1.59D-05

 Cycle   6  Pass 1  IDiag  1:
 RMSU=  1.17D-07    CP:  1.00D+00  1.03D+00  8.37D-01
 E= -276.331980197165     Delta-E=       -0.000000008131 Rises=F Damp=F
 DIIS: error= 3.44D-07 at cycle   4 NSaved=   4.
 NSaved= 4 IEnMin= 4 EnMin= -276.331980197165     IErMin= 4 ErrMin= 3.44D-07
 ErrMax= 3.44D-07  0.00D+00 EMaxC= 1.00D-01 BMatC= 1.15D-10 BMatP= 8.72D-09
 IDIUse=1 WtCom= 1.00D+00 WtEn= 0.00D+00
 Coeff-Com: -0.623D-03-0.387D-01 0.457D-01 0.994D+00
 Coeff:     -0.623D-03-0.387D-01 0.457D-01 0.994D+00
 Gap=     0.421 Goal=   None    Shift=    0.000
 RMSDP=3.78D-08 MaxDP=9.39D-07 DE=-8.13D-09 OVMax= 3.34D-06

 Cycle   7  Pass 1  IDiag  1:
 RMSU=  2.32D-08    CP:  1.00D+00  1.03D+00  9.08D-01  1.10D+00
 E= -276.331980197316     Delta-E=       -0.000000000152 Rises=F Damp=F
 DIIS: error= 1.12D-07 at cycle   5 NSaved=   5.
 NSaved= 5 IEnMin= 5 EnMin= -276.331980197316     IErMin= 5 ErrMin= 1.12D-07
 ErrMax= 1.12D-07  0.00D+00 EMaxC= 1.00D-01 BMatC= 1.34D-11 BMatP= 1.15D-10
 IDIUse=1 WtCom= 1.00D+00 WtEn= 0.00D+00
 Coeff-Com:  0.515D-03-0.360D-01-0.141D-01 0.328D+00 0.722D+00
 Coeff:      0.515D-03-0.360D-01-0.141D-01 0.328D+00 0.722D+00
 Gap=     0.421 Goal=   None    Shift=    0.000
 RMSDP=8.49D-09 MaxDP=3.33D-07 DE=-1.52D-10 OVMax= 8.06D-07

 SCF Done:  E(RM062X) =  -276.331980197     A.U. after    7 cycles
            NFock=  7  Conv=0.85D-08     -V/T= 2.0066
 KE= 2.745314864547D+02 PE=-1.305866873547D+03 EE= 4.213148263099D+02
 Leave Link  502 at Sun Sep 29 14:58:26 2019, MaxMem=   671088640 cpu:            1487.7 elap:             744.0
