 Entering Gaussian System, Link 0=g16
 Input=med/species/CCCCCCC/conformers/CCCCCCC_423.com
 Output=med/species/CCCCCCC/conformers/CCCCCCC_423.log
 Initial command:
 /shared/centos7/gaussian/g16/l1.exe "/scratch/harms.n/gauss_scrdir/Gau-46298.inp" -scrdir="/scratch/harms.n/gauss_scrdir/"
 Entering Link 1 = /shared/centos7/gaussian/g16/l1.exe PID=     46299.
  
 Copyright (c) 1988,1990,1992,1993,1995,1998,2003,2009,2016,
            Gaussian, Inc.  All Rights Reserved.
  
 This is part of the Gaussian(R) 16 program.  It is based on
 the Gaussian(R) 09 system (copyright 2009, Gaussian, Inc.),
 the Gaussian(R) 03 system (copyright 2003, Gaussian, Inc.),
 the Gaussian(R) 98 system (copyright 1998, Gaussian, Inc.),
 the Gaussian(R) 94 system (copyright 1995, Gaussian, Inc.),
 the Gaussian 92(TM) system (copyright 1992, Gaussian, Inc.),
 the Gaussian 90(TM) system (copyright 1990, Gaussian, Inc.),
 the Gaussian 88(TM) system (copyright 1988, Gaussian, Inc.),
 the Gaussian 86(TM) system (copyright 1986, Carnegie Mellon
 University), and the Gaussian 82(TM) system (copyright 1983,
 Carnegie Mellon University). Gaussian is a federally registered
 trademark of Gaussian, Inc.
  
 This software contains proprietary and confidential information,
 including trade secrets, belonging to Gaussian, Inc.
  
 This software is provided under written license and may be
 used, copied, transmitted, or stored only in accord with that
 written license.
  
 The following legend is applicable only to US Government
 contracts under FAR:
  
                    RESTRICTED RIGHTS LEGEND
  
 Use, reproduction and disclosure by the US Government is
 subject to restrictions as set forth in subparagraphs (a)
 and (c) of the Commercial Computer Software - Restricted
 Rights clause in FAR 52.227-19.
  
 Gaussian, Inc.
 340 Quinnipiac St., Bldg. 40, Wallingford CT 06492
  
  
 ---------------------------------------------------------------
 Warning -- This program may not be used in any manner that
 competes with the business of Gaussian, Inc. or will provide
 assistance to any competitor of Gaussian, Inc.  The licensee
 of this program is prohibited from giving any competitor of
 Gaussian, Inc. access to this program.  By using this program,
 the user acknowledges that Gaussian, Inc. is engaged in the
 business of creating and licensing software in the field of
 computational chemistry and represents and warrants to the
 licensee that it is not a competitor of Gaussian, Inc. and that
 it will not use this program in any manner prohibited above.
 ---------------------------------------------------------------
  

 Cite this work as:
 Gaussian 16, Revision A.03,
 M. J. Frisch, G. W. Trucks, H. B. Schlegel, G. E. Scuseria, 
 M. A. Robb, J. R. Cheeseman, G. Scalmani, V. Barone, 
 G. A. Petersson, H. Nakatsuji, X. Li, M. Caricato, A. V. Marenich, 
 J. Bloino, B. G. Janesko, R. Gomperts, B. Mennucci, H. P. Hratchian, 
 J. V. Ortiz, A. F. Izmaylov, J. L. Sonnenberg, D. Williams-Young, 
 F. Ding, F. Lipparini, F. Egidi, J. Goings, B. Peng, A. Petrone, 
 T. Henderson, D. Ranasinghe, V. G. Zakrzewski, J. Gao, N. Rega, 
 G. Zheng, W. Liang, M. Hada, M. Ehara, K. Toyota, R. Fukuda, 
 J. Hasegawa, M. Ishida, T. Nakajima, Y. Honda, O. Kitao, H. Nakai, 
 T. Vreven, K. Throssell, J. A. Montgomery, Jr., J. E. Peralta, 
 F. Ogliaro, M. J. Bearpark, J. J. Heyd, E. N. Brothers, K. N. Kudin, 
 V. N. Staroverov, T. A. Keith, R. Kobayashi, J. Normand, 
 K. Raghavachari, A. P. Rendell, J. C. Burant, S. S. Iyengar, 
 J. Tomasi, M. Cossi, J. M. Millam, M. Klene, C. Adamo, R. Cammi, 
 J. W. Ochterski, R. L. Martin, K. Morokuma, O. Farkas, 
 J. B. Foresman, and D. J. Fox, Gaussian, Inc., Wallingford CT, 2016.
 
 ******************************************
 Gaussian 16:  EM64L-G16RevA.03 25-Dec-2016
                28-Sep-2019 
 ******************************************
 %nprocshared=20
 Will use up to   20 processors via shared memory.
 %mem=5GB
 ----------------------------------------------------------------------
 #p m062x/cc-pVTZ opt=(calcfc,maxcycles=900,Tight) freq IOP(7/33=1,2/16
 =3) scf=(maxcycle=900)
 ----------------------------------------------------------------------
 1/6=900,7=10,10=4,18=20,19=15,26=3,38=1/1,3;
 2/9=110,12=2,16=3,17=6,18=5,40=1/2;
 3/5=16,6=1,11=2,25=1,30=1,71=2,74=-55,140=1/1,2,3;
 4//1;
 5/5=2,7=900,38=5/2;
 8/6=4,10=90,11=11/1;
 11/6=1,8=1,9=11,15=111,16=1/1,2,10;
 10/6=1,13=1/2;
 6/7=2,8=2,9=2,10=2,28=1/1;
 7/10=1,18=20,25=1,33=1/1,2,3,16;
 1/6=900,7=10,10=4,18=20,19=15,26=3/3(2);
 2/9=110,16=3/2;
 99//99;
 2/9=110,16=3/2;
 3/5=16,6=1,11=2,25=1,30=1,71=1,74=-55/1,2,3;
 4/5=5,16=3,69=1/1;
 5/5=2,7=900,38=5/2;
 7/33=1/1,2,3,16;
 1/6=900,7=10,18=20,19=15,26=3/3(-5);
 2/9=110,16=3/2;
 6/7=2,8=2,9=2,10=2,19=2,28=1/1;
 99/9=1/99;
 Leave Link    1 at Sat Sep 28 02:07:11 2019, MaxMem=   671088640 cpu:               4.2 elap:               2.1
 (Enter /shared/centos7/gaussian/g16/l101.exe)
 ------------------------------
 Gaussian input prepared by ASE
 ------------------------------
 Symbolic Z-matrix:
 Charge =  0 Multiplicity = 1
 C                     1.39355  -1.12146   0.51936 
 C                     0.13589  -0.41449   0.89411 
 C                     0.31642   0.95062   1.50963 
 C                     2.18963  -0.51816  -0.58848 
 C                    -0.97836   1.63368   1.88203 
 C                     2.7414    0.82888  -0.36351 
 C                    -1.08647   1.98131   3.34401 
 H                     1.54993  -0.5035   -1.51568 
 H                     3.02439  -1.22114  -0.82252 
 H                     1.11768  -2.15159   0.20903 
 H                     2.02638  -1.24041   1.4227 
 H                    -0.41499  -1.05747   1.59824 
 H                    -0.50805  -0.32172  -0.00589 
 H                     0.87554   1.58918   0.80483 
 H                     0.96794   0.86648   2.40382 
 H                    -1.08933   2.56964   1.27444 
 H                    -1.83773   1.00693   1.5889 
 H                     2.50948   1.2161    0.64652 
 H                     3.8664    0.84825  -0.4709 
 H                     2.33421   1.56319  -1.09048 
 H                    -0.117     2.26973   3.75208 
 H                    -1.46607   1.10153   3.93371 
 H                    -1.80787   2.83131   3.51421 
 
 ITRead=  0  0  0  0  0  0  0  0  0  0  0  0  0  0  0  0  0  0  0  0
 ITRead=  0  0  0
 MicOpt= -1 -1 -1 -1 -1 -1 -1 -1 -1 -1 -1 -1 -1 -1 -1 -1 -1 -1 -1 -1
 MicOpt= -1 -1 -1
 NAtoms=     23 NQM=       23 NQMF=       0 NMMI=      0 NMMIF=      0
                NMic=       0 NMicF=      0.
                    Isotopes and Nuclear Properties:
 (Nuclear quadrupole moments (NQMom) in fm**2, nuclear magnetic moments (NMagM)
  in nuclear magnetons)

  Atom         1           2           3           4           5           6           7           8           9          10
 IAtWgt=          12          12          12          12          12          12          12           1           1           1
 AtmWgt=  12.0000000  12.0000000  12.0000000  12.0000000  12.0000000  12.0000000  12.0000000   1.0078250   1.0078250   1.0078250
 NucSpn=           0           0           0           0           0           0           0           1           1           1
 AtZEff=  -0.0000000  -0.0000000  -0.0000000  -0.0000000  -0.0000000  -0.0000000  -0.0000000  -0.0000000  -0.0000000  -0.0000000
 NQMom=    0.0000000   0.0000000   0.0000000   0.0000000   0.0000000   0.0000000   0.0000000   0.0000000   0.0000000   0.0000000
 NMagM=    0.0000000   0.0000000   0.0000000   0.0000000   0.0000000   0.0000000   0.0000000   2.7928460   2.7928460   2.7928460
 AtZNuc=   6.0000000   6.0000000   6.0000000   6.0000000   6.0000000   6.0000000   6.0000000   1.0000000   1.0000000   1.0000000

  Atom        11          12          13          14          15          16          17          18          19          20
 IAtWgt=           1           1           1           1           1           1           1           1           1           1
 AtmWgt=   1.0078250   1.0078250   1.0078250   1.0078250   1.0078250   1.0078250   1.0078250   1.0078250   1.0078250   1.0078250
 NucSpn=           1           1           1           1           1           1           1           1           1           1
 AtZEff=  -0.0000000  -0.0000000  -0.0000000  -0.0000000  -0.0000000  -0.0000000  -0.0000000  -0.0000000  -0.0000000  -0.0000000
 NQMom=    0.0000000   0.0000000   0.0000000   0.0000000   0.0000000   0.0000000   0.0000000   0.0000000   0.0000000   0.0000000
 NMagM=    2.7928460   2.7928460   2.7928460   2.7928460   2.7928460   2.7928460   2.7928460   2.7928460   2.7928460   2.7928460
 AtZNuc=   1.0000000   1.0000000   1.0000000   1.0000000   1.0000000   1.0000000   1.0000000   1.0000000   1.0000000   1.0000000

  Atom        21          22          23
 IAtWgt=           1           1           1
 AtmWgt=   1.0078250   1.0078250   1.0078250
 NucSpn=           1           1           1
 AtZEff=  -0.0000000  -0.0000000  -0.0000000
 NQMom=    0.0000000   0.0000000   0.0000000
 NMagM=    2.7928460   2.7928460   2.7928460
 AtZNuc=   1.0000000   1.0000000   1.0000000
 Leave Link  101 at Sat Sep 28 02:07:12 2019, MaxMem=   671088640 cpu:               2.9 elap:               1.5
 (Enter /shared/centos7/gaussian/g16/l103.exe)

 GradGradGradGradGradGradGradGradGradGradGradGradGradGradGradGradGradGrad
 Berny optimization.
 Initialization pass.
                           ----------------------------
                           !    Initial Parameters    !
                           ! (Angstroms and Degrees)  !
 --------------------------                            --------------------------
 ! Name  Definition              Value          Derivative Info.                !
 --------------------------------------------------------------------------------
 ! R1    R(1,2)                  1.4906         calculate D2E/DX2 analytically  !
 ! R2    R(1,4)                  1.4917         calculate D2E/DX2 analytically  !
 ! R3    R(1,10)                 1.1107         calculate D2E/DX2 analytically  !
 ! R4    R(1,11)                 1.1093         calculate D2E/DX2 analytically  !
 ! R5    R(2,3)                  1.5083         calculate D2E/DX2 analytically  !
 ! R6    R(2,12)                 1.1012         calculate D2E/DX2 analytically  !
 ! R7    R(2,13)                 1.1105         calculate D2E/DX2 analytically  !
 ! R8    R(3,5)                  1.5105         calculate D2E/DX2 analytically  !
 ! R9    R(3,14)                 1.1032         calculate D2E/DX2 analytically  !
 ! R10   R(3,15)                 1.1096         calculate D2E/DX2 analytically  !
 ! R11   R(4,6)                  1.473          calculate D2E/DX2 analytically  !
 ! R12   R(4,8)                  1.1266         calculate D2E/DX2 analytically  !
 ! R13   R(4,9)                  1.1161         calculate D2E/DX2 analytically  !
 ! R14   R(5,7)                  1.5066         calculate D2E/DX2 analytically  !
 ! R15   R(5,16)                 1.1214         calculate D2E/DX2 analytically  !
 ! R16   R(5,17)                 1.1033         calculate D2E/DX2 analytically  !
 ! R17   R(6,18)                 1.1063         calculate D2E/DX2 analytically  !
 ! R18   R(6,19)                 1.1303         calculate D2E/DX2 analytically  !
 ! R19   R(6,20)                 1.1106         calculate D2E/DX2 analytically  !
 ! R20   R(7,21)                 1.0907         calculate D2E/DX2 analytically  !
 ! R21   R(7,22)                 1.1251         calculate D2E/DX2 analytically  !
 ! R22   R(7,23)                 1.1278         calculate D2E/DX2 analytically  !
 ! A1    A(2,1,4)              116.4348         calculate D2E/DX2 analytically  !
 ! A2    A(2,1,10)             107.4916         calculate D2E/DX2 analytically  !
 ! A3    A(2,1,11)             109.1135         calculate D2E/DX2 analytically  !
 ! A4    A(4,1,10)             107.4675         calculate D2E/DX2 analytically  !
 ! A5    A(4,1,11)             110.1024         calculate D2E/DX2 analytically  !
 ! A6    A(10,1,11)            105.65           calculate D2E/DX2 analytically  !
 ! A7    A(1,2,3)              115.5221         calculate D2E/DX2 analytically  !
 ! A8    A(1,2,12)             107.812          calculate D2E/DX2 analytically  !
 ! A9    A(1,2,13)             108.9718         calculate D2E/DX2 analytically  !
 ! A10   A(3,2,12)             109.1103         calculate D2E/DX2 analytically  !
 ! A11   A(3,2,13)             108.9369         calculate D2E/DX2 analytically  !
 ! A12   A(12,2,13)            106.0753         calculate D2E/DX2 analytically  !
 ! A13   A(2,3,5)              114.034          calculate D2E/DX2 analytically  !
 ! A14   A(2,3,14)             108.8935         calculate D2E/DX2 analytically  !
 ! A15   A(2,3,15)             109.3003         calculate D2E/DX2 analytically  !
 ! A16   A(5,3,14)             109.2799         calculate D2E/DX2 analytically  !
 ! A17   A(5,3,15)             109.8114         calculate D2E/DX2 analytically  !
 ! A18   A(14,3,15)            105.1387         calculate D2E/DX2 analytically  !
 ! A19   A(1,4,6)              117.1524         calculate D2E/DX2 analytically  !
 ! A20   A(1,4,8)              108.2693         calculate D2E/DX2 analytically  !
 ! A21   A(1,4,9)              107.4664         calculate D2E/DX2 analytically  !
 ! A22   A(6,4,8)              109.0573         calculate D2E/DX2 analytically  !
 ! A23   A(6,4,9)              109.1388         calculate D2E/DX2 analytically  !
 ! A24   A(8,4,9)              105.0876         calculate D2E/DX2 analytically  !
 ! A25   A(3,5,7)              113.8961         calculate D2E/DX2 analytically  !
 ! A26   A(3,5,16)             109.1881         calculate D2E/DX2 analytically  !
 ! A27   A(3,5,17)             110.1991         calculate D2E/DX2 analytically  !
 ! A28   A(7,5,16)             109.0311         calculate D2E/DX2 analytically  !
 ! A29   A(7,5,17)             109.4507         calculate D2E/DX2 analytically  !
 ! A30   A(16,5,17)            104.6607         calculate D2E/DX2 analytically  !
 ! A31   A(4,6,18)             112.3962         calculate D2E/DX2 analytically  !
 ! A32   A(4,6,19)             111.9632         calculate D2E/DX2 analytically  !
 ! A33   A(4,6,20)             111.5515         calculate D2E/DX2 analytically  !
 ! A34   A(18,6,19)            106.8226         calculate D2E/DX2 analytically  !
 ! A35   A(18,6,20)            106.8176         calculate D2E/DX2 analytically  !
 ! A36   A(19,6,20)            106.9411         calculate D2E/DX2 analytically  !
 ! A37   A(5,7,21)             111.1176         calculate D2E/DX2 analytically  !
 ! A38   A(5,7,22)             110.6326         calculate D2E/DX2 analytically  !
 ! A39   A(5,7,23)             111.4845         calculate D2E/DX2 analytically  !
 ! A40   A(21,7,22)            108.0944         calculate D2E/DX2 analytically  !
 ! A41   A(21,7,23)            108.2286         calculate D2E/DX2 analytically  !
 ! A42   A(22,7,23)            107.1243         calculate D2E/DX2 analytically  !
 ! D1    D(4,1,2,3)            -66.775          calculate D2E/DX2 analytically  !
 ! D2    D(4,1,2,12)           170.9179         calculate D2E/DX2 analytically  !
 ! D3    D(4,1,2,13)            56.2094         calculate D2E/DX2 analytically  !
 ! D4    D(10,1,2,3)           172.685          calculate D2E/DX2 analytically  !
 ! D5    D(10,1,2,12)           50.3779         calculate D2E/DX2 analytically  !
 ! D6    D(10,1,2,13)          -64.3305         calculate D2E/DX2 analytically  !
 ! D7    D(11,1,2,3)            58.5712         calculate D2E/DX2 analytically  !
 ! D8    D(11,1,2,12)          -63.7359         calculate D2E/DX2 analytically  !
 ! D9    D(11,1,2,13)         -178.4444         calculate D2E/DX2 analytically  !
 ! D10   D(2,1,4,6)             63.2            calculate D2E/DX2 analytically  !
 ! D11   D(2,1,4,8)            -60.5622         calculate D2E/DX2 analytically  !
 ! D12   D(2,1,4,9)           -173.5937         calculate D2E/DX2 analytically  !
 ! D13   D(10,1,4,6)          -176.2472         calculate D2E/DX2 analytically  !
 ! D14   D(10,1,4,8)            59.9907         calculate D2E/DX2 analytically  !
 ! D15   D(10,1,4,9)           -53.0409         calculate D2E/DX2 analytically  !
 ! D16   D(11,1,4,6)           -61.6449         calculate D2E/DX2 analytically  !
 ! D17   D(11,1,4,8)           174.593          calculate D2E/DX2 analytically  !
 ! D18   D(11,1,4,9)            61.5614         calculate D2E/DX2 analytically  !
 ! D19   D(1,2,3,5)           -179.7345         calculate D2E/DX2 analytically  !
 ! D20   D(1,2,3,14)            57.9396         calculate D2E/DX2 analytically  !
 ! D21   D(1,2,3,15)           -56.4111         calculate D2E/DX2 analytically  !
 ! D22   D(12,2,3,5)           -58.1221         calculate D2E/DX2 analytically  !
 ! D23   D(12,2,3,14)          179.5519         calculate D2E/DX2 analytically  !
 ! D24   D(12,2,3,15)           65.2013         calculate D2E/DX2 analytically  !
 ! D25   D(13,2,3,5)            57.2627         calculate D2E/DX2 analytically  !
 ! D26   D(13,2,3,14)          -65.0633         calculate D2E/DX2 analytically  !
 ! D27   D(13,2,3,15)         -179.414          calculate D2E/DX2 analytically  !
 ! D28   D(2,3,5,7)            121.0954         calculate D2E/DX2 analytically  !
 ! D29   D(2,3,5,16)          -116.7762         calculate D2E/DX2 analytically  !
 ! D30   D(2,3,5,17)            -2.3464         calculate D2E/DX2 analytically  !
 ! D31   D(14,3,5,7)          -116.7908         calculate D2E/DX2 analytically  !
 ! D32   D(14,3,5,16)            5.3376         calculate D2E/DX2 analytically  !
 ! D33   D(14,3,5,17)          119.7674         calculate D2E/DX2 analytically  !
 ! D34   D(15,3,5,7)            -1.9504         calculate D2E/DX2 analytically  !
 ! D35   D(15,3,5,16)          120.178          calculate D2E/DX2 analytically  !
 ! D36   D(15,3,5,17)         -125.3922         calculate D2E/DX2 analytically  !
 ! D37   D(1,4,6,18)             1.8133         calculate D2E/DX2 analytically  !
 ! D38   D(1,4,6,19)           122.0586         calculate D2E/DX2 analytically  !
 ! D39   D(1,4,6,20)          -118.1342         calculate D2E/DX2 analytically  !
 ! D40   D(8,4,6,18)           125.1743         calculate D2E/DX2 analytically  !
 ! D41   D(8,4,6,19)          -114.5804         calculate D2E/DX2 analytically  !
 ! D42   D(8,4,6,20)             5.2268         calculate D2E/DX2 analytically  !
 ! D43   D(9,4,6,18)          -120.5338         calculate D2E/DX2 analytically  !
 ! D44   D(9,4,6,19)            -0.2885         calculate D2E/DX2 analytically  !
 ! D45   D(9,4,6,20)           119.5187         calculate D2E/DX2 analytically  !
 ! D46   D(3,5,7,21)            35.3033         calculate D2E/DX2 analytically  !
 ! D47   D(3,5,7,22)           -84.775          calculate D2E/DX2 analytically  !
 ! D48   D(3,5,7,23)           156.126          calculate D2E/DX2 analytically  !
 ! D49   D(16,5,7,21)          -86.9117         calculate D2E/DX2 analytically  !
 ! D50   D(16,5,7,22)          153.01           calculate D2E/DX2 analytically  !
 ! D51   D(16,5,7,23)           33.9111         calculate D2E/DX2 analytically  !
 ! D52   D(17,5,7,21)          159.1505         calculate D2E/DX2 analytically  !
 ! D53   D(17,5,7,22)           39.0722         calculate D2E/DX2 analytically  !
 ! D54   D(17,5,7,23)          -80.0267         calculate D2E/DX2 analytically  !
 --------------------------------------------------------------------------------
 Trust Radius=3.00D-01 FncErr=1.00D-07 GrdErr=1.00D-06 EigMax=2.50D+02 EigMin=1.00D-04
 Number of steps in this run=    138 maximum allowed number of steps=    138.
 GradGradGradGradGradGradGradGradGradGradGradGradGradGradGradGradGradGrad

 Leave Link  103 at Sat Sep 28 02:07:13 2019, MaxMem=   671088640 cpu:               1.4 elap:               0.7
 (Enter /shared/centos7/gaussian/g16/l202.exe)
                          Input orientation:                          
 ---------------------------------------------------------------------
 Center     Atomic      Atomic             Coordinates (Angstroms)
 Number     Number       Type             X           Y           Z
 ---------------------------------------------------------------------
      1          6           0        1.393554   -1.121459    0.519364
      2          6           0        0.135889   -0.414489    0.894111
      3          6           0        0.316421    0.950622    1.509630
      4          6           0        2.189635   -0.518164   -0.588480
      5          6           0       -0.978358    1.633677    1.882034
      6          6           0        2.741400    0.828881   -0.363509
      7          6           0       -1.086471    1.981312    3.344014
      8          1           0        1.549935   -0.503501   -1.515682
      9          1           0        3.024385   -1.221137   -0.822521
     10          1           0        1.117684   -2.151588    0.209033
     11          1           0        2.026384   -1.240413    1.422702
     12          1           0       -0.414992   -1.057466    1.598239
     13          1           0       -0.508046   -0.321724   -0.005888
     14          1           0        0.875542    1.589181    0.804825
     15          1           0        0.967943    0.866477    2.403824
     16          1           0       -1.089334    2.569643    1.274438
     17          1           0       -1.837733    1.006933    1.588901
     18          1           0        2.509478    1.216097    0.646519
     19          1           0        3.866400    0.848255   -0.470905
     20          1           0        2.334213    1.563189   -1.090477
     21          1           0       -0.116998    2.269727    3.752079
     22          1           0       -1.466073    1.101525    3.933707
     23          1           0       -1.807867    2.831314    3.514213
 ---------------------------------------------------------------------
                    Distance matrix (angstroms):
                    1          2          3          4          5
     1  C    0.000000
     2  C    1.490625   0.000000
     3  C    2.536604   1.508304   0.000000
     4  C    1.491652   2.535093   3.173062   0.000000
     5  C    3.882475   2.532296   1.510531   4.557415   0.000000
     6  C    2.529818   3.149010   3.066592   1.472952   4.418909
     7  C    4.874050   3.638138   2.528912   5.696030   1.506627
     8  H    2.132543   2.795452   3.576107   1.126559   4.743866
     9  H    2.114285   3.455563   4.181929   1.116134   5.611286
    10  H    1.110665   2.109684   3.457930   2.110256   4.639025
    11  H    1.109344   2.129678   2.780676   2.143163   4.183283
    12  H    2.106871   1.101220   2.138979   3.443351   2.764086
    13  H    2.128743   1.110520   2.143689   2.766854   2.758448
    14  H    2.774418   2.137698   1.103233   2.847638   2.144599
    15  H    2.772043   2.147655   1.109570   3.516197   2.156142
    16  H    4.512107   3.248209   2.157010   4.874080   1.121392
    17  H    4.014372   2.529498   2.156348   4.825619   1.103295
    18  H    2.593381   2.890335   2.371695   2.152947   3.723691
    19  H    3.312910   4.168273   4.066368   2.166210   5.442876
    20  H    3.268602   3.561239   3.347727   2.145911   4.451282
    21  H    4.922637   3.928988   2.637512   5.650959   2.154895
    22  H    4.977636   3.755492   3.012674   6.036370   2.174952
    23  H    5.902765   4.601995   3.473897   6.635594   2.187791
                    6          7          8          9         10
     6  C    0.000000
     7  C    5.452194   0.000000
     8  H    2.126578   6.061483   0.000000
     9  H    2.119752   6.671944   1.780303   0.000000
    10  H    3.442014   5.636246   2.424392   2.359100   0.000000
    11  H    2.825557   4.874507   3.066618   2.457113   1.768889
    12  H    4.167681   3.568303   3.723482   4.209059   2.340105
    13  H    3.465643   4.106141   2.558868   3.735492   2.457151
    14  H    2.329052   3.232761   3.196698   3.894056   3.795650
    15  H    3.287049   2.519411   4.192623   4.358485   3.734735
    16  H    4.515268   2.151578   4.918814   5.974106   5.319403
    17  H    4.981171   2.143416   4.836956   5.866809   4.540351
    18  H    1.106291   4.559921   2.924526   2.891940   3.670122
    19  H    1.130281   6.353610   2.878336   2.261638   4.125145
    20  H    1.110627   5.616104   2.251021   2.881078   4.119252
    21  H    5.213879   1.090678   6.182133   6.556019   5.798762
    22  H    6.020234   1.125104   6.431816   6.941230   5.579583
    23  H    6.304148   1.127778   6.906205   7.653776   6.656754
                   11         12         13         14         15
    11  H    0.000000
    12  H    2.454506   0.000000
    13  H    3.050933   1.767257   0.000000
    14  H    3.116538   3.049545   2.494620   0.000000
    15  H    2.553797   2.502605   3.065465   1.757167   0.000000
    16  H    4.924044   3.703445   3.215142   2.245569   2.899772
    17  H    4.473208   2.507195   2.465106   2.883687   2.925004
    18  H    2.621122   3.824576   3.449055   1.683449   2.363617
    19  H    3.366592   5.122836   4.552018   3.334920   4.082335
    20  H    3.777699   4.653509   3.578779   2.391771   3.816051
    21  H    4.726644   3.974675   4.581578   3.183486   2.228003
    22  H    4.897660   3.349691   4.296960   3.938384   2.884479
    23  H    5.971169   4.553424   4.901254   4.010531   3.577523
                   16         17         18         19         20
    16  H    0.000000
    17  H    1.760980   0.000000
    18  H    3.895872   4.453098   0.000000
    19  H    5.528898   6.066722   1.795879   0.000000
    20  H    4.280940   4.989351   1.779985   1.800722   0.000000
    21  H    2.678450   3.038901   4.201549   5.976758   5.473389
    22  H    3.060884   2.375962   5.159819   6.920984   6.316465
    23  H    2.366717   2.652562   5.428818   7.211865   6.322036
                   21         22         23
    21  H    0.000000
    22  H    1.793791   0.000000
    23  H    1.797498   1.812448   0.000000
 Stoichiometry    C7H16
 Framework group  C1[X(C7H16)]
 Deg. of freedom    63
 Full point group                 C1      NOp   1
 Largest Abelian subgroup         C1      NOp   1
 Largest concise Abelian subgroup C1      NOp   1
                         Standard orientation:                         
 ---------------------------------------------------------------------
 Center     Atomic      Atomic             Coordinates (Angstroms)
 Number     Number       Type             X           Y           Z
 ---------------------------------------------------------------------
      1          6           0       -1.475606   -1.056645   -0.378971
      2          6           0       -0.115661   -1.047698    0.231302
      3          6           0        0.715121    0.179195   -0.050684
      4          6           0       -2.443880   -0.048641    0.141989
      5          6           0        2.088262    0.150211    0.578083
      6          6           0       -2.110144    1.371571   -0.060999
      7          6           0        3.216378    0.262598   -0.414212
      8          1           0       -2.592785   -0.237850    1.242517
      9          1           0       -3.434300   -0.262335   -0.326155
     10          1           0       -1.913860   -2.061905   -0.203014
     11          1           0       -1.380302   -0.960280   -1.480005
     12          1           0        0.421845   -1.938074   -0.130641
     13          1           0       -0.212390   -1.172612    1.330527
     14          1           0        0.169904    1.069526    0.305930
     15          1           0        0.806779    0.315779   -1.147993
     16          1           0        2.170817    0.985485    1.321738
     17          1           0        2.214465   -0.768851    1.175290
     18          1           0       -1.165656    1.506751   -0.620954
     19          1           0       -2.914122    1.916277   -0.639316
     20          1           0       -1.989571    1.904558    0.905892
     21          1           0        2.948654    0.922257   -1.240500
     22          1           0        3.470824   -0.746753   -0.841210
     23          1           0        4.152878    0.664475    0.068848
 ---------------------------------------------------------------------
 Rotational constants (GHZ):           5.1347725           1.1382123           1.0177454
 Leave Link  202 at Sat Sep 28 02:07:15 2019, MaxMem=   671088640 cpu:               3.9 elap:               1.9
 (Enter /shared/centos7/gaussian/g16/l301.exe)
 Standard basis: CC-pVTZ (5D, 7F)
 Ernie: Thresh=  0.10000D-02 Tol=  0.10000D-05 Strict=F.
 Ernie:  21 primitive shells out of 310 were deleted.
 There are   485 symmetry adapted cartesian basis functions of A   symmetry.
 There are   434 symmetry adapted basis functions of A   symmetry.
   434 basis functions,   636 primitive gaussians,   485 cartesian basis functions
    29 alpha electrons       29 beta electrons
       nuclear repulsion energy       324.3540252077 Hartrees.
 IExCor= 4336 DFT=T Ex+Corr=M062X ExCW=0 ScaHFX=  0.540000
 ScaDFX=  1.000000  1.000000  1.000000  1.000000 ScalE2=  1.000000  1.000000
 IRadAn=      5 IRanWt=     -1 IRanGd=            0 ICorTp=0 IEmpDi=  4
 NAtoms=   23 NActive=   23 NUniq=   23 SFac= 1.00D+00 NAtFMM=   60 NAOKFM=F Big=F
 Integral buffers will be    131072 words long.
 Raffenetti 2 integral format.
 Two-electron integral symmetry is turned on.
 Leave Link  301 at Sat Sep 28 02:07:16 2019, MaxMem=   671088640 cpu:               1.7 elap:               1.3
 (Enter /shared/centos7/gaussian/g16/l302.exe)
 NPDir=0 NMtPBC=     1 NCelOv=     1 NCel=       1 NClECP=     1 NCelD=      1
         NCelK=      1 NCelE2=     1 NClLst=     1 CellRange=     0.0.
 One-electron integrals computed using PRISM.
 One-electron integral symmetry used in STVInt
 NBasis=   434 RedAO= T EigKep=  3.02D-04  NBF=   434
 NBsUse=   434 1.00D-06 EigRej= -1.00D+00 NBFU=   434
 Precomputing XC quadrature grid using
 IXCGrd= 4 IRadAn=           5 IRanWt=          -1 IRanGd=           0 AccXCQ= 0.00D+00.
 Generated NRdTot=       0 NPtTot=           0 NUsed=           0 NTot=          32
 NSgBfM=   485   485   485   485   485 MxSgAt=    23 MxSgA2=    23.
 Leave Link  302 at Sat Sep 28 02:08:47 2019, MaxMem=   671088640 cpu:             180.8 elap:              90.4
 (Enter /shared/centos7/gaussian/g16/l303.exe)
 DipDrv:  MaxL=1.
 Leave Link  303 at Sat Sep 28 02:08:52 2019, MaxMem=   671088640 cpu:              11.1 elap:               5.6
 (Enter /shared/centos7/gaussian/g16/l401.exe)
 ExpMin= 1.03D-01 ExpMax= 8.24D+03 ExpMxC= 2.81D+02 IAcc=3 IRadAn=         5 AccDes= 0.00D+00
 Harris functional with IExCor= 1009 and IRadAn=       5 diagonalized for initial guess.
 HarFok:  IExCor= 1009 AccDes= 0.00D+00 IRadAn=         5 IDoV= 1 UseB2=F ITyADJ=14
 ICtDFT=  3500011 ScaDFX=  1.000000  1.000000  1.000000  1.000000
 FoFCou: FMM=F IPFlag=           0 FMFlag=      100000 FMFlg1=           0
         NFxFlg=           0 DoJE=T BraDBF=F KetDBF=T FulRan=T
         wScrn=  0.000000 ICntrl=       500 IOpCl=  0 I1Cent=   200000004 NGrid=           0
         NMat0=    1 NMatS0=      1 NMatT0=    0 NMatD0=    1 NMtDS0=    0 NMtDT0=    0
 Petite list used in FoFCou.
 Harris En= -276.318480974508    
 JPrj=0 DoOrth=F DoCkMO=F.
 Leave Link  401 at Sat Sep 28 02:09:54 2019, MaxMem=   671088640 cpu:             123.0 elap:              61.6
 (Enter /shared/centos7/gaussian/g16/l502.exe)
 Integral symmetry usage will be decided dynamically.
 Closed shell SCF:
 Using DIIS extrapolation, IDIIS=  1040.
 NGot=   671088640 LenX=   670604095 LenY=   670368385
 Requested convergence on RMS density matrix=1.00D-08 within 900 cycles.
 Requested convergence on MAX density matrix=1.00D-06.
 Requested convergence on             energy=1.00D-06.
 No special actions if energy rises.
 Fock matrices will be formed incrementally for  20 cycles.
 Integral accuracy reduced to 1.0D-05 until final iterations.

 Cycle   1  Pass 0  IDiag  1:
 FoFJK:  IHMeth= 1 ICntrl=       0 DoSepK=F KAlg= 0 I1Cent=           0 FoldK=F
 IRaf= 930000000 NMat=       1 IRICut=       1 DoRegI=T DoRafI=F ISym2E= 0 IDoP0=0 IntGTp=1.
 FoFCou: FMM=F IPFlag=           0 FMFlag=      100000 FMFlg1=           0
         NFxFlg=           0 DoJE=F BraDBF=F KetDBF=F FulRan=T
         wScrn=  0.000000 ICntrl=         0 IOpCl=  0 I1Cent=           0 NGrid=           0
         NMat0=    1 NMatS0=      1 NMatT0=    0 NMatD0=    1 NMtDS0=    0 NMtDT0=    0
 Symmetry not used in FoFCou.
 E= -275.948704240918    
 DIIS: error= 3.20D-02 at cycle   1 NSaved=   1.
 NSaved= 1 IEnMin= 1 EnMin= -275.948704240918     IErMin= 1 ErrMin= 3.20D-02
 ErrMax= 3.20D-02  0.00D+00 EMaxC= 1.00D-01 BMatC= 3.74D-01 BMatP= 3.74D-01
 IDIUse=3 WtCom= 6.80D-01 WtEn= 3.20D-01
 Coeff-Com:  0.100D+01
 Coeff-En:   0.100D+01
 Coeff:      0.100D+01
 Gap=     0.350 Goal=   None    Shift=    0.000
 GapD=    0.350 DampG=1.000 DampE=0.500 DampFc=0.5000 IDamp=-1.
 Damping current iteration by 5.00D-01
 RMSDP=1.93D-03 MaxDP=7.47D-02              OVMax= 1.70D-01

 Cycle   2  Pass 0  IDiag  1:
 RMSU=  9.64D-04    CP:  9.90D-01
 E= -276.128031277087     Delta-E=       -0.179327036169 Rises=F Damp=T
 DIIS: error= 4.47D-03 at cycle   2 NSaved=   2.
 NSaved= 2 IEnMin= 2 EnMin= -276.128031277087     IErMin= 2 ErrMin= 4.47D-03
 ErrMax= 4.47D-03  0.00D+00 EMaxC= 1.00D-01 BMatC= 1.84D-02 BMatP= 3.74D-01
 IDIUse=3 WtCom= 9.55D-01 WtEn= 4.47D-02
 Coeff-Com: -0.559D-01 0.106D+01
 Coeff-En:   0.000D+00 0.100D+01
 Coeff:     -0.534D-01 0.105D+01
 Gap=     0.438 Goal=   None    Shift=    0.000
 RMSDP=5.39D-04 MaxDP=1.82D-02 DE=-1.79D-01 OVMax= 8.91D-02

 Cycle   3  Pass 0  IDiag  1:
 RMSU=  5.30D-04    CP:  9.97D-01  9.16D-01
 E= -276.306542224413     Delta-E=       -0.178510947326 Rises=F Damp=F
 DIIS: error= 2.11D-03 at cycle   3 NSaved=   3.
 NSaved= 3 IEnMin= 3 EnMin= -276.306542224413     IErMin= 3 ErrMin= 2.11D-03
 ErrMax= 2.11D-03  0.00D+00 EMaxC= 1.00D-01 BMatC= 2.41D-03 BMatP= 1.84D-02
 IDIUse=3 WtCom= 9.79D-01 WtEn= 2.11D-02
 Coeff-Com: -0.502D-01 0.231D+00 0.819D+00
 Coeff-En:   0.000D+00 0.000D+00 0.100D+01
 Coeff:     -0.491D-01 0.226D+00 0.823D+00
 Gap=     0.408 Goal=   None    Shift=    0.000
 RMSDP=9.06D-05 MaxDP=3.04D-03 DE=-1.79D-01 OVMax= 9.43D-03

 Cycle   4  Pass 0  IDiag  1:
 RMSU=  7.21D-05    CP:  9.96D-01  9.61D-01  9.38D-01
 E= -276.308640255071     Delta-E=       -0.002098030658 Rises=F Damp=F
 DIIS: error= 7.96D-04 at cycle   4 NSaved=   4.
 NSaved= 4 IEnMin= 4 EnMin= -276.308640255071     IErMin= 4 ErrMin= 7.96D-04
 ErrMax= 7.96D-04  0.00D+00 EMaxC= 1.00D-01 BMatC= 2.58D-04 BMatP= 2.41D-03
 IDIUse=3 WtCom= 9.92D-01 WtEn= 7.96D-03
 Coeff-Com: -0.133D-01 0.375D-01 0.284D+00 0.692D+00
 Coeff-En:   0.000D+00 0.000D+00 0.000D+00 0.100D+01
 Coeff:     -0.132D-01 0.372D-01 0.281D+00 0.695D+00
 Gap=     0.410 Goal=   None    Shift=    0.000
 RMSDP=3.02D-05 MaxDP=1.34D-03 DE=-2.10D-03 OVMax= 2.86D-03

 Cycle   5  Pass 0  IDiag  1:
 RMSU=  1.83D-05    CP:  9.97D-01  9.55D-01  9.68D-01  7.71D-01
 E= -276.308872030570     Delta-E=       -0.000231775499 Rises=F Damp=F
 DIIS: error= 2.08D-04 at cycle   5 NSaved=   5.
 NSaved= 5 IEnMin= 5 EnMin= -276.308872030570     IErMin= 5 ErrMin= 2.08D-04
 ErrMax= 2.08D-04  0.00D+00 EMaxC= 1.00D-01 BMatC= 2.06D-05 BMatP= 2.58D-04
 IDIUse=3 WtCom= 9.98D-01 WtEn= 2.08D-03
 Coeff-Com: -0.151D-02 0.666D-03 0.561D-01 0.267D+00 0.678D+00
 Coeff-En:   0.000D+00 0.000D+00 0.000D+00 0.000D+00 0.100D+01
 Coeff:     -0.151D-02 0.665D-03 0.560D-01 0.266D+00 0.679D+00
 Gap=     0.409 Goal=   None    Shift=    0.000
 RMSDP=7.30D-06 MaxDP=3.85D-04 DE=-2.32D-04 OVMax= 8.32D-04

 Initial convergence to 1.0D-05 achieved.  Increase integral accuracy.
 Cycle   6  Pass 1  IDiag  1:
 E= -276.308869071916     Delta-E=        0.000002958654 Rises=F Damp=F
 DIIS: error= 3.84D-05 at cycle   1 NSaved=   1.
 NSaved= 1 IEnMin= 1 EnMin= -276.308869071916     IErMin= 1 ErrMin= 3.84D-05
 ErrMax= 3.84D-05  0.00D+00 EMaxC= 1.00D-01 BMatC= 1.46D-06 BMatP= 1.46D-06
 IDIUse=1 WtCom= 1.00D+00 WtEn= 0.00D+00
 Coeff-Com:  0.100D+01
 Coeff:      0.100D+01
 Gap=     0.409 Goal=   None    Shift=    0.000
 RMSDP=7.30D-06 MaxDP=3.85D-04 DE= 2.96D-06 OVMax= 2.63D-04

 Cycle   7  Pass 1  IDiag  1:
 RMSU=  1.07D-05    CP:  1.00D+00
 E= -276.308869791321     Delta-E=       -0.000000719405 Rises=F Damp=F
 DIIS: error= 3.24D-05 at cycle   2 NSaved=   2.
 NSaved= 2 IEnMin= 2 EnMin= -276.308869791321     IErMin= 2 ErrMin= 3.24D-05
 ErrMax= 3.24D-05  0.00D+00 EMaxC= 1.00D-01 BMatC= 4.03D-07 BMatP= 1.46D-06
 IDIUse=1 WtCom= 1.00D+00 WtEn= 0.00D+00
 Coeff-Com:  0.299D+00 0.701D+00
 Coeff:      0.299D+00 0.701D+00
 Gap=     0.409 Goal=   None    Shift=    0.000
 RMSDP=1.25D-06 MaxDP=5.97D-05 DE=-7.19D-07 OVMax= 1.36D-04

 Cycle   8  Pass 1  IDiag  1:
 RMSU=  1.25D-06    CP:  1.00D+00  1.00D+00
 E= -276.308870123330     Delta-E=       -0.000000332009 Rises=F Damp=F
 DIIS: error= 1.12D-05 at cycle   3 NSaved=   3.
 NSaved= 3 IEnMin= 3 EnMin= -276.308870123330     IErMin= 3 ErrMin= 1.12D-05
 ErrMax= 1.12D-05  0.00D+00 EMaxC= 1.00D-01 BMatC= 6.74D-08 BMatP= 4.03D-07
 IDIUse=1 WtCom= 1.00D+00 WtEn= 0.00D+00
 Coeff-Com: -0.230D-02 0.282D+00 0.721D+00
 Coeff:     -0.230D-02 0.282D+00 0.721D+00
 Gap=     0.409 Goal=   None    Shift=    0.000
 RMSDP=4.35D-07 MaxDP=1.70D-05 DE=-3.32D-07 OVMax= 4.70D-05

 Cycle   9  Pass 1  IDiag  1:
 RMSU=  2.99D-07    CP:  1.00D+00  1.02D+00  8.01D-01
 E= -276.308870188161     Delta-E=       -0.000000064831 Rises=F Damp=F
 DIIS: error= 1.95D-06 at cycle   4 NSaved=   4.
 NSaved= 4 IEnMin= 4 EnMin= -276.308870188161     IErMin= 4 ErrMin= 1.95D-06
 ErrMax= 1.95D-06  0.00D+00 EMaxC= 1.00D-01 BMatC= 1.81D-09 BMatP= 6.74D-08
 IDIUse=1 WtCom= 1.00D+00 WtEn= 0.00D+00
 Coeff-Com: -0.118D-01 0.700D-01 0.240D+00 0.701D+00
 Coeff:     -0.118D-01 0.700D-01 0.240D+00 0.701D+00
 Gap=     0.409 Goal=   None    Shift=    0.000
 RMSDP=8.60D-08 MaxDP=3.19D-06 DE=-6.48D-08 OVMax= 8.03D-06

 Cycle  10  Pass 1  IDiag  1:
 RMSU=  7.96D-08    CP:  1.00D+00  1.02D+00  8.11D-01  9.28D-01
 E= -276.308870189997     Delta-E=       -0.000000001836 Rises=F Damp=F
 DIIS: error= 3.76D-07 at cycle   5 NSaved=   5.
 NSaved= 5 IEnMin= 5 EnMin= -276.308870189997     IErMin= 5 ErrMin= 3.76D-07
 ErrMax= 3.76D-07  0.00D+00 EMaxC= 1.00D-01 BMatC= 5.87D-11 BMatP= 1.81D-09
 IDIUse=1 WtCom= 1.00D+00 WtEn= 0.00D+00
 Coeff-Com: -0.791D-03-0.140D-01-0.318D-01 0.567D-01 0.990D+00
 Coeff:     -0.791D-03-0.140D-01-0.318D-01 0.567D-01 0.990D+00
 Gap=     0.409 Goal=   None    Shift=    0.000
 RMSDP=3.26D-08 MaxDP=8.11D-07 DE=-1.84D-09 OVMax= 2.36D-06

 Cycle  11  Pass 1  IDiag  1:
 RMSU=  1.74D-08    CP:  1.00D+00  1.03D+00  8.14D-01  1.01D+00  1.14D+00
 E= -276.308870190063     Delta-E=       -0.000000000067 Rises=F Damp=F
 DIIS: error= 1.72D-07 at cycle   6 NSaved=   6.
 NSaved= 6 IEnMin= 6 EnMin= -276.308870190063     IErMin= 6 ErrMin= 1.72D-07
 ErrMax= 1.72D-07  0.00D+00 EMaxC= 1.00D-01 BMatC= 1.76D-11 BMatP= 5.87D-11
 IDIUse=1 WtCom= 1.00D+00 WtEn= 0.00D+00
 Coeff-Com:  0.457D-03-0.112D-01-0.314D-01-0.256D-01 0.448D+00 0.620D+00
 Coeff:      0.457D-03-0.112D-01-0.314D-01-0.256D-01 0.448D+00 0.620D+00
 Gap=     0.409 Goal=   None    Shift=    0.000
 RMSDP=6.75D-09 MaxDP=2.73D-07 DE=-6.67D-11 OVMax= 7.18D-07

 SCF Done:  E(RM062X) =  -276.308870190     A.U. after   11 cycles
            NFock= 11  Conv=0.67D-08     -V/T= 2.0065
 KE= 2.745180501990D+02 PE=-1.287149153768D+03 EE= 4.119682081716D+02
 Leave Link  502 at Sat Sep 28 02:31:07 2019, MaxMem=   671088640 cpu:            2546.0 elap:            1273.5
 (Enter /shared/centos7/gaussian/g16/l801.exe)
 DoSCS=F DFT=T ScalE2(SS,OS)=  1.000000  1.000000
 Range of M.O.s used for correlation:     1   434
 NBasis=   434 NAE=    29 NBE=    29 NFC=     0 NFV=     0
 NROrb=    434 NOA=    29 NOB=    29 NVA=   405 NVB=   405

 **** Warning!!: The largest alpha MO coefficient is  0.10411642D+02

 Leave Link  801 at Sat Sep 28 02:31:08 2019, MaxMem=   671088640 cpu:               1.6 elap:               0.8
 (Enter /shared/centos7/gaussian/g16/l1101.exe)
 Using compressed storage, NAtomX=    23.
 Will process     24 centers per pass.
 Leave Link 1101 at Sat Sep 28 02:31:55 2019, MaxMem=   671088640 cpu:              93.9 elap:              47.0
 (Enter /shared/centos7/gaussian/g16/l1102.exe)
 Symmetrizing basis deriv contribution to polar:
 IMax=3 JMax=2 DiffMx= 0.00D+00
 Leave Link 1102 at Sat Sep 28 02:31:59 2019, MaxMem=   671088640 cpu:               7.3 elap:               3.7
 (Enter /shared/centos7/gaussian/g16/l1110.exe)
 Forming Gx(P) for the SCF density, NAtomX=    23.
 Integral derivatives from FoFJK, PRISM(SPDF).
 Do as many integral derivatives as possible in FoFJK.
 G2DrvN: MDV=     671086848.
 G2DrvN: will do    24 centers at a time, making    1 passes.
 Calling FoFCou, ICntrl=  3107 FMM=F I1Cent=   0 AccDes= 0.00D+00.
 FoFJK:  IHMeth= 1 ICntrl=    3107 DoSepK=F KAlg= 0 I1Cent=           0 FoldK=F
 IRaf=         0 NMat=       1 IRICut=       1 DoRegI=T DoRafI=F ISym2E= 0 IDoP0=0 IntGTp=1.
 FoFCou: FMM=F IPFlag=           0 FMFlag=      100000 FMFlg1=           0
         NFxFlg=           0 DoJE=F BraDBF=F KetDBF=F FulRan=T
         wScrn=  0.000000 ICntrl=      3107 IOpCl=  0 I1Cent=           0 NGrid=           0
         NMat0=    1 NMatS0=      1 NMatT0=    0 NMatD0=    1 NMtDS0=    0 NMtDT0=    0
 Symmetry not used in FoFCou.
 End of G2Drv F.D. properties file   721 does not exist.
 End of G2Drv F.D. properties file   722 does not exist.
 End of G2Drv F.D. properties file   788 does not exist.
 Leave Link 1110 at Sat Sep 28 03:25:48 2019, MaxMem=   671088640 cpu:            6456.6 elap:            3228.9
 (Enter /shared/centos7/gaussian/g16/l1002.exe)
 Minotr:  Closed shell wavefunction.
          IDoAtm=11111111111111111111111
          Direct CPHF calculation.
          Differentiating once with respect to nuclear coordinates.
          Requested convergence is 1.0D-08 RMS, and 1.0D-07 maximum.
          Secondary convergence is 1.0D-12 RMS, and 1.0D-12 maximum.
          NewPWx=T KeepS1=F KeepF1=F KeepIn=T MapXYZ=F SortEE=F KeepMc=T.
         6925 words used for storage of precomputed grid.
 Two-electron integrals replicated using symmetry.
          MDV=     671088640 using IRadAn=       1.
          Solving linear equations simultaneously, MaxMat=     380.
 FoF2E skips out because all densities are zero.
 CalDSu exits because no D1Ps are significant.
 FoFJK:  IHMeth= 1 ICntrl=       0 DoSepK=F KAlg= 0 I1Cent=           0 FoldK=F
 IRaf= 910000000 NMat=      69 IRICut=     172 DoRegI=T DoRafI=T ISym2E= 2 IDoP0=3 IntGTp=3.
 FoFCou: FMM=F IPFlag=           0 FMFlag=      100000 FMFlg1=           0
         NFxFlg=           0 DoJE=F BraDBF=F KetDBF=F FulRan=T
         wScrn=  0.000000 ICntrl=         0 IOpCl=  0 I1Cent=           0 NGrid=           0
         NMat0=   69 NMatS0=     69 NMatT0=    0 NMatD0=   69 NMtDS0=    0 NMtDT0=    0
 Integrals replicated using symmetry in FoFCou.
 Raff kept on since  86.86% of shell-pairs survive, threshold=   0.20 IRatSp=87.
          There are    72 degrees of freedom in the 1st order CPHF.  IDoFFX=6 NUNeed=     0.
     66 vectors produced by pass  0 Test12= 1.63D-14 1.39D-09 XBig12= 5.60D-02 5.53D-02.
 AX will form    66 AO Fock derivatives at one time.
     66 vectors produced by pass  1 Test12= 1.63D-14 1.39D-09 XBig12= 3.35D-03 7.71D-03.
     66 vectors produced by pass  2 Test12= 1.63D-14 1.39D-09 XBig12= 4.84D-05 9.49D-04.
     66 vectors produced by pass  3 Test12= 1.63D-14 1.39D-09 XBig12= 3.89D-07 6.94D-05.
     66 vectors produced by pass  4 Test12= 1.63D-14 1.39D-09 XBig12= 2.06D-09 4.25D-06.
     66 vectors produced by pass  5 Test12= 1.63D-14 1.39D-09 XBig12= 1.05D-11 3.06D-07.
     22 vectors produced by pass  6 Test12= 1.63D-14 1.39D-09 XBig12= 3.79D-14 1.88D-08.
 InvSVY:  IOpt=1 It=  1 EMax= 4.16D-16
 Solved reduced A of dimension   418 with    72 vectors.
 End of Minotr F.D. properties file   721 does not exist.
 End of Minotr F.D. properties file   722 does not exist.
 End of Minotr F.D. properties file   788 does not exist.
 Leave Link 1002 at Sat Sep 28 04:54:18 2019, MaxMem=   671088640 cpu:           10618.3 elap:            5310.2
 (Enter /shared/centos7/gaussian/g16/l601.exe)
 Copying SCF densities to generalized density rwf, IOpCl= 0 IROHF=0.

 **********************************************************************

            Population analysis using the SCF density.

 **********************************************************************

 Orbital symmetries:
       Occupied  (A) (A) (A) (A) (A) (A) (A) (A) (A) (A) (A) (A)
                 (A) (A) (A) (A) (A) (A) (A) (A) (A) (A) (A) (A)
                 (A) (A) (A) (A) (A)
       Virtual   (A) (A) (A) (A) (A) (A) (A) (A) (A) (A) (A) (A)
                 (A) (A) (A) (A) (A) (A) (A) (A) (A) (A) (A) (A)
                 (A) (A) (A) (A) (A) (A) (A) (A) (A) (A) (A) (A)
                 (A) (A) (A) (A) (A) (A) (A) (A) (A) (A) (A) (A)
                 (A) (A) (A) (A) (A) (A) (A) (A) (A) (A) (A) (A)
                 (A) (A) (A) (A) (A) (A) (A) (A) (A) (A) (A) (A)
                 (A) (A) (A) (A) (A) (A) (A) (A) (A) (A) (A) (A)
                 (A) (A) (A) (A) (A) (A) (A) (A) (A) (A) (A) (A)
                 (A) (A) (A) (A) (A) (A) (A) (A) (A) (A) (A) (A)
                 (A) (A) (A) (A) (A) (A) (A) (A) (A) (A) (A) (A)
                 (A) (A) (A) (A) (A) (A) (A) (A) (A) (A) (A) (A)
                 (A) (A) (A) (A) (A) (A) (A) (A) (A) (A) (A) (A)
                 (A) (A) (A) (A) (A) (A) (A) (A) (A) (A) (A) (A)
                 (A) (A) (A) (A) (A) (A) (A) (A) (A) (A) (A) (A)
                 (A) (A) (A) (A) (A) (A) (A) (A) (A) (A) (A) (A)
                 (A) (A) (A) (A) (A) (A) (A) (A) (A) (A) (A) (A)
                 (A) (A) (A) (A) (A) (A) (A) (A) (A) (A) (A) (A)
                 (A) (A) (A) (A) (A) (A) (A) (A) (A) (A) (A) (A)
                 (A) (A) (A) (A) (A) (A) (A) (A) (A) (A) (A) (A)
                 (A) (A) (A) (A) (A) (A) (A) (A) (A) (A) (A) (A)
                 (A) (A) (A) (A) (A) (A) (A) (A) (A) (A) (A) (A)
                 (A) (A) (A) (A) (A) (A) (A) (A) (A) (A) (A) (A)
                 (A) (A) (A) (A) (A) (A) (A) (A) (A) (A) (A) (A)
                 (A) (A) (A) (A) (A) (A) (A) (A) (A) (A) (A) (A)
                 (A) (A) (A) (A) (A) (A) (A) (A) (A) (A) (A) (A)
                 (A) (A) (A) (A) (A) (A) (A) (A) (A) (A) (A) (A)
                 (A) (A) (A) (A) (A) (A) (A) (A) (A) (A) (A) (A)
                 (A) (A) (A) (A) (A) (A) (A) (A) (A) (A) (A) (A)
                 (A) (A) (A) (A) (A) (A) (A) (A) (A) (A) (A) (A)
                 (A) (A) (A) (A) (A) (A) (A) (A) (A) (A) (A) (A)
                 (A) (A) (A) (A) (A) (A) (A) (A) (A) (A) (A) (A)
                 (A) (A) (A) (A) (A) (A) (A) (A) (A) (A) (A) (A)
                 (A) (A) (A) (A) (A) (A) (A) (A) (A) (A) (A) (A)
                 (A) (A) (A) (A) (A) (A) (A) (A) (A)
 The electronic state is 1-A.
 Alpha  occ. eigenvalues --  -10.52613 -10.52593 -10.52542 -10.52446 -10.52369
 Alpha  occ. eigenvalues --  -10.52159 -10.52049  -0.92253  -0.88105  -0.82669
 Alpha  occ. eigenvalues --   -0.77166  -0.70059  -0.65367  -0.63743  -0.55320
 Alpha  occ. eigenvalues --   -0.52681  -0.50676  -0.50072  -0.48257  -0.45997
 Alpha  occ. eigenvalues --   -0.44820  -0.43634  -0.41346  -0.41003  -0.39076
 Alpha  occ. eigenvalues --   -0.38099  -0.36860  -0.35667  -0.34581
 Alpha virt. eigenvalues --    0.06359   0.07868   0.08703   0.08995   0.10846
 Alpha virt. eigenvalues --    0.11556   0.12183   0.13716   0.14140   0.14672
 Alpha virt. eigenvalues --    0.15106   0.16188   0.16614   0.18519   0.19397
 Alpha virt. eigenvalues --    0.20717   0.22266   0.23631   0.26259   0.26673
 Alpha virt. eigenvalues --    0.27661   0.28769   0.29088   0.31017   0.31360
 Alpha virt. eigenvalues --    0.32931   0.33324   0.33788   0.34892   0.36946
 Alpha virt. eigenvalues --    0.37753   0.38780   0.42171   0.43432   0.43526
 Alpha virt. eigenvalues --    0.45036   0.45918   0.46464   0.47265   0.47559
 Alpha virt. eigenvalues --    0.48717   0.49170   0.49673   0.50499   0.51314
 Alpha virt. eigenvalues --    0.52197   0.52577   0.52939   0.52969   0.53594
 Alpha virt. eigenvalues --    0.54762   0.55077   0.55425   0.55743   0.57635
 Alpha virt. eigenvalues --    0.58342   0.59757   0.60551   0.61158   0.63845
 Alpha virt. eigenvalues --    0.64836   0.68449   0.72644   0.74232   0.76077
 Alpha virt. eigenvalues --    0.76865   0.79603   0.80082   0.82640   0.85791
 Alpha virt. eigenvalues --    0.87495   0.88988   0.89464   0.90514   0.91512
 Alpha virt. eigenvalues --    0.92541   0.93420   0.96822   0.98010   1.00126
 Alpha virt. eigenvalues --    1.00475   1.01976   1.03224   1.04335   1.06039
 Alpha virt. eigenvalues --    1.07212   1.08028   1.08400   1.08651   1.10362
 Alpha virt. eigenvalues --    1.11646   1.11740   1.12805   1.13632   1.15490
 Alpha virt. eigenvalues --    1.16477   1.17049   1.18235   1.18823   1.18964
 Alpha virt. eigenvalues --    1.19392   1.21585   1.21748   1.22855   1.24109
 Alpha virt. eigenvalues --    1.24819   1.25615   1.26899   1.27694   1.29006
 Alpha virt. eigenvalues --    1.29880   1.30507   1.31714   1.33128   1.33241
 Alpha virt. eigenvalues --    1.34449   1.35091   1.36455   1.37101   1.38962
 Alpha virt. eigenvalues --    1.39443   1.40615   1.41195   1.44416   1.45175
 Alpha virt. eigenvalues --    1.45382   1.47141   1.47924   1.48613   1.49703
 Alpha virt. eigenvalues --    1.50819   1.51726   1.53200   1.55228   1.56304
 Alpha virt. eigenvalues --    1.56812   1.58110   1.59097   1.61345   1.62457
 Alpha virt. eigenvalues --    1.63994   1.67273   1.69903   1.70933   1.73809
 Alpha virt. eigenvalues --    1.77053   1.80435   1.84307   1.86540   2.19742
 Alpha virt. eigenvalues --    2.23040   2.27511   2.28856   2.32995   2.35843
 Alpha virt. eigenvalues --    2.37867   2.39986   2.40334   2.44214   2.44470
 Alpha virt. eigenvalues --    2.46388   2.46751   2.48681   2.50829   2.53010
 Alpha virt. eigenvalues --    2.55531   2.56268   2.57341   2.58591   2.60124
 Alpha virt. eigenvalues --    2.61204   2.62721   2.63419   2.64930   2.66469
 Alpha virt. eigenvalues --    2.68129   2.68400   2.70287   2.71793   2.73401
 Alpha virt. eigenvalues --    2.75116   2.75417   2.76537   2.78118   2.78812
 Alpha virt. eigenvalues --    2.80865   2.82080   2.82917   2.83656   2.85205
 Alpha virt. eigenvalues --    2.86760   2.88834   2.90512   2.90941   2.92282
 Alpha virt. eigenvalues --    2.93680   2.94259   2.96357   2.96744   2.98329
 Alpha virt. eigenvalues --    3.00443   3.01482   3.02127   3.03883   3.04194
 Alpha virt. eigenvalues --    3.04778   3.05768   3.06265   3.06822   3.09053
 Alpha virt. eigenvalues --    3.10199   3.10690   3.11374   3.12008   3.13817
 Alpha virt. eigenvalues --    3.15286   3.16267   3.17478   3.18054   3.18214
 Alpha virt. eigenvalues --    3.18820   3.19444   3.20210   3.21716   3.22497
 Alpha virt. eigenvalues --    3.25139   3.25359   3.25767   3.27101   3.28652
 Alpha virt. eigenvalues --    3.29913   3.32619   3.32750   3.33361   3.34659
 Alpha virt. eigenvalues --    3.38392   3.39392   3.40033   3.40571   3.42519
 Alpha virt. eigenvalues --    3.43004   3.44025   3.44449   3.46791   3.47329
 Alpha virt. eigenvalues --    3.49276   3.50114   3.52159   3.53151   3.54110
 Alpha virt. eigenvalues --    3.55689   3.56803   3.57652   3.59826   3.61286
 Alpha virt. eigenvalues --    3.62698   3.63108   3.65043   3.65765   3.66709
 Alpha virt. eigenvalues --    3.68021   3.69133   3.70126   3.71213   3.72422
 Alpha virt. eigenvalues --    3.74262   3.75452   3.77015   3.77769   3.79181
 Alpha virt. eigenvalues --    3.80291   3.82128   3.82888   3.83499   3.85850
 Alpha virt. eigenvalues --    3.86201   3.87179   3.88716   3.89778   3.90742
 Alpha virt. eigenvalues --    3.92685   3.93746   3.94161   3.94986   3.96561
 Alpha virt. eigenvalues --    3.97843   3.98278   3.99068   4.00150   4.00893
 Alpha virt. eigenvalues --    4.01517   4.02871   4.04360   4.04817   4.05617
 Alpha virt. eigenvalues --    4.06603   4.07886   4.08587   4.09524   4.10726
 Alpha virt. eigenvalues --    4.11835   4.12510   4.15795   4.16214   4.17839
 Alpha virt. eigenvalues --    4.18253   4.20036   4.21709   4.22098   4.22266
 Alpha virt. eigenvalues --    4.24979   4.27027   4.27260   4.27790   4.31153
 Alpha virt. eigenvalues --    4.31455   4.31694   4.34933   4.36830   4.37937
 Alpha virt. eigenvalues --    4.39288   4.40167   4.42847   4.44299   4.46097
 Alpha virt. eigenvalues --    4.47230   4.50344   4.53452   4.53803   4.56941
 Alpha virt. eigenvalues --    4.58997   4.61181   4.63139   4.64487   4.66676
 Alpha virt. eigenvalues --    4.67320   4.67821   4.69413   4.72638   4.73860
 Alpha virt. eigenvalues --    4.75812   4.79270   4.79521   4.80510   4.81995
 Alpha virt. eigenvalues --    4.83216   4.84192   4.88352   4.89710   4.91274
 Alpha virt. eigenvalues --    4.94504   4.95763   4.97076   4.98359   5.00265
 Alpha virt. eigenvalues --    5.01411   5.04537   5.05585   5.06784   5.08689
 Alpha virt. eigenvalues --    5.09716   5.11509   5.13202   5.15422   5.17882
 Alpha virt. eigenvalues --    5.21290   5.22691   5.23192   5.25379   5.26045
 Alpha virt. eigenvalues --    5.28328   5.28705   5.30139   5.35275   5.37411
 Alpha virt. eigenvalues --    5.37752   5.39114   5.41440   5.42888   5.43650
 Alpha virt. eigenvalues --    5.44845   5.46931   5.50794   5.53753   5.56742
 Alpha virt. eigenvalues --    5.60548   5.68465   5.70355   5.71587   5.77570
 Alpha virt. eigenvalues --    5.81057   5.81245   5.87804   5.92893   5.94868
 Alpha virt. eigenvalues --    5.97147   5.99611   6.06088  11.60388  11.74328
 Alpha virt. eigenvalues --   12.54845  12.94246  13.20849  13.56198  13.89589
          Condensed to atoms (all electrons):
               1          2          3          4          5          6
     1  C    5.058603   0.320412  -0.054353   0.312565   0.009236  -0.036677
     2  C    0.320412   5.070942   0.297839  -0.045325  -0.045500  -0.002149
     3  C   -0.054353   0.297839   5.191860   0.003448   0.298604  -0.017244
     4  C    0.312565  -0.045325   0.003448   5.057871  -0.001067   0.270659
     5  C    0.009236  -0.045500   0.298604  -0.001067   5.053225   0.001333
     6  C   -0.036677  -0.002149  -0.017244   0.270659   0.001333   5.045867
     7  C   -0.000650   0.005350  -0.053374   0.000022   0.308333  -0.000048
     8  H   -0.044758  -0.005891  -0.000675   0.408857   0.000071  -0.050462
     9  H   -0.046161   0.009092  -0.000549   0.419643   0.000047  -0.045205
    10  H    0.423598  -0.049344   0.009525  -0.048204  -0.000472   0.009205
    11  H    0.409271  -0.050423  -0.005039  -0.043709   0.000175  -0.005314
    12  H   -0.044240   0.418687  -0.046507   0.009111  -0.006471  -0.001006
    13  H   -0.041375   0.404725  -0.046468  -0.004584  -0.004163  -0.000183
    14  H   -0.006249  -0.029603   0.418345   0.005814  -0.043639  -0.019398
    15  H   -0.001354  -0.052768   0.406153  -0.000327  -0.038019  -0.001411
    16  H   -0.000480   0.004083  -0.047985   0.000046   0.413237   0.000107
    17  H    0.000943  -0.001440  -0.061564  -0.000023   0.415361  -0.000112
    18  H    0.003383  -0.003324  -0.018171  -0.060340   0.002389   0.417654
    19  H    0.005278  -0.000785   0.001226  -0.039939  -0.000059   0.400026
    20  H    0.003684   0.001917  -0.003049  -0.050465   0.000029   0.412042
    21  H    0.000018   0.001022  -0.008079  -0.000005  -0.048833  -0.000013
    22  H   -0.000065  -0.000062   0.000083   0.000003  -0.043005   0.000000
    23  H    0.000027  -0.000521   0.009118  -0.000001  -0.040658   0.000003
               7          8          9         10         11         12
     1  C   -0.000650  -0.044758  -0.046161   0.423598   0.409271  -0.044240
     2  C    0.005350  -0.005891   0.009092  -0.049344  -0.050423   0.418687
     3  C   -0.053374  -0.000675  -0.000549   0.009525  -0.005039  -0.046507
     4  C    0.000022   0.408857   0.419643  -0.048204  -0.043709   0.009111
     5  C    0.308333   0.000071   0.000047  -0.000472   0.000175  -0.006471
     6  C   -0.000048  -0.050462  -0.045205   0.009205  -0.005314  -0.001006
     7  C    4.940293  -0.000001  -0.000001   0.000035  -0.000035   0.000270
     8  H   -0.000001   0.614526  -0.034204  -0.006345   0.008942   0.000060
     9  H   -0.000001  -0.034204   0.604321  -0.008319  -0.007101  -0.000539
    10  H    0.000035  -0.006345  -0.008319   0.589099  -0.028956  -0.010599
    11  H   -0.000035   0.008942  -0.007101  -0.028956   0.580782  -0.004467
    12  H    0.000270   0.000060  -0.000539  -0.010599  -0.004467   0.581216
    13  H    0.000214   0.004344   0.000062  -0.004647   0.008618  -0.033474
    14  H    0.005309  -0.000245  -0.000225  -0.000651   0.000409   0.008252
    15  H   -0.010452   0.000052  -0.000055   0.000147   0.003341  -0.005377
    16  H   -0.039442  -0.000003  -0.000002   0.000034  -0.000015   0.000049
    17  H   -0.038804  -0.000005  -0.000001  -0.000114   0.000038   0.000782
    18  H   -0.000171   0.007096   0.005687   0.000309   0.001534  -0.000805
    19  H    0.000002   0.006393  -0.021015  -0.000534   0.001084   0.000081
    20  H   -0.000009  -0.019001   0.006727  -0.000551  -0.000209   0.000022
    21  H    0.408569  -0.000000  -0.000000   0.000003  -0.000010   0.000039
    22  H    0.401834   0.000000  -0.000000  -0.000001   0.000013   0.000464
    23  H    0.405398  -0.000000   0.000000  -0.000001  -0.000001  -0.000086
              13         14         15         16         17         18
     1  C   -0.041375  -0.006249  -0.001354  -0.000480   0.000943   0.003383
     2  C    0.404725  -0.029603  -0.052768   0.004083  -0.001440  -0.003324
     3  C   -0.046468   0.418345   0.406153  -0.047985  -0.061564  -0.018171
     4  C   -0.004584   0.005814  -0.000327   0.000046  -0.000023  -0.060340
     5  C   -0.004163  -0.043639  -0.038019   0.413237   0.415361   0.002389
     6  C   -0.000183  -0.019398  -0.001411   0.000107  -0.000112   0.417654
     7  C    0.000214   0.005309  -0.010452  -0.039442  -0.038804  -0.000171
     8  H    0.004344  -0.000245   0.000052  -0.000003  -0.000005   0.007096
     9  H    0.000062  -0.000225  -0.000055  -0.000002  -0.000001   0.005687
    10  H   -0.004647  -0.000651   0.000147   0.000034  -0.000114   0.000309
    11  H    0.008618   0.000409   0.003341  -0.000015   0.000038   0.001534
    12  H   -0.033474   0.008252  -0.005377   0.000049   0.000782  -0.000805
    13  H    0.582416  -0.006640   0.008115   0.000920   0.000325   0.000991
    14  H   -0.006640   0.596794  -0.043218  -0.016985   0.005759  -0.024217
    15  H    0.008115  -0.043218   0.589787   0.006380   0.004766  -0.000216
    16  H    0.000920  -0.016985   0.006380   0.619505  -0.042607   0.000155
    17  H    0.000325   0.005759   0.004766  -0.042607   0.600327  -0.000150
    18  H    0.000991  -0.024217  -0.000216   0.000155  -0.000150   0.616614
    19  H   -0.000056   0.002403  -0.000138  -0.000013   0.000005  -0.034487
    20  H    0.000049   0.000381   0.000405   0.000073   0.000013  -0.040867
    21  H   -0.000035   0.000390   0.002747  -0.000850   0.007618  -0.000010
    22  H    0.000061  -0.000275   0.001080   0.008525  -0.013587   0.000002
    23  H    0.000002  -0.000387   0.000604  -0.012388   0.000586   0.000011
              19         20         21         22         23
     1  C    0.005278   0.003684   0.000018  -0.000065   0.000027
     2  C   -0.000785   0.001917   0.001022  -0.000062  -0.000521
     3  C    0.001226  -0.003049  -0.008079   0.000083   0.009118
     4  C   -0.039939  -0.050465  -0.000005   0.000003  -0.000001
     5  C   -0.000059   0.000029  -0.048833  -0.043005  -0.040658
     6  C    0.400026   0.412042  -0.000013   0.000000   0.000003
     7  C    0.000002  -0.000009   0.408569   0.401834   0.405398
     8  H    0.006393  -0.019001  -0.000000   0.000000  -0.000000
     9  H   -0.021015   0.006727  -0.000000  -0.000000   0.000000
    10  H   -0.000534  -0.000551   0.000003  -0.000001  -0.000001
    11  H    0.001084  -0.000209  -0.000010   0.000013  -0.000001
    12  H    0.000081   0.000022   0.000039   0.000464  -0.000086
    13  H   -0.000056   0.000049  -0.000035   0.000061   0.000002
    14  H    0.002403   0.000381   0.000390  -0.000275  -0.000387
    15  H   -0.000138   0.000405   0.002747   0.001080   0.000604
    16  H   -0.000013   0.000073  -0.000850   0.008525  -0.012388
    17  H    0.000005   0.000013   0.007618  -0.013587   0.000586
    18  H   -0.034487  -0.040867  -0.000010   0.000002   0.000011
    19  H    0.603305  -0.027570   0.000002  -0.000000  -0.000000
    20  H   -0.027570   0.597471   0.000000   0.000000   0.000000
    21  H    0.000002   0.000000   0.601400  -0.039083  -0.033550
    22  H   -0.000000   0.000000  -0.039083   0.609879  -0.030523
    23  H   -0.000000   0.000000  -0.033550  -0.030523   0.600457
 Mulliken charges:
               1
     1  C   -0.270655
     2  C   -0.246934
     3  C   -0.273144
     4  C   -0.194052
     5  C   -0.230156
     6  C   -0.377673
     7  C   -0.332643
     8  H    0.111252
     9  H    0.117798
    10  H    0.126783
    11  H    0.131072
    12  H    0.134537
    13  H    0.130783
    14  H    0.147879
    15  H    0.129758
    16  H    0.107656
    17  H    0.121883
    18  H    0.126934
    19  H    0.104789
    20  H    0.118906
    21  H    0.108662
    22  H    0.104657
    23  H    0.101909
 Sum of Mulliken charges =  -0.00000
 Mulliken charges with hydrogens summed into heavy atoms:
               1
     1  C   -0.012800
     2  C    0.018386
     3  C    0.004492
     4  C    0.034998
     5  C   -0.000616
     6  C   -0.027043
     7  C   -0.017416
 APT charges:
               1
     1  C   -0.781464
     2  C   -0.654958
     3  C   -0.359574
     4  C   -0.900854
     5  C   -0.667125
     6  C   -0.977860
     7  C   -1.340110
     8  H    0.331099
     9  H    0.538853
    10  H    0.459113
    11  H    0.306692
    12  H    0.372851
    13  H    0.324326
    14  H    0.299737
    15  H    0.288024
    16  H    0.354393
    17  H    0.336193
    18  H    0.073829
    19  H    0.529895
    20  H    0.306279
    21  H    0.232430
    22  H    0.344489
    23  H    0.583745
 Sum of APT charges =  -0.00000
 APT charges with hydrogens summed into heavy atoms:
               1
     1  C   -0.015659
     2  C    0.042218
     3  C    0.228186
     4  C   -0.030902
     5  C    0.023462
     6  C   -0.067858
     7  C   -0.179446
 Electronic spatial extent (au):  <R**2>=           1259.3792
 Charge=             -0.0000 electrons
 Dipole moment (field-independent basis, Debye):
    X=             -0.0959    Y=             -0.0409    Z=              0.0600  Tot=              0.1203
 Quadrupole moment (field-independent basis, Debye-Ang):
   XX=            -49.9740   YY=            -49.1919   ZZ=            -48.8976
   XY=              0.1248   XZ=              0.2459   YZ=              0.2474
 Traceless Quadrupole moment (field-independent basis, Debye-Ang):
   XX=             -0.6195   YY=              0.1626   ZZ=              0.4569
   XY=              0.1248   XZ=              0.2459   YZ=              0.2474
 Octapole moment (field-independent basis, Debye-Ang**2):
  XXX=             -3.6045  YYY=             -2.2809  ZZZ=              0.6204  XYY=              1.4182
  XXY=             -0.2587  XXZ=              0.3979  XZZ=             -1.1692  YZZ=              0.7580
  YYZ=              0.5510  XYZ=              0.6618
 Hexadecapole moment (field-independent basis, Debye-Ang**3):
 XXXX=          -1355.2881 YYYY=           -308.7039 ZZZZ=           -144.5639 XXXY=              1.3048
 XXXZ=             18.3493 YYYX=              2.4679 YYYZ=              1.8823 ZZZX=             -1.7398
 ZZZY=              0.3297 XXYY=           -273.8068 XXZZ=           -249.9005 YYZZ=            -74.1599
 XXYZ=              1.0360 YYXZ=             -0.5974 ZZXY=             -0.0818
 N-N= 3.243540252077D+02 E-N=-1.287149091544D+03  KE= 2.745180501990D+02
  Exact polarizability:   0.000   0.000   0.000   0.000   0.000   0.000
 Approx polarizability:  98.461  -0.357  97.356   0.587  -0.158  99.671
 No NMR shielding tensors so no spin-rotation constants.
 Leave Link  601 at Sat Sep 28 04:54:48 2019, MaxMem=   671088640 cpu:              59.6 elap:              29.8
 (Enter /shared/centos7/gaussian/g16/l701.exe)
 SCFChk:  SCF convergence  6.75D-09 required  1.00D-08
 ... and contract with generalized density number  0.
 Compute integral second derivatives.
 Entering OneElI...
 Calculate overlap and kinetic energy integrals
    NBasis = 485  MinDer = 2  MaxDer = 2
 Requested accuracy = 0.1000D-12
 PrmmSu-InSpLW:  IPartL=    0 NPrtUS=   20 NPrtUL=    1 DoSpLW=F IThBeg=    0 IThEnd=   19 NThAct=   20.
 PrsmSu:  NPrtUS=  20 ThrOK=T IAlg=1 NPAlg=1 LenDen=           0 ISkipM=0 DoSpLW=F IThBeg=    0 IThEnd=   19.
 Prism:   IPart=     0 DynPar=F LinDyn=F Incr=           6.
 PRISM was handed    33204959 working-precision words and 13555 shell-pairs
 PRISM was handed    33204959 working-precision words and 13555 shell-pairs
 PRISM was handed    33204959 working-precision words and 13555 shell-pairs
 PRISM was handed    33204959 working-precision words and 13555 shell-pairs
 PRISM was handed    33204959 working-precision words and 13555 shell-pairs
 PRISM was handed    33204959 working-precision words and 13555 shell-pairs
 PRISM was handed    33204959 working-precision words and 13555 shell-pairs
 PRISM was handed    33204959 working-precision words and 13555 shell-pairs
 PRISM was handed    33204959 working-precision words and 13555 shell-pairs
 PRISM was handed    33204959 working-precision words and 13555 shell-pairs
 PRISM was handed    33204959 working-precision words and 13555 shell-pairs
 PRISM was handed    33204959 working-precision words and 13555 shell-pairs
 PRISM was handed    33204959 working-precision words and 13555 shell-pairs
 PRISM was handed    33204959 working-precision words and 13555 shell-pairs
 PRISM was handed    33204959 working-precision words and 13555 shell-pairs
 PRISM was handed    33204959 working-precision words and 13555 shell-pairs
 PRISM was handed    33204959 working-precision words and 13555 shell-pairs
 PRISM was handed    33204959 working-precision words and 13555 shell-pairs
 PRISM was handed    33204959 working-precision words and 13555 shell-pairs
 IPart=  4 NShTot=         702 NBatch=          74 AvBLen=         9.5
 PRISM was handed    33204959 working-precision words and 13555 shell-pairs
 IPart=  0 NShTot=         712 NBatch=          79 AvBLen=         9.0
 IPart= 14 NShTot=         663 NBatch=          52 AvBLen=        12.8
 IPart= 19 NShTot=         650 NBatch=          48 AvBLen=        13.5
 IPart=  5 NShTot=         694 NBatch=          71 AvBLen=         9.8
 IPart= 15 NShTot=         660 NBatch=          52 AvBLen=        12.7
 IPart=  2 NShTot=         704 NBatch=          76 AvBLen=         9.3
 IPart=  9 NShTot=         677 NBatch=          59 AvBLen=        11.5
 IPart=  7 NShTot=         683 NBatch=          61 AvBLen=        11.2
 IPart= 18 NShTot=         652 NBatch=          48 AvBLen=        13.6
 IPart= 17 NShTot=         654 NBatch=          49 AvBLen=        13.3
 IPart= 13 NShTot=         663 NBatch=          52 AvBLen=        12.8
 IPart=  1 NShTot=         708 NBatch=          78 AvBLen=         9.1
 IPart= 12 NShTot=         665 NBatch=          53 AvBLen=        12.5
 IPart= 16 NShTot=         656 NBatch=          50 AvBLen=        13.1
 IPart= 10 NShTot=         672 NBatch=          56 AvBLen=        12.0
 IPart=  6 NShTot=         691 NBatch=          68 AvBLen=        10.2
 IPart=  3 NShTot=         702 NBatch=          74 AvBLen=         9.5
 IPart=  8 NShTot=         679 NBatch=          61 AvBLen=        11.1
 IPart= 11 NShTot=         668 NBatch=          56 AvBLen=        11.9
 PrSmSu:  NxtVal=            121.
 Entering OneElI...
 Calculate potential energy integrals
    NBasis = 485  MinDer = 2  MaxDer = 2
 Requested accuracy = 0.1000D-12
 PrmmSu-InSpLW:  IPartL=    0 NPrtUS=   20 NPrtUL=    1 DoSpLW=F IThBeg=    0 IThEnd=   19 NThAct=   20.
 PrsmSu:  NPrtUS=  20 ThrOK=T IAlg=1 NPAlg=1 LenDen=           0 ISkipM=0 DoSpLW=F IThBeg=    0 IThEnd=   19.
 Prism:   IPart=     0 DynPar=F LinDyn=F Incr=         138.
 PRISM was handed    33269024 working-precision words and 12056 shell-pairs
 PRISM was handed    33269024 working-precision words and 12056 shell-pairs
 PRISM was handed    33269024 working-precision words and 12056 shell-pairs
 PRISM was handed    33269024 working-precision words and 12056 shell-pairs
 PRISM was handed    33269024 working-precision words and 12056 shell-pairs
 PRISM was handed    33269024 working-precision words and 12056 shell-pairs
 PRISM was handed    33269024 working-precision words and 12056 shell-pairs
 PRISM was handed    33269024 working-precision words and 12056 shell-pairs
 PRISM was handed    33269024 working-precision words and 12056 shell-pairs
 PRISM was handed    33269024 working-precision words and 12056 shell-pairs
 PRISM was handed    33269024 working-precision words and 12056 shell-pairs
 PRISM was handed    33269024 working-precision words and 12056 shell-pairs
 PRISM was handed    33269024 working-precision words and 12056 shell-pairs
 PRISM was handed    33269024 working-precision words and 12056 shell-pairs
 PRISM was handed    33269024 working-precision words and 12056 shell-pairs
 PRISM was handed    33269024 working-precision words and 12056 shell-pairs
 PRISM was handed    33269024 working-precision words and 12056 shell-pairs
 PRISM was handed    33269024 working-precision words and 12056 shell-pairs
 PRISM was handed    33269024 working-precision words and 12056 shell-pairs
 PRISM was handed    33269024 working-precision words and 12056 shell-pairs
 IPart= 19 NShTot=       13248 NBatch=         577 AvBLen=        23.0
 IPart= 18 NShTot=       13294 NBatch=         579 AvBLen=        23.0
 IPart=  9 NShTot=       13846 NBatch=         603 AvBLen=        23.0
 IPart=  2 NShTot=       14421 NBatch=         629 AvBLen=        22.9
 IPart=  7 NShTot=       13961 NBatch=         608 AvBLen=        23.0
 IPart= 13 NShTot=       13547 NBatch=         590 AvBLen=        23.0
 IPart=  4 NShTot=       14329 NBatch=         625 AvBLen=        22.9
 IPart=  5 NShTot=       14306 NBatch=         624 AvBLen=        22.9
 IPart= 15 NShTot=       13501 NBatch=         588 AvBLen=        23.0
 IPart= 14 NShTot=       13547 NBatch=         590 AvBLen=        23.0
 IPart= 17 NShTot=       13294 NBatch=         579 AvBLen=        23.0
 IPart= 16 NShTot=       13409 NBatch=         584 AvBLen=        23.0
 IPart= 12 NShTot=       13639 NBatch=         594 AvBLen=        23.0
 IPart=  0 NShTot=       14536 NBatch=         634 AvBLen=        22.9
 IPart= 11 NShTot=       13754 NBatch=         599 AvBLen=        23.0
 IPart=  3 NShTot=       14375 NBatch=         627 AvBLen=        22.9
 IPart=  1 NShTot=       14444 NBatch=         630 AvBLen=        22.9
 IPart=  8 NShTot=       13892 NBatch=         605 AvBLen=        23.0
 IPart= 10 NShTot=       13823 NBatch=         602 AvBLen=        23.0
 IPart=  6 NShTot=       14122 NBatch=         615 AvBLen=        23.0
 PrSmSu:  NxtVal=           2761.
 Polarizability after L701:
                1             2             3 
      1  0.000000D+00
      2  0.000000D+00  0.000000D+00
      3  0.000000D+00  0.000000D+00  0.000000D+00
 Dipole Derivatives after L701:
                 1             2             3             4             5 
      1  -0.341388D+00 -0.870277D+00 -0.602411D+00 -0.239691D+00  0.233407D+00
      2  -0.410442D+00 -0.113983D+01 -0.328067D+00  0.509144D+00 -0.959726D+00
      3  -0.319928D-02 -0.261799D-01 -0.863173D+00  0.106312D+00 -0.252607D-02
                 6             7             8             9            10 
      1   0.185049D+00  0.622165D-01 -0.221807D+00  0.502564D+00 -0.208497D+01
      2   0.273352D+00  0.142554D+00 -0.496341D+00 -0.793990D-01 -0.708561D-01
      3  -0.765458D+00  0.273666D+00 -0.102779D+00 -0.644598D+00 -0.773683D-01
                11            12            13            14            15 
      1  -0.765230D+00  0.606539D+00 -0.336237D+00  0.150533D+00 -0.156146D+01
      2   0.136897D+00  0.689261D-01  0.224845D-01 -0.803980D+00 -0.146653D+00
      3   0.986355D-01 -0.754486D+00 -0.234665D+00 -0.174275D-01 -0.861158D+00
                16            17            18            19            20 
      1  -0.523037D+00  0.158035D+01 -0.226016D+00 -0.216256D+01 -0.710659D-01
      2  -0.609466D-01 -0.144206D+01  0.434888D-01 -0.873871D-01 -0.987957D+00
      3  -0.368396D-02 -0.676615D-01 -0.968482D+00 -0.742731D-01 -0.144780D-01
                21            22            23            24            25 
      1   0.100322D+01  0.226613D+00  0.106776D+00 -0.878897D+00  0.124310D+01
      2   0.882330D-01  0.170385D-01  0.171416D+00 -0.717918D-01  0.694491D-01
      3  -0.869813D+00 -0.555818D-01 -0.407774D-01  0.595270D+00  0.136265D+00
                26            27            28            29            30 
      1   0.177030D+00  0.568706D+00  0.430915D+00  0.616009D+00 -0.138803D+00
      2   0.185717D+00  0.347914D-01  0.278345D+00  0.836127D+00 -0.158071D+00
      3   0.128763D-01  0.187741D+00  0.220470D-01  0.517268D-01  0.110296D+00
                31            32            33            34            35 
      1   0.117857D+00 -0.368743D-01  0.476284D+00  0.236922D+00 -0.129399D+00
      2  -0.383052D-01  0.109489D+00  0.315997D+00 -0.307302D+00  0.719605D+00
      3  -0.460564D-01 -0.466971D-01  0.692730D+00 -0.344801D-01  0.660066D-01
                36            37            38            39            40 
      1  -0.619696D-01  0.143100D+00  0.220920D-01 -0.819842D-01  0.179325D+00
      2   0.251146D+00  0.428495D-01  0.192074D+00 -0.383838D+00 -0.258066D+00
      3   0.162027D+00 -0.429342D-01 -0.546394D-01  0.637802D+00 -0.590065D-01
                41            42            43            44            45 
      1   0.305471D-01  0.170838D-01  0.167842D+00  0.527029D-01 -0.281462D+00
      2   0.505060D+00  0.114859D+00  0.114696D-01  0.139118D+00 -0.844306D-01
      3   0.134871D+00  0.214825D+00 -0.591154D-01 -0.563688D-01  0.557111D+00
                46            47            48            49            50 
      1   0.224918D+00  0.535406D+00  0.524086D+00  0.252337D+00 -0.607549D+00
      2   0.235890D-01  0.419210D+00  0.262680D+00 -0.431453D-01  0.405679D+00
      3   0.358231D-01  0.355315D+00  0.419050D+00  0.550188D-01 -0.337889D+00
                51            52            53            54            55 
      1   0.417623D+00 -0.199636D+00 -0.868560D-01  0.897619D-01  0.930584D+00
      2  -0.161196D+00  0.522658D+00  0.190045D+00 -0.174204D+00 -0.504454D+00
      3   0.350564D+00 -0.265544D+00 -0.264503D-01  0.231077D+00  0.204778D+00
                56            57            58            59            60 
      1  -0.455498D+00  0.622690D+00 -0.461862D-02 -0.291257D+00 -0.619308D+00
      2   0.434852D+00 -0.393248D+00  0.993943D-01  0.430192D+00  0.598070D+00
      3  -0.108571D+00  0.224248D+00  0.325677D-01  0.150453D+00  0.493263D+00
                61            62            63            64            65 
      1  -0.107003D+00  0.511941D+00 -0.786386D+00  0.379126D+00 -0.109903D+01
      2  -0.109871D+00  0.324908D+00 -0.302871D+00 -0.654632D-01  0.435019D+00
      3   0.125201D+00 -0.283152D+00  0.479386D+00 -0.868929D-01  0.279270D+00
                66            67            68            69 
      1  -0.441816D+00  0.140429D+01  0.618050D+00  0.666904D+00
      2   0.103309D+00  0.217263D+00  0.194488D+00  0.128917D+00
      3   0.219321D+00  0.511231D-01  0.364432D-01  0.152457D+00
 Hessian after L701:
                1             2             3             4             5 
      1  0.151018D+02
      2  0.554683D+00  0.162431D+02
      3 -0.283464D+00 -0.472074D+00  0.176359D+02
      4 -0.276001D+01 -0.575511D-02  0.141265D+01  0.146458D+02
      5 -0.800263D-02 -0.637192D+01 -0.121441D-01 -0.579921D+00  0.170312D+02
      6  0.140948D+01 -0.769297D-02 -0.571751D+01 -0.451009D+00 -0.120551D-01
      7  0.260555D+00  0.186086D+00 -0.383677D-01 -0.472591D+01  0.195758D+01
      8  0.174424D+00  0.465187D-01 -0.457855D-01  0.189921D+01 -0.362168D+01
      9  0.413089D-01 -0.142024D-01 -0.120615D+00 -0.389434D+00 -0.357667D+00
     10 -0.444200D+01 -0.185244D+01 -0.855326D+00  0.357130D+00 -0.165016D+00
     11 -0.184300D+01 -0.419492D+01  0.878961D+00 -0.229262D+00 -0.778857D-02
     12 -0.839061D+00  0.877334D+00 -0.571279D+01  0.877200D-01 -0.945874D-02
     13  0.253266D+00  0.116684D+00  0.963484D-01  0.334625D+00  0.151442D+00
     14  0.128518D+00 -0.103580D+00  0.361163D-01  0.257813D+00 -0.760842D-01
     15  0.939061D-01  0.393771D-01 -0.107104D+00  0.559331D-01 -0.364150D-02
     16 -0.143660D+00 -0.118088D+00  0.113091D-01  0.339933D-01 -0.221805D+00
     17 -0.888008D-01  0.394359D+00 -0.136074D-01 -0.189946D+00  0.675653D-01
     18 -0.182208D-01  0.585258D-01 -0.193525D+00  0.139203D-01 -0.645468D-02
     19  0.548899D-01  0.243169D-01 -0.153430D-01  0.218258D+00  0.118850D+00
     20  0.316112D-01 -0.471912D-01 -0.486957D-02  0.167701D+00 -0.101127D+00
     21  0.149712D-01  0.239189D-03 -0.578467D-01 -0.632033D-01 -0.268459D-01
     22  0.459259D-01  0.690327D-01  0.101159D+00  0.466639D-02  0.103818D-03
     23  0.470691D-01  0.440910D-01 -0.102229D+00  0.174157D-02 -0.133667D-01
     24  0.498259D-01 -0.102511D+00  0.362632D-01 -0.217474D-01  0.383502D-03
     25 -0.269573D-01  0.954446D-01  0.234202D-01  0.171457D+00 -0.458686D-01
     26  0.912009D-01  0.611710D-01  0.158888D-01 -0.366742D-01 -0.414475D-01
     27  0.367807D-01  0.109511D-01  0.109598D+00  0.456690D-01 -0.973920D-02
     28 -0.388863D+01  0.931608D+00 -0.136175D+00 -0.844501D-01 -0.759333D-01
     29  0.904230D+00 -0.213080D+01 -0.306837D+00 -0.814095D-01  0.131191D+00
     30 -0.117753D+00 -0.268183D+00 -0.418733D+01 -0.523942D-01 -0.416606D-01
     31 -0.437437D+01  0.203087D-01 -0.132376D+00 -0.367969D-03  0.288693D-01
     32  0.141790D-01 -0.435222D+01 -0.353912D-01  0.731492D-03  0.128622D+00
     33 -0.236244D+00 -0.155936D+00 -0.170040D+01 -0.158641D+00  0.289721D-01
     34 -0.606327D-01  0.386355D-01 -0.293120D-01 -0.395231D+01 -0.101501D+01
     35  0.457181D-01  0.121030D+00  0.373922D-01 -0.110090D+01 -0.270448D+01
     36 -0.415667D-01  0.392628D-01  0.103218D+00 -0.367760D+00  0.595891D+00
     37 -0.265298D-01 -0.726319D-02 -0.146697D+00 -0.449182D+01  0.370547D-02
     38  0.131034D-01  0.930897D-01  0.545792D-02  0.134989D-01 -0.437573D+01
     39 -0.124451D+00 -0.252567D-01  0.462164D-01 -0.216882D+00 -0.381088D+00
     40  0.985298D-02 -0.559864D-02 -0.251655D-02  0.724826D-01 -0.113638D+00
     41  0.272937D-01  0.198511D-02 -0.770028D-02 -0.470133D-01 -0.490074D-01
     42  0.480345D-02 -0.885150D-03 -0.130980D-01 -0.100035D-01  0.486149D-01
     43  0.167841D-01  0.190125D-01 -0.121234D-01  0.864120D-01 -0.117712D+00
     44  0.256363D-01 -0.166853D-01 -0.736653D-02 -0.956347D-01 -0.241858D-01
     45 -0.294204D-01 -0.103632D-01 -0.713025D-02  0.749478D-01  0.146862D+00
     46  0.145503D-02  0.193012D-02  0.234942D-02  0.277096D-01  0.578284D-01
     47  0.106412D-01 -0.291940D-02  0.217173D-02  0.731257D-01  0.229237D-01
     48  0.108254D-01  0.327875D-02 -0.663950D-02  0.536186D-01  0.428168D-01
     49  0.339101D-01  0.891383D-03  0.176750D-01  0.157382D-01  0.269853D-01
     50 -0.105709D-01 -0.126221D-01 -0.133452D-02 -0.123184D-01 -0.277260D-01
[...]
 10966105,0.00059599,-0.00045852,0.00004153,0.00351599,0.00621322,-0.00
 623258,-0.00011589,0.00018787,-0.00060493,0.00039474,0.00141508,-0.000
 33037,0.00002354,-0.00001176,-0.00065719,-0.00012993,0.00032481,-0.000
 06402,0.00004437,0.00026542,-0.00018465,0.00000836,-0.00001273,-0.0001
 2337,-0.00043727,-0.00382994,-0.00384024,0.00001812,0.00137034,-0.0001
 1631,0.07319148,0.20711380,0.00017582,0.00088908,0.00040943,-0.0075034
 5,-0.01503114,0.01133290,0.04937076,0.11003735,-0.13253886,0.00075923,
 -0.00028813,0.00025154,0.00560629,0.00938583,-0.00892732,0.00057382,0.
 00025676,0.00018471,-0.00035013,0.00101942,0.00024651,-0.00000090,-0.0
 0002162,-0.00062247,-0.00017126,0.00002519,-0.00002496,-0.00020628,0.0
 0019411,0.00007005,0.00004369,-0.00000758,-0.00003389,-0.00029536,-0.0
 0414257,-0.00130622,-0.00003051,0.00086365,0.00106895,-0.05898855,-0.1
 1719578,0.14348565,0.00110468,-0.00009655,0.00083960,-0.00289389,0.000
 47692,-0.00250416,-0.15564548,0.02590970,-0.12254413,0.00000545,-0.000
 00996,0.00014846,-0.02213301,0.00613439,-0.02154343,0.00005169,-0.0002
 7080,0.00007528,0.00095932,-0.00105221,-0.00102448,-0.00002865,0.00001
 009,-0.00002812,-0.00004224,0.00005594,-0.00004317,0.00008367,-0.00009
 281,0.00012064,0.00042623,-0.00018333,-0.00040220,-0.00020046,-0.00006
 029,-0.00005396,0.00057736,-0.00042889,0.00016634,0.00714161,-0.001432
 23,0.00845323,0.17363582,-0.00091572,0.00171793,0.00020360,-0.01849190
 ,0.00360533,-0.02280899,0.02594338,-0.05477367,0.03163710,0.00026689,-
 0.00013976,0.00021172,0.00623946,-0.00248930,0.00649363,0.00010513,0.0
 0031366,0.00016787,0.00029611,0.00042753,0.00109335,-0.00017411,-0.000
 04799,-0.00001748,-0.00008595,0.00005012,-0.00008356,-0.00015314,0.000
 07321,0.00042130,0.00054135,-0.00014996,0.00049987,-0.00006907,0.00099
 370,0.00082519,-0.00075080,-0.00432851,-0.00356588,0.01626256,-0.00416
 532,0.01747692,-0.03005639,0.05871994,-0.00065118,0.00103060,0.0005273
 1,-0.01185609,0.00208421,-0.01544358,-0.12258751,0.03180927,-0.1844188
 7,-0.00022845,0.00001569,-0.00046461,0.00977987,-0.00320955,0.00956150
 ,0.00001761,-0.00063548,-0.00029050,0.00035287,0.00051209,0.00115893,0
 .00004813,-0.00016749,0.00025116,0.00021341,-0.00000712,0.00009306,0.0
 0020407,0.00000187,0.00041357,0.00080942,-0.00050761,0.00001533,0.0001
 9983,-0.00016284,0.00075706,-0.00029904,-0.00377090,-0.00070742,-0.012
 00603,0.00295103,-0.01401761,0.13411607,-0.03001857,0.20150089,0.00017
 936,-0.00006797,0.00040902,0.00080662,-0.00107357,-0.00139148,-0.02251
 477,0.00611706,-0.02186105,-0.00007577,0.00000493,-0.00008411,-0.15944
 182,0.02366293,-0.12496614,0.00000567,-0.00019707,-0.00006992,-0.00130
 219,-0.00001519,-0.00132196,-0.00000027,-0.00002627,0.00005063,0.00002
 356,0.00001315,0.00002719,-0.00000807,0.00003310,0.00010294,0.00028052
 ,-0.00018473,-0.00002578,-0.00001681,0.00011352,0.00012239,0.00040618,
 0.00056707,0.00091366,0.00098651,-0.00069847,-0.00016303,-0.00460072,0
 .00156559,0.00296988,0.17624279,-0.00008254,-0.00011346,-0.00014810,0.
 00031134,0.00052144,0.00104474,0.00647658,-0.00247276,0.00668438,-0.00
 002315,0.00004755,0.00000525,0.02437677,-0.05348631,0.02998171,-0.0000
 0675,0.00005513,0.00004337,-0.01983500,0.00301697,-0.02317404,0.000018
 22,0.00000598,0.00001279,0.00000003,-0.00002803,0.00000432,0.00001969,
 -0.00002359,-0.00004898,-0.00013731,0.00003655,-0.00004168,-0.00003670
 ,-0.00008309,0.00015671,0.00008732,-0.00002600,-0.00051462,-0.00045303
 ,0.00032709,-0.00050129,0.00158203,0.00016233,-0.00143031,-0.02821904,
 0.05823099,0.00021894,0.00001373,0.00024316,0.00041959,0.00037095,0.00
 100225,0.00947195,-0.00281178,0.00974402,-0.00000583,0.00000794,0.0000
 3537,-0.12546370,0.02934260,-0.18764823,0.00000663,0.00002724,-0.00001
 109,-0.01131246,0.00183190,-0.01391337,-0.00000628,0.00000567,-0.00002
 213,-0.00001407,0.00000414,0.00000301,-0.00008919,0.00005311,-0.000004
 45,0.00001130,-0.00004598,-0.00014803,-0.00019561,0.00000084,-0.000036
 62,-0.00014769,0.00031406,0.00004550,-0.00071938,0.00021752,0.00073337
 ,0.00286361,-0.00137075,-0.00004265,0.13653673,-0.02748467,0.20410454,
 -0.00002572,0.00013033,-0.00024661,0.00068436,-0.00167567,-0.00084586,
 -0.01276577,-0.02157279,0.01986112,0.00006007,-0.00013194,-0.00003179,
 -0.07898641,-0.06533898,0.05044169,-0.00004053,-0.00002554,-0.00013300
 ,-0.00109356,-0.00179864,0.00117805,-0.00002726,0.00001759,-0.00011562
 ,-0.00000638,0.00009218,-0.00001944,-0.00000353,0.00003758,-0.00000884
 ,-0.00005634,0.00000375,-0.00000939,0.00048023,0.00090417,-0.00000107,
 0.00001170,0.00011840,-0.00004380,-0.00479598,0.00196867,0.00246602,0.
 00100627,-0.00044450,-0.00077243,0.00781109,0.01636102,-0.01239261,0.0
 8692649,0.00004089,0.00029028,-0.00001028,0.00048416,0.00132023,-0.000
 39310,0.00325391,0.00615919,-0.00623546,0.00007287,-0.00006971,-0.0001
 2710,-0.06591387,-0.18549569,0.11138666,0.00000947,-0.00004743,-0.0000
 1131,-0.00941614,-0.02225122,0.01580394,0.00001763,-0.00004097,0.00002
 204,0.00004897,-0.00000249,-0.00000439,-0.00004599,0.00001891,0.000042
 07,-0.00001790,-0.00000577,0.00000205,0.00002707,0.00010311,0.00032355
 ,-0.00006367,-0.00002891,-0.00003872,0.00179693,0.00016872,-0.00146616
 ,-0.00068943,0.00036270,0.00019864,-0.00105389,-0.00374209,0.00291478,
 0.07148824,0.20515330,-0.00005349,-0.00041393,0.00019147,-0.00016027,0
 .00145566,0.00015993,0.00512181,0.00910037,-0.00895870,-0.00012515,0.0
 0014058,0.00002818,0.05127581,0.11190640,-0.13715075,0.00000507,0.0000
 2745,0.00010537,-0.00701311,-0.01563965,0.01124140,0.00001052,-0.00000
 795,0.00007616,-0.00000942,-0.00007045,0.00002301,0.00005526,-0.000048
 56,-0.00004876,0.00000191,0.00001807,-0.00001148,0.00002947,-0.0009291
 4,-0.00005582,0.00003823,0.00003556,-0.00001114,0.00239286,-0.00153056
 ,0.00018246,-0.00014565,-0.00051778,0.00078875,0.00853235,0.01746433,-
 0.01457544,-0.05944182,-0.11859736,0.14782740,0.00125449,0.00076794,0.
 00013747,0.00011763,-0.00015689,-0.00025388,-0.00180372,-0.00010704,0.
 00077676,0.01070824,-0.01380895,-0.01931392,-0.00016697,0.00009754,-0.
 00004609,-0.08971066,0.05788640,0.08266714,0.00005559,0.00001169,0.000
 03407,0.00099814,0.00088356,0.00057863,-0.00329789,-0.00317799,-0.0031
 3958,0.00016857,0.00021163,0.00003795,0.00013654,0.00015839,0.00030068
 ,0.00001586,0.00010366,0.00004826,0.00002367,0.00005132,0.00005068,-0.
 00201688,0.00020969,0.00012317,-0.00020784,0.00006730,0.00011079,0.000
 02298,-0.00003445,-0.00000149,0.00007816,-0.00003037,-0.00005416,0.099
 37200,0.00063553,0.00086249,-0.00027037,-0.00026678,-0.00022858,0.0000
 4537,0.00035030,-0.00028473,-0.00055255,0.00688595,-0.00972784,-0.0128
 2880,0.00009780,0.00028932,0.00022821,0.05681184,-0.12227120,-0.105621
 75,0.00000528,0.00008125,-0.00001323,-0.00010491,0.00068991,0.00060480
 ,-0.00313093,-0.00078849,-0.00167189,0.00019329,0.00011615,0.00028658,
 0.00014430,-0.00028834,0.00038061,0.00000986,0.00007355,0.00002500,0.0
 0008411,0.00003893,0.00007230,0.00053326,0.00047395,-0.00027054,-0.000
 21452,-0.00018075,0.00063364,0.00013596,-0.00003977,-0.00001954,0.0000
 8131,0.00000129,-0.00006423,-0.06147136,0.12984465,-0.00002230,0.00074
 729,0.00054584,-0.00033374,-0.00036192,0.00002905,0.00144395,-0.000932
 11,0.00016515,0.00631507,-0.00844365,-0.01260001,0.00013867,0.00049294
 ,-0.00005384,0.08092828,-0.10626317,-0.19920618,-0.00002199,-0.0000063
 0,0.00006979,0.00028740,0.00038500,0.00006940,-0.00296182,-0.00140565,
 -0.00036361,0.00001231,0.00010492,0.00004910,-0.00026765,-0.00014962,0
 .00024948,-0.00011707,0.00016012,0.00007551,0.00002188,-0.00004633,-0.
 00003728,0.00009565,0.00055224,-0.00024288,0.00032303,0.00003578,-0.00
 009335,0.00003541,-0.00002710,0.00001386,0.00016184,-0.00000318,-0.000
 08580,-0.08849833,0.11881016,0.21552670,0.00071373,0.00182730,-0.00107
 039,0.00003515,0.00001901,0.00033067,-0.00017459,0.00034479,-0.0002894
 2,-0.01741293,0.01388937,-0.00939232,0.00001383,-0.00016721,0.00007380
 ,-0.16929708,0.11373593,-0.06725182,-0.00000890,-0.00000047,-0.0000226
 8,-0.00239017,-0.00327349,-0.00232860,0.00122532,-0.00012741,0.0003634
 5,0.00026191,-0.00003558,0.00017901,-0.00005033,-0.00070124,0.00105884
 ,-0.00004528,-0.00005129,0.00009361,0.00025634,-0.00008888,0.00001157,
 -0.00001437,-0.00029760,0.00007662,0.00001112,0.00003180,0.00007343,0.
 00001500,0.00000510,-0.00000755,-0.00006950,0.00000625,0.00003757,-0.0
 0920684,0.00776846,-0.00508600,0.18459706,0.00012433,0.00157848,-0.000
 96390,-0.00032239,0.00000575,-0.00009687,0.00019364,-0.00029612,0.0001
 9262,-0.01402039,0.01057378,-0.00725365,-0.00001424,0.00013163,-0.0000
 5598,0.11502647,-0.15205343,0.06424585,0.00001562,-0.00001900,0.000028
 77,-0.00337486,-0.00120017,-0.00190694,0.00068920,0.00108121,0.0006262
 6,0.00010239,0.00015445,-0.00019658,0.00042089,0.00011374,0.00023944,0
 .00004388,0.00003401,0.00005623,0.00002650,-0.00006353,0.00016767,-0.0
 0009135,0.00016936,-0.00014730,0.00000628,-0.00001951,0.00001701,0.000
 00754,-0.00001235,0.00000485,0.00005980,-0.00000207,-0.00003107,0.0102
 2238,-0.01106825,0.00706906,-0.12294313,0.16370584,0.00123746,0.000207
 30,0.00016003,0.00013255,-0.00004831,-0.00003095,0.00026818,-0.0002878
 9,0.00025895,-0.01280083,0.01044378,-0.00793930,0.00001889,0.00014433,
 -0.00008424,-0.06731633,0.06329745,-0.08484347,-0.00000269,-0.00000792
 ,0.00001877,-0.00235863,-0.00250397,-0.00101258,0.00046569,0.00046809,
 0.00016166,0.00005643,-0.00004134,-0.00000705,0.00014186,-0.00018837,0
 .00045777,-0.00001719,0.00005132,0.00007656,0.00014000,0.00001074,-0.0
 0005209,-0.00004634,0.00020361,-0.00018609,-0.00008135,-0.00002966,0.0
 0001166,0.00000869,-0.00000528,0.00000683,0.00005837,-0.00000923,-0.00
 002611,0.01691217,-0.01583164,0.01058901,0.07759889,-0.06812239,0.0904
 3545,-0.00166944,-0.00230802,-0.00418160,0.00031829,-0.00018486,0.0001
 6196,-0.00026626,0.00012471,0.00005141,-0.01108375,-0.01384876,0.01565
 345,0.00005153,-0.00004869,-0.00003854,-0.10436013,-0.07760369,0.07741
 620,-0.00004767,-0.00003546,0.00001232,0.00029221,0.00075580,0.0004749
 7,0.00092352,0.00033962,-0.00014989,-0.00088623,-0.00085679,0.00077465
 ,0.00012143,0.00011404,0.00000650,-0.00013395,0.00006966,0.00010972,-0
 .00001871,-0.00001254,-0.00005499,-0.00004006,-0.00004267,0.00016531,0
 .00000764,0.00008805,-0.00010218,-0.00004016,0.00000437,0.00000287,-0.
 00002288,-0.00000225,0.00000864,-0.00653916,-0.00853923,0.00757056,0.0
 1153275,0.01383648,-0.01440695,0.11185219,-0.00208081,-0.00095058,-0.0
 0224747,-0.00010713,-0.00060213,-0.00011015,0.00009330,-0.00008604,-0.
 00023114,-0.00615986,-0.01020633,0.01100910,0.00009697,0.00011296,0.00
 009644,-0.07783766,-0.15398673,0.10489719,-0.00003698,0.00001102,0.000
 00615,0.00009235,0.00085206,-0.00013507,0.00060538,-0.00009871,0.00010
 738,-0.00075181,-0.00044028,0.00037405,-0.00001941,0.00034912,-0.00052
 715,-0.00014830,0.00009374,0.00008730,-0.00009088,0.00006800,0.0000310
 0,-0.00003580,0.00008012,-0.00007777,0.00004616,-0.00007901,0.00015749
 ,0.00004022,-0.00001660,-0.00000987,0.00002620,-0.00000113,-0.00002237
 ,0.00810262,0.01246172,-0.01075308,-0.00993469,-0.01283543,0.01223269,
 0.08810143,0.16525348,-0.00245109,-0.00131524,-0.00172538,-0.00004816,
 -0.00044533,0.00015614,0.00008824,-0.00012756,-0.00034918,-0.00872304,
 -0.01196211,0.01178331,0.00003112,0.00015254,0.00016493,0.07812610,0.1
 0612611,-0.15197525,0.00000639,0.00004093,-0.00001084,0.00064900,0.000
 57802,0.00072380,0.00075978,0.00038884,0.00071713,-0.00029396,-0.00062
 445,0.00046695,0.00013192,-0.00023654,0.00021589,-0.00011052,0.0001201
 5,0.00007061,0.00004950,0.00001494,0.00001629,0.00002002,0.00017767,-0
 .00018213,0.00003790,-0.00011555,0.00028932,0.00008035,-0.00002494,-0.
 00001298,0.00004471,-0.00000333,-0.00003790,0.00955500,0.01603256,-0.0
 1466658,0.00553310,0.00614778,-0.00798991,-0.08348319,-0.11490566,0.16
 232821,-0.00002067,0.00000597,-0.00002435,0.00002948,0.00018006,0.0000
 2083,0.00050277,0.00082281,-0.00064151,0.00002470,-0.00001985,0.000007
 14,-0.00210747,-0.00291878,0.00186811,-0.00001511,0.00002000,0.0000338
 9,-0.07721885,-0.06536602,0.05115703,-0.00000503,0.00000476,0.00001094
 ,0.00000461,-0.00000965,-0.00001289,0.00001233,-0.00001921,-0.00001158
 ,0.00000137,0.00000677,0.00000310,-0.00008428,0.00002930,0.00007184,-0
 .00003227,-0.00003069,-0.00003490,0.00034589,-0.00003915,0.00011863,-0
 .00001321,0.00000690,-0.00008358,-0.00019525,-0.00012511,0.00019241,0.
 00073108,-0.00042420,-0.00064317,-0.00001059,-0.00000316,-0.00002280,0
 .00000713,-0.00001390,-0.00001160,0.00000745,0.00000121,-0.00000644,0.
 07913325,0.00002231,0.00008376,-0.00006532,0.00011027,0.00011730,-0.00
 036976,-0.00098849,0.00099257,0.00160208,0.00001897,-0.00006810,0.0000
 1969,-0.00939184,-0.02259762,0.01648436,0.00002105,-0.00000299,-0.0000
 5596,-0.06507535,-0.19331180,0.11476602,-0.00001305,-0.00000082,-0.000
 02296,0.00001754,0.00003088,-0.00001009,-0.00000575,0.00000122,0.00000
 194,-0.00000010,0.00000058,-0.00000095,0.00007441,0.00037062,0.0000404
 9,-0.00002539,-0.00002784,0.00000295,0.00089368,0.00009653,-0.00080054
 ,0.00005640,-0.00004578,-0.00005511,-0.00009251,0.00123743,-0.00004646
 ,-0.00031702,-0.00386161,-0.00410263,0.00001841,-0.00003080,0.00002751
 ,-0.00001324,0.00002094,0.00001282,0.00001882,0.00000636,-0.00000727,0
 .07316181,0.21306487,0.00004428,0.00012587,-0.00002678,-0.00025506,-0.
 00023744,0.00009670,-0.00089069,0.00000807,0.00117053,0.00004920,-0.00
 001641,-0.00000392,-0.00617836,-0.01519377,0.01133174,-0.00001591,0.00
 000266,0.00000952,0.05135638,0.11570577,-0.13681782,-0.00000318,-0.000
 00023,-0.00001115,-0.00001041,0.00000158,-0.00000382,-0.00003536,0.000
 01529,0.00001906,-0.00000456,0.00000138,0.00000096,0.00009975,0.000063
 11,-0.00014192,-0.00001222,-0.00000149,-0.00001636,0.00002313,0.000443
 30,-0.00007042,0.00011094,0.00010223,-0.00006395,-0.00006890,0.0008646
 1,0.00100938,-0.00009190,-0.00400885,-0.00125507,0.00001249,0.00002806
 ,0.00000408,-0.00000116,-0.00000411,-0.00000600,-0.00000800,-0.0000012
 1,0.00001212,-0.05619600,-0.12369512,0.14654289,-0.00003461,-0.0000337
 5,-0.00003209,0.00019145,-0.00000323,0.00025483,0.00089993,-0.00002643
 ,0.00087401,0.00000065,-0.00000755,0.00000780,-0.00280615,-0.00009480,
 -0.00223873,-0.00000499,0.00001854,0.00000968,-0.15983865,0.02397831,-
 0.12882858,-0.00000127,-0.00000036,0.00001139,0.00000899,-0.00000305,-
 0.00000889,0.00002088,-0.00002004,-0.00002602,0.00000724,0.00000268,-0
 .00000005,-0.00002859,-0.00003320,-0.00002048,-0.00009723,0.00011558,0
 .00006081,-0.00001849,-0.00010594,0.00000203,0.00045373,-0.00001119,-0
 .00032928,0.00095233,-0.00074659,0.00022528,-0.00015374,-0.00022954,-0
 .00001533,-0.00000855,-0.00001555,-0.00001059,0.00000735,-0.00000762,-
 0.00000153,0.00000970,0.00000116,-0.00001014,0.00782002,-0.00095786,0.
 00920793,0.17047960,0.00008063,0.00002611,0.00011393,-0.00009705,-0.00
 010785,-0.00000232,-0.00136780,0.00138726,0.00034292,0.00001141,-0.000
 00991,0.00000288,-0.01950892,0.00356155,-0.02341937,-0.00000685,-0.000
 00640,0.00000269,0.02452200,-0.05161652,0.02886853,-0.00000921,-0.0000
 0460,-0.00000121,-0.00000379,0.00000036,-0.00000192,-0.00002868,0.0000
 1120,0.00001075,0.00005131,-0.00002432,-0.00001794,-0.00005116,-0.0000
 0310,-0.00001360,0.00011466,0.00002146,0.00020482,0.00016162,-0.000026
 43,0.00006190,0.00060465,-0.00005117,0.00037353,-0.00023442,-0.0047339
 0,-0.00361043,-0.00015121,0.00128158,0.00084248,0.00001252,0.00001342,
 0.00000342,0.00000221,0.00000105,-0.00000291,0.00000033,0.00000067,0.0
 0000589,0.01696653,-0.00343505,0.01721868,-0.02569904,0.05606304,0.000
 01731,-0.00002293,0.00002031,0.00031733,-0.00022865,0.00019631,-0.0009
 0594,0.00117150,0.00039754,-0.00003639,-0.00000223,-0.00000056,-0.0114
 1521,0.00204144,-0.01416072,0.00003661,-0.00003399,-0.00004115,-0.1284
 9579,0.02819238,-0.19540634,0.00000768,-0.00000566,0.00001619,0.000020
 31,0.00001275,0.00000652,0.00000565,-0.00000101,-0.00000097,0.00004286
 ,-0.00003630,-0.00000608,-0.00002522,0.00005015,-0.00001428,0.00006625
 ,0.00017637,0.00022717,-0.00000438,-0.00001733,-0.00009538,0.00080334,
 -0.00050113,-0.00001823,0.00009438,-0.00355237,-0.00054431,0.00032660,
 -0.00004838,0.00088793,-0.00001068,0.00000744,-0.00001718,0.00000901,-
 0.00000233,0.00000440,0.00000012,0.00000930,0.00001194,-0.01228515,0.0
 0207722,-0.01403865,0.14285583,-0.02758822,0.21170165,0.00004735,-0.00
 003190,-0.00002154,0.00018205,-0.00036154,-0.00015044,0.00072156,-0.00
 015541,-0.00019410,-0.00001617,0.00000390,0.00000061,0.00510745,-0.001
 92251,-0.00285802,0.00002039,-0.00002401,-0.00002917,-0.25744989,0.064
 08821,0.09292819,0.00000120,-0.00000173,-0.00001592,-0.00001118,0.0000
 1330,0.00001698,-0.00001466,0.00000342,0.00000678,-0.00001472,-0.00001
 031,-0.00000492,0.00001066,0.00006408,0.00002255,0.00001945,0.00007892
 ,0.00006649,0.00007975,-0.00004654,-0.00022515,0.00030089,-0.00026177,
 0.00002040,0.00046321,0.00045722,0.00040655,0.00025814,0.00064085,0.00
 015209,0.00001720,0.00000921,0.00000825,-0.00000671,0.00001247,0.00000
 426,-0.00000830,-0.00000366,0.00001342,-0.00891735,0.00246695,0.002867
 61,-0.01785958,0.00463026,0.00857549,0.27706927,-0.00030131,-0.0005073
 2,-0.00032722,0.00185205,0.00023672,-0.00062225,-0.00268329,-0.0047822
 4,-0.00278457,-0.00004828,-0.00004626,0.00005539,0.02640321,-0.0070112
 7,-0.00997719,0.00000554,0.00001662,-0.00002788,0.06304350,-0.06601606
 ,-0.02748875,-0.00001304,0.00001693,0.00001457,0.00003072,0.00001342,-
 0.00001887,0.00020677,-0.00011631,-0.00010396,0.00000830,0.00001774,0.
 00003159,-0.00000530,0.00000757,0.00012194,-0.00003644,-0.00000873,-0.
 00009309,0.00005425,0.00022928,-0.00025978,-0.00029515,0.00004429,0.00
 017990,-0.00039792,0.00113648,0.00029012,0.00016706,0.00068975,0.00098
 479,-0.00001801,-0.00003788,0.00000368,0.00000400,-0.00000040,0.000006
 77,0.00002967,0.00001373,-0.00001745,-0.02223639,0.00735935,0.00857805
 ,0.00387948,-0.00234846,-0.00169803,-0.06964942,0.07109305,-0.00022314
 ,-0.00034977,-0.00022215,0.00133292,-0.00016342,0.00023494,-0.00186218
 ,-0.00330105,-0.00155286,-0.00002272,-0.00002245,0.00003030,0.01597172
 ,-0.00314127,-0.00747439,0.00000139,0.00001064,-0.00000275,0.09221908,
 -0.02776910,-0.08791430,-0.00000119,0.00001544,0.00002138,0.00002678,0
 .00000191,-0.00001540,0.00014387,-0.00007687,-0.00008066,0.00000465,0.
 00000700,0.00002132,-0.00001300,-0.00008539,0.00000152,-0.00002370,0.0
 0009465,-0.00003080,-0.00046284,0.00002152,0.00028265,0.00031222,-0.00
 013919,0.00019224,0.00006873,0.00069117,0.00001803,-0.00038422,0.00026
 311,0.00070492,-0.00002714,-0.00001019,-0.00002028,0.00001037,-0.00001
 441,-0.00000331,0.00001664,0.00001287,-0.00000649,0.01649006,-0.005802
 94,-0.00774110,-0.02198789,0.00660550,0.01087390,-0.10159041,0.0331522
 3,0.09268330\\0.00000027,-0.00000053,-0.00000037,-0.00000024,-0.000000
 80,0.00000042,-0.00000080,0.00000053,-0.00000023,-0.00000019,0.0000016
 8,-0.00000084,-0.00000012,-0.00000141,-0.00000011,0.00000090,-0.000000
 39,0.00000100,-0.00000043,0.00000019,0.00000064,0.00000099,-0.00000030
 ,0.00000021,0.00000030,0.00000100,0.00000013,0.00000056,0.00000022,0.0
 0000044,0.00000015,0.00000027,-0.00000021,0.00000070,-0.00000004,-0.00
 000013,0.00000045,-0.00000011,0.00000006,-0.00000045,-0.00000003,0.000
 00028,-0.00000005,0.00000021,-0.00000001,0.00000027,-0.00000059,0.0000
 0039,-0.00000003,-0.00000035,-0.00000060,-0.00000045,0.00000012,-0.000
 00029,-0.00000019,0.00000126,-0.00000028,-0.00000035,0.00000021,0.0000
 0022,-0.00000051,-0.00000018,0.00000022,-0.00000111,-0.00000022,-0.000
 00057,0.00000033,-0.00000073,-0.00000037\\\@


 If fifty million people say a stupid thing,
 it is still a stupid thing.
                   -- Anatole France
 Job cpu time:       0 days  7 hours 10 minutes 19.0 seconds.
 Elapsed time:       0 days  3 hours 35 minutes 17.6 seconds.
 File lengths (MBytes):  RWF=   1488 Int=      0 D2E=      0 Chk=     32 Scr=     32
 Normal termination of Gaussian 16 at Sat Sep 28 18:38:46 2019.
