 Entering Gaussian System, Link 0=g16
 Input=med/species/CCCCCCC/conformers/CCCCCCC_421.com
 Output=med/species/CCCCCCC/conformers/CCCCCCC_421.log
 Initial command:
 /shared/centos7/gaussian/g16/l1.exe "/scratch/harms.n/gauss_scrdir/Gau-30914.inp" -scrdir="/scratch/harms.n/gauss_scrdir/"
 Entering Link 1 = /shared/centos7/gaussian/g16/l1.exe PID=     30915.
  
 Copyright (c) 1988,1990,1992,1993,1995,1998,2003,2009,2016,
            Gaussian, Inc.  All Rights Reserved.
  
 This is part of the Gaussian(R) 16 program.  It is based on
 the Gaussian(R) 09 system (copyright 2009, Gaussian, Inc.),
 the Gaussian(R) 03 system (copyright 2003, Gaussian, Inc.),
 the Gaussian(R) 98 system (copyright 1998, Gaussian, Inc.),
 the Gaussian(R) 94 system (copyright 1995, Gaussian, Inc.),
 the Gaussian 92(TM) system (copyright 1992, Gaussian, Inc.),
 the Gaussian 90(TM) system (copyright 1990, Gaussian, Inc.),
 the Gaussian 88(TM) system (copyright 1988, Gaussian, Inc.),
 the Gaussian 86(TM) system (copyright 1986, Carnegie Mellon
 University), and the Gaussian 82(TM) system (copyright 1983,
 Carnegie Mellon University). Gaussian is a federally registered
 trademark of Gaussian, Inc.
  
 This software contains proprietary and confidential information,
 including trade secrets, belonging to Gaussian, Inc.
  
 This software is provided under written license and may be
 used, copied, transmitted, or stored only in accord with that
 written license.
  
 The following legend is applicable only to US Government
 contracts under FAR:
  
                    RESTRICTED RIGHTS LEGEND
  
 Use, reproduction and disclosure by the US Government is
 subject to restrictions as set forth in subparagraphs (a)
 and (c) of the Commercial Computer Software - Restricted
 Rights clause in FAR 52.227-19.
  
 Gaussian, Inc.
 340 Quinnipiac St., Bldg. 40, Wallingford CT 06492
  
  
 ---------------------------------------------------------------
 Warning -- This program may not be used in any manner that
 competes with the business of Gaussian, Inc. or will provide
 assistance to any competitor of Gaussian, Inc.  The licensee
 of this program is prohibited from giving any competitor of
 Gaussian, Inc. access to this program.  By using this program,
 the user acknowledges that Gaussian, Inc. is engaged in the
 business of creating and licensing software in the field of
 computational chemistry and represents and warrants to the
 licensee that it is not a competitor of Gaussian, Inc. and that
 it will not use this program in any manner prohibited above.
 ---------------------------------------------------------------
  

 Cite this work as:
 Gaussian 16, Revision A.03,
 M. J. Frisch, G. W. Trucks, H. B. Schlegel, G. E. Scuseria, 
 M. A. Robb, J. R. Cheeseman, G. Scalmani, V. Barone, 
 G. A. Petersson, H. Nakatsuji, X. Li, M. Caricato, A. V. Marenich, 
 J. Bloino, B. G. Janesko, R. Gomperts, B. Mennucci, H. P. Hratchian, 
 J. V. Ortiz, A. F. Izmaylov, J. L. Sonnenberg, D. Williams-Young, 
 F. Ding, F. Lipparini, F. Egidi, J. Goings, B. Peng, A. Petrone, 
 T. Henderson, D. Ranasinghe, V. G. Zakrzewski, J. Gao, N. Rega, 
 G. Zheng, W. Liang, M. Hada, M. Ehara, K. Toyota, R. Fukuda, 
 J. Hasegawa, M. Ishida, T. Nakajima, Y. Honda, O. Kitao, H. Nakai, 
 T. Vreven, K. Throssell, J. A. Montgomery, Jr., J. E. Peralta, 
 F. Ogliaro, M. J. Bearpark, J. J. Heyd, E. N. Brothers, K. N. Kudin, 
 V. N. Staroverov, T. A. Keith, R. Kobayashi, J. Normand, 
 K. Raghavachari, A. P. Rendell, J. C. Burant, S. S. Iyengar, 
 J. Tomasi, M. Cossi, J. M. Millam, M. Klene, C. Adamo, R. Cammi, 
 J. W. Ochterski, R. L. Martin, K. Morokuma, O. Farkas, 
 J. B. Foresman, and D. J. Fox, Gaussian, Inc., Wallingford CT, 2016.
 
 ******************************************
 Gaussian 16:  EM64L-G16RevA.03 25-Dec-2016
                27-Sep-2019 
 ******************************************
 %nprocshared=20
 Will use up to   20 processors via shared memory.
 %mem=5GB
 ----------------------------------------------------------------------
 #p m062x/cc-pVTZ opt=(calcfc,maxcycles=900,Tight) freq IOP(7/33=1,2/16
 =3) scf=(maxcycle=900)
 ----------------------------------------------------------------------
 1/6=900,7=10,10=4,18=20,19=15,26=3,38=1/1,3;
 2/9=110,12=2,16=3,17=6,18=5,40=1/2;
 3/5=16,6=1,11=2,25=1,30=1,71=2,74=-55,140=1/1,2,3;
 4//1;
 5/5=2,7=900,38=5/2;
 8/6=4,10=90,11=11/1;
 11/6=1,8=1,9=11,15=111,16=1/1,2,10;
 10/6=1,13=1/2;
 6/7=2,8=2,9=2,10=2,28=1/1;
 7/10=1,18=20,25=1,33=1/1,2,3,16;
 1/6=900,7=10,10=4,18=20,19=15,26=3/3(2);
 2/9=110,16=3/2;
 99//99;
 2/9=110,16=3/2;
 3/5=16,6=1,11=2,25=1,30=1,71=1,74=-55/1,2,3;
 4/5=5,16=3,69=1/1;
 5/5=2,7=900,38=5/2;
 7/33=1/1,2,3,16;
 1/6=900,7=10,18=20,19=15,26=3/3(-5);
 2/9=110,16=3/2;
 6/7=2,8=2,9=2,10=2,19=2,28=1/1;
 99/9=1/99;
 Leave Link    1 at Fri Sep 27 14:55:03 2019, MaxMem=   671088640 cpu:               6.1 elap:               3.1
 (Enter /shared/centos7/gaussian/g16/l101.exe)
 ------------------------------
 Gaussian input prepared by ASE
 ------------------------------
 Symbolic Z-matrix:
 Charge =  0 Multiplicity = 1
 C                     1.38066  -1.18439   0.44105 
 C                     0.156    -0.47731   0.91244 
 C                    -0.8916   -0.18483  -0.13253 
 C                     2.19883  -0.5072   -0.60634 
 C                    -2.13755   0.50185   0.3752 
 C                     1.56631  -0.35339  -1.92765 
 C                    -2.16317   0.80924   1.84992 
 H                     3.15334  -1.09467  -0.71998 
 H                     2.53662   0.48522  -0.22326 
 H                     1.11555  -2.20515   0.09269 
 H                     2.02745  -1.34664   1.32761 
 H                     0.45351   0.47013   1.38838 
 H                    -0.29409  -1.10047   1.71392 
 H                    -1.1831   -1.1241   -0.63246 
 H                    -0.4355    0.45165  -0.91867 
 H                    -2.27683   1.46653  -0.17933 
 H                    -3.01842  -0.11512   0.12887 
 H                     0.5677   -0.82738  -1.97234 
 H                     1.42782   0.73787  -2.18746 
 H                     2.19046  -0.80605  -2.72705 
 H                    -1.18545   1.13086   2.21074 
 H                    -2.48436  -0.09342   2.43976 
 H                    -2.90557   1.63283   2.05594 
 
 ITRead=  0  0  0  0  0  0  0  0  0  0  0  0  0  0  0  0  0  0  0  0
 ITRead=  0  0  0
 MicOpt= -1 -1 -1 -1 -1 -1 -1 -1 -1 -1 -1 -1 -1 -1 -1 -1 -1 -1 -1 -1
 MicOpt= -1 -1 -1
 NAtoms=     23 NQM=       23 NQMF=       0 NMMI=      0 NMMIF=      0
                NMic=       0 NMicF=      0.
                    Isotopes and Nuclear Properties:
 (Nuclear quadrupole moments (NQMom) in fm**2, nuclear magnetic moments (NMagM)
  in nuclear magnetons)

  Atom         1           2           3           4           5           6           7           8           9          10
 IAtWgt=          12          12          12          12          12          12          12           1           1           1
 AtmWgt=  12.0000000  12.0000000  12.0000000  12.0000000  12.0000000  12.0000000  12.0000000   1.0078250   1.0078250   1.0078250
 NucSpn=           0           0           0           0           0           0           0           1           1           1
 AtZEff=  -0.0000000  -0.0000000  -0.0000000  -0.0000000  -0.0000000  -0.0000000  -0.0000000  -0.0000000  -0.0000000  -0.0000000
 NQMom=    0.0000000   0.0000000   0.0000000   0.0000000   0.0000000   0.0000000   0.0000000   0.0000000   0.0000000   0.0000000
 NMagM=    0.0000000   0.0000000   0.0000000   0.0000000   0.0000000   0.0000000   0.0000000   2.7928460   2.7928460   2.7928460
 AtZNuc=   6.0000000   6.0000000   6.0000000   6.0000000   6.0000000   6.0000000   6.0000000   1.0000000   1.0000000   1.0000000

  Atom        11          12          13          14          15          16          17          18          19          20
 IAtWgt=           1           1           1           1           1           1           1           1           1           1
 AtmWgt=   1.0078250   1.0078250   1.0078250   1.0078250   1.0078250   1.0078250   1.0078250   1.0078250   1.0078250   1.0078250
 NucSpn=           1           1           1           1           1           1           1           1           1           1
 AtZEff=  -0.0000000  -0.0000000  -0.0000000  -0.0000000  -0.0000000  -0.0000000  -0.0000000  -0.0000000  -0.0000000  -0.0000000
 NQMom=    0.0000000   0.0000000   0.0000000   0.0000000   0.0000000   0.0000000   0.0000000   0.0000000   0.0000000   0.0000000
 NMagM=    2.7928460   2.7928460   2.7928460   2.7928460   2.7928460   2.7928460   2.7928460   2.7928460   2.7928460   2.7928460
 AtZNuc=   1.0000000   1.0000000   1.0000000   1.0000000   1.0000000   1.0000000   1.0000000   1.0000000   1.0000000   1.0000000

  Atom        21          22          23
 IAtWgt=           1           1           1
 AtmWgt=   1.0078250   1.0078250   1.0078250
 NucSpn=           1           1           1
 AtZEff=  -0.0000000  -0.0000000  -0.0000000
 NQMom=    0.0000000   0.0000000   0.0000000
 NMagM=    2.7928460   2.7928460   2.7928460
 AtZNuc=   1.0000000   1.0000000   1.0000000
 Leave Link  101 at Fri Sep 27 14:55:05 2019, MaxMem=   671088640 cpu:               2.8 elap:               1.4
 (Enter /shared/centos7/gaussian/g16/l103.exe)

 GradGradGradGradGradGradGradGradGradGradGradGradGradGradGradGradGradGrad
 Berny optimization.
 Initialization pass.
                           ----------------------------
                           !    Initial Parameters    !
                           ! (Angstroms and Degrees)  !
 --------------------------                            --------------------------
 ! Name  Definition              Value          Derivative Info.                !
 --------------------------------------------------------------------------------
 ! R1    R(1,2)                  1.4906         calculate D2E/DX2 analytically  !
 ! R2    R(1,4)                  1.4917         calculate D2E/DX2 analytically  !
 ! R3    R(1,10)                 1.1107         calculate D2E/DX2 analytically  !
 ! R4    R(1,11)                 1.1093         calculate D2E/DX2 analytically  !
 ! R5    R(2,3)                  1.5083         calculate D2E/DX2 analytically  !
 ! R6    R(2,12)                 1.1012         calculate D2E/DX2 analytically  !
 ! R7    R(2,13)                 1.1105         calculate D2E/DX2 analytically  !
 ! R8    R(3,5)                  1.5105         calculate D2E/DX2 analytically  !
 ! R9    R(3,14)                 1.1032         calculate D2E/DX2 analytically  !
 ! R10   R(3,15)                 1.1096         calculate D2E/DX2 analytically  !
 ! R11   R(4,6)                  1.473          calculate D2E/DX2 analytically  !
 ! R12   R(4,8)                  1.1266         calculate D2E/DX2 analytically  !
 ! R13   R(4,9)                  1.1161         calculate D2E/DX2 analytically  !
 ! R14   R(5,7)                  1.5066         calculate D2E/DX2 analytically  !
 ! R15   R(5,16)                 1.1214         calculate D2E/DX2 analytically  !
 ! R16   R(5,17)                 1.1033         calculate D2E/DX2 analytically  !
 ! R17   R(6,18)                 1.1063         calculate D2E/DX2 analytically  !
 ! R18   R(6,19)                 1.1303         calculate D2E/DX2 analytically  !
 ! R19   R(6,20)                 1.1106         calculate D2E/DX2 analytically  !
 ! R20   R(7,21)                 1.0907         calculate D2E/DX2 analytically  !
 ! R21   R(7,22)                 1.1251         calculate D2E/DX2 analytically  !
 ! R22   R(7,23)                 1.1278         calculate D2E/DX2 analytically  !
 ! A1    A(2,1,4)              117.2155         calculate D2E/DX2 analytically  !
 ! A2    A(2,1,10)             109.8181         calculate D2E/DX2 analytically  !
 ! A3    A(2,1,11)             107.1972         calculate D2E/DX2 analytically  !
 ! A4    A(4,1,10)             109.1428         calculate D2E/DX2 analytically  !
 ! A5    A(4,1,11)             107.9242         calculate D2E/DX2 analytically  !
 ! A6    A(10,1,11)            104.7975         calculate D2E/DX2 analytically  !
 ! A7    A(1,2,3)              116.3286         calculate D2E/DX2 analytically  !
 ! A8    A(1,2,12)             108.8339         calculate D2E/DX2 analytically  !
 ! A9    A(1,2,13)             107.1599         calculate D2E/DX2 analytically  !
 ! A10   A(3,2,12)             108.6769         calculate D2E/DX2 analytically  !
 ! A11   A(3,2,13)             109.1065         calculate D2E/DX2 analytically  !
 ! A12   A(12,2,13)            106.2818         calculate D2E/DX2 analytically  !
 ! A13   A(2,3,5)              115.3517         calculate D2E/DX2 analytically  !
 ! A14   A(2,3,14)             109.4126         calculate D2E/DX2 analytically  !
 ! A15   A(2,3,15)             108.4572         calculate D2E/DX2 analytically  !
 ! A16   A(5,3,14)             108.748          calculate D2E/DX2 analytically  !
 ! A17   A(5,3,15)             108.448          calculate D2E/DX2 analytically  !
 ! A18   A(14,3,15)            106.017          calculate D2E/DX2 analytically  !
 ! A19   A(1,4,6)              116.2156         calculate D2E/DX2 analytically  !
 ! A20   A(1,4,8)              107.3865         calculate D2E/DX2 analytically  !
 ! A21   A(1,4,9)              109.1881         calculate D2E/DX2 analytically  !
 ! A22   A(6,4,8)              109.1358         calculate D2E/DX2 analytically  !
 ! A23   A(6,4,9)              110.1819         calculate D2E/DX2 analytically  !
 ! A24   A(8,4,9)              103.9968         calculate D2E/DX2 analytically  !
 ! A25   A(3,5,7)              115.8355         calculate D2E/DX2 analytically  !
 ! A26   A(3,5,16)             109.1048         calculate D2E/DX2 analytically  !
 ! A27   A(3,5,17)             109.2256         calculate D2E/DX2 analytically  !
 ! A28   A(7,5,16)             107.8425         calculate D2E/DX2 analytically  !
 ! A29   A(7,5,17)             108.6061         calculate D2E/DX2 analytically  !
 ! A30   A(16,5,17)            105.7527         calculate D2E/DX2 analytically  !
 ! A31   A(4,6,18)             112.2791         calculate D2E/DX2 analytically  !
 ! A32   A(4,6,19)             111.0771         calculate D2E/DX2 analytically  !
 ! A33   A(4,6,20)             111.21           calculate D2E/DX2 analytically  !
 ! A34   A(18,6,19)            107.084          calculate D2E/DX2 analytically  !
 ! A35   A(18,6,20)            107.6728         calculate D2E/DX2 analytically  !
 ! A36   A(19,6,20)            107.272          calculate D2E/DX2 analytically  !
 ! A37   A(5,7,21)             111.6375         calculate D2E/DX2 analytically  !
 ! A38   A(5,7,22)             110.7514         calculate D2E/DX2 analytically  !
 ! A39   A(5,7,23)             109.8163         calculate D2E/DX2 analytically  !
 ! A40   A(21,7,22)            108.6055         calculate D2E/DX2 analytically  !
 ! A41   A(21,7,23)            108.3201         calculate D2E/DX2 analytically  !
 ! A42   A(22,7,23)            107.5897         calculate D2E/DX2 analytically  !
 ! D1    D(4,1,2,3)             60.1771         calculate D2E/DX2 analytically  !
 ! D2    D(4,1,2,12)           -62.9361         calculate D2E/DX2 analytically  !
 ! D3    D(4,1,2,13)          -177.4772         calculate D2E/DX2 analytically  !
 ! D4    D(10,1,2,3)           -65.0833         calculate D2E/DX2 analytically  !
 ! D5    D(10,1,2,12)          171.8035         calculate D2E/DX2 analytically  !
 ! D6    D(10,1,2,13)           57.2624         calculate D2E/DX2 analytically  !
 ! D7    D(11,1,2,3)          -178.3945         calculate D2E/DX2 analytically  !
 ! D8    D(11,1,2,12)           58.4924         calculate D2E/DX2 analytically  !
 ! D9    D(11,1,2,13)          -56.0487         calculate D2E/DX2 analytically  !
 ! D10   D(2,1,4,6)            -66.3002         calculate D2E/DX2 analytically  !
 ! D11   D(2,1,4,8)            171.2155         calculate D2E/DX2 analytically  !
 ! D12   D(2,1,4,9)             59.0475         calculate D2E/DX2 analytically  !
 ! D13   D(10,1,4,6)            59.2961         calculate D2E/DX2 analytically  !
 ! D14   D(10,1,4,8)           -63.1883         calculate D2E/DX2 analytically  !
 ! D15   D(10,1,4,9)          -175.3563         calculate D2E/DX2 analytically  !
 ! D16   D(11,1,4,6)           172.6507         calculate D2E/DX2 analytically  !
 ! D17   D(11,1,4,8)            50.1664         calculate D2E/DX2 analytically  !
 ! D18   D(11,1,4,9)           -62.0016         calculate D2E/DX2 analytically  !
 ! D19   D(1,2,3,5)            178.568          calculate D2E/DX2 analytically  !
 ! D20   D(1,2,3,14)            55.6072         calculate D2E/DX2 analytically  !
 ! D21   D(1,2,3,15)           -59.6092         calculate D2E/DX2 analytically  !
 ! D22   D(12,2,3,5)           -58.2372         calculate D2E/DX2 analytically  !
 ! D23   D(12,2,3,14)          178.802          calculate D2E/DX2 analytically  !
 ! D24   D(12,2,3,15)           63.5856         calculate D2E/DX2 analytically  !
 ! D25   D(13,2,3,5)            57.2492         calculate D2E/DX2 analytically  !
 ! D26   D(13,2,3,14)          -65.7116         calculate D2E/DX2 analytically  !
 ! D27   D(13,2,3,15)          179.072          calculate D2E/DX2 analytically  !
 ! D28   D(2,3,5,7)              0.3714         calculate D2E/DX2 analytically  !
 ! D29   D(2,3,5,16)           122.2404         calculate D2E/DX2 analytically  !
 ! D30   D(2,3,5,17)          -122.6043         calculate D2E/DX2 analytically  !
 ! D31   D(14,3,5,7)           123.6843         calculate D2E/DX2 analytically  !
 ! D32   D(14,3,5,16)         -114.4467         calculate D2E/DX2 analytically  !
 ! D33   D(14,3,5,17)            0.7086         calculate D2E/DX2 analytically  !
 ! D34   D(15,3,5,7)          -121.4564         calculate D2E/DX2 analytically  !
 ! D35   D(15,3,5,16)            0.4126         calculate D2E/DX2 analytically  !
 ! D36   D(15,3,5,17)          115.568          calculate D2E/DX2 analytically  !
 ! D37   D(1,4,6,18)            -3.3673         calculate D2E/DX2 analytically  !
 ! D38   D(1,4,6,19)           116.5097         calculate D2E/DX2 analytically  !
 ! D39   D(1,4,6,20)          -124.0915         calculate D2E/DX2 analytically  !
 ! D40   D(8,4,6,18)           118.194          calculate D2E/DX2 analytically  !
 ! D41   D(8,4,6,19)          -121.929          calculate D2E/DX2 analytically  !
 ! D42   D(8,4,6,20)            -2.5302         calculate D2E/DX2 analytically  !
 ! D43   D(9,4,6,18)          -128.209          calculate D2E/DX2 analytically  !
 ! D44   D(9,4,6,19)            -8.332          calculate D2E/DX2 analytically  !
 ! D45   D(9,4,6,20)           111.0668         calculate D2E/DX2 analytically  !
 ! D46   D(3,5,7,21)            38.4885         calculate D2E/DX2 analytically  !
 ! D47   D(3,5,7,22)           -82.6662         calculate D2E/DX2 analytically  !
 ! D48   D(3,5,7,23)           158.6461         calculate D2E/DX2 analytically  !
 ! D49   D(16,5,7,21)          -84.05           calculate D2E/DX2 analytically  !
 ! D50   D(16,5,7,22)          154.7953         calculate D2E/DX2 analytically  !
 ! D51   D(16,5,7,23)           36.1075         calculate D2E/DX2 analytically  !
 ! D52   D(17,5,7,21)          161.7894         calculate D2E/DX2 analytically  !
 ! D53   D(17,5,7,22)           40.6347         calculate D2E/DX2 analytically  !
 ! D54   D(17,5,7,23)          -78.0531         calculate D2E/DX2 analytically  !
 --------------------------------------------------------------------------------
 Trust Radius=3.00D-01 FncErr=1.00D-07 GrdErr=1.00D-06 EigMax=2.50D+02 EigMin=1.00D-04
 Number of steps in this run=    138 maximum allowed number of steps=    138.
 GradGradGradGradGradGradGradGradGradGradGradGradGradGradGradGradGradGrad

 Leave Link  103 at Fri Sep 27 14:55:06 2019, MaxMem=   671088640 cpu:               1.6 elap:               0.8
 (Enter /shared/centos7/gaussian/g16/l202.exe)
                          Input orientation:                          
 ---------------------------------------------------------------------
 Center     Atomic      Atomic             Coordinates (Angstroms)
 Number     Number       Type             X           Y           Z
 ---------------------------------------------------------------------
      1          6           0        1.380657   -1.184390    0.441052
      2          6           0        0.155995   -0.477314    0.912445
      3          6           0       -0.891603   -0.184829   -0.132530
      4          6           0        2.198826   -0.507198   -0.606342
      5          6           0       -2.137550    0.501849    0.375205
      6          6           0        1.566312   -0.353395   -1.927651
      7          6           0       -2.163175    0.809242    1.849918
      8          1           0        3.153341   -1.094671   -0.719975
      9          1           0        2.536621    0.485224   -0.223264
     10          1           0        1.115552   -2.205146    0.092693
     11          1           0        2.027447   -1.346644    1.327607
     12          1           0        0.453506    0.470135    1.388378
     13          1           0       -0.294093   -1.100466    1.713918
     14          1           0       -1.183101   -1.124096   -0.632460
     15          1           0       -0.435502    0.451648   -0.918668
     16          1           0       -2.276830    1.466532   -0.179329
     17          1           0       -3.018416   -0.115121    0.128865
     18          1           0        0.567705   -0.827385   -1.972339
     19          1           0        1.427822    0.737869   -2.187456
     20          1           0        2.190460   -0.806048   -2.727049
     21          1           0       -1.185451    1.130865    2.210739
     22          1           0       -2.484357   -0.093416    2.439757
     23          1           0       -2.905567    1.632826    2.055944
 ---------------------------------------------------------------------
                    Distance matrix (angstroms):
                    1          2          3          4          5
     1  C    0.000000
     2  C    1.490625   0.000000
     3  C    2.547800   1.508304   0.000000
     4  C    1.491652   2.545735   3.143116   0.000000
     5  C    3.901989   2.551026   1.510531   4.559141   0.000000
     6  C    2.517097   3.173404   3.048315   1.472952   4.444455
     7  C    4.303280   2.812940   2.556398   5.176223   1.506627
     8  H    2.120954   3.468430   4.187419   1.126559   5.633988
     9  H    2.136628   2.807792   3.494270   1.116134   4.712358
    10  H    1.110665   2.139660   2.856760   2.131938   4.241498
    11  H    1.109344   2.104858   3.464487   2.115231   4.655233
    12  H    2.120021   1.101220   2.133414   2.824930   2.782283
    13  H    2.105236   1.110520   2.145875   3.456909   2.785300
    14  H    2.780093   2.144349   1.103233   3.437830   2.137769
    15  H    2.797123   2.136777   1.109570   2.820749   2.138596
    16  H    4.559547   3.299871   2.155930   4.910138   1.121392
    17  H    4.537912   3.289691   2.143950   5.283358   1.103295
    18  H    2.571536   2.934967   2.434616   2.151517   3.820500
    19  H    3.256741   3.564211   3.233237   2.155124   4.397136
    20  H    3.291776   4.182467   4.076341   2.141676   5.483269
    21  H    3.882924   2.463997   2.703387   4.698141   2.161328
    22  H    4.485908   3.074332   3.026859   5.601976   2.176463
    23  H    5.377388   3.890173   3.485590   6.141849   2.166529
                    6          7          8          9         10
     6  C    0.000000
     7  C    5.434227   0.000000
     8  H    2.127589   6.204400   0.000000
     9  H    2.133007   5.146955   1.767239   0.000000
    10  H    2.777401   4.787946   2.458896   3.058979   0.000000
    11  H    3.434515   4.741515   2.350260   2.453609   1.758861
    12  H    3.593409   2.678625   3.766017   2.633816   3.045362
    13  H    4.156952   2.675621   4.220032   3.778892   2.415737
    14  H    3.135406   3.295533   4.337425   4.073534   2.641651
    15  H    2.381890   3.282955   3.912848   3.052578   3.238391
    16  H    4.597663   2.136069   6.028169   4.912658   5.006343
    17  H    5.030484   2.132582   6.306397   5.598468   4.632409
    18  H    1.106291   4.974525   2.885372   2.942590   2.542188
    19  H    1.130281   5.403770   2.913610   2.269651   3.736031
    20  H    1.110627   6.520117   2.244724   2.838336   3.326236
    21  H    5.186665   1.090678   5.689219   4.493889   4.572712
    22  H    5.962362   1.125104   6.539882   5.712855   4.788262
    23  H    6.309660   1.127778   7.201065   6.010756   5.895234
                   11         12         13         14         15
    11  H    0.000000
    12  H    2.404510   0.000000
    13  H    2.366303   1.769652   0.000000
    14  H    3.768157   3.050219   2.509259   0.000000
    15  H    3.787576   2.472477   3.059340   1.767424   0.000000
    16  H    5.358323   3.302310   3.755677   2.848319   2.228699
    17  H    5.330513   3.739404   3.302307   2.228459   2.844292
    18  H    3.645562   3.604305   3.795492   2.224553   1.937156
    19  H    4.130425   3.715853   4.643833   3.563965   2.272382
    20  H    4.093782   4.645685   5.097241   3.983638   3.427495
    21  H    4.152190   1.949108   2.453607   3.628861   3.288912
    22  H    4.812882   3.170808   2.517587   3.492002   3.971639
    23  H    5.808816   3.616748   3.795743   4.218415   4.042860
                   16         17         18         19         20
    16  H    0.000000
    17  H    1.773854   0.000000
    18  H    4.070420   4.216947   0.000000
    19  H    4.276444   5.085466   1.798915   0.000000
    20  H    5.622471   5.980470   1.789798   1.804566   0.000000
    21  H    2.648812   3.040796   4.940287   5.131058   6.287301
    22  H    3.055506   2.371900   5.414829   6.116148   7.004116
    23  H    2.327962   2.604167   5.860317   6.130714   7.402339
                   21         22         23
    21  H    0.000000
    22  H    1.799575   0.000000
    23  H    1.798535   1.817868   0.000000
 Stoichiometry    C7H16
 Framework group  C1[X(C7H16)]
 Deg. of freedom    63
 Full point group                 C1      NOp   1
 Largest Abelian subgroup         C1      NOp   1
 Largest concise Abelian subgroup C1      NOp   1
                         Standard orientation:                         
 ---------------------------------------------------------------------
 Center     Atomic      Atomic             Coordinates (Angstroms)
 Number     Number       Type             X           Y           Z
 ---------------------------------------------------------------------
      1          6           0       -1.275125   -1.109502    0.363099
      2          6           0        0.164319   -0.831846    0.093154
      3          6           0        0.637882    0.573248    0.369621
      4          6           0       -2.278499   -0.311403   -0.399334
      5          6           0        2.106948    0.821385    0.120676
      6          6           0       -2.320867    1.131467   -0.106215
      7          6           0        2.897438   -0.360818   -0.376765
      8          1           0       -3.291430   -0.759799   -0.194276
      9          1           0       -2.125796   -0.477970   -1.492354
     10          1           0       -1.480431   -1.009932    1.450072
     11          1           0       -1.450014   -2.181762    0.138783
     12          1           0        0.382663   -1.077165   -0.957954
     13          1           0        0.756014   -1.542467    0.708110
     14          1           0        0.405391    0.839593    1.414672
     15          1           0        0.051747    1.272182   -0.262108
     16          1           0        2.217689    1.648513   -0.628401
     17          1           0        2.574975    1.192662    1.048235
     18          1           0       -1.621868    1.415810    0.702752
     19          1           0       -2.040120    1.739613   -1.016641
     20          1           0       -3.339656    1.449270    0.201294
     21          1           0        2.323886   -0.958223   -1.086499
     22          1           0        3.208405   -1.021190    0.479429
     23          1           0        3.835970   -0.004323   -0.890530
 ---------------------------------------------------------------------
 Rotational constants (GHZ):           5.0762722           1.2409749           1.0849380
 Leave Link  202 at Fri Sep 27 14:55:07 2019, MaxMem=   671088640 cpu:               3.7 elap:               1.8
 (Enter /shared/centos7/gaussian/g16/l301.exe)
 Standard basis: CC-pVTZ (5D, 7F)
 Ernie: Thresh=  0.10000D-02 Tol=  0.10000D-05 Strict=F.
 Ernie:  21 primitive shells out of 310 were deleted.
 There are   485 symmetry adapted cartesian basis functions of A   symmetry.
 There are   434 symmetry adapted basis functions of A   symmetry.
   434 basis functions,   636 primitive gaussians,   485 cartesian basis functions
    29 alpha electrons       29 beta electrons
       nuclear repulsion energy       328.1827034779 Hartrees.
 IExCor= 4336 DFT=T Ex+Corr=M062X ExCW=0 ScaHFX=  0.540000
 ScaDFX=  1.000000  1.000000  1.000000  1.000000 ScalE2=  1.000000  1.000000
 IRadAn=      5 IRanWt=     -1 IRanGd=            0 ICorTp=0 IEmpDi=  4
 NAtoms=   23 NActive=   23 NUniq=   23 SFac= 1.00D+00 NAtFMM=   60 NAOKFM=F Big=F
 Integral buffers will be    131072 words long.
 Raffenetti 2 integral format.
 Two-electron integral symmetry is turned on.
 Leave Link  301 at Fri Sep 27 14:55:08 2019, MaxMem=   671088640 cpu:               1.9 elap:               1.0
 (Enter /shared/centos7/gaussian/g16/l302.exe)
 NPDir=0 NMtPBC=     1 NCelOv=     1 NCel=       1 NClECP=     1 NCelD=      1
         NCelK=      1 NCelE2=     1 NClLst=     1 CellRange=     0.0.
 One-electron integrals computed using PRISM.
 One-electron integral symmetry used in STVInt
 NBasis=   434 RedAO= T EigKep=  2.02D-04  NBF=   434
 NBsUse=   434 1.00D-06 EigRej= -1.00D+00 NBFU=   434
 Precomputing XC quadrature grid using
 IXCGrd= 4 IRadAn=           5 IRanWt=          -1 IRanGd=           0 AccXCQ= 0.00D+00.
 Generated NRdTot=       0 NPtTot=           0 NUsed=           0 NTot=          32
 NSgBfM=   485   485   485   485   485 MxSgAt=    23 MxSgA2=    23.
 Leave Link  302 at Fri Sep 27 14:56:41 2019, MaxMem=   671088640 cpu:             184.9 elap:              92.5
 (Enter /shared/centos7/gaussian/g16/l303.exe)
 DipDrv:  MaxL=1.
 Leave Link  303 at Fri Sep 27 14:56:45 2019, MaxMem=   671088640 cpu:               7.8 elap:               3.9
 (Enter /shared/centos7/gaussian/g16/l401.exe)
 ExpMin= 1.03D-01 ExpMax= 8.24D+03 ExpMxC= 2.81D+02 IAcc=3 IRadAn=         5 AccDes= 0.00D+00
 Harris functional with IExCor= 1009 and IRadAn=       5 diagonalized for initial guess.
 HarFok:  IExCor= 1009 AccDes= 0.00D+00 IRadAn=         5 IDoV= 1 UseB2=F ITyADJ=14
 ICtDFT=  3500011 ScaDFX=  1.000000  1.000000  1.000000  1.000000
 FoFCou: FMM=F IPFlag=           0 FMFlag=      100000 FMFlg1=           0
         NFxFlg=           0 DoJE=T BraDBF=F KetDBF=T FulRan=T
         wScrn=  0.000000 ICntrl=       500 IOpCl=  0 I1Cent=   200000004 NGrid=           0
         NMat0=    1 NMatS0=      1 NMatT0=    0 NMatD0=    1 NMtDS0=    0 NMtDT0=    0
 Petite list used in FoFCou.
 Harris En= -276.315185951666    
 JPrj=0 DoOrth=F DoCkMO=F.
 Leave Link  401 at Fri Sep 27 14:57:38 2019, MaxMem=   671088640 cpu:             105.4 elap:              52.7
 (Enter /shared/centos7/gaussian/g16/l502.exe)
 Integral symmetry usage will be decided dynamically.
 Closed shell SCF:
 Using DIIS extrapolation, IDIIS=  1040.
 NGot=   671088640 LenX=   670604095 LenY=   670368385
 Requested convergence on RMS density matrix=1.00D-08 within 900 cycles.
 Requested convergence on MAX density matrix=1.00D-06.
 Requested convergence on             energy=1.00D-06.
 No special actions if energy rises.
 Fock matrices will be formed incrementally for  20 cycles.
 Integral accuracy reduced to 1.0D-05 until final iterations.

 Cycle   1  Pass 0  IDiag  1:
 FoFJK:  IHMeth= 1 ICntrl=       0 DoSepK=F KAlg= 0 I1Cent=           0 FoldK=F
 IRaf= 940000000 NMat=       1 IRICut=       1 DoRegI=T DoRafI=F ISym2E= 0 IDoP0=0 IntGTp=1.
 FoFCou: FMM=F IPFlag=           0 FMFlag=      100000 FMFlg1=           0
         NFxFlg=           0 DoJE=F BraDBF=F KetDBF=F FulRan=T
         wScrn=  0.000000 ICntrl=         0 IOpCl=  0 I1Cent=           0 NGrid=           0
         NMat0=    1 NMatS0=      1 NMatT0=    0 NMatD0=    1 NMtDS0=    0 NMtDT0=    0
 Symmetry not used in FoFCou.
 E= -275.947543804245    
 DIIS: error= 2.68D-02 at cycle   1 NSaved=   1.
 NSaved= 1 IEnMin= 1 EnMin= -275.947543804245     IErMin= 1 ErrMin= 2.68D-02
 ErrMax= 2.68D-02  0.00D+00 EMaxC= 1.00D-01 BMatC= 3.75D-01 BMatP= 3.75D-01
 IDIUse=3 WtCom= 7.32D-01 WtEn= 2.68D-01
 Coeff-Com:  0.100D+01
 Coeff-En:   0.100D+01
 Coeff:      0.100D+01
 Gap=     0.355 Goal=   None    Shift=    0.000
 GapD=    0.355 DampG=1.000 DampE=0.500 DampFc=0.5000 IDamp=-1.
 Damping current iteration by 5.00D-01
 RMSDP=1.92D-03 MaxDP=7.23D-02              OVMax= 1.59D-01

 Cycle   2  Pass 0  IDiag  1:
 RMSU=  9.56D-04    CP:  9.90D-01
 E= -276.125636382881     Delta-E=       -0.178092578636 Rises=F Damp=T
 DIIS: error= 4.21D-03 at cycle   2 NSaved=   2.
 NSaved= 2 IEnMin= 2 EnMin= -276.125636382881     IErMin= 2 ErrMin= 4.21D-03
 ErrMax= 4.21D-03  0.00D+00 EMaxC= 1.00D-01 BMatC= 1.88D-02 BMatP= 3.75D-01
 IDIUse=3 WtCom= 9.58D-01 WtEn= 4.21D-02
 Coeff-Com: -0.505D-01 0.105D+01
 Coeff-En:   0.000D+00 0.100D+01
 Coeff:     -0.484D-01 0.105D+01
 Gap=     0.437 Goal=   None    Shift=    0.000
 RMSDP=5.45D-04 MaxDP=1.74D-02 DE=-1.78D-01 OVMax= 9.05D-02

 Cycle   3  Pass 0  IDiag  1:
 RMSU=  5.38D-04    CP:  9.97D-01  9.31D-01
 E= -276.304730034389     Delta-E=       -0.179093651508 Rises=F Damp=F
 DIIS: error= 2.34D-03 at cycle   3 NSaved=   3.
 NSaved= 3 IEnMin= 3 EnMin= -276.304730034389     IErMin= 3 ErrMin= 2.34D-03
 ErrMax= 2.34D-03  0.00D+00 EMaxC= 1.00D-01 BMatC= 2.77D-03 BMatP= 1.88D-02
 IDIUse=3 WtCom= 9.77D-01 WtEn= 2.34D-02
 Coeff-Com: -0.517D-01 0.246D+00 0.806D+00
 Coeff-En:   0.000D+00 0.000D+00 0.100D+01
 Coeff:     -0.505D-01 0.240D+00 0.810D+00
 Gap=     0.405 Goal=   None    Shift=    0.000
 RMSDP=9.67D-05 MaxDP=2.73D-03 DE=-1.79D-01 OVMax= 9.67D-03

 Cycle   4  Pass 0  IDiag  1:
 RMSU=  7.51D-05    CP:  9.96D-01  9.78D-01  9.24D-01
 E= -276.307174803156     Delta-E=       -0.002444768767 Rises=F Damp=F
 DIIS: error= 5.42D-04 at cycle   4 NSaved=   4.
 NSaved= 4 IEnMin= 4 EnMin= -276.307174803156     IErMin= 4 ErrMin= 5.42D-04
 ErrMax= 5.42D-04  0.00D+00 EMaxC= 1.00D-01 BMatC= 2.41D-04 BMatP= 2.77D-03
 IDIUse=3 WtCom= 9.95D-01 WtEn= 5.42D-03
 Coeff-Com: -0.128D-01 0.356D-01 0.263D+00 0.714D+00
 Coeff-En:   0.000D+00 0.000D+00 0.000D+00 0.100D+01
 Coeff:     -0.128D-01 0.355D-01 0.262D+00 0.716D+00
 Gap=     0.405 Goal=   None    Shift=    0.000
 RMSDP=3.09D-05 MaxDP=1.15D-03 DE=-2.44D-03 OVMax= 2.94D-03

 Cycle   5  Pass 0  IDiag  1:
 RMSU=  1.86D-05    CP:  9.96D-01  9.72D-01  9.57D-01  7.86D-01
 E= -276.307390484058     Delta-E=       -0.000215680902 Rises=F Damp=F
 DIIS: error= 2.06D-04 at cycle   5 NSaved=   5.
 NSaved= 5 IEnMin= 5 EnMin= -276.307390484058     IErMin= 5 ErrMin= 2.06D-04
 ErrMax= 2.06D-04  0.00D+00 EMaxC= 1.00D-01 BMatC= 2.01D-05 BMatP= 2.41D-04
 IDIUse=3 WtCom= 9.98D-01 WtEn= 2.06D-03
 Coeff-Com: -0.173D-02 0.105D-02 0.567D-01 0.277D+00 0.667D+00
 Coeff-En:   0.000D+00 0.000D+00 0.000D+00 0.000D+00 0.100D+01
 Coeff:     -0.172D-02 0.105D-02 0.566D-01 0.277D+00 0.667D+00
 Gap=     0.405 Goal=   None    Shift=    0.000
 RMSDP=6.76D-06 MaxDP=3.31D-04 DE=-2.16D-04 OVMax= 7.96D-04

 Initial convergence to 1.0D-05 achieved.  Increase integral accuracy.
 Cycle   6  Pass 1  IDiag  1:
 E= -276.307335125808     Delta-E=        0.000055358250 Rises=F Damp=F
 DIIS: error= 4.12D-05 at cycle   1 NSaved=   1.
 NSaved= 1 IEnMin= 1 EnMin= -276.307335125808     IErMin= 1 ErrMin= 4.12D-05
 ErrMax= 4.12D-05  0.00D+00 EMaxC= 1.00D-01 BMatC= 1.23D-06 BMatP= 1.23D-06
 IDIUse=1 WtCom= 1.00D+00 WtEn= 0.00D+00
 Coeff-Com:  0.100D+01
 Coeff:      0.100D+01
 Gap=     0.405 Goal=   None    Shift=    0.000
 RMSDP=6.76D-06 MaxDP=3.31D-04 DE= 5.54D-05 OVMax= 2.48D-04

 Cycle   7  Pass 1  IDiag  1:
 RMSU=  1.18D-05    CP:  1.00D+00
 E= -276.307335769085     Delta-E=       -0.000000643277 Rises=F Damp=F
 DIIS: error= 2.59D-05 at cycle   2 NSaved=   2.
 NSaved= 2 IEnMin= 2 EnMin= -276.307335769085     IErMin= 2 ErrMin= 2.59D-05
 ErrMax= 2.59D-05  0.00D+00 EMaxC= 1.00D-01 BMatC= 3.56D-07 BMatP= 1.23D-06
 IDIUse=1 WtCom= 1.00D+00 WtEn= 0.00D+00
 Coeff-Com:  0.307D+00 0.693D+00
 Coeff:      0.307D+00 0.693D+00
 Gap=     0.405 Goal=   None    Shift=    0.000
 RMSDP=1.11D-06 MaxDP=4.73D-05 DE=-6.43D-07 OVMax= 1.26D-04

 Cycle   8  Pass 1  IDiag  1:
 RMSU=  1.10D-06    CP:  1.00D+00  1.01D+00
 E= -276.307336064756     Delta-E=       -0.000000295671 Rises=F Damp=F
 DIIS: error= 9.03D-06 at cycle   3 NSaved=   3.
 NSaved= 3 IEnMin= 3 EnMin= -276.307336064756     IErMin= 3 ErrMin= 9.03D-06
 ErrMax= 9.03D-06  0.00D+00 EMaxC= 1.00D-01 BMatC= 5.36D-08 BMatP= 3.56D-07
 IDIUse=1 WtCom= 1.00D+00 WtEn= 0.00D+00
 Coeff-Com: -0.576D-02 0.269D+00 0.737D+00
 Coeff:     -0.576D-02 0.269D+00 0.737D+00
 Gap=     0.405 Goal=   None    Shift=    0.000
 RMSDP=4.26D-07 MaxDP=1.46D-05 DE=-2.96D-07 OVMax= 4.36D-05

 Cycle   9  Pass 1  IDiag  1:
 RMSU=  2.97D-07    CP:  1.00D+00  1.03D+00  7.87D-01
 E= -276.307336116484     Delta-E=       -0.000000051728 Rises=F Damp=F
 DIIS: error= 1.57D-06 at cycle   4 NSaved=   4.
 NSaved= 4 IEnMin= 4 EnMin= -276.307336116484     IErMin= 4 ErrMin= 1.57D-06
 ErrMax= 1.57D-06  0.00D+00 EMaxC= 1.00D-01 BMatC= 1.36D-09 BMatP= 5.36D-08
 IDIUse=1 WtCom= 1.00D+00 WtEn= 0.00D+00
 Coeff-Com: -0.129D-01 0.600D-01 0.230D+00 0.723D+00
 Coeff:     -0.129D-01 0.600D-01 0.230D+00 0.723D+00
 Gap=     0.405 Goal=   None    Shift=    0.000
 RMSDP=7.93D-08 MaxDP=3.33D-06 DE=-5.17D-08 OVMax= 7.33D-06

 Cycle  10  Pass 1  IDiag  1:
 RMSU=  7.35D-08    CP:  1.00D+00  1.03D+00  7.98D-01  9.59D-01
 E= -276.307336117868     Delta-E=       -0.000000001384 Rises=F Damp=F
 DIIS: error= 3.50D-07 at cycle   5 NSaved=   5.
 NSaved= 5 IEnMin= 5 EnMin= -276.307336117868     IErMin= 5 ErrMin= 3.50D-07
 ErrMax= 3.50D-07  0.00D+00 EMaxC= 1.00D-01 BMatC= 6.83D-11 BMatP= 1.36D-09
 IDIUse=1 WtCom= 1.00D+00 WtEn= 0.00D+00
 Coeff-Com: -0.165D-02-0.102D-01-0.188D-01 0.113D+00 0.918D+00
 Coeff:     -0.165D-02-0.102D-01-0.188D-01 0.113D+00 0.918D+00
 Gap=     0.405 Goal=   None    Shift=    0.000
 RMSDP=2.91D-08 MaxDP=8.36D-07 DE=-1.38D-09 OVMax= 2.18D-06

 Cycle  11  Pass 1  IDiag  1:
 RMSU=  1.81D-08    CP:  1.00D+00  1.03D+00  7.99D-01  1.03D+00  1.09D+00
 E= -276.307336117953     Delta-E=       -0.000000000086 Rises=F Damp=F
 DIIS: error= 1.38D-07 at cycle   6 NSaved=   6.
 NSaved= 6 IEnMin= 6 EnMin= -276.307336117953     IErMin= 6 ErrMin= 1.38D-07
 ErrMax= 1.38D-07  0.00D+00 EMaxC= 1.00D-01 BMatC= 1.87D-11 BMatP= 6.83D-11
 IDIUse=1 WtCom= 1.00D+00 WtEn= 0.00D+00
 Coeff-Com:  0.457D-03-0.101D-01-0.299D-01-0.189D-01 0.410D+00 0.648D+00
 Coeff:      0.457D-03-0.101D-01-0.299D-01-0.189D-01 0.410D+00 0.648D+00
 Gap=     0.405 Goal=   None    Shift=    0.000
 RMSDP=7.39D-09 MaxDP=2.32D-07 DE=-8.57D-11 OVMax= 7.41D-07

 SCF Done:  E(RM062X) =  -276.307336118     A.U. after   11 cycles
            NFock= 11  Conv=0.74D-08     -V/T= 2.0065
 KE= 2.745305529677D+02 PE=-1.294841237516D+03 EE= 4.158206449527D+02
 Leave Link  502 at Fri Sep 27 15:19:29 2019, MaxMem=   671088640 cpu:            2622.0 elap:            1311.3
 (Enter /shared/centos7/gaussian/g16/l801.exe)
 DoSCS=F DFT=T ScalE2(SS,OS)=  1.000000  1.000000
 Range of M.O.s used for correlation:     1   434
 NBasis=   434 NAE=    29 NBE=    29 NFC=     0 NFV=     0
 NROrb=    434 NOA=    29 NOB=    29 NVA=   405 NVB=   405

 **** Warning!!: The largest alpha MO coefficient is  0.12490208D+02

 Leave Link  801 at Fri Sep 27 15:19:30 2019, MaxMem=   671088640 cpu:               1.7 elap:               0.8
 (Enter /shared/centos7/gaussian/g16/l1101.exe)
 Using compressed storage, NAtomX=    23.
 Will process     24 centers per pass.
 Leave Link 1101 at Fri Sep 27 15:20:11 2019, MaxMem=   671088640 cpu:              81.5 elap:              40.8
 (Enter /shared/centos7/gaussian/g16/l1102.exe)
 Symmetrizing basis deriv contribution to polar:
 IMax=3 JMax=2 DiffMx= 0.00D+00
 Leave Link 1102 at Fri Sep 27 15:20:13 2019, MaxMem=   671088640 cpu:               5.2 elap:               2.7
 (Enter /shared/centos7/gaussian/g16/l1110.exe)
 Forming Gx(P) for the SCF density, NAtomX=    23.
 Integral derivatives from FoFJK, PRISM(SPDF).
 Do as many integral derivatives as possible in FoFJK.
 G2DrvN: MDV=     671086848.
 G2DrvN: will do    24 centers at a time, making    1 passes.
 Calling FoFCou, ICntrl=  3107 FMM=F I1Cent=   0 AccDes= 0.00D+00.
 FoFJK:  IHMeth= 1 ICntrl=    3107 DoSepK=F KAlg= 0 I1Cent=           0 FoldK=F
 IRaf=         0 NMat=       1 IRICut=       1 DoRegI=T DoRafI=F ISym2E= 0 IDoP0=0 IntGTp=1.
 FoFCou: FMM=F IPFlag=           0 FMFlag=      100000 FMFlg1=           0
         NFxFlg=           0 DoJE=F BraDBF=F KetDBF=F FulRan=T
         wScrn=  0.000000 ICntrl=      3107 IOpCl=  0 I1Cent=           0 NGrid=           0
         NMat0=    1 NMatS0=      1 NMatT0=    0 NMatD0=    1 NMtDS0=    0 NMtDT0=    0
 Symmetry not used in FoFCou.
 End of G2Drv F.D. properties file   721 does not exist.
 End of G2Drv F.D. properties file   722 does not exist.
 End of G2Drv F.D. properties file   788 does not exist.
 Leave Link 1110 at Fri Sep 27 16:15:35 2019, MaxMem=   671088640 cpu:            6642.5 elap:            3321.6
 (Enter /shared/centos7/gaussian/g16/l1002.exe)
 Minotr:  Closed shell wavefunction.
          IDoAtm=11111111111111111111111
          Direct CPHF calculation.
          Differentiating once with respect to nuclear coordinates.
          Requested convergence is 1.0D-08 RMS, and 1.0D-07 maximum.
          Secondary convergence is 1.0D-12 RMS, and 1.0D-12 maximum.
          NewPWx=T KeepS1=F KeepF1=F KeepIn=T MapXYZ=F SortEE=F KeepMc=T.
         6925 words used for storage of precomputed grid.
 Two-electron integrals replicated using symmetry.
          MDV=     671088640 using IRadAn=       1.
          Solving linear equations simultaneously, MaxMat=     380.
 FoF2E skips out because all densities are zero.
 CalDSu exits because no D1Ps are significant.
 FoFJK:  IHMeth= 1 ICntrl=       0 DoSepK=F KAlg= 0 I1Cent=           0 FoldK=F
 IRaf= 920000000 NMat=      69 IRICut=     172 DoRegI=T DoRafI=T ISym2E= 2 IDoP0=3 IntGTp=3.
 FoFCou: FMM=F IPFlag=           0 FMFlag=      100000 FMFlg1=           0
         NFxFlg=           0 DoJE=F BraDBF=F KetDBF=F FulRan=T
         wScrn=  0.000000 ICntrl=         0 IOpCl=  0 I1Cent=           0 NGrid=           0
         NMat0=   69 NMatS0=     69 NMatT0=    0 NMatD0=   69 NMtDS0=    0 NMtDT0=    0
 Integrals replicated using symmetry in FoFCou.
 Raff kept on since  88.13% of shell-pairs survive, threshold=   0.20 IRatSp=88.
          There are    72 degrees of freedom in the 1st order CPHF.  IDoFFX=6 NUNeed=     0.
     66 vectors produced by pass  0 Test12= 1.63D-14 1.39D-09 XBig12= 5.57D-02 3.70D-02.
 AX will form    66 AO Fock derivatives at one time.
     66 vectors produced by pass  1 Test12= 1.63D-14 1.39D-09 XBig12= 3.64D-03 6.24D-03.
     66 vectors produced by pass  2 Test12= 1.63D-14 1.39D-09 XBig12= 4.99D-05 1.08D-03.
     66 vectors produced by pass  3 Test12= 1.63D-14 1.39D-09 XBig12= 4.05D-07 7.89D-05.
     66 vectors produced by pass  4 Test12= 1.63D-14 1.39D-09 XBig12= 2.20D-09 4.87D-06.
     66 vectors produced by pass  5 Test12= 1.63D-14 1.39D-09 XBig12= 1.13D-11 3.43D-07.
     22 vectors produced by pass  6 Test12= 1.63D-14 1.39D-09 XBig12= 4.35D-14 1.83D-08.
 InvSVY:  IOpt=1 It=  1 EMax= 3.33D-16
 Solved reduced A of dimension   418 with    72 vectors.
 End of Minotr F.D. properties file   721 does not exist.
 End of Minotr F.D. properties file   722 does not exist.
 End of Minotr F.D. properties file   788 does not exist.
 Leave Link 1002 at Fri Sep 27 17:45:30 2019, MaxMem=   671088640 cpu:           10789.6 elap:            5395.4
 (Enter /shared/centos7/gaussian/g16/l601.exe)
 Copying SCF densities to generalized density rwf, IOpCl= 0 IROHF=0.

 **********************************************************************

            Population analysis using the SCF density.

 **********************************************************************

 Orbital symmetries:
       Occupied  (A) (A) (A) (A) (A) (A) (A) (A) (A) (A) (A) (A)
                 (A) (A) (A) (A) (A) (A) (A) (A) (A) (A) (A) (A)
                 (A) (A) (A) (A) (A)
       Virtual   (A) (A) (A) (A) (A) (A) (A) (A) (A) (A) (A) (A)
                 (A) (A) (A) (A) (A) (A) (A) (A) (A) (A) (A) (A)
                 (A) (A) (A) (A) (A) (A) (A) (A) (A) (A) (A) (A)
                 (A) (A) (A) (A) (A) (A) (A) (A) (A) (A) (A) (A)
                 (A) (A) (A) (A) (A) (A) (A) (A) (A) (A) (A) (A)
                 (A) (A) (A) (A) (A) (A) (A) (A) (A) (A) (A) (A)
                 (A) (A) (A) (A) (A) (A) (A) (A) (A) (A) (A) (A)
                 (A) (A) (A) (A) (A) (A) (A) (A) (A) (A) (A) (A)
                 (A) (A) (A) (A) (A) (A) (A) (A) (A) (A) (A) (A)
                 (A) (A) (A) (A) (A) (A) (A) (A) (A) (A) (A) (A)
                 (A) (A) (A) (A) (A) (A) (A) (A) (A) (A) (A) (A)
                 (A) (A) (A) (A) (A) (A) (A) (A) (A) (A) (A) (A)
                 (A) (A) (A) (A) (A) (A) (A) (A) (A) (A) (A) (A)
                 (A) (A) (A) (A) (A) (A) (A) (A) (A) (A) (A) (A)
                 (A) (A) (A) (A) (A) (A) (A) (A) (A) (A) (A) (A)
                 (A) (A) (A) (A) (A) (A) (A) (A) (A) (A) (A) (A)
                 (A) (A) (A) (A) (A) (A) (A) (A) (A) (A) (A) (A)
                 (A) (A) (A) (A) (A) (A) (A) (A) (A) (A) (A) (A)
                 (A) (A) (A) (A) (A) (A) (A) (A) (A) (A) (A) (A)
                 (A) (A) (A) (A) (A) (A) (A) (A) (A) (A) (A) (A)
                 (A) (A) (A) (A) (A) (A) (A) (A) (A) (A) (A) (A)
                 (A) (A) (A) (A) (A) (A) (A) (A) (A) (A) (A) (A)
                 (A) (A) (A) (A) (A) (A) (A) (A) (A) (A) (A) (A)
                 (A) (A) (A) (A) (A) (A) (A) (A) (A) (A) (A) (A)
                 (A) (A) (A) (A) (A) (A) (A) (A) (A) (A) (A) (A)
                 (A) (A) (A) (A) (A) (A) (A) (A) (A) (A) (A) (A)
                 (A) (A) (A) (A) (A) (A) (A) (A) (A) (A) (A) (A)
                 (A) (A) (A) (A) (A) (A) (A) (A) (A) (A) (A) (A)
                 (A) (A) (A) (A) (A) (A) (A) (A) (A) (A) (A) (A)
                 (A) (A) (A) (A) (A) (A) (A) (A) (A) (A) (A) (A)
                 (A) (A) (A) (A) (A) (A) (A) (A) (A) (A) (A) (A)
                 (A) (A) (A) (A) (A) (A) (A) (A) (A) (A) (A) (A)
                 (A) (A) (A) (A) (A) (A) (A) (A) (A) (A) (A) (A)
                 (A) (A) (A) (A) (A) (A) (A) (A) (A)
 The electronic state is 1-A.
 Alpha  occ. eigenvalues --  -10.52568 -10.52547 -10.52403 -10.52350 -10.52290
 Alpha  occ. eigenvalues --  -10.52218 -10.52056  -0.92283  -0.88126  -0.82238
 Alpha  occ. eigenvalues --   -0.77107  -0.71297  -0.64885  -0.62428  -0.55342
 Alpha  occ. eigenvalues --   -0.52968  -0.51710  -0.49509  -0.48103  -0.45826
 Alpha  occ. eigenvalues --   -0.44609  -0.43850  -0.41551  -0.40623  -0.39886
 Alpha  occ. eigenvalues --   -0.37295  -0.36106  -0.35889  -0.34623
 Alpha virt. eigenvalues --    0.05900   0.07879   0.08666   0.08740   0.10802
 Alpha virt. eigenvalues --    0.12194   0.12426   0.13147   0.13662   0.14576
 Alpha virt. eigenvalues --    0.16106   0.17161   0.18099   0.19160   0.20612
 Alpha virt. eigenvalues --    0.21951   0.22976   0.23586   0.24911   0.27173
 Alpha virt. eigenvalues --    0.28117   0.29257   0.29371   0.30526   0.31603
 Alpha virt. eigenvalues --    0.32989   0.33467   0.34107   0.35661   0.36074
 Alpha virt. eigenvalues --    0.38324   0.39968   0.42180   0.43162   0.44206
 Alpha virt. eigenvalues --    0.45201   0.46313   0.47556   0.47630   0.48295
 Alpha virt. eigenvalues --    0.48552   0.49180   0.49743   0.50625   0.51553
 Alpha virt. eigenvalues --    0.52075   0.52332   0.53051   0.53791   0.54415
 Alpha virt. eigenvalues --    0.54507   0.55733   0.56262   0.56820   0.58224
 Alpha virt. eigenvalues --    0.58933   0.59562   0.60144   0.61726   0.64231
 Alpha virt. eigenvalues --    0.67256   0.67924   0.72095   0.74560   0.76356
 Alpha virt. eigenvalues --    0.78019   0.81442   0.82166   0.83300   0.84220
 Alpha virt. eigenvalues --    0.86545   0.89159   0.89798   0.91235   0.92439
 Alpha virt. eigenvalues --    0.92673   0.94501   0.97084   0.97692   0.98775
 Alpha virt. eigenvalues --    1.01702   1.02594   1.03646   1.05046   1.06024
 Alpha virt. eigenvalues --    1.06616   1.08640   1.09524   1.10039   1.10704
 Alpha virt. eigenvalues --    1.12455   1.12928   1.13969   1.15016   1.16066
 Alpha virt. eigenvalues --    1.16769   1.17164   1.17736   1.18489   1.19631
 Alpha virt. eigenvalues --    1.20814   1.21395   1.21784   1.22789   1.24251
 Alpha virt. eigenvalues --    1.25210   1.26648   1.27255   1.28161   1.29207
 Alpha virt. eigenvalues --    1.29530   1.30651   1.32185   1.32942   1.34275
 Alpha virt. eigenvalues --    1.35024   1.35676   1.36267   1.36728   1.38283
 Alpha virt. eigenvalues --    1.40469   1.41238   1.41568   1.44297   1.46204
 Alpha virt. eigenvalues --    1.47659   1.47844   1.48378   1.49076   1.50188
 Alpha virt. eigenvalues --    1.51653   1.52857   1.54450   1.55735   1.56496
 Alpha virt. eigenvalues --    1.57573   1.58408   1.59582   1.61212   1.63411
 Alpha virt. eigenvalues --    1.64457   1.67846   1.70525   1.71883   1.74678
 Alpha virt. eigenvalues --    1.78637   1.80864   1.86316   1.90333   2.20683
 Alpha virt. eigenvalues --    2.23871   2.26411   2.28411   2.32264   2.35956
 Alpha virt. eigenvalues --    2.36709   2.37315   2.41336   2.44058   2.45681
 Alpha virt. eigenvalues --    2.48325   2.49166   2.50928   2.53215   2.53802
 Alpha virt. eigenvalues --    2.55012   2.56302   2.58948   2.59483   2.61399
 Alpha virt. eigenvalues --    2.62346   2.63781   2.66302   2.67225   2.68592
 Alpha virt. eigenvalues --    2.68863   2.70878   2.71424   2.72583   2.73295
 Alpha virt. eigenvalues --    2.73857   2.75080   2.77348   2.78243   2.80076
 Alpha virt. eigenvalues --    2.81177   2.81458   2.82095   2.83271   2.85700
 Alpha virt. eigenvalues --    2.87069   2.88741   2.89909   2.90903   2.93184
 Alpha virt. eigenvalues --    2.94076   2.95942   2.96265   2.97986   3.00250
 Alpha virt. eigenvalues --    3.00468   3.01224   3.01255   3.03759   3.05125
 Alpha virt. eigenvalues --    3.06522   3.06677   3.07038   3.08707   3.10237
 Alpha virt. eigenvalues --    3.10651   3.11023   3.12027   3.12560   3.14361
 Alpha virt. eigenvalues --    3.14553   3.15299   3.16378   3.17734   3.18630
 Alpha virt. eigenvalues --    3.19054   3.19649   3.21264   3.22134   3.23653
 Alpha virt. eigenvalues --    3.23743   3.25102   3.26305   3.28640   3.30252
 Alpha virt. eigenvalues --    3.30888   3.32726   3.33796   3.34465   3.37348
 Alpha virt. eigenvalues --    3.37831   3.38057   3.39568   3.40888   3.41757
 Alpha virt. eigenvalues --    3.42682   3.43518   3.44430   3.46394   3.48378
 Alpha virt. eigenvalues --    3.48624   3.52451   3.53310   3.53962   3.54832
 Alpha virt. eigenvalues --    3.56695   3.58360   3.59414   3.60638   3.60848
 Alpha virt. eigenvalues --    3.61770   3.63116   3.65136   3.65460   3.67702
 Alpha virt. eigenvalues --    3.68914   3.69266   3.71409   3.72735   3.72988
 Alpha virt. eigenvalues --    3.73830   3.75351   3.77555   3.79618   3.79789
 Alpha virt. eigenvalues --    3.81405   3.81953   3.83265   3.83456   3.86099
 Alpha virt. eigenvalues --    3.86691   3.87330   3.88711   3.89991   3.90871
 Alpha virt. eigenvalues --    3.93811   3.94248   3.94506   3.95410   3.96571
 Alpha virt. eigenvalues --    3.97067   3.98523   3.99445   4.01259   4.02188
 Alpha virt. eigenvalues --    4.02790   4.03396   4.04289   4.05821   4.07019
 Alpha virt. eigenvalues --    4.07367   4.09426   4.09506   4.10845   4.11760
 Alpha virt. eigenvalues --    4.12335   4.12808   4.16294   4.17322   4.18162
 Alpha virt. eigenvalues --    4.19076   4.21165   4.21985   4.22664   4.22817
 Alpha virt. eigenvalues --    4.24455   4.25163   4.27204   4.28057   4.31056
 Alpha virt. eigenvalues --    4.31861   4.32655   4.34494   4.37664   4.40833
 Alpha virt. eigenvalues --    4.40962   4.42540   4.45354   4.45998   4.47978
 Alpha virt. eigenvalues --    4.49915   4.52175   4.53131   4.54993   4.58241
 Alpha virt. eigenvalues --    4.58892   4.61223   4.62217   4.64323   4.65120
 Alpha virt. eigenvalues --    4.67283   4.68896   4.71733   4.74239   4.75973
 Alpha virt. eigenvalues --    4.76780   4.78591   4.79792   4.81058   4.82311
 Alpha virt. eigenvalues --    4.84555   4.85407   4.86981   4.90603   4.91001
 Alpha virt. eigenvalues --    4.92552   4.95339   4.96945   4.98943   5.00106
 Alpha virt. eigenvalues --    5.03229   5.03963   5.04665   5.07790   5.09654
 Alpha virt. eigenvalues --    5.11020   5.12102   5.13301   5.14616   5.15622
 Alpha virt. eigenvalues --    5.19894   5.22720   5.24564   5.25855   5.27150
 Alpha virt. eigenvalues --    5.28260   5.29600   5.30134   5.33890   5.36459
 Alpha virt. eigenvalues --    5.39119   5.39681   5.42445   5.44543   5.46084
 Alpha virt. eigenvalues --    5.47717   5.48425   5.50757   5.56007   5.58941
 Alpha virt. eigenvalues --    5.60790   5.69974   5.72224   5.76212   5.78309
 Alpha virt. eigenvalues --    5.80577   5.83691   5.87265   5.91698   5.97152
 Alpha virt. eigenvalues --    5.97816   5.98672   6.08078  11.52729  11.65167
 Alpha virt. eigenvalues --   12.71642  13.02355  13.26219  13.65245  13.89232
          Condensed to atoms (all electrons):
               1          2          3          4          5          6
     1  C    5.060139   0.326480  -0.053504   0.306978   0.007341  -0.038070
     2  C    0.326480   5.096047   0.288692  -0.044072  -0.047578  -0.004471
     3  C   -0.053504   0.288692   5.168962   0.001825   0.306399  -0.011148
     4  C    0.306978  -0.044072   0.001825   5.077215  -0.001197   0.274519
     5  C    0.007341  -0.047578   0.306399  -0.001197   5.027040   0.001305
     6  C   -0.038070  -0.004471  -0.011148   0.274519   0.001305   5.039869
     7  C    0.000695  -0.018879  -0.049975   0.000000   0.308199  -0.000071
     8  H   -0.045208   0.008976  -0.000383   0.419405   0.000047  -0.045676
     9  H   -0.044803  -0.003372  -0.001014   0.404986   0.000015  -0.047256
    10  H    0.411094  -0.049234  -0.005812  -0.045942  -0.000071  -0.006126
    11  H    0.424339  -0.050414   0.009938  -0.048223  -0.000422   0.009251
    12  H   -0.038588   0.407956  -0.049067  -0.004863   0.001124  -0.000424
    13  H   -0.042040   0.417031  -0.044016   0.009389  -0.007244  -0.000816
    14  H    0.001017  -0.055313   0.406188  -0.000602  -0.034459  -0.005150
    15  H   -0.008236  -0.037576   0.417571   0.006991  -0.047646  -0.013054
    16  H   -0.000275   0.004809  -0.052747  -0.000008   0.420936   0.000026
    17  H   -0.000330   0.005198  -0.047060   0.000017   0.415421  -0.000003
    18  H    0.004283  -0.004055  -0.009389  -0.063299   0.001999   0.413340
    19  H    0.003668   0.002327  -0.005366  -0.050087   0.000065   0.408694
    20  H    0.005346  -0.000675   0.000971  -0.040915  -0.000051   0.403705
    21  H    0.001012  -0.003251  -0.005252  -0.000051  -0.044686   0.000018
    22  H   -0.000113  -0.004141   0.002043  -0.000013  -0.047865  -0.000001
    23  H   -0.000001   0.001087   0.008533   0.000005  -0.039113   0.000003
               7          8          9         10         11         12
     1  C    0.000695  -0.045208  -0.044803   0.411094   0.424339  -0.038588
     2  C   -0.018879   0.008976  -0.003372  -0.049234  -0.050414   0.407956
     3  C   -0.049975  -0.000383  -0.001014  -0.005812   0.009938  -0.049067
     4  C    0.000000   0.419405   0.404986  -0.045942  -0.048223  -0.004863
     5  C    0.308199   0.000047   0.000015  -0.000071  -0.000422   0.001124
     6  C   -0.000071  -0.045676  -0.047256  -0.006126   0.009251  -0.000424
     7  C    4.978975  -0.000000  -0.000009  -0.000060   0.000041  -0.011299
     8  H   -0.000000   0.611005  -0.035674  -0.007277  -0.009027  -0.000107
     9  H   -0.000009  -0.035674   0.605489   0.008936  -0.005284   0.004207
    10  H   -0.000060  -0.007277   0.008936   0.584188  -0.030614   0.009240
    11  H    0.000041  -0.009027  -0.005284  -0.030614   0.591102  -0.007318
    12  H   -0.011299  -0.000107   0.004207   0.009240  -0.007318   0.588190
    13  H    0.001809  -0.000494   0.000056  -0.006368  -0.008659  -0.032514
    14  H    0.005554  -0.000107   0.000094   0.003086   0.000048   0.008316
    15  H    0.005439  -0.000129  -0.000263   0.000401  -0.000694  -0.006210
    16  H   -0.045573  -0.000002  -0.000010  -0.000017   0.000037   0.000655
    17  H   -0.042439  -0.000001   0.000002  -0.000022   0.000024  -0.000489
    18  H   -0.000076   0.005472   0.007013   0.001771   0.000377   0.000754
    19  H    0.000000   0.007366  -0.018929  -0.000173  -0.000577   0.000084
    20  H    0.000003  -0.021408   0.006184   0.001152  -0.000560  -0.000040
    21  H    0.406838   0.000001  -0.000029  -0.000105   0.000178  -0.006325
    22  H    0.409754   0.000000  -0.000001   0.000020   0.000021   0.001137
    23  H    0.404394  -0.000000   0.000001   0.000003  -0.000005   0.000056
              13         14         15         16         17         18
     1  C   -0.042040   0.001017  -0.008236  -0.000275  -0.000330   0.004283
     2  C    0.417031  -0.055313  -0.037576   0.004809   0.005198  -0.004055
     3  C   -0.044016   0.406188   0.417571  -0.052747  -0.047060  -0.009389
     4  C    0.009389  -0.000602   0.006991  -0.000008   0.000017  -0.063299
     5  C   -0.007244  -0.034459  -0.047646   0.420936   0.415421   0.001999
     6  C   -0.000816  -0.005150  -0.013054   0.000026  -0.000003   0.413340
     7  C    0.001809   0.005554   0.005439  -0.045573  -0.042439  -0.000076
     8  H   -0.000494  -0.000107  -0.000129  -0.000002  -0.000001   0.005472
     9  H    0.000056   0.000094  -0.000263  -0.000010   0.000002   0.007013
    10  H   -0.006368   0.003086   0.000401  -0.000017  -0.000022   0.001771
    11  H   -0.008659   0.000048  -0.000694   0.000037   0.000024   0.000377
    12  H   -0.032514   0.008316  -0.006210   0.000655  -0.000489   0.000754
    13  H    0.576379  -0.004658   0.008340  -0.000154   0.000515  -0.000753
    14  H   -0.004658   0.593389  -0.037964   0.006459  -0.016655  -0.000824
    15  H    0.008340  -0.037964   0.599746  -0.017451   0.006484  -0.019181
    16  H   -0.000154   0.006459  -0.017451   0.625456  -0.039880   0.000128
    17  H    0.000515  -0.016655   0.006484  -0.039880   0.610185  -0.000170
    18  H   -0.000753  -0.000824  -0.019181   0.000128  -0.000170   0.602878
    19  H   -0.000018   0.000631  -0.000784   0.000067  -0.000022  -0.037923
    20  H    0.000083  -0.000112   0.002084  -0.000011   0.000004  -0.033947
    21  H   -0.003695  -0.000111   0.000498  -0.001546   0.007908  -0.000026
    22  H   -0.002162   0.000681  -0.000554   0.008976  -0.013325   0.000006
    23  H    0.000213  -0.000449  -0.000209  -0.013302  -0.000501   0.000002
              19         20         21         22         23
     1  C    0.003668   0.005346   0.001012  -0.000113  -0.000001
     2  C    0.002327  -0.000675  -0.003251  -0.004141   0.001087
     3  C   -0.005366   0.000971  -0.005252   0.002043   0.008533
     4  C   -0.050087  -0.040915  -0.000051  -0.000013   0.000005
     5  C    0.000065  -0.000051  -0.044686  -0.047865  -0.039113
     6  C    0.408694   0.403705   0.000018  -0.000001   0.000003
     7  C    0.000000   0.000003   0.406838   0.409754   0.404394
     8  H    0.007366  -0.021408   0.000001   0.000000  -0.000000
     9  H   -0.018929   0.006184  -0.000029  -0.000001   0.000001
    10  H   -0.000173   0.001152  -0.000105   0.000020   0.000003
    11  H   -0.000577  -0.000560   0.000178   0.000021  -0.000005
    12  H    0.000084  -0.000040  -0.006325   0.001137   0.000056
    13  H   -0.000018   0.000083  -0.003695  -0.002162   0.000213
    14  H    0.000631  -0.000112  -0.000111   0.000681  -0.000449
    15  H   -0.000784   0.002084   0.000498  -0.000554  -0.000209
    16  H    0.000067  -0.000011  -0.001546   0.008976  -0.013302
    17  H   -0.000022   0.000004   0.007908  -0.013325  -0.000501
    18  H   -0.037923  -0.033947  -0.000026   0.000006   0.000002
    19  H    0.610549  -0.028599  -0.000001   0.000001   0.000000
    20  H   -0.028599   0.593490   0.000001  -0.000000  -0.000000
    21  H   -0.000001   0.000001   0.599926  -0.039820  -0.032263
    22  H    0.000001  -0.000000  -0.039820   0.604487  -0.028828
    23  H    0.000000  -0.000000  -0.032263  -0.028828   0.596684
 Mulliken charges:
               1
     1  C   -0.281224
     2  C   -0.235573
     3  C   -0.276389
     4  C   -0.202057
     5  C   -0.219558
     6  C   -0.378465
     7  C   -0.353320
     8  H    0.113220
     9  H    0.119661
    10  H    0.131933
    11  H    0.126444
    12  H    0.135526
    13  H    0.139777
    14  H    0.130940
    15  H    0.142401
    16  H    0.103428
    17  H    0.115139
    18  H    0.131620
    19  H    0.109027
    20  H    0.113297
    21  H    0.120783
    22  H    0.109701
    23  H    0.103690
 Sum of Mulliken charges =  -0.00000
 Mulliken charges with hydrogens summed into heavy atoms:
               1
     1  C   -0.022847
     2  C    0.039730
     3  C   -0.003048
     4  C    0.030824
     5  C   -0.000990
     6  C   -0.024522
     7  C   -0.019146
 APT charges:
               1
     1  C   -0.813474
     2  C   -0.557133
     3  C   -0.442721
     4  C   -0.823820
     5  C   -0.855833
     6  C   -1.047462
     7  C   -1.198298
     8  H    0.535786
     9  H    0.304822
    10  H    0.350668
    11  H    0.425768
    12  H    0.315618
    13  H    0.378117
    14  H    0.330606
    15  H    0.298174
    16  H    0.367279
    17  H    0.426648
    18  H    0.117474
    19  H    0.267146
    20  H    0.562789
    21  H    0.142541
    22  H    0.351026
    23  H    0.564282
 Sum of APT charges =  -0.00000
 APT charges with hydrogens summed into heavy atoms:
               1
     1  C   -0.037038
     2  C    0.136602
     3  C    0.186058
     4  C    0.016788
     5  C   -0.061906
     6  C   -0.100054
     7  C   -0.140449
 Electronic spatial extent (au):  <R**2>=           1189.6353
 Charge=             -0.0000 electrons
 Dipole moment (field-independent basis, Debye):
    X=             -0.0707    Y=             -0.0459    Z=              0.0065  Tot=              0.0846
 Quadrupole moment (field-independent basis, Debye-Ang):
   XX=            -49.9957   YY=            -49.7553   ZZ=            -48.2521
   XY=              0.5459   XZ=              0.2289   YZ=             -0.2887
 Traceless Quadrupole moment (field-independent basis, Debye-Ang):
   XX=             -0.6613   YY=             -0.4209   ZZ=              1.0822
   XY=              0.5459   XZ=              0.2289   YZ=             -0.2887
 Octapole moment (field-independent basis, Debye-Ang**2):
  XXX=             -4.5338  YYY=             -1.8515  ZZZ=              0.3626  XYY=              0.2941
  XXY=              0.6756  XXZ=              1.9025  XZZ=              1.3407  YZZ=              0.5902
  YYZ=             -0.6281  XYZ=             -0.7996
 Hexadecapole moment (field-independent basis, Debye-Ang**3):
 XXXX=          -1239.9088 YYYY=           -322.3847 ZZZZ=           -132.5533 XXXY=              8.9104
 XXXZ=             -4.9767 YYYX=              4.5239 YYYZ=             -1.7782 ZZZX=              2.9512
 ZZZY=              0.4040 XXYY=           -266.4373 XXZZ=           -229.0156 YYZZ=            -73.9591
 XXYZ=             -3.5404 YYXZ=              1.3944 ZZXY=              0.5149
 N-N= 3.281827034779D+02 E-N=-1.294841186888D+03  KE= 2.745305529677D+02
  Exact polarizability:   0.000   0.000   0.000   0.000   0.000   0.000
 Approx polarizability:  98.595   0.369  96.809  -0.510  -0.725  98.800
 No NMR shielding tensors so no spin-rotation constants.
 Leave Link  601 at Fri Sep 27 17:46:01 2019, MaxMem=   671088640 cpu:              60.8 elap:              30.4
 (Enter /shared/centos7/gaussian/g16/l701.exe)
 SCFChk:  SCF convergence  7.39D-09 required  1.00D-08
 ... and contract with generalized density number  0.
 Compute integral second derivatives.
 Entering OneElI...
 Calculate overlap and kinetic energy integrals
    NBasis = 485  MinDer = 2  MaxDer = 2
 Requested accuracy = 0.1000D-12
 PrmmSu-InSpLW:  IPartL=    0 NPrtUS=   20 NPrtUL=    1 DoSpLW=F IThBeg=    0 IThEnd=   19 NThAct=   20.
 PrsmSu:  NPrtUS=  20 ThrOK=T IAlg=1 NPAlg=1 LenDen=           0 ISkipM=0 DoSpLW=F IThBeg=    0 IThEnd=   19.
 Prism:   IPart=     0 DynPar=F LinDyn=F Incr=           6.
 PRISM was handed    33202741 working-precision words and 13613 shell-pairs
 PRISM was handed    33202741 working-precision words and 13613 shell-pairs
 PRISM was handed    33202741 working-precision words and 13613 shell-pairs
 PRISM was handed    33202741 working-precision words and 13613 shell-pairs
 PRISM was handed    33202741 working-precision words and 13613 shell-pairs
 PRISM was handed    33202741 working-precision words and 13613 shell-pairs
 PRISM was handed    33202741 working-precision words and 13613 shell-pairs
 PRISM was handed    33202741 working-precision words and 13613 shell-pairs
 PRISM was handed    33202741 working-precision words and 13613 shell-pairs
 PRISM was handed    33202741 working-precision words and 13613 shell-pairs
 PRISM was handed    33202741 working-precision words and 13613 shell-pairs
 PRISM was handed    33202741 working-precision words and 13613 shell-pairs
 PRISM was handed    33202741 working-precision words and 13613 shell-pairs
 PRISM was handed    33202741 working-precision words and 13613 shell-pairs
 PRISM was handed    33202741 working-precision words and 13613 shell-pairs
 PRISM was handed    33202741 working-precision words and 13613 shell-pairs
 PRISM was handed    33202741 working-precision words and 13613 shell-pairs
 IPart=  8 NShTot=         682 NBatch=          60 AvBLen=        11.4
 PRISM was handed    33202741 working-precision words and 13613 shell-pairs
 IPart=  1 NShTot=         716 NBatch=          81 AvBLen=         8.8
 PRISM was handed    33202741 working-precision words and 13613 shell-pairs
 PRISM was handed    33202741 working-precision words and 13613 shell-pairs
 IPart= 15 NShTot=         661 NBatch=          52 AvBLen=        12.7
 IPart=  2 NShTot=         711 NBatch=          78 AvBLen=         9.1
 IPart= 14 NShTot=         662 NBatch=          52 AvBLen=        12.7
 IPart=  6 NShTot=         696 NBatch=          69 AvBLen=        10.1
 IPart= 13 NShTot=         663 NBatch=          52 AvBLen=        12.8
 IPart=  0 NShTot=         717 NBatch=          82 AvBLen=         8.7
 IPart= 12 NShTot=         668 NBatch=          53 AvBLen=        12.6
 IPart= 16 NShTot=         656 NBatch=          50 AvBLen=        13.1
 IPart=  3 NShTot=         705 NBatch=          74 AvBLen=         9.5
 IPart=  7 NShTot=         686 NBatch=          63 AvBLen=        10.9
 IPart= 11 NShTot=         672 NBatch=          56 AvBLen=        12.0
 IPart=  5 NShTot=         701 NBatch=          72 AvBLen=         9.7
 IPart=  4 NShTot=         702 NBatch=          73 AvBLen=         9.6
 IPart= 10 NShTot=         672 NBatch=          56 AvBLen=        12.0
 IPart= 18 NShTot=         655 NBatch=          49 AvBLen=        13.4
 IPart= 19 NShTot=         653 NBatch=          49 AvBLen=        13.3
 IPart= 17 NShTot=         656 NBatch=          50 AvBLen=        13.1
 IPart=  9 NShTot=         679 NBatch=          59 AvBLen=        11.5
 PrSmSu:  NxtVal=            121.
 Entering OneElI...
 Calculate potential energy integrals
    NBasis = 485  MinDer = 2  MaxDer = 2
 Requested accuracy = 0.1000D-12
 PrmmSu-InSpLW:  IPartL=    0 NPrtUS=   20 NPrtUL=    1 DoSpLW=F IThBeg=    0 IThEnd=   19 NThAct=   20.
 PrsmSu:  NPrtUS=  20 ThrOK=T IAlg=1 NPAlg=1 LenDen=           0 ISkipM=0 DoSpLW=F IThBeg=    0 IThEnd=   19.
 Prism:   IPart=     0 DynPar=F LinDyn=F Incr=         140.
 PRISM was handed    33265623 working-precision words and 12219 shell-pairs
 PRISM was handed    33265623 working-precision words and 12219 shell-pairs
 PRISM was handed    33265623 working-precision words and 12219 shell-pairs
 PRISM was handed    33265623 working-precision words and 12219 shell-pairs
 PRISM was handed    33265623 working-precision words and 12219 shell-pairs
 PRISM was handed    33265623 working-precision words and 12219 shell-pairs
 PRISM was handed    33265623 working-precision words and 12219 shell-pairs
 PRISM was handed    33265623 working-precision words and 12219 shell-pairs
 PRISM was handed    33265623 working-precision words and 12219 shell-pairs
 PRISM was handed    33265623 working-precision words and 12219 shell-pairs
 PRISM was handed    33265623 working-precision words and 12219 shell-pairs
 PRISM was handed    33265623 working-precision words and 12219 shell-pairs
 PRISM was handed    33265623 working-precision words and 12219 shell-pairs
 PRISM was handed    33265623 working-precision words and 12219 shell-pairs
 PRISM was handed    33265623 working-precision words and 12219 shell-pairs
 PRISM was handed    33265623 working-precision words and 12219 shell-pairs
 PRISM was handed    33265623 working-precision words and 12219 shell-pairs
 PRISM was handed    33265623 working-precision words and 12219 shell-pairs
 PRISM was handed    33265623 working-precision words and 12219 shell-pairs
 PRISM was handed    33265623 working-precision words and 12219 shell-pairs
 IPart= 16 NShTot=       13593 NBatch=         592 AvBLen=        23.0
 IPart= 14 NShTot=       13754 NBatch=         599 AvBLen=        23.0
 IPart=  2 NShTot=       14651 NBatch=         639 AvBLen=        22.9
 IPart= 15 NShTot=       13685 NBatch=         596 AvBLen=        23.0
 IPart=  8 NShTot=       14007 NBatch=         610 AvBLen=        23.0
 IPart=  7 NShTot=       14053 NBatch=         612 AvBLen=        23.0
 IPart=  1 NShTot=       14720 NBatch=         642 AvBLen=        22.9
 IPart=  6 NShTot=       14260 NBatch=         621 AvBLen=        23.0
 IPart= 13 NShTot=       13777 NBatch=         600 AvBLen=        23.0
 IPart= 12 NShTot=       13823 NBatch=         602 AvBLen=        23.0
 IPart= 18 NShTot=       13455 NBatch=         586 AvBLen=        23.0
 IPart= 17 NShTot=       13478 NBatch=         587 AvBLen=        23.0
 IPart=  0 NShTot=       14743 NBatch=         643 AvBLen=        22.9
 IPart=  9 NShTot=       14007 NBatch=         610 AvBLen=        23.0
 IPart= 19 NShTot=       13432 NBatch=         585 AvBLen=        23.0
 IPart= 10 NShTot=       13984 NBatch=         609 AvBLen=        23.0
 IPart=  5 NShTot=       14513 NBatch=         633 AvBLen=        22.9
 IPart= 11 NShTot=       13915 NBatch=         606 AvBLen=        23.0
 IPart=  3 NShTot=       14628 NBatch=         638 AvBLen=        22.9
 IPart=  4 NShTot=       14559 NBatch=         635 AvBLen=        22.9
 PrSmSu:  NxtVal=           2801.
 Polarizability after L701:
                1             2             3 
      1  0.000000D+00
      2  0.000000D+00  0.000000D+00
      3  0.000000D+00  0.000000D+00  0.000000D+00
 Dipole Derivatives after L701:
                 1             2             3             4             5 
      1  -0.308465D+00 -0.672747D+00  0.704587D+00 -0.268488D+00  0.366869D+00
      2  -0.254856D+00 -0.128434D+01  0.286470D+00  0.496913D+00 -0.659307D+00
      3   0.211648D+00 -0.113664D-01 -0.847620D+00 -0.162213D+00  0.165831D+00
                 6             7             8             9            10 
      1  -0.658258D-01  0.122550D+00 -0.334153D-01 -0.191559D+00 -0.165221D+01
      2  -0.661352D-01  0.438563D+00 -0.572269D+00 -0.212772D-01 -0.343504D+00
      3  -0.743603D+00  0.316755D-01 -0.108996D+00 -0.878444D+00 -0.403800D-02
                11            12            13            14            15 
      1  -0.112439D+01 -0.879346D+00 -0.885409D+00 -0.154608D+01 -0.342766D+00
      2  -0.363871D-01 -0.164346D+00 -0.497104D+00 -0.892357D+00  0.864415D-01
      3  -0.182528D+00 -0.782860D+00 -0.218496D+00  0.824400D-01 -0.789734D+00
                16            17            18            19            20 
      1  -0.972362D+00  0.156839D+01  0.286859D+00 -0.181686D+01  0.118108D+01
      2   0.585683D-01 -0.122946D+01 -0.387361D-02 -0.353559D-01 -0.772570D+00
      3   0.872721D-02  0.202756D+00 -0.940563D+00  0.492807D-01 -0.313229D-01
                21            22            23            24            25 
      1   0.358121D+00  0.123937D+01  0.412546D+00 -0.245949D+00  0.476279D-01
      2   0.956264D-01  0.230951D+00  0.260775D+00 -0.544669D-01 -0.156899D-01
      3  -0.100546D+01  0.381432D-01  0.209140D-01  0.107209D+00 -0.714506D-01
                26            27            28            29            30 
      1   0.792043D-01  0.697650D+00  0.265218D+00 -0.300396D-01 -0.503036D+00
      2   0.184408D+00  0.149933D+00  0.573270D-01  0.114441D+00 -0.321627D+00
      3   0.452690D-01  0.682429D+00 -0.997262D-01  0.396341D-01  0.672343D+00
                31            32            33            34            35 
      1   0.242538D+00  0.490093D+00  0.122955D+00  0.203330D+00 -0.184824D-01
      2   0.105661D+00  0.914726D+00  0.189485D+00 -0.862158D-01  0.234558D+00
      3   0.286474D-02 -0.294222D-01  0.120040D+00 -0.107399D+00  0.808664D-01
                36            37            38            39            40 
      1  -0.141479D+00  0.314149D+00 -0.177204D+00  0.160378D+00  0.136646D+00
      2   0.357619D+00 -0.275296D+00  0.511259D+00 -0.321897D+00 -0.360830D-01
      3   0.508967D+00  0.143146D+00 -0.189443D+00  0.308941D+00 -0.662661D-01
                41            42            43            44            45 
      1   0.522251D-01  0.137329D+00  0.199057D+00  0.112660D-01 -0.137349D-01
      2   0.209546D+00  0.266817D+00 -0.283732D+00  0.455010D+00 -0.262931D+00
      3   0.153595D+00  0.645625D+00  0.517963D-01 -0.981440D-01  0.240454D+00
                46            47            48            49            50 
      1   0.257136D+00  0.544160D+00 -0.518780D+00  0.520795D+00  0.278958D+00
      2   0.512192D-01  0.546291D+00 -0.416751D+00  0.164960D+00  0.257496D+00
      3  -0.300007D-01 -0.191180D+00  0.298411D+00  0.160587D+00  0.125582D+00
                51            52            53            54            55 
      1   0.758589D+00 -0.257075D+00 -0.179393D+00 -0.293776D+00 -0.116532D+00
      2   0.358917D+00  0.392172D+00  0.268469D+00  0.301864D+00  0.181563D+00
      3   0.501652D+00  0.237036D+00  0.783557D-01  0.341027D+00 -0.125472D+00
                56            57            58            59            60 
      1  -0.341690D+00  0.564812D+00  0.132140D+01 -0.249841D+00 -0.382818D+00
      2   0.431663D+00 -0.514051D+00 -0.488008D+00  0.255475D+00  0.165181D+00
      3  -0.185373D+00  0.486306D+00 -0.833176D-01  0.217283D-01  0.111496D+00
                61            62            63            64            65 
      1  -0.288777D+00 -0.484267D+00 -0.407699D+00  0.396629D+00 -0.647822D+00
      2   0.227029D+00  0.329388D+00  0.212224D+00 -0.106500D+00  0.337848D+00
      3   0.267757D+00  0.260791D+00  0.387011D+00  0.582201D-01 -0.117178D+00
                66            67            68            69 
      1   0.905380D+00  0.129974D+01  0.520570D+00 -0.709890D+00
      2  -0.307118D+00  0.174176D-01  0.135337D+00 -0.161032D-01
      3   0.318602D+00 -0.292502D+00 -0.132809D+00  0.257769D+00
 Hessian after L701:
                1             2             3             4             5 
      1  0.148996D+02
      2  0.221452D+00  0.166359D+02
      3 -0.219972D+00  0.541015D+00  0.178416D+02
      4 -0.239575D+01  0.737950D+00 -0.610074D+00  0.150165D+02
      5  0.758886D+00 -0.632209D+01 -0.866619D-01 -0.102879D+01  0.172193D+02
      6 -0.607181D+00 -0.879801D-01 -0.625303D+01 -0.651635D-01  0.738855D-01
      7  0.139351D+00  0.190614D+00  0.107713D+00 -0.562431D+01  0.155816D+01
      8  0.162719D+00  0.127654D+00  0.952762D-01  0.153408D+01 -0.282719D+01
      9  0.451493D-01  0.538372D-01 -0.112218D+00  0.292150D+00  0.494134D+00
     10 -0.423871D+01 -0.155122D+01  0.131737D+01  0.403487D+00 -0.643649D-01
     11 -0.154700D+01 -0.494063D+01 -0.103616D+01 -0.125221D+00 -0.676364D-01
     12  0.131115D+01 -0.104074D+01 -0.522596D+01  0.626388D-01 -0.326221D-01
     13  0.184218D+00  0.169846D+00 -0.145145D-01  0.275950D+00  0.212204D+00
     14  0.164570D+00 -0.320974D-01 -0.166709D-01  0.246193D+00  0.631490D-01
     15 -0.303488D-01 -0.180412D-01 -0.131977D+00  0.706479D-02  0.450105D-01
     16 -0.784476D-01 -0.206632D+00 -0.619367D-02  0.914003D-01 -0.182003D+00
     17 -0.198105D+00  0.335024D+00  0.747005D-02 -0.157767D+00 -0.152928D-01
     18  0.441507D-01 -0.670647D-01 -0.190366D+00  0.500991D-01 -0.416921D-01
     19  0.123584D+00  0.212245D-01 -0.287848D-01  0.205779D+00  0.229791D-01
     20  0.542890D-01 -0.814205D-01 -0.345144D-02  0.171130D+00 -0.167985D+00
     21 -0.361744D-01 -0.730039D-02 -0.792483D-01 -0.934234D-01 -0.180998D-02
     22 -0.375812D-01  0.732325D-01 -0.549709D-01  0.186424D+00  0.204171D-02
     23  0.707817D-01  0.939136D-01 -0.354012D-02  0.977415D-02 -0.478521D-01
     24 -0.655796D-01 -0.722330D-03  0.838459D-01  0.126069D-01  0.244132D-04
     25  0.636356D-01  0.505295D-01 -0.125546D+00  0.114936D-01 -0.447609D-03
     26  0.288693D-01  0.666330D-01  0.934812D-01  0.102389D-02 -0.203233D-01
     27 -0.797836D-01  0.110035D+00 -0.104461D-01  0.363380D-01  0.290136D-02
     28 -0.428137D+01 -0.212279D-01 -0.558574D+00 -0.833562D-01  0.207720D-02
     29  0.321335D-02 -0.435771D+01  0.113010D-01 -0.336177D-01  0.131816D+00
     30 -0.500115D+00  0.134747D+00 -0.179117D+01  0.143474D+00  0.119001D-02
     31 -0.426799D+01  0.443355D+00  0.661343D-01 -0.671179D-01 -0.139540D+00
     32  0.396459D+00 -0.186868D+01  0.417575D+00 -0.141984D+00  0.840640D-01
     33  0.536318D-01  0.381874D+00 -0.422390D+01  0.139395D-01  0.307154D-01
     34 -0.769243D-01 -0.439194D-01  0.965779D-01 -0.460451D+01 -0.180153D+00
     35 -0.230229D-01  0.879090D-01  0.312403D-01 -0.207744D+00 -0.448495D+01
     36  0.644170D-01  0.511736D-01  0.111787D+00 -0.549062D+00  0.635630D+00
     37 -0.768361D-01  0.151816D-01 -0.151978D-02 -0.385078D+01 -0.940121D+00
     38  0.170239D-01  0.112677D+00 -0.304520D-01 -0.102905D+01 -0.335901D+01
     39  0.963802D-02 -0.303054D-01  0.112123D+00  0.759132D+00 -0.919795D+00
     40  0.783590D-02  0.354060D-01  0.170385D-01  0.161781D+00 -0.540827D-01
     41  0.472518D-01 -0.240405D-03  0.237816D-01 -0.316357D-01 -0.965256D-01
     42  0.367074D-01  0.292869D-01 -0.623341D-02 -0.366742D-01 -0.178089D+00
     43  0.251589D-02 -0.185227D-01  0.824084D-02  0.121524D+00 -0.380158D-01
     44  0.372151D-02 -0.102553D-01  0.147850D-01  0.176938D-01 -0.116445D+00
     45 -0.204900D-03  0.536852D-03 -0.570157D-02  0.175033D-01 -0.202226D-01
     46  0.423319D-02  0.548532D-02 -0.728354D-03  0.200964D-01  0.680774D-01
     47  0.147121D-01  0.444774D-03 -0.566378D-03  0.877568D-01  0.519247D-01
     48 -0.840559D-02 -0.496786D-02 -0.848923D-02 -0.381137D-01 -0.382375D-01
     49  0.840825D-02  0.606282D-02  0.667616D-02  0.553444D-01  0.680659D-01
     50  0.106628D-01 -0.336667D-02  0.478865D-02  0.777837D-01  0.118954D-01
[...]
 -0.24583734,-0.06771031,0.00031190,0.00014013,0.00031090,-0.00598292,-
 0.01454938,-0.00355892,-0.00008761,-0.00035799,-0.00014675,0.00378509,
 -0.00030450,-0.00188008,-0.00006341,0.00001649,-0.00002571,0.00012438,
 0.00002059,-0.00017516,-0.00046182,0.00026794,0.00025069,-0.00005547,0
 .00015496,0.00022847,0.00170367,0.00093315,0.00064253,-0.00037565,0.00
 087510,-0.00051100,0.09088009,0.26754732,0.00118887,0.00008652,-0.0000
 7968,-0.01019873,-0.01712194,-0.00770318,-0.02810109,-0.06655570,-0.07
 115804,0.00006832,0.00006985,-0.00002967,-0.00616398,-0.01547050,-0.00
 566220,0.00020855,0.00034142,0.00019442,0.00296546,-0.00033645,-0.0010
 7937,0.00000533,-0.00004131,0.00008756,0.00015175,0.00005558,-0.000009
 11,0.00015847,0.00027057,0.00044270,0.00003027,0.00003210,-0.00001276,
 -0.00334005,0.00083872,-0.00169619,0.00070417,-0.00041656,0.00045645,0
 .03346980,0.07514267,0.07675331,0.00163874,-0.00051232,-0.00006798,0.0
 0587414,0.01625326,-0.02359426,-0.06222194,-0.03475901,0.05405269,-0.0
 0007038,0.00021479,-0.00016901,-0.00757152,-0.01156450,0.02095465,-0.0
 0161097,-0.00051902,0.00037895,0.00074843,-0.00120269,-0.00085099,0.00
 003842,-0.00010343,0.00006973,0.00006056,-0.00004995,0.00007293,0.0002
 4108,-0.00000524,0.00044571,0.00031184,-0.00014006,0.00013247,0.001079
 16,-0.00069687,0.00081096,-0.00458278,0.00111542,-0.00384821,-0.003812
 54,-0.00618541,0.00995445,0.07398148,-0.00024738,0.00058358,0.00048567
 ,-0.00088241,-0.00369018,0.00472418,-0.03442831,-0.11795343,0.10945641
 ,0.00030125,-0.00008513,-0.00008887,0.00479927,0.00775791,-0.01511101,
 -0.00081112,-0.00046152,0.00063262,0.00015793,0.00190908,-0.00094941,0
 .00002197,0.00002858,-0.00002669,-0.00006864,-0.00000771,-0.00005045,-
 0.00002301,-0.00039704,-0.00025607,-0.00012547,-0.00006327,-0.00027163
 ,0.00039959,0.00047370,-0.00028643,0.00146065,0.00106890,0.00029097,-0
 .00713437,-0.01512438,0.02340090,0.03614240,0.12688665,0.00033192,-0.0
 0079917,0.00048556,0.00382560,0.01050634,-0.01616559,0.05187208,0.1084
 6624,-0.21916294,-0.00052049,0.00030206,-0.00011121,0.00560095,0.00796
 240,-0.01494541,0.00112089,0.00128060,0.00001465,-0.00063960,0.0011205
 6,0.00046817,-0.00007600,-0.00019617,0.00010884,0.00003868,0.00004506,
 0.00001082,-0.00031529,0.00012169,0.00032660,0.00010205,-0.00006637,0.
 00014662,0.00047761,-0.00028273,0.00030637,-0.00330047,0.00032872,-0.0
 0118571,-0.00234870,-0.00479404,0.00851710,-0.05973756,-0.12020550,0.2
 4091684,-0.00075006,0.00011340,-0.00127575,-0.00157976,0.00226492,0.00
 468529,-0.02035326,0.00175848,-0.01385073,-0.00001433,0.00024833,0.000
 02088,-0.22698975,0.00544818,-0.12090518,-0.00001908,-0.00006073,-0.00
 003954,-0.00693826,-0.00038742,-0.00495627,-0.00008510,-0.00006950,0.0
 0007369,0.00001280,-0.00002643,-0.00000142,0.00003273,0.00001934,0.000
 04734,-0.00040322,0.00021227,0.00021118,0.00029359,-0.00024257,0.00009
 335,0.00021927,0.00006084,-0.00003878,0.00117078,0.00023800,-0.0001743
 8,0.00028538,-0.00069608,0.00014334,0.24721053,0.00073265,0.00022998,0
 .00076907,0.00239673,-0.00145011,-0.00294736,0.01430035,-0.00214477,0.
 01021702,0.00006736,-0.00023383,-0.00008936,0.00591919,-0.04644261,0.0
 0607255,0.00005186,-0.00000853,0.00001447,-0.02789211,-0.00161081,-0.0
 2020588,0.00007716,0.00007443,-0.00006654,0.00000203,0.00000430,0.0000
 1696,-0.00003987,-0.00000173,-0.00004696,0.00022234,-0.00013527,-0.000
 10861,0.00014616,0.00011412,0.00002619,-0.00034286,0.00013229,-0.00031
 610,-0.00013928,0.00020262,0.00064996,-0.00050328,0.00040058,-0.000219
 61,-0.00754809,0.05535576,0.00059586,-0.00038827,0.00068918,0.00169023
 ,-0.00113368,-0.00187580,0.01651534,-0.00145568,0.01006467,-0.00004239
 ,-0.00003410,0.00003680,-0.12184715,0.00610685,-0.13117170,0.00001141,
 0.00000131,0.00001019,-0.00565517,-0.00067232,-0.00455303,-0.00000322,
 0.00001495,-0.00001744,0.00000532,0.00000187,-0.00000125,-0.00006000,0
 .00000577,-0.00001245,0.00021219,-0.00012847,-0.00014750,0.00012935,0.
 00007703,-0.00004467,0.00008501,-0.00030330,0.00029051,-0.00060822,0.0
 0055123,0.00081371,-0.00054253,0.00059415,0.00049365,0.13180246,-0.001
 81944,0.13973296,0.00015757,0.00037153,-0.00011992,0.00119954,-0.00146
 600,0.00090493,-0.00701146,-0.01150734,0.02138270,0.00010938,-0.000184
 67,-0.00002087,-0.06087770,-0.02759449,0.04582914,-0.00004435,-0.00009
 368,0.00006277,-0.00260489,-0.00541769,0.00785103,0.00004740,0.0000570
 9,-0.00004100,-0.00002626,0.00000883,-0.00001421,0.00005982,-0.0001017
 7,-0.00011712,-0.00004709,0.00000103,-0.00005435,-0.00012400,-0.000044
 67,-0.00005119,-0.00021408,0.00058861,-0.00055911,0.00063640,0.0000763
 3,-0.00056554,-0.00288105,0.00263158,0.00251630,0.00650830,0.01367350,
 -0.02284114,0.06462152,-0.00017183,-0.00001952,-0.00009163,-0.00059797
 ,0.00068509,-0.00055630,0.00454749,0.00835723,-0.01483880,-0.00005241,
 0.00003783,-0.00000641,-0.02804888,-0.10919734,0.10670591,0.00011052,0
 .00002042,-0.00009928,-0.00725120,-0.01767651,0.02681719,-0.00000647,0
 .00000810,-0.00000499,0.00000589,-0.00000846,0.00001025,0.00001498,0.0
 0002044,0.00000648,-0.00001261,0.00003363,0.00005235,0.00002140,-0.000
 03292,0.00014472,-0.00031229,-0.00007715,0.00027164,-0.00076928,0.0005
 2902,0.00031184,0.00290842,-0.00107836,-0.00180825,0.00036839,-0.00096
 759,0.00063495,0.03027537,0.12272700,-0.00020779,-0.00040700,0.0001552
 8,-0.00127963,0.00038482,0.00088693,0.00478051,0.00789939,-0.01602506,
 -0.00012139,0.00012349,0.00005754,0.04686888,0.10763323,-0.22979387,0.
 00001063,0.00009454,-0.00007789,-0.00228005,-0.00498630,0.00789108,-0.
 00001450,-0.00004927,0.00001569,0.00001779,-0.00000166,0.00001923,-0.0
 0004904,0.00010346,0.00001375,0.00010893,-0.00003747,0.00000972,0.0001
 3907,-0.00008371,0.00001380,0.00073953,-0.00030805,0.00071048,-0.00026
 948,-0.00029673,0.00000415,0.00214545,-0.00262124,-0.00049488,0.003731
 95,0.00859495,-0.01574363,-0.05398135,-0.11509283,0.25037519,0.0009068
 3,-0.00000257,0.00107840,0.00004772,0.00013939,0.00028944,0.00002468,0
 .00010700,0.00016946,-0.00672669,-0.00503136,-0.00937291,-0.00000353,0
 .00008585,-0.00002142,-0.11189481,-0.05322138,-0.10030404,0.00000320,-
 0.00000335,0.00000737,-0.00021528,-0.00027478,0.00020644,0.00010484,0.
 00219313,-0.00104814,0.00045310,0.00034757,-0.00025066,-0.00005102,0.0
 0004805,0.00017607,-0.00009001,-0.00005879,-0.00006182,-0.00004782,-0.
 00010521,-0.00007608,0.00001922,0.00000055,-0.00008251,-0.00033677,0.0
 0020088,0.00028913,0.00000472,-0.00001712,0.00000074,0.00002476,-0.000
 02783,-0.00002524,0.11905267,0.00054266,0.00210395,0.00002169,-0.00021
 816,-0.00024652,-0.00016132,-0.00018085,0.00031669,-0.00032687,0.01240
 034,0.01030591,0.02042908,-0.00000564,-0.00015649,0.00011818,-0.053249
 05,-0.09065830,-0.08349698,0.00001291,-0.00000522,-0.00003475,-0.00027
 896,0.00095017,-0.00081534,0.00189858,-0.00323900,0.00380136,-0.000268
 24,-0.00021542,-0.00068176,0.00015223,0.00014036,-0.00036306,0.0001554
 6,0.00001707,0.00002723,0.00006012,0.00006309,0.00006739,-0.00001871,-
 0.00004069,0.00003094,-0.00013168,-0.00012087,0.00018028,0.00003363,0.
 00000851,-0.00000616,-0.00004464,0.00003683,0.00004937,0.05705009,0.09
 687079,-0.00010959,-0.00134157,0.00070436,-0.00014572,-0.00010742,-0.0
 0041019,-0.00015403,0.00055659,-0.00056499,-0.01007991,-0.00799914,-0.
 01686604,0.00008684,-0.00026656,0.00022553,-0.09966824,-0.08300017,-0.
 20311207,-0.00004385,-0.00002944,-0.00002456,0.00014213,0.00018265,0.0
 0077874,-0.00154823,0.00372520,-0.00124999,0.00061461,0.00073731,-0.00
 004315,0.00012333,0.00005570,0.00045234,-0.00004874,0.00019528,0.00021
 382,0.00016117,0.00008722,0.00010093,0.00004735,-0.00001684,0.00005268
 ,0.00031382,-0.00048008,0.00011685,0.00003103,0.00000685,-0.00001288,-
 0.00010539,0.00007577,0.00010882,0.11240848,0.08851530,0.22126843,0.00
 010658,-0.00053768,-0.00017046,0.00021390,0.00014444,0.00015531,-0.000
 71320,-0.00065610,0.00011939,-0.00808604,0.00731876,0.00512681,-0.0000
 9083,-0.00008845,0.00008626,-0.14841586,0.10129893,0.08123284,0.000061
 60,-0.00012873,0.00004703,0.00029359,0.00152463,-0.00196691,0.00000267
 ,-0.00024016,0.00011442,0.00001717,0.00001084,-0.00005695,0.00000752,0
 .00003139,-0.00002809,0.00011730,-0.00007540,-0.00008483,-0.00004043,-
 0.00011197,-0.00016077,-0.00007751,0.00000782,0.00000801,-0.00148902,-
 0.00120263,0.00024164,0.00001109,-0.00002672,-0.00000315,-0.00000448,0
 .00001348,-0.00000998,0.01060266,-0.01080933,-0.00795685,0.16242687,0.
 00068441,0.00048143,-0.00098167,-0.00028778,-0.00050656,0.00002322,-0.
 00026245,-0.00011967,0.00077284,0.01489781,-0.01524451,-0.01220143,-0.
 00018711,0.00022406,-0.00008313,0.09999342,-0.14697140,-0.08044128,0.0
 0004395,-0.00004776,0.00001541,0.00138831,-0.00257484,0.00372100,-0.00
 049945,0.00112676,0.00009741,-0.00002640,-0.00003155,0.00010109,-0.000
 12108,0.00026053,0.00012015,-0.00007646,0.00005849,0.00059929,-0.00001
 553,0.00031720,-0.00002417,0.00022741,0.00022617,-0.00022425,-0.000856
 62,-0.00018149,-0.00057720,0.00001816,-0.00000789,0.00001307,0.0000857
 0,-0.00006087,-0.00010859,0.00799131,-0.00853548,-0.00585497,-0.112182
 17,0.15953437,0.00047303,-0.00069717,0.00056262,0.00061332,0.00074536,
 0.00016672,0.00050359,-0.00020582,0.00034738,-0.01455537,0.01330118,0.
 01174223,0.00003880,0.00024789,-0.00018493,0.08089879,-0.08143631,-0.1
 1158369,0.00000335,-0.00005354,0.00026501,-0.00161100,0.00401001,-0.00
 212606,0.00020044,-0.00089898,0.00111869,0.00004080,0.00001138,-0.0000
 6502,-0.00011257,-0.00027909,0.00005902,0.00006226,0.00000596,-0.00073
 201,-0.00018870,-0.00011712,-0.00000503,-0.00002084,0.00011645,-0.0001
 8375,0.00009414,0.00021561,-0.00034985,-0.00002902,-0.00001784,0.00000
 712,0.00008370,-0.00003496,-0.00006611,0.01611390,-0.01397908,-0.01215
 513,-0.08843837,0.08588529,0.11985941,-0.00064490,0.00175907,-0.001524
 84,-0.00008993,0.00017348,-0.00020587,-0.00017142,0.00032935,-0.000656
 35,0.01092759,0.00839851,-0.00534323,0.00008350,-0.00024373,0.00016047
 ,-0.20356602,-0.11198092,0.07404841,-0.00004659,0.00005147,-0.00003255
 ,0.00078223,-0.00056131,0.00041635,0.00041746,-0.00061531,0.00053237,0
 .00002916,0.00018516,0.00003688,0.00037378,0.00054520,-0.00024772,0.00
 001840,-0.00003834,-0.00012156,0.00006048,-0.00011456,0.00005545,-0.00
 009851,-0.00011283,0.00014293,0.00000054,-0.00037268,0.00060309,-0.000
 01535,0.00000753,-0.00001237,-0.00009140,0.00006097,0.00009130,-0.0119
 0637,-0.00707732,0.00592343,-0.01497805,-0.01081645,0.00592879,0.21889
 644,0.00401504,-0.00271219,0.00305835,0.00031170,-0.00006579,-0.000176
 72,0.00014805,0.00013919,0.00016165,-0.01911834,-0.01353712,0.00750639
 ,-0.00002388,0.00004096,-0.00008081,-0.11096151,-0.12497341,0.05131613
 ,-0.00000795,-0.00005773,0.00005773,-0.00024152,0.00037900,-0.00089937
 ,0.00020267,0.00090514,-0.00007153,0.00027609,0.00035706,-0.00018008,-
 0.00114885,-0.00096924,0.00085651,-0.00000026,0.00012159,0.00017761,-0
 .00007408,0.00015077,0.00005047,0.00007762,0.00009002,-0.00007781,-0.0
 0003509,0.00004209,-0.00026246,-0.00002646,0.00002333,0.00000686,0.000
 03627,-0.00000693,-0.00001656,-0.00939825,-0.00760184,0.00491439,0.015
 51790,0.01199370,-0.00683008,0.12047326,0.13561934,-0.00272158,0.00229
 695,-0.00201471,-0.00040821,0.00004958,0.00028638,-0.00019815,0.000225
 62,-0.00011171,0.01629454,0.01001569,-0.00753142,0.00000729,-0.0000571
 0,0.00012473,0.07320295,0.05137534,-0.08201437,0.00001554,-0.00004832,
 -0.00000615,-0.00020130,-0.00048880,0.00094071,0.00035018,-0.00070876,
 0.00007705,0.00010065,0.00020605,0.00015296,0.00091895,0.00096249,-0.0
 0023511,-0.00002730,-0.00010850,0.00022300,0.00002820,0.00005196,0.000
 01842,0.00005571,0.00004994,-0.00005671,-0.00001255,-0.00011882,-0.000
 01359,0.00003950,-0.00002247,-0.00000964,-0.00003061,0.00001578,0.0000
 2124,-0.01947680,-0.01340775,0.01037253,0.01188423,0.00913230,-0.00649
 630,-0.07983015,-0.05947191,0.08626238,0.00008322,0.00000822,0.0000314
 0,-0.00015654,-0.00008529,0.00005750,0.00051516,0.00108111,-0.00046378
 ,0.00000444,-0.00001390,-0.00006389,-0.00309137,-0.00496629,0.00832271
 ,-0.00011994,0.00011898,0.00010284,-0.06529463,-0.03278887,0.05610739,
 0.00001696,-0.00003641,0.00001512,-0.00000229,0.00000668,0.00000340,-0
 .00000439,0.00001013,0.00001161,0.00001003,-0.00001907,0.00000374,0.00
 003117,-0.00013805,-0.00008010,-0.00004422,-0.00011505,-0.00004097,-0.
 00010330,0.00008980,-0.00006384,0.00036125,-0.00003118,-0.00014310,-0.
 00018247,0.00025808,0.00034858,0.00026820,-0.00174603,-0.00079436,0.00
 003183,-0.00004421,-0.00002378,-0.00004467,0.00002723,0.00001946,0.000
 03089,-0.00002444,-0.00001724,0.06607300,0.00002623,-0.00000527,0.0000
 2577,0.00029279,-0.00005629,-0.00016001,-0.00064399,0.00165028,0.00190
 774,-0.00001738,-0.00004943,0.00006898,-0.00794274,-0.01782830,0.02697
 915,0.00009376,-0.00010400,-0.00010164,-0.03262343,-0.10851863,0.10720
 703,-0.00000731,0.00005140,-0.00003217,-0.00000244,0.00000803,-0.00001
 900,0.00001669,-0.00001730,-0.00000444,0.00001782,0.00000746,-0.000019
 83,0.00001847,-0.00008499,0.00009678,-0.00016202,0.00017274,-0.0001347
 7,-0.00010364,0.00054226,-0.00024871,0.00064507,-0.00007146,-0.0009872
 2,0.00003470,0.00124432,-0.00024949,-0.00198302,-0.00572470,-0.0023178
 3,-0.00000495,-0.00000094,-0.00000313,0.00013282,0.00006285,0.00002779
 ,-0.00005657,0.00004322,0.00002406,0.03846192,0.12111401,0.00008882,0.
 00003827,-0.00002259,-0.00011656,0.00009239,0.00005972,-0.00041309,-0.
 00030988,0.00119408,0.00002210,0.00005161,-0.00007611,-0.00171006,-0.0
 0424579,0.00682232,-0.00008333,0.00009472,0.00007378,0.05654191,0.1077
 5901,-0.23082974,-0.00000381,-0.00004838,0.00003526,-0.00000708,-0.000
 00117,0.00000189,-0.00001349,0.00000512,0.00001647,-0.00003822,-0.0000
 0206,0.00001792,0.00004440,0.00021793,-0.00014923,-0.00003092,-0.00008
 178,-0.00002041,-0.00017380,0.00004673,0.00021625,-0.00027362,0.000565
 27,0.00003391,0.00025468,0.00068032,0.00057101,-0.00025040,-0.00226157
 ,0.00097213,0.00002077,-0.00004270,-0.00004542,-0.00003021,0.00001538,
 0.00003464,0.00001376,-0.00003273,-0.00001098,-0.06238630,-0.11757381,
 0.24900903,0.00024168,0.00010351,0.00020481,-0.00079077,0.00013521,-0.
 00027855,-0.00005628,-0.00001215,0.00042668,0.00002801,0.00001138,-0.0
 0001809,-0.00709330,-0.00075798,-0.00511382,-0.00005124,0.00005822,-0.
 00000302,-0.20847433,-0.00205483,-0.13150312,-0.00000083,-0.00000624,0
 .00000285,0.00000387,0.00000274,-0.00000276,-0.00009093,0.00008257,0.0
 0006551,0.00004396,-0.00002144,-0.00001001,-0.00046182,0.00208188,0.00
 077280,0.00001655,-0.00001643,-0.00005169,0.00004666,-0.00008863,-0.00
 006445,0.00002046,-0.00003580,0.00002546,0.00079121,-0.00196159,0.0001
 2690,0.00008618,-0.00009632,0.00025180,0.00001038,-0.00000604,0.000005
 79,0.00007110,-0.00008026,-0.00007355,0.00002335,-0.00001312,-0.000004
 96,0.00784465,0.00068660,0.00619924,0.22670304,0.00019891,0.00005707,0
 .00011269,0.00039585,-0.00017728,-0.00005043,-0.00017429,0.00135735,0.
 00023900,0.00001909,0.00004787,-0.00000405,-0.02636207,0.00056542,-0.0
 2087017,-0.00003031,0.00001085,-0.00000584,-0.00117932,-0.04656615,-0.
 00040211,-0.00003082,-0.00001815,0.00002244,0.00001409,-0.00000573,-0.
 00001071,-0.00010621,0.00006613,0.00007013,-0.00001391,0.00001930,0.00
 001260,0.00152765,-0.00108241,-0.00045582,-0.00005638,-0.00011790,0.00
 011201,0.00011573,0.00013281,0.00024271,0.00012447,-0.00009002,-0.0000
 3874,-0.00160187,-0.00628748,-0.00174373,0.00033044,0.00161392,0.00061
 219,0.00000518,-0.00000815,0.00000466,0.00004229,0.00002165,-0.0000108
 0,-0.00000699,-0.00000982,0.00002296,0.01308671,-0.00064515,0.00891136
 ,0.00223237,0.05171266,0.00028568,0.00020190,0.00013674,-0.00058430,-0
 .00060761,-0.00012524,-0.00079192,0.00032137,-0.00023498,0.00003608,-0
 .00000950,-0.00003251,-0.00424715,0.00001959,-0.00428245,0.00011653,-0
 .00010800,-0.00004218,-0.13134578,-0.00131550,-0.15517570,-0.00002055,
 0.00003197,0.00001951,0.00005041,-0.00001866,0.00001612,-0.00010746,0.
 00012060,0.00010438,-0.00000866,0.00002761,0.00000450,0.00075593,0.000
 14298,0.00049458,0.00012666,0.00018788,-0.00011243,0.00021569,-0.00005
 529,0.00009481,-0.00001061,-0.00004695,0.00000906,0.00005410,-0.001298
 73,0.00105244,0.00048335,-0.00026758,0.00063028,-0.00003858,0.00007209
 ,0.00007175,-0.00005873,0.00004289,-0.00014796,-0.00001832,0.00001418,
 0.00003171,-0.02160234,-0.00055304,-0.01663576,0.14512217,0.00228166,0
 .16430325,0.00020088,0.00007992,0.00010351,-0.00027415,-0.00036510,-0.
 00020583,-0.00036269,-0.00202005,-0.00048087,0.00002460,0.00001218,0.0
 0001250,0.00876336,-0.00617054,-0.00582946,0.00007123,-0.00009063,-0.0
 0006131,-0.20329520,0.10086634,0.08893644,-0.00002713,0.00002541,0.000
 01273,0.00002729,-0.00000816,-0.00000540,-0.00007982,0.00007982,0.0000
 7356,-0.00000054,0.00002581,0.00000648,0.00040453,0.00024820,0.0002131
 2,0.00004444,0.00011519,0.00000194,0.00032224,-0.00039236,-0.00030183,
 -0.00006452,-0.00005642,-0.00010753,0.00079025,0.00061598,0.00009197,0
 .00020770,0.00076621,0.00014694,-0.00001430,0.00002680,0.00002633,0.00
 000805,0.00005406,-0.00004495,-0.00003528,0.00001516,0.00003111,-0.006
 22700,0.00312062,0.00234522,-0.01891161,0.01146939,0.01158779,0.218427
 68,0.00007765,0.00000081,0.00001347,-0.00058320,0.00007624,-0.00042601
 ,-0.00393837,-0.00542365,-0.00029524,-0.00002196,-0.00005540,0.0000767
 6,0.02494884,-0.01449736,-0.01371561,0.00006685,-0.00003650,-0.0000687
 8,0.09963364,-0.10996765,-0.05572824,0.00002145,0.00003035,-0.00003595
 ,0.00002254,0.00002334,-0.00000104,0.00000684,0.00006070,0.00007146,0.
 00008158,-0.00001699,0.00000274,0.00004289,0.00012562,0.00010686,0.000
 03968,-0.00002721,0.00004133,0.00139396,-0.00104484,-0.00098055,-0.000
 13866,0.00017379,-0.00007652,-0.00015949,0.00150037,-0.00007340,0.0003
 0167,0.00078082,0.00083180,-0.00002340,0.00001553,0.00004241,0.0000160
 3,-0.00002520,-0.00000614,0.00001301,0.00002866,0.00000371,-0.01314008
 ,0.00820987,0.00612176,-0.00024365,-0.00059681,0.00081614,-0.10841782,
 0.12066552,0.00014852,0.00010806,0.00009194,-0.00045085,-0.00012296,-0
 .00008319,-0.00129017,-0.00176769,0.00012081,0.00002661,-0.00000736,-0
 .00006129,0.00504920,-0.00255683,-0.00411644,-0.00004329,0.00007318,0.
 00005825,0.08836715,-0.05601885,-0.09698767,0.00001624,-0.00001847,0.0
 0001922,0.00001827,-0.00000061,0.00001386,-0.00008285,0.00007072,0.000
 04396,0.00002039,-0.00000979,0.00001282,0.00025910,0.00029471,0.000058
 05,0.00005900,0.00002815,0.00001910,0.00049022,-0.00058070,0.00003751,
 -0.00031864,0.00014735,0.00047413,0.00008226,0.00011054,-0.00017224,-0
 .00036171,0.00001572,0.00031615,-0.00000201,0.00000286,0.00001764,-0.0
 0005063,-0.00004265,-0.00006699,0.00003971,-0.00002020,-0.00001042,0.0
 2065594,-0.01393221,-0.01126816,-0.01608000,0.01094799,0.00982008,-0.0
 9655246,0.06327905,0.10166290\\0.00000048,0.00000034,-0.00000039,0.000
 00064,0.00000011,0.00000011,0.00000014,-0.00000049,0.00000075,0.000000
 16,0.00000070,-0.00000097,0.00000021,-0.00000086,0.00000100,-0.0000009
 9,0.00000067,-0.00000102,-0.00000018,-0.00000055,0.00000073,-0.0000001
 0,0.00000101,-0.00000136,0.00000015,0.00000110,-0.00000137,0.00000035,
 0.00000022,-0.00000015,0.00000112,0.00000068,-0.00000061,0.00000056,0.
 00000019,-0.00000030,0.00000128,0.00000011,0.00000022,0.00000032,-0.00
 000061,0.00000088,-0.00000058,-0.00000040,0.00000042,-0.00000012,-0.00
 000122,0.00000149,0.00000091,-0.00000081,0.00000121,-0.00000120,0.0000
 0023,-0.00000060,-0.00000101,0.00000039,-0.00000067,-0.00000136,0.0000
 0080,-0.00000133,-0.00000078,-0.00000058,0.00000057,0.00000013,-0.0000
 0019,0.00000030,-0.00000014,-0.00000083,0.00000110\\\@


 THERE ARE PEOPLE SO ADDICTED TO EXAGERATING THEY
 CAN'T TELL THE TRUTH WITHOUT LYING. -- FORTUNE COOKIE
 Job cpu time:       0 days  6 hours 22 minutes 26.1 seconds.
 Elapsed time:       0 days  3 hours 11 minutes 14.2 seconds.
 File lengths (MBytes):  RWF=   1488 Int=      0 D2E=      0 Chk=     32 Scr=     32
 Normal termination of Gaussian 16 at Sat Sep 28 12:17:44 2019.
