 Entering Gaussian System, Link 0=g16
 Input=med/species/CCCCCCC/conformers/CCCCCCC_426.com
 Output=med/species/CCCCCCC/conformers/CCCCCCC_426.log
 Initial command:
 /shared/centos7/gaussian/g16/l1.exe "/scratch/harms.n/gauss_scrdir/Gau-9600.inp" -scrdir="/scratch/harms.n/gauss_scrdir/"
 Entering Link 1 = /shared/centos7/gaussian/g16/l1.exe PID=      9601.
  
 Copyright (c) 1988,1990,1992,1993,1995,1998,2003,2009,2016,
            Gaussian, Inc.  All Rights Reserved.
  
 This is part of the Gaussian(R) 16 program.  It is based on
 the Gaussian(R) 09 system (copyright 2009, Gaussian, Inc.),
 the Gaussian(R) 03 system (copyright 2003, Gaussian, Inc.),
 the Gaussian(R) 98 system (copyright 1998, Gaussian, Inc.),
 the Gaussian(R) 94 system (copyright 1995, Gaussian, Inc.),
 the Gaussian 92(TM) system (copyright 1992, Gaussian, Inc.),
 the Gaussian 90(TM) system (copyright 1990, Gaussian, Inc.),
 the Gaussian 88(TM) system (copyright 1988, Gaussian, Inc.),
 the Gaussian 86(TM) system (copyright 1986, Carnegie Mellon
 University), and the Gaussian 82(TM) system (copyright 1983,
 Carnegie Mellon University). Gaussian is a federally registered
 trademark of Gaussian, Inc.
  
 This software contains proprietary and confidential information,
 including trade secrets, belonging to Gaussian, Inc.
  
 This software is provided under written license and may be
 used, copied, transmitted, or stored only in accord with that
 written license.
  
 The following legend is applicable only to US Government
 contracts under FAR:
  
                    RESTRICTED RIGHTS LEGEND
  
 Use, reproduction and disclosure by the US Government is
 subject to restrictions as set forth in subparagraphs (a)
 and (c) of the Commercial Computer Software - Restricted
 Rights clause in FAR 52.227-19.
  
 Gaussian, Inc.
 340 Quinnipiac St., Bldg. 40, Wallingford CT 06492
  
  
 ---------------------------------------------------------------
 Warning -- This program may not be used in any manner that
 competes with the business of Gaussian, Inc. or will provide
 assistance to any competitor of Gaussian, Inc.  The licensee
 of this program is prohibited from giving any competitor of
 Gaussian, Inc. access to this program.  By using this program,
 the user acknowledges that Gaussian, Inc. is engaged in the
 business of creating and licensing software in the field of
 computational chemistry and represents and warrants to the
 licensee that it is not a competitor of Gaussian, Inc. and that
 it will not use this program in any manner prohibited above.
 ---------------------------------------------------------------
  

 Cite this work as:
 Gaussian 16, Revision A.03,
 M. J. Frisch, G. W. Trucks, H. B. Schlegel, G. E. Scuseria, 
 M. A. Robb, J. R. Cheeseman, G. Scalmani, V. Barone, 
 G. A. Petersson, H. Nakatsuji, X. Li, M. Caricato, A. V. Marenich, 
 J. Bloino, B. G. Janesko, R. Gomperts, B. Mennucci, H. P. Hratchian, 
 J. V. Ortiz, A. F. Izmaylov, J. L. Sonnenberg, D. Williams-Young, 
 F. Ding, F. Lipparini, F. Egidi, J. Goings, B. Peng, A. Petrone, 
 T. Henderson, D. Ranasinghe, V. G. Zakrzewski, J. Gao, N. Rega, 
 G. Zheng, W. Liang, M. Hada, M. Ehara, K. Toyota, R. Fukuda, 
 J. Hasegawa, M. Ishida, T. Nakajima, Y. Honda, O. Kitao, H. Nakai, 
 T. Vreven, K. Throssell, J. A. Montgomery, Jr., J. E. Peralta, 
 F. Ogliaro, M. J. Bearpark, J. J. Heyd, E. N. Brothers, K. N. Kudin, 
 V. N. Staroverov, T. A. Keith, R. Kobayashi, J. Normand, 
 K. Raghavachari, A. P. Rendell, J. C. Burant, S. S. Iyengar, 
 J. Tomasi, M. Cossi, J. M. Millam, M. Klene, C. Adamo, R. Cammi, 
 J. W. Ochterski, R. L. Martin, K. Morokuma, O. Farkas, 
 J. B. Foresman, and D. J. Fox, Gaussian, Inc., Wallingford CT, 2016.
 
 ******************************************
 Gaussian 16:  EM64L-G16RevA.03 25-Dec-2016
                27-Sep-2019 
 ******************************************
 %nprocshared=20
 Will use up to   20 processors via shared memory.
 %mem=5GB
 ----------------------------------------------------------------------
 #p m062x/cc-pVTZ opt=(calcfc,maxcycles=900,Tight) freq IOP(7/33=1,2/16
 =3) scf=(maxcycle=900)
 ----------------------------------------------------------------------
 1/6=900,7=10,10=4,18=20,19=15,26=3,38=1/1,3;
 2/9=110,12=2,16=3,17=6,18=5,40=1/2;
 3/5=16,6=1,11=2,25=1,30=1,71=2,74=-55,140=1/1,2,3;
 4//1;
 5/5=2,7=900,38=5/2;
 8/6=4,10=90,11=11/1;
 11/6=1,8=1,9=11,15=111,16=1/1,2,10;
 10/6=1,13=1/2;
 6/7=2,8=2,9=2,10=2,28=1/1;
 7/10=1,18=20,25=1,33=1/1,2,3,16;
 1/6=900,7=10,10=4,18=20,19=15,26=3/3(2);
 2/9=110,16=3/2;
 99//99;
 2/9=110,16=3/2;
 3/5=16,6=1,11=2,25=1,30=1,71=1,74=-55/1,2,3;
 4/5=5,16=3,69=1/1;
 5/5=2,7=900,38=5/2;
 7/33=1/1,2,3,16;
 1/6=900,7=10,18=20,19=15,26=3/3(-5);
 2/9=110,16=3/2;
 6/7=2,8=2,9=2,10=2,19=2,28=1/1;
 99/9=1/99;
 Leave Link    1 at Fri Sep 27 12:56:20 2019, MaxMem=   671088640 cpu:               3.5 elap:               1.8
 (Enter /shared/centos7/gaussian/g16/l101.exe)
 ------------------------------
 Gaussian input prepared by ASE
 ------------------------------
 Symbolic Z-matrix:
 Charge =  0 Multiplicity = 1
 C                     1.37644  -1.17885   0.42759 
 C                     0.19031  -0.40711   0.89609 
 C                     0.4481    0.94618   1.51021 
 C                     2.08165  -0.58181  -0.74341 
 C                     1.88642   1.36343   1.70727 
 C                     3.34473  -1.25361  -1.09395 
 C                     2.31564   2.48278   0.79472 
 H                     2.26938   0.51156  -0.54731 
 H                     1.3921   -0.59856  -1.6209 
 H                     1.03966  -2.20223   0.15767 
 H                     2.0932   -1.31729   1.26289 
 H                    -0.35763  -1.01926   1.62938 
 H                    -0.5091   -0.2829    0.04249 
 H                    -0.05462   0.98601   2.49144 
 H                    -0.06698   1.70988   0.89166 
 H                     2.02757   1.69357   2.76963 
 H                     2.57267   0.51088   1.56771 
 H                     3.52073  -2.15241  -0.47341 
 H                     3.3494   -1.59732  -2.1707 
 H                     4.22107  -0.58587  -0.95383 
 H                     1.58067   3.28842   0.77613 
 H                     2.44458   2.10026  -0.25547 
 H                     3.29586   2.91944   1.14168 
 
 ITRead=  0  0  0  0  0  0  0  0  0  0  0  0  0  0  0  0  0  0  0  0
 ITRead=  0  0  0
 MicOpt= -1 -1 -1 -1 -1 -1 -1 -1 -1 -1 -1 -1 -1 -1 -1 -1 -1 -1 -1 -1
 MicOpt= -1 -1 -1
 NAtoms=     23 NQM=       23 NQMF=       0 NMMI=      0 NMMIF=      0
                NMic=       0 NMicF=      0.
                    Isotopes and Nuclear Properties:
 (Nuclear quadrupole moments (NQMom) in fm**2, nuclear magnetic moments (NMagM)
  in nuclear magnetons)

  Atom         1           2           3           4           5           6           7           8           9          10
 IAtWgt=          12          12          12          12          12          12          12           1           1           1
 AtmWgt=  12.0000000  12.0000000  12.0000000  12.0000000  12.0000000  12.0000000  12.0000000   1.0078250   1.0078250   1.0078250
 NucSpn=           0           0           0           0           0           0           0           1           1           1
 AtZEff=  -0.0000000  -0.0000000  -0.0000000  -0.0000000  -0.0000000  -0.0000000  -0.0000000  -0.0000000  -0.0000000  -0.0000000
 NQMom=    0.0000000   0.0000000   0.0000000   0.0000000   0.0000000   0.0000000   0.0000000   0.0000000   0.0000000   0.0000000
 NMagM=    0.0000000   0.0000000   0.0000000   0.0000000   0.0000000   0.0000000   0.0000000   2.7928460   2.7928460   2.7928460
 AtZNuc=   6.0000000   6.0000000   6.0000000   6.0000000   6.0000000   6.0000000   6.0000000   1.0000000   1.0000000   1.0000000

  Atom        11          12          13          14          15          16          17          18          19          20
 IAtWgt=           1           1           1           1           1           1           1           1           1           1
 AtmWgt=   1.0078250   1.0078250   1.0078250   1.0078250   1.0078250   1.0078250   1.0078250   1.0078250   1.0078250   1.0078250
 NucSpn=           1           1           1           1           1           1           1           1           1           1
 AtZEff=  -0.0000000  -0.0000000  -0.0000000  -0.0000000  -0.0000000  -0.0000000  -0.0000000  -0.0000000  -0.0000000  -0.0000000
 NQMom=    0.0000000   0.0000000   0.0000000   0.0000000   0.0000000   0.0000000   0.0000000   0.0000000   0.0000000   0.0000000
 NMagM=    2.7928460   2.7928460   2.7928460   2.7928460   2.7928460   2.7928460   2.7928460   2.7928460   2.7928460   2.7928460
 AtZNuc=   1.0000000   1.0000000   1.0000000   1.0000000   1.0000000   1.0000000   1.0000000   1.0000000   1.0000000   1.0000000

  Atom        21          22          23
 IAtWgt=           1           1           1
 AtmWgt=   1.0078250   1.0078250   1.0078250
 NucSpn=           1           1           1
 AtZEff=  -0.0000000  -0.0000000  -0.0000000
 NQMom=    0.0000000   0.0000000   0.0000000
 NMagM=    2.7928460   2.7928460   2.7928460
 AtZNuc=   1.0000000   1.0000000   1.0000000
 Leave Link  101 at Fri Sep 27 12:56:22 2019, MaxMem=   671088640 cpu:               3.4 elap:               1.7
 (Enter /shared/centos7/gaussian/g16/l103.exe)

 GradGradGradGradGradGradGradGradGradGradGradGradGradGradGradGradGradGrad
 Berny optimization.
 Initialization pass.
                           ----------------------------
                           !    Initial Parameters    !
                           ! (Angstroms and Degrees)  !
 --------------------------                            --------------------------
 ! Name  Definition              Value          Derivative Info.                !
 --------------------------------------------------------------------------------
 ! R1    R(1,2)                  1.4906         calculate D2E/DX2 analytically  !
 ! R2    R(1,4)                  1.4917         calculate D2E/DX2 analytically  !
 ! R3    R(1,10)                 1.1107         calculate D2E/DX2 analytically  !
 ! R4    R(1,11)                 1.1093         calculate D2E/DX2 analytically  !
 ! R5    R(2,3)                  1.5083         calculate D2E/DX2 analytically  !
 ! R6    R(2,12)                 1.1012         calculate D2E/DX2 analytically  !
 ! R7    R(2,13)                 1.1105         calculate D2E/DX2 analytically  !
 ! R8    R(3,5)                  1.5105         calculate D2E/DX2 analytically  !
 ! R9    R(3,14)                 1.1032         calculate D2E/DX2 analytically  !
 ! R10   R(3,15)                 1.1096         calculate D2E/DX2 analytically  !
 ! R11   R(4,6)                  1.473          calculate D2E/DX2 analytically  !
 ! R12   R(4,8)                  1.1266         calculate D2E/DX2 analytically  !
 ! R13   R(4,9)                  1.1161         calculate D2E/DX2 analytically  !
 ! R14   R(5,7)                  1.5066         calculate D2E/DX2 analytically  !
 ! R15   R(5,16)                 1.1214         calculate D2E/DX2 analytically  !
 ! R16   R(5,17)                 1.1033         calculate D2E/DX2 analytically  !
 ! R17   R(6,18)                 1.1063         calculate D2E/DX2 analytically  !
 ! R18   R(6,19)                 1.1303         calculate D2E/DX2 analytically  !
 ! R19   R(6,20)                 1.1106         calculate D2E/DX2 analytically  !
 ! R20   R(7,21)                 1.0907         calculate D2E/DX2 analytically  !
 ! R21   R(7,22)                 1.1251         calculate D2E/DX2 analytically  !
 ! R22   R(7,23)                 1.1278         calculate D2E/DX2 analytically  !
 ! A1    A(2,1,4)              114.5637         calculate D2E/DX2 analytically  !
 ! A2    A(2,1,10)             108.1884         calculate D2E/DX2 analytically  !
 ! A3    A(2,1,11)             110.0038         calculate D2E/DX2 analytically  !
 ! A4    A(4,1,10)             108.7456         calculate D2E/DX2 analytically  !
 ! A5    A(4,1,11)             109.6085         calculate D2E/DX2 analytically  !
 ! A6    A(10,1,11)            105.3031         calculate D2E/DX2 analytically  !
 ! A7    A(1,2,3)              117.1608         calculate D2E/DX2 analytically  !
 ! A8    A(1,2,12)             108.5073         calculate D2E/DX2 analytically  !
 ! A9    A(1,2,13)             108.5103         calculate D2E/DX2 analytically  !
 ! A10   A(3,2,12)             108.2206         calculate D2E/DX2 analytically  !
 ! A11   A(3,2,13)             108.6778         calculate D2E/DX2 analytically  !
 ! A12   A(12,2,13)            105.1078         calculate D2E/DX2 analytically  !
 ! A13   A(2,3,5)              117.6259         calculate D2E/DX2 analytically  !
 ! A14   A(2,3,14)             108.4603         calculate D2E/DX2 analytically  !
 ! A15   A(2,3,15)             108.1336         calculate D2E/DX2 analytically  !
 ! A16   A(5,3,14)             107.9318         calculate D2E/DX2 analytically  !
 ! A17   A(5,3,15)             108.9428         calculate D2E/DX2 analytically  !
 ! A18   A(14,3,15)            105.0366         calculate D2E/DX2 analytically  !
 ! A19   A(1,4,6)              114.1849         calculate D2E/DX2 analytically  !
 ! A20   A(1,4,8)              109.3048         calculate D2E/DX2 analytically  !
 ! A21   A(1,4,9)              108.6087         calculate D2E/DX2 analytically  !
 ! A22   A(6,4,8)              109.9491         calculate D2E/DX2 analytically  !
 ! A23   A(6,4,9)              109.6228         calculate D2E/DX2 analytically  !
 ! A24   A(8,4,9)              104.7361         calculate D2E/DX2 analytically  !
 ! A25   A(3,5,7)              113.4205         calculate D2E/DX2 analytically  !
 ! A26   A(3,5,16)             108.9513         calculate D2E/DX2 analytically  !
 ! A27   A(3,5,17)             111.2424         calculate D2E/DX2 analytically  !
 ! A28   A(7,5,16)             108.6157         calculate D2E/DX2 analytically  !
 ! A29   A(7,5,17)             108.68           calculate D2E/DX2 analytically  !
 ! A30   A(16,5,17)            105.6073         calculate D2E/DX2 analytically  !
 ! A31   A(4,6,18)             111.9306         calculate D2E/DX2 analytically  !
 ! A32   A(4,6,19)             111.651          calculate D2E/DX2 analytically  !
 ! A33   A(4,6,20)             111.8623         calculate D2E/DX2 analytically  !
 ! A34   A(18,6,19)            106.6568         calculate D2E/DX2 analytically  !
 ! A35   A(18,6,20)            106.9877         calculate D2E/DX2 analytically  !
 ! A36   A(19,6,20)            107.4433         calculate D2E/DX2 analytically  !
 ! A37   A(5,7,21)             111.5393         calculate D2E/DX2 analytically  !
 ! A38   A(5,7,22)             110.2074         calculate D2E/DX2 analytically  !
 ! A39   A(5,7,23)             110.4224         calculate D2E/DX2 analytically  !
 ! A40   A(21,7,22)            108.2071         calculate D2E/DX2 analytically  !
 ! A41   A(21,7,23)            107.7548         calculate D2E/DX2 analytically  !
 ! A42   A(22,7,23)            108.6137         calculate D2E/DX2 analytically  !
 ! D1    D(4,1,2,3)            -67.4706         calculate D2E/DX2 analytically  !
 ! D2    D(4,1,2,12)           169.6866         calculate D2E/DX2 analytically  !
 ! D3    D(4,1,2,13)            55.9887         calculate D2E/DX2 analytically  !
 ! D4    D(10,1,2,3)           171.056          calculate D2E/DX2 analytically  !
 ! D5    D(10,1,2,12)           48.2132         calculate D2E/DX2 analytically  !
 ! D6    D(10,1,2,13)          -65.4847         calculate D2E/DX2 analytically  !
 ! D7    D(11,1,2,3)            56.5209         calculate D2E/DX2 analytically  !
 ! D8    D(11,1,2,12)          -66.3219         calculate D2E/DX2 analytically  !
 ! D9    D(11,1,2,13)          179.9802         calculate D2E/DX2 analytically  !
 ! D10   D(2,1,4,6)            172.7146         calculate D2E/DX2 analytically  !
 ! D11   D(2,1,4,8)             49.0995         calculate D2E/DX2 analytically  !
 ! D12   D(2,1,4,9)            -64.6247         calculate D2E/DX2 analytically  !
 ! D13   D(10,1,4,6)           -66.1178         calculate D2E/DX2 analytically  !
 ! D14   D(10,1,4,8)           170.2671         calculate D2E/DX2 analytically  !
 ! D15   D(10,1,4,9)            56.5429         calculate D2E/DX2 analytically  !
 ! D16   D(11,1,4,6)            48.5129         calculate D2E/DX2 analytically  !
 ! D17   D(11,1,4,8)           -75.1022         calculate D2E/DX2 analytically  !
 ! D18   D(11,1,4,9)           171.1735         calculate D2E/DX2 analytically  !
 ! D19   D(1,2,3,5)             -4.9595         calculate D2E/DX2 analytically  !
 ! D20   D(1,2,3,14)          -127.7157         calculate D2E/DX2 analytically  !
 ! D21   D(1,2,3,15)           118.8853         calculate D2E/DX2 analytically  !
 ! D22   D(12,2,3,5)           118.0303         calculate D2E/DX2 analytically  !
 ! D23   D(12,2,3,14)           -4.7259         calculate D2E/DX2 analytically  !
 ! D24   D(12,2,3,15)         -118.1249         calculate D2E/DX2 analytically  !
 ! D25   D(13,2,3,5)          -128.3335         calculate D2E/DX2 analytically  !
 ! D26   D(13,2,3,14)          108.9104         calculate D2E/DX2 analytically  !
 ! D27   D(13,2,3,15)           -4.4886         calculate D2E/DX2 analytically  !
 ! D28   D(2,3,5,7)            110.4738         calculate D2E/DX2 analytically  !
 ! D29   D(2,3,5,16)          -128.4247         calculate D2E/DX2 analytically  !
 ! D30   D(2,3,5,17)           -12.4051         calculate D2E/DX2 analytically  !
 ! D31   D(14,3,5,7)          -126.5015         calculate D2E/DX2 analytically  !
 ! D32   D(14,3,5,16)           -5.3999         calculate D2E/DX2 analytically  !
 ! D33   D(14,3,5,17)          110.6196         calculate D2E/DX2 analytically  !
 ! D34   D(15,3,5,7)           -12.9633         calculate D2E/DX2 analytically  !
 ! D35   D(15,3,5,16)          108.1383         calculate D2E/DX2 analytically  !
 ! D36   D(15,3,5,17)         -135.8422         calculate D2E/DX2 analytically  !
 ! D37   D(1,4,6,18)             4.7394         calculate D2E/DX2 analytically  !
 ! D38   D(1,4,6,19)           124.2297         calculate D2E/DX2 analytically  !
 ! D39   D(1,4,6,20)          -115.3206         calculate D2E/DX2 analytically  !
 ! D40   D(8,4,6,18)           128.0066         calculate D2E/DX2 analytically  !
 ! D41   D(8,4,6,19)          -112.5031         calculate D2E/DX2 analytically  !
 ! D42   D(8,4,6,20)             7.9466         calculate D2E/DX2 analytically  !
 ! D43   D(9,4,6,18)          -117.367          calculate D2E/DX2 analytically  !
 ! D44   D(9,4,6,19)             2.1233         calculate D2E/DX2 analytically  !
 ! D45   D(9,4,6,20)           122.5729         calculate D2E/DX2 analytically  !
 ! D46   D(3,5,7,21)            46.6635         calculate D2E/DX2 analytically  !
 ! D47   D(3,5,7,22)           -73.5499         calculate D2E/DX2 analytically  !
 ! D48   D(3,5,7,23)           166.4514         calculate D2E/DX2 analytically  !
 ! D49   D(16,5,7,21)          -74.6265         calculate D2E/DX2 analytically  !
 ! D50   D(16,5,7,22)          165.1601         calculate D2E/DX2 analytically  !
 ! D51   D(16,5,7,23)           45.1613         calculate D2E/DX2 analytically  !
 ! D52   D(17,5,7,21)          170.9444         calculate D2E/DX2 analytically  !
 ! D53   D(17,5,7,22)           50.731          calculate D2E/DX2 analytically  !
 ! D54   D(17,5,7,23)          -69.2678         calculate D2E/DX2 analytically  !
 --------------------------------------------------------------------------------
 Trust Radius=3.00D-01 FncErr=1.00D-07 GrdErr=1.00D-06 EigMax=2.50D+02 EigMin=1.00D-04
 Number of steps in this run=    138 maximum allowed number of steps=    138.
 GradGradGradGradGradGradGradGradGradGradGradGradGradGradGradGradGradGrad

 Leave Link  103 at Fri Sep 27 12:56:23 2019, MaxMem=   671088640 cpu:               1.9 elap:               1.0
 (Enter /shared/centos7/gaussian/g16/l202.exe)
                          Input orientation:                          
 ---------------------------------------------------------------------
 Center     Atomic      Atomic             Coordinates (Angstroms)
 Number     Number       Type             X           Y           Z
 ---------------------------------------------------------------------
      1          6           0        1.376438   -1.178849    0.427594
      2          6           0        0.190313   -0.407112    0.896093
      3          6           0        0.448098    0.946178    1.510207
      4          6           0        2.081647   -0.581806   -0.743409
      5          6           0        1.886420    1.363429    1.707271
      6          6           0        3.344730   -1.253614   -1.093955
      7          6           0        2.315640    2.482783    0.794724
      8          1           0        2.269377    0.511555   -0.547310
      9          1           0        1.392097   -0.598556   -1.620903
     10          1           0        1.039662   -2.202226    0.157671
     11          1           0        2.093204   -1.317286    1.262894
     12          1           0       -0.357631   -1.019264    1.629382
     13          1           0       -0.509101   -0.282897    0.042485
     14          1           0       -0.054617    0.986013    2.491438
     15          1           0       -0.066978    1.709879    0.891659
     16          1           0        2.027567    1.693568    2.769630
     17          1           0        2.572671    0.510879    1.567705
     18          1           0        3.520733   -2.152408   -0.473415
     19          1           0        3.349397   -1.597323   -2.170699
     20          1           0        4.221069   -0.585865   -0.953832
     21          1           0        1.580673    3.288423    0.776133
     22          1           0        2.444584    2.100264   -0.255473
     23          1           0        3.295864    2.919441    1.141676
 ---------------------------------------------------------------------
                    Distance matrix (angstroms):
                    1          2          3          4          5
     1  C    0.000000
     2  C    1.490625   0.000000
     3  C    2.559220   1.508304   0.000000
     4  C    1.491652   2.509109   3.175216   0.000000
     5  C    2.891511   2.582558   1.510531   3.134945   0.000000
     6  C    2.488950   3.824552   4.473390   1.472952   4.101518
     7  C    3.797952   3.588702   2.522060   3.436904   1.506627
     8  H    2.145983   2.692558   2.781965   1.126559   2.440385
     9  H    2.129160   2.795747   3.616792   1.116134   3.894930
    10  H    1.110665   2.118749   3.477319   2.126837   3.978964
    11  H    1.109344   2.141017   2.809057   2.136894   2.725154
    12  H    2.115835   1.101220   2.127525   3.430974   3.273997
    13  H    2.122804   1.110520   2.140342   2.723775   3.349690
    14  H    3.315720   2.132115   1.103233   4.181616   2.127201
    15  H    3.262447   2.132573   1.109570   3.541448   2.144997
    16  H    3.762962   3.361324   2.153941   4.185892   1.121392
    17  H    2.363474   2.639962   2.169470   2.603135   1.103295
    18  H    2.521435   4.001663   4.793441   2.147244   4.448312
    19  H    3.289196   4.560880   5.332542   2.162319   5.093624
    20  H    3.217435   4.438600   4.759617   2.149749   4.041263
    21  H    4.485501   3.950250   2.703277   4.187917   2.160116
    22  H    3.515693   3.562973   2.904393   2.750146   2.169524
    23  H    4.581494   4.557489   3.484157   4.157715   2.174305
                    6          7          8          9         10
     6  C    0.000000
     7  C    4.311240   0.000000
     8  H    2.137996   2.385149   0.000000
     9  H    2.125923   4.022790   1.776111   0.000000
    10  H    2.789223   4.897271   3.061667   2.420597   0.000000
    11  H    2.669290   3.835256   2.579251   3.053589   1.764819
    12  H    4.602060   4.484124   3.739327   3.715224   2.348992
    13  H    4.133497   4.024178   2.949399   2.545791   2.468959
    14  H    5.424622   3.276779   3.854873   4.638447   4.099852
    15  H    4.936061   2.506721   2.994189   3.710895   4.131338
    16  H    5.034688   2.146183   3.529549   4.993439   4.793276
    17  H    3.285414   2.133535   2.136651   3.576566   3.420417
    18  H    1.106291   4.954334   2.944156   2.874417   2.560559
    19  H    1.130281   5.148752   2.872143   2.265134   3.334980
    20  H    1.110627   4.013067   2.275674   2.906583   3.737567
    21  H    5.219121   1.090678   3.152270   4.570553   5.551794
    22  H    3.572367   1.125104   1.624765   3.202461   4.544877
    23  H    4.734429   1.127778   3.115166   4.861324   5.682445
                   11         12         13         14         15
    11  H    0.000000
    12  H    2.495941   0.000000
    13  H    3.054725   1.755967   0.000000
    14  H    3.380479   2.203655   2.795364   0.000000
    15  H    3.737369   2.841995   2.210820   1.755969   0.000000
    16  H    3.367462   3.787980   4.216446   2.216645   2.813211
    17  H    1.914415   3.306329   3.528979   2.825186   2.976976
    18  H    2.397924   4.554940   4.472224   5.605637   5.445398
    19  H    3.666880   5.340115   4.638309   6.324275   5.655726
    20  H    3.158585   5.274971   4.843443   5.711583   5.202271
    21  H    4.659633   4.800128   4.202347   3.304170   2.284711
    22  H    3.756135   4.597449   3.806900   3.877251   2.788594
    23  H    4.405784   5.394375   5.093225   4.097038   3.582493
                   16         17         18         19         20
    16  H    0.000000
    17  H    1.772149   0.000000
    18  H    5.247706   3.486846   0.000000
    19  H    6.081451   4.361592   1.793948   0.000000
    20  H    4.885840   3.205966   1.781945   1.806550   0.000000
    21  H    2.591777   3.053751   5.909979   5.973501   4.997457
    22  H    3.080673   2.422091   4.392131   4.261329   3.295284
    23  H    2.400328   2.550623   5.327545   5.601415   4.187401
                   21         22         23
    21  H    0.000000
    22  H    1.795069   0.000000
    23  H    1.792108   1.829686   0.000000
 Stoichiometry    C7H16
 Framework group  C1[X(C7H16)]
 Deg. of freedom    63
 Full point group                 C1      NOp   1
 Largest Abelian subgroup         C1      NOp   1
 Largest concise Abelian subgroup C1      NOp   1
                         Standard orientation:                         
 ---------------------------------------------------------------------
 Center     Atomic      Atomic             Coordinates (Angstroms)
 Number     Number       Type             X           Y           Z
 ---------------------------------------------------------------------
      1          6           0       -0.967168    1.002830    0.310448
      2          6           0        0.267992    1.649384   -0.217104
      3          6           0        1.553538    0.867696   -0.110725
      4          6           0       -1.419267   -0.191751   -0.460012
      5          6           0        1.511708   -0.453000    0.621200
      6          6           0       -2.536746   -0.923059    0.161290
      7          6           0        1.690367   -1.644744   -0.283098
      8          1           0       -0.545957   -0.885788   -0.617424
      9          1           0       -1.710276    0.135740   -1.486569
     10          1           0       -1.781631    1.757962    0.308590
     11          1           0       -0.825890    0.727198    1.375676
     12          1           0        0.406585    2.612004    0.299463
     13          1           0        0.099874    1.914148   -1.282417
     14          1           0        2.309730    1.503983    0.379618
     15          1           0        1.940923    0.698820   -1.136668
     16          1           0        2.322945   -0.466225    1.395306
     17          1           0        0.567175   -0.571140    1.179019
     18          1           0       -2.914112   -0.410084    1.065907
     19          1           0       -3.413929   -1.022292   -0.544570
     20          1           0       -2.239825   -1.947922    0.469487
     21          1           0        2.524835   -1.503802   -0.971122
     22          1           0        0.758742   -1.814772   -0.890573
     23          1           0        1.898268   -2.571966    0.324289
 ---------------------------------------------------------------------
 Rotational constants (GHZ):           3.1593038           1.7584435           1.2718405
 Leave Link  202 at Fri Sep 27 12:56:24 2019, MaxMem=   671088640 cpu:               3.5 elap:               1.8
 (Enter /shared/centos7/gaussian/g16/l301.exe)
 Standard basis: CC-pVTZ (5D, 7F)
 Ernie: Thresh=  0.10000D-02 Tol=  0.10000D-05 Strict=F.
 Ernie:  21 primitive shells out of 310 were deleted.
 There are   485 symmetry adapted cartesian basis functions of A   symmetry.
 There are   434 symmetry adapted basis functions of A   symmetry.
   434 basis functions,   636 primitive gaussians,   485 cartesian basis functions
    29 alpha electrons       29 beta electrons
       nuclear repulsion energy       333.6232462764 Hartrees.
 IExCor= 4336 DFT=T Ex+Corr=M062X ExCW=0 ScaHFX=  0.540000
 ScaDFX=  1.000000  1.000000  1.000000  1.000000 ScalE2=  1.000000  1.000000
 IRadAn=      5 IRanWt=     -1 IRanGd=            0 ICorTp=0 IEmpDi=  4
 NAtoms=   23 NActive=   23 NUniq=   23 SFac= 1.00D+00 NAtFMM=   60 NAOKFM=F Big=F
 Integral buffers will be    131072 words long.
 Raffenetti 2 integral format.
 Two-electron integral symmetry is turned on.
 Leave Link  301 at Fri Sep 27 12:56:25 2019, MaxMem=   671088640 cpu:               1.8 elap:               0.9
 (Enter /shared/centos7/gaussian/g16/l302.exe)
 NPDir=0 NMtPBC=     1 NCelOv=     1 NCel=       1 NClECP=     1 NCelD=      1
         NCelK=      1 NCelE2=     1 NClLst=     1 CellRange=     0.0.
 One-electron integrals computed using PRISM.
 One-electron integral symmetry used in STVInt
 NBasis=   434 RedAO= T EigKep=  1.87D-04  NBF=   434
 NBsUse=   434 1.00D-06 EigRej= -1.00D+00 NBFU=   434
 Precomputing XC quadrature grid using
 IXCGrd= 4 IRadAn=           5 IRanWt=          -1 IRanGd=           0 AccXCQ= 0.00D+00.
 Generated NRdTot=       0 NPtTot=           0 NUsed=           0 NTot=          32
 NSgBfM=   485   485   485   485   485 MxSgAt=    23 MxSgA2=    23.
 Leave Link  302 at Fri Sep 27 12:57:39 2019, MaxMem=   671088640 cpu:             147.1 elap:              73.7
 (Enter /shared/centos7/gaussian/g16/l303.exe)
 DipDrv:  MaxL=1.
 Leave Link  303 at Fri Sep 27 12:57:43 2019, MaxMem=   671088640 cpu:               8.3 elap:               4.2
 (Enter /shared/centos7/gaussian/g16/l401.exe)
 ExpMin= 1.03D-01 ExpMax= 8.24D+03 ExpMxC= 2.81D+02 IAcc=3 IRadAn=         5 AccDes= 0.00D+00
 Harris functional with IExCor= 1009 and IRadAn=       5 diagonalized for initial guess.
 HarFok:  IExCor= 1009 AccDes= 0.00D+00 IRadAn=         5 IDoV= 1 UseB2=F ITyADJ=14
 ICtDFT=  3500011 ScaDFX=  1.000000  1.000000  1.000000  1.000000
 FoFCou: FMM=F IPFlag=           0 FMFlag=      100000 FMFlg1=           0
         NFxFlg=           0 DoJE=T BraDBF=F KetDBF=T FulRan=T
         wScrn=  0.000000 ICntrl=       500 IOpCl=  0 I1Cent=   200000004 NGrid=           0
         NMat0=    1 NMatS0=      1 NMatT0=    0 NMatD0=    1 NMtDS0=    0 NMtDT0=    0
 Petite list used in FoFCou.
 Harris En= -276.310728344677    
 JPrj=0 DoOrth=F DoCkMO=F.
 Leave Link  401 at Fri Sep 27 12:58:33 2019, MaxMem=   671088640 cpu:              97.9 elap:              50.1
 (Enter /shared/centos7/gaussian/g16/l502.exe)
 Integral symmetry usage will be decided dynamically.
 Closed shell SCF:
 Using DIIS extrapolation, IDIIS=  1040.
 NGot=   671088640 LenX=   670604095 LenY=   670368385
 Requested convergence on RMS density matrix=1.00D-08 within 900 cycles.
 Requested convergence on MAX density matrix=1.00D-06.
 Requested convergence on             energy=1.00D-06.
 No special actions if energy rises.
 Fock matrices will be formed incrementally for  20 cycles.
 Integral accuracy reduced to 1.0D-05 until final iterations.

 Cycle   1  Pass 0  IDiag  1:
 FoFJK:  IHMeth= 1 ICntrl=       0 DoSepK=F KAlg= 0 I1Cent=           0 FoldK=F
 IRaf= 950000000 NMat=       1 IRICut=       1 DoRegI=T DoRafI=F ISym2E= 0 IDoP0=0 IntGTp=1.
 FoFCou: FMM=F IPFlag=           0 FMFlag=      100000 FMFlg1=           0
         NFxFlg=           0 DoJE=F BraDBF=F KetDBF=F FulRan=T
         wScrn=  0.000000 ICntrl=         0 IOpCl=  0 I1Cent=           0 NGrid=           0
         NMat0=    1 NMatS0=      1 NMatT0=    0 NMatD0=    1 NMtDS0=    0 NMtDT0=    0
 Symmetry not used in FoFCou.
 E= -275.948233641999    
 DIIS: error= 2.44D-02 at cycle   1 NSaved=   1.
 NSaved= 1 IEnMin= 1 EnMin= -275.948233641999     IErMin= 1 ErrMin= 2.44D-02
 ErrMax= 2.44D-02  0.00D+00 EMaxC= 1.00D-01 BMatC= 3.72D-01 BMatP= 3.72D-01
 IDIUse=3 WtCom= 7.56D-01 WtEn= 2.44D-01
 Coeff-Com:  0.100D+01
 Coeff-En:   0.100D+01
 Coeff:      0.100D+01
 Gap=     0.381 Goal=   None    Shift=    0.000
 GapD=    0.381 DampG=1.000 DampE=0.500 DampFc=0.5000 IDamp=-1.
 Damping current iteration by 5.00D-01
 RMSDP=1.96D-03 MaxDP=7.84D-02              OVMax= 1.66D-01

 Cycle   2  Pass 0  IDiag  1:
 RMSU=  9.78D-04    CP:  9.90D-01
 E= -276.124471817042     Delta-E=       -0.176238175043 Rises=F Damp=T
 DIIS: error= 3.34D-03 at cycle   2 NSaved=   2.
 NSaved= 2 IEnMin= 2 EnMin= -276.124471817042     IErMin= 2 ErrMin= 3.34D-03
 ErrMax= 3.34D-03  0.00D+00 EMaxC= 1.00D-01 BMatC= 1.89D-02 BMatP= 3.72D-01
 IDIUse=3 WtCom= 9.67D-01 WtEn= 3.34D-02
 Coeff-Com: -0.519D-01 0.105D+01
 Coeff-En:   0.000D+00 0.100D+01
 Coeff:     -0.502D-01 0.105D+01
 Gap=     0.447 Goal=   None    Shift=    0.000
 RMSDP=5.69D-04 MaxDP=2.00D-02 DE=-1.76D-01 OVMax= 8.96D-02

 Cycle   3  Pass 0  IDiag  1:
 RMSU=  5.56D-04    CP:  9.98D-01  8.88D-01
 E= -276.301263477782     Delta-E=       -0.176791660740 Rises=F Damp=F
 DIIS: error= 2.99D-03 at cycle   3 NSaved=   3.
 NSaved= 3 IEnMin= 3 EnMin= -276.301263477782     IErMin= 3 ErrMin= 2.99D-03
 ErrMax= 2.99D-03  0.00D+00 EMaxC= 1.00D-01 BMatC= 3.25D-03 BMatP= 1.89D-02
 IDIUse=3 WtCom= 9.70D-01 WtEn= 2.99D-02
 Coeff-Com: -0.533D-01 0.266D+00 0.788D+00
 Coeff-En:   0.000D+00 0.000D+00 0.100D+01
 Coeff:     -0.517D-01 0.258D+00 0.794D+00
 Gap=     0.415 Goal=   None    Shift=    0.000
 RMSDP=1.07D-04 MaxDP=2.58D-03 DE=-1.77D-01 OVMax= 1.23D-02

 Cycle   4  Pass 0  IDiag  1:
 RMSU=  8.54D-05    CP:  9.97D-01  9.39D-01  9.27D-01
 E= -276.304025360291     Delta-E=       -0.002761882509 Rises=F Damp=F
 DIIS: error= 7.94D-04 at cycle   4 NSaved=   4.
 NSaved= 4 IEnMin= 4 EnMin= -276.304025360291     IErMin= 4 ErrMin= 7.94D-04
 ErrMax= 7.94D-04  0.00D+00 EMaxC= 1.00D-01 BMatC= 3.99D-04 BMatP= 3.25D-03
 IDIUse=3 WtCom= 9.92D-01 WtEn= 7.94D-03
 Coeff-Com: -0.154D-01 0.439D-01 0.297D+00 0.675D+00
 Coeff-En:   0.000D+00 0.000D+00 0.000D+00 0.100D+01
 Coeff:     -0.153D-01 0.435D-01 0.295D+00 0.677D+00
 Gap=     0.416 Goal=   None    Shift=    0.000
 RMSDP=3.66D-05 MaxDP=1.52D-03 DE=-2.76D-03 OVMax= 3.39D-03

 Cycle   5  Pass 0  IDiag  1:
 RMSU=  1.96D-05    CP:  9.97D-01  9.31D-01  9.65D-01  7.49D-01
 E= -276.304393387924     Delta-E=       -0.000368027633 Rises=F Damp=F
 DIIS: error= 1.63D-04 at cycle   5 NSaved=   5.
 NSaved= 5 IEnMin= 5 EnMin= -276.304393387924     IErMin= 5 ErrMin= 1.63D-04
 ErrMax= 1.63D-04  0.00D+00 EMaxC= 1.00D-01 BMatC= 1.84D-05 BMatP= 3.99D-04
 IDIUse=3 WtCom= 9.98D-01 WtEn= 1.63D-03
 Coeff-Com: -0.177D-02 0.120D-02 0.545D-01 0.229D+00 0.717D+00
 Coeff-En:   0.000D+00 0.000D+00 0.000D+00 0.000D+00 0.100D+01
 Coeff:     -0.177D-02 0.120D-02 0.544D-01 0.229D+00 0.717D+00
 Gap=     0.415 Goal=   None    Shift=    0.000
 RMSDP=7.25D-06 MaxDP=3.67D-04 DE=-3.68D-04 OVMax= 7.85D-04

 Initial convergence to 1.0D-05 achieved.  Increase integral accuracy.
 Cycle   6  Pass 1  IDiag  1:
 E= -276.304440524413     Delta-E=       -0.000047136489 Rises=F Damp=F
 DIIS: error= 3.24D-05 at cycle   1 NSaved=   1.
 NSaved= 1 IEnMin= 1 EnMin= -276.304440524413     IErMin= 1 ErrMin= 3.24D-05
 ErrMax= 3.24D-05  0.00D+00 EMaxC= 1.00D-01 BMatC= 1.41D-06 BMatP= 1.41D-06
 IDIUse=1 WtCom= 1.00D+00 WtEn= 0.00D+00
 Coeff-Com:  0.100D+01
 Coeff:      0.100D+01
 Gap=     0.416 Goal=   None    Shift=    0.000
 RMSDP=7.25D-06 MaxDP=3.67D-04 DE=-4.71D-05 OVMax= 2.65D-04

 Cycle   7  Pass 1  IDiag  1:
 RMSU=  7.78D-06    CP:  1.00D+00
 E= -276.304441210786     Delta-E=       -0.000000686373 Rises=F Damp=F
 DIIS: error= 2.67D-05 at cycle   2 NSaved=   2.
 NSaved= 2 IEnMin= 2 EnMin= -276.304441210786     IErMin= 2 ErrMin= 2.67D-05
 ErrMax= 2.67D-05  0.00D+00 EMaxC= 1.00D-01 BMatC= 4.84D-07 BMatP= 1.41D-06
 IDIUse=1 WtCom= 1.00D+00 WtEn= 0.00D+00
 Coeff-Com:  0.339D+00 0.661D+00
 Coeff:      0.339D+00 0.661D+00
 Gap=     0.416 Goal=   None    Shift=    0.000
 RMSDP=1.42D-06 MaxDP=5.02D-05 DE=-6.86D-07 OVMax= 1.33D-04

 Cycle   8  Pass 1  IDiag  1:
 RMSU=  1.40D-06    CP:  1.00D+00  9.71D-01
 E= -276.304441652918     Delta-E=       -0.000000442132 Rises=F Damp=F
 DIIS: error= 9.06D-06 at cycle   3 NSaved=   3.
 NSaved= 3 IEnMin= 3 EnMin= -276.304441652918     IErMin= 3 ErrMin= 9.06D-06
 ErrMax= 9.06D-06  0.00D+00 EMaxC= 1.00D-01 BMatC= 4.54D-08 BMatP= 4.84D-07
 IDIUse=1 WtCom= 1.00D+00 WtEn= 0.00D+00
 Coeff-Com: -0.283D-03 0.221D+00 0.779D+00
 Coeff:     -0.283D-03 0.221D+00 0.779D+00
 Gap=     0.416 Goal=   None    Shift=    0.000
 RMSDP=3.99D-07 MaxDP=1.34D-05 DE=-4.42D-07 OVMax= 3.93D-05

 Cycle   9  Pass 1  IDiag  1:
 RMSU=  3.27D-07    CP:  1.00D+00  9.95D-01  9.04D-01
 E= -276.304441695855     Delta-E=       -0.000000042938 Rises=F Damp=F
 DIIS: error= 2.46D-06 at cycle   4 NSaved=   4.
 NSaved= 4 IEnMin= 4 EnMin= -276.304441695855     IErMin= 4 ErrMin= 2.46D-06
 ErrMax= 2.46D-06  0.00D+00 EMaxC= 1.00D-01 BMatC= 2.71D-09 BMatP= 4.54D-08
 IDIUse=1 WtCom= 1.00D+00 WtEn= 0.00D+00
 Coeff-Com: -0.155D-01 0.557D-01 0.295D+00 0.664D+00
 Coeff:     -0.155D-01 0.557D-01 0.295D+00 0.664D+00
 Gap=     0.416 Goal=   None    Shift=    0.000
 RMSDP=9.64D-08 MaxDP=4.42D-06 DE=-4.29D-08 OVMax= 1.02D-05

 Cycle  10  Pass 1  IDiag  1:
 RMSU=  8.58D-08    CP:  1.00D+00  9.98D-01  9.01D-01  8.94D-01
 E= -276.304441698545     Delta-E=       -0.000000002690 Rises=F Damp=F
 DIIS: error= 3.74D-07 at cycle   5 NSaved=   5.
 NSaved= 5 IEnMin= 5 EnMin= -276.304441698545     IErMin= 5 ErrMin= 3.74D-07
 ErrMax= 3.74D-07  0.00D+00 EMaxC= 1.00D-01 BMatC= 6.25D-11 BMatP= 2.71D-09
 IDIUse=1 WtCom= 1.00D+00 WtEn= 0.00D+00
 Coeff-Com: -0.103D-02-0.124D-01-0.378D-01 0.450D-01 0.101D+01
 Coeff:     -0.103D-02-0.124D-01-0.378D-01 0.450D-01 0.101D+01
 Gap=     0.416 Goal=   None    Shift=    0.000
 RMSDP=3.53D-08 MaxDP=8.75D-07 DE=-2.69D-09 OVMax= 2.49D-06

 Cycle  11  Pass 1  IDiag  1:
 RMSU=  1.79D-08    CP:  1.00D+00  9.99D-01  9.08D-01  9.75D-01  1.12D+00
 E= -276.304441698616     Delta-E=       -0.000000000071 Rises=F Damp=F
 DIIS: error= 1.51D-07 at cycle   6 NSaved=   6.
 NSaved= 6 IEnMin= 6 EnMin= -276.304441698616     IErMin= 6 ErrMin= 1.51D-07
 ErrMax= 1.51D-07  0.00D+00 EMaxC= 1.00D-01 BMatC= 1.64D-11 BMatP= 6.25D-11
 IDIUse=1 WtCom= 1.00D+00 WtEn= 0.00D+00
 Coeff-Com:  0.419D-03-0.873D-02-0.337D-01-0.185D-01 0.448D+00 0.613D+00
 Coeff:      0.419D-03-0.873D-02-0.337D-01-0.185D-01 0.448D+00 0.613D+00
 Gap=     0.416 Goal=   None    Shift=    0.000
 RMSDP=6.55D-09 MaxDP=2.71D-07 DE=-7.09D-11 OVMax= 6.91D-07

 SCF Done:  E(RM062X) =  -276.304441699     A.U. after   11 cycles
            NFock= 11  Conv=0.65D-08     -V/T= 2.0064
 KE= 2.745403313048D+02 PE=-1.305690626845D+03 EE= 4.212226075655D+02
 Leave Link  502 at Fri Sep 27 13:17:29 2019, MaxMem=   671088640 cpu:            2264.7 elap:            1135.3
 (Enter /shared/centos7/gaussian/g16/l801.exe)
 DoSCS=F DFT=T ScalE2(SS,OS)=  1.000000  1.000000
 Range of M.O.s used for correlation:     1   434
 NBasis=   434 NAE=    29 NBE=    29 NFC=     0 NFV=     0
 NROrb=    434 NOA=    29 NOB=    29 NVA=   405 NVB=   405

 **** Warning!!: The largest alpha MO coefficient is  0.10539791D+02

 Leave Link  801 at Fri Sep 27 13:17:29 2019, MaxMem=   671088640 cpu:               1.8 elap:               0.9
 (Enter /shared/centos7/gaussian/g16/l1101.exe)
 Using compressed storage, NAtomX=    23.
 Will process     24 centers per pass.
 Leave Link 1101 at Fri Sep 27 13:18:20 2019, MaxMem=   671088640 cpu:             101.6 elap:              50.9
 (Enter /shared/centos7/gaussian/g16/l1102.exe)
 Symmetrizing basis deriv contribution to polar:
 IMax=3 JMax=2 DiffMx= 0.00D+00
 Leave Link 1102 at Fri Sep 27 13:18:23 2019, MaxMem=   671088640 cpu:               5.7 elap:               2.9
 (Enter /shared/centos7/gaussian/g16/l1110.exe)
 Forming Gx(P) for the SCF density, NAtomX=    23.
 Integral derivatives from FoFJK, PRISM(SPDF).
 Do as many integral derivatives as possible in FoFJK.
 G2DrvN: MDV=     671086848.
 G2DrvN: will do    24 centers at a time, making    1 passes.
 Calling FoFCou, ICntrl=  3107 FMM=F I1Cent=   0 AccDes= 0.00D+00.
 FoFJK:  IHMeth= 1 ICntrl=    3107 DoSepK=F KAlg= 0 I1Cent=           0 FoldK=F
 IRaf=         0 NMat=       1 IRICut=       1 DoRegI=T DoRafI=F ISym2E= 0 IDoP0=0 IntGTp=1.
 FoFCou: FMM=F IPFlag=           0 FMFlag=      100000 FMFlg1=           0
         NFxFlg=           0 DoJE=F BraDBF=F KetDBF=F FulRan=T
         wScrn=  0.000000 ICntrl=      3107 IOpCl=  0 I1Cent=           0 NGrid=           0
         NMat0=    1 NMatS0=      1 NMatT0=    0 NMatD0=    1 NMtDS0=    0 NMtDT0=    0
 Symmetry not used in FoFCou.
 End of G2Drv F.D. properties file   721 does not exist.
 End of G2Drv F.D. properties file   722 does not exist.
 End of G2Drv F.D. properties file   788 does not exist.
 Leave Link 1110 at Fri Sep 27 14:06:59 2019, MaxMem=   671088640 cpu:            5816.2 elap:            2916.0
 (Enter /shared/centos7/gaussian/g16/l1002.exe)
 Minotr:  Closed shell wavefunction.
          IDoAtm=11111111111111111111111
          Direct CPHF calculation.
          Differentiating once with respect to nuclear coordinates.
          Requested convergence is 1.0D-08 RMS, and 1.0D-07 maximum.
          Secondary convergence is 1.0D-12 RMS, and 1.0D-12 maximum.
          NewPWx=T KeepS1=F KeepF1=F KeepIn=T MapXYZ=F SortEE=F KeepMc=T.
         6911 words used for storage of precomputed grid.
 Two-electron integrals replicated using symmetry.
          MDV=     671088640 using IRadAn=       1.
          Solving linear equations simultaneously, MaxMat=     380.
 FoF2E skips out because all densities are zero.
 CalDSu exits because no D1Ps are significant.
 FoFJK:  IHMeth= 1 ICntrl=       0 DoSepK=F KAlg= 0 I1Cent=           0 FoldK=F
 IRaf= 940000000 NMat=      69 IRICut=     172 DoRegI=T DoRafI=T ISym2E= 2 IDoP0=3 IntGTp=3.
 FoFCou: FMM=F IPFlag=           0 FMFlag=      100000 FMFlg1=           0
         NFxFlg=           0 DoJE=F BraDBF=F KetDBF=F FulRan=T
         wScrn=  0.000000 ICntrl=         0 IOpCl=  0 I1Cent=           0 NGrid=           0
         NMat0=   69 NMatS0=     69 NMatT0=    0 NMatD0=   69 NMtDS0=    0 NMtDT0=    0
 Integrals replicated using symmetry in FoFCou.
 Raff kept on since  90.63% of shell-pairs survive, threshold=   0.20 IRatSp=91.
          There are    72 degrees of freedom in the 1st order CPHF.  IDoFFX=6 NUNeed=     0.
     66 vectors produced by pass  0 Test12= 1.63D-14 1.39D-09 XBig12= 5.62D-02 4.64D-02.
 AX will form    66 AO Fock derivatives at one time.
     66 vectors produced by pass  1 Test12= 1.63D-14 1.39D-09 XBig12= 3.30D-03 6.42D-03.
     66 vectors produced by pass  2 Test12= 1.63D-14 1.39D-09 XBig12= 4.89D-05 1.11D-03.
     66 vectors produced by pass  3 Test12= 1.63D-14 1.39D-09 XBig12= 4.05D-07 8.35D-05.
     66 vectors produced by pass  4 Test12= 1.63D-14 1.39D-09 XBig12= 2.13D-09 5.80D-06.
     66 vectors produced by pass  5 Test12= 1.63D-14 1.39D-09 XBig12= 1.13D-11 3.28D-07.
     23 vectors produced by pass  6 Test12= 1.63D-14 1.39D-09 XBig12= 4.07D-14 1.80D-08.
 InvSVY:  IOpt=1 It=  1 EMax= 3.89D-16
 Solved reduced A of dimension   419 with    72 vectors.
 End of Minotr F.D. properties file   721 does not exist.
 End of Minotr F.D. properties file   722 does not exist.
 End of Minotr F.D. properties file   788 does not exist.
 Leave Link 1002 at Fri Sep 27 15:31:02 2019, MaxMem=   671088640 cpu:           10063.6 elap:            5042.5
 (Enter /shared/centos7/gaussian/g16/l601.exe)
 Copying SCF densities to generalized density rwf, IOpCl= 0 IROHF=0.

 **********************************************************************

            Population analysis using the SCF density.

 **********************************************************************

 Orbital symmetries:
       Occupied  (A) (A) (A) (A) (A) (A) (A) (A) (A) (A) (A) (A)
                 (A) (A) (A) (A) (A) (A) (A) (A) (A) (A) (A) (A)
                 (A) (A) (A) (A) (A)
       Virtual   (A) (A) (A) (A) (A) (A) (A) (A) (A) (A) (A) (A)
                 (A) (A) (A) (A) (A) (A) (A) (A) (A) (A) (A) (A)
                 (A) (A) (A) (A) (A) (A) (A) (A) (A) (A) (A) (A)
                 (A) (A) (A) (A) (A) (A) (A) (A) (A) (A) (A) (A)
                 (A) (A) (A) (A) (A) (A) (A) (A) (A) (A) (A) (A)
                 (A) (A) (A) (A) (A) (A) (A) (A) (A) (A) (A) (A)
                 (A) (A) (A) (A) (A) (A) (A) (A) (A) (A) (A) (A)
                 (A) (A) (A) (A) (A) (A) (A) (A) (A) (A) (A) (A)
                 (A) (A) (A) (A) (A) (A) (A) (A) (A) (A) (A) (A)
                 (A) (A) (A) (A) (A) (A) (A) (A) (A) (A) (A) (A)
                 (A) (A) (A) (A) (A) (A) (A) (A) (A) (A) (A) (A)
                 (A) (A) (A) (A) (A) (A) (A) (A) (A) (A) (A) (A)
                 (A) (A) (A) (A) (A) (A) (A) (A) (A) (A) (A) (A)
                 (A) (A) (A) (A) (A) (A) (A) (A) (A) (A) (A) (A)
                 (A) (A) (A) (A) (A) (A) (A) (A) (A) (A) (A) (A)
                 (A) (A) (A) (A) (A) (A) (A) (A) (A) (A) (A) (A)
                 (A) (A) (A) (A) (A) (A) (A) (A) (A) (A) (A) (A)
                 (A) (A) (A) (A) (A) (A) (A) (A) (A) (A) (A) (A)
                 (A) (A) (A) (A) (A) (A) (A) (A) (A) (A) (A) (A)
                 (A) (A) (A) (A) (A) (A) (A) (A) (A) (A) (A) (A)
                 (A) (A) (A) (A) (A) (A) (A) (A) (A) (A) (A) (A)
                 (A) (A) (A) (A) (A) (A) (A) (A) (A) (A) (A) (A)
                 (A) (A) (A) (A) (A) (A) (A) (A) (A) (A) (A) (A)
                 (A) (A) (A) (A) (A) (A) (A) (A) (A) (A) (A) (A)
                 (A) (A) (A) (A) (A) (A) (A) (A) (A) (A) (A) (A)
                 (A) (A) (A) (A) (A) (A) (A) (A) (A) (A) (A) (A)
                 (A) (A) (A) (A) (A) (A) (A) (A) (A) (A) (A) (A)
                 (A) (A) (A) (A) (A) (A) (A) (A) (A) (A) (A) (A)
                 (A) (A) (A) (A) (A) (A) (A) (A) (A) (A) (A) (A)
                 (A) (A) (A) (A) (A) (A) (A) (A) (A) (A) (A) (A)
                 (A) (A) (A) (A) (A) (A) (A) (A) (A) (A) (A) (A)
                 (A) (A) (A) (A) (A) (A) (A) (A) (A) (A) (A) (A)
                 (A) (A) (A) (A) (A) (A) (A) (A) (A) (A) (A) (A)
                 (A) (A) (A) (A) (A) (A) (A) (A) (A)
 The electronic state is 1-A.
 Alpha  occ. eigenvalues --  -10.52657 -10.52548 -10.52355 -10.52329 -10.52284
 Alpha  occ. eigenvalues --  -10.52218 -10.52211  -0.92445  -0.87766  -0.83271
 Alpha  occ. eigenvalues --   -0.76470  -0.70231  -0.66729  -0.62171  -0.56208
 Alpha  occ. eigenvalues --   -0.53229  -0.50223  -0.49208  -0.48261  -0.47021
 Alpha  occ. eigenvalues --   -0.45717  -0.42375  -0.41876  -0.40389  -0.39201
 Alpha  occ. eigenvalues --   -0.37468  -0.36513  -0.35854  -0.35131
 Alpha virt. eigenvalues --    0.06432   0.07434   0.08753   0.08925   0.11374
 Alpha virt. eigenvalues --    0.12063   0.12611   0.13232   0.14259   0.14551
 Alpha virt. eigenvalues --    0.15324   0.17483   0.17892   0.19108   0.20058
 Alpha virt. eigenvalues --    0.21916   0.23208   0.23629   0.24135   0.25372
 Alpha virt. eigenvalues --    0.28012   0.29066   0.29738   0.31073   0.32036
 Alpha virt. eigenvalues --    0.33315   0.34842   0.35419   0.35753   0.37300
 Alpha virt. eigenvalues --    0.38300   0.39396   0.40787   0.41798   0.43689
 Alpha virt. eigenvalues --    0.44609   0.45743   0.46607   0.46667   0.48439
 Alpha virt. eigenvalues --    0.48977   0.49489   0.49846   0.50564   0.51605
 Alpha virt. eigenvalues --    0.51794   0.52599   0.52758   0.53888   0.54678
 Alpha virt. eigenvalues --    0.55496   0.55753   0.56071   0.56941   0.57184
 Alpha virt. eigenvalues --    0.58009   0.59524   0.61415   0.61432   0.64018
 Alpha virt. eigenvalues --    0.65312   0.68701   0.70455   0.73626   0.76881
 Alpha virt. eigenvalues --    0.79851   0.80598   0.82632   0.85049   0.86159
 Alpha virt. eigenvalues --    0.87542   0.88792   0.89823   0.91388   0.92340
 Alpha virt. eigenvalues --    0.93779   0.96609   0.97383   0.98731   1.00185
 Alpha virt. eigenvalues --    1.02069   1.02586   1.04247   1.05102   1.05500
 Alpha virt. eigenvalues --    1.06181   1.07012   1.08095   1.08737   1.09782
 Alpha virt. eigenvalues --    1.11044   1.11236   1.11721   1.12733   1.14580
 Alpha virt. eigenvalues --    1.15028   1.15380   1.18467   1.18848   1.20264
 Alpha virt. eigenvalues --    1.20474   1.21805   1.22866   1.24252   1.24362
 Alpha virt. eigenvalues --    1.25481   1.26971   1.27481   1.28155   1.28824
 Alpha virt. eigenvalues --    1.31443   1.31901   1.32275   1.33243   1.33359
 Alpha virt. eigenvalues --    1.34501   1.36197   1.37089   1.39000   1.39358
 Alpha virt. eigenvalues --    1.40773   1.42111   1.42669   1.43591   1.45315
 Alpha virt. eigenvalues --    1.46490   1.48636   1.49233   1.50157   1.50863
 Alpha virt. eigenvalues --    1.52032   1.52580   1.54199   1.55053   1.56731
 Alpha virt. eigenvalues --    1.57310   1.60537   1.60654   1.62502   1.65595
 Alpha virt. eigenvalues --    1.66603   1.71406   1.71579   1.75840   1.78397
 Alpha virt. eigenvalues --    1.78682   1.81797   1.84548   1.90837   2.22157
 Alpha virt. eigenvalues --    2.24043   2.28052   2.29109   2.31588   2.34322
 Alpha virt. eigenvalues --    2.35977   2.37921   2.41358   2.41825   2.42790
 Alpha virt. eigenvalues --    2.45538   2.48188   2.49614   2.51027   2.52441
 Alpha virt. eigenvalues --    2.54124   2.57743   2.59168   2.60116   2.61946
 Alpha virt. eigenvalues --    2.62930   2.64895   2.65327   2.67059   2.68051
 Alpha virt. eigenvalues --    2.68326   2.70403   2.71251   2.73241   2.74298
 Alpha virt. eigenvalues --    2.74889   2.75488   2.77205   2.79711   2.80447
 Alpha virt. eigenvalues --    2.82296   2.83168   2.83585   2.84408   2.86038
 Alpha virt. eigenvalues --    2.87411   2.88447   2.90766   2.91426   2.92784
 Alpha virt. eigenvalues --    2.94229   2.95726   2.97418   2.97741   2.99186
 Alpha virt. eigenvalues --    3.00313   3.02091   3.02753   3.04068   3.05096
 Alpha virt. eigenvalues --    3.05461   3.05793   3.06104   3.08388   3.08973
 Alpha virt. eigenvalues --    3.10772   3.11392   3.12328   3.12547   3.13945
 Alpha virt. eigenvalues --    3.14447   3.14894   3.16054   3.16926   3.18051
 Alpha virt. eigenvalues --    3.19670   3.21169   3.22365   3.23192   3.24392
 Alpha virt. eigenvalues --    3.25881   3.26594   3.29058   3.30121   3.30849
 Alpha virt. eigenvalues --    3.32913   3.33425   3.35943   3.36435   3.37209
 Alpha virt. eigenvalues --    3.37690   3.39659   3.40285   3.41604   3.43441
 Alpha virt. eigenvalues --    3.43967   3.44570   3.45245   3.46078   3.48600
 Alpha virt. eigenvalues --    3.49485   3.49743   3.52073   3.53120   3.54415
 Alpha virt. eigenvalues --    3.55625   3.55812   3.57398   3.60338   3.61879
 Alpha virt. eigenvalues --    3.63863   3.64031   3.64672   3.65637   3.66780
 Alpha virt. eigenvalues --    3.69534   3.71038   3.72106   3.73391   3.74086
 Alpha virt. eigenvalues --    3.74332   3.75835   3.76483   3.78582   3.80663
 Alpha virt. eigenvalues --    3.82020   3.84113   3.85283   3.85957   3.87505
 Alpha virt. eigenvalues --    3.89100   3.89372   3.89656   3.90682   3.91244
 Alpha virt. eigenvalues --    3.92270   3.94024   3.95184   3.95912   3.96496
 Alpha virt. eigenvalues --    3.97154   3.98323   3.99296   4.01337   4.01886
 Alpha virt. eigenvalues --    4.03300   4.04918   4.05589   4.06869   4.07320
 Alpha virt. eigenvalues --    4.08426   4.09377   4.09788   4.10802   4.14001
 Alpha virt. eigenvalues --    4.14686   4.15616   4.17215   4.18290   4.19414
 Alpha virt. eigenvalues --    4.19539   4.20312   4.22381   4.23354   4.25062
 Alpha virt. eigenvalues --    4.26624   4.28060   4.28169   4.29884   4.30929
 Alpha virt. eigenvalues --    4.31609   4.33617   4.34449   4.38325   4.39007
 Alpha virt. eigenvalues --    4.41192   4.42599   4.44275   4.46920   4.47472
 Alpha virt. eigenvalues --    4.49779   4.51483   4.54089   4.56615   4.58072
 Alpha virt. eigenvalues --    4.60648   4.61530   4.62302   4.65382   4.66386
 Alpha virt. eigenvalues --    4.70521   4.70934   4.72009   4.74270   4.76338
 Alpha virt. eigenvalues --    4.76880   4.77838   4.79456   4.80835   4.82995
 Alpha virt. eigenvalues --    4.83656   4.86492   4.87618   4.89034   4.93847
 Alpha virt. eigenvalues --    4.95165   4.95915   4.98136   4.98696   5.00096
 Alpha virt. eigenvalues --    5.02849   5.04410   5.06138   5.06466   5.07768
 Alpha virt. eigenvalues --    5.09660   5.12993   5.13803   5.16326   5.17375
 Alpha virt. eigenvalues --    5.19987   5.21645   5.24115   5.25086   5.26464
 Alpha virt. eigenvalues --    5.28892   5.29222   5.31597   5.33287   5.35073
 Alpha virt. eigenvalues --    5.36633   5.38537   5.41213   5.43869   5.45624
 Alpha virt. eigenvalues --    5.47921   5.51771   5.53311   5.58032   5.59066
 Alpha virt. eigenvalues --    5.61792   5.64562   5.70270   5.77581   5.80248
 Alpha virt. eigenvalues --    5.81099   5.83256   5.87198   5.87673   5.95049
 Alpha virt. eigenvalues --    6.04423   6.05204   6.09354  11.38373  12.00610
 Alpha virt. eigenvalues --   12.51577  12.97113  13.28582  13.56586  14.11726
          Condensed to atoms (all electrons):
               1          2          3          4          5          6
     1  C    5.085648   0.322762  -0.041091   0.305164  -0.018446  -0.045364
     2  C    0.322762   5.055619   0.296823  -0.061833  -0.045673   0.008410
     3  C   -0.041091   0.296823   5.118765  -0.001091   0.289289  -0.000243
     4  C    0.305164  -0.061833  -0.001091   5.158786   0.001951   0.286623
     5  C   -0.018446  -0.045673   0.289289   0.001951   5.109768  -0.000931
     6  C   -0.045364   0.008410  -0.000243   0.286623  -0.000931   4.963654
     7  C    0.002174   0.005569  -0.054332  -0.015679   0.299038   0.001294
     8  H   -0.055797  -0.000748   0.002010   0.418528   0.004413  -0.052031
     9  H   -0.043407  -0.000452  -0.001298   0.408160   0.000183  -0.033080
    10  H    0.405004  -0.034914   0.006453  -0.040817   0.001684  -0.004214
    11  H    0.411529  -0.035236  -0.003931  -0.050130  -0.010517  -0.004818
    12  H   -0.045392   0.419458  -0.046282   0.009374   0.005208  -0.000516
    13  H   -0.048540   0.423563  -0.054473  -0.006062   0.006849   0.000216
    14  H    0.005711  -0.042848   0.416356  -0.000384  -0.043988   0.000028
    15  H    0.005803  -0.049524   0.417840   0.000102  -0.056575   0.000015
    16  H   -0.000084   0.006321  -0.042308   0.000316   0.410811  -0.000049
    17  H   -0.000137  -0.009041  -0.053555  -0.006839   0.414214   0.000339
    18  H   -0.004524   0.001084  -0.000002  -0.063933  -0.000003   0.412009
    19  H    0.005720  -0.000539  -0.000009  -0.044107   0.000047   0.405445
    20  H    0.003519  -0.000517   0.000062  -0.044536  -0.000225   0.405810
    21  H   -0.000045   0.000604  -0.010407   0.000580  -0.040494  -0.000040
    22  H    0.001264  -0.000044   0.003682  -0.015462  -0.055090   0.001273
    23  H   -0.000009  -0.000619   0.009359   0.000884  -0.041785  -0.000079
               7          8          9         10         11         12
     1  C    0.002174  -0.055797  -0.043407   0.405004   0.411529  -0.045392
     2  C    0.005569  -0.000748  -0.000452  -0.034914  -0.035236   0.419458
     3  C   -0.054332   0.002010  -0.001298   0.006453  -0.003931  -0.046282
     4  C   -0.015679   0.418528   0.408160  -0.040817  -0.050130   0.009374
     5  C    0.299038   0.004413   0.000183   0.001684  -0.010517   0.005208
     6  C    0.001294  -0.052031  -0.033080  -0.004214  -0.004818  -0.000516
     7  C    4.984253  -0.020439   0.000811  -0.000256   0.001203  -0.000511
     8  H   -0.020439   0.646728  -0.043637   0.009214  -0.005086  -0.000261
     9  H    0.000811  -0.043637   0.594627  -0.010930   0.008457  -0.000018
    10  H   -0.000256   0.009214  -0.010930   0.577726  -0.036432  -0.009116
    11  H    0.001203  -0.005086   0.008457  -0.036432   0.601667  -0.005278
    12  H   -0.000511  -0.000261  -0.000018  -0.009116  -0.005278   0.594803
    13  H    0.000005  -0.001403   0.004170  -0.005528   0.008634  -0.034250
    14  H    0.007102   0.000174  -0.000021  -0.000271   0.000358  -0.019642
    15  H   -0.009919  -0.002811   0.000275  -0.000466  -0.000284   0.007431
    16  H   -0.040149   0.001313  -0.000025   0.000022   0.000070  -0.000114
    17  H   -0.038408  -0.011785   0.000993   0.000069  -0.005728   0.000750
    18  H   -0.000078   0.007304   0.005011   0.001922   0.000821  -0.000105
    19  H   -0.000080   0.006742  -0.019974   0.000785  -0.000120   0.000033
    20  H    0.000659  -0.019640   0.007191  -0.000387   0.000911   0.000033
    21  H    0.403862   0.000809  -0.000041   0.000018  -0.000116  -0.000026
    22  H    0.418134  -0.011761   0.001175  -0.000160   0.000472  -0.000012
    23  H    0.400681   0.000932  -0.000022   0.000004   0.000007   0.000035
              13         14         15         16         17         18
     1  C   -0.048540   0.005711   0.005803  -0.000084  -0.000137  -0.004524
     2  C    0.423563  -0.042848  -0.049524   0.006321  -0.009041   0.001084
     3  C   -0.054473   0.416356   0.417840  -0.042308  -0.053555  -0.000002
     4  C   -0.006062  -0.000384   0.000102   0.000316  -0.006839  -0.063933
     5  C    0.006849  -0.043988  -0.056575   0.410811   0.414214  -0.000003
     6  C    0.000216   0.000028   0.000015  -0.000049   0.000339   0.412009
     7  C    0.000005   0.007102  -0.009919  -0.040149  -0.038408  -0.000078
     8  H   -0.001403   0.000174  -0.002811   0.001313  -0.011785   0.007304
     9  H    0.004170  -0.000021   0.000275  -0.000025   0.000993   0.005011
    10  H   -0.005528  -0.000271  -0.000466   0.000022   0.000069   0.001922
    11  H    0.008634   0.000358  -0.000284   0.000070  -0.005728   0.000821
    12  H   -0.034250  -0.019642   0.007431  -0.000114   0.000750  -0.000105
    13  H    0.596120   0.005701  -0.018196  -0.000524   0.000213   0.000052
    14  H    0.005701   0.597322  -0.036042  -0.018909   0.004813   0.000006
    15  H   -0.018196  -0.036042   0.604369   0.004970   0.006572  -0.000008
    16  H   -0.000524  -0.018909   0.004970   0.600258  -0.037915   0.000004
    17  H    0.000213   0.004813   0.006572  -0.037915   0.609558  -0.000341
    18  H    0.000052   0.000006  -0.000008   0.000004  -0.000341   0.601351
    19  H   -0.000012  -0.000000  -0.000002   0.000001  -0.000069  -0.033752
    20  H   -0.000026  -0.000009   0.000014  -0.000006   0.000605  -0.038073
    21  H   -0.000073   0.000825   0.002795  -0.003513   0.007841   0.000002
    22  H    0.000028  -0.000457   0.000539   0.007459  -0.009449  -0.000125
    23  H    0.000016  -0.000600   0.000716  -0.008854  -0.002962   0.000007
              19         20         21         22         23
     1  C    0.005720   0.003519  -0.000045   0.001264  -0.000009
     2  C   -0.000539  -0.000517   0.000604  -0.000044  -0.000619
     3  C   -0.000009   0.000062  -0.010407   0.003682   0.009359
     4  C   -0.044107  -0.044536   0.000580  -0.015462   0.000884
     5  C    0.000047  -0.000225  -0.040494  -0.055090  -0.041785
     6  C    0.405445   0.405810  -0.000040   0.001273  -0.000079
     7  C   -0.000080   0.000659   0.403862   0.418134   0.400681
     8  H    0.006742  -0.019640   0.000809  -0.011761   0.000932
     9  H   -0.019974   0.007191  -0.000041   0.001175  -0.000022
    10  H    0.000785  -0.000387   0.000018  -0.000160   0.000004
    11  H   -0.000120   0.000911  -0.000116   0.000472   0.000007
    12  H    0.000033   0.000033  -0.000026  -0.000012   0.000035
    13  H   -0.000012  -0.000026  -0.000073   0.000028   0.000016
    14  H   -0.000000  -0.000009   0.000825  -0.000457  -0.000600
    15  H   -0.000002   0.000014   0.002795   0.000539   0.000716
    16  H    0.000001  -0.000006  -0.003513   0.007459  -0.008854
    17  H   -0.000069   0.000605   0.007841  -0.009449  -0.002962
    18  H   -0.033752  -0.038073   0.000002  -0.000125   0.000007
    19  H    0.609156  -0.031638   0.000001  -0.000124   0.000005
    20  H   -0.031638   0.607339  -0.000023   0.000766  -0.000008
    21  H    0.000001  -0.000023   0.594437  -0.039000  -0.031655
    22  H   -0.000124   0.000766  -0.039000   0.608086  -0.029268
    23  H    0.000005  -0.000008  -0.031655  -0.029268   0.597131
 Mulliken charges:
               1
     1  C   -0.251464
     2  C   -0.258223
     3  C   -0.251620
     4  C   -0.239597
     5  C   -0.229730
     6  C   -0.343751
     7  C   -0.344937
     8  H    0.127227
     9  H    0.121851
    10  H    0.140590
    11  H    0.123547
    12  H    0.124398
    13  H    0.123520
    14  H    0.124773
    15  H    0.122388
    16  H    0.120906
    17  H    0.130262
    18  H    0.111372
    19  H    0.102491
    20  H    0.108179
    21  H    0.113660
    22  H    0.118073
    23  H    0.106083
 Sum of Mulliken charges =  -0.00000
 Mulliken charges with hydrogens summed into heavy atoms:
               1
     1  C    0.012674
     2  C   -0.010306
     3  C   -0.004458
     4  C    0.009482
     5  C    0.021438
     6  C   -0.021708
     7  C   -0.007121
 APT charges:
               1
     1  C   -0.663724
     2  C   -0.871723
     3  C   -0.821413
     4  C   -0.314874
     5  C   -0.497743
     6  C   -1.376547
     7  C   -1.131170
     8  H    0.218904
     9  H    0.381324
    10  H    0.448935
    11  H    0.267942
    12  H    0.450144
    13  H    0.349010
    14  H    0.467928
    15  H    0.328917
    16  H    0.465796
    17  H    0.173311
    18  H    0.335250
    19  H    0.497628
    20  H    0.289838
    21  H    0.410342
    22  H    0.136323
    23  H    0.455599
 Sum of APT charges =  -0.00000
 APT charges with hydrogens summed into heavy atoms:
               1
     1  C    0.053154
     2  C   -0.072568
     3  C   -0.024568
     4  C    0.285355
     5  C    0.141364
     6  C   -0.253830
     7  C   -0.128906
 Electronic spatial extent (au):  <R**2>=           1054.9775
 Charge=             -0.0000 electrons
 Dipole moment (field-independent basis, Debye):
    X=              0.1139    Y=              0.1326    Z=              0.0338  Tot=              0.1781
 Quadrupole moment (field-independent basis, Debye-Ang):
   XX=            -49.3373   YY=            -49.5688   ZZ=            -48.8815
   XY=             -0.1029   XZ=              0.6492   YZ=             -0.0522
 Traceless Quadrupole moment (field-independent basis, Debye-Ang):
   XX=             -0.0748   YY=             -0.3062   ZZ=              0.3810
   XY=             -0.1029   XZ=              0.6492   YZ=             -0.0522
 Octapole moment (field-independent basis, Debye-Ang**2):
  XXX=              2.6547  YYY=              1.4879  ZZZ=             -0.6828  XYY=              0.4091
  XXY=              2.1795  XXZ=             -0.9867  XZZ=              0.1632  YZZ=              0.9513
  YYZ=              1.8852  XYZ=             -0.0690
 Hexadecapole moment (field-independent basis, Debye-Ang**3):
 XXXX=           -870.3341 YYYY=           -486.2564 ZZZZ=           -151.3645 XXXY=             -4.4743
 XXXZ=              9.2527 YYYX=              0.7613 YYYZ=             -1.4318 ZZZX=              0.9055
 ZZZY=             -1.4363 XXYY=           -228.4479 XXZZ=           -164.7487 YYZZ=           -106.9647
 XXYZ=              2.2948 YYXZ=              4.0835 ZZXY=              0.1178
 N-N= 3.336232462763D+02 E-N=-1.305690553477D+03  KE= 2.745403313048D+02
  Exact polarizability:   0.000   0.000   0.000   0.000   0.000   0.000
 Approx polarizability:  99.217  -1.404  97.528   0.823  -0.321  98.953
 No NMR shielding tensors so no spin-rotation constants.
 Leave Link  601 at Fri Sep 27 15:31:39 2019, MaxMem=   671088640 cpu:              74.7 elap:              37.5
 (Enter /shared/centos7/gaussian/g16/l701.exe)
 SCFChk:  SCF convergence  6.55D-09 required  1.00D-08
 ... and contract with generalized density number  0.
 Compute integral second derivatives.
 Entering OneElI...
 Calculate overlap and kinetic energy integrals
    NBasis = 485  MinDer = 2  MaxDer = 2
 Requested accuracy = 0.1000D-12
 PrmmSu-InSpLW:  IPartL=    0 NPrtUS=   20 NPrtUL=    1 DoSpLW=F IThBeg=    0 IThEnd=   19 NThAct=   20.
 PrsmSu:  NPrtUS=  20 ThrOK=T IAlg=1 NPAlg=1 LenDen=           0 ISkipM=0 DoSpLW=F IThBeg=    0 IThEnd=   19.
 Prism:   IPart=     0 DynPar=F LinDyn=F Incr=           6.
 PRISM was handed    33197138 working-precision words and 13767 shell-pairs
 PRISM was handed    33197138 working-precision words and 13767 shell-pairs
 PRISM was handed    33197138 working-precision words and 13767 shell-pairs
 PRISM was handed    33197138 working-precision words and 13767 shell-pairs
 PRISM was handed    33197138 working-precision words and 13767 shell-pairs
 PRISM was handed    33197138 working-precision words and 13767 shell-pairs
 PRISM was handed    33197138 working-precision words and 13767 shell-pairs
 PRISM was handed    33197138 working-precision words and 13767 shell-pairs
 PRISM was handed    33197138 working-precision words and 13767 shell-pairs
 PRISM was handed    33197138 working-precision words and 13767 shell-pairs
 PRISM was handed    33197138 working-precision words and 13767 shell-pairs
 PRISM was handed    33197138 working-precision words and 13767 shell-pairs
 PRISM was handed    33197138 working-precision words and 13767 shell-pairs
 PRISM was handed    33197138 working-precision words and 13767 shell-pairs
 PRISM was handed    33197138 working-precision words and 13767 shell-pairs
 PRISM was handed    33197138 working-precision words and 13767 shell-pairs
 PRISM was handed    33197138 working-precision words and 13767 shell-pairs
 PRISM was handed    33197138 working-precision words and 13767 shell-pairs
 PRISM was handed    33197138 working-precision words and 13767 shell-pairs
 IPart=  0 NShTot=         725 NBatch=          79 AvBLen=         9.2
 IPart=  8 NShTot=         690 NBatch=          59 AvBLen=        11.7
 PRISM was handed    33197138 working-precision words and 13767 shell-pairs
 IPart= 10 NShTot=         680 NBatch=          57 AvBLen=        11.9
 IPart= 12 NShTot=         673 NBatch=          54 AvBLen=        12.5
 IPart=  6 NShTot=         702 NBatch=          67 AvBLen=        10.5
 IPart= 11 NShTot=         678 NBatch=          56 AvBLen=        12.1
 IPart= 14 NShTot=         671 NBatch=          52 AvBLen=        12.9
 IPart=  7 NShTot=         693 NBatch=          61 AvBLen=        11.4
 IPart=  5 NShTot=         707 NBatch=          70 AvBLen=        10.1
 IPart=  1 NShTot=         723 NBatch=          78 AvBLen=         9.3
 IPart= 18 NShTot=         664 NBatch=          50 AvBLen=        13.3
 IPart=  9 NShTot=         685 NBatch=          58 AvBLen=        11.8
 IPart=  2 NShTot=         716 NBatch=          76 AvBLen=         9.4
 IPart= 15 NShTot=         670 NBatch=          52 AvBLen=        12.9
 IPart= 13 NShTot=         672 NBatch=          53 AvBLen=        12.7
 IPart= 17 NShTot=         668 NBatch=          51 AvBLen=        13.1
 IPart= 19 NShTot=         663 NBatch=          49 AvBLen=        13.5
 IPart= 16 NShTot=         668 NBatch=          51 AvBLen=        13.1
 IPart=  3 NShTot=         711 NBatch=          73 AvBLen=         9.7
 IPart=  4 NShTot=         708 NBatch=          71 AvBLen=        10.0
 PrSmSu:  NxtVal=            121.
 Entering OneElI...
 Calculate potential energy integrals
    NBasis = 485  MinDer = 2  MaxDer = 2
 Requested accuracy = 0.1000D-12
 PrmmSu-InSpLW:  IPartL=    0 NPrtUS=   20 NPrtUL=    1 DoSpLW=F IThBeg=    0 IThEnd=   19 NThAct=   20.
 PrsmSu:  NPrtUS=  20 ThrOK=T IAlg=1 NPAlg=1 LenDen=           0 ISkipM=0 DoSpLW=F IThBeg=    0 IThEnd=   19.
 Prism:   IPart=     0 DynPar=F LinDyn=F Incr=         144.
 PRISM was handed    33259012 working-precision words and 12559 shell-pairs
 PRISM was handed    33259012 working-precision words and 12559 shell-pairs
 PRISM was handed    33259012 working-precision words and 12559 shell-pairs
 PRISM was handed    33259012 working-precision words and 12559 shell-pairs
 PRISM was handed    33259012 working-precision words and 12559 shell-pairs
 PRISM was handed    33259012 working-precision words and 12559 shell-pairs
 PRISM was handed    33259012 working-precision words and 12559 shell-pairs
 PRISM was handed    33259012 working-precision words and 12559 shell-pairs
 PRISM was handed    33259012 working-precision words and 12559 shell-pairs
 PRISM was handed    33259012 working-precision words and 12559 shell-pairs
 PRISM was handed    33259012 working-precision words and 12559 shell-pairs
 PRISM was handed    33259012 working-precision words and 12559 shell-pairs
 PRISM was handed    33259012 working-precision words and 12559 shell-pairs
 PRISM was handed    33259012 working-precision words and 12559 shell-pairs
 PRISM was handed    33259012 working-precision words and 12559 shell-pairs
 PRISM was handed    33259012 working-precision words and 12559 shell-pairs
 PRISM was handed    33259012 working-precision words and 12559 shell-pairs
 PRISM was handed    33259012 working-precision words and 12559 shell-pairs
 PRISM was handed    33259012 working-precision words and 12559 shell-pairs
 PRISM was handed    33259012 working-precision words and 12559 shell-pairs
 IPart=  4 NShTot=       14904 NBatch=         650 AvBLen=        22.9
 IPart= 16 NShTot=       13915 NBatch=         606 AvBLen=        23.0
 IPart= 10 NShTot=       14352 NBatch=         625 AvBLen=        23.0
 IPart=  9 NShTot=       14398 NBatch=         627 AvBLen=        23.0
 IPart= 15 NShTot=       13961 NBatch=         608 AvBLen=        23.0
 IPart=  2 NShTot=       14996 NBatch=         654 AvBLen=        22.9
 IPart=  3 NShTot=       14996 NBatch=         654 AvBLen=        22.9
 IPart=  1 NShTot=       15088 NBatch=         658 AvBLen=        22.9
 IPart=  7 NShTot=       14582 NBatch=         636 AvBLen=        22.9
 IPart=  8 NShTot=       14513 NBatch=         632 AvBLen=        23.0
 IPart= 11 NShTot=       14283 NBatch=         622 AvBLen=        23.0
 IPart=  5 NShTot=       14881 NBatch=         649 AvBLen=        22.9
 IPart= 18 NShTot=       13892 NBatch=         605 AvBLen=        23.0
 IPart= 12 NShTot=       14214 NBatch=         619 AvBLen=        23.0
 IPart=  6 NShTot=       14720 NBatch=         642 AvBLen=        22.9
 IPart= 13 NShTot=       14145 NBatch=         616 AvBLen=        23.0
 IPart= 17 NShTot=       13892 NBatch=         605 AvBLen=        23.0
 IPart= 19 NShTot=       13846 NBatch=         603 AvBLen=        23.0
 IPart=  0 NShTot=       15203 NBatch=         663 AvBLen=        22.9
 IPart= 14 NShTot=       14076 NBatch=         613 AvBLen=        23.0
 PrSmSu:  NxtVal=           2881.
 Polarizability after L701:
                1             2             3 
      1  0.000000D+00
      2  0.000000D+00  0.000000D+00
      3  0.000000D+00  0.000000D+00  0.000000D+00
 Dipole Derivatives after L701:
                 1             2             3             4             5 
      1  -0.786486D+00  0.537924D+00  0.421258D+00 -0.169615D-01 -0.229179D+00
      2   0.606332D+00 -0.474648D+00 -0.350768D+00  0.861848D-01 -0.172550D+01
      3  -0.838557D-02  0.725106D-01 -0.730037D+00 -0.168019D+00  0.709513D-01
                 6             7             8             9            10 
      1  -0.664582D-01 -0.138861D+01 -0.604705D+00  0.462852D+00  0.168726D+00
      2   0.344099D+00 -0.795432D+00 -0.384132D+00 -0.703051D-01  0.407184D+00
      3  -0.872705D+00  0.988939D-01 -0.281481D+00 -0.691491D+00 -0.774548D-01
                11            12            13            14            15 
      1   0.149351D+00 -0.109674D+01 -0.660322D+00  0.114897D+00 -0.110488D+01
      2  -0.347084D+00 -0.629059D-01 -0.540265D-01  0.315005D-02  0.374432D+00
      3   0.104955D-01 -0.766264D+00 -0.513606D-01  0.139162D+00 -0.836057D+00
                16            17            18            19            20 
      1  -0.205546D+01 -0.604077D+00  0.551267D+00 -0.107005D+01  0.764677D+00
      2  -0.306558D+00 -0.113808D+01  0.179146D+00  0.809666D-01 -0.146190D+01
      3  -0.823188D-01 -0.318326D-01 -0.936101D+00 -0.126495D-01  0.108349D+00
                21            22            23            24            25 
      1   0.557003D+00  0.679982D-01  0.973709D-01  0.383724D-01  0.369704D+00
      2  -0.331494D+00 -0.307774D+00  0.412032D+00  0.924968D-02 -0.102209D-01
      3  -0.861560D+00 -0.172470D+00  0.125814D+00  0.176684D+00  0.204171D+00
                26            27            28            29            30 
      1  -0.155281D+00  0.574909D+00  0.609776D+00 -0.436223D+00  0.321799D-01
      2   0.150457D+00 -0.541110D-01 -0.443336D+00  0.590323D+00 -0.212064D-01
      3  -0.148873D+00  0.623812D+00 -0.587471D-01  0.697904D-01  0.146707D+00
                31            32            33            34            35 
      1   0.104373D+00  0.702133D-01 -0.250238D+00  0.204262D+00  0.131413D+00
      2   0.326548D-01  0.804226D-01  0.221438D+00  0.157911D+00  0.954073D+00
      3   0.113488D+00 -0.163892D+00  0.619031D+00  0.312611D-01  0.127980D+00
                36            37            38            39            40 
      1   0.808250D-01  0.149639D+00 -0.142936D-01 -0.397890D-01  0.707666D+00
      2   0.460872D+00 -0.862425D-01  0.276056D+00 -0.638978D+00  0.361412D+00
      3   0.192097D+00  0.368663D-01 -0.100673D+00  0.621335D+00  0.124630D+00
                41            42            43            44            45 
      1   0.448709D+00  0.412835D+00  0.320729D+00 -0.979515D-01 -0.632166D+00
      2   0.479686D+00  0.264445D+00  0.504533D-01  0.114521D+00 -0.221961D+00
      3   0.908288D-01  0.216431D+00 -0.114179D+00  0.521774D-01  0.551502D+00
                46            47            48            49            50 
      1   0.762754D+00  0.183754D-01  0.588838D+00  0.286676D-01 -0.355010D-01
      2  -0.111236D+00  0.177502D+00 -0.112019D+00  0.178635D+00  0.163790D+00
      3   0.386691D+00  0.549423D-02  0.457133D+00 -0.398713D+00 -0.424435D-01
                51            52            53            54            55 
      1   0.817006D-01  0.454839D+00 -0.407564D+00 -0.846650D+00  0.108421D+01
      2  -0.805745D-01  0.466428D-01  0.928937D-01 -0.611669D-01  0.301815D+00
      3   0.327474D+00 -0.146761D+00  0.205728D+00  0.458018D+00  0.185990D+00
                56            57            58            59            60 
      1   0.631759D-01  0.827809D+00 -0.715770D-01  0.666563D+00 -0.236469D+00
      2   0.111553D+00  0.220658D+00 -0.233535D+00  0.798356D+00 -0.211726D+00
      3  -0.943684D-02  0.297117D+00  0.365541D-01 -0.164974D+00  0.142736D+00
                61            62            63            64            65 
      1   0.811075D+00  0.125996D+00 -0.627560D+00 -0.389857D-01 -0.382062D-01
      2  -0.344531D+00  0.661843D-01  0.336200D+00  0.596894D+00  0.152700D+00
      3  -0.289568D+00 -0.481662D-01  0.353767D+00  0.326727D+00  0.406770D-01
                66            67            68            69 
      1  -0.118262D+00  0.244029D+00 -0.565685D+00  0.389362D+00
      2   0.355932D+00 -0.214191D+00  0.907653D+00 -0.549256D+00
      3   0.295255D+00  0.353555D-01 -0.128186D+00  0.215116D+00
 Hessian after L701:
                1             2             3             4             5 
      1  0.155071D+02
      2 -0.104130D+01  0.170265D+02
      3  0.110777D+00 -0.253575D+00  0.182095D+02
      4 -0.330664D+01  0.141198D+01 -0.117454D+01  0.152070D+02
      5  0.144349D+01 -0.576655D+01 -0.530343D+00 -0.870400D-01  0.162825D+02
      6 -0.119432D+01 -0.521065D+00 -0.594329D+01  0.729431D-01  0.374971D+00
      7  0.390699D+00 -0.307869D-01 -0.277738D-01 -0.316288D+01 -0.168317D+01
      8 -0.561244D-01 -0.866108D-01 -0.162152D-01 -0.168883D+01 -0.498051D+01
      9 -0.673865D-01 -0.156981D-01 -0.144896D+00  0.298033D+00 -0.359748D-01
     10 -0.577416D+01  0.122328D+01  0.764053D+00  0.124695D+00  0.178670D+00
     11  0.113703D+01 -0.364490D+01  0.152181D+01  0.231944D+00  0.177605D+00
     12  0.740431D+00  0.152169D+01 -0.542516D+01  0.248712D-02  0.483747D-01
     13  0.158829D+00 -0.171557D+00  0.117722D+00 -0.233531D-01 -0.114321D+00
     14 -0.135830D+00 -0.579692D-01 -0.673003D-01 -0.117131D+00  0.200735D+00
     15 -0.165242D-01  0.102169D-02 -0.169797D+00  0.200792D-01 -0.123199D+00
     16  0.936492D-01  0.222353D+00 -0.455912D-01  0.986308D-01  0.206758D+00
     17  0.333441D+00  0.116600D+00 -0.212091D-01  0.219889D+00  0.464591D-01
     18  0.299884D-01  0.586346D-01 -0.158941D+00 -0.298185D-01 -0.336282D-01
     19  0.355725D-01 -0.158349D+00 -0.262687D-01 -0.653637D-01 -0.177466D+00
     20 -0.147579D+00  0.445289D-01  0.391135D-01 -0.161119D+00  0.183308D+00
     21 -0.327590D-01  0.366475D-01 -0.108296D+00  0.484513D-02 -0.811787D-02
     22  0.232265D+00 -0.320877D-01  0.111475D-01 -0.129566D-01  0.208589D-01
     23  0.323190D-01 -0.112570D+00 -0.181130D+00  0.628265D-01  0.487430D-01
     24  0.363204D-01 -0.180842D+00  0.630365D-01  0.122790D-01  0.151225D-01
     25  0.947566D-01 -0.467511D-01 -0.513899D-01  0.146285D-01  0.240316D-01
     26 -0.406838D-01  0.441074D-01 -0.138424D+00  0.186185D-01 -0.180502D-01
     27 -0.127507D-01 -0.123936D+00 -0.700883D-02  0.456392D-01  0.193922D-01
     28 -0.302677D+01 -0.122139D+01 -0.701954D-01 -0.207923D-01 -0.640945D-01
     29 -0.125763D+01 -0.320782D+01  0.517704D-01 -0.667646D-01  0.109267D+00
     30 -0.841677D-01  0.613705D-01 -0.427351D+01  0.453920D-01  0.374347D-02
     31 -0.464609D+01 -0.883160D-01  0.223425D+00  0.131878D-01 -0.913241D-01
     32 -0.102072D+00 -0.453458D+01 -0.502559D+00 -0.481311D-01  0.116324D-01
     33  0.359501D+00 -0.648870D+00 -0.202746D+01  0.590413D-01  0.735405D-01
     34 -0.263701D-01 -0.115711D+00 -0.440055D-02 -0.435125D+01  0.284876D+00
     35 -0.130968D+00  0.387665D-01  0.342300D-01  0.288297D+00 -0.233700D+01
     36  0.219092D-02  0.403972D-01  0.128654D+00  0.136165D+00  0.905764D+00
     37  0.452586D-01 -0.516032D-01  0.137456D+00 -0.441073D+01 -0.111128D+00
     38 -0.727343D-01  0.804567D-01  0.956918D-01 -0.148199D+00 -0.419655D+01
     39  0.125615D+00  0.495822D-01  0.182071D-01  0.401921D+00 -0.689892D+00
     40  0.134847D+00  0.265328D-01  0.185844D-01 -0.792019D-01  0.101283D+00
     41  0.422776D-01 -0.342646D-01  0.105168D-01  0.817161D-01  0.117845D+00
     42  0.193384D-01  0.499445D-02 -0.384826D-01  0.140500D-01  0.371554D-01
     43  0.877255D-01 -0.153686D-01 -0.583571D-01 -0.908555D-01  0.130313D+00
     44 -0.143858D-01 -0.423880D-01  0.673960D-02  0.875549D-01  0.877037D-01
     45 -0.838368D-01  0.997061D-02 -0.734659D-02  0.504615D-01 -0.349207D-01
     46  0.323584D-01 -0.181517D-01  0.259746D-01  0.321245D-01 -0.706457D-01
     47 -0.171863D-01 -0.679727D-02 -0.663361D-02 -0.609239D-01  0.206997D-01
     48  0.209772D-01 -0.764231D-02 -0.222814D-02  0.617628D-01 -0.581635D-01
     49 -0.752367D-01 -0.771339D-02  0.207412D-01  0.121485D-01  0.170092D-02
     50 -0.492985D-01  0.999285D-02 -0.673658D-01 -0.291742D-01 -0.244028D-01
[...]
 0.00926059,0.00337275,0.00402467,0.00004333,0.00010008,-0.00022663,-0.
 00108533,0.00132245,0.00050978,0.00004113,0.00022358,-0.00005243,-0.00
 003341,-0.00000040,-0.00009606,0.00157501,-0.00123285,-0.00054789,0.00
 005537,0.00013182,0.00017756,0.00025062,0.00134458,0.00053228,-0.00034
 166,0.00101517,-0.00050028,-0.10267032,0.11409715,0.00026282,0.0007557
 1,0.00024922,-0.00335533,0.00309031,0.00064627,0.07886490,-0.04514950,
 -0.08549084,0.00046471,0.00027986,0.00006668,-0.01513418,0.00691251,0.
 00610943,-0.00020883,-0.00025358,0.00016646,0.00011569,0.00086877,0.00
 053656,-0.00036133,-0.00036006,0.00012783,-0.00003768,0.00009546,0.000
 04421,-0.00007291,0.00014707,0.00018546,0.00010224,-0.00019956,-0.0000
 0335,-0.00049771,-0.00019076,0.00053602,0.00011704,-0.00042164,-0.0001
 9852,-0.08370599,0.04976976,0.08959002,-0.00013575,0.00012579,-0.00074
 609,-0.00123967,-0.00194464,0.00495908,-0.04860132,-0.00379340,0.01829
 886,0.00002791,0.00049264,0.00022607,0.00015243,0.00628166,-0.02924181
 ,-0.00013266,-0.00007475,-0.00009420,0.00081114,0.00134993,0.00006490,
 -0.00097303,0.00090583,0.00055244,-0.00006243,-0.00015022,-0.00006455,
 0.00000119,-0.00006662,0.00014810,0.00003890,0.00005785,0.00001848,0.0
 0066177,-0.00138923,-0.00030375,0.00003660,0.00005799,0.00026000,-0.00
 201545,-0.00702680,0.02546697,0.05429299,-0.00031657,0.00132799,0.0004
 3881,-0.00339549,-0.00966701,0.03322245,-0.00360512,-0.06396783,0.0623
 8770,0.00046202,-0.00018756,-0.00000372,0.00070576,0.00154070,-0.01038
 071,0.00008358,0.00022164,-0.00027568,0.00042400,0.00110737,-0.0009382
 1,0.00101897,-0.00029774,-0.00055697,-0.00016837,-0.00020956,-0.000308
 69,-0.00010225,0.00016334,-0.00025930,0.00000671,-0.00008169,-0.000055
 02,-0.00068216,-0.00656940,0.00045176,-0.00005924,0.00138411,-0.000448
 18,0.00049979,0.00360189,-0.01475074,0.00700674,0.07169048,0.00035948,
 0.00020560,-0.00027556,0.00026353,0.00120734,-0.00160820,0.01696807,0.
 06334994,-0.28620484,0.00135599,0.00020113,-0.00032907,-0.00003520,0.0
 0389093,-0.01719977,-0.00034753,-0.00045422,0.00033326,0.00057291,0.00
 059613,0.00039457,0.00031640,-0.00135171,-0.00021736,-0.00016524,0.000
 26478,-0.00010461,-0.00015450,0.00010714,0.00008903,0.00003546,-0.0000
 6911,0.00003660,0.00020741,0.00012554,0.00148291,0.00023259,0.00054168
 ,0.00059285,0.00127665,0.00262160,-0.01231955,-0.01774202,-0.06874806,
 0.31381977,0.00019412,-0.00026350,0.00024201,0.00132422,0.00120287,-0.
 00008178,-0.00013832,0.00746496,-0.02844459,-0.00006484,-0.00008522,0.
 00003618,-0.04902673,-0.00157247,0.00988683,0.00003661,0.00000227,0.00
 005316,-0.00051402,-0.00073010,0.00209568,-0.00008696,0.00003677,-0.00
 017201,0.00007197,0.00016341,0.00001001,0.00003227,-0.00001174,-0.0000
 5167,-0.00015731,-0.00009503,-0.00006795,-0.00007947,-0.00041043,0.000
 64653,-0.00001388,0.00031382,0.00034024,0.00094133,0.00064185,0.000574
 01,-0.00424754,-0.00189386,-0.00298191,0.05176256,-0.00005234,0.000220
 81,-0.00012704,0.00032497,0.00099040,-0.00116946,0.00025578,0.00218268
 ,-0.01080621,-0.00009553,0.00010409,-0.00019289,-0.00141236,-0.0715379
 6,0.07517097,-0.00002385,-0.00002884,0.00005896,-0.00170481,-0.0127151
 4,0.03296714,-0.00006879,-0.00000897,0.00014288,0.00003678,-0.00009589
 ,0.00002630,0.00004983,-0.00000198,0.00009963,0.00027252,0.00004826,0.
 00010822,-0.00013426,0.00011752,0.00040173,0.00008977,0.00011689,0.000
 12818,0.00026496,0.00008023,0.00058095,-0.00215854,-0.00038265,-0.0013
 4262,0.00466014,0.08122874,-0.00010417,-0.00021149,-0.00016286,0.00062
 566,0.00085842,0.00057723,-0.00044120,0.00407586,-0.01735438,0.0001268
 3,0.00027947,0.00001057,0.00955933,0.07619579,-0.27861364,-0.00008105,
 -0.00008755,0.00006359,0.00010363,-0.00035997,0.00117630,-0.00013431,-
 0.00003864,0.00021326,-0.00003277,-0.00004898,0.00008588,0.00006292,-0
 .00008564,0.00003225,0.00025506,-0.00020786,-0.00026754,-0.00035325,-0
 .00094242,0.00025975,-0.00000061,-0.00002839,0.00046702,-0.00017887,0.
 00013366,0.00066804,-0.00329005,-0.00101294,-0.00008042,-0.00693320,-0
 .08294935,0.30395391,-0.00044123,0.00014085,-0.00011122,0.00010893,0.0
 0104548,0.00023796,-0.02459563,0.00998159,0.01112297,0.00024645,-0.000
 21918,-0.00006611,-0.22121256,0.08259171,0.08967676,0.00016189,0.00006
 052,-0.00005227,0.00299231,-0.00158184,-0.00166982,0.00006493,-0.00005
 681,-0.00057013,0.00008689,0.00020832,0.00013374,0.00048943,0.00011037
 ,0.00018796,0.00072034,-0.00028168,0.00039055,0.00002659,-0.00001544,-
 0.00007196,0.00020576,-0.00015125,-0.00011118,-0.00357982,-0.00231027,
 -0.00326405,0.00121700,0.00029453,0.00001716,-0.00093986,-0.00015426,0
 .00085113,0.24275598,-0.00008922,-0.00134735,-0.00019063,0.00009878,0.
 00054199,0.00061032,-0.00902063,0.00420146,0.00544919,0.00000395,-0.00
 016808,0.00000402,0.08237627,-0.08465721,-0.04144276,-0.00001058,-0.00
 003183,0.00001940,0.02785713,-0.01594757,-0.01505890,0.00003015,0.0003
 4414,-0.00000745,0.00000855,0.00007014,0.00013717,-0.00002983,0.000119
 35,0.00002646,-0.00061682,-0.00202670,-0.00030651,-0.00006162,-0.00003
 518,-0.00003838,0.00025286,0.00010163,-0.00011296,-0.00204523,-0.00045
 021,-0.00118644,0.00073408,0.00025570,0.00002881,-0.00887609,0.0036852
 7,0.00392877,-0.08951783,0.09911497,0.00059808,-0.00078168,0.00045591,
 0.00079182,0.00019143,0.00016118,-0.01491393,0.00710878,0.00701940,-0.
 00040245,-0.00065740,0.00015703,0.09024519,-0.04148389,-0.09569459,0.0
 0013254,0.00009505,-0.00002341,-0.00123953,0.00040486,0.00021134,0.000
 00989,0.00030651,-0.00030177,0.00006795,0.00017293,-0.00003970,-0.0001
 3766,0.00003245,-0.00021494,-0.00033792,-0.00006740,-0.00018181,-0.000
 02034,-0.00006915,0.00002459,0.00002977,0.00019817,0.00002087,-0.00357
 572,-0.00107039,-0.00073191,0.00060521,0.00061340,0.00088264,0.0255762
 8,-0.01221249,-0.01335604,-0.09622430,0.04736415,0.10007328,0.00110706
 ,0.00050005,-0.00127933,0.00000817,0.00007936,-0.00027413,-0.00009338,
 0.00015357,-0.00005510,0.00802289,0.02479986,-0.00045188,-0.00004359,-
 0.00003025,0.00001923,-0.07592942,-0.08414481,0.00367158,-0.00000732,-
 0.00000333,-0.00000246,-0.00303867,0.00357566,0.00212318,0.00115927,-0
 .00062111,-0.00063764,0.00001231,-0.00058599,0.00008936,-0.00004589,-0
 .00012787,0.00007386,0.00002116,-0.00006659,-0.00003074,-0.00003994,0.
 00000715,-0.00000789,-0.00000898,-0.00001436,0.00011781,0.00003718,-0.
 00010445,0.00013670,0.00000046,0.00001361,0.00002802,-0.00004715,0.000
 00523,-0.00004432,0.08128645,-0.00104084,0.00064419,0.00116321,0.00025
 370,0.00035167,-0.00003593,-0.00008687,-0.00008662,0.00026486,-0.00643
 480,-0.02114131,0.00068987,-0.00004853,0.00008126,0.00001435,-0.083173
 62,-0.28281521,0.01172834,0.00002576,0.00000943,0.00000417,0.00386289,
 -0.00117721,-0.00135011,0.00010064,0.00074828,0.00042252,0.00038717,0.
 00053650,-0.00092688,0.00005754,-0.00001472,-0.00001228,0.00004394,-0.
 00001157,-0.00004820,0.00003999,-0.00003969,0.00001660,0.00003541,0.00
 007686,-0.00010387,-0.00005727,0.00010841,-0.00016543,0.00001392,-0.00
 002129,-0.00005237,0.00007358,0.00000115,0.00006122,0.08834351,0.30979
 819,-0.00099459,-0.00123338,0.00082632,0.00014998,0.00009944,0.0000455
 1,-0.00001383,-0.00005748,0.00000529,-0.00357409,-0.00960773,-0.000565
 91,-0.00002101,0.00003313,-0.00000050,0.00382699,0.01219623,-0.0482813
 6,0.00001402,0.00000198,-0.00000254,0.00159953,-0.00137125,-0.00004489
 ,-0.00008453,0.00069119,0.00016466,0.00036321,0.00028472,-0.00007827,-
 0.00002461,-0.00003070,-0.00003209,-0.00000619,0.00000957,-0.00000338,
 -0.00002698,0.,-0.00001321,0.00001239,0.00003757,-0.00004937,-0.000008
 63,0.00007872,-0.00005610,0.00000720,-0.00001359,-0.00002101,0.0000115
 0,0.00000938,0.00002556,-0.00583635,-0.01190336,0.04767470,-0.00338199
 ,0.00383807,-0.00000167,0.00034756,-0.00033352,0.00161914,-0.00006704,
 -0.00013812,0.00007880,-0.00611136,-0.00647720,0.02274978,-0.00003958,
 0.00002870,-0.00003237,-0.06489410,-0.01442888,0.06510812,0.00002475,-
 0.00000747,0.00002041,0.00094177,-0.00014066,-0.00057105,0.00036618,-0
 .00086526,-0.00036796,0.00002750,0.00018816,-0.00041422,0.00021424,0.0
 0013116,0.00035257,-0.00043607,0.00029489,0.00021746,0.00002373,-0.000
 06779,-0.00007798,0.00000401,0.00007907,-0.00001760,0.00003738,0.00002
 939,-0.00005537,-0.00001221,-0.00000905,-0.00000609,-0.00001081,0.0000
 0110,-0.00000404,-0.00374740,-0.00175267,0.01030943,0.06867286,0.00313
 559,-0.00306988,-0.00012143,0.00035272,0.00074500,-0.00129646,-0.00010
 520,0.00018927,-0.00000100,0.00470487,0.00446564,-0.02213468,0.0000161
 6,-0.00002533,0.00001933,-0.01487168,-0.05826830,0.05242639,-0.0000152
 8,0.00000740,-0.00001983,-0.00091111,0.00065428,0.00004957,-0.00055689
 ,0.00066506,0.00063568,0.00027183,0.00038803,-0.00014632,-0.00006656,-
 0.00010846,0.00022425,0.00037587,-0.00025393,-0.00017748,0.00003979,-0
 .00000579,0.00000946,-0.00000343,-0.00000829,0.00002593,-0.00001307,-0
 .00003880,0.00006030,0.00000435,0.00000614,0.00001345,-0.00000467,0.00
 002239,-0.00000948,-0.00688425,-0.00534096,0.02965540,0.01341414,0.060
 52441,0.00207086,-0.00221820,0.00074969,-0.00024530,0.00055782,-0.0004
 6999,0.00006999,0.00009299,-0.00007339,0.00089332,0.00217975,-0.007695
 47,0.00001243,-0.00002719,0.00004556,0.06591111,0.05150560,-0.28807297
 ,-0.00000979,0.00001833,-0.00003360,-0.00022759,-0.00043557,0.00012510
 ,0.00033015,-0.00005210,0.00052255,-0.00016225,-0.00000036,0.00016377,
 -0.00007143,0.00008214,0.00041482,0.00021657,-0.00014869,-0.00011327,0
 .00010679,-0.00004554,-0.00000123,-0.00000129,-0.00007995,-0.00000144,
 -0.00002286,-0.00000733,0.00003540,-0.00000479,0.00000566,0.00001428,0
 .00001860,0.00003752,-0.00001572,-0.00035762,0.00033553,-0.00028321,-0
 .07357955,-0.05570401,0.31152185,0.00080961,-0.00072558,-0.00152402,0.
 00025677,0.00016786,0.00033556,0.00002341,0.00002211,-0.00012186,-0.02
 069341,-0.00178858,-0.01352564,-0.00010758,0.00000271,0.00006450,-0.22
 120106,-0.01891170,-0.12428197,0.00004445,0.00000188,-0.00000864,0.001
 06237,-0.00000151,0.00003285,-0.00214384,0.00364022,0.00218775,-0.0001
 3053,-0.00004062,0.00006680,0.00003559,0.00013494,0.00110087,-0.000017
 40,0.00005551,0.00010104,0.00030563,-0.00009165,-0.00007221,0.00000774
 ,-0.00001445,0.00004723,0.00000813,-0.00010594,0.00004419,0.00001072,0
 .00001479,0.00003022,-0.00001040,0.00005215,-0.00002157,-0.00865702,-0
 .00064263,-0.00570426,0.00803459,0.00111665,0.00505405,0.24235983,-0.0
 0056639,0.00047614,0.00100068,-0.00003799,-0.00012046,0.00007943,0.000
 00806,0.00000615,0.00004711,0.01923032,0.00144329,0.01313153,0.0001471
 9,-0.00005036,-0.00006009,-0.01935279,-0.04900724,-0.01278367,-0.00004
 489,-0.00000094,0.00001371,-0.00063998,0.00069838,0.00074427,0.0035413
 0,-0.00223806,-0.00181053,-0.00010530,-0.00003769,-0.00016877,-0.00029
 338,0.00018540,-0.00040323,-0.00005859,-0.00000308,-0.00003628,-0.0001
 3349,-0.00001631,-0.00000069,-0.00002195,-0.00001027,-0.00002294,0.000
 01683,0.00004896,-0.00000414,-0.00003997,0.00000893,0.00001640,-0.0000
 7189,0.00001762,0.00001352,-0.02489325,-0.00171038,-0.01888518,0.00618
 758,-0.00052019,0.00395691,0.01712512,0.05082757,0.00071985,0.00021840
 ,0.00149419,0.00020850,0.00000624,0.00008342,-0.00004752,-0.00001253,0
 .00001631,0.00943826,0.00153823,0.00592071,0.00000363,0.00000187,-0.00
 001048,-0.12491016,-0.01252644,-0.13625906,-0.00000453,-0.00000529,0.0
 0000708,-0.00058775,0.00056406,0.00023063,0.00221290,-0.00131718,0.000
 00576,-0.00008147,0.00014326,-0.00000706,-0.00035312,-0.00023726,0.000
 11117,-0.00007602,0.00001623,0.00000232,-0.00005664,-0.00003060,-0.000
 14169,0.00000058,0.00003263,0.00000129,0.00000826,0.00001535,0.0000052
 5,0.00000221,-0.00000137,-0.00000637,-0.00005110,-0.00000333,0.0000256
 4,0.00271140,-0.00008308,0.00068965,-0.02532336,-0.00351863,-0.0168440
 4,0.13618383,0.01517486,0.14467605,-0.00010278,-0.00013159,-0.00006929
 ,0.00027590,-0.00003805,0.00001016,0.00124654,-0.00062809,-0.00044708,
 -0.00001188,-0.00004557,0.00000363,0.00139032,-0.00068858,-0.00173725,
 0.00000285,0.00000032,-0.00000706,-0.21768781,0.08625726,0.09429440,0.
 00000319,0.00001528,-0.00001857,0.00000848,0.00000688,0.00000488,0.000
 01498,-0.00000968,-0.00002097,-0.00000729,0.00000647,0.00003138,-0.000
 01467,0.00002961,-0.00002133,0.00001610,0.00006893,0.00001784,0.000310
 82,0.00022424,0.00038564,-0.00004091,0.00004109,-0.00003932,0.00017788
 ,0.00054673,-0.00025670,0.00118038,-0.00079116,-0.00066610,0.00000431,
 0.00001344,0.00000052,-0.00000413,-0.00000109,0.00000529,0.00000508,-0
 .00000765,0.00000204,0.23422569,0.00025457,-0.00005769,0.00010811,-0.0
 0012522,0.00005453,0.00031906,0.00205528,0.00154989,0.00024595,-0.0000
 5541,0.00006349,0.00001645,0.02764543,-0.01554435,-0.01606906,-0.00001
 488,-0.00001050,0.00002170,0.08530276,-0.08924784,-0.04743437,0.000013
 17,-0.00003426,0.00011007,-0.00002320,-0.00004400,-0.00004563,-0.00016
 368,-0.00002118,-0.00007870,-0.00022025,0.00009370,-0.00015411,0.00001
 010,-0.00004896,0.00002838,-0.00004047,0.00001392,0.00001049,-0.001152
 96,0.00012112,-0.00005633,-0.00011250,-0.00001637,0.00000858,0.0000135
 9,0.00148571,0.00043903,-0.00114197,-0.00659807,0.00036273,0.00000357,
 -0.00001686,-0.00000570,0.00000087,-0.00000181,-0.00001385,-0.00001704
 ,0.00001885,0.00000653,-0.09480455,0.10063525,0.00004950,0.00009439,-0
 .00001424,-0.00031820,-0.00001735,0.00007492,0.00052323,0.00000752,-0.
 00021887,0.00001299,0.00006251,-0.00001444,-0.00180139,0.00091843,0.00
 046972,-0.00000829,-0.00000812,0.00000722,0.09415735,-0.04794077,-0.10
 009044,-0.00000164,0.00000916,0.00001063,-0.00000699,-0.00001577,-0.00
 000633,-0.00003006,0.00002026,0.00002471,-0.00002051,0.00001579,0.0000
 0308,0.00001240,0.00001424,-0.00002920,-0.00000546,-0.00004989,-0.0000
 2381,-0.00033204,-0.00033608,0.00003859,0.00009411,-0.00004639,-0.0000
 3543,-0.00060263,-0.00026462,0.00040864,-0.00021230,0.00053051,0.00115
 693,-0.00000032,-0.00001038,-0.00000027,-0.00000123,0.00000545,0.00000
 526,-0.00000307,0.00000519,-0.00000344,-0.10382772,0.05242035,0.103898
 47,0.00004998,0.00002392,-0.00001217,-0.00011645,-0.00006243,-0.000070
 18,0.00025665,0.00000329,0.00097254,0.00000333,0.00006047,-0.00001679,
 -0.00082189,-0.00034540,0.00134283,-0.00000227,-0.00000879,0.00000360,
 -0.04828082,-0.00317028,0.00954450,0.00002455,-0.00003396,0.00001416,-
 0.00001795,-0.00003287,-0.00000933,-0.00002911,0.00001334,0.00001450,-
 0.00001717,0.00001666,-0.00000900,-0.00002546,0.00005193,-0.00007636,-
 0.00000242,-0.00001211,-0.00001486,-0.00006845,0.00006168,0.00014385,0
 .00016254,-0.00023262,-0.00020071,0.00079584,-0.00035956,-0.00008861,0
 .00000706,0.00005511,-0.00053626,-0.00000332,-0.00000527,-0.00000103,-
 0.00000139,0.00000589,0.00000978,-0.00000857,0.00001200,-0.00000704,-0
 .00052111,-0.00936148,0.02526269,0.04681491,0.00009248,0.00004119,0.00
 006823,0.00009648,-0.00008143,-0.00024920,0.00102093,0.00170480,0.0013
 8735,-0.00010136,-0.00016640,0.00003186,-0.00196895,-0.01247467,0.0335
 0908,0.00003840,0.00004425,-0.00002623,-0.00318747,-0.07303922,0.07966
 039,0.00005883,0.00003093,-0.00001892,0.00001006,0.00001656,-0.0000300
 5,-0.00002882,0.00000805,-0.00004315,-0.00009591,0.00005940,0.00001418
 ,0.00010553,0.00024104,-0.00017468,-0.00001221,-0.00001660,-0.00010850
 ,-0.00012536,-0.00001260,-0.00011055,-0.00044431,-0.00009036,-0.000931
 52,-0.00058195,-0.00677396,-0.00049985,0.00045320,0.00148543,-0.000218
 73,-0.00001150,0.00002453,0.00000609,0.00000544,-0.00001236,-0.0000139
 0,-0.00001163,-0.00000477,0.00000628,-0.00062277,0.00385117,-0.0129788
 8,0.00377100,0.08246831,-0.00002662,0.00000213,-0.00004531,0.00000532,
 -0.00006777,0.00041761,0.00002139,-0.00054452,0.00081851,0.00002502,0.
 00000992,-0.00000536,-0.00031539,0.00037068,-0.00003291,-0.00000005,-0
 .00000819,0.00000862,0.00966931,0.08046009,-0.28514699,0.00000935,0.00
 007002,-0.00002263,0.00000568,0.00001503,0.00001466,0.00000658,0.00001
 583,0.00001980,0.00003813,-0.00002881,0.00002013,-0.00007902,-0.000171
 89,-0.00006794,0.00003675,0.00010236,0.00000086,0.00001561,0.00015796,
 -0.00009423,0.00055022,0.00037859,0.00025998,-0.00046675,-0.00025212,0
 .00160198,-0.00017973,0.00051590,0.00049887,-0.00000266,-0.00000254,-0
 .00000070,-0.00000772,0.00000812,0.00001785,0.00000405,0.00000132,-0.0
 0000711,-0.00019272,0.00399437,-0.01300780,-0.01042996,-0.08925120,0.3
 0857995,-0.00009667,-0.00012673,0.00002635,0.00018251,0.00031835,-0.00
 039442,0.00069436,-0.00081444,0.00048230,0.00001965,-0.00000836,0.0000
 2546,-0.00016372,0.00097429,0.00080849,-0.00001344,0.00000578,-0.00001
 243,-0.22998762,-0.06956968,-0.10557179,-0.00001386,-0.00000819,0.0000
 1268,-0.00000037,0.00000329,0.00000203,0.00004453,-0.00005485,-0.00003
 043,0.00000462,0.00002153,-0.00000697,0.00000077,-0.00000935,0.0000373
 1,-0.00002089,-0.00008066,-0.00000479,0.00057685,0.00007542,-0.0000073
 3,-0.00003640,0.00009349,-0.00006473,-0.00006683,-0.00035653,0.0002580
 7,0.00057354,-0.00041636,0.00006741,0.00000282,-0.00000899,0.00000130,
 0.00001150,-0.00000462,-0.00001646,0.00000588,-0.00000088,0.00000725,-
 0.02047195,-0.00806573,-0.01294042,0.00180152,0.00153989,0.00131320,0.
 24695321,-0.00021107,0.00015099,0.00001381,-0.00186631,0.00003600,-0.0
 0132745,0.00159151,-0.00694608,0.00162042,0.00004244,-0.00004390,0.000
 04771,-0.02851923,-0.00915908,-0.01695131,-0.00002069,0.00001979,-0.00
 004102,-0.06844577,-0.07259586,-0.03973395,-0.00002615,0.00000842,0.00
 000716,-0.00000140,0.00000659,0.00002225,0.00007539,-0.00004373,-0.000
 00598,0.00010364,0.00002047,0.00002599,-0.00000069,0.00000797,0.000077
 18,-0.00015803,-0.00078128,0.00003390,-0.00000192,0.00007932,0.0002796
 3,0.00020200,0.00005837,-0.00014271,0.00004241,0.00129103,0.00058459,0
 .00054695,0.00130098,-0.00035459,0.00000618,-0.00000462,0.00000494,0.0
 0002202,-0.00001349,-0.00002555,0.00001739,-0.00001155,0.00001176,0.01
 055852,0.00375424,0.00756447,0.00954947,0.00269669,0.00422474,0.076493
 34,0.08016874,-0.00002134,0.00003844,-0.00000548,-0.00017600,0.0002741
 1,0.00040405,0.00028102,-0.00021159,0.00054954,0.00002269,0.00000599,0
 .00000491,0.00254988,0.00096615,-0.00001838,-0.00001990,-0.00000011,-0
 .00000780,-0.10562658,-0.04038399,-0.10865180,-0.00003604,0.00001489,0
 .00000130,0.00001030,0.00000994,0.00000200,0.00000570,-0.00001019,-0.0
 0000652,0.00000409,0.00000215,0.00000889,-0.00001978,-0.00013590,0.000
 00798,0.00000008,-0.00000323,-0.00000109,-0.00025234,0.00011907,-0.000
 07687,0.00026126,0.00020516,0.00049863,0.00033693,-0.00035888,0.000329
 56,-0.00006419,-0.00031425,-0.00015335,0.00000929,-0.00000623,0.000001
 12,0.00000450,-0.00000402,-0.00001179,0.00001031,-0.00000940,0.0000097
 6,0.01254833,0.00576596,0.00734613,-0.02583615,-0.01002810,-0.01382784
 ,0.11600793,0.04406402,0.11359708\\-0.00000076,-0.00000007,-0.00000179
 ,0.00000012,0.00000001,0.00000010,0.00000052,0.00000014,0.00000151,-0.
 00000125,0.00000106,-0.00000140,0.00000116,-0.00000126,0.00000153,-0.0
 0000201,0.00000143,-0.00000287,0.00000179,-0.00000151,0.00000309,-0.00
 000074,0.00000126,-0.00000048,-0.00000166,0.00000248,-0.00000113,-0.00
 000106,-0.00000006,-0.00000255,-0.00000017,-0.00000101,-0.00000174,0.0
 0000043,-0.00000096,-0.00000015,-0.00000041,0.00000098,0.00000014,0.00
 000113,0.00000003,0.00000252,0.00000032,0.00000119,0.00000184,0.000001
 67,-0.00000241,0.00000111,0.00000080,-0.00000134,0.00000040,-0.0000024
 5,0.00000146,-0.00000391,-0.00000239,0.00000239,-0.00000304,-0.0000015
 7,0.00000028,-0.00000340,0.00000241,-0.00000150,0.00000397,0.00000161,
 -0.00000027,0.00000328,0.00000250,-0.00000233,0.00000298\\\@


 MARY HAD A LITTLE LAMB
      HIS FEET WERE BLACK AS SOOT,
           AND EVERYWHERE THAT MARY WENT
                HIS SOOTY FOOT HE PUT.

                    -- NONAME
 Job cpu time:       0 days  6 hours  9 minutes 51.5 seconds.
 Elapsed time:       0 days  3 hours  5 minutes 32.2 seconds.
 File lengths (MBytes):  RWF=   1488 Int=      0 D2E=      0 Chk=     32 Scr=     32
 Normal termination of Gaussian 16 at Sat Sep 28 12:52:46 2019.
