 Entering Gaussian System, Link 0=g16
 Input=loose/species/CC(C)OC=CO/conformers/CC(C)OC=CO_128.com
 Output=loose/species/CC(C)OC=CO/conformers/CC(C)OC=CO_128.log
 Initial command:
 /shared/centos7/gaussian/g16/l1.exe "/scratch/harms.n/gauss_scrdir/Gau-10602.inp" -scrdir="/scratch/harms.n/gauss_scrdir/"
 Entering Link 1 = /shared/centos7/gaussian/g16/l1.exe PID=     10603.
  
 Copyright (c) 1988,1990,1992,1993,1995,1998,2003,2009,2016,
            Gaussian, Inc.  All Rights Reserved.
  
 This is part of the Gaussian(R) 16 program.  It is based on
 the Gaussian(R) 09 system (copyright 2009, Gaussian, Inc.),
 the Gaussian(R) 03 system (copyright 2003, Gaussian, Inc.),
 the Gaussian(R) 98 system (copyright 1998, Gaussian, Inc.),
 the Gaussian(R) 94 system (copyright 1995, Gaussian, Inc.),
 the Gaussian 92(TM) system (copyright 1992, Gaussian, Inc.),
 the Gaussian 90(TM) system (copyright 1990, Gaussian, Inc.),
 the Gaussian 88(TM) system (copyright 1988, Gaussian, Inc.),
 the Gaussian 86(TM) system (copyright 1986, Carnegie Mellon
 University), and the Gaussian 82(TM) system (copyright 1983,
 Carnegie Mellon University). Gaussian is a federally registered
 trademark of Gaussian, Inc.
  
 This software contains proprietary and confidential information,
 including trade secrets, belonging to Gaussian, Inc.
  
 This software is provided under written license and may be
 used, copied, transmitted, or stored only in accord with that
 written license.
  
 The following legend is applicable only to US Government
 contracts under FAR:
  
                    RESTRICTED RIGHTS LEGEND
  
 Use, reproduction and disclosure by the US Government is
 subject to restrictions as set forth in subparagraphs (a)
 and (c) of the Commercial Computer Software - Restricted
 Rights clause in FAR 52.227-19.
  
 Gaussian, Inc.
 340 Quinnipiac St., Bldg. 40, Wallingford CT 06492
  
  
 ---------------------------------------------------------------
 Warning -- This program may not be used in any manner that
 competes with the business of Gaussian, Inc. or will provide
 assistance to any competitor of Gaussian, Inc.  The licensee
 of this program is prohibited from giving any competitor of
 Gaussian, Inc. access to this program.  By using this program,
 the user acknowledges that Gaussian, Inc. is engaged in the
 business of creating and licensing software in the field of
 computational chemistry and represents and warrants to the
 licensee that it is not a competitor of Gaussian, Inc. and that
 it will not use this program in any manner prohibited above.
 ---------------------------------------------------------------
  

 Cite this work as:
 Gaussian 16, Revision A.03,
 M. J. Frisch, G. W. Trucks, H. B. Schlegel, G. E. Scuseria, 
 M. A. Robb, J. R. Cheeseman, G. Scalmani, V. Barone, 
 G. A. Petersson, H. Nakatsuji, X. Li, M. Caricato, A. V. Marenich, 
 J. Bloino, B. G. Janesko, R. Gomperts, B. Mennucci, H. P. Hratchian, 
 J. V. Ortiz, A. F. Izmaylov, J. L. Sonnenberg, D. Williams-Young, 
 F. Ding, F. Lipparini, F. Egidi, J. Goings, B. Peng, A. Petrone, 
 T. Henderson, D. Ranasinghe, V. G. Zakrzewski, J. Gao, N. Rega, 
 G. Zheng, W. Liang, M. Hada, M. Ehara, K. Toyota, R. Fukuda, 
 J. Hasegawa, M. Ishida, T. Nakajima, Y. Honda, O. Kitao, H. Nakai, 
 T. Vreven, K. Throssell, J. A. Montgomery, Jr., J. E. Peralta, 
 F. Ogliaro, M. J. Bearpark, J. J. Heyd, E. N. Brothers, K. N. Kudin, 
 V. N. Staroverov, T. A. Keith, R. Kobayashi, J. Normand, 
 K. Raghavachari, A. P. Rendell, J. C. Burant, S. S. Iyengar, 
 J. Tomasi, M. Cossi, J. M. Millam, M. Klene, C. Adamo, R. Cammi, 
 J. W. Ochterski, R. L. Martin, K. Morokuma, O. Farkas, 
 J. B. Foresman, and D. J. Fox, Gaussian, Inc., Wallingford CT, 2016.
 
 ******************************************
 Gaussian 16:  EM64L-G16RevA.03 25-Dec-2016
                26-Sep-2019 
 ******************************************
 %nprocshared=20
 Will use up to   20 processors via shared memory.
 %mem=5GB
 ----------------------------------------------------------------------
 #p m062x/cc-pVTZ opt=(calcfc,maxcycles=900,Tight) freq IOP(7/33=1,2/16
 =3) scf=(maxcycle=900)
 ----------------------------------------------------------------------
 1/6=900,7=10,10=4,18=20,19=15,26=3,38=1/1,3;
 2/9=110,12=2,16=3,17=6,18=5,40=1/2;
 3/5=16,6=1,11=2,25=1,30=1,71=2,74=-55,140=1/1,2,3;
 4//1;
 5/5=2,7=900,38=5/2;
 8/6=4,10=90,11=11/1;
 11/6=1,8=1,9=11,15=111,16=1/1,2,10;
 10/6=1,13=1/2;
 6/7=2,8=2,9=2,10=2,28=1/1;
 7/10=1,18=20,25=1,33=1/1,2,3,16;
 1/6=900,7=10,10=4,18=20,19=15,26=3/3(2);
 2/9=110,16=3/2;
 99//99;
 2/9=110,16=3/2;
 3/5=16,6=1,11=2,25=1,30=1,71=1,74=-55/1,2,3;
 4/5=5,16=3,69=1/1;
 5/5=2,7=900,38=5/2;
 7/33=1/1,2,3,16;
 1/6=900,7=10,18=20,19=15,26=3/3(-5);
 2/9=110,16=3/2;
 6/7=2,8=2,9=2,10=2,19=2,28=1/1;
 99/9=1/99;
 Leave Link    1 at Thu Sep 26 01:51:41 2019, MaxMem=   671088640 cpu:               4.4 elap:               2.2
 (Enter /shared/centos7/gaussian/g16/l101.exe)
 ------------------------------
 Gaussian input prepared by ASE
 ------------------------------
 Symbolic Z-matrix:
 Charge =  0 Multiplicity = 1
 O                    -0.36236  -1.38504   1.47734 
 O                     0.55001   0.14947  -0.72152 
 C                    -1.17383  -0.50836   2.23022 
 C                    -2.24049  -1.34666   2.93485 
 C                    -1.69468   0.61448   1.39474 
 C                     0.92135  -0.90264   1.36217 
 C                     1.34499  -0.17962   0.36627 
 H                    -0.54215  -0.04043   3.03543 
 H                    -2.09355  -2.41752   2.68212 
 H                    -2.169    -1.25237   4.03371 
 H                    -3.28146  -1.05125   2.63194 
 H                    -2.79446   0.50258   1.16099 
 H                    -1.13863   0.68256   0.43649 
 H                    -1.57237   1.60543   1.91687 
 H                     1.61108  -1.20726   2.16543 
 H                     2.36244   0.17754   0.30589 
 H                     0.92254   0.98957  -1.11807 
 
 ITRead=  0  0  0  0  0  0  0  0  0  0  0  0  0  0  0  0  0
 MicOpt= -1 -1 -1 -1 -1 -1 -1 -1 -1 -1 -1 -1 -1 -1 -1 -1 -1
 NAtoms=     17 NQM=       17 NQMF=       0 NMMI=      0 NMMIF=      0
                NMic=       0 NMicF=      0.
                    Isotopes and Nuclear Properties:
 (Nuclear quadrupole moments (NQMom) in fm**2, nuclear magnetic moments (NMagM)
  in nuclear magnetons)

  Atom         1           2           3           4           5           6           7           8           9          10
 IAtWgt=          16          16          12          12          12          12          12           1           1           1
 AtmWgt=  15.9949146  15.9949146  12.0000000  12.0000000  12.0000000  12.0000000  12.0000000   1.0078250   1.0078250   1.0078250
 NucSpn=           0           0           0           0           0           0           0           1           1           1
 AtZEff=  -0.0000000  -0.0000000  -0.0000000  -0.0000000  -0.0000000  -0.0000000  -0.0000000  -0.0000000  -0.0000000  -0.0000000
 NQMom=    0.0000000   0.0000000   0.0000000   0.0000000   0.0000000   0.0000000   0.0000000   0.0000000   0.0000000   0.0000000
 NMagM=    0.0000000   0.0000000   0.0000000   0.0000000   0.0000000   0.0000000   0.0000000   2.7928460   2.7928460   2.7928460
 AtZNuc=   8.0000000   8.0000000   6.0000000   6.0000000   6.0000000   6.0000000   6.0000000   1.0000000   1.0000000   1.0000000

  Atom        11          12          13          14          15          16          17
 IAtWgt=           1           1           1           1           1           1           1
 AtmWgt=   1.0078250   1.0078250   1.0078250   1.0078250   1.0078250   1.0078250   1.0078250
 NucSpn=           1           1           1           1           1           1           1
 AtZEff=  -0.0000000  -0.0000000  -0.0000000  -0.0000000  -0.0000000  -0.0000000  -0.0000000
 NQMom=    0.0000000   0.0000000   0.0000000   0.0000000   0.0000000   0.0000000   0.0000000
 NMagM=    2.7928460   2.7928460   2.7928460   2.7928460   2.7928460   2.7928460   2.7928460
 AtZNuc=   1.0000000   1.0000000   1.0000000   1.0000000   1.0000000   1.0000000   1.0000000
 Leave Link  101 at Thu Sep 26 01:51:42 2019, MaxMem=   671088640 cpu:               2.1 elap:               1.1
 (Enter /shared/centos7/gaussian/g16/l103.exe)

 GradGradGradGradGradGradGradGradGradGradGradGradGradGradGradGradGradGrad
 Berny optimization.
 Initialization pass.
                           ----------------------------
                           !    Initial Parameters    !
                           ! (Angstroms and Degrees)  !
 --------------------------                            --------------------------
 ! Name  Definition              Value          Derivative Info.                !
 --------------------------------------------------------------------------------
 ! R1    R(1,3)                  1.412          calculate D2E/DX2 analytically  !
 ! R2    R(1,6)                  1.3762         calculate D2E/DX2 analytically  !
 ! R3    R(2,7)                  1.3869         calculate D2E/DX2 analytically  !
 ! R4    R(2,17)                 1.0009         calculate D2E/DX2 analytically  !
 ! R5    R(3,4)                  1.5287         calculate D2E/DX2 analytically  !
 ! R6    R(3,5)                  1.4933         calculate D2E/DX2 analytically  !
 ! R7    R(3,8)                  1.1253         calculate D2E/DX2 analytically  !
 ! R8    R(4,9)                  1.1101         calculate D2E/DX2 analytically  !
 ! R9    R(4,10)                 1.1052         calculate D2E/DX2 analytically  !
 ! R10   R(4,11)                 1.1237         calculate D2E/DX2 analytically  !
 ! R11   R(5,12)                 1.1299         calculate D2E/DX2 analytically  !
 ! R12   R(5,13)                 1.11           calculate D2E/DX2 analytically  !
 ! R13   R(5,14)                 1.1267         calculate D2E/DX2 analytically  !
 ! R14   R(6,7)                  1.3016         calculate D2E/DX2 analytically  !
 ! R15   R(6,15)                 1.1017         calculate D2E/DX2 analytically  !
 ! R16   R(7,16)                 1.08           calculate D2E/DX2 analytically  !
 ! A1    A(3,1,6)              111.2873         calculate D2E/DX2 analytically  !
 ! A2    A(7,2,17)             107.251          calculate D2E/DX2 analytically  !
 ! A3    A(1,3,4)              107.835          calculate D2E/DX2 analytically  !
 ! A4    A(1,3,5)              111.6516         calculate D2E/DX2 analytically  !
 ! A5    A(1,3,8)              108.4869         calculate D2E/DX2 analytically  !
 ! A6    A(4,3,5)              115.2662         calculate D2E/DX2 analytically  !
 ! A7    A(4,3,8)              106.8506         calculate D2E/DX2 analytically  !
 ! A8    A(5,3,8)              106.4665         calculate D2E/DX2 analytically  !
 ! A9    A(3,4,9)              109.372          calculate D2E/DX2 analytically  !
 ! A10   A(3,4,10)             111.4917         calculate D2E/DX2 analytically  !
 ! A11   A(3,4,11)             112.2081         calculate D2E/DX2 analytically  !
 ! A12   A(9,4,10)             107.4636         calculate D2E/DX2 analytically  !
 ! A13   A(9,4,11)             108.353          calculate D2E/DX2 analytically  !
 ! A14   A(10,4,11)            107.7895         calculate D2E/DX2 analytically  !
 ! A15   A(3,5,12)             112.3807         calculate D2E/DX2 analytically  !
 ! A16   A(3,5,13)             110.7556         calculate D2E/DX2 analytically  !
 ! A17   A(3,5,14)             111.3561         calculate D2E/DX2 analytically  !
 ! A18   A(12,5,13)            108.3656         calculate D2E/DX2 analytically  !
 ! A19   A(12,5,14)            106.7754         calculate D2E/DX2 analytically  !
 ! A20   A(13,5,14)            106.9611         calculate D2E/DX2 analytically  !
 ! A21   A(1,6,7)              124.2197         calculate D2E/DX2 analytically  !
 ! A22   A(1,6,15)             115.2171         calculate D2E/DX2 analytically  !
 ! A23   A(7,6,15)             120.5117         calculate D2E/DX2 analytically  !
 ! A24   A(2,7,6)              123.0504         calculate D2E/DX2 analytically  !
 ! A25   A(2,7,16)             114.6876         calculate D2E/DX2 analytically  !
 ! A26   A(6,7,16)             122.2162         calculate D2E/DX2 analytically  !
 ! D1    D(6,1,3,4)           -150.2984         calculate D2E/DX2 analytically  !
 ! D2    D(6,1,3,5)             82.1027         calculate D2E/DX2 analytically  !
 ! D3    D(6,1,3,8)            -34.9164         calculate D2E/DX2 analytically  !
 ! D4    D(3,1,6,7)            -93.42           calculate D2E/DX2 analytically  !
 ! D5    D(3,1,6,15)            89.1862         calculate D2E/DX2 analytically  !
 ! D6    D(17,2,7,6)           155.5705         calculate D2E/DX2 analytically  !
 ! D7    D(17,2,7,16)          -26.8426         calculate D2E/DX2 analytically  !
 ! D8    D(1,3,4,9)              0.6103         calculate D2E/DX2 analytically  !
 ! D9    D(1,3,4,10)           119.3168         calculate D2E/DX2 analytically  !
 ! D10   D(1,3,4,11)          -119.6584         calculate D2E/DX2 analytically  !
 ! D11   D(5,3,4,9)            126.092          calculate D2E/DX2 analytically  !
 ! D12   D(5,3,4,10)          -115.2015         calculate D2E/DX2 analytically  !
 ! D13   D(5,3,4,11)             5.8233         calculate D2E/DX2 analytically  !
 ! D14   D(8,3,4,9)           -115.8442         calculate D2E/DX2 analytically  !
 ! D15   D(8,3,4,10)             2.8623         calculate D2E/DX2 analytically  !
 ! D16   D(8,3,4,11)           123.8871         calculate D2E/DX2 analytically  !
 ! D17   D(1,3,5,12)           106.7078         calculate D2E/DX2 analytically  !
 ! D18   D(1,3,5,13)           -14.6547         calculate D2E/DX2 analytically  !
 ! D19   D(1,3,5,14)          -133.5463         calculate D2E/DX2 analytically  !
 ! D20   D(4,3,5,12)           -16.7791         calculate D2E/DX2 analytically  !
 ! D21   D(4,3,5,13)          -138.1416         calculate D2E/DX2 analytically  !
 ! D22   D(4,3,5,14)           102.9668         calculate D2E/DX2 analytically  !
 ! D23   D(8,3,5,12)          -135.0575         calculate D2E/DX2 analytically  !
 ! D24   D(8,3,5,13)           103.58           calculate D2E/DX2 analytically  !
 ! D25   D(8,3,5,14)           -15.3116         calculate D2E/DX2 analytically  !
 ! D26   D(1,6,7,2)             -2.2274         calculate D2E/DX2 analytically  !
 ! D27   D(1,6,7,16)          -179.6358         calculate D2E/DX2 analytically  !
 ! D28   D(15,6,7,2)           175.0356         calculate D2E/DX2 analytically  !
 ! D29   D(15,6,7,16)           -2.3728         calculate D2E/DX2 analytically  !
 --------------------------------------------------------------------------------
 Trust Radius=3.00D-01 FncErr=1.00D-07 GrdErr=1.00D-06 EigMax=2.50D+02 EigMin=1.00D-04
 Number of steps in this run=    102 maximum allowed number of steps=    102.
 GradGradGradGradGradGradGradGradGradGradGradGradGradGradGradGradGradGrad

 Leave Link  103 at Thu Sep 26 01:51:43 2019, MaxMem=   671088640 cpu:               1.5 elap:               0.7
 (Enter /shared/centos7/gaussian/g16/l202.exe)
                          Input orientation:                          
 ---------------------------------------------------------------------
 Center     Atomic      Atomic             Coordinates (Angstroms)
 Number     Number       Type             X           Y           Z
 ---------------------------------------------------------------------
      1          8           0       -0.362363   -1.385044    1.477341
      2          8           0        0.550008    0.149473   -0.721525
      3          6           0       -1.173832   -0.508360    2.230216
      4          6           0       -2.240492   -1.346655    2.934850
      5          6           0       -1.694681    0.614478    1.394740
      6          6           0        0.921350   -0.902642    1.362174
      7          6           0        1.344986   -0.179623    0.366269
      8          1           0       -0.542146   -0.040433    3.035426
      9          1           0       -2.093552   -2.417519    2.682122
     10          1           0       -2.169005   -1.252371    4.033706
     11          1           0       -3.281457   -1.051247    2.631936
     12          1           0       -2.794465    0.502577    1.160988
     13          1           0       -1.138625    0.682563    0.436490
     14          1           0       -1.572374    1.605430    1.916867
     15          1           0        1.611076   -1.207264    2.165430
     16          1           0        2.362440    0.177539    0.305887
     17          1           0        0.922538    0.989567   -1.118067
 ---------------------------------------------------------------------
                    Distance matrix (angstroms):
                    1          2          3          4          5
     1  O    0.000000
     2  O    2.832344   0.000000
     3  C    1.412047   3.480968   0.000000
     4  C    2.377640   4.836772   1.528729   0.000000
     5  C    2.404159   3.119845   1.493342   2.552625   0.000000
     6  C    1.376189   2.363608   2.301900   3.559172   3.024290
     7  C    2.366973   1.386935   3.150684   4.562371   3.305741
     8  H    2.065897   3.917084   1.125320   2.144927   2.109289
     9  H    2.348301   5.016240   2.166793   1.110050   3.318050
    10  H    3.133139   5.654239   2.190091   1.105209   3.267148
    11  H    3.156837   5.231400   2.213185   1.123668   2.612117
    12  H    3.094884   3.854093   2.188993   2.621665   1.129905
    13  H    2.441506   2.115814   2.153367   3.402005   1.109989
    14  H    3.255801   3.685842   2.173736   3.193349   1.126748
    15  H    2.097507   3.361712   2.871999   3.930142   3.852368
    16  H    3.352390   2.083572   4.083958   5.515577   4.223357
    17  H    3.745115   1.000891   4.224873   5.647019   3.647564
                    6          7          8          9         10
     6  C    0.000000
     7  C    1.301558   0.000000
     8  H    2.384323   3.271856   0.000000
     9  H    3.623086   4.711146   2.860459   0.000000
    10  H    4.099962   5.191244   2.260979   1.786069   0.000000
    11  H    4.392945   5.224648   2.947605   1.811169   1.800822
    12  H    3.977738   4.269898   2.980154   3.366316   3.423967
    13  H    2.759214   2.629947   2.762784   3.945282   4.212554
    14  H    3.580052   3.755231   2.240850   4.128118   3.606106
    15  H    1.101697   2.088979   2.598990   3.931407   4.216812
    16  H    2.087887   1.080011   3.991806   5.677736   6.039476
    17  H    3.119624   1.936161   4.523019   5.928446   6.412853
                   11         12         13         14         15
    11  H    0.000000
    12  H    2.194360   0.000000
    13  H    3.523891   1.816341   0.000000
    14  H    3.238861   1.811392   1.797592   0.000000
    15  H    4.917199   4.831278   3.757863   4.255277   0.000000
    16  H    6.226876   5.237414   3.539712   4.485185   2.437238
    17  H    5.991746   4.387181   2.599864   3.976770   4.010175
                   16         17
    16  H    0.000000
    17  H    2.181823   0.000000
 Stoichiometry    C5H10O2
 Framework group  C1[X(C5H10O2)]
 Deg. of freedom    45
 Full point group                 C1      NOp   1
 Largest Abelian subgroup         C1      NOp   1
 Largest concise Abelian subgroup C1      NOp   1
                         Standard orientation:                         
 ---------------------------------------------------------------------
 Center     Atomic      Atomic             Coordinates (Angstroms)
 Number     Number       Type             X           Y           Z
 ---------------------------------------------------------------------
      1          8           0       -0.252711   -0.768418   -0.483743
      2          8           0        2.160166    0.714553   -0.515247
      3          6           0       -1.152776    0.003911    0.282592
      4          6           0       -2.565220   -0.277323   -0.230166
      5          6           0       -0.759131    1.444201    0.308618
      6          6           0        0.862571   -1.107796    0.247600
      7          6           0        1.968855   -0.422145    0.256054
      8          1           0       -1.114723   -0.356467    1.347968
      9          1           0       -2.516512   -1.017079   -1.056363
     10          1           0       -3.205572   -0.706390    0.561881
     11          1           0       -3.069888    0.650011   -0.614864
     12          1           0       -1.436440    2.086883   -0.327699
     13          1           0        0.283503    1.573560   -0.049508
     14          1           0       -0.801884    1.862430    1.353997
     15          1           0        0.783707   -2.049334    0.814190
     16          1           0        2.827546   -0.721832    0.838515
     17          1           0        2.864836    1.264050   -0.064386
 ---------------------------------------------------------------------
 Rotational constants (GHZ):           5.1394458           1.6898925           1.4071220
 Leave Link  202 at Thu Sep 26 01:51:45 2019, MaxMem=   671088640 cpu:               3.3 elap:               1.7
 (Enter /shared/centos7/gaussian/g16/l301.exe)
 Standard basis: CC-pVTZ (5D, 7F)
 Ernie: Thresh=  0.10000D-02 Tol=  0.10000D-05 Strict=F.
 Ernie:  21 primitive shells out of 262 were deleted.
 There are   395 symmetry adapted cartesian basis functions of A   symmetry.
 There are   350 symmetry adapted basis functions of A   symmetry.
   350 basis functions,   534 primitive gaussians,   395 cartesian basis functions
    28 alpha electrons       28 beta electrons
       nuclear repulsion energy       320.0966578742 Hartrees.
 IExCor= 4336 DFT=T Ex+Corr=M062X ExCW=0 ScaHFX=  0.540000
 ScaDFX=  1.000000  1.000000  1.000000  1.000000 ScalE2=  1.000000  1.000000
 IRadAn=      5 IRanWt=     -1 IRanGd=            0 ICorTp=0 IEmpDi=  4
 NAtoms=   17 NActive=   17 NUniq=   17 SFac= 1.00D+00 NAtFMM=   60 NAOKFM=F Big=F
 Integral buffers will be    131072 words long.
 Raffenetti 2 integral format.
 Two-electron integral symmetry is turned on.
 Leave Link  301 at Thu Sep 26 01:51:46 2019, MaxMem=   671088640 cpu:               1.5 elap:               0.8
 (Enter /shared/centos7/gaussian/g16/l302.exe)
 NPDir=0 NMtPBC=     1 NCelOv=     1 NCel=       1 NClECP=     1 NCelD=      1
         NCelK=      1 NCelE2=     1 NClLst=     1 CellRange=     0.0.
 One-electron integrals computed using PRISM.
 One-electron integral symmetry used in STVInt
 NBasis=   350 RedAO= T EigKep=  2.83D-04  NBF=   350
 NBsUse=   350 1.00D-06 EigRej= -1.00D+00 NBFU=   350
 Precomputing XC quadrature grid using
 IXCGrd= 4 IRadAn=           5 IRanWt=          -1 IRanGd=           0 AccXCQ= 0.00D+00.
 Generated NRdTot=       0 NPtTot=           0 NUsed=           0 NTot=          32
 NSgBfM=   395   395   395   395   395 MxSgAt=    17 MxSgA2=    17.
 Leave Link  302 at Thu Sep 26 01:52:45 2019, MaxMem=   671088640 cpu:             118.3 elap:              59.2
 (Enter /shared/centos7/gaussian/g16/l303.exe)
 DipDrv:  MaxL=1.
 Leave Link  303 at Thu Sep 26 01:52:50 2019, MaxMem=   671088640 cpu:              11.2 elap:               5.6
 (Enter /shared/centos7/gaussian/g16/l401.exe)
 ExpMin= 1.03D-01 ExpMax= 1.53D+04 ExpMxC= 5.22D+02 IAcc=3 IRadAn=         5 AccDes= 0.00D+00
 Harris functional with IExCor= 1009 and IRadAn=       5 diagonalized for initial guess.
 HarFok:  IExCor= 1009 AccDes= 0.00D+00 IRadAn=         5 IDoV= 1 UseB2=F ITyADJ=14
 ICtDFT=  3500011 ScaDFX=  1.000000  1.000000  1.000000  1.000000
 FoFCou: FMM=F IPFlag=           0 FMFlag=      100000 FMFlg1=           0
         NFxFlg=           0 DoJE=T BraDBF=F KetDBF=T FulRan=T
         wScrn=  0.000000 ICntrl=       500 IOpCl=  0 I1Cent=   200000004 NGrid=           0
         NMat0=    1 NMatS0=      1 NMatT0=    0 NMatD0=    1 NMtDS0=    0 NMtDT0=    0
 Petite list used in FoFCou.
 Harris En= -346.804592426187    
 JPrj=0 DoOrth=F DoCkMO=F.
 Leave Link  401 at Thu Sep 26 01:53:21 2019, MaxMem=   671088640 cpu:              61.8 elap:              30.9
 (Enter /shared/centos7/gaussian/g16/l502.exe)
 Integral symmetry usage will be decided dynamically.
 Closed shell SCF:
 Using DIIS extrapolation, IDIIS=  1040.
 NGot=   671088640 LenX=   670765141 LenY=   670608675
 Requested convergence on RMS density matrix=1.00D-08 within 900 cycles.
 Requested convergence on MAX density matrix=1.00D-06.
 Requested convergence on             energy=1.00D-06.
 No special actions if energy rises.
 Fock matrices will be formed incrementally for  20 cycles.
 Integral accuracy reduced to 1.0D-05 until final iterations.

 Cycle   1  Pass 0  IDiag  1:
 FoFJK:  IHMeth= 1 ICntrl=       0 DoSepK=F KAlg= 0 I1Cent=           0 FoldK=F
 IRaf= 960000000 NMat=       1 IRICut=       1 DoRegI=T DoRafI=F ISym2E= 0 IDoP0=0 IntGTp=1.
 FoFCou: FMM=F IPFlag=           0 FMFlag=      100000 FMFlg1=           0
         NFxFlg=           0 DoJE=F BraDBF=F KetDBF=F FulRan=T
         wScrn=  0.000000 ICntrl=         0 IOpCl=  0 I1Cent=           0 NGrid=           0
         NMat0=    1 NMatS0=      1 NMatT0=    0 NMatD0=    1 NMtDS0=    0 NMtDT0=    0
 Symmetry not used in FoFCou.
 E= -346.683156725894    
 DIIS: error= 1.99D-02 at cycle   1 NSaved=   1.
 NSaved= 1 IEnMin= 1 EnMin= -346.683156725894     IErMin= 1 ErrMin= 1.99D-02
 ErrMax= 1.99D-02  0.00D+00 EMaxC= 1.00D-01 BMatC= 2.90D-01 BMatP= 2.90D-01
 IDIUse=3 WtCom= 8.01D-01 WtEn= 1.99D-01
 Coeff-Com:  0.100D+01
 Coeff-En:   0.100D+01
 Coeff:      0.100D+01
 Gap=     0.363 Goal=   None    Shift=    0.000
 GapD=    0.363 DampG=1.000 DampE=0.500 DampFc=0.5000 IDamp=-1.
 Damping current iteration by 5.00D-01
 RMSDP=2.55D-03 MaxDP=1.64D-01              OVMax= 1.46D-01

 Cycle   2  Pass 0  IDiag  1:
 RMSU=  1.28D-03    CP:  1.00D+00
 E= -346.803794813455     Delta-E=       -0.120638087560 Rises=F Damp=T
 DIIS: error= 4.53D-03 at cycle   2 NSaved=   2.
 NSaved= 2 IEnMin= 2 EnMin= -346.803794813455     IErMin= 2 ErrMin= 4.53D-03
 ErrMax= 4.53D-03  0.00D+00 EMaxC= 1.00D-01 BMatC= 2.13D-02 BMatP= 2.90D-01
 IDIUse=3 WtCom= 9.55D-01 WtEn= 4.53D-02
 Coeff-Com: -0.118D+00 0.112D+01
 Coeff-En:   0.000D+00 0.100D+01
 Coeff:     -0.112D+00 0.111D+01
 Gap=     0.345 Goal=   None    Shift=    0.000
 RMSDP=5.43D-04 MaxDP=2.98D-02 DE=-1.21D-01 OVMax= 7.22D-02

 Cycle   3  Pass 0  IDiag  1:
 RMSU=  4.91D-04    CP:  1.01D+00  8.20D-01
 E= -346.914443275442     Delta-E=       -0.110648461987 Rises=F Damp=F
 DIIS: error= 2.85D-03 at cycle   3 NSaved=   3.
 NSaved= 3 IEnMin= 3 EnMin= -346.914443275442     IErMin= 3 ErrMin= 2.85D-03
 ErrMax= 2.85D-03  0.00D+00 EMaxC= 1.00D-01 BMatC= 4.29D-03 BMatP= 2.13D-02
 IDIUse=3 WtCom= 9.72D-01 WtEn= 2.85D-02
 Coeff-Com: -0.836D-01 0.327D+00 0.757D+00
 Coeff-En:   0.000D+00 0.000D+00 0.100D+01
 Coeff:     -0.813D-01 0.317D+00 0.764D+00
 Gap=     0.343 Goal=   None    Shift=    0.000
 RMSDP=2.21D-04 MaxDP=1.53D-02 DE=-1.11D-01 OVMax= 1.24D-02

 Cycle   4  Pass 0  IDiag  1:
 RMSU=  1.30D-04    CP:  1.01D+00  9.49D-01  8.59D-01
 E= -346.916838143335     Delta-E=       -0.002394867893 Rises=F Damp=F
 DIIS: error= 1.12D-03 at cycle   4 NSaved=   4.
 NSaved= 4 IEnMin= 4 EnMin= -346.916838143335     IErMin= 4 ErrMin= 1.12D-03
 ErrMax= 1.12D-03  0.00D+00 EMaxC= 1.00D-01 BMatC= 1.18D-03 BMatP= 4.29D-03
 IDIUse=3 WtCom= 9.89D-01 WtEn= 1.12D-02
 Coeff-Com: -0.292D-01 0.772D-01 0.386D+00 0.566D+00
 Coeff-En:   0.000D+00 0.000D+00 0.166D+00 0.834D+00
 Coeff:     -0.288D-01 0.763D-01 0.384D+00 0.569D+00
 Gap=     0.340 Goal=   None    Shift=    0.000
 RMSDP=7.66D-05 MaxDP=5.38D-03 DE=-2.39D-03 OVMax= 5.53D-03

 Cycle   5  Pass 0  IDiag  1:
 RMSU=  2.88D-05    CP:  1.01D+00  9.17D-01  9.21D-01  6.24D-01
 E= -346.917691638146     Delta-E=       -0.000853494811 Rises=F Damp=F
 DIIS: error= 1.91D-04 at cycle   5 NSaved=   5.
 NSaved= 5 IEnMin= 5 EnMin= -346.917691638146     IErMin= 5 ErrMin= 1.91D-04
 ErrMax= 1.91D-04  0.00D+00 EMaxC= 1.00D-01 BMatC= 2.73D-05 BMatP= 1.18D-03
 IDIUse=3 WtCom= 9.98D-01 WtEn= 1.91D-03
 Coeff-Com: -0.529D-02 0.989D-02 0.961D-01 0.205D+00 0.695D+00
 Coeff-En:   0.000D+00 0.000D+00 0.000D+00 0.000D+00 0.100D+01
 Coeff:     -0.528D-02 0.987D-02 0.959D-01 0.204D+00 0.695D+00
 Gap=     0.340 Goal=   None    Shift=    0.000
 RMSDP=1.04D-05 MaxDP=3.11D-04 DE=-8.53D-04 OVMax= 7.88D-04

 Cycle   6  Pass 0  IDiag  1:
 RMSU=  8.04D-06    CP:  1.01D+00  9.13D-01  9.27D-01  6.48D-01  9.10D-01
 E= -346.917710411113     Delta-E=       -0.000018772968 Rises=F Damp=F
 DIIS: error= 4.86D-05 at cycle   6 NSaved=   6.
 NSaved= 6 IEnMin= 6 EnMin= -346.917710411113     IErMin= 6 ErrMin= 4.86D-05
 ErrMax= 4.86D-05  0.00D+00 EMaxC= 1.00D-01 BMatC= 1.68D-06 BMatP= 2.73D-05
 IDIUse=1 WtCom= 1.00D+00 WtEn= 0.00D+00
 Coeff-Com: -0.433D-04-0.111D-02 0.113D-01 0.442D-01 0.236D+00 0.709D+00
 Coeff:     -0.433D-04-0.111D-02 0.113D-01 0.442D-01 0.236D+00 0.709D+00
 Gap=     0.340 Goal=   None    Shift=    0.000
 RMSDP=3.43D-06 MaxDP=1.88D-04 DE=-1.88D-05 OVMax= 3.50D-04

 Initial convergence to 1.0D-05 achieved.  Increase integral accuracy.
 Cycle   7  Pass 1  IDiag  1:
 E= -346.917708062586     Delta-E=        0.000002348527 Rises=F Damp=F
 DIIS: error= 2.63D-05 at cycle   1 NSaved=   1.
 NSaved= 1 IEnMin= 1 EnMin= -346.917708062586     IErMin= 1 ErrMin= 2.63D-05
 ErrMax= 2.63D-05  0.00D+00 EMaxC= 1.00D-01 BMatC= 6.40D-07 BMatP= 6.40D-07
 IDIUse=1 WtCom= 1.00D+00 WtEn= 0.00D+00
 Coeff-Com:  0.100D+01
 Coeff:      0.100D+01
 Gap=     0.340 Goal=   None    Shift=    0.000
 RMSDP=3.43D-06 MaxDP=1.88D-04 DE= 2.35D-06 OVMax= 1.52D-04

 Cycle   8  Pass 1  IDiag  1:
 RMSU=  6.78D-06    CP:  1.00D+00
 E= -346.917708299300     Delta-E=       -0.000000236715 Rises=F Damp=F
 DIIS: error= 1.43D-05 at cycle   2 NSaved=   2.
 NSaved= 2 IEnMin= 2 EnMin= -346.917708299300     IErMin= 2 ErrMin= 1.43D-05
 ErrMax= 1.43D-05  0.00D+00 EMaxC= 1.00D-01 BMatC= 2.20D-07 BMatP= 6.40D-07
 IDIUse=1 WtCom= 1.00D+00 WtEn= 0.00D+00
 Coeff-Com:  0.328D+00 0.672D+00
 Coeff:      0.328D+00 0.672D+00
 Gap=     0.340 Goal=   None    Shift=    0.000
 RMSDP=1.18D-06 MaxDP=6.44D-05 DE=-2.37D-07 OVMax= 1.20D-04

 Cycle   9  Pass 1  IDiag  1:
 RMSU=  1.17D-06    CP:  1.00D+00  9.93D-01
 E= -346.917708437200     Delta-E=       -0.000000137900 Rises=F Damp=F
 DIIS: error= 6.24D-06 at cycle   3 NSaved=   3.
 NSaved= 3 IEnMin= 3 EnMin= -346.917708437200     IErMin= 3 ErrMin= 6.24D-06
 ErrMax= 6.24D-06  0.00D+00 EMaxC= 1.00D-01 BMatC= 4.97D-08 BMatP= 2.20D-07
 IDIUse=1 WtCom= 1.00D+00 WtEn= 0.00D+00
 Coeff-Com: -0.126D-01 0.314D+00 0.699D+00
 Coeff:     -0.126D-01 0.314D+00 0.699D+00
 Gap=     0.340 Goal=   None    Shift=    0.000
 RMSDP=4.35D-07 MaxDP=2.55D-05 DE=-1.38D-07 OVMax= 3.14D-05

 Cycle  10  Pass 1  IDiag  1:
 RMSU=  2.66D-07    CP:  1.00D+00  1.02D+00  7.70D-01
 E= -346.917708471969     Delta-E=       -0.000000034769 Rises=F Damp=F
 DIIS: error= 1.07D-06 at cycle   4 NSaved=   4.
 NSaved= 4 IEnMin= 4 EnMin= -346.917708471969     IErMin= 4 ErrMin= 1.07D-06
 ErrMax= 1.07D-06  0.00D+00 EMaxC= 1.00D-01 BMatC= 1.32D-09 BMatP= 4.97D-08
 IDIUse=1 WtCom= 1.00D+00 WtEn= 0.00D+00
 Coeff-Com: -0.130D-01 0.114D+00 0.279D+00 0.620D+00
 Coeff:     -0.130D-01 0.114D+00 0.279D+00 0.620D+00
 Gap=     0.340 Goal=   None    Shift=    0.000
 RMSDP=1.03D-07 MaxDP=5.31D-06 DE=-3.48D-08 OVMax= 7.73D-06

 Cycle  11  Pass 1  IDiag  1:
 RMSU=  9.28D-08    CP:  1.00D+00  1.03D+00  8.04D-01  1.03D+00
 E= -346.917708473020     Delta-E=       -0.000000001052 Rises=F Damp=F
 DIIS: error= 3.66D-07 at cycle   5 NSaved=   5.
 NSaved= 5 IEnMin= 5 EnMin= -346.917708473020     IErMin= 5 ErrMin= 3.66D-07
 ErrMax= 3.66D-07  0.00D+00 EMaxC= 1.00D-01 BMatC= 1.38D-10 BMatP= 1.32D-09
 IDIUse=1 WtCom= 1.00D+00 WtEn= 0.00D+00
 Coeff-Com: -0.101D-02-0.218D-01-0.510D-01 0.179D+00 0.895D+00
 Coeff:     -0.101D-02-0.218D-01-0.510D-01 0.179D+00 0.895D+00
 Gap=     0.340 Goal=   None    Shift=    0.000
 RMSDP=5.00D-08 MaxDP=2.18D-06 DE=-1.05D-09 OVMax= 6.65D-06

 Cycle  12  Pass 1  IDiag  1:
 RMSU=  2.63D-08    CP:  1.00D+00  1.03D+00  8.06D-01  1.18D+00  9.59D-01
 E= -346.917708473186     Delta-E=       -0.000000000166 Rises=F Damp=F
 DIIS: error= 1.54D-07 at cycle   6 NSaved=   6.
 NSaved= 6 IEnMin= 6 EnMin= -346.917708473186     IErMin= 6 ErrMin= 1.54D-07
 ErrMax= 1.54D-07  0.00D+00 EMaxC= 1.00D-01 BMatC= 1.42D-11 BMatP= 1.38D-10
 IDIUse=1 WtCom= 1.00D+00 WtEn= 0.00D+00
 Coeff-Com:  0.884D-03-0.193D-01-0.472D-01 0.687D-02 0.343D+00 0.716D+00
 Coeff:      0.884D-03-0.193D-01-0.472D-01 0.687D-02 0.343D+00 0.716D+00
 Gap=     0.340 Goal=   None    Shift=    0.000
 RMSDP=1.65D-08 MaxDP=1.16D-06 DE=-1.66D-10 OVMax= 1.26D-06

 Cycle  13  Pass 1  IDiag  1:
 RMSU=  7.81D-09    CP:  1.00D+00  1.03D+00  8.12D-01  1.20D+00  1.06D+00
                    CP:  8.86D-01
 E= -346.917708473199     Delta-E=       -0.000000000013 Rises=F Damp=F
 DIIS: error= 3.66D-08 at cycle   7 NSaved=   7.
 NSaved= 7 IEnMin= 7 EnMin= -346.917708473199     IErMin= 7 ErrMin= 3.66D-08
 ErrMax= 3.66D-08  0.00D+00 EMaxC= 1.00D-01 BMatC= 1.01D-12 BMatP= 1.42D-11
 IDIUse=1 WtCom= 1.00D+00 WtEn= 0.00D+00
 Coeff-Com:  0.403D-03-0.538D-02-0.137D-01-0.890D-02 0.680D-01 0.254D+00
 Coeff-Com:  0.705D+00
 Coeff:      0.403D-03-0.538D-02-0.137D-01-0.890D-02 0.680D-01 0.254D+00
 Coeff:      0.705D+00
 Gap=     0.340 Goal=   None    Shift=    0.000
 RMSDP=3.19D-09 MaxDP=1.21D-07 DE=-1.33D-11 OVMax= 6.40D-07

 SCF Done:  E(RM062X) =  -346.917708473     A.U. after   13 cycles
            NFock= 13  Conv=0.32D-08     -V/T= 2.0061
 KE= 3.448024245988D+02 PE=-1.450510315160D+03 EE= 4.386935242140D+02
 Leave Link  502 at Thu Sep 26 02:03:16 2019, MaxMem=   671088640 cpu:            1190.3 elap:             595.2
 (Enter /shared/centos7/gaussian/g16/l801.exe)
 DoSCS=F DFT=T ScalE2(SS,OS)=  1.000000  1.000000
 Range of M.O.s used for correlation:     1   350
 NBasis=   350 NAE=    28 NBE=    28 NFC=     0 NFV=     0
 NROrb=    350 NOA=    28 NOB=    28 NVA=   322 NVB=   322

 **** Warning!!: The largest alpha MO coefficient is  0.11078112D+02

 Leave Link  801 at Thu Sep 26 02:03:18 2019, MaxMem=   671088640 cpu:               2.1 elap:               1.1
 (Enter /shared/centos7/gaussian/g16/l1101.exe)
 Using compressed storage, NAtomX=    17.
 Will process     18 centers per pass.
 Leave Link 1101 at Thu Sep 26 02:03:50 2019, MaxMem=   671088640 cpu:              65.6 elap:              32.8
 (Enter /shared/centos7/gaussian/g16/l1102.exe)
 Symmetrizing basis deriv contribution to polar:
 IMax=3 JMax=2 DiffMx= 0.00D+00
 Leave Link 1102 at Thu Sep 26 02:03:53 2019, MaxMem=   671088640 cpu:               5.6 elap:               2.8
 (Enter /shared/centos7/gaussian/g16/l1110.exe)
 Forming Gx(P) for the SCF density, NAtomX=    17.
 Integral derivatives from FoFJK, PRISM(SPDF).
 Do as many integral derivatives as possible in FoFJK.
 G2DrvN: MDV=     671087280.
 G2DrvN: will do    18 centers at a time, making    1 passes.
 Calling FoFCou, ICntrl=  3107 FMM=F I1Cent=   0 AccDes= 0.00D+00.
 FoFJK:  IHMeth= 1 ICntrl=    3107 DoSepK=F KAlg= 0 I1Cent=           0 FoldK=F
 IRaf=         0 NMat=       1 IRICut=       1 DoRegI=T DoRafI=F ISym2E= 0 IDoP0=0 IntGTp=1.
 FoFCou: FMM=F IPFlag=           0 FMFlag=      100000 FMFlg1=           0
         NFxFlg=           0 DoJE=F BraDBF=F KetDBF=F FulRan=T
         wScrn=  0.000000 ICntrl=      3107 IOpCl=  0 I1Cent=           0 NGrid=           0
         NMat0=    1 NMatS0=      1 NMatT0=    0 NMatD0=    1 NMtDS0=    0 NMtDT0=    0
 Symmetry not used in FoFCou.
 End of G2Drv F.D. properties file   721 does not exist.
 End of G2Drv F.D. properties file   722 does not exist.
 End of G2Drv F.D. properties file   788 does not exist.
 Leave Link 1110 at Thu Sep 26 02:21:44 2019, MaxMem=   671088640 cpu:            2141.1 elap:            1070.7
 (Enter /shared/centos7/gaussian/g16/l1002.exe)
 Minotr:  Closed shell wavefunction.
          IDoAtm=11111111111111111
          Direct CPHF calculation.
          Differentiating once with respect to nuclear coordinates.
          Requested convergence is 1.0D-08 RMS, and 1.0D-07 maximum.
          Secondary convergence is 1.0D-12 RMS, and 1.0D-12 maximum.
          NewPWx=T KeepS1=F KeepF1=F KeepIn=T MapXYZ=F SortEE=F KeepMc=T.
         5102 words used for storage of precomputed grid.
 Two-electron integrals replicated using symmetry.
          MDV=     671088640 using IRadAn=       1.
          Solving linear equations simultaneously, MaxMat=     380.
 FoF2E skips out because all densities are zero.
 CalDSu exits because no D1Ps are significant.
 FoFJK:  IHMeth= 1 ICntrl=       0 DoSepK=F KAlg= 0 I1Cent=           0 FoldK=F
 IRaf= 940000000 NMat=      51 IRICut=     127 DoRegI=T DoRafI=T ISym2E= 2 IDoP0=3 IntGTp=3.
 FoFCou: FMM=F IPFlag=           0 FMFlag=      100000 FMFlg1=           0
         NFxFlg=           0 DoJE=F BraDBF=F KetDBF=F FulRan=T
         wScrn=  0.000000 ICntrl=         0 IOpCl=  0 I1Cent=           0 NGrid=           0
         NMat0=   51 NMatS0=     51 NMatT0=    0 NMatD0=   51 NMtDS0=    0 NMtDT0=    0
 Integrals replicated using symmetry in FoFCou.
 Raff kept on since  90.95% of shell-pairs survive, threshold=   0.20 IRatSp=91.
          There are    54 degrees of freedom in the 1st order CPHF.  IDoFFX=6 NUNeed=     0.
     48 vectors produced by pass  0 Test12= 1.67D-14 1.85D-09 XBig12= 7.15D-02 6.41D-02.
 AX will form    48 AO Fock derivatives at one time.
     48 vectors produced by pass  1 Test12= 1.67D-14 1.85D-09 XBig12= 4.49D-03 2.21D-02.
     48 vectors produced by pass  2 Test12= 1.67D-14 1.85D-09 XBig12= 1.22D-04 1.76D-03.
     48 vectors produced by pass  3 Test12= 1.67D-14 1.85D-09 XBig12= 1.14D-06 1.44D-04.
     48 vectors produced by pass  4 Test12= 1.67D-14 1.85D-09 XBig12= 6.52D-09 1.22D-05.
     48 vectors produced by pass  5 Test12= 1.67D-14 1.85D-09 XBig12= 3.21D-11 7.59D-07.
     25 vectors produced by pass  6 Test12= 1.67D-14 1.85D-09 XBig12= 1.37D-13 3.55D-08.
      5 vectors produced by pass  7 Test12= 1.67D-14 1.85D-09 XBig12= 4.59D-16 2.18D-09.
 InvSVY:  IOpt=1 It=  1 EMax= 2.22D-16
 Solved reduced A of dimension   318 with    54 vectors.
 End of Minotr F.D. properties file   721 does not exist.
 End of Minotr F.D. properties file   722 does not exist.
 End of Minotr F.D. properties file   788 does not exist.
 Leave Link 1002 at Thu Sep 26 02:51:04 2019, MaxMem=   671088640 cpu:            3519.4 elap:            1760.0
 (Enter /shared/centos7/gaussian/g16/l601.exe)
 Copying SCF densities to generalized density rwf, IOpCl= 0 IROHF=0.

 **********************************************************************

            Population analysis using the SCF density.

 **********************************************************************

 Orbital symmetries:
       Occupied  (A) (A) (A) (A) (A) (A) (A) (A) (A) (A) (A) (A)
                 (A) (A) (A) (A) (A) (A) (A) (A) (A) (A) (A) (A)
                 (A) (A) (A) (A)
       Virtual   (A) (A) (A) (A) (A) (A) (A) (A) (A) (A) (A) (A)
                 (A) (A) (A) (A) (A) (A) (A) (A) (A) (A) (A) (A)
                 (A) (A) (A) (A) (A) (A) (A) (A) (A) (A) (A) (A)
                 (A) (A) (A) (A) (A) (A) (A) (A) (A) (A) (A) (A)
                 (A) (A) (A) (A) (A) (A) (A) (A) (A) (A) (A) (A)
                 (A) (A) (A) (A) (A) (A) (A) (A) (A) (A) (A) (A)
                 (A) (A) (A) (A) (A) (A) (A) (A) (A) (A) (A) (A)
                 (A) (A) (A) (A) (A) (A) (A) (A) (A) (A) (A) (A)
                 (A) (A) (A) (A) (A) (A) (A) (A) (A) (A) (A) (A)
                 (A) (A) (A) (A) (A) (A) (A) (A) (A) (A) (A) (A)
                 (A) (A) (A) (A) (A) (A) (A) (A) (A) (A) (A) (A)
                 (A) (A) (A) (A) (A) (A) (A) (A) (A) (A) (A) (A)
                 (A) (A) (A) (A) (A) (A) (A) (A) (A) (A) (A) (A)
                 (A) (A) (A) (A) (A) (A) (A) (A) (A) (A) (A) (A)
                 (A) (A) (A) (A) (A) (A) (A) (A) (A) (A) (A) (A)
                 (A) (A) (A) (A) (A) (A) (A) (A) (A) (A) (A) (A)
                 (A) (A) (A) (A) (A) (A) (A) (A) (A) (A) (A) (A)
                 (A) (A) (A) (A) (A) (A) (A) (A) (A) (A) (A) (A)
                 (A) (A) (A) (A) (A) (A) (A) (A) (A) (A) (A) (A)
                 (A) (A) (A) (A) (A) (A) (A) (A) (A) (A) (A) (A)
                 (A) (A) (A) (A) (A) (A) (A) (A) (A) (A) (A) (A)
                 (A) (A) (A) (A) (A) (A) (A) (A) (A) (A) (A) (A)
                 (A) (A) (A) (A) (A) (A) (A) (A) (A) (A) (A) (A)
                 (A) (A) (A) (A) (A) (A) (A) (A) (A) (A) (A) (A)
                 (A) (A) (A) (A) (A) (A) (A) (A) (A) (A) (A) (A)
                 (A) (A) (A) (A) (A) (A) (A) (A) (A) (A) (A) (A)
                 (A) (A) (A) (A) (A) (A) (A) (A) (A) (A)
 The electronic state is 1-A.
 Alpha  occ. eigenvalues --  -19.65560 -19.62836 -10.58969 -10.58670 -10.57754
 Alpha  occ. eigenvalues --  -10.52429 -10.51715  -1.18114  -1.16120  -0.88604
 Alpha  occ. eigenvalues --   -0.83749  -0.77156  -0.68435  -0.65059  -0.61623
 Alpha  occ. eigenvalues --   -0.57685  -0.53773  -0.52503  -0.49670  -0.47571
 Alpha  occ. eigenvalues --   -0.44918  -0.44667  -0.43365  -0.42919  -0.39407
 Alpha  occ. eigenvalues --   -0.37203  -0.33600  -0.29448
 Alpha virt. eigenvalues --    0.04597   0.07140   0.08051   0.09885   0.10896
 Alpha virt. eigenvalues --    0.12024   0.13201   0.13737   0.16950   0.17643
 Alpha virt. eigenvalues --    0.18530   0.20532   0.22398   0.25007   0.25668
 Alpha virt. eigenvalues --    0.26720   0.29549   0.30804   0.32383   0.33040
 Alpha virt. eigenvalues --    0.35596   0.37089   0.37898   0.38154   0.40259
 Alpha virt. eigenvalues --    0.40618   0.41907   0.44274   0.46096   0.47095
 Alpha virt. eigenvalues --    0.48201   0.48531   0.49773   0.50147   0.50487
 Alpha virt. eigenvalues --    0.51034   0.51796   0.53086   0.54193   0.54667
 Alpha virt. eigenvalues --    0.56682   0.56922   0.57648   0.58540   0.62184
 Alpha virt. eigenvalues --    0.63357   0.66355   0.67222   0.71382   0.74914
 Alpha virt. eigenvalues --    0.75994   0.77510   0.80259   0.82179   0.83852
 Alpha virt. eigenvalues --    0.84061   0.85914   0.88022   0.91171   0.92794
 Alpha virt. eigenvalues --    0.95153   0.96494   0.97569   0.99287   1.00764
 Alpha virt. eigenvalues --    1.02108   1.03620   1.04533   1.05160   1.06226
 Alpha virt. eigenvalues --    1.07849   1.09521   1.10595   1.11206   1.11842
 Alpha virt. eigenvalues --    1.14511   1.17570   1.19205   1.19678   1.21550
 Alpha virt. eigenvalues --    1.22582   1.24697   1.25302   1.26017   1.27757
 Alpha virt. eigenvalues --    1.29530   1.32110   1.34017   1.34409   1.34981
 Alpha virt. eigenvalues --    1.36817   1.37764   1.38852   1.40197   1.41686
 Alpha virt. eigenvalues --    1.43432   1.44809   1.46771   1.48319   1.49320
 Alpha virt. eigenvalues --    1.51707   1.53230   1.55609   1.57608   1.59749
 Alpha virt. eigenvalues --    1.61959   1.62133   1.70365   1.79251   1.86976
 Alpha virt. eigenvalues --    1.89042   1.98930   2.00070   2.02502   2.07115
 Alpha virt. eigenvalues --    2.08092   2.09542   2.13862   2.14938   2.18674
 Alpha virt. eigenvalues --    2.21329   2.23773   2.27714   2.30528   2.33004
 Alpha virt. eigenvalues --    2.34570   2.37393   2.38958   2.39324   2.43055
 Alpha virt. eigenvalues --    2.46585   2.48984   2.52834   2.57657   2.57996
 Alpha virt. eigenvalues --    2.60220   2.63032   2.65426   2.66871   2.68626
 Alpha virt. eigenvalues --    2.71131   2.75660   2.77763   2.78129   2.79806
 Alpha virt. eigenvalues --    2.82296   2.83582   2.84584   2.84900   2.87526
 Alpha virt. eigenvalues --    2.88348   2.90111   2.91198   2.92940   2.95710
 Alpha virt. eigenvalues --    2.96266   2.97706   2.99111   3.01193   3.02667
 Alpha virt. eigenvalues --    3.03207   3.05438   3.05667   3.06879   3.08738
 Alpha virt. eigenvalues --    3.09139   3.09708   3.11592   3.13463   3.14619
 Alpha virt. eigenvalues --    3.14869   3.16889   3.20065   3.21096   3.23182
 Alpha virt. eigenvalues --    3.24493   3.27754   3.28700   3.29343   3.30629
 Alpha virt. eigenvalues --    3.31772   3.32073   3.34294   3.35722   3.37098
 Alpha virt. eigenvalues --    3.37636   3.38828   3.41055   3.41722   3.41945
 Alpha virt. eigenvalues --    3.45713   3.47765   3.48142   3.50795   3.52769
 Alpha virt. eigenvalues --    3.53788   3.56913   3.58943   3.61475   3.62141
 Alpha virt. eigenvalues --    3.62902   3.64491   3.67662   3.68124   3.71879
 Alpha virt. eigenvalues --    3.73558   3.74263   3.75362   3.76675   3.78103
 Alpha virt. eigenvalues --    3.80735   3.81420   3.82039   3.85124   3.85537
 Alpha virt. eigenvalues --    3.87735   3.90098   3.91322   3.92443   3.93680
 Alpha virt. eigenvalues --    3.94441   3.97491   3.98916   4.01452   4.01995
 Alpha virt. eigenvalues --    4.03423   4.04915   4.06683   4.07427   4.08394
 Alpha virt. eigenvalues --    4.10507   4.10991   4.12521   4.13786   4.17337
 Alpha virt. eigenvalues --    4.20058   4.22625   4.23666   4.27182   4.27607
 Alpha virt. eigenvalues --    4.31319   4.32084   4.34030   4.36894   4.37520
 Alpha virt. eigenvalues --    4.42809   4.46329   4.49210   4.51288   4.52920
 Alpha virt. eigenvalues --    4.56296   4.58830   4.65069   4.65509   4.67712
 Alpha virt. eigenvalues --    4.69650   4.72416   4.74216   4.75495   4.82459
 Alpha virt. eigenvalues --    4.83013   4.86861   4.88869   4.91718   4.94574
 Alpha virt. eigenvalues --    4.95617   4.97374   4.99332   5.03379   5.05000
 Alpha virt. eigenvalues --    5.06541   5.10100   5.10469   5.13303   5.16056
 Alpha virt. eigenvalues --    5.19455   5.19916   5.24289   5.26701   5.27910
 Alpha virt. eigenvalues --    5.29355   5.31845   5.36653   5.40312   5.47777
 Alpha virt. eigenvalues --    5.52828   5.57599   5.62108   5.66747   5.75212
 Alpha virt. eigenvalues --    5.76041   5.78746   5.79061   5.80661   5.82292
 Alpha virt. eigenvalues --    5.95707   5.97404   6.10500   6.22823   6.26492
 Alpha virt. eigenvalues --    6.34262   6.50404   6.53923   6.61692   6.67308
 Alpha virt. eigenvalues --    6.73143   6.79474   6.82047   6.83736   7.01730
 Alpha virt. eigenvalues --    7.12546   7.19489   7.27332   7.29696   7.39696
 Alpha virt. eigenvalues --   10.01411  10.58229  11.64695  11.95322  13.12810
 Alpha virt. eigenvalues --   13.44454  14.26515
          Condensed to atoms (all electrons):
               1          2          3          4          5          6
     1  O    7.901917   0.006420   0.277625  -0.046151  -0.049522   0.345097
     2  O    0.006420   7.812052   0.008068  -0.000167  -0.036862  -0.094185
     3  C    0.277625   0.008068   4.902705   0.322165   0.290872  -0.086736
     4  C   -0.046151  -0.000167   0.322165   4.980882  -0.053625   0.007891
     5  C   -0.049522  -0.036862   0.290872  -0.053625   5.129190   0.015479
     6  C    0.345097  -0.094185  -0.086736   0.007891   0.015479   5.050481
     7  C   -0.075717   0.333516   0.001247   0.000297   0.004602   0.435851
     8  H   -0.056015  -0.000285   0.407192  -0.050969  -0.078545   0.010905
     9  H    0.005470  -0.000006  -0.047376   0.390937   0.005034   0.001782
    10  H    0.002719   0.000004  -0.037370   0.398423   0.005921  -0.000463
    11  H    0.002614  -0.000002  -0.048522   0.403869  -0.006619  -0.000332
    12  H    0.002731   0.000207  -0.038573  -0.015238   0.396186   0.000043
    13  H    0.001516   0.037850  -0.032594   0.004184   0.372389  -0.018444
    14  H    0.004699  -0.000044  -0.043527   0.004645   0.385955   0.001773
    15  H   -0.047988   0.003101   0.000115  -0.001064  -0.001967   0.453098
    16  H    0.004701  -0.044874   0.000142   0.000028  -0.001660  -0.070899
    17  H   -0.000112   0.313851  -0.000161   0.000002   0.002465   0.009697
               7          8          9         10         11         12
     1  O   -0.075717  -0.056015   0.005470   0.002719   0.002614   0.002731
     2  O    0.333516  -0.000285  -0.000006   0.000004  -0.000002   0.000207
     3  C    0.001247   0.407192  -0.047376  -0.037370  -0.048522  -0.038573
     4  C    0.000297  -0.050969   0.390937   0.398423   0.403869  -0.015238
     5  C    0.004602  -0.078545   0.005034   0.005921  -0.006619   0.396186
     6  C    0.435851   0.010905   0.001782  -0.000463  -0.000332   0.000043
     7  C    5.041976  -0.012312   0.000006   0.000050   0.000050  -0.000498
     8  H   -0.012312   0.680425   0.007038  -0.011415   0.005124   0.009154
     9  H    0.000006   0.007038   0.565262  -0.029011  -0.026160   0.001136
    10  H    0.000050  -0.011415  -0.029011   0.600689  -0.036780   0.000375
    11  H    0.000050   0.005124  -0.026160  -0.036780   0.605652   0.002244
    12  H   -0.000498   0.009154   0.001136   0.000375   0.002244   0.596175
    13  H   -0.006084   0.004212  -0.000401  -0.000315   0.000892  -0.021813
    14  H   -0.001525  -0.009922  -0.000397  -0.000189  -0.000658  -0.034899
    15  H   -0.109819   0.010780   0.000165   0.000097  -0.000047   0.000058
    16  H    0.420814  -0.000156  -0.000007  -0.000003  -0.000003  -0.000014
    17  H   -0.034855  -0.000036  -0.000002   0.000000   0.000002   0.000035
              13         14         15         16         17
     1  O    0.001516   0.004699  -0.047988   0.004701  -0.000112
     2  O    0.037850  -0.000044   0.003101  -0.044874   0.313851
     3  C   -0.032594  -0.043527   0.000115   0.000142  -0.000161
     4  C    0.004184   0.004645  -0.001064   0.000028   0.000002
     5  C    0.372389   0.385955  -0.001967  -0.001660   0.002465
     6  C   -0.018444   0.001773   0.453098  -0.070899   0.009697
     7  C   -0.006084  -0.001525  -0.109819   0.420814  -0.034855
     8  H    0.004212  -0.009922   0.010780  -0.000156  -0.000036
     9  H   -0.000401  -0.000397   0.000165  -0.000007  -0.000002
    10  H   -0.000315  -0.000189   0.000097  -0.000003   0.000000
    11  H    0.000892  -0.000658  -0.000047  -0.000003   0.000002
    12  H   -0.021813  -0.034899   0.000058  -0.000014   0.000035
    13  H    0.543246  -0.027513   0.000329   0.002552  -0.003482
    14  H   -0.027513   0.620531   0.000349   0.000079  -0.000136
    15  H    0.000329   0.000349   0.569426  -0.003230  -0.000498
    16  H    0.002552   0.000079  -0.003230   0.586638  -0.011730
    17  H   -0.003482  -0.000136  -0.000498  -0.011730   0.455956
 Mulliken charges:
               1
     1  O   -0.280005
     2  O   -0.338644
     3  C    0.124728
     4  C   -0.346110
     5  C   -0.379293
     6  C   -0.061037
     7  C    0.002399
     8  H    0.084825
     9  H    0.126530
    10  H    0.107268
    11  H    0.098674
    12  H    0.102690
    13  H    0.143477
    14  H    0.100779
    15  H    0.127095
    16  H    0.117622
    17  H    0.269003
 Sum of Mulliken charges =  -0.00000
 Mulliken charges with hydrogens summed into heavy atoms:
               1
     1  O   -0.280005
     2  O   -0.069641
     3  C    0.209553
     4  C   -0.013638
     5  C   -0.032347
     6  C    0.066058
     7  C    0.120021
 APT charges:
               1
     1  O   -0.206933
     2  O   -0.797134
     3  C   -0.025301
     4  C   -1.274370
     5  C   -1.006752
     6  C   -0.524603
     7  C   -0.273792
     8  H    0.283967
     9  H    0.317811
    10  H    0.452734
    11  H    0.395530
    12  H    0.409295
    13  H    0.203976
    14  H    0.354168
    15  H    0.422749
    16  H    0.513123
    17  H    0.755530
 Sum of APT charges =  -0.00000
 APT charges with hydrogens summed into heavy atoms:
               1
     1  O   -0.206933
     2  O   -0.041604
     3  C    0.258665
     4  C   -0.108294
     5  C   -0.039312
     6  C   -0.101854
     7  C    0.239332
 Electronic spatial extent (au):  <R**2>=            896.9481
 Charge=              0.0000 electrons
 Dipole moment (field-independent basis, Debye):
    X=              1.4014    Y=              0.6173    Z=              2.3040  Tot=              2.7664
 Quadrupole moment (field-independent basis, Debye-Ang):
   XX=            -35.4268   YY=            -42.6660   ZZ=            -45.9812
   XY=              2.1241   XZ=              3.1925   YZ=             -1.0590
 Traceless Quadrupole moment (field-independent basis, Debye-Ang):
   XX=              5.9312   YY=             -1.3080   ZZ=             -4.6232
   XY=              2.1241   XZ=              3.1925   YZ=             -1.0590
 Octapole moment (field-independent basis, Debye-Ang**2):
  XXX=             38.3457  YYY=              0.4722  ZZZ=             -2.7817  XYY=              9.1209
  XXY=             10.0412  XXZ=              7.4703  XZZ=              0.4077  YZZ=             -0.6395
  YYZ=              1.2289  XYZ=              1.0588
 Hexadecapole moment (field-independent basis, Debye-Ang**3):
 XXXX=           -721.2432 YYYY=           -274.8973 ZZZZ=           -107.4222 XXXY=             46.1560
 XXXZ=             19.5742 YYYX=             19.4937 YYYZ=             -6.4775 ZZZX=             -3.7895
 ZZZY=              1.2336 XXYY=           -162.7151 XXZZ=           -154.9322 YYZZ=            -62.4913
 XXYZ=             -2.7051 YYXZ=              4.0714 ZZXY=              2.2628
 N-N= 3.200966578742D+02 E-N=-1.450510305992D+03  KE= 3.448024245988D+02
  Exact polarizability:   0.000   0.000   0.000   0.000   0.000   0.000
 Approx polarizability:  87.997   6.656  78.896   2.146  -3.021  71.851
 No NMR shielding tensors so no spin-rotation constants.
 Leave Link  601 at Thu Sep 26 02:51:34 2019, MaxMem=   671088640 cpu:              59.4 elap:              29.7
 (Enter /shared/centos7/gaussian/g16/l701.exe)
 SCFChk:  SCF convergence  3.19D-09 required  1.00D-08
 ... and contract with generalized density number  0.
 Compute integral second derivatives.
 Entering OneElI...
 Calculate overlap and kinetic energy integrals
    NBasis = 395  MinDer = 2  MaxDer = 2
 Requested accuracy = 0.1000D-12
 PrmmSu-InSpLW:  IPartL=    0 NPrtUS=   20 NPrtUL=    1 DoSpLW=F IThBeg=    0 IThEnd=   19 NThAct=   20.
 PrsmSu:  NPrtUS=  20 ThrOK=T IAlg=1 NPAlg=1 LenDen=           0 ISkipM=0 DoSpLW=F IThBeg=    0 IThEnd=   19.
 Prism:   IPart=     0 DynPar=F LinDyn=F Incr=           4.
 PRISM was handed    33311871 working-precision words and  8427 shell-pairs
 PRISM was handed    33311871 working-precision words and  8427 shell-pairs
 PRISM was handed    33311871 working-precision words and  8427 shell-pairs
 PRISM was handed    33311871 working-precision words and  8427 shell-pairs
 PRISM was handed    33311871 working-precision words and  8427 shell-pairs
 PRISM was handed    33311871 working-precision words and  8427 shell-pairs
 PRISM was handed    33311871 working-precision words and  8427 shell-pairs
 PRISM was handed    33311871 working-precision words and  8427 shell-pairs
 PRISM was handed    33311871 working-precision words and  8427 shell-pairs
 PRISM was handed    33311871 working-precision words and  8427 shell-pairs
 PRISM was handed    33311871 working-precision words and  8427 shell-pairs
 PRISM was handed    33311871 working-precision words and  8427 shell-pairs
 PRISM was handed    33311871 working-precision words and  8427 shell-pairs
 IPart= 12 NShTot=         407 NBatch=          42 AvBLen=         9.7
 PRISM was handed    33311871 working-precision words and  8427 shell-pairs
 IPart=  0 NShTot=         464 NBatch=          82 AvBLen=         5.7
 PRISM was handed    33311871 working-precision words and  8427 shell-pairs
 PRISM was handed    33311871 working-precision words and  8427 shell-pairs
 IPart=  7 NShTot=         426 NBatch=          51 AvBLen=         8.4
 PRISM was handed    33311871 working-precision words and  8427 shell-pairs
 PRISM was handed    33311871 working-precision words and  8427 shell-pairs
 IPart=  1 NShTot=         459 NBatch=          78 AvBLen=         5.9
 IPart=  2 NShTot=         453 NBatch=          72 AvBLen=         6.3
 PRISM was handed    33311871 working-precision words and  8427 shell-pairs
 PRISM was handed    33311871 working-precision words and  8427 shell-pairs
 IPart= 19 NShTot=         392 NBatch=          36 AvBLen=        10.9
 IPart=  3 NShTot=         449 NBatch=          69 AvBLen=         6.5
 IPart= 17 NShTot=         399 NBatch=          38 AvBLen=        10.5
 IPart=  8 NShTot=         418 NBatch=          49 AvBLen=         8.5
 IPart= 16 NShTot=         401 NBatch=          39 AvBLen=        10.3
 IPart=  6 NShTot=         436 NBatch=          59 AvBLen=         7.4
 IPart=  9 NShTot=         416 NBatch=          48 AvBLen=         8.7
 IPart= 13 NShTot=         406 NBatch=          41 AvBLen=         9.9
 IPart=  5 NShTot=         437 NBatch=          60 AvBLen=         7.3
 IPart= 10 NShTot=         414 NBatch=          47 AvBLen=         8.8
 IPart= 14 NShTot=         403 NBatch=          40 AvBLen=        10.1
 IPart=  4 NShTot=         442 NBatch=          64 AvBLen=         6.9
 IPart= 11 NShTot=         410 NBatch=          45 AvBLen=         9.1
 IPart= 15 NShTot=         401 NBatch=          39 AvBLen=        10.3
 IPart= 18 NShTot=         394 NBatch=          38 AvBLen=        10.4
 PrSmSu:  NxtVal=             81.
 Entering OneElI...
 Calculate potential energy integrals
    NBasis = 395  MinDer = 2  MaxDer = 2
 Requested accuracy = 0.1000D-12
 PrmmSu-InSpLW:  IPartL=    0 NPrtUS=   20 NPrtUL=    1 DoSpLW=F IThBeg=    0 IThEnd=   19 NThAct=   20.
 PrsmSu:  NPrtUS=  20 ThrOK=T IAlg=1 NPAlg=1 LenDen=           0 ISkipM=0 DoSpLW=F IThBeg=    0 IThEnd=   19.
 Prism:   IPart=     0 DynPar=F LinDyn=F Incr=          65.
 PRISM was handed    33356056 working-precision words and  7707 shell-pairs
 PRISM was handed    33356056 working-precision words and  7707 shell-pairs
 PRISM was handed    33356056 working-precision words and  7707 shell-pairs
 PRISM was handed    33356056 working-precision words and  7707 shell-pairs
 PRISM was handed    33356056 working-precision words and  7707 shell-pairs
 PRISM was handed    33356056 working-precision words and  7707 shell-pairs
 PRISM was handed    33356056 working-precision words and  7707 shell-pairs
 PRISM was handed    33356056 working-precision words and  7707 shell-pairs
 PRISM was handed    33356056 working-precision words and  7707 shell-pairs
 PRISM was handed    33356056 working-precision words and  7707 shell-pairs
 PRISM was handed    33356056 working-precision words and  7707 shell-pairs
 PRISM was handed    33356056 working-precision words and  7707 shell-pairs
 PRISM was handed    33356056 working-precision words and  7707 shell-pairs
 PRISM was handed    33356056 working-precision words and  7707 shell-pairs
 PRISM was handed    33356056 working-precision words and  7707 shell-pairs
 PRISM was handed    33356056 working-precision words and  7707 shell-pairs
 PRISM was handed    33356056 working-precision words and  7707 shell-pairs
 PRISM was handed    33356056 working-precision words and  7707 shell-pairs
 PRISM was handed    33356056 working-precision words and  7707 shell-pairs
 PRISM was handed    33356056 working-precision words and  7707 shell-pairs
 IPart=  5 NShTot=        6732 NBatch=         396 AvBLen=        17.0
 IPart=  0 NShTot=        7208 NBatch=         424 AvBLen=        17.0
 IPart=  8 NShTot=        6545 NBatch=         385 AvBLen=        17.0
 IPart= 17 NShTot=        6171 NBatch=         363 AvBLen=        17.0
 IPart=  9 NShTot=        6477 NBatch=         381 AvBLen=        17.0
 IPart= 12 NShTot=        6409 NBatch=         377 AvBLen=        17.0
 IPart= 13 NShTot=        6392 NBatch=         376 AvBLen=        17.0
 IPart= 14 NShTot=        6375 NBatch=         375 AvBLen=        17.0
 IPart=  7 NShTot=        6545 NBatch=         385 AvBLen=        17.0
 IPart=  4 NShTot=        6783 NBatch=         399 AvBLen=        17.0
 IPart= 10 NShTot=        6477 NBatch=         381 AvBLen=        17.0
 IPart=  6 NShTot=        6715 NBatch=         395 AvBLen=        17.0
 IPart= 16 NShTot=        6222 NBatch=         366 AvBLen=        17.0
 IPart=  1 NShTot=        7106 NBatch=         418 AvBLen=        17.0
 IPart=  2 NShTot=        7021 NBatch=         413 AvBLen=        17.0
 IPart= 18 NShTot=        6137 NBatch=         361 AvBLen=        17.0
 IPart= 15 NShTot=        6290 NBatch=         370 AvBLen=        17.0
 IPart=  3 NShTot=        6868 NBatch=         404 AvBLen=        17.0
 IPart= 19 NShTot=        6103 NBatch=         359 AvBLen=        17.0
 IPart= 11 NShTot=        6443 NBatch=         379 AvBLen=        17.0
 PrSmSu:  NxtVal=           1301.
 Polarizability after L701:
                1             2             3 
      1  0.000000D+00
      2  0.000000D+00  0.000000D+00
      3  0.000000D+00  0.000000D+00  0.000000D+00
 Dipole Derivatives after L701:
                 1             2             3             4             5 
      1  -0.253693D+00  0.449785D-01  0.218022D-01 -0.138103D+01 -0.688225D+00
      2   0.203262D+00 -0.281761D+00  0.675105D-01 -0.498181D+00 -0.732004D+00
      3   0.101294D+00  0.900586D-02 -0.853457D-01 -0.167764D-01 -0.109666D+00
                 6             7             8             9            10 
      1  -0.732961D+00  0.232910D+00 -0.131418D+00  0.665279D+00 -0.197694D+01
      2  -0.326814D+00  0.129033D+00  0.181068D+00  0.130864D+00 -0.833546D-01
      3  -0.278369D+00  0.214648D+00  0.185126D+00 -0.489882D+00  0.302497D-01
                11            12            13            14            15 
      1  -0.245714D+00 -0.414602D+00 -0.636921D+00  0.576727D+00 -0.777397D-01
      2  -0.930801D+00 -0.150596D-01 -0.983184D-01 -0.145263D+01 -0.772200D-01
      3   0.261847D-01 -0.915367D+00 -0.151667D+00 -0.262085D+00 -0.930703D+00
                16            17            18            19            20 
      1  -0.679813D+00 -0.146179D+00 -0.358075D+00 -0.326007D+00  0.437620D+00
      2  -0.281132D-02 -0.508673D+00  0.524910D+00 -0.983042D-01 -0.327613D+00
      3  -0.232563D+00  0.373337D+00 -0.385321D+00 -0.268971D+00  0.284307D+00
                21            22            23            24            25 
      1  -0.468323D+00  0.142663D+00  0.733849D-01 -0.365398D+00  0.118198D+00
      2   0.178093D+00  0.191034D-01  0.171200D+00 -0.113212D+00  0.265122D-02
      3  -0.167755D+00 -0.413124D-01 -0.770928D-01  0.538037D+00  0.128462D-02
                26            27            28            29            30 
      1   0.614820D+00  0.664358D+00  0.830801D+00  0.468270D+00 -0.792526D+00
      2   0.393668D+00  0.328525D+00  0.167177D+00  0.201798D+00 -0.212372D+00
      3   0.316589D+00  0.441568D+00 -0.154570D+00 -0.123840D+00  0.325605D+00
                31            32            33            34            35 
      1   0.653028D+00 -0.915184D+00  0.388017D+00  0.460679D+00 -0.331405D+00
      2  -0.128174D+00  0.369489D+00 -0.110447D+00 -0.493868D+00  0.578300D+00
      3   0.118951D+00 -0.211873D+00  0.164073D+00  0.123902D+00 -0.895239D-01
                36            37            38            39            40 
      1   0.320326D+00  0.268916D+00  0.180187D-03 -0.276267D-01  0.653835D-01
      2  -0.413201D+00  0.534536D+00  0.218252D+00 -0.143036D+00  0.229478D-01
      3   0.188905D+00 -0.189917D-01 -0.247431D-01  0.124761D+00 -0.136774D-02
                41            42            43            44            45 
      1  -0.116558D+00 -0.272628D+00  0.145433D+00 -0.248165D+00  0.200546D+00
      2   0.365264D+00  0.596751D+00  0.845390D-01  0.866340D+00 -0.465743D+00
      3   0.198222D+00  0.631857D+00  0.119803D-01 -0.324341D+00  0.256473D+00
                46            47            48            49            50 
      1   0.105271D+01 -0.306623D+00  0.658907D+00  0.128368D+01  0.913491D+00
      2  -0.193753D+00  0.206049D+00 -0.190805D+00  0.433516D+00  0.682055D+00
      3   0.285928D+00 -0.130262D+00  0.280608D+00 -0.201903D-02 -0.393432D-01
                51 
      1   0.590646D+00
      2   0.241255D+00
      3   0.300854D+00
 Hessian after L701:
                1             2             3             4             5 
      1  0.606279D+01
      2  0.443830D+01  0.145366D+02
      3 -0.116639D+01 -0.133949D+01  0.149605D+02
      4  0.523800D+00  0.640165D+00 -0.119844D-02  0.106783D+02
      5  0.684079D+00 -0.492039D-01 -0.343012D-01 -0.430783D+01  0.704551D+01
      6 -0.805048D-02 -0.413091D-01 -0.498600D+00 -0.236947D+00  0.258699D+01
      7 -0.464304D+01 -0.330738D+01 -0.265573D+01  0.391668D+00  0.201936D+00
      8 -0.320203D+01 -0.626496D+01  0.230769D+01  0.152598D+00 -0.165109D+00
      9 -0.250133D+01  0.223679D+01 -0.683404D+01 -0.136611D+00 -0.540420D-01
     10  0.446091D+00 -0.380459D-01  0.503652D-01  0.917772D-01  0.348445D-01
     11 -0.951519D-01 -0.252363D+00  0.443435D-01  0.326694D-01 -0.641335D-01
     12 -0.359941D-01  0.487930D-01 -0.221723D+00 -0.226623D-01 -0.544508D-02
     13 -0.251518D+00  0.527336D-01  0.790842D-01  0.545938D-01 -0.125422D+00
     14  0.120528D+00  0.666122D+00  0.604548D-01  0.406453D-01 -0.918897D-01
     15  0.789759D-01  0.149894D+00 -0.235633D+00 -0.199609D-01  0.221921D-01
     16 -0.296994D+01 -0.264612D+01  0.427373D+01  0.495432D+00  0.740344D-02
     17 -0.286924D+01 -0.925300D+01 -0.123233D+01 -0.145889D+00 -0.482017D+00
     18  0.404601D+01 -0.108347D+01 -0.703835D+01 -0.103571D+00  0.434966D+00
     19  0.486466D+00  0.595485D+00 -0.469945D+00 -0.887973D+01  0.126172D+01
     20  0.670416D+00  0.191517D+00  0.298983D+00  0.144811D+01 -0.195823D+01
     21 -0.403850D+00  0.234508D+00 -0.158503D+00 -0.655086D+00 -0.411813D+01
     22  0.107801D+00  0.184548D+00  0.170393D+00  0.161025D-01  0.855716D-02
     23  0.149752D+00  0.118904D+00 -0.303898D+00  0.108281D-01 -0.122404D-01
     24  0.159588D+00 -0.349266D+00  0.189420D+00 -0.383867D-01 -0.117684D-01
     25  0.791477D-01 -0.200739D-01 -0.462274D-01  0.135655D-01  0.912852D-02
     26  0.438267D-01 -0.897920D-01  0.379833D-02  0.167106D-01 -0.211776D-02
     27  0.318454D-01 -0.175405D-03 -0.101705D+00  0.114417D-01  0.484509D-02
     28  0.115331D+00  0.539567D-02 -0.728316D-01  0.150740D-01  0.537093D-02
     29  0.177254D-01 -0.475678D-01 -0.927571D-02  0.766666D-02 -0.429733D-02
     30 -0.757128D-01 -0.452566D-02 -0.826367D-02 -0.886042D-02 -0.255195D-02
     31  0.826880D-01 -0.931028D-01  0.867241D-02  0.206385D-01 -0.134866D-02
     32 -0.991427D-01  0.244396D-01 -0.684863D-02 -0.104425D-01 -0.607723D-02
     33  0.202286D-01 -0.134614D-01 -0.457145D-01  0.449561D-02 -0.103810D-02
     34 -0.820902D-02 -0.865840D-01 -0.450098D-02  0.471341D-01 -0.296676D-01
     35 -0.693509D-01  0.105342D+00  0.117830D-01 -0.361522D-01 -0.431695D-02
     36  0.511129D-02 -0.933657D-02 -0.472607D-01  0.888126D-02 -0.632085D-02
     37 -0.569829D-01  0.756527D-01  0.217522D-01 -0.304826D-01 -0.428099D-01
     38 -0.398962D-02  0.484400D-01  0.374324D-01 -0.117628D+00 -0.217083D+00
     39  0.597962D-03  0.175002D-01 -0.624340D-01 -0.105095D+00  0.235634D-01
     40 -0.459696D-01 -0.296141D-01 -0.288627D-01  0.111828D-01 -0.169767D-01
     41 -0.348738D-01  0.660511D-01  0.113582D+00 -0.222916D-01 -0.106515D-01
     42 -0.316667D-01  0.118238D+00  0.591672D-01 -0.388928D-01  0.209687D-01
     43 -0.130292D+00  0.200972D+00 -0.256554D+00 -0.173922D-01  0.515270D-01
     44  0.218390D+00  0.236503D+00  0.447452D-01  0.642724D-01  0.995298D-01
     45 -0.241008D+00  0.238183D-01  0.534667D-01 -0.387953D-01 -0.756542D-01
     46  0.153073D+00 -0.885787D-02  0.866850D-01  0.246685D+00  0.230699D-01
     47 -0.226931D-01 -0.489902D-01 -0.339212D-02 -0.609996D-02 -0.804754D-01
     48  0.102884D+00  0.169709D-02  0.151358D-02  0.324933D-01  0.184335D+00
     49  0.487599D-01  0.365196D-01  0.115611D-01 -0.367834D+01  0.223642D+01
     50  0.534484D-01  0.119387D-01  0.673101D-02  0.223267D+01 -0.399719D+01
     51  0.187577D-01  0.980232D-02 -0.118282D-01  0.134875D+01  0.103139D+01
                6             7             8             9            10 
      6  0.121778D+02
      7 -0.156464D+00  0.166164D+02
      8 -0.351607D-01  0.198180D+01  0.187557D+02
      9 -0.185975D+00  0.178026D+01 -0.202219D+01  0.203546D+02
     10 -0.125072D-01 -0.209606D+01  0.870384D+00  0.120086D+01  0.111759D+02
     11 -0.398451D-02  0.807537D+00 -0.573194D+01  0.198160D+00 -0.483924D+00
     12 -0.675760D-01  0.120436D+01  0.210383D+00 -0.551860D+01 -0.642107D+00
     13 -0.476859D-01 -0.620714D+01  0.835879D+00  0.113514D+00  0.128259D+00
     14 -0.310453D-01  0.934213D+00 -0.225841D+01  0.371695D+00  0.109069D+00
     15 -0.110233D+00  0.126105D+00  0.353997D+00 -0.626156D+01  0.469595D-01
     16 -0.256368D+00  0.196474D+00 -0.286307D+00 -0.892426D-01  0.344230D+00
     17  0.355958D+00 -0.223591D+00  0.167979D+00  0.477946D-01 -0.983463D-01
     18  0.142459D+00 -0.989013D-01  0.443739D-01  0.338703D-01  0.948528D-01
     19 -0.551695D+00  0.245482D+00 -0.232539D+00 -0.316902D-01  0.108866D+00
     20 -0.416095D+01 -0.155959D+00 -0.129054D+00  0.268090D-01  0.127310D-01
     21 -0.604622D+01 -0.672895D-01 -0.228219D-03 -0.163763D+00  0.163749D-01
     22 -0.243493D-01 -0.473191D+01  0.326774D-01 -0.249874D+00 -0.625937D-01
     23 -0.940893D-02  0.391987D-02 -0.456851D+01 -0.668863D+00 -0.155155D-01
     24  0.113727D-01 -0.114276D+00 -0.687904D+00 -0.189746D+01 -0.186592D+00
     25  0.146244D-02  0.422884D-01 -0.819893D-01 -0.100683D+00 -0.403202D+01
     26  0.720674D-03 -0.384828D-01  0.920212D-01 -0.324788D-01 -0.850631D-01
     27 -0.865834D-02 -0.461189D-01 -0.239993D-01  0.613091D-01 -0.101142D+00
     28 -0.733628D-02 -0.676643D-01 -0.283017D-01  0.747286D-02 -0.295005D+01
     29 -0.356112D-02 -0.183737D-01  0.669383D-01 -0.976652D-02  0.564435D+00
     30 -0.133802D-02 -0.894946D-02 -0.170088D-01  0.100316D+00 -0.972126D+00
     31 -0.114498D-02 -0.662441D-01  0.564798D-01 -0.866473D-01 -0.326123D+01
     32  0.123315D-02  0.154829D-01  0.139674D+00  0.748487D-02 -0.949754D+00
     33 -0.867277D-02 -0.618549D-01  0.126289D-01  0.735165D-01  0.422029D+00
     34 -0.213255D-02  0.105622D+00 -0.160128D-01  0.236447D-01 -0.719208D-03
     35  0.178894D-02  0.603485D-02 -0.768392D-01  0.255248D-01 -0.388760D-01
     36 -0.212399D-01  0.241764D-01 -0.924115D-02  0.987422D-01  0.103945D-01
     37 -0.103605D+00  0.739137D-02 -0.485601D-01  0.205648D-01  0.877776D-01
     38  0.549382D-01 -0.134360D+00  0.375611D-01  0.266329D-01  0.719640D-01
     39 -0.204518D+00  0.105727D-01  0.465730D-02  0.708948D-01  0.248549D-02
     40 -0.314755D-01  0.120097D+00  0.212656D-01  0.189922D-02 -0.138568D-04
     41  0.202090D-01  0.264749D-02 -0.107087D+00 -0.981010D-01  0.580952D-01
     42  0.184907D-01 -0.151975D-02 -0.905137D-01  0.100408D+00  0.503896D-01
     43 -0.320795D-01  0.204084D-01 -0.478625D-01  0.302759D-01 -0.298073D-02
     44 -0.737675D-01 -0.813180D-01  0.536255D-01 -0.529540D-01 -0.159102D-01
     45  0.452160D-02  0.445631D-01 -0.430170D-01 -0.191535D-01  0.103495D-01
     46  0.118176D-01  0.395983D-01 -0.152828D-01  0.144421D-01  0.125256D-01
     47  0.178184D+00 -0.154197D-01 -0.830933D-02 -0.563581D-02 -0.363907D-02
     48  0.226291D-02  0.145849D-01 -0.508782D-02 -0.747112D-02  0.625598D-02
     49  0.145856D+01  0.266073D-01  0.779745D-02  0.314197D-02  0.102051D-01
     50  0.115917D+01  0.213105D-01 -0.329770D-02  0.313802D-02  0.755241D-02
     51 -0.520388D+01  0.647719D-02  0.619350D-03 -0.563435D-02  0.315317D-02
               11            12            13            14            15 
     11  0.146340D+02
     12 -0.177544D+00  0.149321D+02
     13  0.224738D+00  0.210104D-01  0.146913D+02
     14  0.357423D-01 -0.436151D-02 -0.996055D-01  0.125015D+02
     15  0.564632D-01 -0.949199D-01 -0.262571D+00 -0.657950D+00  0.162033D+02
     16 -0.109086D+00  0.625184D-01 -0.230044D+00 -0.248073D+00  0.452616D-02
     17 -0.147606D+00 -0.751744D-02 -0.288759D+00  0.362068D+00 -0.210090D-01
     18 -0.181656D-01 -0.159386D+00  0.528348D-02 -0.307550D-01 -0.264798D+00
     19 -0.100421D-01  0.591055D-02  0.298788D+00 -0.265267D+00 -0.502121D-02
     20 -0.687916D-01  0.135974D-02 -0.290420D+00 -0.682054D-01  0.147639D-01
     21  0.545263D-03 -0.598462D-01 -0.107047D-02  0.575260D-02 -0.180406D+00
     22 -0.212684D-01 -0.152094D+00  0.256906D+00 -0.121763D+00  0.502606D-01
     23  0.145013D+00 -0.315414D-01 -0.875086D-01 -0.238700D+00  0.199982D+00
     24 -0.445585D-01  0.394539D-01  0.505716D-01  0.271530D+00  0.203730D+00
     25  0.903855D-01  0.938519D-01 -0.669220D-02  0.591047D-01  0.317655D-01
     26 -0.281642D+01  0.124786D+01  0.572333D-01  0.467543D-01  0.556626D-01
     27  0.125690D+01 -0.254367D+01  0.347149D-01  0.539831D-01 -0.605265D-02
     28  0.615490D+00 -0.108427D+01  0.542850D-01  0.864105D-01 -0.161742D-01
     29 -0.345674D+01 -0.645379D+00  0.837589D-01  0.286283D-01 -0.150323D-01
     30 -0.627707D+00 -0.276349D+01 -0.263320D-01 -0.198647D-01 -0.368378D-01
     31 -0.113239D+01  0.481979D+00  0.252391D-01  0.902963D-04  0.171564D-01
     32 -0.226005D+01 -0.708676D+00 -0.220382D-01 -0.204245D-01 -0.111207D-01
     33 -0.746855D+00 -0.351673D+01  0.225698D-01 -0.740279D-03 -0.135802D-01
     34 -0.404218D-01  0.146853D-01 -0.314383D+01 -0.907025D+00  0.805746D+00
     35 -0.471313D-01  0.178363D-01 -0.991995D+00 -0.301555D+01 -0.946991D+00
     36  0.269297D-02  0.142864D-01  0.782822D+00 -0.839463D+00 -0.323436D+01
     37  0.724550D-01  0.296866D-02 -0.183074D+01  0.294238D+00 -0.842921D+00
     38 -0.503970D-03  0.362398D-02  0.629873D+00 -0.439668D+01 -0.213183D+00
     39  0.650408D-03 -0.370011D-01 -0.838312D+00 -0.997250D-01 -0.411968D+01
     40  0.544891D-01  0.436698D-01 -0.393394D+01 -0.209179D-01 -0.891432D-02
     41  0.313167D-01  0.588417D-01  0.148737D-01 -0.352083D+01  0.102277D+01
     42  0.691987D-01  0.153034D-01  0.476173D-01  0.918588D+00 -0.181507D+01
     43 -0.682812D-02  0.536038D-02 -0.856563D-02  0.747147D-02  0.203019D-02
     44  0.536254D-02 -0.630923D-02 -0.815753D-02 -0.347113D-02 -0.707495D-02
     45 -0.970083D-02 -0.869625D-02  0.497464D-02 -0.453510D-02 -0.665971D-02
     46 -0.318069D-02  0.248724D-02  0.803026D-02  0.858383D-02  0.310730D-02
     47 -0.407134D-02 -0.183720D-03 -0.613324D-02 -0.103852D-01 -0.168648D-02
     48 -0.148202D-02 -0.487617D-02  0.821858D-02  0.150753D-02 -0.548078D-02
     49  0.452577D-02 -0.168411D-02  0.950544D-01  0.229813D-02 -0.110690D-01
     50 -0.169365D-02 -0.173946D-02  0.209514D-01 -0.162913D-01 -0.167764D-02
     51  0.104019D-02 -0.464217D-02  0.559071D-02  0.492778D-02 -0.217574D-01
               16            17            18            19            20 
     16  0.101434D+02
     17 -0.206847D+01  0.195604D+02
     18 -0.494928D+01  0.384140D+01  0.231595D+02
     19 -0.330565D+01  0.557537D+01  0.132693D+01  0.137982D+02
     20  0.506271D+01 -0.825599D+01 -0.168019D+01 -0.565169D+01  0.145986D+02
     21  0.143005D+01 -0.153370D+01 -0.122803D+02 -0.175372D+01  0.576913D+01
     22  0.141668D+00 -0.163848D-01 -0.563601D-01 -0.102163D+00  0.284893D-01
     23 -0.254907D-02 -0.110237D+00 -0.186410D-01  0.244488D-01  0.216962D-01
     24 -0.129010D+00 -0.241376D-02 -0.508510D-01  0.551784D-01 -0.145004D-01
     25  0.453437D-01  0.455430D-02  0.280356D-01  0.144965D-01  0.515416D-02
     26  0.198439D-01 -0.218049D-01  0.790102D-02  0.131192D-01 -0.392905D-02
     27  0.441070D-01  0.383677D-02 -0.585282D-02  0.186526D-01  0.588722D-02
     28  0.221673D-01 -0.354767D-02 -0.450996D-02  0.212538D-01  0.484840D-02
     29  0.195428D-02 -0.102785D-01 -0.114908D-02  0.569588D-02 -0.473427D-02
     30 -0.138083D-01  0.635052D-03 -0.611444D-02 -0.963987D-02 -0.272816D-02
     31  0.104003D-01 -0.993292D-02  0.409482D-02  0.183791D-01 -0.195481D-02
     32 -0.169713D-01  0.762000D-03 -0.246761D-02 -0.142405D-01 -0.498574D-02
     33  0.608969D-02 -0.295699D-02 -0.791682D-02  0.728863D-02 -0.186380D-03
     34  0.905576D-02 -0.270218D-01  0.536622D-02  0.141515D-01 -0.129550D-01
     35 -0.263118D-01  0.161007D-01 -0.612449D-02 -0.188400D-01 -0.151591D-03
     36  0.784545D-02 -0.966283D-02 -0.111015D-01  0.867316D-02 -0.305863D-02
     37  0.145002D-01  0.549447D-01 -0.148050D-01 -0.377688D-01  0.132436D-01
     38  0.169830D-01  0.102464D-01  0.516951D-01 -0.113227D-01  0.143509D-01
     39 -0.110652D-01  0.267856D-01  0.123463D-01 -0.254482D-02  0.469156D-02
     40  0.215828D-03 -0.390071D-01 -0.119168D-01  0.205818D-02 -0.386036D-02
     41 -0.432294D-01  0.405946D-01  0.186971D-01 -0.113966D-01 -0.996818D-02
     42 -0.217411D-01  0.339654D-01 -0.881417D-02 -0.167476D-01  0.766023D-02
     43 -0.456466D+01  0.100767D+00 -0.780331D-01  0.167487D+00 -0.364256D+00
     44  0.250989D+00 -0.227405D+01 -0.151023D+01 -0.467229D+00 -0.230059D+00
     45 -0.163128D+00 -0.145706D+01 -0.364341D+01  0.183623D+00  0.214322D+00
     46 -0.425109D+00 -0.105195D+00 -0.192250D+00 -0.279741D+01 -0.678373D+00
     47 -0.729774D-01  0.265317D+00 -0.483212D-01 -0.656664D+00 -0.404461D+01
     48 -0.204237D+00 -0.549230D-01  0.190670D+00  0.118598D+01 -0.528543D+00
     49  0.725134D-01  0.159754D+00 -0.945590D-03 -0.529365D-01 -0.862354D-01
     50  0.160210D+00  0.131501D+00  0.491021D-03 -0.136603D+00 -0.474156D-01
     51  0.902279D-02  0.112097D-01 -0.618992D-01  0.487698D-01  0.465598D-01
               21            22            23            24            25 
     21  0.220539D+02
     22  0.570819D-01  0.436793D+01
     23 -0.669909D-02  0.556091D-02  0.460444D+01
     24 -0.131493D-02  0.175427D+00  0.934543D+00  0.138179D+01
     25  0.815800D-02 -0.209080D-02  0.120508D-01  0.576135D-01  0.371058D+01
     26  0.411016D-02  0.144889D-01 -0.214218D-01  0.349794D-01 -0.186382D+00
     27 -0.195329D-02  0.431422D-01  0.189118D-01  0.706861D-01 -0.216778D+00
     28 -0.240762D-02 -0.528375D-01 -0.124490D-01 -0.250042D-01  0.625571D-01
     29 -0.773507D-03 -0.115669D-01  0.249135D-01 -0.237659D-02  0.331320D-01
     30 -0.419846D-02 -0.272360D-01 -0.425191D-02  0.151634D-01  0.104988D+00
     31  0.307417D-02  0.171726D-01 -0.244448D-01  0.518112D-01  0.707439D-01
     32 -0.185531D-02 -0.216932D-01 -0.605468D-02 -0.326584D-01  0.711316D-01
     33 -0.489288D-02  0.349349D-01 -0.230911D-01  0.275415D-01  0.298956D-01
     34  0.529302D-02 -0.333023D-01 -0.226729D-01  0.204567D-01 -0.452401D-02
     35 -0.280774D-02 -0.121259D-01  0.747173D-01 -0.924419D-01  0.111370D-01
     36 -0.682892D-02  0.763423D-02 -0.710876D-01  0.271321D-01  0.150903D-02
     37 -0.144065D-01  0.389914D-02  0.296089D-01 -0.329730D-01  0.420400D-04
     38  0.132326D-01  0.292908D-01  0.176232D-01 -0.359520D-01 -0.275280D-02
     39 -0.139394D-01 -0.194865D-01 -0.247986D-01  0.549507D-02 -0.121721D-02
     40 -0.437466D-02  0.252601D-01 -0.104577D-01 -0.107416D-02 -0.100016D-02
     41  0.464285D-02 -0.150977D-01 -0.735756D-01 -0.379819D-02 -0.798376D-03
     42 -0.181416D-02 -0.469284D-03 -0.222682D-02  0.239020D-01 -0.897805D-04
     43  0.144112D+00  0.400859D-01 -0.641505D-01 -0.304624D-01  0.333323D-02
     44  0.209625D+00 -0.852258D-01  0.241823D-01  0.396689D-01 -0.505205D-02
     45  0.304161D+00 -0.109355D-01  0.103415D-01 -0.393636D-01  0.526786D-02
     46  0.124091D+01  0.428173D-02  0.973298D-03 -0.623994D-02  0.225874D-02
     47 -0.535839D+00 -0.181061D-02 -0.160184D-02  0.218587D-02 -0.431224D-03
     48 -0.349770D+01  0.143756D-02  0.269121D-03 -0.402172D-02  0.151881D-02
     49 -0.285050D-02  0.378832D-02  0.260588D-02 -0.662785D-02  0.197515D-02
     50 -0.415100D-01  0.332381D-02  0.855315D-03 -0.526872D-02  0.170080D-02
     51  0.636679D-01  0.493685D-03  0.459937D-03 -0.267332D-02  0.928995D-03
               26            27            28            29            30 
     26  0.285612D+01
     27 -0.120228D+01  0.262078D+01
     28  0.317412D-01  0.131761D+00  0.261870D+01
     29  0.112945D+00 -0.609068D-01 -0.675912D+00  0.337236D+01
     30 -0.458298D-01 -0.181677D+00  0.104562D+01  0.543587D+00  0.293863D+01
[...]
   xx         0.820805D+02      0.121631D+02      0.135333D+02
   yx         0.996971D+01      0.147736D+01      0.164378D+01
   yy         0.623085D+02      0.923317D+01      0.102733D+02
   zx         0.102776D+02      0.152299D+01      0.169455D+01
   zy         0.195020D+01      0.288990D+00      0.321545D+00
   zz         0.645058D+02      0.955878D+01      0.106356D+02

 ----------------------------------------------------------------------

 Test job not archived.
 1\1\GINC-C0240\Freq\RM062X\CC-pVTZ\C5H10O2\HARMS.N\26-Sep-2019\0\\#P G
 eom=AllCheck Guess=TCheck SCRF=Check Test GenChk RM062X/CC-pVTZ Freq\\
 Gaussian input prepared by ASE\\0,1\O,-0.3390393272,-1.0204258398,1.48
 12163811\O,0.8773506551,-0.8368000595,-1.0242308454\C,-1.20950319,-0.4
 089986423,2.4316554398\C,-2.280335676,-1.4296381645,2.750296534\C,-1.7
 83666511,0.8807541638,1.871899731\C,0.8361887982,-0.3673921274,1.28488
 12286\C,1.4309405511,-0.3011494412,0.1023728075\H,-0.6278138088,-0.189
 2225291,3.3363134308\H,-2.8363319704,-1.6713064151,1.8443581493\H,-1.8
 330750287,-2.3442094211,3.1352997205\H,-2.9743204476,-1.0348186769,3.4
 914768358\H,-2.3535314088,0.6644408291,0.9677577236\H,-0.9885783162,1.
 5810102993,1.6169616779\H,-2.4428490386,1.3541412065,2.59945209\H,1.30
 90571135,0.0748563742,2.1553890368\H,2.399583044,0.1719062432,0.016051
 3572\H,1.4653321092,-0.6926779874,-1.7663013601\\Version=EM64L-G16RevA
 .03\State=1-A\HF=-346.9414281\RMSD=3.667e-09\RMSF=3.238e-07\ZeroPoint=
 0.1467833\Thermal=0.1556428\Dipole=0.427182,0.6031885,0.0593431\Dipole
 Deriv=-1.4040095,-0.0931862,0.7796535,-0.305727,-0.467605,0.217052,0.4
 770051,-0.0510564,-0.7608734,-0.214515,-0.0563637,-0.4357531,0.1001068
 ,-0.4157849,-0.4534412,0.1721705,-0.2052011,-1.3237845,0.7667149,-0.08
 85369,-0.2908635,-0.213743,0.4709476,0.0961443,-0.4111435,-0.0008804,0
 .7041879,-0.0296556,-0.0408485,0.0393436,-0.0668455,-0.0218888,0.03714
 71,0.0354498,0.0260267,0.0566995,-0.0312636,0.0150244,0.0206726,0.1035
 81,-0.1185912,0.0184532,0.0177015,0.1033169,0.0067091,0.8729303,0.2881
 715,-0.4795107,0.6169783,0.0039671,-0.3068253,-0.137361,-0.0465862,0.1
 136099,-0.08445,0.1807228,0.4350505,0.0214188,0.0213356,0.4675257,-0.0
 681425,0.2948599,1.0607923,-0.1053375,-0.0310045,-0.1167566,0.016078,-
 0.0211536,-0.0353404,-0.0293943,-0.0146022,-0.1358286,0.0183472,-0.029
 0591,-0.0414529,-0.024779,0.0479958,0.0098545,-0.0968628,-0.0381921,-0
 .0565894,0.0285554,0.0630016,-0.0367115,0.0203904,-0.0822341,0.0682338
 ,-0.0237107,0.0566455,0.0508028,-0.0284874,0.0158492,0.0859689,0.04787
 24,0.0244125,-0.0635847,0.0933017,-0.0362842,-0.0207206,0.0178996,0.00
 40731,-0.0622383,-0.04151,0.0321751,-0.0485028,-0.0844049,-0.0022951,-
 0.0433634,-0.0250953,-0.0967823,0.0193163,-0.0771313,-0.0241521,0.0540
 969,0.0090727,0.0507884,0.0474371,-0.0200185,0.0661351,0.0783157,0.065
 8329,0.040116,-0.0434475,0.0872837,-0.064476,-0.0285252,0.027669,-0.05
 50559,-0.0050113,-0.1317833,0.0892892,0.0066991,-0.0546698,-0.0571206,
 -0.0426725,-0.0362998,-0.0949905,-0.0060149,-0.0784354,0.1051156,-0.04
 12497,0.0213162,-0.0295499,0.0052256,0.2470157,-0.0471502,0.0159916,-0
 .0523043,0.316055,0.017185,-0.0076116,0.0146067,0.3668935\Polar=73.760
 0004,2.6078162,58.107688,-14.7375645,-0.023519,77.0271756\Quadrupole=2
 .0933685,-4.3449669,2.2515984,1.2847434,-4.4996615,-0.5140851\PG=C01 [
 X(C5H10O2)]\NImag=0\\0.46308246,0.09729424,0.24881163,-0.15448967,0.08
 181827,0.25338691,0.00862475,0.00896502,-0.00469012,0.35210970,0.01214
 885,-0.00098062,-0.00135388,0.14115622,0.10110291,0.01201160,0.0083319
 3,0.00031264,-0.15642343,0.05650566,0.64442548,-0.11081586,0.01636439,
 0.04079719,-0.00125107,-0.00073382,-0.00374125,0.53695588,0.03650021,-
 0.10933405,-0.06375629,0.00057916,0.00072840,0.00129747,0.04628489,0.5
 1079156,0.05510104,-0.05054359,-0.13492180,0.00270571,0.00332102,0.005
 11708,0.06066596,0.00322826,0.54979850,-0.03098355,-0.01477854,0.01499
 293,0.00005512,0.00014823,0.00029202,-0.14024696,-0.06202601,0.0128880
 5,0.54202895,0.01459461,0.01137251,-0.00478982,-0.00031518,-0.00028318
 ,-0.00049907,-0.07179497,-0.14624848,0.02054493,-0.04993594,0.55027036
 ,0.03291672,0.01580995,-0.01187168,-0.00031839,-0.00021715,-0.00018522
 ,0.00516434,0.01162228,-0.08221599,0.00732924,0.01061900,0.58318838,-0
 .01976518,0.02758500,0.00346832,-0.00001387,0.00029469,0.00031252,-0.0
 9534031,0.03046233,-0.02212431,0.01190823,-0.02196661,0.00876123,0.569
 60746,0.01739273,-0.01862734,-0.00349431,-0.00057808,-0.00021174,-0.00
 083332,0.03205561,-0.16106503,0.04359349,0.00533414,-0.02639229,0.0131
 9856,0.03418927,0.51413638,0.02272630,-0.02750230,0.00393901,-0.000593
 99,-0.00051769,-0.00071464,-0.02574895,0.05189229,-0.10324966,-0.00320
 765,0.00863071,-0.00274077,-0.02050239,0.03260811,0.57156959,-0.250063
 71,-0.10226107,0.04285940,0.01199984,-0.00987610,-0.03382519,-0.046151
 51,-0.00770141,0.02006188,-0.00128764,0.00110186,0.00032510,0.00189943
 ,0.00015265,-0.00283122,0.57009775,-0.12711881,-0.12571724,-0.00113548
 ,0.00076714,0.00491209,-0.03400155,0.00471647,0.00838767,0.00910742,0.
 00101492,-0.00132993,-0.00194395,0.00460298,-0.00081958,-0.00471439,0.
 20029220,0.25992540,0.02541939,-0.01584030,-0.09121655,0.01013473,-0.0
 0803653,-0.05362290,0.03065527,0.01691467,-0.01307214,0.00367897,-0.00
 307851,-0.00398444,-0.00105227,-0.00077804,0.00129395,-0.15962204,0.09
 873640,0.86785942,-0.04174371,-0.01931879,0.04608660,-0.13216969,-0.07
 120660,-0.08935994,0.00149630,-0.00572403,-0.00696877,-0.00094321,0.00
 147069,0.00165510,-0.00010101,0.00070316,0.00122460,-0.18399971,-0.026
 20381,0.18360762,0.62331291,-0.03307066,-0.00077989,0.02597132,-0.0630
 4991,-0.08658723,-0.09703023,0.00232035,-0.00405337,-0.00680850,-0.000
 60037,0.00090882,0.00106441,-0.00070971,0.00039816,0.00100276,-0.01825
 379,-0.06293341,0.00430831,0.22665885,0.24544975,0.00297032,0.00121655
 ,0.00194952,-0.04702950,-0.07572134,-0.26020676,-0.00065644,-0.0013011
 8,-0.00195731,-0.00042580,0.00052503,0.00102254,0.00004837,0.00137927,
 0.00069926,0.20638166,0.01940006,-0.46829671,-0.17851548,0.06495952,0.
 83997555,0.00433607,0.00710094,0.02580281,0.00004753,-0.00026447,0.000
 16982,-0.12627143,-0.02734792,-0.11288233,-0.01315194,-0.00523955,-0.0
 1936617,-0.00620284,-0.00255226,-0.01100951,0.00487565,0.00288022,0.00
 310686,-0.00019072,0.00007243,-0.00010318,0.13714702,-0.00110366,-0.00
 556716,-0.02164105,-0.00006646,-0.00005209,-0.00016343,-0.02460269,-0.
 05853322,-0.03341926,-0.01396154,-0.00511428,-0.01778206,0.01680689,0.
 00435115,0.02497844,-0.00248046,-0.00074238,0.00181162,0.00043683,0.00
 018070,0.00002904,0.02536232,0.06884590,0.00382943,-0.01307641,-0.0315
 7555,-0.00006554,-0.00010846,0.00010472,-0.10869444,-0.03347444,-0.207
 29231,0.00383366,0.00208881,0.00792654,-0.00907972,-0.00074377,-0.0095
 4214,-0.00598197,-0.00316083,0.00084319,0.00107611,0.00072862,0.000071
 58,0.11344040,0.04401037,0.23719120,0.00222637,0.00076086,-0.00035954,
 0.00007216,0.00007809,0.00014187,-0.01537464,-0.00693641,-0.02231366,-
 0.11471481,-0.02834032,-0.11316617,0.00062878,0.00160520,-0.00009961,-
 0.00033561,-0.00004462,0.00014565,0.00006579,0.00004614,-0.00009139,-0
 .00266423,-0.00325476,0.00185647,0.12393351,0.00179480,0.00082835,0.00
 027470,0.00003216,-0.00001288,0.00010727,-0.01286641,-0.00711362,-0.02
 160707,-0.02846278,-0.05981435,-0.04690443,-0.00003176,0.00119976,-0.0
 0153956,0.00005139,-0.00007228,0.00000022,0.00002868,0.00004876,0.0000
 1419,-0.00334962,-0.00246880,0.00160458,0.03529645,0.06372305,-0.00110
 413,0.00016205,0.00121208,0.00004897,0.00006122,0.00011024,0.00372496,
 0.00149338,0.00478331,-0.11503280,-0.04867619,-0.23615875,0.00058774,-
 0.00019525,0.00095132,0.00049483,0.00033018,0.00030591,-0.00017840,-0.
 00013643,-0.00012982,0.00140442,0.00101166,0.00078698,0.12551206,0.052
 54438,0.25348523,0.00188832,0.00088087,-0.00134016,-0.00007087,-0.0000
 6042,-0.00016217,0.01048020,-0.02218268,0.01005998,-0.09621898,0.09801
 865,-0.04203991,-0.00371832,-0.00244620,0.00121265,-0.00019030,-0.0001
 8393,-0.00016444,0.00022612,0.00011664,0.00010195,0.00117684,0.0008244
 6,-0.00032168,-0.00708546,0.01339271,-0.00422417,0.10134699,0.00087906
 ,0.00209581,-0.00102865,-0.00002160,0.00002401,-0.00000120,0.01160271,
 -0.02046100,0.00785013,0.09465746,-0.23734711,0.08117654,-0.00497192,-
 0.00204949,0.00049627,-0.00030829,0.00021829,-0.00009340,0.00008860,0.
 00008655,-0.00007934,0.00015385,0.00063659,-0.00057686,-0.00354576,0.0
 0727119,-0.00265878,-0.10254762,0.25874792,-0.00064648,-0.00048722,0.0
 0027260,0.00005335,-0.00002274,0.00006901,-0.00285296,0.00486881,-0.00
 380335,-0.04109064,0.08066606,-0.08204017,0.00152278,0.00069625,0.0001
 9415,0.00033092,0.00002337,-0.00002955,-0.00014541,-0.00007164,-0.0000
 1578,0.00047287,-0.00046977,0.00026282,-0.01056294,0.02331072,-0.00874
 258,0.04480024,-0.08934575,0.08390040,-0.00567319,-0.00442988,0.001524
 75,0.00019036,0.00015610,0.00034296,-0.01188901,0.01302781,0.01465991,
 -0.15585196,0.06109439,0.11697037,0.00053193,0.00092481,-0.00011842,0.
 00083303,0.00079007,0.00137859,-0.00076544,-0.00045578,-0.00037611,0.0
 0024349,0.00032985,-0.00082082,0.01221815,-0.00645604,-0.01128342,-0.0
 0837126,0.00334454,0.00844735,0.16824175,-0.00517681,-0.00253428,0.001
 70381,0.00007967,0.00012698,0.00011727,-0.01068634,0.00948803,0.015512
 49,0.06361943,-0.08492594,-0.06890818,0.00035210,0.00040380,-0.0000723
 2,-0.00050845,0.00075863,0.00110241,-0.00042332,-0.00026625,-0.0002373
 0,0.00055591,0.00071689,-0.00062484,0.00431530,-0.00352534,-0.00342689
 ,0.01566611,-0.00842200,-0.01961113,-0.06764768,0.08865597,0.00191250,
 0.00142579,0.00062107,-0.00003893,-0.00006795,-0.00016831,0.00121068,-
 0.00384992,-0.00559565,0.11782432,-0.06688592,-0.17274548,-0.00016366,
 -0.00051250,-0.00004451,-0.00032876,-0.00041523,0.00020362,0.00019389,
 0.00014500,0.00010515,0.00017092,0.00036638,0.00027348,0.01800514,-0.0
 0886150,-0.01665339,-0.00858097,0.00363359,0.00906483,-0.13019280,0.07
 425403,0.18457767,0.00114449,-0.00103213,0.00092627,0.00032182,0.00008
 689,0.00043649,-0.00857935,-0.00189920,-0.01262040,0.00036553,-0.00057
 639,0.00110562,-0.12014219,-0.03010287,-0.11543820,-0.00051931,-0.0001
 9323,0.00002849,-0.00025246,-0.00005550,-0.00052456,-0.00009848,0.0024
 9080,-0.00066750,0.00064391,0.00015288,0.00001930,-0.00006334,-0.00000
 949,0.00018532,-0.00000190,0.00007789,0.00011898,0.12691506,-0.0024726
 7,0.00201302,-0.00066604,0.00009138,0.00007298,0.00025942,0.01626828,0
 .00470285,0.02673603,0.00099551,0.00197803,0.00033256,-0.03067332,-0.0
 5844076,-0.04813880,0.00027299,0.00022785,-0.00014243,-0.00014302,-0.0
 0008664,-0.00016141,0.00243262,-0.00480127,0.00213838,-0.00042624,-0.0
 0035849,-0.00043436,-0.00003951,0.00016960,-0.00033759,-0.00012203,-0.
 00001675,-0.00001338,0.03135571,0.06265531,0.00046210,-0.00031787,0.00
 232107,-0.00000932,0.00001077,0.00003539,-0.00713927,-0.00305646,-0.01
 383548,0.00004780,-0.00094494,0.00040566,-0.11590205,-0.04594633,-0.23
 084332,0.00001354,0.00033582,-0.00017539,-0.00009197,0.00001960,-0.000
 10472,-0.00065437,0.00254897,0.00039515,0.00045668,0.00072474,0.000094
 64,0.00023949,-0.00001046,0.00041108,-0.00008300,0.00006848,-0.0000616
 5,0.12922489,0.04831487,0.24979935,0.00091562,-0.00171625,-0.00020656,
 0.00004855,-0.00019624,-0.00027834,0.01079617,0.00949247,-0.00310156,-
 0.00076343,0.00214248,-0.00042759,-0.19399256,-0.12809957,0.04520545,-
 0.00075260,0.00100989,0.00035769,-0.00035074,0.00026706,0.00014506,0.0
 0069745,-0.00086783,0.00041217,0.00004252,0.00026792,0.00009230,0.0005
 7642,0.00063323,-0.00015619,0.00000186,0.00003394,-0.00020905,-0.01186
 300,-0.00923440,0.00465658,0.20845032,-0.00028011,0.00240875,-0.000304
 39,0.00021784,0.00014637,0.00068363,-0.02319895,-0.01869758,0.00588018
 ,0.00418117,-0.00421543,0.00216478,-0.12586474,-0.15621356,0.03884133,
 -0.00028947,-0.00037116,0.00015251,0.00024260,0.00016816,-0.00110547,0
 .00035351,0.00112647,-0.00032379,0.00025229,0.00029076,-0.00003454,-0.
 00134365,-0.00119354,0.00054473,-0.00005027,0.00027048,0.00011226,-0.0
 0388213,-0.00435434,0.00148350,0.13803510,0.17046686,-0.00005480,-0.00
 101077,-0.00008498,-0.00009068,-0.00002132,-0.00022876,0.01102354,0.00
 773260,-0.00440022,-0.00177265,0.00188150,-0.00051132,0.04451123,0.039
 57730,-0.06166993,0.00012958,-0.00020628,0.00059944,-0.00001314,-0.000
 02719,-0.00009380,0.00041301,-0.00047876,0.00009803,0.00022861,0.00031
 234,0.00016273,0.00060399,0.00075172,0.00037414,-0.00036868,-0.0001730
 3,0.00018353,-0.02000911,-0.01754472,0.00757160,-0.04920531,-0.0454699
 0,0.06313557,-0.00199411,0.00301051,-0.00035385,0.00018160,0.00013054,
 0.00041236,-0.00781295,0.00184094,0.00944120,-0.00000860,-0.00058970,0
 .00035542,-0.14496420,0.07119804,0.10887384,0.00120229,0.00093260,-0.0
 0009433,-0.00019921,-0.00022028,-0.00052858,-0.00000377,-0.00039268,-0
 .00044859,0.00002454,-0.00000926,-0.00012898,-0.00003483,-0.00005276,-
 0.00024867,0.00046757,-0.00021868,-0.00006922,0.01185685,-0.00820515,-
 0.01127143,-0.01355983,0.01125778,0.01479947,0.15488292,0.00615085,-0.
 00609007,0.00092710,-0.00011183,-0.00027767,-0.00032907,0.01328872,-0.
 00804429,-0.02153691,-0.00018849,0.00091490,-0.00065162,0.07012400,-0.
 09671898,-0.07657080,-0.00247030,-0.00119263,0.00073127,0.00050107,0.0
 0062913,-0.00019279,-0.00009446,0.00099709,0.00052732,0.00003044,-0.00
 008684,0.00001849,-0.00006932,0.00036179,0.00022009,-0.00042426,-0.000
 60822,0.00058619,0.00354733,-0.00364603,-0.00326005,-0.01192805,0.0103
 2273,0.01467024,-0.07858125,0.10329893,-0.00208506,0.00333135,0.001455
 55,0.00010671,0.00003027,0.00004434,-0.00736478,0.00420572,0.00795894,
 0.00019957,-0.00016617,-0.00003538,0.10986326,-0.07838220,-0.16954489,
 0.00027628,0.00036262,-0.00012746,-0.00020770,-0.00020411,0.00003028,0
 .00021535,-0.00099624,0.00025184,0.00013071,0.00000594,0.00000752,-0.0
 0020149,-0.00014131,0.00011838,-0.00008491,0.00025330,0.00025585,0.017
 14926,-0.01033442,-0.01597108,0.00283374,-0.00273713,-0.00504663,-0.12
 081107,0.08475878,0.18058047,-0.02349077,-0.01656161,-0.01796603,-0.00
 043179,-0.00366203,0.00298747,0.00274928,-0.00328720,-0.00585982,-0.00
 006679,0.00021092,0.00058203,-0.00033442,0.00017724,0.00047125,-0.0959
 8254,-0.05518778,-0.09046620,0.00987548,0.00704068,0.01022809,0.000272
 15,0.00037925,0.00142534,0.00026944,0.00015781,0.00008419,0.00004068,0
 .00005479,-0.00008305,-0.00011438,-0.00003185,0.00014248,0.00022726,-0
 .00008777,0.00005306,-0.00018807,0.00031850,-0.00022096,-0.00003345,0.
 00022945,-0.00001956,0.10729691,-0.01630045,-0.00735542,-0.01182950,-0
 .00245589,0.00689366,0.00092429,0.00247722,-0.00061975,-0.00160339,0.0
 0006386,0.00013500,0.00033812,-0.00010578,0.00025718,0.00039442,-0.053
 85777,-0.07961592,-0.09393189,0.00000191,0.00027050,0.00198965,-0.0002
 1703,0.00044557,0.00097471,0.00017535,0.00007677,-0.00005609,-0.000011
 53,-0.00006984,-0.00002395,-0.00008890,-0.00003513,0.00007025,0.000002
 76,-0.00014310,0.00003793,0.00010201,-0.00016595,0.00008233,-0.0001215
 5,0.00011040,-0.00000577,0.06883998,0.08180605,0.00111142,0.00135533,0
 .00729179,0.00516955,0.00001249,-0.00181339,0.00224196,0.00088864,0.00
 323871,0.00016273,0.00033970,0.00030071,-0.00022049,-0.00033766,-0.000
 29747,-0.08883753,-0.09434408,-0.24316979,-0.01609116,-0.01099488,-0.0
 1580701,-0.00124178,0.00020941,0.00023406,0.00011754,0.00002366,-0.000
 21691,0.00002172,0.00003491,-0.00002369,-0.00008962,-0.00006674,-0.000
 00673,0.00004134,0.00005630,-0.00004897,-0.00012170,0.00023192,-0.0001
 1574,0.00009364,0.00009711,-0.00001322,0.09797637,0.10224247,0.2516415
 3,0.00167457,-0.00259171,0.00268045,-0.00705212,-0.00559490,-0.0043713
 7,0.00108524,-0.00106441,0.00008054,-0.00013792,0.00013292,0.00014868,
 -0.00000753,0.00007635,-0.00012884,-0.00901381,-0.00553490,-0.00363056
 ,-0.28207893,-0.12177639,0.03270287,-0.00016404,0.00006105,0.00013836,
 0.00003501,-0.00000062,-0.00001597,0.00002509,0.00003302,-0.00002205,-
 0.00007125,-0.00000746,0.00000656,0.00003554,0.00000192,-0.00001010,-0
 .00006204,0.00000769,0.00001985,-0.00002143,-0.00000881,0.00001100,-0.
 00073862,0.00221549,0.00010898,0.29570604,-0.00150348,0.00947905,-0.00
 153656,-0.01184237,-0.00419173,-0.00440846,-0.00153539,0.00007564,-0.0
 0024551,-0.00006573,0.00008049,0.00005912,-0.00008766,-0.00020280,0.00
 019205,-0.00114921,-0.00014922,0.00027466,-0.11983408,-0.09025693,0.00
 866391,0.00022314,-0.00002516,-0.00004911,-0.00001547,0.00000275,0.000
 00265,-0.00001560,-0.00004907,0.00002684,0.00001428,-0.00008351,0.0000
 1552,0.00000278,0.00000083,-0.00000027,0.00009850,0.00001752,-0.000039
 71,0.00002607,0.00004493,-0.00000508,0.00196569,-0.00353226,0.00126263
 ,0.13406990,0.08826499,0.00258195,-0.00368772,-0.00480220,-0.02973517,
 -0.01688818,-0.00526863,0.00008972,0.00163314,0.00038494,0.00032289,-0
 .00034143,-0.00044699,0.00003887,0.00003282,-0.00011429,0.02379036,0.0
 1359221,0.00474994,0.03274434,0.01038163,-0.06245484,0.00004972,-0.000
 08327,-0.00015669,-0.00001692,-0.00000924,0.00002874,-0.00002908,-0.00
 000620,0.00000794,0.00015801,0.00012616,-0.00004323,0.00000924,-0.0000
 1749,0.00002141,-0.00002353,-0.00003189,0.00004178,0.00004081,-0.00005
 247,0.00001497,-0.00027100,0.00068413,-0.00044066,-0.02754586,-0.00484
 315,0.06502772,0.00063740,0.00072816,0.00026720,-0.23266205,-0.0626050
 3,0.27105459,0.00017003,-0.00001855,0.00020659,0.00001795,-0.00000788,
 0.00000437,0.00000661,-0.00003021,-0.00003531,-0.00261128,-0.00253942,
 -0.00348345,0.00781821,0.00167023,-0.02432728,-0.00004874,0.00003862,0
 .00006833,0.00001456,0.00000170,-0.00000088,-0.00000729,0.00001016,-0.
 00000444,0.00001025,0.00000021,-0.00000209,0.00000958,-0.00001429,0.00
 000736,0.00000336,0.00004284,0.00000606,0.00001659,0.00000488,-0.00001
 132,0.00064963,-0.00071970,-0.00044298,0.00078618,-0.00035139,-0.00220
 435,0.22518901,0.00027130,-0.00002305,0.00084078,-0.07344728,-0.021410
 27,0.06903940,0.00003993,-0.00000377,-0.00000973,0.00000467,0.00001087
 ,0.00002206,-0.00000578,-0.00000486,0.00001946,-0.00271480,-0.00148617
 ,-0.00213096,0.01272124,-0.00317681,-0.01937839,-0.00006963,0.00000402
 ,0.00006573,0.00000345,0.00001120,-0.00000547,0.00000101,-0.00001969,0
 .00001290,-0.00000701,-0.00000337,-0.00000261,0.00003389,0.00002690,-0
 .00000827,-0.00004026,-0.00000654,-0.00003634,-0.00000516,-0.00001516,
 0.00002443,-0.00055607,0.00154225,-0.00101122,-0.00001915,0.00052447,-
 0.00048905,0.06378966,0.02402998,-0.00266266,-0.00098503,0.00171052,0.
 22077604,0.04301381,-0.32801028,0.00062448,-0.00033895,-0.00093757,-0.
 00004266,0.00008631,0.00009236,-0.00006944,0.00013757,0.00011433,-0.00
 323684,-0.00196628,-0.00216052,0.02498370,0.00669179,-0.03478712,0.000
 01116,0.00006795,0.00012710,0.00001551,-0.00000095,-0.00002726,0.00002
 406,-0.00000121,-0.00002022,-0.00006416,-0.00001752,0.00003376,0.00001
 459,-0.00004691,-0.00001473,0.00002683,-0.00008772,-0.00001543,-0.0000
 6201,0.00005713,0.00002054,0.00093635,-0.00028772,-0.00075321,-0.00017
 253,0.00063047,0.00345010,-0.24110241,-0.04695272,0.36117762\\0.000000
 41,0.00000013,0.00000007,-0.00000007,0.00000078,-0.00000013,0.00000020
 ,-0.00000014,-0.00000038,0.00000005,-0.00000048,-0.00000010,-0.0000003
 2,-0.00000028,0.00000006,-0.00000029,0.00000015,0.00000013,0.00000012,
 0.00000055,0.00000035,-0.00000007,-0.00000012,0.00000002,0.00000028,-0
 .00000045,-0.00000019,0.00000033,-0.00000041,-0.00000026,0.00000005,-0
 .00000066,-0.00000011,-0.00000008,-0.00000027,0.,-0.00000039,-0.000000
 05,0.00000028,-0.00000048,-0.00000051,0.00000010,-0.00000005,0.0000002
 7,0.00000005,-0.00000006,0.00000091,0.00000011,0.00000037,0.00000057,0
 .\\\@


 IF YOU GIVE A BOY AND A PIG EVERYTHING THEY WANT,
 YOU'LL GET A BAD BOY AND A GOOD PIG.
 Job cpu time:       0 days  2 hours 39 minutes 57.8 seconds.
 Elapsed time:       0 days  1 hours 19 minutes 60.0 seconds.
 File lengths (MBytes):  RWF=   1392 Int=      0 D2E=      0 Chk=     32 Scr=     32
 Normal termination of Gaussian 16 at Thu Sep 26 11:17:18 2019.
