 Entering Gaussian System, Link 0=g16
 Input=loose/species/CC(C)OC=CO/conformers/CC(C)OC=CO_130.com
 Output=loose/species/CC(C)OC=CO/conformers/CC(C)OC=CO_130.log
 Initial command:
 /shared/centos7/gaussian/g16/l1.exe "/scratch/harms.n/gauss_scrdir/Gau-26798.inp" -scrdir="/scratch/harms.n/gauss_scrdir/"
 Entering Link 1 = /shared/centos7/gaussian/g16/l1.exe PID=     26858.
  
 Copyright (c) 1988,1990,1992,1993,1995,1998,2003,2009,2016,
            Gaussian, Inc.  All Rights Reserved.
  
 This is part of the Gaussian(R) 16 program.  It is based on
 the Gaussian(R) 09 system (copyright 2009, Gaussian, Inc.),
 the Gaussian(R) 03 system (copyright 2003, Gaussian, Inc.),
 the Gaussian(R) 98 system (copyright 1998, Gaussian, Inc.),
 the Gaussian(R) 94 system (copyright 1995, Gaussian, Inc.),
 the Gaussian 92(TM) system (copyright 1992, Gaussian, Inc.),
 the Gaussian 90(TM) system (copyright 1990, Gaussian, Inc.),
 the Gaussian 88(TM) system (copyright 1988, Gaussian, Inc.),
 the Gaussian 86(TM) system (copyright 1986, Carnegie Mellon
 University), and the Gaussian 82(TM) system (copyright 1983,
 Carnegie Mellon University). Gaussian is a federally registered
 trademark of Gaussian, Inc.
  
 This software contains proprietary and confidential information,
 including trade secrets, belonging to Gaussian, Inc.
  
 This software is provided under written license and may be
 used, copied, transmitted, or stored only in accord with that
 written license.
  
 The following legend is applicable only to US Government
 contracts under FAR:
  
                    RESTRICTED RIGHTS LEGEND
  
 Use, reproduction and disclosure by the US Government is
 subject to restrictions as set forth in subparagraphs (a)
 and (c) of the Commercial Computer Software - Restricted
 Rights clause in FAR 52.227-19.
  
 Gaussian, Inc.
 340 Quinnipiac St., Bldg. 40, Wallingford CT 06492
  
  
 ---------------------------------------------------------------
 Warning -- This program may not be used in any manner that
 competes with the business of Gaussian, Inc. or will provide
 assistance to any competitor of Gaussian, Inc.  The licensee
 of this program is prohibited from giving any competitor of
 Gaussian, Inc. access to this program.  By using this program,
 the user acknowledges that Gaussian, Inc. is engaged in the
 business of creating and licensing software in the field of
 computational chemistry and represents and warrants to the
 licensee that it is not a competitor of Gaussian, Inc. and that
 it will not use this program in any manner prohibited above.
 ---------------------------------------------------------------
  

 Cite this work as:
 Gaussian 16, Revision A.03,
 M. J. Frisch, G. W. Trucks, H. B. Schlegel, G. E. Scuseria, 
 M. A. Robb, J. R. Cheeseman, G. Scalmani, V. Barone, 
 G. A. Petersson, H. Nakatsuji, X. Li, M. Caricato, A. V. Marenich, 
 J. Bloino, B. G. Janesko, R. Gomperts, B. Mennucci, H. P. Hratchian, 
 J. V. Ortiz, A. F. Izmaylov, J. L. Sonnenberg, D. Williams-Young, 
 F. Ding, F. Lipparini, F. Egidi, J. Goings, B. Peng, A. Petrone, 
 T. Henderson, D. Ranasinghe, V. G. Zakrzewski, J. Gao, N. Rega, 
 G. Zheng, W. Liang, M. Hada, M. Ehara, K. Toyota, R. Fukuda, 
 J. Hasegawa, M. Ishida, T. Nakajima, Y. Honda, O. Kitao, H. Nakai, 
 T. Vreven, K. Throssell, J. A. Montgomery, Jr., J. E. Peralta, 
 F. Ogliaro, M. J. Bearpark, J. J. Heyd, E. N. Brothers, K. N. Kudin, 
 V. N. Staroverov, T. A. Keith, R. Kobayashi, J. Normand, 
 K. Raghavachari, A. P. Rendell, J. C. Burant, S. S. Iyengar, 
 J. Tomasi, M. Cossi, J. M. Millam, M. Klene, C. Adamo, R. Cammi, 
 J. W. Ochterski, R. L. Martin, K. Morokuma, O. Farkas, 
 J. B. Foresman, and D. J. Fox, Gaussian, Inc., Wallingford CT, 2016.
 
 ******************************************
 Gaussian 16:  EM64L-G16RevA.03 25-Dec-2016
                25-Sep-2019 
 ******************************************
 %nprocshared=20
 Will use up to   20 processors via shared memory.
 %mem=5GB
 ----------------------------------------------------------------------
 #p m062x/cc-pVTZ opt=(calcfc,maxcycles=900,Tight) freq IOP(7/33=1,2/16
 =3) scf=(maxcycle=900)
 ----------------------------------------------------------------------
 1/6=900,7=10,10=4,18=20,19=15,26=3,38=1/1,3;
 2/9=110,12=2,16=3,17=6,18=5,40=1/2;
 3/5=16,6=1,11=2,25=1,30=1,71=2,74=-55,140=1/1,2,3;
 4//1;
 5/5=2,7=900,38=5/2;
 8/6=4,10=90,11=11/1;
 11/6=1,8=1,9=11,15=111,16=1/1,2,10;
 10/6=1,13=1/2;
 6/7=2,8=2,9=2,10=2,28=1/1;
 7/10=1,18=20,25=1,33=1/1,2,3,16;
 1/6=900,7=10,10=4,18=20,19=15,26=3/3(2);
 2/9=110,16=3/2;
 99//99;
 2/9=110,16=3/2;
 3/5=16,6=1,11=2,25=1,30=1,71=1,74=-55/1,2,3;
 4/5=5,16=3,69=1/1;
 5/5=2,7=900,38=5/2;
 7/33=1/1,2,3,16;
 1/6=900,7=10,18=20,19=15,26=3/3(-5);
 2/9=110,16=3/2;
 6/7=2,8=2,9=2,10=2,19=2,28=1/1;
 99/9=1/99;
 Leave Link    1 at Wed Sep 25 20:40:08 2019, MaxMem=   671088640 cpu:               2.9 elap:               1.5
 (Enter /shared/centos7/gaussian/g16/l101.exe)
 ------------------------------
 Gaussian input prepared by ASE
 ------------------------------
 Symbolic Z-matrix:
 Charge =  0 Multiplicity = 1
 O                     0.78906  -2.44763  -0.11015 
 O                     2.21684   0.69147   1.06973 
 C                    -0.57758  -2.53423   0.23434 
 C                    -1.06769  -1.45116   1.19548 
 C                    -0.9129   -3.8858    0.77366 
 C                     1.55631  -1.46545   0.47343 
 C                     1.37361  -0.17914   0.3955 
 H                    -1.13556  -2.40701  -0.73459 
 H                    -0.2016   -0.889     1.60301 
 H                    -1.73637  -0.72394   0.7 
 H                    -1.61966  -1.91396   2.0579 
 H                    -1.13975  -3.82298   1.87878 
 H                    -0.10474  -4.63347   0.63242 
 H                    -1.83751  -4.29169   0.27375 
 H                     2.42757  -1.84451   1.03105 
 H                     0.55714   0.31081  -0.11415 
 H                     1.87824   1.61837   0.90244 
 
 ITRead=  0  0  0  0  0  0  0  0  0  0  0  0  0  0  0  0  0
 MicOpt= -1 -1 -1 -1 -1 -1 -1 -1 -1 -1 -1 -1 -1 -1 -1 -1 -1
 NAtoms=     17 NQM=       17 NQMF=       0 NMMI=      0 NMMIF=      0
                NMic=       0 NMicF=      0.
                    Isotopes and Nuclear Properties:
 (Nuclear quadrupole moments (NQMom) in fm**2, nuclear magnetic moments (NMagM)
  in nuclear magnetons)

  Atom         1           2           3           4           5           6           7           8           9          10
 IAtWgt=          16          16          12          12          12          12          12           1           1           1
 AtmWgt=  15.9949146  15.9949146  12.0000000  12.0000000  12.0000000  12.0000000  12.0000000   1.0078250   1.0078250   1.0078250
 NucSpn=           0           0           0           0           0           0           0           1           1           1
 AtZEff=  -0.0000000  -0.0000000  -0.0000000  -0.0000000  -0.0000000  -0.0000000  -0.0000000  -0.0000000  -0.0000000  -0.0000000
 NQMom=    0.0000000   0.0000000   0.0000000   0.0000000   0.0000000   0.0000000   0.0000000   0.0000000   0.0000000   0.0000000
 NMagM=    0.0000000   0.0000000   0.0000000   0.0000000   0.0000000   0.0000000   0.0000000   2.7928460   2.7928460   2.7928460
 AtZNuc=   8.0000000   8.0000000   6.0000000   6.0000000   6.0000000   6.0000000   6.0000000   1.0000000   1.0000000   1.0000000

  Atom        11          12          13          14          15          16          17
 IAtWgt=           1           1           1           1           1           1           1
 AtmWgt=   1.0078250   1.0078250   1.0078250   1.0078250   1.0078250   1.0078250   1.0078250
 NucSpn=           1           1           1           1           1           1           1
 AtZEff=  -0.0000000  -0.0000000  -0.0000000  -0.0000000  -0.0000000  -0.0000000  -0.0000000
 NQMom=    0.0000000   0.0000000   0.0000000   0.0000000   0.0000000   0.0000000   0.0000000
 NMagM=    2.7928460   2.7928460   2.7928460   2.7928460   2.7928460   2.7928460   2.7928460
 AtZNuc=   1.0000000   1.0000000   1.0000000   1.0000000   1.0000000   1.0000000   1.0000000
 Leave Link  101 at Wed Sep 25 20:40:10 2019, MaxMem=   671088640 cpu:               5.0 elap:               2.5
 (Enter /shared/centos7/gaussian/g16/l103.exe)

 GradGradGradGradGradGradGradGradGradGradGradGradGradGradGradGradGradGrad
 Berny optimization.
 Initialization pass.
                           ----------------------------
                           !    Initial Parameters    !
                           ! (Angstroms and Degrees)  !
 --------------------------                            --------------------------
 ! Name  Definition              Value          Derivative Info.                !
 --------------------------------------------------------------------------------
 ! R1    R(1,3)                  1.412          calculate D2E/DX2 analytically  !
 ! R2    R(1,6)                  1.3762         calculate D2E/DX2 analytically  !
 ! R3    R(2,7)                  1.3869         calculate D2E/DX2 analytically  !
 ! R4    R(2,17)                 1.0009         calculate D2E/DX2 analytically  !
 ! R5    R(3,4)                  1.5287         calculate D2E/DX2 analytically  !
 ! R6    R(3,5)                  1.4933         calculate D2E/DX2 analytically  !
 ! R7    R(3,8)                  1.1253         calculate D2E/DX2 analytically  !
 ! R8    R(4,9)                  1.1101         calculate D2E/DX2 analytically  !
 ! R9    R(4,10)                 1.1052         calculate D2E/DX2 analytically  !
 ! R10   R(4,11)                 1.1237         calculate D2E/DX2 analytically  !
 ! R11   R(5,12)                 1.1299         calculate D2E/DX2 analytically  !
 ! R12   R(5,13)                 1.11           calculate D2E/DX2 analytically  !
 ! R13   R(5,14)                 1.1267         calculate D2E/DX2 analytically  !
 ! R14   R(6,7)                  1.3016         calculate D2E/DX2 analytically  !
 ! R15   R(6,15)                 1.1017         calculate D2E/DX2 analytically  !
 ! R16   R(7,16)                 1.08           calculate D2E/DX2 analytically  !
 ! A1    A(3,1,6)              118.6786         calculate D2E/DX2 analytically  !
 ! A2    A(7,2,17)             107.1209         calculate D2E/DX2 analytically  !
 ! A3    A(1,3,4)              114.8491         calculate D2E/DX2 analytically  !
 ! A4    A(1,3,5)              111.1578         calculate D2E/DX2 analytically  !
 ! A5    A(1,3,8)              105.2422         calculate D2E/DX2 analytically  !
 ! A6    A(4,3,5)              110.009          calculate D2E/DX2 analytically  !
 ! A7    A(4,3,8)              107.5946         calculate D2E/DX2 analytically  !
 ! A8    A(5,3,8)              107.5738         calculate D2E/DX2 analytically  !
 ! A9    A(3,4,9)              109.8444         calculate D2E/DX2 analytically  !
 ! A10   A(3,4,10)             112.2275         calculate D2E/DX2 analytically  !
 ! A11   A(3,4,11)             110.3792         calculate D2E/DX2 analytically  !
 ! A12   A(9,4,10)             107.6629         calculate D2E/DX2 analytically  !
 ! A13   A(9,4,11)             108.0636         calculate D2E/DX2 analytically  !
 ! A14   A(10,4,11)            108.535          calculate D2E/DX2 analytically  !
 ! A15   A(3,5,12)             110.364          calculate D2E/DX2 analytically  !
 ! A16   A(3,5,13)             113.5903         calculate D2E/DX2 analytically  !
 ! A17   A(3,5,14)             110.4911         calculate D2E/DX2 analytically  !
 ! A18   A(12,5,13)            107.944          calculate D2E/DX2 analytically  !
 ! A19   A(12,5,14)            106.811          calculate D2E/DX2 analytically  !
 ! A20   A(13,5,14)            107.3593         calculate D2E/DX2 analytically  !
 ! A21   A(1,6,7)              126.9907         calculate D2E/DX2 analytically  !
 ! A22   A(1,6,15)             114.2038         calculate D2E/DX2 analytically  !
 ! A23   A(7,6,15)             118.7737         calculate D2E/DX2 analytically  !
 ! A24   A(2,7,6)              120.3926         calculate D2E/DX2 analytically  !
 ! A25   A(2,7,16)             113.8445         calculate D2E/DX2 analytically  !
 ! A26   A(6,7,16)             125.6416         calculate D2E/DX2 analytically  !
 ! D1    D(6,1,3,4)              2.773          calculate D2E/DX2 analytically  !
 ! D2    D(6,1,3,5)           -122.929          calculate D2E/DX2 analytically  !
 ! D3    D(6,1,3,8)            120.9019         calculate D2E/DX2 analytically  !
 ! D4    D(3,1,6,7)            -60.0933         calculate D2E/DX2 analytically  !
 ! D5    D(3,1,6,15)           122.0029         calculate D2E/DX2 analytically  !
 ! D6    D(17,2,7,6)          -177.8725         calculate D2E/DX2 analytically  !
 ! D7    D(17,2,7,16)           -1.6548         calculate D2E/DX2 analytically  !
 ! D8    D(1,3,4,9)            -10.4866         calculate D2E/DX2 analytically  !
 ! D9    D(1,3,4,10)           109.2457         calculate D2E/DX2 analytically  !
 ! D10   D(1,3,4,11)          -129.5467         calculate D2E/DX2 analytically  !
 ! D11   D(5,3,4,9)            115.8093         calculate D2E/DX2 analytically  !
 ! D12   D(5,3,4,10)          -124.4584         calculate D2E/DX2 analytically  !
 ! D13   D(5,3,4,11)            -3.2508         calculate D2E/DX2 analytically  !
 ! D14   D(8,3,4,9)           -127.2816         calculate D2E/DX2 analytically  !
 ! D15   D(8,3,4,10)            -7.5493         calculate D2E/DX2 analytically  !
 ! D16   D(8,3,4,11)           113.6583         calculate D2E/DX2 analytically  !
 ! D17   D(1,3,5,12)           110.3416         calculate D2E/DX2 analytically  !
 ! D18   D(1,3,5,13)           -11.0366         calculate D2E/DX2 analytically  !
 ! D19   D(1,3,5,14)          -131.7508         calculate D2E/DX2 analytically  !
 ! D20   D(4,3,5,12)           -18.0102         calculate D2E/DX2 analytically  !
 ! D21   D(4,3,5,13)          -139.3884         calculate D2E/DX2 analytically  !
 ! D22   D(4,3,5,14)            99.8974         calculate D2E/DX2 analytically  !
 ! D23   D(8,3,5,12)          -134.9323         calculate D2E/DX2 analytically  !
 ! D24   D(8,3,5,13)           103.6895         calculate D2E/DX2 analytically  !
 ! D25   D(8,3,5,14)           -17.0247         calculate D2E/DX2 analytically  !
 ! D26   D(1,6,7,2)            178.39           calculate D2E/DX2 analytically  !
 ! D27   D(1,6,7,16)             2.6477         calculate D2E/DX2 analytically  !
 ! D28   D(15,6,7,2)            -3.7912         calculate D2E/DX2 analytically  !
 ! D29   D(15,6,7,16)         -179.5336         calculate D2E/DX2 analytically  !
 --------------------------------------------------------------------------------
 Trust Radius=3.00D-01 FncErr=1.00D-07 GrdErr=1.00D-06 EigMax=2.50D+02 EigMin=1.00D-04
 Number of steps in this run=    102 maximum allowed number of steps=    102.
 GradGradGradGradGradGradGradGradGradGradGradGradGradGradGradGradGradGrad

 Leave Link  103 at Wed Sep 25 20:40:11 2019, MaxMem=   671088640 cpu:               1.4 elap:               0.7
 (Enter /shared/centos7/gaussian/g16/l202.exe)
                          Input orientation:                          
 ---------------------------------------------------------------------
 Center     Atomic      Atomic             Coordinates (Angstroms)
 Number     Number       Type             X           Y           Z
 ---------------------------------------------------------------------
      1          8           0        0.789063   -2.447628   -0.110154
      2          8           0        2.216839    0.691469    1.069732
      3          6           0       -0.577575   -2.534226    0.234343
      4          6           0       -1.067690   -1.451163    1.195475
      5          6           0       -0.912896   -3.885804    0.773663
      6          6           0        1.556305   -1.465454    0.473430
      7          6           0        1.373606   -0.179141    0.395504
      8          1           0       -1.135556   -2.407015   -0.734585
      9          1           0       -0.201603   -0.889002    1.603005
     10          1           0       -1.736371   -0.723941    0.699997
     11          1           0       -1.619662   -1.913965    2.057897
     12          1           0       -1.139750   -3.822977    1.878776
     13          1           0       -0.104736   -4.633468    0.632419
     14          1           0       -1.837507   -4.291693    0.273754
     15          1           0        2.427575   -1.844512    1.031051
     16          1           0        0.557137    0.310813   -0.114149
     17          1           0        1.878241    1.618372    0.902441
 ---------------------------------------------------------------------
                    Distance matrix (angstroms):
                    1          2          3          4          5
     1  O    0.000000
     2  O    3.644805   0.000000
     3  C    1.412047   4.348762   0.000000
     4  C    2.478939   3.923622   1.528729   0.000000
     5  C    2.397112   5.552866   1.493342   2.475755   0.000000
     6  C    1.376189   2.333281   2.398516   2.721563   3.470617
     7  C    2.396541   1.386935   3.062597   2.866691   4.371549
     8  H    2.023789   4.908636   1.125320   2.154853   2.123960
     9  H    2.519057   2.937879   2.172868   1.110050   3.189760
    10  H    3.163109   4.215206   2.199266   1.105209   3.268167
    11  H    3.284387   4.741677   2.189982   1.123668   2.457016
    12  H    3.093178   5.683438   2.163581   2.469331   1.129905
    13  H    2.475518   5.825453   2.188347   3.372147   1.109989
    14  H    3.232156   6.473269   2.162793   3.083958   1.126748
    15  H    2.085861   2.545016   3.184553   3.521169   3.923247
    16  H    2.768177   2.073905   3.082736   2.731252   4.534402
    17  H    4.329435   1.000891   4.870467   4.264554   6.172761
                    6          7          8          9         10
     6  C    0.000000
     7  C    1.301558   0.000000
     8  H    3.097087   3.540680   0.000000
     9  H    2.167598   2.107900   2.939551   0.000000
    10  H    3.382734   3.171983   2.291668   1.788346   0.000000
    11  H    3.577495   3.838335   2.876702   1.807863   1.809329
    12  H    3.847288   4.668468   2.972310   3.092633   3.368903
    13  H    3.580593   4.699218   2.808627   3.869425   4.236886
    14  H    4.421025   5.219114   2.249777   4.002674   3.594547
    15  H    1.101697   2.070804   4.016190   2.855295   4.324780
    16  H    2.121016   1.080011   3.261401   2.227972   2.644566
    17  H    3.130124   1.934605   5.288342   3.332186   4.311941
                   11         12         13         14         15
    11  H    0.000000
    12  H    1.976545   0.000000
    13  H    3.423841   1.811507   0.000000
    14  H    2.980640   1.811811   1.802207   0.000000
    15  H    4.176047   4.166385   3.788110   4.975251   0.000000
    16  H    3.795507   4.892790   5.043942   5.202677   3.074971
    17  H    5.103705   6.298395   6.564344   7.009344   3.508542
                   16         17
    16  H    0.000000
    17  H    2.118604   0.000000
 Stoichiometry    C5H10O2
 Framework group  C1[X(C5H10O2)]
 Deg. of freedom    45
 Full point group                 C1      NOp   1
 Largest Abelian subgroup         C1      NOp   1
 Largest concise Abelian subgroup C1      NOp   1
                         Standard orientation:                         
 ---------------------------------------------------------------------
 Center     Atomic      Atomic             Coordinates (Angstroms)
 Number     Number       Type             X           Y           Z
 ---------------------------------------------------------------------
      1          8           0        0.463489   -1.021646    0.342307
      2          8           0       -2.929608    0.125112   -0.333298
      3          6           0        1.358442    0.069585    0.388696
      4          6           0        0.771616    1.401967   -0.077571
      5          6           0        2.611869   -0.228829   -0.366249
      6          6           0       -0.802193   -0.816952   -0.157736
      7          6           0       -1.702192    0.003795    0.300989
      8          1           0        1.633806    0.180431    1.474161
      9          1           0       -0.217299    1.232569   -0.552505
     10          1           0        0.625242    2.109785    0.758524
     11          1           0        1.445681    1.881736   -0.837891
     12          1           0        2.663429    0.396824   -1.305710
     13          1           0        2.710723   -1.294821   -0.659444
     14          1           0        3.516590    0.035291    0.251232
     15          1           0       -1.056926   -1.456517   -1.017855
     16          1           0       -1.570221    0.683067    1.130204
     17          1           0       -3.447337    0.826498    0.158430
 ---------------------------------------------------------------------
 Rotational constants (GHZ):           6.2676305           1.4093190           1.2454958
 Leave Link  202 at Wed Sep 25 20:40:13 2019, MaxMem=   671088640 cpu:               3.2 elap:               1.6
 (Enter /shared/centos7/gaussian/g16/l301.exe)
 Standard basis: CC-pVTZ (5D, 7F)
 Ernie: Thresh=  0.10000D-02 Tol=  0.10000D-05 Strict=F.
 Ernie:  21 primitive shells out of 262 were deleted.
 There are   395 symmetry adapted cartesian basis functions of A   symmetry.
 There are   350 symmetry adapted basis functions of A   symmetry.
   350 basis functions,   534 primitive gaussians,   395 cartesian basis functions
    28 alpha electrons       28 beta electrons
       nuclear repulsion energy       315.8292722383 Hartrees.
 IExCor= 4336 DFT=T Ex+Corr=M062X ExCW=0 ScaHFX=  0.540000
 ScaDFX=  1.000000  1.000000  1.000000  1.000000 ScalE2=  1.000000  1.000000
 IRadAn=      5 IRanWt=     -1 IRanGd=            0 ICorTp=0 IEmpDi=  4
 NAtoms=   17 NActive=   17 NUniq=   17 SFac= 1.00D+00 NAtFMM=   60 NAOKFM=F Big=F
 Integral buffers will be    131072 words long.
 Raffenetti 2 integral format.
 Two-electron integral symmetry is turned on.
 Leave Link  301 at Wed Sep 25 20:40:14 2019, MaxMem=   671088640 cpu:               2.0 elap:               1.0
 (Enter /shared/centos7/gaussian/g16/l302.exe)
 NPDir=0 NMtPBC=     1 NCelOv=     1 NCel=       1 NClECP=     1 NCelD=      1
         NCelK=      1 NCelE2=     1 NClLst=     1 CellRange=     0.0.
 One-electron integrals computed using PRISM.
 One-electron integral symmetry used in STVInt
 NBasis=   350 RedAO= T EigKep=  2.86D-04  NBF=   350
 NBsUse=   350 1.00D-06 EigRej= -1.00D+00 NBFU=   350
 Precomputing XC quadrature grid using
 IXCGrd= 4 IRadAn=           5 IRanWt=          -1 IRanGd=           0 AccXCQ= 0.00D+00.
 Generated NRdTot=       0 NPtTot=           0 NUsed=           0 NTot=          32
 NSgBfM=   395   395   395   395   395 MxSgAt=    17 MxSgA2=    17.
 Leave Link  302 at Wed Sep 25 20:41:14 2019, MaxMem=   671088640 cpu:             120.2 elap:              60.1
 (Enter /shared/centos7/gaussian/g16/l303.exe)
 DipDrv:  MaxL=1.
 Leave Link  303 at Wed Sep 25 20:41:21 2019, MaxMem=   671088640 cpu:              14.5 elap:               7.3
 (Enter /shared/centos7/gaussian/g16/l401.exe)
 ExpMin= 1.03D-01 ExpMax= 1.53D+04 ExpMxC= 5.22D+02 IAcc=3 IRadAn=         5 AccDes= 0.00D+00
 Harris functional with IExCor= 1009 and IRadAn=       5 diagonalized for initial guess.
 HarFok:  IExCor= 1009 AccDes= 0.00D+00 IRadAn=         5 IDoV= 1 UseB2=F ITyADJ=14
 ICtDFT=  3500011 ScaDFX=  1.000000  1.000000  1.000000  1.000000
 FoFCou: FMM=F IPFlag=           0 FMFlag=      100000 FMFlg1=           0
         NFxFlg=           0 DoJE=T BraDBF=F KetDBF=T FulRan=T
         wScrn=  0.000000 ICntrl=       500 IOpCl=  0 I1Cent=   200000004 NGrid=           0
         NMat0=    1 NMatS0=      1 NMatT0=    0 NMatD0=    1 NMtDS0=    0 NMtDT0=    0
 Petite list used in FoFCou.
 Harris En= -346.789990199724    
 JPrj=0 DoOrth=F DoCkMO=F.
 Leave Link  401 at Wed Sep 25 20:42:23 2019, MaxMem=   671088640 cpu:              62.1 elap:              62.1
 (Enter /shared/centos7/gaussian/g16/l502.exe)
 Integral symmetry usage will be decided dynamically.
 Closed shell SCF:
 Using DIIS extrapolation, IDIIS=  1040.
 NGot=   671088640 LenX=   670765141 LenY=   670608675
 Requested convergence on RMS density matrix=1.00D-08 within 900 cycles.
 Requested convergence on MAX density matrix=1.00D-06.
 Requested convergence on             energy=1.00D-06.
 No special actions if energy rises.
 Fock matrices will be formed incrementally for  20 cycles.
 Integral accuracy reduced to 1.0D-05 until final iterations.

 Cycle   1  Pass 0  IDiag  1:
 FoFJK:  IHMeth= 1 ICntrl=       0 DoSepK=F KAlg= 0 I1Cent=           0 FoldK=F
 IRaf= 950000000 NMat=       1 IRICut=       1 DoRegI=T DoRafI=F ISym2E= 0 IDoP0=0 IntGTp=1.
 FoFCou: FMM=F IPFlag=           0 FMFlag=      100000 FMFlg1=           0
         NFxFlg=           0 DoJE=F BraDBF=F KetDBF=F FulRan=T
         wScrn=  0.000000 ICntrl=         0 IOpCl=  0 I1Cent=           0 NGrid=           0
         NMat0=    1 NMatS0=      1 NMatT0=    0 NMatD0=    1 NMtDS0=    0 NMtDT0=    0
 Symmetry not used in FoFCou.
 E= -346.669485444362    
 DIIS: error= 2.04D-02 at cycle   1 NSaved=   1.
 NSaved= 1 IEnMin= 1 EnMin= -346.669485444362     IErMin= 1 ErrMin= 2.04D-02
 ErrMax= 2.04D-02  0.00D+00 EMaxC= 1.00D-01 BMatC= 2.89D-01 BMatP= 2.89D-01
 IDIUse=3 WtCom= 7.96D-01 WtEn= 2.04D-01
 Coeff-Com:  0.100D+01
 Coeff-En:   0.100D+01
 Coeff:      0.100D+01
 Gap=     0.335 Goal=   None    Shift=    0.000
 GapD=    0.335 DampG=1.000 DampE=0.500 DampFc=0.5000 IDamp=-1.
 Damping current iteration by 5.00D-01
 RMSDP=2.22D-03 MaxDP=1.19D-01              OVMax= 1.44D-01

 Cycle   2  Pass 0  IDiag  1:
 RMSU=  1.11D-03    CP:  1.00D+00
 E= -346.789113883797     Delta-E=       -0.119628439435 Rises=F Damp=T
 DIIS: error= 7.74D-03 at cycle   2 NSaved=   2.
 NSaved= 2 IEnMin= 2 EnMin= -346.789113883797     IErMin= 2 ErrMin= 7.74D-03
 ErrMax= 7.74D-03  0.00D+00 EMaxC= 1.00D-01 BMatC= 2.13D-02 BMatP= 2.89D-01
 IDIUse=3 WtCom= 9.23D-01 WtEn= 7.74D-02
 Coeff-Com: -0.128D+00 0.113D+01
 Coeff-En:   0.000D+00 0.100D+01
 Coeff:     -0.118D+00 0.112D+01
 Gap=     0.317 Goal=   None    Shift=    0.000
 RMSDP=4.49D-04 MaxDP=1.46D-02 DE=-1.20D-01 OVMax= 7.11D-02

 Cycle   3  Pass 0  IDiag  1:
 RMSU=  4.44D-04    CP:  1.01D+00  9.44D-01
 E= -346.897839553733     Delta-E=       -0.108725669936 Rises=F Damp=F
 DIIS: error= 2.34D-03 at cycle   3 NSaved=   3.
 NSaved= 3 IEnMin= 3 EnMin= -346.897839553733     IErMin= 3 ErrMin= 2.34D-03
 ErrMax= 2.34D-03  0.00D+00 EMaxC= 1.00D-01 BMatC= 3.13D-03 BMatP= 2.13D-02
 IDIUse=3 WtCom= 9.77D-01 WtEn= 2.34D-02
 Coeff-Com: -0.770D-01 0.288D+00 0.789D+00
 Coeff-En:   0.000D+00 0.000D+00 0.100D+01
 Coeff:     -0.752D-01 0.281D+00 0.794D+00
 Gap=     0.317 Goal=   None    Shift=    0.000
 RMSDP=1.38D-04 MaxDP=6.23D-03 DE=-1.09D-01 OVMax= 1.12D-02

 Cycle   4  Pass 0  IDiag  1:
 RMSU=  1.07D-04    CP:  1.00D+00  1.02D+00  9.22D-01
 E= -346.899596281410     Delta-E=       -0.001756727678 Rises=F Damp=F
 DIIS: error= 1.14D-03 at cycle   4 NSaved=   4.
 NSaved= 4 IEnMin= 4 EnMin= -346.899596281410     IErMin= 4 ErrMin= 1.14D-03
 ErrMax= 1.14D-03  0.00D+00 EMaxC= 1.00D-01 BMatC= 8.06D-04 BMatP= 3.13D-03
 IDIUse=3 WtCom= 9.89D-01 WtEn= 1.14D-02
 Coeff-Com: -0.259D-01 0.680D-01 0.382D+00 0.575D+00
 Coeff-En:   0.000D+00 0.000D+00 0.140D+00 0.860D+00
 Coeff:     -0.256D-01 0.672D-01 0.380D+00 0.579D+00
 Gap=     0.314 Goal=   None    Shift=    0.000
 RMSDP=5.14D-05 MaxDP=2.33D-03 DE=-1.76D-03 OVMax= 5.32D-03

 Cycle   5  Pass 0  IDiag  1:
 RMSU=  2.62D-05    CP:  1.00D+00  1.00D+00  9.56D-01  6.31D-01
 E= -346.900183103327     Delta-E=       -0.000586821916 Rises=F Damp=F
 DIIS: error= 1.74D-04 at cycle   5 NSaved=   5.
 NSaved= 5 IEnMin= 5 EnMin= -346.900183103327     IErMin= 5 ErrMin= 1.74D-04
 ErrMax= 1.74D-04  0.00D+00 EMaxC= 1.00D-01 BMatC= 2.16D-05 BMatP= 8.06D-04
 IDIUse=3 WtCom= 9.98D-01 WtEn= 1.74D-03
 Coeff-Com: -0.442D-02 0.819D-02 0.906D-01 0.208D+00 0.698D+00
 Coeff-En:   0.000D+00 0.000D+00 0.000D+00 0.000D+00 0.100D+01
 Coeff:     -0.441D-02 0.818D-02 0.904D-01 0.207D+00 0.699D+00
 Gap=     0.314 Goal=   None    Shift=    0.000
 RMSDP=1.08D-05 MaxDP=5.74D-04 DE=-5.87D-04 OVMax= 7.70D-04

 Cycle   6  Pass 0  IDiag  1:
 RMSU=  8.46D-06    CP:  1.00D+00  1.00D+00  9.62D-01  6.69D-01  8.33D-01
 E= -346.900198730752     Delta-E=       -0.000015627426 Rises=F Damp=F
 DIIS: error= 4.61D-05 at cycle   6 NSaved=   6.
 NSaved= 6 IEnMin= 6 EnMin= -346.900198730752     IErMin= 6 ErrMin= 4.61D-05
 ErrMax= 4.61D-05  0.00D+00 EMaxC= 1.00D-01 BMatC= 1.42D-06 BMatP= 2.16D-05
 IDIUse=1 WtCom= 1.00D+00 WtEn= 0.00D+00
 Coeff-Com:  0.169D-03-0.146D-02 0.915D-02 0.416D-01 0.243D+00 0.708D+00
 Coeff:      0.169D-03-0.146D-02 0.915D-02 0.416D-01 0.243D+00 0.708D+00
 Gap=     0.314 Goal=   None    Shift=    0.000
 RMSDP=3.34D-06 MaxDP=1.60D-04 DE=-1.56D-05 OVMax= 3.70D-04

 Initial convergence to 1.0D-05 achieved.  Increase integral accuracy.
 Cycle   7  Pass 1  IDiag  1:
 E= -346.900174242885     Delta-E=        0.000024487868 Rises=F Damp=F
 DIIS: error= 2.03D-05 at cycle   1 NSaved=   1.
 NSaved= 1 IEnMin= 1 EnMin= -346.900174242885     IErMin= 1 ErrMin= 2.03D-05
 ErrMax= 2.03D-05  0.00D+00 EMaxC= 1.00D-01 BMatC= 6.33D-07 BMatP= 6.33D-07
 IDIUse=1 WtCom= 1.00D+00 WtEn= 0.00D+00
 Coeff-Com:  0.100D+01
 Coeff:      0.100D+01
 Gap=     0.314 Goal=   None    Shift=    0.000
 RMSDP=3.34D-06 MaxDP=1.60D-04 DE= 2.45D-05 OVMax= 1.48D-04

 Cycle   8  Pass 1  IDiag  1:
 RMSU=  7.04D-06    CP:  1.00D+00
 E= -346.900174482434     Delta-E=       -0.000000239549 Rises=F Damp=F
 DIIS: error= 1.92D-05 at cycle   2 NSaved=   2.
 NSaved= 2 IEnMin= 2 EnMin= -346.900174482434     IErMin= 2 ErrMin= 1.92D-05
 ErrMax= 1.92D-05  0.00D+00 EMaxC= 1.00D-01 BMatC= 2.03D-07 BMatP= 6.33D-07
 IDIUse=1 WtCom= 1.00D+00 WtEn= 0.00D+00
 Coeff-Com:  0.315D+00 0.685D+00
 Coeff:      0.315D+00 0.685D+00
 Gap=     0.314 Goal=   None    Shift=    0.000
 RMSDP=1.26D-06 MaxDP=5.30D-05 DE=-2.40D-07 OVMax= 1.74D-04

 Cycle   9  Pass 1  IDiag  1:
 RMSU=  1.25D-06    CP:  1.00D+00  1.01D+00
 E= -346.900174610752     Delta-E=       -0.000000128318 Rises=F Damp=F
 DIIS: error= 7.72D-06 at cycle   3 NSaved=   3.
 NSaved= 3 IEnMin= 3 EnMin= -346.900174610752     IErMin= 3 ErrMin= 7.72D-06
 ErrMax= 7.72D-06  0.00D+00 EMaxC= 1.00D-01 BMatC= 5.17D-08 BMatP= 2.03D-07
 IDIUse=1 WtCom= 1.00D+00 WtEn= 0.00D+00
 Coeff-Com: -0.138D-01 0.328D+00 0.685D+00
 Coeff:     -0.138D-01 0.328D+00 0.685D+00
 Gap=     0.314 Goal=   None    Shift=    0.000
 RMSDP=4.52D-07 MaxDP=1.77D-05 DE=-1.28D-07 OVMax= 5.38D-05

 Cycle  10  Pass 1  IDiag  1:
 RMSU=  2.34D-07    CP:  1.00D+00  1.03D+00  7.20D-01
 E= -346.900174650320     Delta-E=       -0.000000039568 Rises=F Damp=F
 DIIS: error= 1.34D-06 at cycle   4 NSaved=   4.
 NSaved= 4 IEnMin= 4 EnMin= -346.900174650320     IErMin= 4 ErrMin= 1.34D-06
 ErrMax= 1.34D-06  0.00D+00 EMaxC= 1.00D-01 BMatC= 1.29D-09 BMatP= 5.17D-08
 IDIUse=1 WtCom= 1.00D+00 WtEn= 0.00D+00
 Coeff-Com: -0.119D-01 0.136D+00 0.300D+00 0.577D+00
 Coeff:     -0.119D-01 0.136D+00 0.300D+00 0.577D+00
 Gap=     0.314 Goal=   None    Shift=    0.000
 RMSDP=8.71D-08 MaxDP=2.96D-06 DE=-3.96D-08 OVMax= 1.32D-05

 Cycle  11  Pass 1  IDiag  1:
 RMSU=  7.83D-08    CP:  1.00D+00  1.03D+00  7.47D-01  1.01D+00
 E= -346.900174651371     Delta-E=       -0.000000001051 Rises=F Damp=F
 DIIS: error= 3.76D-07 at cycle   5 NSaved=   5.
 NSaved= 5 IEnMin= 5 EnMin= -346.900174651371     IErMin= 5 ErrMin= 3.76D-07
 ErrMax= 3.76D-07  0.00D+00 EMaxC= 1.00D-01 BMatC= 1.18D-10 BMatP= 1.29D-09
 IDIUse=1 WtCom= 1.00D+00 WtEn= 0.00D+00
 Coeff-Com: -0.867D-03-0.169D-01-0.399D-01 0.174D+00 0.884D+00
 Coeff:     -0.867D-03-0.169D-01-0.399D-01 0.174D+00 0.884D+00
 Gap=     0.314 Goal=   None    Shift=    0.000
 RMSDP=4.49D-08 MaxDP=1.36D-06 DE=-1.05D-09 OVMax= 3.96D-06

 Cycle  12  Pass 1  IDiag  1:
 RMSU=  2.60D-08    CP:  1.00D+00  1.03D+00  7.47D-01  1.16D+00  1.05D+00
 E= -346.900174651500     Delta-E=       -0.000000000130 Rises=F Damp=F
 DIIS: error= 1.23D-07 at cycle   6 NSaved=   6.
 NSaved= 6 IEnMin= 6 EnMin= -346.900174651500     IErMin= 6 ErrMin= 1.23D-07
 ErrMax= 1.23D-07  0.00D+00 EMaxC= 1.00D-01 BMatC= 1.61D-11 BMatP= 1.18D-10
 IDIUse=1 WtCom= 1.00D+00 WtEn= 0.00D+00
 Coeff-Com:  0.860D-03-0.208D-01-0.494D-01 0.199D-01 0.375D+00 0.674D+00
 Coeff:      0.860D-03-0.208D-01-0.494D-01 0.199D-01 0.375D+00 0.674D+00
 Gap=     0.314 Goal=   None    Shift=    0.000
 RMSDP=1.32D-08 MaxDP=3.65D-07 DE=-1.30D-10 OVMax= 2.02D-06

 Cycle  13  Pass 1  IDiag  1:
 RMSU=  9.78D-09    CP:  1.00D+00  1.03D+00  7.50D-01  1.18D+00  1.11D+00
                    CP:  9.76D-01
 E= -346.900174651509     Delta-E=       -0.000000000008 Rises=F Damp=F
 DIIS: error= 4.52D-08 at cycle   7 NSaved=   7.
 NSaved= 7 IEnMin= 7 EnMin= -346.900174651509     IErMin= 7 ErrMin= 4.52D-08
 ErrMax= 4.52D-08  0.00D+00 EMaxC= 1.00D-01 BMatC= 2.01D-12 BMatP= 1.61D-11
 IDIUse=1 WtCom= 1.00D+00 WtEn= 0.00D+00
 Coeff-Com:  0.462D-03-0.678D-02-0.167D-01-0.868D-02 0.610D-01 0.299D+00
 Coeff-Com:  0.671D+00
 Coeff:      0.462D-03-0.678D-02-0.167D-01-0.868D-02 0.610D-01 0.299D+00
 Coeff:      0.671D+00
 Gap=     0.314 Goal=   None    Shift=    0.000
 RMSDP=4.76D-09 MaxDP=1.86D-07 DE=-8.41D-12 OVMax= 4.07D-07

 SCF Done:  E(RM062X) =  -346.900174652     A.U. after   13 cycles
            NFock= 13  Conv=0.48D-08     -V/T= 2.0059
 KE= 3.448504760212D+02 PE=-1.441824460095D+03 EE= 4.342445371842D+02
 Leave Link  502 at Wed Sep 25 20:53:31 2019, MaxMem=   671088640 cpu:            1335.1 elap:             667.7
 (Enter /shared/centos7/gaussian/g16/l801.exe)
 DoSCS=F DFT=T ScalE2(SS,OS)=  1.000000  1.000000
 Range of M.O.s used for correlation:     1   350
 NBasis=   350 NAE=    28 NBE=    28 NFC=     0 NFV=     0
 NROrb=    350 NOA=    28 NOB=    28 NVA=   322 NVB=   322
 Leave Link  801 at Wed Sep 25 20:53:32 2019, MaxMem=   671088640 cpu:               1.3 elap:               1.3
 (Enter /shared/centos7/gaussian/g16/l1101.exe)
 Using compressed storage, NAtomX=    17.
 Will process     18 centers per pass.
 Leave Link 1101 at Wed Sep 25 20:54:32 2019, MaxMem=   671088640 cpu:              59.4 elap:              59.4
 (Enter /shared/centos7/gaussian/g16/l1102.exe)
 Symmetrizing basis deriv contribution to polar:
 IMax=3 JMax=2 DiffMx= 0.00D+00
 Leave Link 1102 at Wed Sep 25 20:54:34 2019, MaxMem=   671088640 cpu:               5.1 elap:               2.6
 (Enter /shared/centos7/gaussian/g16/l1110.exe)
 Forming Gx(P) for the SCF density, NAtomX=    17.
 Integral derivatives from FoFJK, PRISM(SPDF).
 Do as many integral derivatives as possible in FoFJK.
 G2DrvN: MDV=     671087280.
 G2DrvN: will do    18 centers at a time, making    1 passes.
 Calling FoFCou, ICntrl=  3107 FMM=F I1Cent=   0 AccDes= 0.00D+00.
 FoFJK:  IHMeth= 1 ICntrl=    3107 DoSepK=F KAlg= 0 I1Cent=           0 FoldK=F
 IRaf=         0 NMat=       1 IRICut=       1 DoRegI=T DoRafI=F ISym2E= 0 IDoP0=0 IntGTp=1.
 FoFCou: FMM=F IPFlag=           0 FMFlag=      100000 FMFlg1=           0
         NFxFlg=           0 DoJE=F BraDBF=F KetDBF=F FulRan=T
         wScrn=  0.000000 ICntrl=      3107 IOpCl=  0 I1Cent=           0 NGrid=           0
         NMat0=    1 NMatS0=      1 NMatT0=    0 NMatD0=    1 NMtDS0=    0 NMtDT0=    0
 Symmetry not used in FoFCou.
 End of G2Drv F.D. properties file   721 does not exist.
 End of G2Drv F.D. properties file   722 does not exist.
 End of G2Drv F.D. properties file   788 does not exist.
 Leave Link 1110 at Wed Sep 25 21:16:57 2019, MaxMem=   671088640 cpu:            2357.2 elap:            1343.2
 (Enter /shared/centos7/gaussian/g16/l1002.exe)
 Minotr:  Closed shell wavefunction.
          IDoAtm=11111111111111111
          Direct CPHF calculation.
          Differentiating once with respect to nuclear coordinates.
          Requested convergence is 1.0D-08 RMS, and 1.0D-07 maximum.
          Secondary convergence is 1.0D-12 RMS, and 1.0D-12 maximum.
          NewPWx=T KeepS1=F KeepF1=F KeepIn=T MapXYZ=F SortEE=F KeepMc=T.
         5102 words used for storage of precomputed grid.
 Two-electron integrals replicated using symmetry.
          MDV=     671088640 using IRadAn=       1.
          Solving linear equations simultaneously, MaxMat=     380.
 FoF2E skips out because all densities are zero.
 CalDSu exits because no D1Ps are significant.
 FoFJK:  IHMeth= 1 ICntrl=       0 DoSepK=F KAlg= 0 I1Cent=           0 FoldK=F
 IRaf= 930000000 NMat=      51 IRICut=     127 DoRegI=T DoRafI=T ISym2E= 2 IDoP0=3 IntGTp=3.
 FoFCou: FMM=F IPFlag=           0 FMFlag=      100000 FMFlg1=           0
         NFxFlg=           0 DoJE=F BraDBF=F KetDBF=F FulRan=T
         wScrn=  0.000000 ICntrl=         0 IOpCl=  0 I1Cent=           0 NGrid=           0
         NMat0=   51 NMatS0=     51 NMatT0=    0 NMatD0=   51 NMtDS0=    0 NMtDT0=    0
 Integrals replicated using symmetry in FoFCou.
 Raff kept on since  90.95% of shell-pairs survive, threshold=   0.20 IRatSp=91.
          There are    54 degrees of freedom in the 1st order CPHF.  IDoFFX=6 NUNeed=     0.
     48 vectors produced by pass  0 Test12= 1.67D-14 1.85D-09 XBig12= 7.53D-02 5.56D-02.
 AX will form    48 AO Fock derivatives at one time.
     48 vectors produced by pass  1 Test12= 1.67D-14 1.85D-09 XBig12= 6.23D-03 2.19D-02.
     48 vectors produced by pass  2 Test12= 1.67D-14 1.85D-09 XBig12= 1.87D-04 1.96D-03.
     48 vectors produced by pass  3 Test12= 1.67D-14 1.85D-09 XBig12= 2.27D-06 2.07D-04.
     48 vectors produced by pass  4 Test12= 1.67D-14 1.85D-09 XBig12= 1.72D-08 1.61D-05.
     48 vectors produced by pass  5 Test12= 1.67D-14 1.85D-09 XBig12= 8.29D-11 9.04D-07.
     28 vectors produced by pass  6 Test12= 1.67D-14 1.85D-09 XBig12= 3.84D-13 5.95D-08.
      5 vectors produced by pass  7 Test12= 1.67D-14 1.85D-09 XBig12= 1.51D-15 4.63D-09.
 InvSVY:  IOpt=1 It=  1 EMax= 2.50D-16
 Solved reduced A of dimension   321 with    54 vectors.
 End of Minotr F.D. properties file   721 does not exist.
 End of Minotr F.D. properties file   722 does not exist.
 End of Minotr F.D. properties file   788 does not exist.
 Leave Link 1002 at Wed Sep 25 21:51:16 2019, MaxMem=   671088640 cpu:            4115.7 elap:            2058.1
 (Enter /shared/centos7/gaussian/g16/l601.exe)
 Copying SCF densities to generalized density rwf, IOpCl= 0 IROHF=0.

 **********************************************************************

            Population analysis using the SCF density.

 **********************************************************************

 Orbital symmetries:
       Occupied  (A) (A) (A) (A) (A) (A) (A) (A) (A) (A) (A) (A)
                 (A) (A) (A) (A) (A) (A) (A) (A) (A) (A) (A) (A)
                 (A) (A) (A) (A)
       Virtual   (A) (A) (A) (A) (A) (A) (A) (A) (A) (A) (A) (A)
                 (A) (A) (A) (A) (A) (A) (A) (A) (A) (A) (A) (A)
                 (A) (A) (A) (A) (A) (A) (A) (A) (A) (A) (A) (A)
                 (A) (A) (A) (A) (A) (A) (A) (A) (A) (A) (A) (A)
                 (A) (A) (A) (A) (A) (A) (A) (A) (A) (A) (A) (A)
                 (A) (A) (A) (A) (A) (A) (A) (A) (A) (A) (A) (A)
                 (A) (A) (A) (A) (A) (A) (A) (A) (A) (A) (A) (A)
                 (A) (A) (A) (A) (A) (A) (A) (A) (A) (A) (A) (A)
                 (A) (A) (A) (A) (A) (A) (A) (A) (A) (A) (A) (A)
                 (A) (A) (A) (A) (A) (A) (A) (A) (A) (A) (A) (A)
                 (A) (A) (A) (A) (A) (A) (A) (A) (A) (A) (A) (A)
                 (A) (A) (A) (A) (A) (A) (A) (A) (A) (A) (A) (A)
                 (A) (A) (A) (A) (A) (A) (A) (A) (A) (A) (A) (A)
                 (A) (A) (A) (A) (A) (A) (A) (A) (A) (A) (A) (A)
                 (A) (A) (A) (A) (A) (A) (A) (A) (A) (A) (A) (A)
                 (A) (A) (A) (A) (A) (A) (A) (A) (A) (A) (A) (A)
                 (A) (A) (A) (A) (A) (A) (A) (A) (A) (A) (A) (A)
                 (A) (A) (A) (A) (A) (A) (A) (A) (A) (A) (A) (A)
                 (A) (A) (A) (A) (A) (A) (A) (A) (A) (A) (A) (A)
                 (A) (A) (A) (A) (A) (A) (A) (A) (A) (A) (A) (A)
                 (A) (A) (A) (A) (A) (A) (A) (A) (A) (A) (A) (A)
                 (A) (A) (A) (A) (A) (A) (A) (A) (A) (A) (A) (A)
                 (A) (A) (A) (A) (A) (A) (A) (A) (A) (A) (A) (A)
                 (A) (A) (A) (A) (A) (A) (A) (A) (A) (A) (A) (A)
                 (A) (A) (A) (A) (A) (A) (A) (A) (A) (A) (A) (A)
                 (A) (A) (A) (A) (A) (A) (A) (A) (A) (A) (A) (A)
                 (A) (A) (A) (A) (A) (A) (A) (A) (A) (A)
 The electronic state is 1-A.
 Alpha  occ. eigenvalues --  -19.65261 -19.63547 -10.59194 -10.58571 -10.57333
 Alpha  occ. eigenvalues --  -10.52824 -10.52670  -1.17646  -1.16482  -0.89006
 Alpha  occ. eigenvalues --   -0.84744  -0.77283  -0.70586  -0.63926  -0.61200
 Alpha  occ. eigenvalues --   -0.56869  -0.55071  -0.53137  -0.50696  -0.47074
 Alpha  occ. eigenvalues --   -0.46114  -0.44693  -0.43452  -0.42631  -0.41006
 Alpha  occ. eigenvalues --   -0.38256  -0.34776  -0.27196
 Alpha virt. eigenvalues --    0.04235   0.06477   0.07257   0.09558   0.10891
 Alpha virt. eigenvalues --    0.12028   0.13005   0.13724   0.16579   0.16789
 Alpha virt. eigenvalues --    0.17612   0.19307   0.21786   0.23253   0.24842
 Alpha virt. eigenvalues --    0.27640   0.29106   0.30538   0.32151   0.33694
 Alpha virt. eigenvalues --    0.34610   0.37188   0.38228   0.39073   0.41308
 Alpha virt. eigenvalues --    0.41651   0.43102   0.43909   0.45829   0.46184
 Alpha virt. eigenvalues --    0.46981   0.48071   0.49358   0.50056   0.50149
 Alpha virt. eigenvalues --    0.51331   0.51653   0.53146   0.53564   0.54975
 Alpha virt. eigenvalues --    0.56615   0.57225   0.58093   0.59745   0.60340
 Alpha virt. eigenvalues --    0.64550   0.65586   0.69118   0.69709   0.70790
 Alpha virt. eigenvalues --    0.73490   0.75227   0.79065   0.80546   0.83151
 Alpha virt. eigenvalues --    0.84894   0.86884   0.89478   0.90855   0.92115
 Alpha virt. eigenvalues --    0.93144   0.96559   0.97382   0.98915   1.00220
 Alpha virt. eigenvalues --    1.00803   1.03544   1.04468   1.06237   1.07155
 Alpha virt. eigenvalues --    1.09214   1.10027   1.11148   1.11650   1.14102
 Alpha virt. eigenvalues --    1.14745   1.16935   1.17638   1.18300   1.20010
 Alpha virt. eigenvalues --    1.22997   1.23875   1.26212   1.27955   1.28723
 Alpha virt. eigenvalues --    1.30487   1.31082   1.32823   1.33295   1.35252
 Alpha virt. eigenvalues --    1.36446   1.37425   1.37982   1.39945   1.41062
 Alpha virt. eigenvalues --    1.42125   1.45640   1.46392   1.48524   1.51546
 Alpha virt. eigenvalues --    1.53478   1.54047   1.56335   1.58750   1.60509
 Alpha virt. eigenvalues --    1.62475   1.65544   1.69336   1.75061   1.86541
 Alpha virt. eigenvalues --    1.88686   1.92855   1.95897   2.04174   2.04855
 Alpha virt. eigenvalues --    2.07486   2.11838   2.15611   2.16282   2.19263
 Alpha virt. eigenvalues --    2.23385   2.25774   2.28168   2.32763   2.33510
 Alpha virt. eigenvalues --    2.35538   2.38301   2.42269   2.43142   2.45759
 Alpha virt. eigenvalues --    2.48834   2.49525   2.52506   2.55660   2.58192
 Alpha virt. eigenvalues --    2.59798   2.61558   2.63115   2.64766   2.65794
 Alpha virt. eigenvalues --    2.71022   2.73143   2.77436   2.79450   2.80088
 Alpha virt. eigenvalues --    2.81640   2.83056   2.84680   2.85783   2.86352
 Alpha virt. eigenvalues --    2.87061   2.90239   2.92628   2.95197   2.95562
 Alpha virt. eigenvalues --    2.95847   2.97594   2.99139   3.00321   3.00397
 Alpha virt. eigenvalues --    3.02509   3.04027   3.04659   3.06161   3.06947
 Alpha virt. eigenvalues --    3.09442   3.11685   3.12457   3.13124   3.14060
 Alpha virt. eigenvalues --    3.16581   3.17189   3.18963   3.22007   3.22357
 Alpha virt. eigenvalues --    3.25053   3.25999   3.27466   3.30364   3.31294
 Alpha virt. eigenvalues --    3.32507   3.34004   3.34490   3.36832   3.37786
 Alpha virt. eigenvalues --    3.38506   3.41074   3.42025   3.43865   3.44797
 Alpha virt. eigenvalues --    3.44816   3.49052   3.49493   3.51457   3.56171
 Alpha virt. eigenvalues --    3.56939   3.58450   3.58967   3.60006   3.60797
 Alpha virt. eigenvalues --    3.62027   3.65510   3.65993   3.69128   3.71102
 Alpha virt. eigenvalues --    3.73449   3.74605   3.75559   3.76298   3.77781
 Alpha virt. eigenvalues --    3.81023   3.83175   3.84129   3.85831   3.86638
 Alpha virt. eigenvalues --    3.87437   3.91000   3.91256   3.94831   3.95250
 Alpha virt. eigenvalues --    3.97255   3.97400   3.98743   3.99427   4.00430
 Alpha virt. eigenvalues --    4.04066   4.04214   4.05477   4.08270   4.09662
 Alpha virt. eigenvalues --    4.10976   4.11359   4.12272   4.14867   4.18416
 Alpha virt. eigenvalues --    4.19023   4.22387   4.23692   4.27251   4.29150
 Alpha virt. eigenvalues --    4.29521   4.34670   4.38465   4.39438   4.41432
 Alpha virt. eigenvalues --    4.45369   4.47253   4.49760   4.52440   4.54218
 Alpha virt. eigenvalues --    4.57502   4.61928   4.64683   4.67491   4.68036
 Alpha virt. eigenvalues --    4.71383   4.73190   4.75723   4.81597   4.81855
 Alpha virt. eigenvalues --    4.82672   4.88026   4.90084   4.91898   4.93146
 Alpha virt. eigenvalues --    4.93819   4.96508   5.01534   5.02357   5.05997
 Alpha virt. eigenvalues --    5.09368   5.10844   5.11834   5.14155   5.18104
 Alpha virt. eigenvalues --    5.20723   5.23303   5.24498   5.25693   5.28702
 Alpha virt. eigenvalues --    5.29714   5.32056   5.33034   5.37772   5.44068
 Alpha virt. eigenvalues --    5.46590   5.54299   5.59429   5.68172   5.71348
 Alpha virt. eigenvalues --    5.77794   5.79359   5.80542   5.82139   5.87156
 Alpha virt. eigenvalues --    5.94749   6.00393   6.10573   6.24308   6.25990
 Alpha virt. eigenvalues --    6.33445   6.40855   6.57022   6.62516   6.68967
 Alpha virt. eigenvalues --    6.74575   6.76584   6.77243   6.80824   7.03590
 Alpha virt. eigenvalues --    7.08556   7.20102   7.26397   7.32448   7.37790
 Alpha virt. eigenvalues --   10.50441  10.82919  11.73048  11.84739  13.00569
 Alpha virt. eigenvalues --   13.45920  14.32951
          Condensed to atoms (all electrons):
               1          2          3          4          5          6
     1  O    7.848151   0.001775   0.287405  -0.048148  -0.049746   0.372946
     2  O    0.001775   7.801862   0.000404  -0.002198  -0.000008  -0.076227
     3  C    0.287405   0.000404   4.916085   0.277677   0.317687  -0.077851
     4  C   -0.048148  -0.002198   0.277677   5.155814  -0.057654  -0.015410
     5  C   -0.049746  -0.000008   0.317687  -0.057654   5.018211   0.002281
     6  C    0.372946  -0.076227  -0.077851  -0.015410   0.002281   5.029685
     7  C   -0.066845   0.327051  -0.015183  -0.012538  -0.001665   0.479841
     8  H   -0.041349   0.000008   0.418591  -0.057625  -0.064735   0.000445
     9  H   -0.005028   0.008978  -0.028392   0.405103   0.000910  -0.035312
    10  H    0.003490   0.000035  -0.045148   0.397328   0.008879   0.002511
    11  H    0.003076  -0.000085  -0.035947   0.400681  -0.015637   0.003608
    12  H    0.003381   0.000003  -0.046087  -0.020173   0.402105  -0.000564
    13  H    0.003595  -0.000004  -0.044141   0.010270   0.389593   0.001939
    14  H    0.004634   0.000000  -0.040262   0.003706   0.393308  -0.000179
    15  H   -0.042842   0.006418   0.009869   0.000237   0.000743   0.410720
    16  H    0.000890  -0.046920   0.003710  -0.001665   0.000226  -0.065689
    17  H   -0.000297   0.327102  -0.000037  -0.000025  -0.000003   0.009409
               7          8          9         10         11         12
     1  O   -0.066845  -0.041349  -0.005028   0.003490   0.003076   0.003381
     2  O    0.327051   0.000008   0.008978   0.000035  -0.000085   0.000003
     3  C   -0.015183   0.418591  -0.028392  -0.045148  -0.035947  -0.046087
     4  C   -0.012538  -0.057625   0.405103   0.397328   0.400681  -0.020173
     5  C   -0.001665  -0.064735   0.000910   0.008879  -0.015637   0.402105
     6  C    0.479841   0.000445  -0.035312   0.002511   0.003608  -0.000564
     7  C    5.019358   0.003735  -0.012646  -0.002386   0.001196   0.000108
     8  H    0.003735   0.629256   0.005977  -0.013558   0.005664   0.008929
     9  H   -0.012646   0.005977   0.583001  -0.037052  -0.029860   0.002091
    10  H   -0.002386  -0.013558  -0.037052   0.587574  -0.027191   0.000564
    11  H    0.001196   0.005664  -0.029860  -0.027191   0.584792  -0.000291
    12  H    0.000108   0.008929   0.002091   0.000564  -0.000291   0.623624
    13  H    0.000348   0.001844  -0.000641  -0.000573   0.001146  -0.031329
    14  H    0.000048  -0.010079  -0.000156  -0.000492   0.000261  -0.036482
    15  H   -0.091314  -0.001217  -0.001460  -0.000023  -0.000034  -0.000244
    16  H    0.430713  -0.001452  -0.011355  -0.000109   0.000396  -0.000024
    17  H   -0.036890   0.000002  -0.000030   0.000005  -0.000010   0.000001
              13         14         15         16         17
     1  O    0.003595   0.004634  -0.042842   0.000890  -0.000297
     2  O   -0.000004   0.000000   0.006418  -0.046920   0.327102
     3  C   -0.044141  -0.040262   0.009869   0.003710  -0.000037
     4  C    0.010270   0.003706   0.000237  -0.001665  -0.000025
     5  C    0.389593   0.393308   0.000743   0.000226  -0.000003
     6  C    0.001939  -0.000179   0.410720  -0.065689   0.009409
     7  C    0.000348   0.000048  -0.091314   0.430713  -0.036890
     8  H    0.001844  -0.010079  -0.001217  -0.001452   0.000002
     9  H   -0.000641  -0.000156  -0.001460  -0.011355  -0.000030
    10  H   -0.000573  -0.000492  -0.000023  -0.000109   0.000005
    11  H    0.001146   0.000261  -0.000034   0.000396  -0.000010
    12  H   -0.031329  -0.036482  -0.000244  -0.000024   0.000001
    13  H    0.569348  -0.026097  -0.000173   0.000004   0.000000
    14  H   -0.026097   0.604079  -0.000051  -0.000004   0.000000
    15  H   -0.000173  -0.000051   0.565943   0.007632  -0.000906
    16  H    0.000004  -0.000004   0.007632   0.564942  -0.013063
    17  H    0.000000   0.000000  -0.000906  -0.013063   0.449437
 Mulliken charges:
               1
     1  O   -0.275086
     2  O   -0.348193
     3  C    0.101619
     4  C   -0.435380
     5  C   -0.344494
     6  C   -0.042152
     7  C   -0.022930
     8  H    0.115564
     9  H    0.155874
    10  H    0.126145
    11  H    0.108235
    12  H    0.094388
    13  H    0.124870
    14  H    0.107764
    15  H    0.136701
    16  H    0.131771
    17  H    0.265304
 Sum of Mulliken charges =  -0.00000
 Mulliken charges with hydrogens summed into heavy atoms:
               1
     1  O   -0.275086
     2  O   -0.082889
     3  C    0.217184
     4  C   -0.045125
     5  C   -0.017472
     6  C    0.094549
     7  C    0.108840
 APT charges:
               1
     1  O   -0.203143
     2  O   -0.684004
     3  C   -0.130514
     4  C   -0.983130
     5  C   -1.287417
     6  C   -0.371865
     7  C   -0.246430
     8  H    0.386442
     9  H    0.188445
    10  H    0.356792
    11  H    0.401081
    12  H    0.300509
    13  H    0.365524
    14  H    0.495668
    15  H    0.383332
    16  H    0.285025
    17  H    0.743683
 Sum of APT charges =  -0.00000
 APT charges with hydrogens summed into heavy atoms:
               1
     1  O   -0.203143
     2  O    0.059679
     3  C    0.255928
     4  C   -0.036811
     5  C   -0.125715
     6  C    0.011467
     7  C    0.038596
 Electronic spatial extent (au):  <R**2>=            976.1027
 Charge=             -0.0000 electrons
 Dipole moment (field-independent basis, Debye):
    X=             -0.3144    Y=              2.3916    Z=              0.8006  Tot=              2.5416
 Quadrupole moment (field-independent basis, Debye-Ang):
   XX=            -40.3471   YY=            -44.6242   ZZ=            -43.9137
   XY=             -4.0259   XZ=             -3.3859   YZ=              2.8406
 Traceless Quadrupole moment (field-independent basis, Debye-Ang):
   XX=              2.6146   YY=             -1.6625   ZZ=             -0.9520
   XY=             -4.0259   XZ=             -3.3859   YZ=              2.8406
 Octapole moment (field-independent basis, Debye-Ang**2):
  XXX=            -24.0771  YYY=             -1.5599  ZZZ=              1.6326  XYY=             -9.3459
  XXY=             16.3685  XXZ=             13.1820  XZZ=             -2.6337  YZZ=              0.2471
  YYZ=             -1.7805  XYZ=             -3.5036
 Hexadecapole moment (field-independent basis, Debye-Ang**3):
 XXXX=           -864.4835 YYYY=           -235.3826 ZZZZ=           -102.2657 XXXY=            -70.0841
 XXXZ=            -26.2794 YYYX=            -11.6340 YYYZ=              5.7513 ZZZX=              4.0428
 ZZZY=              1.9111 XXYY=           -180.4196 XXZZ=           -174.8357 YYZZ=            -53.3467
 XXYZ=              7.6652 YYXZ=             -0.9577 ZZXY=             -0.7964
 N-N= 3.158292722383D+02 E-N=-1.441824467711D+03  KE= 3.448504760212D+02
  Exact polarizability:   0.000   0.000   0.000   0.000   0.000   0.000
 Approx polarizability:  89.320  -7.528  77.819  -0.746   5.495  72.694
 No NMR shielding tensors so no spin-rotation constants.
 Leave Link  601 at Wed Sep 25 21:51:39 2019, MaxMem=   671088640 cpu:              46.1 elap:              23.1
 (Enter /shared/centos7/gaussian/g16/l701.exe)
 SCFChk:  SCF convergence  4.76D-09 required  1.00D-08
 ... and contract with generalized density number  0.
 Compute integral second derivatives.
 Entering OneElI...
 Calculate overlap and kinetic energy integrals
    NBasis = 395  MinDer = 2  MaxDer = 2
 Requested accuracy = 0.1000D-12
 PrmmSu-InSpLW:  IPartL=    0 NPrtUS=   20 NPrtUL=    1 DoSpLW=F IThBeg=    0 IThEnd=   19 NThAct=   20.
 PrsmSu:  NPrtUS=  20 ThrOK=T IAlg=1 NPAlg=1 LenDen=           0 ISkipM=0 DoSpLW=F IThBeg=    0 IThEnd=   19.
 Prism:   IPart=     0 DynPar=F LinDyn=F Incr=           4.
 PRISM was handed    33313348 working-precision words and  8401 shell-pairs
 PRISM was handed    33313348 working-precision words and  8401 shell-pairs
 PRISM was handed    33313348 working-precision words and  8401 shell-pairs
 PRISM was handed    33313348 working-precision words and  8401 shell-pairs
 PRISM was handed    33313348 working-precision words and  8401 shell-pairs
 PRISM was handed    33313348 working-precision words and  8401 shell-pairs
 PRISM was handed    33313348 working-precision words and  8401 shell-pairs
 PRISM was handed    33313348 working-precision words and  8401 shell-pairs
 PRISM was handed    33313348 working-precision words and  8401 shell-pairs
 PRISM was handed    33313348 working-precision words and  8401 shell-pairs
 PRISM was handed    33313348 working-precision words and  8401 shell-pairs
 PRISM was handed    33313348 working-precision words and  8401 shell-pairs
 PRISM was handed    33313348 working-precision words and  8401 shell-pairs
 PRISM was handed    33313348 working-precision words and  8401 shell-pairs
 PRISM was handed    33313348 working-precision words and  8401 shell-pairs
 PRISM was handed    33313348 working-precision words and  8401 shell-pairs
 IPart=  4 NShTot=         439 NBatch=          62 AvBLen=         7.1
 PRISM was handed    33313348 working-precision words and  8401 shell-pairs
 IPart=  0 NShTot=         468 NBatch=          84 AvBLen=         5.6
 IPart=  1 NShTot=         463 NBatch=          81 AvBLen=         5.7
 PRISM was handed    33313348 working-precision words and  8401 shell-pairs
 IPart=  9 NShTot=         415 NBatch=          48 AvBLen=         8.6
 PRISM was handed    33313348 working-precision words and  8401 shell-pairs
 IPart= 12 NShTot=         404 NBatch=          41 AvBLen=         9.9
 PRISM was handed    33313348 working-precision words and  8401 shell-pairs
 IPart=  8 NShTot=         416 NBatch=          49 AvBLen=         8.5
 IPart= 16 NShTot=         398 NBatch=          39 AvBLen=        10.2
 IPart=  7 NShTot=         418 NBatch=          49 AvBLen=         8.5
 IPart= 14 NShTot=         401 NBatch=          40 AvBLen=        10.0
 IPart= 10 NShTot=         415 NBatch=          48 AvBLen=         8.6
 IPart= 15 NShTot=         400 NBatch=          40 AvBLen=        10.0
 IPart=  3 NShTot=         446 NBatch=          68 AvBLen=         6.6
 IPart=  6 NShTot=         430 NBatch=          60 AvBLen=         7.2
 IPart= 19 NShTot=         394 NBatch=          37 AvBLen=        10.6
 IPart=  2 NShTot=         456 NBatch=          76 AvBLen=         6.0
 IPart= 17 NShTot=         397 NBatch=          39 AvBLen=        10.2
 IPart= 18 NShTot=         395 NBatch=          38 AvBLen=        10.4
 IPart= 13 NShTot=         402 NBatch=          40 AvBLen=        10.1
 IPart=  5 NShTot=         433 NBatch=          60 AvBLen=         7.2
 IPart= 11 NShTot=         411 NBatch=          46 AvBLen=         8.9
 PrSmSu:  NxtVal=             81.
 Entering OneElI...
 Calculate potential energy integrals
    NBasis = 395  MinDer = 2  MaxDer = 2
 Requested accuracy = 0.1000D-12
 PrmmSu-InSpLW:  IPartL=    0 NPrtUS=   20 NPrtUL=    1 DoSpLW=F IThBeg=    0 IThEnd=   19 NThAct=   20.
 PrsmSu:  NPrtUS=  20 ThrOK=T IAlg=1 NPAlg=1 LenDen=           0 ISkipM=0 DoSpLW=F IThBeg=    0 IThEnd=   19.
 Prism:   IPart=     0 DynPar=F LinDyn=F Incr=          65.
 PRISM was handed    33355778 working-precision words and  7700 shell-pairs
 PRISM was handed    33355778 working-precision words and  7700 shell-pairs
 PRISM was handed    33355778 working-precision words and  7700 shell-pairs
 PRISM was handed    33355778 working-precision words and  7700 shell-pairs
 PRISM was handed    33355778 working-precision words and  7700 shell-pairs
 PRISM was handed    33355778 working-precision words and  7700 shell-pairs
 PRISM was handed    33355778 working-precision words and  7700 shell-pairs
 PRISM was handed    33355778 working-precision words and  7700 shell-pairs
 PRISM was handed    33355778 working-precision words and  7700 shell-pairs
 PRISM was handed    33355778 working-precision words and  7700 shell-pairs
 PRISM was handed    33355778 working-precision words and  7700 shell-pairs
 PRISM was handed    33355778 working-precision words and  7700 shell-pairs
 PRISM was handed    33355778 working-precision words and  7700 shell-pairs
 PRISM was handed    33355778 working-precision words and  7700 shell-pairs
 PRISM was handed    33355778 working-precision words and  7700 shell-pairs
 PRISM was handed    33355778 working-precision words and  7700 shell-pairs
 PRISM was handed    33355778 working-precision words and  7700 shell-pairs
 PRISM was handed    33355778 working-precision words and  7700 shell-pairs
 PRISM was handed    33355778 working-precision words and  7700 shell-pairs
 PRISM was handed    33355778 working-precision words and  7700 shell-pairs
 IPart=  8 NShTot=        6528 NBatch=         384 AvBLen=        17.0
 IPart= 18 NShTot=        6205 NBatch=         365 AvBLen=        17.0
 IPart= 10 NShTot=        6443 NBatch=         379 AvBLen=        17.0
 IPart=  6 NShTot=        6715 NBatch=         395 AvBLen=        17.0
 IPart=  7 NShTot=        6545 NBatch=         385 AvBLen=        17.0
 IPart= 14 NShTot=        6307 NBatch=         371 AvBLen=        17.0
 IPart=  3 NShTot=        6885 NBatch=         405 AvBLen=        17.0
 IPart= 15 NShTot=        6307 NBatch=         371 AvBLen=        17.0
 IPart=  2 NShTot=        7004 NBatch=         412 AvBLen=        17.0
 IPart= 16 NShTot=        6256 NBatch=         368 AvBLen=        17.0
 IPart=  9 NShTot=        6494 NBatch=         382 AvBLen=        17.0
 IPart=  0 NShTot=        7191 NBatch=         423 AvBLen=        17.0
 IPart= 11 NShTot=        6358 NBatch=         374 AvBLen=        17.0
 IPart= 17 NShTot=        6239 NBatch=         367 AvBLen=        17.0
 IPart=  1 NShTot=        7106 NBatch=         418 AvBLen=        17.0
 IPart=  4 NShTot=        6817 NBatch=         401 AvBLen=        17.0
 IPart= 19 NShTot=        6103 NBatch=         359 AvBLen=        17.0
 IPart=  5 NShTot=        6749 NBatch=         397 AvBLen=        17.0
 IPart= 12 NShTot=        6341 NBatch=         373 AvBLen=        17.0
 IPart= 13 NShTot=        6307 NBatch=         371 AvBLen=        17.0
 PrSmSu:  NxtVal=           1301.
 Polarizability after L701:
                1             2             3 
      1  0.000000D+00
      2  0.000000D+00  0.000000D+00
      3  0.000000D+00  0.000000D+00  0.000000D+00
 Dipole Derivatives after L701:
                 1             2             3             4             5 
      1  -0.210902D+00 -0.109315D-01  0.610412D-01 -0.997770D+00  0.137455D+01
      2  -0.235034D+00 -0.172122D+00 -0.799191D-01  0.282906D+00 -0.701932D+00
      3   0.517330D-01 -0.198947D-01 -0.226406D+00  0.157075D+00 -0.338050D-01
                 6             7             8             9            10 
      1   0.112304D+01  0.477927D-01 -0.127868D+00 -0.866554D+00 -0.598422D+00
      2  -0.160340D+00 -0.258043D+00  0.112512D+00 -0.700312D-01  0.186065D+00
      3  -0.352310D+00 -0.135056D+00  0.349992D-01 -0.551848D+00  0.588176D-01
                11            12            13            14            15 
      1  -0.542865D+00  0.217669D+00 -0.205520D+01  0.196866D+00  0.612127D+00
      2  -0.142302D+01  0.134825D+00  0.438257D-01 -0.890128D+00 -0.431356D-03
      3  -0.129541D+00 -0.927946D+00  0.120641D-01  0.236693D-01 -0.916923D+00
                16            17            18            19            20 
      1  -0.486491D+00  0.304907D+00 -0.223846D+00 -0.625254D-01 -0.174360D+00
      2   0.146957D+00 -0.224929D+00 -0.504611D+00  0.115967D+00 -0.263749D+00
      3  -0.124849D+00 -0.450276D+00 -0.404175D+00 -0.256080D+00 -0.244226D+00
                21            22            23            24            25 
      1   0.745956D-01  0.348793D+00  0.957848D-01  0.562131D+00  0.268340D+00
      2  -0.322218D+00  0.317454D-01  0.166713D+00  0.459562D-01 -0.416543D+00
      3  -0.413014D+00  0.127156D+00  0.529999D-01  0.643820D+00  0.233849D+00
                26            27            28            29            30 
      1   0.708857D-01  0.531380D-01  0.569416D-01  0.131604D+00  0.174567D+00
      2   0.639264D-01 -0.112421D+00 -0.144726D+00  0.610719D+00  0.582917D+00
      3   0.651674D-01  0.233069D+00 -0.342991D-01  0.202564D+00  0.402717D+00
                31            32            33            34            35 
      1   0.472314D+00  0.212616D+00 -0.446671D+00  0.173973D+00  0.569601D+00
      2   0.434700D+00  0.398696D+00 -0.537785D+00 -0.248329D-01  0.214282D+00
      3  -0.237670D+00 -0.137171D+00  0.332235D+00 -0.233550D-01 -0.337442D+00
                36            37            38            39            40 
      1  -0.730633D+00  0.269857D+00 -0.928098D+00 -0.341180D+00  0.117846D+01
      2  -0.152410D+00 -0.793751D-01  0.644408D+00  0.181583D+00  0.326910D-01
      3   0.513273D+00 -0.360508D-01  0.243285D+00  0.182309D+00  0.111139D+00
                41            42            43            44            45 
      1   0.295680D+00  0.722334D+00  0.229709D+00  0.242418D+00  0.332725D+00
      2   0.950542D-01  0.257916D-01  0.107878D+00  0.471887D+00  0.513313D+00
      3   0.383646D-01  0.213492D+00  0.769328D-01  0.298566D+00  0.448399D+00
                46            47            48            49            50 
      1   0.607154D-01 -0.441321D+00 -0.521006D+00  0.130442D+01 -0.126947D+01
      2   0.965314D-02  0.309513D+00  0.247041D+00 -0.233834D+00  0.588172D+00
      3   0.536965D-01  0.324063D+00  0.484848D+00 -0.351035D-01  0.686776D-01
                51 
      1  -0.803478D+00
      2   0.208741D+00
      3   0.338459D+00
 Hessian after L701:
                1             2             3             4             5 
      1  0.488616D+01
      2 -0.243992D+01  0.129698D+02
      3 -0.252541D+01  0.813687D+00  0.174195D+02
      4  0.390030D+00 -0.199696D+00  0.135990D+00  0.448922D+01
      5 -0.181664D+00 -0.156659D+00 -0.451076D-01  0.309010D+01  0.117727D+02
      6  0.161537D+00 -0.584850D-01 -0.183029D+00 -0.220183D+01 -0.110117D+01
      7 -0.443253D+01  0.439747D+01  0.222755D+00  0.169151D+00 -0.922483D-03
      8  0.422232D+01 -0.424650D+01  0.129190D+00  0.842487D-02 -0.927980D-01
      9  0.255725D+00  0.886472D-01 -0.870675D+01  0.283750D-01 -0.724181D-02
     10 -0.195566D+00 -0.777269D-01 -0.309074D-01  0.184705D+00  0.162453D+00
     11 -0.168946D+00  0.656446D+00 -0.233773D+00  0.800755D-01 -0.943138D-01
     12 -0.532711D-02 -0.185112D+00 -0.126829D+00  0.382538D-01  0.155446D-01
     13  0.253108D+00 -0.336212D-01 -0.429503D+00  0.684649D-01 -0.244473D-02
     14  0.673533D-01 -0.179048D+00 -0.149821D+00 -0.466117D-02 -0.473245D-01
     15 -0.372151D+00 -0.933780D-01 -0.580524D-01  0.114662D-01  0.274940D-02
     16 -0.788982D+00 -0.115849D+01  0.358044D+01 -0.199749D+00  0.124558D+00
     17 -0.813338D+00 -0.960790D+01 -0.606528D+00  0.793583D-01  0.149684D+00
     18  0.342124D+01 -0.613820D+00 -0.883527D+01 -0.438889D+00 -0.142424D-01
     19  0.208162D+00 -0.262095D+00 -0.578192D+00 -0.124830D+01 -0.986270D+00
     20 -0.374135D+00  0.262952D+00  0.698407D-01 -0.987417D+00 -0.818907D+01
     21 -0.453840D+00  0.450965D-01  0.382503D-01  0.376813D+01 -0.538344D+00
     22 -0.169251D+00 -0.291025D+00 -0.174424D-01  0.172797D-01  0.342943D-02
     23 -0.283272D+00 -0.112549D+00 -0.407045D-02  0.157138D-02 -0.802481D-02
     24 -0.343847D-01  0.493281D-02  0.432001D+00  0.245824D-01  0.496166D-02
     25 -0.145058D-01 -0.719272D-01  0.226611D-01  0.847683D-01  0.352981D-01
     26  0.700844D-02  0.220796D-01  0.731902D-02  0.599292D-01 -0.611981D-01
     27  0.347750D-02 -0.235182D-01 -0.258110D-01 -0.158675D-01 -0.700567D-02
     28 -0.521209D-01  0.539523D-02  0.206281D-02  0.124513D-01  0.181362D-01
     29  0.774967D-02  0.150654D+00  0.315068D-01  0.276090D-01  0.709509D-02
     30  0.859439D-03  0.583238D-01 -0.370884D-01  0.209720D-01  0.180896D-01
     31 -0.214313D-01  0.697284D-01 -0.317529D-01  0.226096D-01  0.185437D-01
     32  0.461220D-01  0.929776D-01 -0.574419D-01  0.158438D-01 -0.790985D-03
     33 -0.279312D-01 -0.772288D-01 -0.130859D-01 -0.134569D-01 -0.977666D-02
     34  0.346534D-01  0.608528D-01 -0.631919D-01  0.118675D-01  0.221099D-02
     35  0.685253D-01  0.603449D-02 -0.586059D-01  0.897053D-02 -0.326819D-02
     36 -0.742784D-01 -0.591945D-01  0.114637D-01 -0.119871D-01 -0.392482D-02
     37  0.425240D-01  0.564759D-01 -0.772253D-01  0.124077D-01 -0.283049D-02
     38 -0.179562D-01 -0.749259D-01  0.157797D-01 -0.144051D-01 -0.456772D-02
     39 -0.865843D-01 -0.205403D-01 -0.265909D-01 -0.482824D-02  0.242404D-03
     40  0.149867D+00  0.834681D-01  0.192687D-01  0.138568D-01  0.372833D-02
     41  0.687835D-01 -0.257902D-01  0.717776D-02  0.155155D-02 -0.357825D-02
     42  0.328460D-01  0.126610D-01 -0.490550D-01  0.583442D-02  0.163302D-02
     43 -0.336984D+00 -0.532094D-01 -0.217432D+00  0.944982D-01 -0.103165D+00
     44 -0.730476D-01  0.198232D+00  0.507637D-01 -0.155409D+00 -0.881208D-02
     45 -0.222932D+00  0.450473D-01  0.207768D+00 -0.640440D-01  0.394306D-01
     46  0.176147D-01 -0.697559D-01 -0.151528D-01 -0.388916D-01 -0.315778D-02
     47 -0.100953D+00  0.365886D-01  0.333831D-01 -0.153159D-01  0.227735D+00
     48 -0.569591D-01  0.565301D-01 -0.380057D-01 -0.222770D+00  0.423559D-01
     49  0.292520D-01 -0.159210D-01  0.303410D-02 -0.408437D+01 -0.217800D+01
     50 -0.346262D-01  0.759561D-02 -0.329982D-02 -0.199653D+01 -0.348681D+01
     51 -0.158894D-01  0.635173D-02 -0.942703D-02 -0.105994D+01  0.160181D+01
                6             7             8             9            10 
      6  0.121192D+02
      7  0.662971D-01  0.162528D+02
      8  0.238581D-02 -0.285224D+01  0.171114D+02
      9 -0.903172D-01  0.286861D+00  0.232238D+00  0.212628D+02
     10  0.263226D-01 -0.555448D+01 -0.131407D+01  0.355193D+00  0.144381D+02
     11 -0.587931D-02 -0.137853D+01 -0.216536D+01 -0.114108D+01  0.433673D+00
     12 -0.125517D+00  0.379367D+00 -0.112467D+01 -0.557521D+01 -0.720014D-01
     13  0.211678D-02 -0.279977D+01 -0.629784D+00 -0.182055D+01  0.914135D-01
     14  0.282295D-03 -0.674518D+00 -0.618268D+01  0.348221D+00 -0.179938D+00
     15 -0.450180D-01 -0.179684D+01  0.338002D+00 -0.522062D+01 -0.294948D-03
     16 -0.456160D+00  0.298705D+00  0.244560D+00 -0.632975D-01 -0.861228D-01
     17 -0.234272D-01  0.158299D+00  0.195591D+00 -0.423073D-01  0.227354D+00
     18 -0.579433D-01 -0.165190D-01 -0.609040D-02  0.444333D-01  0.895549D-02
     19  0.379914D+01  0.129387D+00  0.708757D-01 -0.103870D+00  0.339902D+00
     20 -0.548797D+00  0.226990D-01 -0.968701D-01 -0.107256D-01  0.214285D+00
     21 -0.657500D+01 -0.448641D-01 -0.127896D-01 -0.114562D+00 -0.123346D-01
     22  0.133873D-01 -0.438426D+01  0.100651D+00  0.833075D+00  0.152558D+00
     23  0.780438D-03  0.102365D+00 -0.454941D+01  0.361374D+00  0.772449D-01
     24  0.544065D-02  0.727702D+00  0.321063D+00 -0.199469D+01 -0.540757D-01
     25  0.621103D-02  0.342404D-01  0.131142D-01 -0.518098D-01 -0.230052D+01
     26  0.563686D-02  0.992182D-01  0.561733D-01  0.697012D-01  0.118413D+00
     27 -0.717939D-01 -0.629140D-01  0.318354D-01  0.578647D-02  0.115724D+01
     28  0.954255D-02  0.105848D+00  0.517610D-01 -0.650327D-03 -0.400865D+01
     29  0.131486D-01  0.866794D-01 -0.148576D+00 -0.152013D-02 -0.298021D+00
     30 -0.233741D-02  0.157723D-02  0.345424D-02  0.159967D+00 -0.319923D+00
     31 -0.125141D-02  0.101484D+00  0.178684D-01 -0.303890D-01 -0.326521D+01
     32 -0.613749D-03 -0.632464D-02 -0.133321D+00  0.706945D-01  0.741379D+00
     33 -0.103782D-01 -0.189256D-01  0.349976D-01  0.980609D-01 -0.100808D+01
     34 -0.189683D-02 -0.193583D-01 -0.428914D-01  0.158051D+00  0.252332D-02
     35 -0.106394D-03 -0.137878D-01  0.120260D+00 -0.140982D-01  0.371054D-01
     36 -0.580798D-02  0.108318D+00  0.509371D-02  0.113287D-01  0.150192D-01
     37  0.773220D-03  0.386591D-01  0.994122D-01  0.700432D-01  0.915524D-02
     38 -0.190173D-02  0.451209D-01  0.748138D-01 -0.565535D-01 -0.104367D+00
     39 -0.646915D-02  0.366748D-01 -0.575395D-01  0.487657D-01 -0.276879D-01
     40  0.487680D-02 -0.880773D-01 -0.460648D-01  0.488295D-01  0.983709D-01
     41  0.748380D-03 -0.199219D-01  0.795476D-01  0.156590D-01 -0.480721D-01
     42 -0.149459D-02  0.616045D-01  0.130680D-01  0.950497D-01  0.297947D-01
     43 -0.170556D-01  0.746270D-01  0.867661D-01  0.702415D-01  0.830083D-02
     44  0.168561D-01  0.104225D+00  0.637526D-02  0.592755D-01  0.433729D-01
     45 -0.811672D-01  0.112525D+00  0.754633D-01 -0.840328D-02  0.255700D-01
     46 -0.190962D+00  0.544177D-01 -0.280201D-01 -0.299614D-01  0.467937D-01
     47  0.319363D-01 -0.552868D-01 -0.252939D-01  0.217061D-01 -0.132069D-01
     48  0.144730D-01 -0.562700D-01  0.129341D-01 -0.139695D-01 -0.752271D-01
     49 -0.122105D+01  0.192090D-01 -0.268686D-02 -0.586531D-02  0.387498D-01
     50  0.166861D+01 -0.145476D-01 -0.332420D-02  0.600820D-02 -0.198822D-01
     51 -0.488283D+01 -0.734805D-02  0.136177D-02 -0.171410D-02 -0.175575D-01
               11            12            13            14            15 
     11  0.127944D+02
     12  0.577121D+00  0.160580D+02
     13 -0.841674D-01 -0.741269D-01  0.117026D+02
     14  0.171487D-01  0.448239D-01  0.536643D+00  0.147364D+02
     15 -0.415638D-01 -0.101744D+00  0.130845D+01 -0.597654D-01  0.145716D+02
     16  0.113582D+00  0.215436D-01  0.314393D+00  0.665875D-01 -0.333485D-01
     17  0.115992D-01  0.161942D-01  0.291512D-01 -0.152322D+00 -0.723979D-02
     18 -0.310541D-01 -0.184239D+00 -0.446905D-01 -0.658819D-02 -0.151452D+00
     19  0.182796D+00 -0.408571D-02  0.603350D-01 -0.670284D-02 -0.105194D-01
     20 -0.138634D+00 -0.411635D-01 -0.303257D-01 -0.655136D-01 -0.431021D-03
     21 -0.306466D-01 -0.204554D+00 -0.172222D-01 -0.775687D-03 -0.626292D-01
     22  0.966103D-01 -0.683538D-01  0.478224D-01  0.332317D-01  0.219582D+00
     23 -0.111261D-01  0.181243D+00  0.378749D-01  0.192305D+00 -0.406701D-01
     24  0.216341D+00  0.332379D-01  0.275971D+00 -0.353575D-01 -0.782486D-01
     25  0.407527D+00  0.102133D+01  0.611318D-01 -0.404903D-01  0.170968D-01
     26 -0.463950D+01  0.813556D-01 -0.302631D-01 -0.147064D-01  0.320180D-03
     27  0.233738D+00 -0.405627D+01  0.813410D-02 -0.247329D-02 -0.267948D-01
     28 -0.231815D+00 -0.279693D+00  0.190231D-01 -0.932036D-01 -0.475649D-01
     29 -0.295254D+01  0.128277D+01 -0.104725D+00  0.750077D-01  0.683872D-01
     30  0.118664D+01 -0.280330D+01 -0.557956D-01  0.758736D-01 -0.156203D-01
     31  0.638359D+00 -0.990746D+00 -0.108219D-01  0.383439D-01 -0.146849D-01
     32 -0.354369D+01 -0.875781D+00  0.274564D-01 -0.153101D-01  0.176077D-02
     33 -0.757319D+00 -0.279759D+01 -0.400546D-02 -0.156577D-01  0.122360D-01
     34  0.400388D-01  0.418785D-01 -0.395596D+01  0.230902D+00 -0.302060D+00
     35 -0.102381D-01 -0.440520D-01  0.101740D+00 -0.311999D+01 -0.115026D+01
     36 -0.372773D-01  0.208877D-02 -0.126498D+00 -0.123471D+01 -0.208462D+01
     37 -0.112729D+00 -0.253272D-01 -0.389248D+01 -0.456038D+00 -0.115166D+00
     38  0.111792D+00  0.434974D-01 -0.250793D+00 -0.166694D+01  0.698353D+00
     39  0.472989D-01 -0.460303D-01 -0.514295D-01  0.744200D+00 -0.366594D+01
     40 -0.529611D-01  0.158234D-01 -0.201835D+01  0.468932D+00  0.112498D+01
     41 -0.213866D-01 -0.574783D-02  0.421750D+00 -0.356315D+01  0.270326D+00
     42 -0.760179D-02 -0.365158D-01  0.102431D+01  0.273937D+00 -0.305676D+01
     43  0.305406D-01  0.144277D-01  0.372740D-01  0.199243D-01  0.166612D-01
     44  0.249053D-01  0.257989D-01  0.290231D-01 -0.443207D-02  0.120052D-01
     45  0.238318D-01 -0.514364D-02  0.257391D-01  0.130790D-01 -0.673544D-02
     46  0.782497D-02 -0.146139D-01  0.141112D-01 -0.469121D-02 -0.741557D-02
     47 -0.341481D-01  0.967411D-02 -0.117466D-01 -0.733234D-02  0.328067D-02
     48 -0.144385D-02 -0.201375D-01 -0.172424D-01  0.412310D-02 -0.535474D-02
     49 -0.187567D-02  0.165545D-02  0.771155D-02 -0.167470D-02  0.180589D-02
     50 -0.533437D-02 -0.149690D-02 -0.576748D-02 -0.211963D-02 -0.187563D-02
     51  0.266391D-02 -0.102948D-01 -0.365551D-02  0.606254D-03 -0.421337D-02
               16            17            18            19            20 
     16  0.100076D+02
     17  0.553436D+01  0.212338D+02
     18 -0.275108D+01 -0.410495D+01  0.228503D+02
     19 -0.564424D+01 -0.576813D+01 -0.102247D+01  0.103927D+02
     20 -0.546618D+01 -0.825861D+01  0.368942D+01  0.602713D+01  0.203542D+02
     21 -0.103691D+01  0.376490D+01 -0.110936D+02 -0.279471D+01 -0.418654D+01
     22 -0.437740D-02  0.463937D-01  0.376203D-01  0.100112D+00  0.244117D-01
     23  0.481180D-01  0.246306D-03  0.319108D-01  0.296202D-01 -0.274214D-01
     24  0.650910D-01  0.510643D-01  0.300785D-01  0.733645D-01  0.496013D-02
     25 -0.900931D-02 -0.117806D+00  0.143503D-02 -0.387073D-01  0.369653D-01
     26 -0.700888D-01  0.732362D-01 -0.884649D-01  0.507339D-01  0.129901D-01
     27 -0.116075D-01 -0.925731D-01  0.694099D-01 -0.524923D-01 -0.508170D-01
     28 -0.970795D-02  0.369046D-01  0.164114D-01 -0.441573D-02  0.779639D-02
     29  0.472253D-01  0.539026D-01  0.339186D-01  0.243224D-01 -0.187865D-02
     30  0.180105D-01  0.393523D-01 -0.105712D-01  0.187459D-01  0.112384D-01
     31  0.241928D-01  0.618332D-01 -0.150776D-01  0.384206D-01  0.218512D-01
     32  0.634879D-01  0.365126D-01 -0.124332D-01  0.350766D-01 -0.512097D-02
     33 -0.227006D-01 -0.254769D-01 -0.226280D-01 -0.316164D-01 -0.132439D-01
     34  0.116359D-01  0.102214D-01 -0.787852D-02  0.173942D-01  0.186941D-03
     35  0.251283D-01 -0.293121D-02 -0.107706D-01  0.139753D-01 -0.947042D-02
     36 -0.203874D-01 -0.848753D-02 -0.381931D-02 -0.218232D-01  0.540430D-03
     37  0.508493D-01 -0.196111D-01 -0.116674D-01  0.251981D-01 -0.133506D-01
     38 -0.396067D-01 -0.142560D-01  0.885724D-02 -0.245241D-01  0.247170D-02
     39 -0.195095D-01  0.465281D-02 -0.198059D-01 -0.117079D-01  0.484152D-02
     40  0.217056D-01  0.763213D-02  0.287999D-02  0.246672D-01 -0.260476D-02
     41  0.930007D-02 -0.681682D-02  0.673647D-03  0.340187D-02 -0.669438D-02
     42  0.909673D-02  0.215261D-02 -0.810584D-02  0.636122D-02 -0.136527D-02
     43 -0.435670D+01  0.460548D+00  0.680874D+00  0.318425D+00  0.159296D+00
     44  0.455437D+00 -0.357348D+01  0.143204D+01  0.203022D+00 -0.469528D-01
     45  0.637602D+00  0.134390D+01 -0.255212D+01  0.221327D+00 -0.406745D+00
     46  0.205607D+00  0.218680D+00  0.176225D+00 -0.467087D+01  0.205477D+00
     47  0.157988D+00 -0.186369D+00 -0.330307D+00  0.354748D+00 -0.377675D+01
     48  0.132496D+00 -0.341435D+00 -0.137326D-02  0.523666D+00  0.146703D+01
     49  0.164219D+00 -0.151848D+00 -0.373690D-01 -0.481965D-01  0.153914D+00
     50 -0.155962D+00  0.480904D-01  0.219000D-01  0.520183D-01 -0.960792D-02
     51 -0.492766D-01  0.302076D-01 -0.532033D-01 -0.111097D-01  0.119556D-01
               21            22            23            24            25 
     21  0.208238D+02
     22  0.405440D-01  0.432062D+01
     23  0.703733D-02 -0.349253D-01  0.458564D+01
     24 -0.536850D-02 -0.108983D+01 -0.509324D+00  0.133600D+01
     25 -0.732959D-02  0.269326D-01 -0.235578D-01  0.669082D-01  0.224816D+01
     26 -0.267288D-01 -0.280585D-01 -0.138427D-01 -0.324335D-01  0.490971D-01
     27 -0.234614D-01  0.525507D-01 -0.231326D-01  0.391048D-01 -0.100330D+01
     28  0.889893D-02  0.124308D-01  0.513333D-01 -0.199207D-01  0.686871D-01
     29  0.140925D-01  0.593411D-01 -0.666868D-01  0.429627D-01 -0.132413D+00
     30 -0.605226D-02 -0.216293D-01  0.364997D-01  0.224135D-01 -0.172129D+00
     31 -0.182103D-01 -0.248729D-01 -0.542236D-03 -0.389122D-02 -0.172480D+00
     32 -0.113158D-01 -0.776248D-02  0.112670D-01 -0.608466D-01 -0.124156D+00
     33 -0.106333D-01  0.104267D-01 -0.442818D-01  0.581766D-01  0.443642D-01
     34 -0.809373D-02 -0.185191D-01  0.392475D-02 -0.561275D-01  0.315698D-01
     35 -0.385027D-02  0.455002D-02 -0.319168D-01 -0.219131D-01 -0.238202D-02
     36 -0.307516D-02 -0.346667D-01 -0.778597D-02  0.114526D+00 -0.205066D-01
     37 -0.396301D-02 -0.624423D-02 -0.105292D-01 -0.177090D-01 -0.342536D-03
     38  0.184737D-02 -0.533974D-02  0.598555D-02  0.302276D-01 -0.528560D-02
     39 -0.839957D-02 -0.769671D-02  0.192463D-01  0.210131D-01 -0.213863D-02
     40  0.278684D-02 -0.508036D-01  0.575853D-02  0.451966D-01  0.943954D-02
     41  0.306282D-03  0.722425D-02  0.262370D-01 -0.622999D-02 -0.126460D-03
     42 -0.404553D-02  0.475682D-01 -0.376946D-02 -0.583953D-02  0.509989D-02
     43  0.187229D+00 -0.939337D-02 -0.771646D-02 -0.785906D-02 -0.369648D-02
     44 -0.454367D+00 -0.496433D-02 -0.836301D-03 -0.137328D-02 -0.104710D-01
     45 -0.101160D+00 -0.830744D-02 -0.505609D-02 -0.814139D-03 -0.769488D-02
     46  0.305581D+00 -0.137430D-01  0.251624D-02 -0.257209D-03 -0.241358D-01
     47  0.146766D+01 -0.745147D-03  0.108886D-02 -0.451984D-02 -0.153479D-01
     48 -0.272161D+01 -0.554208D-02  0.175705D-03 -0.410561D-02  0.789846D-01
     49  0.843112D-01  0.371520D-02  0.215260D-03  0.523646D-02 -0.154008D-02
     50 -0.355831D-01 -0.302246D-02 -0.962040D-03 -0.451540D-02  0.196188D-02
     51  0.721495D-01 -0.128878D-02 -0.177487D-03 -0.291927D-02  0.822256D-03
               26            27            28            29            30 
     26  0.443102D+01
     27  0.969277D-01  0.413050D+01
     28 -0.120621D+00 -0.197559D+00  0.381186D+01
     29  0.492024D-01 -0.206066D+00  0.245381D+00  0.273180D+01
     30 -0.160478D+00 -0.118621D+00  0.393768D+00 -0.124340D+01  0.296175D+01
     31 -0.962528D-01  0.617905D-01  0.384346D-01  0.304396D-01  0.119676D+00
[...]
   zx        -0.516826D+01     -0.765857D+00     -0.852131D+00
   zy         0.109480D+01      0.162233D+00      0.180508D+00
   zz         0.611225D+02      0.905742D+01      0.100777D+02

 ----------------------------------------------------------------------

 Test job not archived.
 1\1\GINC-C2002\Freq\RM062X\CC-pVTZ\C5H10O2\HARMS.N\26-Sep-2019\0\\#P G
 eom=AllCheck Guess=TCheck SCRF=Check Test GenChk RM062X/CC-pVTZ Freq\\
 Gaussian input prepared by ASE\\0,1\O,0.9056830833,-2.3908303323,1.064
 7197805\O,2.1689160777,0.9096734025,0.2204497537\C,-0.4506909638,-2.40
 27100576,0.6249854061\C,-1.3361883561,-1.6452043725,1.6020220307\C,-0.
 8456083879,-3.8611675225,0.517763645\C,1.64142233,-1.2771539471,0.8435
 049345\C,1.2691166835,-0.1367733901,0.2735031991\H,-0.4950588013,-1.94
 1571682,-0.3672040133\H,-1.3298358852,-2.1548066777,2.5658034049\H,-0.
 9887655917,-0.6250127061,1.7518406625\H,-2.3617968477,-1.6126363987,1.
 2345162023\H,-0.7437912033,-4.3409992285,1.4912721758\H,-0.2056500793,
 -4.3805359517,-0.1930219543\H,-1.8814807882,-3.9502077787,0.1921677582
 \H,2.654124305,-1.3816567069,1.2093965469\H,0.271929719,0.0638738029,-
 0.0955730471\H,2.1930949087,1.258383554,-0.6735502182\\Version=EM64L-G
 16RevA.03\State=1-A\HF=-346.9403526\RMSD=2.347e-09\RMSF=7.223e-07\Zero
 Point=0.147244\Thermal=0.1557761\Dipole=-0.6339564,0.0238095,-0.662921
 6\DipoleDeriv=-1.1568414,-0.7923123,0.141769,-0.4176983,-1.1470373,0.2
 214382,-0.0741762,0.0725414,-0.3348488,-0.6777631,-0.4735716,0.1733455
 ,-0.3045461,-1.1154605,0.2149267,0.0577049,0.0597767,-0.2235732,0.8700
 418,0.3628826,-0.0768033,0.0461888,0.4083923,0.0719335,0.0764806,0.197
 5126,0.3136336,-0.0475237,-0.0482356,0.062999,0.0648235,-0.0560017,-0.
 0687356,0.0838718,-0.1095237,-0.0005066,0.0347083,-0.0360708,0.0332607
 ,-0.0567209,-0.0681114,-0.0379989,0.012104,-0.0327869,0.0783815,0.4923
 654,0.5495925,-0.0693526,0.4493497,0.9241057,-0.340277,-0.017608,-0.24
 34643,0.0323403,0.3636606,0.6047045,-0.1334192,0.2626732,0.5660745,-0.
 1988333,0.074333,-0.0296657,-0.2271721,-0.0322654,-0.0397437,0.0554273
 ,0.0302336,-0.0254357,0.0704334,-0.0124854,0.0223024,-0.1222458,0.0512
 884,0.029436,-0.0168016,-0.0081678,0.0153385,0.0941031,0.0275732,0.048
 1176,-0.0634396,0.0705991,-0.0382393,-0.0144323,-0.0294375,-0.0917107,
 -0.0369902,-0.0059027,-0.0273416,0.0506278,-0.1116855,-0.0095443,-0.02
 93728,-0.0045013,0.0848337,-0.0100642,-0.065517,0.0104094,0.0256326,0.
 0694327,0.0161025,-0.025015,-0.014485,0.0173342,0.0162182,-0.0038899,0
 .0857878,-0.0815429,0.0123575,0.0685815,0.0769689,0.0242061,-0.009133,
 -0.0516083,0.0646972,-0.0645794,-0.0102725,-0.105622,-0.0428527,-0.048
 4767,0.0076337,0.0322043,0.0136371,-0.0485775,-0.0056367,0.0569788,-0.
 0422637,-0.0448841,-0.0400655,-0.0398802,0.056249,0.0299393,-0.0486076
 ,0.027835,0.1330408,-0.0893342,-0.0437201,-0.0548901,-0.0083287,0.0303
 918,0.0483247,-0.0775688,-0.0193148,0.1601198,0.2988452,-0.0621252,-0.
 0351413,-0.0013427,0.3779663,-0.0364466,-0.0424315,0.0080302,0.2128462
 \Polar=68.2951694,8.7224656,77.7287534,-1.3591867,-6.1557131,57.298075
 2\Quadrupole=-0.237055,-0.7912529,1.0283079,0.0415654,-1.1212459,-3.25
 57873\PG=C01 [X(C5H10O2)]\NImag=0\\0.46150186,0.14286621,0.38894825,0.
 06358506,-0.08052723,0.13157869,-0.00495335,-0.00598830,-0.00019163,0.
 20589126,-0.01342189,-0.01440129,0.00953065,0.17971690,0.32826443,-0.0
 0378608,0.00785480,0.00720200,0.00900714,-0.19792842,0.53242762,-0.186
 29108,-0.00040043,-0.04098870,0.00229052,0.00914922,-0.00153676,0.4608
 2488,0.02294797,-0.08711966,0.01895985,0.00061782,-0.00011464,-0.00051
 697,0.00848466,0.54986298,-0.05226409,0.01305965,-0.08710822,-0.000753
 32,0.00352765,-0.00010000,-0.00995293,-0.05146621,0.58766196,-0.046905
 93,0.01589475,0.01741719,-0.00018544,-0.00124621,0.00014221,-0.1045088
 7,0.02754128,0.04232893,0.54932130,0.00265323,0.00158040,0.00170817,0.
 00006960,-0.00019632,-0.00024945,0.02879908,-0.11110316,-0.03754799,0.
 03139729,0.56880632,-0.01287826,0.00411092,0.01075325,0.00011791,-0.00
 054876,-0.00028512,0.05023346,-0.04283135,-0.14072052,0.04327030,-0.02
 753815,0.53731319,-0.03159830,-0.04594873,-0.00587459,-0.00011032,-0.0
 0101650,0.00046968,-0.07668114,-0.01802362,0.00032426,0.00857673,0.019
 87180,0.00204894,0.58994431,-0.00764445,-0.00250146,-0.00191394,0.0000
 3766,0.00020612,-0.00018789,-0.03151563,-0.20599263,-0.00606067,-0.000
 71811,-0.02351831,-0.00514413,-0.02618856,0.49922402,-0.01057602,-0.01
 577532,0.00057790,0.00038832,-0.00008548,0.00048691,0.00189094,0.00111
 153,-0.08234578,-0.00424385,-0.02623035,-0.00359505,-0.00279420,0.0007
 4932,0.58556745,-0.16588428,-0.09024622,-0.00351252,0.01120675,-0.0282
 2481,0.01789510,-0.03848776,-0.03534675,0.00239668,0.00112125,0.000166
 16,0.00142272,-0.00342142,0.00083200,-0.00084351,0.66470795,-0.1155557
 9,-0.25379283,0.05377033,0.00108581,-0.03260235,0.01657405,-0.02133384
 ,-0.00410509,-0.00900546,0.00597190,0.00303876,0.00428415,0.00172067,-
 0.00037917,0.00146421,-0.02015192,0.75347745,0.01018028,0.06212960,-0.
 06106709,0.00054277,-0.00135717,0.00149365,-0.00443811,-0.01205620,-0.
 00106683,0.00104573,-0.00056061,-0.00010840,-0.00435049,0.00011474,-0.
 00151354,0.17722551,-0.26025801,0.28934692,0.01789838,-0.01694368,0.01
 001275,-0.17233656,-0.12516388,0.00021522,0.00246502,-0.00356976,0.004
 14976,-0.00017447,0.00109425,0.00079818,-0.00039197,-0.00017302,-0.000
 09654,-0.16718155,0.10330952,-0.07743279,0.61648197,-0.00052740,-0.032
 07645,0.01218971,-0.12016073,-0.20268738,0.03862890,0.00058433,-0.0012
 2190,-0.00089479,0.00029482,-0.00020169,-0.00052390,0.00037680,0.00001
 793,0.00060075,0.11698426,-0.40930063,0.18556191,-0.03513423,0.7352396
 2,0.00739376,0.01128842,0.00251190,-0.02396198,0.00884831,-0.07060504,
 -0.00040733,-0.00009636,-0.00072669,0.00040179,-0.00016293,-0.00018219
 ,-0.00006326,-0.00008767,-0.00002145,-0.08529580,0.17293064,-0.1502686
 2,0.17308677,-0.26530883,0.28567003,-0.02265126,0.01155214,-0.03839240
 ,-0.00044780,-0.00006625,0.00035471,-0.04840960,-0.00131888,0.00263867
 ,0.00132806,-0.00816844,0.01833571,0.00154069,-0.00351121,0.00824998,0
 .00415307,0.00702110,-0.00246736,0.00155646,-0.00200880,0.00127833,0.0
 6377781,0.00147494,0.00137474,0.00033388,-0.00025736,0.00056403,0.0003
 5517,0.00291622,-0.09573180,0.09638483,0.00039628,0.00753369,-0.016532
 80,0.00011021,-0.01589198,0.02884829,-0.00008501,0.00138859,-0.0014555
 4,0.00047376,-0.00198630,-0.00032094,-0.00282038,0.10913126,-0.0142386
 5,0.00286851,-0.01116393,0.00062331,-0.00092875,0.00032488,-0.00262151
 ,0.09386897,-0.25474089,0.00160553,0.00897991,-0.01942567,0.00106599,-
 0.00154849,0.00424431,0.00229425,0.00277623,0.00077203,-0.00114785,0.0
 0114547,-0.00049374,0.00956068,-0.10387861,0.27818546,0.00270404,-0.00
 011700,-0.00078220,-0.00005837,0.00011539,-0.00000711,-0.00154300,-0.0
 0879033,0.01974305,-0.04645606,0.00103395,-0.00444877,0.00031742,-0.00
 114131,-0.00051964,-0.00064793,-0.00108463,-0.00001615,-0.00010102,0.0
 0016945,-0.00000959,-0.00173362,0.00208333,0.00250907,0.04664119,-0.00
 139728,0.00050395,0.00072745,-0.00024076,-0.00004136,0.00004571,-0.000
 14073,0.00711229,-0.01681888,0.00136845,-0.10872793,0.11445358,-0.0000
 8841,0.00162275,-0.00108349,-0.00039904,-0.00061577,0.00030304,-0.0000
 9262,0.00017680,0.00016180,0.00231959,-0.00136267,-0.00248108,-0.00324
 347,0.11536174,-0.00060208,0.00018239,0.00238821,0.00008641,0.00000761
 ,0.00006081,-0.00050614,0.01023495,-0.02392740,-0.00301940,0.11237589,
 -0.25403441,-0.00052036,0.00139248,0.00096632,0.00005958,-0.00011922,0
 .00003049,-0.00032465,-0.00006006,0.00001792,0.00293541,-0.00276679,-0
 .00132848,0.00091829,-0.12155775,0.27841843,0.00164564,-0.00162827,-0.
 00114001,0.00002603,0.00029994,0.00010938,0.00722736,0.02035285,0.0013
 4263,-0.07604071,-0.08485498,-0.01250416,-0.00267899,0.00156211,0.0027
 3479,-0.00086224,0.00047282,0.00019876,-0.00118845,-0.00100068,0.00094
 143,0.00039442,-0.00068590,-0.00057849,-0.00044823,0.00190050,0.000443
 13,0.08014538,0.00001434,0.00097434,0.00080147,-0.00034715,-0.00008102
 ,0.00017056,-0.00574918,-0.01497934,-0.00127566,-0.08246988,-0.2876768
 8,-0.03355969,0.00287157,-0.00031561,-0.00285884,-0.00025627,-0.000513
 19,0.00037721,-0.00070124,0.00011702,0.00090046,0.00017011,0.00045115,
 -0.00006326,-0.00462912,-0.01293216,-0.00238637,0.09165411,0.31226699,
 -0.00033558,0.00223307,0.00082939,-0.00038282,-0.00000419,-0.00009874,
 -0.01069624,-0.02110290,-0.00282880,-0.01064136,-0.03276276,-0.0526864
 5,0.00325704,-0.00116377,-0.00264907,-0.00042573,-0.00081931,0.0003125
 7,0.00097529,0.00046241,-0.00025197,-0.00057848,0.00044913,0.00053907,
 0.01027016,0.02686819,0.00504726,0.01020665,0.03728109,0.05491174,-0.0
 0456465,0.00136198,0.00369099,-0.00021166,-0.00052192,0.00006259,-0.01
 587333,-0.00213341,-0.00991287,-0.28504006,0.00784694,-0.08599444,0.00
 012674,-0.00069225,-0.00066875,0.00119588,0.00221526,-0.00044843,0.000
 36988,-0.00002016,0.00020172,0.00051580,-0.00045384,0.00047980,0.00129
 226,-0.00002788,0.00049112,-0.00847731,0.00072303,-0.00275817,0.310062
 15,0.00471177,-0.00047460,-0.00242414,0.00004737,0.00024766,0.00005897
 ,0.01253208,-0.00098646,0.00822473,0.00631277,-0.04646684,0.00162503,-
 0.00026433,0.00020682,0.00050042,-0.00037632,-0.00138729,0.00028191,-0
 .00020252,0.00026007,0.00007755,-0.00049381,0.00059821,0.00005616,0.01
 516131,-0.00113672,0.00406474,-0.02884819,0.00307596,-0.01046318,-0.00
 847079,0.04658637,0.00632184,-0.00242551,-0.00174565,0.00003944,0.0001
 9488,-0.00002248,0.01858288,0.00130931,0.00852767,-0.08785069,0.002253
 47,-0.07922993,-0.00042098,0.00032674,0.00031582,-0.00045525,-0.001484
 89,0.00023585,-0.00019006,0.00019122,-0.00004560,-0.00070254,0.0009649
 3,0.00050198,-0.02699571,-0.00069772,-0.00831019,-0.00283446,0.0005988
 2,-0.00247951,0.09443353,-0.00128021,0.08219383,0.00135294,0.00089561,
 0.00048181,0.00002698,0.00015326,-0.00010558,-0.00048866,-0.00523672,0
 .00842065,-0.00037142,0.00071714,-0.00029498,-0.04921288,0.01260897,-0
 .02322324,-0.00030008,-0.00034712,0.00014603,-0.00010651,-0.00005295,-
 0.00000852,0.00010527,-0.00180546,-0.00023551,0.00027380,0.00033175,0.
 00000009,-0.00009906,-0.00005782,0.00012576,0.00002146,0.00010454,-0.0
 0008320,0.04818846,0.00190138,0.00287374,-0.00080135,-0.00017624,0.000
 07428,-0.00014302,0.00364419,-0.01811022,0.03247208,-0.00038380,0.0017
 3401,0.00170909,0.01139810,-0.09608773,0.10220976,-0.00018584,-0.00018
 132,-0.00004708,0.00024400,-0.00017141,0.00002621,-0.00197553,-0.00556
 895,-0.00148549,0.00035887,-0.00011353,-0.00108580,-0.00019839,0.00037
 136,-0.00036434,-0.00002187,-0.00002807,-0.00009010,-0.01194004,0.1074
 0490,0.00089291,0.00008836,0.00065489,0.00004790,0.00003726,-0.0000177
 7,0.00024026,-0.00054202,0.00050303,-0.00000032,-0.00057631,0.00126702
 ,-0.02276854,0.10457373,-0.26485651,0.00011465,-0.00022551,0.00020950,
 -0.00017634,-0.00019627,0.00007632,-0.00018566,-0.00065209,0.00129074,
 -0.00034117,0.00021392,0.00026975,0.00002960,-0.00000772,0.00017500,0.
 00012855,-0.00004987,0.00000307,0.02508009,-0.11445212,0.28522868,0.00
 155132,0.00056480,-0.00001048,0.00006927,0.00014627,-0.00004435,0.0039
 2490,-0.00517692,-0.00729950,-0.00018934,-0.00121848,-0.00040240,-0.14
 353845,0.07725156,0.10730088,-0.00009375,-0.00039145,0.00009521,-0.000
 03395,-0.00002583,-0.00007801,0.00026885,0.00073751,-0.00011339,-0.000
 12615,-0.00008205,-0.00000434,0.00046450,-0.00040217,-0.00007086,0.000
 29757,-0.00023339,0.00001795,0.00194519,-0.00266790,-0.00309287,0.1514
 4894,0.00117554,0.00287490,0.00136124,-0.00000489,0.00016541,-0.000023
 07,0.02131197,-0.01598351,-0.02288682,-0.00346442,-0.00614972,0.000453
 88,0.07416341,-0.10658093,-0.08253694,-0.00038688,-0.00028051,0.000248
 87,0.00007457,0.00004601,0.00007237,0.00032237,0.00126409,0.00048545,-
 0.00016104,0.00008480,-0.00003332,0.00125559,-0.00093958,-0.00149920,-
 0.00006162,0.00017521,0.00027582,-0.00961108,0.00693865,0.00897708,-0.
 08264267,0.11749979,-0.00018589,0.00056445,0.00012726,-0.00002406,0.00
 006262,-0.00004792,0.00042923,0.00031293,-0.00169125,-0.00039855,-0.00
 060404,0.00065998,0.10642294,-0.08414171,-0.16626463,-0.00029401,-0.00
 022337,0.00007194,0.00000627,0.00005411,-0.00000380,-0.00065338,-0.000
 19252,0.00059488,-0.00013662,0.00015296,0.00058405,0.00032487,-0.00013
 732,0.00035236,0.00027182,0.00000022,-0.00003533,0.01731878,-0.0141524
 5,-0.01747027,-0.11686255,0.09200093,0.17580592,-0.00080622,-0.0032776
 9,0.00042977,-0.00014672,-0.00035927,0.00012691,-0.00813178,0.00269728
 ,-0.00195457,-0.00010605,0.00083844,0.00002924,-0.29217803,-0.02084557
 ,-0.07775931,0.00069596,0.00086337,-0.00066579,0.00002484,0.00000134,0
 .00005665,0.00016176,-0.00031459,0.00033355,-0.00001160,-0.00016972,0.
 00005599,0.00028735,-0.00011084,0.00018211,0.00061504,0.00007929,0.000
 06453,-0.00133052,0.00017672,0.00003872,-0.01602609,-0.00202153,-0.006
 20814,0.31704262,-0.00492942,-0.00830754,-0.00022499,-0.00008921,-0.00
 037438,0.00012911,-0.02806645,0.00293634,-0.01005602,0.00006140,0.0011
 1002,0.00007954,-0.01767511,-0.05025679,-0.00610465,-0.00082751,0.0010
 8224,-0.00136542,0.00003946,0.00010700,0.00000665,0.00043258,0.0009860
 1,0.00081128,0.00011522,0.00001234,-0.00008015,0.00005206,0.00019561,0
 .00036721,0.00038065,-0.00065026,-0.00033036,0.01415092,0.00068466,0.0
 0280643,0.01410435,0.00093083,0.00631368,0.02253773,0.05195922,-0.0002
 9024,-0.00050118,0.00112208,-0.00000907,-0.00009737,-0.00002307,-0.000
 83725,0.00101481,-0.00284709,-0.00002563,0.00015709,0.00006367,-0.0772
 8145,-0.00692131,-0.07097939,0.00002663,0.00007324,0.00032837,-0.00005
 938,-0.00001725,-0.00002199,0.00009399,-0.00030608,0.00001157,-0.00015
 643,0.00001805,-0.00009052,0.00017995,0.00011280,-0.00003464,0.0001724
 2,-0.00050224,0.00010342,-0.02764361,-0.00380935,-0.00729792,0.0205303
 3,0.00326781,0.00734281,0.08532155,0.00750681,0.07229401,-0.02170101,-
 0.00665751,-0.00462664,0.00053353,0.00007353,0.00215305,0.00377034,-0.
 00214735,0.00097535,0.00002122,-0.00008947,-0.00019347,-0.00087142,0.0
 0024172,-0.00028685,-0.30009565,0.03554205,-0.09646771,-0.00653161,-0.
 00087202,-0.00489388,-0.00024076,0.00008528,-0.00016874,-0.00000779,-0
 .00002930,0.00002700,0.00004536,0.00012147,0.00001185,-0.00004018,0.00
 009897,0.00006860,0.00002422,-0.00000433,0.00004195,0.00002965,0.00000
 141,-0.00001150,-0.00006135,-0.00031503,-0.00001142,0.32395889,-0.0360
 5714,-0.00178177,-0.01024738,0.00053080,0.00097692,-0.00279747,0.00017
 162,-0.00312888,0.00237620,-0.00066726,-0.00000980,-0.00027888,-0.0011
 4544,0.00018971,-0.00035119,0.03924834,-0.05658667,0.01907502,0.024025
 23,0.00224636,0.01038700,0.00004025,0.00001560,-0.00022167,0.00001987,
 0.00004272,0.00002024,-0.00008542,-0.00002488,0.00015771,-0.00016911,0
 .00007242,0.00017071,0.00000354,0.00001102,0.00005202,0.00003168,-0.00
 002126,-0.00004339,-0.00010553,-0.00039223,-0.00001485,-0.02565243,0.0
 6122037,0.00741163,-0.00052363,0.00373533,0.00267776,-0.00376726,-0.00
 468617,0.00031985,0.00154970,0.00234235,-0.00052435,0.00014862,0.00003
 503,0.00036719,-0.00006315,0.00030098,-0.09875609,0.01874314,-0.079576
 06,-0.01520515,0.00076262,0.00462015,0.00048936,0.00014124,0.00010055,
 0.00002704,0.00002718,-0.00000525,-0.00006418,-0.00018116,-0.00002892,
 -0.00009907,-0.00006029,0.00004932,-0.00002064,-0.00000895,-0.00003996
 ,-0.00000869,-0.00003074,-0.00001295,0.00000265,0.00014736,-0.00001192
 ,0.10550889,-0.02270918,0.06791073,-0.00010084,0.00079994,0.00064852,-
 0.02113207,-0.00696111,-0.00434655,-0.00121025,-0.00093615,-0.00074598
 ,-0.00018968,-0.00018558,0.00049645,0.00029317,-0.00016751,0.00060694,
 -0.00435170,-0.00034535,-0.00273394,-0.28724612,0.05819196,-0.09675894
 ,-0.00022558,-0.00178652,0.00091705,-0.00011524,-0.00004734,-0.0000016
 1,-0.00042934,-0.00080488,0.00072951,-0.00022869,-0.00016475,-0.000030
 65,-0.00006209,-0.00023218,-0.00004255,-0.00000449,0.00001370,-0.00003
 046,0.00001275,0.00006892,-0.00001614,0.00121715,-0.00036970,-0.002321
 07,0.31358943,-0.00178858,0.00049998,-0.00189733,-0.03228032,-0.000795
 40,-0.00865171,0.00056351,-0.00138950,0.00032031,-0.00047138,0.0001778
 9,0.00014758,-0.00017890,0.00006109,-0.00039690,0.02587186,0.00414397,
 0.00744219,0.05660095,-0.06844683,0.03055140,-0.00146363,-0.00270101,-
 0.00044439,0.00012310,0.00002990,-0.00016781,-0.00015687,0.00001695,0.
 00036008,-0.00003860,-0.00006023,0.00004337,0.00008982,0.00014711,-0.0
 0003174,0.00001851,0.00001117,0.00003683,-0.00002655,-0.00004789,0.000
 01120,-0.00017421,-0.00312623,0.00486248,-0.04686880,0.07014837,0.0003
 4654,-0.00344898,-0.00141695,0.00156102,-0.00111026,0.00516620,-0.0001
 0337,0.00019688,-0.00119901,0.00052991,0.00061479,0.00026245,0.0001279
 9,0.00007472,-0.00028334,-0.01230027,0.00232243,0.00095449,-0.09209581
 ,0.02982128,-0.07289584,-0.00093031,-0.00142133,0.00053041,-0.00006021
 ,-0.00030652,-0.00009046,0.00055145,0.00022452,-0.00104923,-0.00000436
 ,-0.00012164,-0.00007834,0.00004137,0.00003977,0.00001257,0.00002804,-
 0.00011112,-0.00001110,-0.00003066,0.00000750,0.00004640,-0.00248615,0
 .00479377,0.00580560,0.10457736,-0.03121322,0.06394652,-0.00119725,-0.
 00272760,-0.00074691,-0.02046203,-0.01267266,-0.02070956,0.00112246,0.
 00003803,0.00056327,-0.00020055,0.00002907,-0.00003642,-0.00011613,0.0
 0006362,-0.00015994,-0.00175451,0.00100757,-0.00041352,-0.00350434,-0.
 01680013,0.02811684,-0.00009356,-0.00006846,-0.00028508,0.00002031,0.0
 0003830,-0.00003843,-0.00001170,-0.00002607,0.00013088,-0.00006090,0.0
 0000601,0.00003479,0.00003292,0.00006286,-0.00000718,0.00001202,0.0000
 3558,0.00003125,-0.00004196,-0.00004057,0.00000573,-0.00005059,0.00018
 071,0.00019487,0.00018362,0.00018009,0.00024747,0.02612220,0.00357658,
 0.00082530,-0.00134639,-0.02256100,-0.07920471,0.14668073,-0.00095063,
 0.00005519,-0.00035295,0.00018214,0.00006954,0.00009388,0.00001704,-0.
 00000381,-0.00006110,-0.00661605,-0.00338619,0.00156555,-0.00388079,-0
 .02211821,0.03072593,-0.00003121,-0.00006466,0.00005977,-0.00001358,-0
 .00001714,-0.00002101,-0.00009129,-0.00000673,0.00000075,0.00008359,-0
 .00003225,-0.00002049,-0.00000434,0.00002150,-0.00001515,-0.00001383,-
 0.00003535,-0.00000391,0.00003713,0.00002483,0.00000782,-0.00022276,0.
 00029661,0.00096203,-0.00020463,0.00133065,-0.00036260,0.03069364,0.10
 224544,-0.00097513,-0.00117831,0.00102094,0.01023089,0.18361868,-0.471
 27575,0.00039171,0.00005311,0.00026749,-0.00003743,-0.00000537,-0.0000
 8684,-0.00001014,0.00000102,0.00004905,0.00044807,-0.00080266,-0.00015
 527,-0.00251565,-0.00241729,0.00262058,-0.00002673,0.00004924,0.000056
 83,0.00000599,-0.00002644,0.00000348,0.00005866,0.00000311,-0.00006006
 ,-0.00004644,0.00001184,0.00001606,0.00000069,-0.00001684,-0.00000814,
 0.00001502,-0.00002224,-0.00000196,-0.00002319,-0.00001399,-0.00000578
 ,0.00035967,-0.00036864,-0.00053881,-0.00094793,-0.00097234,0.00029963
 ,-0.00692806,-0.17791287,0.46779855\\-0.00000007,0.00000046,0.00000082
 ,-0.00000098,0.00000052,-0.00000052,0.00000038,-0.00000033,0.00000003,
 -0.00000039,0.00000005,-0.00000060,0.00000106,-0.00000058,0.00000091,-
 0.00000036,0.00000109,0.00000026,-0.00000040,0.00000019,-0.00000046,0.
 00000055,-0.00000084,-0.00000013,-0.00000049,0.00000041,-0.00000022,-0
 .00000088,0.00000008,-0.00000100,-0.00000030,-0.00000075,-0.00000091,0
 .00000084,0.00000010,0.00000099,0.00000150,-0.00000059,0.00000135,0.00
 000121,-0.00000112,0.00000052,-0.00000033,0.00000143,0.00000077,-0.000
 00044,-0.00000037,-0.00000094,-0.00000088,0.00000024,-0.00000086\\\@


 ...THOSE SCIENCES ARE VAIN AND FULL OF ERRORS WHICH 
 ARE NOT BORN FROM EXPERIMENT, THE MOTHER OF CERTAINTY...

                          -- LEONARDO DA VINCI, 1452-1519
 Job cpu time:       0 days  2 hours 48 minutes 17.2 seconds.
 Elapsed time:       0 days  1 hours 24 minutes  9.9 seconds.
 File lengths (MBytes):  RWF=   1392 Int=      0 D2E=      0 Chk=     32 Scr=     32
 Normal termination of Gaussian 16 at Thu Sep 26 07:06:50 2019.
