 Entering Gaussian System, Link 0=g16
 Input=loose/species/CC(C)OC=CO/conformers/CC(C)OC=CO_45.com
 Output=loose/species/CC(C)OC=CO/conformers/CC(C)OC=CO_45.log
 Initial command:
 /shared/centos7/gaussian/g16/l1.exe "/scratch/harms.n/gauss_scrdir/Gau-35267.inp" -scrdir="/scratch/harms.n/gauss_scrdir/"
 Entering Link 1 = /shared/centos7/gaussian/g16/l1.exe PID=     35268.
  
 Copyright (c) 1988,1990,1992,1993,1995,1998,2003,2009,2016,
            Gaussian, Inc.  All Rights Reserved.
  
 This is part of the Gaussian(R) 16 program.  It is based on
 the Gaussian(R) 09 system (copyright 2009, Gaussian, Inc.),
 the Gaussian(R) 03 system (copyright 2003, Gaussian, Inc.),
 the Gaussian(R) 98 system (copyright 1998, Gaussian, Inc.),
 the Gaussian(R) 94 system (copyright 1995, Gaussian, Inc.),
 the Gaussian 92(TM) system (copyright 1992, Gaussian, Inc.),
 the Gaussian 90(TM) system (copyright 1990, Gaussian, Inc.),
 the Gaussian 88(TM) system (copyright 1988, Gaussian, Inc.),
 the Gaussian 86(TM) system (copyright 1986, Carnegie Mellon
 University), and the Gaussian 82(TM) system (copyright 1983,
 Carnegie Mellon University). Gaussian is a federally registered
 trademark of Gaussian, Inc.
  
 This software contains proprietary and confidential information,
 including trade secrets, belonging to Gaussian, Inc.
  
 This software is provided under written license and may be
 used, copied, transmitted, or stored only in accord with that
 written license.
  
 The following legend is applicable only to US Government
 contracts under FAR:
  
                    RESTRICTED RIGHTS LEGEND
  
 Use, reproduction and disclosure by the US Government is
 subject to restrictions as set forth in subparagraphs (a)
 and (c) of the Commercial Computer Software - Restricted
 Rights clause in FAR 52.227-19.
  
 Gaussian, Inc.
 340 Quinnipiac St., Bldg. 40, Wallingford CT 06492
  
  
 ---------------------------------------------------------------
 Warning -- This program may not be used in any manner that
 competes with the business of Gaussian, Inc. or will provide
 assistance to any competitor of Gaussian, Inc.  The licensee
 of this program is prohibited from giving any competitor of
 Gaussian, Inc. access to this program.  By using this program,
 the user acknowledges that Gaussian, Inc. is engaged in the
 business of creating and licensing software in the field of
 computational chemistry and represents and warrants to the
 licensee that it is not a competitor of Gaussian, Inc. and that
 it will not use this program in any manner prohibited above.
 ---------------------------------------------------------------
  

 Cite this work as:
 Gaussian 16, Revision A.03,
 M. J. Frisch, G. W. Trucks, H. B. Schlegel, G. E. Scuseria, 
 M. A. Robb, J. R. Cheeseman, G. Scalmani, V. Barone, 
 G. A. Petersson, H. Nakatsuji, X. Li, M. Caricato, A. V. Marenich, 
 J. Bloino, B. G. Janesko, R. Gomperts, B. Mennucci, H. P. Hratchian, 
 J. V. Ortiz, A. F. Izmaylov, J. L. Sonnenberg, D. Williams-Young, 
 F. Ding, F. Lipparini, F. Egidi, J. Goings, B. Peng, A. Petrone, 
 T. Henderson, D. Ranasinghe, V. G. Zakrzewski, J. Gao, N. Rega, 
 G. Zheng, W. Liang, M. Hada, M. Ehara, K. Toyota, R. Fukuda, 
 J. Hasegawa, M. Ishida, T. Nakajima, Y. Honda, O. Kitao, H. Nakai, 
 T. Vreven, K. Throssell, J. A. Montgomery, Jr., J. E. Peralta, 
 F. Ogliaro, M. J. Bearpark, J. J. Heyd, E. N. Brothers, K. N. Kudin, 
 V. N. Staroverov, T. A. Keith, R. Kobayashi, J. Normand, 
 K. Raghavachari, A. P. Rendell, J. C. Burant, S. S. Iyengar, 
 J. Tomasi, M. Cossi, J. M. Millam, M. Klene, C. Adamo, R. Cammi, 
 J. W. Ochterski, R. L. Martin, K. Morokuma, O. Farkas, 
 J. B. Foresman, and D. J. Fox, Gaussian, Inc., Wallingford CT, 2016.
 
 ******************************************
 Gaussian 16:  EM64L-G16RevA.03 25-Dec-2016
                26-Sep-2019 
 ******************************************
 %nprocshared=20
 Will use up to   20 processors via shared memory.
 %mem=5GB
 ----------------------------------------------------------------------
 #p m062x/cc-pVTZ opt=(calcfc,maxcycles=900,Tight) freq IOP(7/33=1,2/16
 =3) scf=(maxcycle=900)
 ----------------------------------------------------------------------
 1/6=900,7=10,10=4,18=20,19=15,26=3,38=1/1,3;
 2/9=110,12=2,16=3,17=6,18=5,40=1/2;
 3/5=16,6=1,11=2,25=1,30=1,71=2,74=-55,140=1/1,2,3;
 4//1;
 5/5=2,7=900,38=5/2;
 8/6=4,10=90,11=11/1;
 11/6=1,8=1,9=11,15=111,16=1/1,2,10;
 10/6=1,13=1/2;
 6/7=2,8=2,9=2,10=2,28=1/1;
 7/10=1,18=20,25=1,33=1/1,2,3,16;
 1/6=900,7=10,10=4,18=20,19=15,26=3/3(2);
 2/9=110,16=3/2;
 99//99;
 2/9=110,16=3/2;
 3/5=16,6=1,11=2,25=1,30=1,71=1,74=-55/1,2,3;
 4/5=5,16=3,69=1/1;
 5/5=2,7=900,38=5/2;
 7/33=1/1,2,3,16;
 1/6=900,7=10,18=20,19=15,26=3/3(-5);
 2/9=110,16=3/2;
 6/7=2,8=2,9=2,10=2,19=2,28=1/1;
 99/9=1/99;
 Leave Link    1 at Thu Sep 26 01:51:46 2019, MaxMem=   671088640 cpu:               5.6 elap:               2.8
 (Enter /shared/centos7/gaussian/g16/l101.exe)
 ------------------------------
 Gaussian input prepared by ASE
 ------------------------------
 Symbolic Z-matrix:
 Charge =  0 Multiplicity = 1
 O                     4.64057  -1.21617   1.8406 
 O                     2.24302  -2.22983   2.86258 
 C                     5.56129  -1.64657   0.86033 
 C                     6.06104  -3.03745   1.25111 
 C                     6.6441   -0.64649   0.62071 
 C                     3.4188   -0.86633   1.31261 
 C                     2.30837  -1.31238   1.82451 
 H                     5.0057   -1.75908  -0.11179 
 H                     5.78524  -3.27407   2.3 
 H                     5.60497  -3.80869   0.60406 
 H                     7.1766   -3.13696   1.16026 
 H                     7.61886  -0.9094    1.12806 
 H                     6.35584   0.37285   0.95224 
 H                     6.86347  -0.58575  -0.48281 
 H                     3.43425  -0.12754   0.49548 
 H                     1.33209  -1.02166   1.46565 
 H                     3.18748  -2.42061   3.1335 
 
 ITRead=  0  0  0  0  0  0  0  0  0  0  0  0  0  0  0  0  0
 MicOpt= -1 -1 -1 -1 -1 -1 -1 -1 -1 -1 -1 -1 -1 -1 -1 -1 -1
 NAtoms=     17 NQM=       17 NQMF=       0 NMMI=      0 NMMIF=      0
                NMic=       0 NMicF=      0.
                    Isotopes and Nuclear Properties:
 (Nuclear quadrupole moments (NQMom) in fm**2, nuclear magnetic moments (NMagM)
  in nuclear magnetons)

  Atom         1           2           3           4           5           6           7           8           9          10
 IAtWgt=          16          16          12          12          12          12          12           1           1           1
 AtmWgt=  15.9949146  15.9949146  12.0000000  12.0000000  12.0000000  12.0000000  12.0000000   1.0078250   1.0078250   1.0078250
 NucSpn=           0           0           0           0           0           0           0           1           1           1
 AtZEff=  -0.0000000  -0.0000000  -0.0000000  -0.0000000  -0.0000000  -0.0000000  -0.0000000  -0.0000000  -0.0000000  -0.0000000
 NQMom=    0.0000000   0.0000000   0.0000000   0.0000000   0.0000000   0.0000000   0.0000000   0.0000000   0.0000000   0.0000000
 NMagM=    0.0000000   0.0000000   0.0000000   0.0000000   0.0000000   0.0000000   0.0000000   2.7928460   2.7928460   2.7928460
 AtZNuc=   8.0000000   8.0000000   6.0000000   6.0000000   6.0000000   6.0000000   6.0000000   1.0000000   1.0000000   1.0000000

  Atom        11          12          13          14          15          16          17
 IAtWgt=           1           1           1           1           1           1           1
 AtmWgt=   1.0078250   1.0078250   1.0078250   1.0078250   1.0078250   1.0078250   1.0078250
 NucSpn=           1           1           1           1           1           1           1
 AtZEff=  -0.0000000  -0.0000000  -0.0000000  -0.0000000  -0.0000000  -0.0000000  -0.0000000
 NQMom=    0.0000000   0.0000000   0.0000000   0.0000000   0.0000000   0.0000000   0.0000000
 NMagM=    2.7928460   2.7928460   2.7928460   2.7928460   2.7928460   2.7928460   2.7928460
 AtZNuc=   1.0000000   1.0000000   1.0000000   1.0000000   1.0000000   1.0000000   1.0000000
 Leave Link  101 at Thu Sep 26 01:51:47 2019, MaxMem=   671088640 cpu:               2.3 elap:               1.1
 (Enter /shared/centos7/gaussian/g16/l103.exe)

 GradGradGradGradGradGradGradGradGradGradGradGradGradGradGradGradGradGrad
 Berny optimization.
 Initialization pass.
                           ----------------------------
                           !    Initial Parameters    !
                           ! (Angstroms and Degrees)  !
 --------------------------                            --------------------------
 ! Name  Definition              Value          Derivative Info.                !
 --------------------------------------------------------------------------------
 ! R1    R(1,3)                  1.412          calculate D2E/DX2 analytically  !
 ! R2    R(1,6)                  1.3762         calculate D2E/DX2 analytically  !
 ! R3    R(2,7)                  1.3869         calculate D2E/DX2 analytically  !
 ! R4    R(2,17)                 1.0009         calculate D2E/DX2 analytically  !
 ! R5    R(3,4)                  1.5287         calculate D2E/DX2 analytically  !
 ! R6    R(3,5)                  1.4933         calculate D2E/DX2 analytically  !
 ! R7    R(3,8)                  1.1253         calculate D2E/DX2 analytically  !
 ! R8    R(4,9)                  1.1101         calculate D2E/DX2 analytically  !
 ! R9    R(4,10)                 1.1052         calculate D2E/DX2 analytically  !
 ! R10   R(4,11)                 1.1237         calculate D2E/DX2 analytically  !
 ! R11   R(5,12)                 1.1299         calculate D2E/DX2 analytically  !
 ! R12   R(5,13)                 1.11           calculate D2E/DX2 analytically  !
 ! R13   R(5,14)                 1.1267         calculate D2E/DX2 analytically  !
 ! R14   R(6,7)                  1.3016         calculate D2E/DX2 analytically  !
 ! R15   R(6,15)                 1.1017         calculate D2E/DX2 analytically  !
 ! R16   R(7,16)                 1.08           calculate D2E/DX2 analytically  !
 ! A1    A(3,1,6)              112.9555         calculate D2E/DX2 analytically  !
 ! A2    A(7,2,17)             106.5122         calculate D2E/DX2 analytically  !
 ! A3    A(1,3,4)              108.241          calculate D2E/DX2 analytically  !
 ! A4    A(1,3,5)              112.3377         calculate D2E/DX2 analytically  !
 ! A5    A(1,3,8)              107.9544         calculate D2E/DX2 analytically  !
 ! A6    A(4,3,5)              114.4112         calculate D2E/DX2 analytically  !
 ! A7    A(4,3,8)              106.9332         calculate D2E/DX2 analytically  !
 ! A8    A(5,3,8)              106.6383         calculate D2E/DX2 analytically  !
 ! A9    A(3,4,9)              110.7481         calculate D2E/DX2 analytically  !
 ! A10   A(3,4,10)             110.5086         calculate D2E/DX2 analytically  !
 ! A11   A(3,4,11)             112.6095         calculate D2E/DX2 analytically  !
 ! A12   A(9,4,10)             107.5728         calculate D2E/DX2 analytically  !
 ! A13   A(9,4,11)             107.7094         calculate D2E/DX2 analytically  !
 ! A14   A(10,4,11)            107.4899         calculate D2E/DX2 analytically  !
 ! A15   A(3,5,12)             113.432          calculate D2E/DX2 analytically  !
 ! A16   A(3,5,13)             112.2573         calculate D2E/DX2 analytically  !
 ! A17   A(3,5,14)             109.5373         calculate D2E/DX2 analytically  !
 ! A18   A(12,5,13)            107.6745         calculate D2E/DX2 analytically  !
 ! A19   A(12,5,14)            106.5201         calculate D2E/DX2 analytically  !
 ! A20   A(13,5,14)            107.0725         calculate D2E/DX2 analytically  !
 ! A21   A(1,6,7)              121.2927         calculate D2E/DX2 analytically  !
 ! A22   A(1,6,15)             116.269          calculate D2E/DX2 analytically  !
 ! A23   A(7,6,15)             122.2411         calculate D2E/DX2 analytically  !
 ! A24   A(2,7,6)              124.1434         calculate D2E/DX2 analytically  !
 ! A25   A(2,7,16)             112.5918         calculate D2E/DX2 analytically  !
 ! A26   A(6,7,16)             123.2494         calculate D2E/DX2 analytically  !
 ! D1    D(6,1,3,4)           -124.6725         calculate D2E/DX2 analytically  !
 ! D2    D(6,1,3,5)            108.0357         calculate D2E/DX2 analytically  !
 ! D3    D(6,1,3,8)             -9.2581         calculate D2E/DX2 analytically  !
 ! D4    D(3,1,6,7)            131.5883         calculate D2E/DX2 analytically  !
 ! D5    D(3,1,6,15)           -53.4043         calculate D2E/DX2 analytically  !
 ! D6    D(17,2,7,6)             2.432          calculate D2E/DX2 analytically  !
 ! D7    D(17,2,7,16)         -178.961          calculate D2E/DX2 analytically  !
 ! D8    D(1,3,4,9)            -13.4254         calculate D2E/DX2 analytically  !
 ! D9    D(1,3,4,10)           105.6793         calculate D2E/DX2 analytically  !
 ! D10   D(1,3,4,11)          -134.0978         calculate D2E/DX2 analytically  !
 ! D11   D(5,3,4,9)            112.6637         calculate D2E/DX2 analytically  !
 ! D12   D(5,3,4,10)          -128.2317         calculate D2E/DX2 analytically  !
 ! D13   D(5,3,4,11)            -8.0088         calculate D2E/DX2 analytically  !
 ! D14   D(8,3,4,9)           -129.5051         calculate D2E/DX2 analytically  !
 ! D15   D(8,3,4,10)           -10.4005         calculate D2E/DX2 analytically  !
 ! D16   D(8,3,4,11)           109.8224         calculate D2E/DX2 analytically  !
 ! D17   D(1,3,5,12)           101.595          calculate D2E/DX2 analytically  !
 ! D18   D(1,3,5,13)           -20.7428         calculate D2E/DX2 analytically  !
 ! D19   D(1,3,5,14)          -139.5473         calculate D2E/DX2 analytically  !
 ! D20   D(4,3,5,12)           -22.331          calculate D2E/DX2 analytically  !
 ! D21   D(4,3,5,13)          -144.6688         calculate D2E/DX2 analytically  !
 ! D22   D(4,3,5,14)            96.5268         calculate D2E/DX2 analytically  !
 ! D23   D(8,3,5,12)          -140.3302         calculate D2E/DX2 analytically  !
 ! D24   D(8,3,5,13)            97.3321         calculate D2E/DX2 analytically  !
 ! D25   D(8,3,5,14)           -21.4724         calculate D2E/DX2 analytically  !
 ! D26   D(1,6,7,2)             -4.539          calculate D2E/DX2 analytically  !
 ! D27   D(1,6,7,16)           176.9989         calculate D2E/DX2 analytically  !
 ! D28   D(15,6,7,2)          -179.245          calculate D2E/DX2 analytically  !
 ! D29   D(15,6,7,16)            2.2929         calculate D2E/DX2 analytically  !
 --------------------------------------------------------------------------------
 Trust Radius=3.00D-01 FncErr=1.00D-07 GrdErr=1.00D-06 EigMax=2.50D+02 EigMin=1.00D-04
 Number of steps in this run=    102 maximum allowed number of steps=    102.
 GradGradGradGradGradGradGradGradGradGradGradGradGradGradGradGradGradGrad

 Leave Link  103 at Thu Sep 26 01:51:48 2019, MaxMem=   671088640 cpu:               1.2 elap:               0.6
 (Enter /shared/centos7/gaussian/g16/l202.exe)
                          Input orientation:                          
 ---------------------------------------------------------------------
 Center     Atomic      Atomic             Coordinates (Angstroms)
 Number     Number       Type             X           Y           Z
 ---------------------------------------------------------------------
      1          8           0        4.640573   -1.216174    1.840601
      2          8           0        2.243024   -2.229833    2.862578
      3          6           0        5.561286   -1.646569    0.860332
      4          6           0        6.061039   -3.037450    1.251114
      5          6           0        6.644104   -0.646491    0.620709
      6          6           0        3.418802   -0.866330    1.312606
      7          6           0        2.308373   -1.312375    1.824508
      8          1           0        5.005702   -1.759080   -0.111786
      9          1           0        5.785240   -3.274072    2.299998
     10          1           0        5.604975   -3.808695    0.604065
     11          1           0        7.176599   -3.136955    1.160257
     12          1           0        7.618865   -0.909399    1.128060
     13          1           0        6.355837    0.372853    0.952243
     14          1           0        6.863466   -0.585752   -0.482810
     15          1           0        3.434249   -0.127543    0.495481
     16          1           0        1.332090   -1.021660    1.465651
     17          1           0        3.187476   -2.420610    3.133499
 ---------------------------------------------------------------------
                    Distance matrix (angstroms):
                    1          2          3          4          5
     1  O    0.000000
     2  O    2.796459   0.000000
     3  C    1.412047   3.919189   0.000000
     4  C    2.383749   4.222120   1.528729   0.000000
     5  C    2.413878   5.186757   1.493342   2.540484   0.000000
     6  C    1.376189   2.375712   2.324557   3.420374   3.305998
     7  C    2.334238   1.386935   3.409217   4.169791   4.548746
     8  H    2.059096   4.086666   1.125320   2.146034   2.111578
     9  H    2.399219   3.735535   2.184389   1.110050   3.234477
    10  H    3.029893   4.346999   2.177698   1.105209   3.328603
    11  H    3.253259   5.297257   2.218207   1.123668   2.603282
    12  H    3.077669   5.801014   2.201983   2.640183   1.129905
    13  H    2.501263   5.228631   2.172055   3.436043   1.109989
    14  H    3.276724   5.936590   2.150590   3.108248   1.126748
    15  H    2.109427   3.382571   2.639099   3.992313   3.253944
    16  H    3.335338   2.059342   4.317756   5.145132   5.391861
    17  H    2.287737   1.000891   3.376596   3.490162   4.627082
                    6          7          8          9         10
     6  C    0.000000
     7  C    1.301558   0.000000
     8  H    2.311741   3.350278   0.000000
     9  H    3.517413   4.020316   2.952893   0.000000
    10  H    3.733483   4.311458   2.252219   1.787318   0.000000
    11  H    4.393175   5.241177   2.868698   1.803799   1.797383
    12  H    4.204336   5.371103   3.014597   3.213611   3.568787
    13  H    3.208054   4.470212   2.738641   3.929641   4.262670
    14  H    3.894606   5.157574   2.228373   4.016672   3.626632
    15  H    1.101697   2.106594   2.345239   4.322508   4.274893
    16  H    2.098074   1.080011   4.065405   5.059647   5.173725
    17  H    2.405192   1.927294   3.778285   2.858583   3.764189
                   11         12         13         14         15
    11  H    0.000000
    12  H    2.271265   0.000000
    13  H    3.610495   1.808403   0.000000
    14  H    3.050632   1.808390   1.798885   0.000000
    15  H    4.848058   4.303773   2.999116   3.595349   0.000000
    16  H    6.223023   6.296833   5.238920   5.880700   2.481884
    17  H    4.507764   5.093403   4.753926   5.473326   3.504024
                   16         17
    16  H    0.000000
    17  H    2.860285   0.000000
 Stoichiometry    C5H10O2
 Framework group  C1[X(C5H10O2)]
 Deg. of freedom    45
 Full point group                 C1      NOp   1
 Largest Abelian subgroup         C1      NOp   1
 Largest concise Abelian subgroup C1      NOp   1
                         Standard orientation:                         
 ---------------------------------------------------------------------
 Center     Atomic      Atomic             Coordinates (Angstroms)
 Number     Number       Type             X           Y           Z
 ---------------------------------------------------------------------
      1          8           0        0.032357   -0.210707   -0.492931
      2          8           0       -2.594531    0.723286   -0.275452
      3          6           0        1.221216   -0.006908    0.241206
      4          6           0        1.522757    1.491701    0.257254
      5          6           0        2.345434   -0.857416   -0.251580
      6          6           0       -0.926826   -0.895130    0.218003
      7          6           0       -2.156048   -0.471254    0.276268
      8          1           0        1.028004   -0.313783    1.306496
      9          1           0        0.899834    2.026194   -0.490073
     10          1           0        1.295704    1.921749    1.249721
     11          1           0        2.599526    1.718155    0.029400
     12          1           0        3.081725   -0.297253   -0.900256
     13          1           0        1.986905   -1.734836   -0.829218
     14          1           0        2.929572   -1.255326    0.625923
     15          1           0       -0.615078   -1.856165    0.657276
     16          1           0       -2.943737   -1.007170    0.784956
     17          1           0       -1.804256    1.131845   -0.734067
 ---------------------------------------------------------------------
 Rotational constants (GHZ):           5.3687243           1.4620365           1.2382724
 Leave Link  202 at Thu Sep 26 01:51:50 2019, MaxMem=   671088640 cpu:               3.4 elap:               1.7
 (Enter /shared/centos7/gaussian/g16/l301.exe)
 Standard basis: CC-pVTZ (5D, 7F)
 Ernie: Thresh=  0.10000D-02 Tol=  0.10000D-05 Strict=F.
 Ernie:  21 primitive shells out of 262 were deleted.
 There are   395 symmetry adapted cartesian basis functions of A   symmetry.
 There are   350 symmetry adapted basis functions of A   symmetry.
   350 basis functions,   534 primitive gaussians,   395 cartesian basis functions
    28 alpha electrons       28 beta electrons
       nuclear repulsion energy       314.0647859501 Hartrees.
 IExCor= 4336 DFT=T Ex+Corr=M062X ExCW=0 ScaHFX=  0.540000
 ScaDFX=  1.000000  1.000000  1.000000  1.000000 ScalE2=  1.000000  1.000000
 IRadAn=      5 IRanWt=     -1 IRanGd=            0 ICorTp=0 IEmpDi=  4
 NAtoms=   17 NActive=   17 NUniq=   17 SFac= 1.00D+00 NAtFMM=   60 NAOKFM=F Big=F
 Integral buffers will be    131072 words long.
 Raffenetti 2 integral format.
 Two-electron integral symmetry is turned on.
 Leave Link  301 at Thu Sep 26 01:51:50 2019, MaxMem=   671088640 cpu:               1.5 elap:               0.7
 (Enter /shared/centos7/gaussian/g16/l302.exe)
 NPDir=0 NMtPBC=     1 NCelOv=     1 NCel=       1 NClECP=     1 NCelD=      1
         NCelK=      1 NCelE2=     1 NClLst=     1 CellRange=     0.0.
 One-electron integrals computed using PRISM.
 One-electron integral symmetry used in STVInt
 NBasis=   350 RedAO= T EigKep=  2.48D-04  NBF=   350
 NBsUse=   350 1.00D-06 EigRej= -1.00D+00 NBFU=   350
 Precomputing XC quadrature grid using
 IXCGrd= 4 IRadAn=           5 IRanWt=          -1 IRanGd=           0 AccXCQ= 0.00D+00.
 Generated NRdTot=       0 NPtTot=           0 NUsed=           0 NTot=          32
 NSgBfM=   395   395   395   395   395 MxSgAt=    17 MxSgA2=    17.
 Leave Link  302 at Thu Sep 26 01:52:47 2019, MaxMem=   671088640 cpu:             112.4 elap:              56.2
 (Enter /shared/centos7/gaussian/g16/l303.exe)
 DipDrv:  MaxL=1.
 Leave Link  303 at Thu Sep 26 01:52:51 2019, MaxMem=   671088640 cpu:               9.3 elap:               4.7
 (Enter /shared/centos7/gaussian/g16/l401.exe)
 ExpMin= 1.03D-01 ExpMax= 1.53D+04 ExpMxC= 5.22D+02 IAcc=3 IRadAn=         5 AccDes= 0.00D+00
 Harris functional with IExCor= 1009 and IRadAn=       5 diagonalized for initial guess.
 HarFok:  IExCor= 1009 AccDes= 0.00D+00 IRadAn=         5 IDoV= 1 UseB2=F ITyADJ=14
 ICtDFT=  3500011 ScaDFX=  1.000000  1.000000  1.000000  1.000000
 FoFCou: FMM=F IPFlag=           0 FMFlag=      100000 FMFlg1=           0
         NFxFlg=           0 DoJE=T BraDBF=F KetDBF=T FulRan=T
         wScrn=  0.000000 ICntrl=       500 IOpCl=  0 I1Cent=   200000004 NGrid=           0
         NMat0=    1 NMatS0=      1 NMatT0=    0 NMatD0=    1 NMtDS0=    0 NMtDT0=    0
 Petite list used in FoFCou.
 Harris En= -346.808884151856    
 JPrj=0 DoOrth=F DoCkMO=F.
 Leave Link  401 at Thu Sep 26 01:53:20 2019, MaxMem=   671088640 cpu:              57.1 elap:              28.6
 (Enter /shared/centos7/gaussian/g16/l502.exe)
 Integral symmetry usage will be decided dynamically.
 Closed shell SCF:
 Using DIIS extrapolation, IDIIS=  1040.
 NGot=   671088640 LenX=   670765141 LenY=   670608675
 Requested convergence on RMS density matrix=1.00D-08 within 900 cycles.
 Requested convergence on MAX density matrix=1.00D-06.
 Requested convergence on             energy=1.00D-06.
 No special actions if energy rises.
 Fock matrices will be formed incrementally for  20 cycles.
 Integral accuracy reduced to 1.0D-05 until final iterations.

 Cycle   1  Pass 0  IDiag  1:
 FoFJK:  IHMeth= 1 ICntrl=       0 DoSepK=F KAlg= 0 I1Cent=           0 FoldK=F
 IRaf= 950000000 NMat=       1 IRICut=       1 DoRegI=T DoRafI=F ISym2E= 0 IDoP0=0 IntGTp=1.
 FoFCou: FMM=F IPFlag=           0 FMFlag=      100000 FMFlg1=           0
         NFxFlg=           0 DoJE=F BraDBF=F KetDBF=F FulRan=T
         wScrn=  0.000000 ICntrl=         0 IOpCl=  0 I1Cent=           0 NGrid=           0
         NMat0=    1 NMatS0=      1 NMatT0=    0 NMatD0=    1 NMtDS0=    0 NMtDT0=    0
 Symmetry not used in FoFCou.
 E= -346.700891809792    
 DIIS: error= 3.19D-02 at cycle   1 NSaved=   1.
 NSaved= 1 IEnMin= 1 EnMin= -346.700891809792     IErMin= 1 ErrMin= 3.19D-02
 ErrMax= 3.19D-02  0.00D+00 EMaxC= 1.00D-01 BMatC= 2.83D-01 BMatP= 2.83D-01
 IDIUse=3 WtCom= 6.81D-01 WtEn= 3.19D-01
 Coeff-Com:  0.100D+01
 Coeff-En:   0.100D+01
 Coeff:      0.100D+01
 Gap=     0.356 Goal=   None    Shift=    0.000
 GapD=    0.356 DampG=1.000 DampE=0.500 DampFc=0.5000 IDamp=-1.
 Damping current iteration by 5.00D-01
 RMSDP=1.81D-03 MaxDP=7.37D-02              OVMax= 1.46D-01

 Cycle   2  Pass 0  IDiag  1:
 RMSU=  9.06D-04    CP:  9.98D-01
 E= -346.819270328689     Delta-E=       -0.118378518897 Rises=F Damp=T
 DIIS: error= 4.20D-03 at cycle   2 NSaved=   2.
 NSaved= 2 IEnMin= 2 EnMin= -346.819270328689     IErMin= 2 ErrMin= 4.20D-03
 ErrMax= 4.20D-03  0.00D+00 EMaxC= 1.00D-01 BMatC= 2.10D-02 BMatP= 2.83D-01
 IDIUse=3 WtCom= 9.58D-01 WtEn= 4.20D-02
 Coeff-Com: -0.139D+00 0.114D+01
 Coeff-En:   0.000D+00 0.100D+01
 Coeff:     -0.133D+00 0.113D+01
 Gap=     0.340 Goal=   None    Shift=    0.000
 RMSDP=4.34D-04 MaxDP=1.50D-02 DE=-1.18D-01 OVMax= 7.43D-02

 Cycle   3  Pass 0  IDiag  1:
 RMSU=  4.31D-04    CP:  1.00D+00  1.03D+00
 E= -346.924723447499     Delta-E=       -0.105453118810 Rises=F Damp=F
 DIIS: error= 2.20D-03 at cycle   3 NSaved=   3.
 NSaved= 3 IEnMin= 3 EnMin= -346.924723447499     IErMin= 3 ErrMin= 2.20D-03
 ErrMax= 2.20D-03  0.00D+00 EMaxC= 1.00D-01 BMatC= 3.42D-03 BMatP= 2.10D-02
 IDIUse=3 WtCom= 9.78D-01 WtEn= 2.20D-02
 Coeff-Com: -0.821D-01 0.307D+00 0.775D+00
 Coeff-En:   0.000D+00 0.000D+00 0.100D+01
 Coeff:     -0.803D-01 0.301D+00 0.780D+00
 Gap=     0.339 Goal=   None    Shift=    0.000
 RMSDP=1.31D-04 MaxDP=5.10D-03 DE=-1.05D-01 OVMax= 1.49D-02

 Cycle   4  Pass 0  IDiag  1:
 RMSU=  1.12D-04    CP:  1.00D+00  1.10D+00  9.13D-01
 E= -346.926475569022     Delta-E=       -0.001752121523 Rises=F Damp=F
 DIIS: error= 1.26D-03 at cycle   4 NSaved=   4.
 NSaved= 4 IEnMin= 4 EnMin= -346.926475569022     IErMin= 4 ErrMin= 1.26D-03
 ErrMax= 1.26D-03  0.00D+00 EMaxC= 1.00D-01 BMatC= 1.10D-03 BMatP= 3.42D-03
 IDIUse=3 WtCom= 9.87D-01 WtEn= 1.26D-02
 Coeff-Com: -0.277D-01 0.723D-01 0.403D+00 0.553D+00
 Coeff-En:   0.000D+00 0.000D+00 0.214D+00 0.786D+00
 Coeff:     -0.274D-01 0.713D-01 0.400D+00 0.556D+00
 Gap=     0.336 Goal=   None    Shift=    0.000
 RMSDP=5.33D-05 MaxDP=2.12D-03 DE=-1.75D-03 OVMax= 7.48D-03

 Cycle   5  Pass 0  IDiag  1:
 RMSU=  2.60D-05    CP:  1.00D+00  1.09D+00  9.52D-01  6.15D-01
 E= -346.927289918847     Delta-E=       -0.000814349826 Rises=F Damp=F
 DIIS: error= 2.40D-04 at cycle   5 NSaved=   5.
 NSaved= 5 IEnMin= 5 EnMin= -346.927289918847     IErMin= 5 ErrMin= 2.40D-04
 ErrMax= 2.40D-04  0.00D+00 EMaxC= 1.00D-01 BMatC= 2.44D-05 BMatP= 1.10D-03
 IDIUse=3 WtCom= 9.98D-01 WtEn= 2.40D-03
 Coeff-Com: -0.470D-02 0.912D-02 0.100D+00 0.202D+00 0.694D+00
 Coeff-En:   0.000D+00 0.000D+00 0.000D+00 0.000D+00 0.100D+01
 Coeff:     -0.469D-02 0.910D-02 0.999D-01 0.201D+00 0.694D+00
 Gap=     0.335 Goal=   None    Shift=    0.000
 RMSDP=1.16D-05 MaxDP=2.89D-04 DE=-8.14D-04 OVMax= 1.53D-03

 Cycle   6  Pass 0  IDiag  1:
 RMSU=  8.81D-06    CP:  1.00D+00  1.09D+00  9.61D-01  6.50D-01  8.41D-01
 E= -346.927308042322     Delta-E=       -0.000018123475 Rises=F Damp=F
 DIIS: error= 5.58D-05 at cycle   6 NSaved=   6.
 NSaved= 6 IEnMin= 6 EnMin= -346.927308042322     IErMin= 6 ErrMin= 5.58D-05
 ErrMax= 5.58D-05  0.00D+00 EMaxC= 1.00D-01 BMatC= 2.23D-06 BMatP= 2.44D-05
 IDIUse=1 WtCom= 1.00D+00 WtEn= 0.00D+00
 Coeff-Com: -0.740D-04-0.107D-02 0.164D-01 0.541D-01 0.281D+00 0.649D+00
 Coeff:     -0.740D-04-0.107D-02 0.164D-01 0.541D-01 0.281D+00 0.649D+00
 Gap=     0.336 Goal=   None    Shift=    0.000
 RMSDP=3.50D-06 MaxDP=1.43D-04 DE=-1.81D-05 OVMax= 5.78D-04

 Initial convergence to 1.0D-05 achieved.  Increase integral accuracy.
 Cycle   7  Pass 1  IDiag  1:
 E= -346.927303747915     Delta-E=        0.000004294407 Rises=F Damp=F
 DIIS: error= 2.20D-05 at cycle   1 NSaved=   1.
 NSaved= 1 IEnMin= 1 EnMin= -346.927303747915     IErMin= 1 ErrMin= 2.20D-05
 ErrMax= 2.20D-05  0.00D+00 EMaxC= 1.00D-01 BMatC= 6.33D-07 BMatP= 6.33D-07
 IDIUse=1 WtCom= 1.00D+00 WtEn= 0.00D+00
 Coeff-Com:  0.100D+01
 Coeff:      0.100D+01
 Gap=     0.336 Goal=   None    Shift=    0.000
 RMSDP=3.50D-06 MaxDP=1.43D-04 DE= 4.29D-06 OVMax= 3.87D-04

 Cycle   8  Pass 1  IDiag  1:
 RMSU=  7.45D-06    CP:  1.00D+00
 E= -346.927303847574     Delta-E=       -0.000000099659 Rises=F Damp=F
 DIIS: error= 2.72D-05 at cycle   2 NSaved=   2.
 NSaved= 2 IEnMin= 2 EnMin= -346.927303847574     IErMin= 1 ErrMin= 2.20D-05
 ErrMax= 2.72D-05  0.00D+00 EMaxC= 1.00D-01 BMatC= 4.19D-07 BMatP= 6.33D-07
 IDIUse=1 WtCom= 1.00D+00 WtEn= 0.00D+00
 Coeff-Com:  0.434D+00 0.566D+00
 Coeff:      0.434D+00 0.566D+00
 Gap=     0.336 Goal=   None    Shift=    0.000
 RMSDP=1.60D-06 MaxDP=5.81D-05 DE=-9.97D-08 OVMax= 3.16D-04

 Cycle   9  Pass 1  IDiag  1:
 RMSU=  1.58D-06    CP:  1.00D+00  9.72D-01
 E= -346.927304153003     Delta-E=       -0.000000305430 Rises=F Damp=F
 DIIS: error= 9.54D-06 at cycle   3 NSaved=   3.
 NSaved= 3 IEnMin= 3 EnMin= -346.927304153003     IErMin= 3 ErrMin= 9.54D-06
 ErrMax= 9.54D-06  0.00D+00 EMaxC= 1.00D-01 BMatC= 5.60D-08 BMatP= 4.19D-07
 IDIUse=1 WtCom= 1.00D+00 WtEn= 0.00D+00
 Coeff-Com: -0.127D-01 0.259D+00 0.753D+00
 Coeff:     -0.127D-01 0.259D+00 0.753D+00
 Gap=     0.336 Goal=   None    Shift=    0.000
 RMSDP=5.12D-07 MaxDP=1.52D-05 DE=-3.05D-07 OVMax= 8.24D-05

 Cycle  10  Pass 1  IDiag  1:
 RMSU=  2.64D-07    CP:  1.00D+00  1.01D+00  7.77D-01
 E= -346.927304198492     Delta-E=       -0.000000045488 Rises=F Damp=F
 DIIS: error= 1.55D-06 at cycle   4 NSaved=   4.
 NSaved= 4 IEnMin= 4 EnMin= -346.927304198492     IErMin= 4 ErrMin= 1.55D-06
 ErrMax= 1.55D-06  0.00D+00 EMaxC= 1.00D-01 BMatC= 1.56D-09 BMatP= 5.60D-08
 IDIUse=1 WtCom= 1.00D+00 WtEn= 0.00D+00
 Coeff-Com: -0.157D-01 0.909D-01 0.303D+00 0.621D+00
 Coeff:     -0.157D-01 0.909D-01 0.303D+00 0.621D+00
 Gap=     0.336 Goal=   None    Shift=    0.000
 RMSDP=8.13D-08 MaxDP=4.29D-06 DE=-4.55D-08 OVMax= 7.66D-06

 Cycle  11  Pass 1  IDiag  1:
 RMSU=  7.94D-08    CP:  1.00D+00  1.01D+00  7.83D-01  1.01D+00
 E= -346.927304199789     Delta-E=       -0.000000001297 Rises=F Damp=F
 DIIS: error= 4.02D-07 at cycle   5 NSaved=   5.
 NSaved= 5 IEnMin= 5 EnMin= -346.927304199789     IErMin= 5 ErrMin= 4.02D-07
 ErrMax= 4.02D-07  0.00D+00 EMaxC= 1.00D-01 BMatC= 1.18D-10 BMatP= 1.56D-09
 IDIUse=1 WtCom= 1.00D+00 WtEn= 0.00D+00
 Coeff-Com: -0.197D-02-0.140D-01-0.309D-01 0.163D+00 0.884D+00
 Coeff:     -0.197D-02-0.140D-01-0.309D-01 0.163D+00 0.884D+00
 Gap=     0.336 Goal=   None    Shift=    0.000
 RMSDP=3.68D-08 MaxDP=9.92D-07 DE=-1.30D-09 OVMax= 4.07D-06

 Cycle  12  Pass 1  IDiag  1:
 RMSU=  2.22D-08    CP:  1.00D+00  1.01D+00  7.88D-01  1.11D+00  1.04D+00
 E= -346.927304199915     Delta-E=       -0.000000000127 Rises=F Damp=F
 DIIS: error= 1.60D-07 at cycle   6 NSaved=   6.
 NSaved= 6 IEnMin= 6 EnMin= -346.927304199915     IErMin= 6 ErrMin= 1.60D-07
 ErrMax= 1.60D-07  0.00D+00 EMaxC= 1.00D-01 BMatC= 1.32D-11 BMatP= 1.18D-10
 IDIUse=1 WtCom= 1.00D+00 WtEn= 0.00D+00
 Coeff-Com:  0.792D-03-0.130D-01-0.396D-01 0.283D-03 0.315D+00 0.737D+00
 Coeff:      0.792D-03-0.130D-01-0.396D-01 0.283D-03 0.315D+00 0.737D+00
 Gap=     0.336 Goal=   None    Shift=    0.000
 RMSDP=1.18D-08 MaxDP=3.50D-07 DE=-1.27D-10 OVMax= 1.30D-06

 Cycle  13  Pass 1  IDiag  1:
 RMSU=  7.89D-09    CP:  1.00D+00  1.01D+00  7.87D-01  1.14D+00  1.09D+00
                    CP:  9.41D-01
 E= -346.927304199951     Delta-E=       -0.000000000036 Rises=F Damp=F
 DIIS: error= 3.18D-08 at cycle   7 NSaved=   7.
 NSaved= 7 IEnMin= 7 EnMin= -346.927304199951     IErMin= 7 ErrMin= 3.18D-08
 ErrMax= 3.18D-08  0.00D+00 EMaxC= 1.00D-01 BMatC= 1.39D-12 BMatP= 1.32D-11
 IDIUse=1 WtCom= 1.00D+00 WtEn= 0.00D+00
 Coeff-Com:  0.499D-03-0.472D-02-0.154D-01-0.129D-01 0.707D-01 0.296D+00
 Coeff-Com:  0.666D+00
 Coeff:      0.499D-03-0.472D-02-0.154D-01-0.129D-01 0.707D-01 0.296D+00
 Coeff:      0.666D+00
 Gap=     0.336 Goal=   None    Shift=    0.000
 RMSDP=2.98D-09 MaxDP=9.97D-08 DE=-3.59D-11 OVMax= 4.27D-07

 SCF Done:  E(RM062X) =  -346.927304200     A.U. after   13 cycles
            NFock= 13  Conv=0.30D-08     -V/T= 2.0063
 KE= 3.447721406596D+02 PE=-1.438060255959D+03 EE= 4.322960251495D+02
 Leave Link  502 at Thu Sep 26 02:03:14 2019, MaxMem=   671088640 cpu:            1188.3 elap:             594.2
 (Enter /shared/centos7/gaussian/g16/l801.exe)
 DoSCS=F DFT=T ScalE2(SS,OS)=  1.000000  1.000000
 Range of M.O.s used for correlation:     1   350
 NBasis=   350 NAE=    28 NBE=    28 NFC=     0 NFV=     0
 NROrb=    350 NOA=    28 NOB=    28 NVA=   322 NVB=   322

 **** Warning!!: The largest alpha MO coefficient is  0.12724229D+02

 Leave Link  801 at Thu Sep 26 02:03:15 2019, MaxMem=   671088640 cpu:               1.5 elap:               0.8
 (Enter /shared/centos7/gaussian/g16/l1101.exe)
 Using compressed storage, NAtomX=    17.
 Will process     18 centers per pass.
 Leave Link 1101 at Thu Sep 26 02:03:44 2019, MaxMem=   671088640 cpu:              58.7 elap:              29.4
 (Enter /shared/centos7/gaussian/g16/l1102.exe)
 Symmetrizing basis deriv contribution to polar:
 IMax=3 JMax=2 DiffMx= 0.00D+00
 Leave Link 1102 at Thu Sep 26 02:03:47 2019, MaxMem=   671088640 cpu:               5.0 elap:               2.5
 (Enter /shared/centos7/gaussian/g16/l1110.exe)
 Forming Gx(P) for the SCF density, NAtomX=    17.
 Integral derivatives from FoFJK, PRISM(SPDF).
 Do as many integral derivatives as possible in FoFJK.
 G2DrvN: MDV=     671087280.
 G2DrvN: will do    18 centers at a time, making    1 passes.
 Calling FoFCou, ICntrl=  3107 FMM=F I1Cent=   0 AccDes= 0.00D+00.
 FoFJK:  IHMeth= 1 ICntrl=    3107 DoSepK=F KAlg= 0 I1Cent=           0 FoldK=F
 IRaf=         0 NMat=       1 IRICut=       1 DoRegI=T DoRafI=F ISym2E= 0 IDoP0=0 IntGTp=1.
 FoFCou: FMM=F IPFlag=           0 FMFlag=      100000 FMFlg1=           0
         NFxFlg=           0 DoJE=F BraDBF=F KetDBF=F FulRan=T
         wScrn=  0.000000 ICntrl=      3107 IOpCl=  0 I1Cent=           0 NGrid=           0
         NMat0=    1 NMatS0=      1 NMatT0=    0 NMatD0=    1 NMtDS0=    0 NMtDT0=    0
 Symmetry not used in FoFCou.
 End of G2Drv F.D. properties file   721 does not exist.
 End of G2Drv F.D. properties file   722 does not exist.
 End of G2Drv F.D. properties file   788 does not exist.
 Leave Link 1110 at Thu Sep 26 02:21:05 2019, MaxMem=   671088640 cpu:            2076.8 elap:            1038.5
 (Enter /shared/centos7/gaussian/g16/l1002.exe)
 Minotr:  Closed shell wavefunction.
          IDoAtm=11111111111111111
          Direct CPHF calculation.
          Differentiating once with respect to nuclear coordinates.
          Requested convergence is 1.0D-08 RMS, and 1.0D-07 maximum.
          Secondary convergence is 1.0D-12 RMS, and 1.0D-12 maximum.
          NewPWx=T KeepS1=F KeepF1=F KeepIn=T MapXYZ=F SortEE=F KeepMc=T.
         5102 words used for storage of precomputed grid.
 Two-electron integrals replicated using symmetry.
          MDV=     671088640 using IRadAn=       1.
          Solving linear equations simultaneously, MaxMat=     380.
 FoF2E skips out because all densities are zero.
 CalDSu exits because no D1Ps are significant.
 FoFJK:  IHMeth= 1 ICntrl=       0 DoSepK=F KAlg= 0 I1Cent=           0 FoldK=F
 IRaf= 930000000 NMat=      51 IRICut=     127 DoRegI=T DoRafI=T ISym2E= 2 IDoP0=3 IntGTp=3.
 FoFCou: FMM=F IPFlag=           0 FMFlag=      100000 FMFlg1=           0
         NFxFlg=           0 DoJE=F BraDBF=F KetDBF=F FulRan=T
         wScrn=  0.000000 ICntrl=         0 IOpCl=  0 I1Cent=           0 NGrid=           0
         NMat0=   51 NMatS0=     51 NMatT0=    0 NMatD0=   51 NMtDS0=    0 NMtDT0=    0
 Integrals replicated using symmetry in FoFCou.
 Raff kept on since  90.49% of shell-pairs survive, threshold=   0.20 IRatSp=90.
          There are    54 degrees of freedom in the 1st order CPHF.  IDoFFX=6 NUNeed=     0.
     48 vectors produced by pass  0 Test12= 1.67D-14 1.85D-09 XBig12= 6.66D-02 5.03D-02.
 AX will form    48 AO Fock derivatives at one time.
     48 vectors produced by pass  1 Test12= 1.67D-14 1.85D-09 XBig12= 1.26D-02 2.35D-02.
     48 vectors produced by pass  2 Test12= 1.67D-14 1.85D-09 XBig12= 4.85D-04 3.46D-03.
     48 vectors produced by pass  3 Test12= 1.67D-14 1.85D-09 XBig12= 6.09D-06 2.53D-04.
     48 vectors produced by pass  4 Test12= 1.67D-14 1.85D-09 XBig12= 4.94D-08 2.36D-05.
     48 vectors produced by pass  5 Test12= 1.67D-14 1.85D-09 XBig12= 2.08D-10 1.64D-06.
     25 vectors produced by pass  6 Test12= 1.67D-14 1.85D-09 XBig12= 8.32D-13 1.05D-07.
      3 vectors produced by pass  7 Test12= 1.67D-14 1.85D-09 XBig12= 3.32D-15 5.61D-09.
 InvSVY:  IOpt=1 It=  1 EMax= 2.78D-16
 Solved reduced A of dimension   316 with    54 vectors.
 End of Minotr F.D. properties file   721 does not exist.
 End of Minotr F.D. properties file   722 does not exist.
 End of Minotr F.D. properties file   788 does not exist.
 Leave Link 1002 at Thu Sep 26 02:50:19 2019, MaxMem=   671088640 cpu:            3507.8 elap:            1754.1
 (Enter /shared/centos7/gaussian/g16/l601.exe)
 Copying SCF densities to generalized density rwf, IOpCl= 0 IROHF=0.

 **********************************************************************

            Population analysis using the SCF density.

 **********************************************************************

 Orbital symmetries:
       Occupied  (A) (A) (A) (A) (A) (A) (A) (A) (A) (A) (A) (A)
                 (A) (A) (A) (A) (A) (A) (A) (A) (A) (A) (A) (A)
                 (A) (A) (A) (A)
       Virtual   (A) (A) (A) (A) (A) (A) (A) (A) (A) (A) (A) (A)
                 (A) (A) (A) (A) (A) (A) (A) (A) (A) (A) (A) (A)
                 (A) (A) (A) (A) (A) (A) (A) (A) (A) (A) (A) (A)
                 (A) (A) (A) (A) (A) (A) (A) (A) (A) (A) (A) (A)
                 (A) (A) (A) (A) (A) (A) (A) (A) (A) (A) (A) (A)
                 (A) (A) (A) (A) (A) (A) (A) (A) (A) (A) (A) (A)
                 (A) (A) (A) (A) (A) (A) (A) (A) (A) (A) (A) (A)
                 (A) (A) (A) (A) (A) (A) (A) (A) (A) (A) (A) (A)
                 (A) (A) (A) (A) (A) (A) (A) (A) (A) (A) (A) (A)
                 (A) (A) (A) (A) (A) (A) (A) (A) (A) (A) (A) (A)
                 (A) (A) (A) (A) (A) (A) (A) (A) (A) (A) (A) (A)
                 (A) (A) (A) (A) (A) (A) (A) (A) (A) (A) (A) (A)
                 (A) (A) (A) (A) (A) (A) (A) (A) (A) (A) (A) (A)
                 (A) (A) (A) (A) (A) (A) (A) (A) (A) (A) (A) (A)
                 (A) (A) (A) (A) (A) (A) (A) (A) (A) (A) (A) (A)
                 (A) (A) (A) (A) (A) (A) (A) (A) (A) (A) (A) (A)
                 (A) (A) (A) (A) (A) (A) (A) (A) (A) (A) (A) (A)
                 (A) (A) (A) (A) (A) (A) (A) (A) (A) (A) (A) (A)
                 (A) (A) (A) (A) (A) (A) (A) (A) (A) (A) (A) (A)
                 (A) (A) (A) (A) (A) (A) (A) (A) (A) (A) (A) (A)
                 (A) (A) (A) (A) (A) (A) (A) (A) (A) (A) (A) (A)
                 (A) (A) (A) (A) (A) (A) (A) (A) (A) (A) (A) (A)
                 (A) (A) (A) (A) (A) (A) (A) (A) (A) (A) (A) (A)
                 (A) (A) (A) (A) (A) (A) (A) (A) (A) (A) (A) (A)
                 (A) (A) (A) (A) (A) (A) (A) (A) (A) (A) (A) (A)
                 (A) (A) (A) (A) (A) (A) (A) (A) (A) (A) (A) (A)
                 (A) (A) (A) (A) (A) (A) (A) (A) (A) (A)
 The electronic state is 1-A.
 Alpha  occ. eigenvalues --  -19.64551 -19.64211 -10.60090 -10.58388 -10.57664
 Alpha  occ. eigenvalues --  -10.53843 -10.53791  -1.19112  -1.15223  -0.89903
 Alpha  occ. eigenvalues --   -0.83523  -0.78674  -0.69877  -0.66235  -0.60803
 Alpha  occ. eigenvalues --   -0.58897  -0.53513  -0.51297  -0.50472  -0.47324
 Alpha  occ. eigenvalues --   -0.46073  -0.45237  -0.44926  -0.44024  -0.41730
 Alpha  occ. eigenvalues --   -0.38306  -0.36882  -0.27868
 Alpha virt. eigenvalues --    0.05685   0.07259   0.07943   0.10092   0.10494
 Alpha virt. eigenvalues --    0.11238   0.11962   0.13386   0.15004   0.15556
 Alpha virt. eigenvalues --    0.17500   0.19914   0.21277   0.22457   0.25209
 Alpha virt. eigenvalues --    0.27083   0.29095   0.29856   0.32420   0.33425
 Alpha virt. eigenvalues --    0.34498   0.35447   0.36694   0.38201   0.40317
 Alpha virt. eigenvalues --    0.41543   0.42361   0.43268   0.45475   0.46616
 Alpha virt. eigenvalues --    0.46877   0.47585   0.48264   0.49278   0.49473
 Alpha virt. eigenvalues --    0.50118   0.52137   0.52481   0.53316   0.54457
 Alpha virt. eigenvalues --    0.56261   0.57587   0.57941   0.58527   0.60830
 Alpha virt. eigenvalues --    0.61557   0.63359   0.67629   0.69676   0.71490
 Alpha virt. eigenvalues --    0.74447   0.76498   0.77271   0.80911   0.81714
 Alpha virt. eigenvalues --    0.84236   0.86470   0.87216   0.88211   0.89673
 Alpha virt. eigenvalues --    0.90690   0.93456   0.96629   0.99503   1.00033
 Alpha virt. eigenvalues --    1.00924   1.01820   1.04153   1.04403   1.05648
 Alpha virt. eigenvalues --    1.06206   1.08158   1.09648   1.10161   1.11981
 Alpha virt. eigenvalues --    1.13872   1.15232   1.16636   1.19075   1.19978
 Alpha virt. eigenvalues --    1.22058   1.22481   1.24322   1.26657   1.27303
 Alpha virt. eigenvalues --    1.28704   1.29732   1.30703   1.32386   1.34133
 Alpha virt. eigenvalues --    1.35056   1.36315   1.36675   1.37588   1.38419
 Alpha virt. eigenvalues --    1.41704   1.43637   1.46101   1.47468   1.50974
 Alpha virt. eigenvalues --    1.51713   1.52544   1.53613   1.55831   1.57261
 Alpha virt. eigenvalues --    1.59688   1.61243   1.69909   1.71087   1.85565
 Alpha virt. eigenvalues --    1.89152   1.96529   2.00091   2.01727   2.03151
 Alpha virt. eigenvalues --    2.08133   2.09786   2.13563   2.14957   2.18261
 Alpha virt. eigenvalues --    2.21040   2.25956   2.26800   2.29286   2.32755
 Alpha virt. eigenvalues --    2.34531   2.36474   2.37103   2.38358   2.43118
 Alpha virt. eigenvalues --    2.47242   2.47958   2.49394   2.54917   2.56135
 Alpha virt. eigenvalues --    2.60275   2.61442   2.64640   2.65609   2.66602
 Alpha virt. eigenvalues --    2.70115   2.72314   2.75331   2.77595   2.78255
 Alpha virt. eigenvalues --    2.80186   2.81266   2.82008   2.83576   2.85660
 Alpha virt. eigenvalues --    2.87541   2.87985   2.89460   2.93596   2.94074
 Alpha virt. eigenvalues --    2.94641   2.96185   2.98532   2.98815   2.99715
 Alpha virt. eigenvalues --    3.00325   3.02302   3.04819   3.06069   3.07399
 Alpha virt. eigenvalues --    3.08018   3.08418   3.10793   3.12106   3.12941
 Alpha virt. eigenvalues --    3.15167   3.16287   3.18180   3.19498   3.21465
 Alpha virt. eigenvalues --    3.23691   3.26294   3.27202   3.27380   3.29097
 Alpha virt. eigenvalues --    3.30376   3.31279   3.32197   3.33811   3.35061
 Alpha virt. eigenvalues --    3.36575   3.37665   3.39460   3.40199   3.43354
 Alpha virt. eigenvalues --    3.44074   3.44377   3.45696   3.46189   3.52520
 Alpha virt. eigenvalues --    3.54862   3.55734   3.57297   3.57858   3.60677
 Alpha virt. eigenvalues --    3.62279   3.64940   3.67517   3.69172   3.71114
 Alpha virt. eigenvalues --    3.71842   3.73166   3.73974   3.74321   3.76888
 Alpha virt. eigenvalues --    3.78815   3.79733   3.81130   3.81546   3.84822
 Alpha virt. eigenvalues --    3.85590   3.86454   3.89076   3.90303   3.91188
 Alpha virt. eigenvalues --    3.93085   3.94620   3.97175   3.98897   4.01514
 Alpha virt. eigenvalues --    4.02648   4.03549   4.04857   4.05596   4.06563
 Alpha virt. eigenvalues --    4.08825   4.09894   4.11845   4.13360   4.15919
 Alpha virt. eigenvalues --    4.16935   4.21757   4.22992   4.24581   4.26608
 Alpha virt. eigenvalues --    4.27749   4.30380   4.33706   4.37220   4.39357
 Alpha virt. eigenvalues --    4.42318   4.43808   4.46779   4.48573   4.53829
 Alpha virt. eigenvalues --    4.56479   4.61282   4.63808   4.66420   4.68519
 Alpha virt. eigenvalues --    4.71084   4.72701   4.74619   4.76641   4.77570
 Alpha virt. eigenvalues --    4.82538   4.85655   4.89568   4.90633   4.91890
 Alpha virt. eigenvalues --    4.94377   4.94859   4.96383   5.00522   5.02227
 Alpha virt. eigenvalues --    5.05616   5.07130   5.08310   5.09439   5.12581
 Alpha virt. eigenvalues --    5.19800   5.21131   5.22235   5.26087   5.26818
 Alpha virt. eigenvalues --    5.27310   5.29375   5.36556   5.38952   5.43480
 Alpha virt. eigenvalues --    5.51456   5.54334   5.58109   5.65954   5.73529
 Alpha virt. eigenvalues --    5.73823   5.76325   5.78020   5.81337   5.83990
 Alpha virt. eigenvalues --    5.87602   6.01788   6.13227   6.19192   6.32529
 Alpha virt. eigenvalues --    6.36215   6.41103   6.53529   6.59492   6.70312
 Alpha virt. eigenvalues --    6.73178   6.76341   6.79333   6.82102   7.02043
 Alpha virt. eigenvalues --    7.10248   7.13401   7.26730   7.32323   7.37122
 Alpha virt. eigenvalues --   10.05655  10.68152  11.50283  11.91519  12.91618
 Alpha virt. eigenvalues --   13.34594  14.26641
          Condensed to atoms (all electrons):
               1          2          3          4          5          6
     1  O    7.958163  -0.004677   0.253973  -0.036945  -0.041152   0.320721
     2  O   -0.004677   7.791288   0.000344   0.000733  -0.000011  -0.081640
     3  C    0.253973   0.000344   4.954653   0.314675   0.317966  -0.085388
     4  C   -0.036945   0.000733   0.314675   4.970654  -0.050662   0.002310
     5  C   -0.041152  -0.000011   0.317966  -0.050662   5.008490  -0.006178
     6  C    0.320721  -0.081640  -0.085388   0.002310  -0.006178   5.024337
     7  C   -0.076185   0.363688  -0.005095   0.000903  -0.000698   0.574149
     8  H   -0.055261  -0.000242   0.406313  -0.044149  -0.079016   0.010509
     9  H   -0.001479   0.000179  -0.044960   0.394774   0.001223   0.001473
    10  H    0.002114  -0.000064  -0.037341   0.401391   0.007004   0.000134
    11  H    0.004263   0.000027  -0.049749   0.404643  -0.004152  -0.000926
    12  H    0.001902  -0.000000  -0.042352  -0.012232   0.402514  -0.000329
    13  H    0.001511  -0.000009  -0.037396   0.007196   0.387041   0.001854
    14  H    0.004499   0.000001  -0.043844   0.003146   0.395981   0.000718
    15  H   -0.052563   0.004926   0.006320   0.000287   0.001178   0.389153
    16  H    0.003739  -0.033877  -0.000309   0.000082   0.000056  -0.072299
    17  H    0.018516   0.331825  -0.002053   0.000115   0.000195  -0.016721
               7          8          9         10         11         12
     1  O   -0.076185  -0.055261  -0.001479   0.002114   0.004263   0.001902
     2  O    0.363688  -0.000242   0.000179  -0.000064   0.000027  -0.000000
     3  C   -0.005095   0.406313  -0.044960  -0.037341  -0.049749  -0.042352
     4  C    0.000903  -0.044149   0.394774   0.401391   0.404643  -0.012232
     5  C   -0.000698  -0.079016   0.001223   0.007004  -0.004152   0.402514
     6  C    0.574149   0.010509   0.001473   0.000134  -0.000926  -0.000329
     7  C    4.826311  -0.000602  -0.001074   0.000088  -0.000148   0.000030
     8  H   -0.000602   0.660514   0.008174  -0.012653   0.002471   0.007983
     9  H   -0.001074   0.008174   0.581749  -0.031681  -0.029175   0.001577
    10  H    0.000088  -0.012653  -0.031681   0.584900  -0.034047   0.000294
    11  H   -0.000148   0.002471  -0.029175  -0.034047   0.598415  -0.000029
    12  H    0.000030   0.007983   0.001577   0.000294  -0.000029   0.595321
    13  H    0.000136   0.003504  -0.000334  -0.000436   0.000392  -0.027054
    14  H    0.000090  -0.009391  -0.000176  -0.000326  -0.000957  -0.035742
    15  H   -0.063389   0.000771   0.000213   0.000040   0.000123  -0.000144
    16  H    0.422838  -0.000529  -0.000018  -0.000003  -0.000000  -0.000002
    17  H   -0.045189   0.000358   0.001677  -0.000088   0.000064  -0.000008
              13         14         15         16         17
     1  O    0.001511   0.004499  -0.052563   0.003739   0.018516
     2  O   -0.000009   0.000001   0.004926  -0.033877   0.331825
     3  C   -0.037396  -0.043844   0.006320  -0.000309  -0.002053
     4  C    0.007196   0.003146   0.000287   0.000082   0.000115
     5  C    0.387041   0.395981   0.001178   0.000056   0.000195
     6  C    0.001854   0.000718   0.389153  -0.072299  -0.016721
     7  C    0.000136   0.000090  -0.063389   0.422838  -0.045189
     8  H    0.003504  -0.009391   0.000771  -0.000529   0.000358
     9  H   -0.000334  -0.000176   0.000213  -0.000018   0.001677
    10  H   -0.000436  -0.000326   0.000040  -0.000003  -0.000088
    11  H    0.000392  -0.000957   0.000123  -0.000000   0.000064
    12  H   -0.027054  -0.035742  -0.000144  -0.000002  -0.000008
    13  H    0.563610  -0.026952  -0.000827  -0.000005  -0.000007
    14  H   -0.026952   0.604970  -0.000370  -0.000006  -0.000013
    15  H   -0.000827  -0.000370   0.602133  -0.003957   0.001141
    16  H   -0.000005  -0.000006  -0.003957   0.527687   0.006469
    17  H   -0.000007  -0.000013   0.001141   0.006469   0.427996
 Mulliken charges:
               1
     1  O   -0.301138
     2  O   -0.372490
     3  C    0.094244
     4  C   -0.356921
     5  C   -0.339778
     6  C   -0.061876
     7  C    0.004147
     8  H    0.101247
     9  H    0.117858
    10  H    0.120676
    11  H    0.108785
    12  H    0.108270
    13  H    0.127774
    14  H    0.108374
    15  H    0.114966
    16  H    0.150136
    17  H    0.275724
 Sum of Mulliken charges =  -0.00000
 Mulliken charges with hydrogens summed into heavy atoms:
               1
     1  O   -0.301138
     2  O   -0.096765
     3  C    0.195491
     4  C   -0.009603
     5  C    0.004640
     6  C    0.053090
     7  C    0.154284
 APT charges:
               1
     1  O   -0.204626
     2  O   -0.170252
     3  C    0.015261
     4  C   -1.172997
     5  C   -1.283702
     6  C   -0.481976
     7  C   -0.396301
     8  H    0.282784
     9  H    0.247592
    10  H    0.350829
    11  H    0.487124
    12  H    0.451485
    13  H    0.307743
    14  H    0.427034
    15  H    0.345277
    16  H    0.590588
    17  H    0.204135
 Sum of APT charges =  -0.00000
 APT charges with hydrogens summed into heavy atoms:
               1
     1  O   -0.204626
     2  O    0.033883
     3  C    0.298046
     4  C   -0.087452
     5  C   -0.097440
     6  C   -0.136699
     7  C    0.194287
 Electronic spatial extent (au):  <R**2>=            986.4353
 Charge=             -0.0000 electrons
 Dipole moment (field-independent basis, Debye):
    X=              1.9949    Y=             -0.4712    Z=              0.9450  Tot=              2.2571
 Quadrupole moment (field-independent basis, Debye-Ang):
   XX=            -46.6697   YY=            -42.0087   ZZ=            -44.4380
   XY=              2.5126   XZ=             -0.7600   YZ=             -2.3573
 Traceless Quadrupole moment (field-independent basis, Debye-Ang):
   XX=             -2.2976   YY=              2.3634   ZZ=             -0.0659
   XY=              2.5126   XZ=             -0.7600   YZ=             -2.3573
 Octapole moment (field-independent basis, Debye-Ang**2):
  XXX=              6.4119  YYY=              1.9741  ZZZ=             -2.9522  XYY=             -3.8298
  XXY=             -9.1573  XXZ=              4.1503  XZZ=             -3.0751  YZZ=              2.1170
  YYZ=             -1.2910  XYZ=              3.2076
 Hexadecapole moment (field-independent basis, Debye-Ang**3):
 XXXX=           -963.9375 YYYY=           -282.7051 ZZZZ=            -97.8339 XXXY=             32.8987
 XXXZ=            -20.8692 YYYX=            -11.4328 YYYZ=             -6.9307 ZZZX=              6.6454
 ZZZY=             -1.6819 XXYY=           -205.2171 XXZZ=           -168.5167 YYZZ=            -59.8768
 XXYZ=            -10.3496 YYXZ=              0.8470 ZZXY=             -4.6194
 N-N= 3.140647859501D+02 E-N=-1.438060246839D+03  KE= 3.447721406596D+02
  Exact polarizability:   0.000   0.000   0.000   0.000   0.000   0.000
 Approx polarizability:  92.027  -3.820  75.975  -1.308  -4.977  70.254
 No NMR shielding tensors so no spin-rotation constants.
 Leave Link  601 at Thu Sep 26 02:50:48 2019, MaxMem=   671088640 cpu:              57.5 elap:              28.8
 (Enter /shared/centos7/gaussian/g16/l701.exe)
 SCFChk:  SCF convergence  2.98D-09 required  1.00D-08
 ... and contract with generalized density number  0.
 Compute integral second derivatives.
 Entering OneElI...
 Calculate overlap and kinetic energy integrals
    NBasis = 395  MinDer = 2  MaxDer = 2
 Requested accuracy = 0.1000D-12
 PrmmSu-InSpLW:  IPartL=    0 NPrtUS=   20 NPrtUL=    1 DoSpLW=F IThBeg=    0 IThEnd=   19 NThAct=   20.
 PrsmSu:  NPrtUS=  20 ThrOK=T IAlg=1 NPAlg=1 LenDen=           0 ISkipM=0 DoSpLW=F IThBeg=    0 IThEnd=   19.
 Prism:   IPart=     0 DynPar=F LinDyn=F Incr=           4.
 PRISM was handed    33313805 working-precision words and  8413 shell-pairs
 PRISM was handed    33313805 working-precision words and  8413 shell-pairs
 PRISM was handed    33313805 working-precision words and  8413 shell-pairs
 PRISM was handed    33313805 working-precision words and  8413 shell-pairs
 PRISM was handed    33313805 working-precision words and  8413 shell-pairs
 PRISM was handed    33313805 working-precision words and  8413 shell-pairs
 PRISM was handed    33313805 working-precision words and  8413 shell-pairs
 PRISM was handed    33313805 working-precision words and  8413 shell-pairs
 PRISM was handed    33313805 working-precision words and  8413 shell-pairs
 PRISM was handed    33313805 working-precision words and  8413 shell-pairs
 PRISM was handed    33313805 working-precision words and  8413 shell-pairs
 PRISM was handed    33313805 working-precision words and  8413 shell-pairs
 PRISM was handed    33313805 working-precision words and  8413 shell-pairs
 PRISM was handed    33313805 working-precision words and  8413 shell-pairs
 PRISM was handed    33313805 working-precision words and  8413 shell-pairs
 IPart=  8 NShTot=         418 NBatch=          51 AvBLen=         8.2
 IPart=  0 NShTot=         461 NBatch=          80 AvBLen=         5.8
 PRISM was handed    33313805 working-precision words and  8413 shell-pairs
 PRISM was handed    33313805 working-precision words and  8413 shell-pairs
 IPart=  3 NShTot=         448 NBatch=          70 AvBLen=         6.4
 IPart=  7 NShTot=         421 NBatch=          53 AvBLen=         7.9
 PRISM was handed    33313805 working-precision words and  8413 shell-pairs
 PRISM was handed    33313805 working-precision words and  8413 shell-pairs
 PRISM was handed    33313805 working-precision words and  8413 shell-pairs
 IPart=  2 NShTot=         454 NBatch=          75 AvBLen=         6.1
 IPart= 14 NShTot=         404 NBatch=          40 AvBLen=        10.1
 IPart= 11 NShTot=         412 NBatch=          46 AvBLen=         9.0
 IPart=  1 NShTot=         458 NBatch=          78 AvBLen=         5.9
 IPart= 17 NShTot=         395 NBatch=          37 AvBLen=        10.7
 IPart=  4 NShTot=         443 NBatch=          67 AvBLen=         6.6
 IPart=  9 NShTot=         418 NBatch=          51 AvBLen=         8.2
 IPart= 15 NShTot=         402 NBatch=          40 AvBLen=        10.1
 IPart= 10 NShTot=         415 NBatch=          49 AvBLen=         8.5
 IPart=  6 NShTot=         434 NBatch=          61 AvBLen=         7.1
 IPart= 19 NShTot=         392 NBatch=          36 AvBLen=        10.9
 IPart= 13 NShTot=         404 NBatch=          40 AvBLen=        10.1
 IPart= 12 NShTot=         407 NBatch=          42 AvBLen=         9.7
 IPart=  5 NShTot=         437 NBatch=          63 AvBLen=         6.9
 IPart= 18 NShTot=         392 NBatch=          36 AvBLen=        10.9
 IPart= 16 NShTot=         398 NBatch=          38 AvBLen=        10.5
 PrSmSu:  NxtVal=             81.
 Entering OneElI...
 Calculate potential energy integrals
    NBasis = 395  MinDer = 2  MaxDer = 2
 Requested accuracy = 0.1000D-12
 PrmmSu-InSpLW:  IPartL=    0 NPrtUS=   20 NPrtUL=    1 DoSpLW=F IThBeg=    0 IThEnd=   19 NThAct=   20.
 PrsmSu:  NPrtUS=  20 ThrOK=T IAlg=1 NPAlg=1 LenDen=           0 ISkipM=0 DoSpLW=F IThBeg=    0 IThEnd=   19.
 Prism:   IPart=     0 DynPar=F LinDyn=F Incr=          64.
 PRISM was handed    33358871 working-precision words and  7636 shell-pairs
 PRISM was handed    33358871 working-precision words and  7636 shell-pairs
 PRISM was handed    33358871 working-precision words and  7636 shell-pairs
 PRISM was handed    33358871 working-precision words and  7636 shell-pairs
 PRISM was handed    33358871 working-precision words and  7636 shell-pairs
 PRISM was handed    33358871 working-precision words and  7636 shell-pairs
 PRISM was handed    33358871 working-precision words and  7636 shell-pairs
 PRISM was handed    33358871 working-precision words and  7636 shell-pairs
 PRISM was handed    33358871 working-precision words and  7636 shell-pairs
 PRISM was handed    33358871 working-precision words and  7636 shell-pairs
 PRISM was handed    33358871 working-precision words and  7636 shell-pairs
 PRISM was handed    33358871 working-precision words and  7636 shell-pairs
 PRISM was handed    33358871 working-precision words and  7636 shell-pairs
 PRISM was handed    33358871 working-precision words and  7636 shell-pairs
 PRISM was handed    33358871 working-precision words and  7636 shell-pairs
 PRISM was handed    33358871 working-precision words and  7636 shell-pairs
 PRISM was handed    33358871 working-precision words and  7636 shell-pairs
 PRISM was handed    33358871 working-precision words and  7636 shell-pairs
 PRISM was handed    33358871 working-precision words and  7636 shell-pairs
 PRISM was handed    33358871 working-precision words and  7636 shell-pairs
 IPart= 16 NShTot=        6171 NBatch=         363 AvBLen=        17.0
 IPart=  1 NShTot=        7055 NBatch=         415 AvBLen=        17.0
 IPart=  2 NShTot=        6953 NBatch=         409 AvBLen=        17.0
 IPart= 17 NShTot=        6137 NBatch=         361 AvBLen=        17.0
 IPart= 18 NShTot=        6120 NBatch=         360 AvBLen=        17.0
 IPart=  6 NShTot=        6732 NBatch=         396 AvBLen=        17.0
 IPart=  5 NShTot=        6749 NBatch=         397 AvBLen=        17.0
 IPart=  4 NShTot=        6783 NBatch=         399 AvBLen=        17.0
 IPart=  8 NShTot=        6477 NBatch=         381 AvBLen=        17.0
 IPart= 10 NShTot=        6375 NBatch=         375 AvBLen=        17.0
 IPart= 12 NShTot=        6239 NBatch=         367 AvBLen=        17.0
 IPart=  0 NShTot=        7191 NBatch=         423 AvBLen=        17.0
 IPart= 19 NShTot=        6103 NBatch=         359 AvBLen=        17.0
 IPart= 13 NShTot=        6222 NBatch=         366 AvBLen=        17.0
 IPart=  7 NShTot=        6562 NBatch=         386 AvBLen=        17.0
 IPart= 11 NShTot=        6324 NBatch=         372 AvBLen=        17.0
 IPart=  9 NShTot=        6392 NBatch=         376 AvBLen=        17.0
 IPart=  3 NShTot=        6868 NBatch=         404 AvBLen=        17.0
 IPart= 14 NShTot=        6188 NBatch=         364 AvBLen=        17.0
 IPart= 15 NShTot=        6171 NBatch=         363 AvBLen=        17.0
 PrSmSu:  NxtVal=           1281.
 Polarizability after L701:
                1             2             3 
      1  0.000000D+00
      2  0.000000D+00  0.000000D+00
      3  0.000000D+00  0.000000D+00  0.000000D+00
 Dipole Derivatives after L701:
                 1             2             3             4             5 
      1  -0.236327D+00 -0.412785D-01  0.379648D-02  0.659272D+00 -0.156694D+00
      2  -0.792213D-01 -0.258265D+00 -0.196300D-01 -0.562227D+00 -0.563551D+00
      3  -0.516487D-01 -0.644645D-01 -0.119285D+00  0.321789D+00  0.175258D+00
                 6             7             8             9            10 
      1  -0.219013D+00  0.276230D+00  0.132806D+00 -0.617054D+00 -0.108210D+01
      2   0.248411D+00 -0.799613D-01  0.279692D+00  0.123590D+00 -0.115049D+00
      3  -0.606478D+00 -0.859511D-01  0.147879D+00 -0.510137D+00 -0.127566D-01
                11            12            13            14            15 
      1  -0.859127D+00 -0.255812D-01 -0.186120D+01  0.663447D+00  0.334591D+00
      2  -0.147358D+01 -0.272187D-01  0.273924D+00 -0.111434D+01 -0.508776D-01
      3  -0.176633D+00 -0.963314D+00 -0.191189D-01  0.364798D-01 -0.875567D+00
                16            17            18            19            20 
      1  -0.636707D+00  0.986004D-01  0.289654D+00 -0.675356D+00 -0.253062D+00
      2  -0.541493D-01 -0.539784D+00  0.411394D+00  0.149841D+00 -0.450604D+00
      3   0.248570D+00  0.355861D+00 -0.269436D+00  0.131296D+00  0.190545D+00
                21            22            23            24            25 
      1   0.421602D+00  0.130379D+00 -0.109150D+00  0.325500D+00 -0.387988D-01
      2   0.231572D+00 -0.485676D-02  0.175013D+00 -0.868975D-01 -0.415663D+00
      3  -0.629434D-01 -0.153918D-01 -0.111574D+00  0.542961D+00  0.147494D+00
                26            27            28            29            30 
      1   0.165417D+00 -0.145782D+00  0.182924D-01  0.208526D+00  0.382446D+00
      2   0.518586D+00 -0.479821D+00 -0.127707D+00  0.421598D+00  0.621435D+00
      3  -0.127450D+00  0.262987D+00 -0.116784D+00  0.199518D+00  0.612597D+00
                31            32            33            34            35 
      1   0.110471D+01  0.231918D+00 -0.222506D+00  0.950851D+00  0.554137D+00
      2   0.600167D+00  0.265025D+00 -0.120088D+00 -0.682587D-01  0.104282D+00
      3  -0.143851D-01  0.137283D-01  0.916412D-01 -0.274803D+00 -0.195863D+00
                36            37            38            39            40 
      1  -0.599463D+00 -0.490473D-01 -0.571901D+00 -0.358144D+00  0.654965D+00
      2   0.162723D-01  0.198032D+00  0.683439D+00  0.374892D+00 -0.241848D+00
      3   0.299322D+00  0.962728D-01  0.296005D+00  0.288837D+00  0.141840D+00
                41            42            43            44            45 
      1  -0.416068D+00  0.822440D+00  0.900907D-01  0.173613D+00 -0.144004D+00
      2   0.264593D+00 -0.366989D+00 -0.209413D+00  0.747647D+00 -0.350991D+00
      3  -0.112361D+00  0.361544D+00  0.306418D-01 -0.244345D+00  0.198095D+00
                46            47            48            49            50 
      1   0.112188D+01  0.623248D+00 -0.669638D+00 -0.427139D+00 -0.444431D+00
      2   0.313802D+00  0.367014D+00 -0.256168D+00  0.422591D+00  0.573234D+00
      3  -0.256297D+00 -0.198900D+00  0.282866D+00 -0.270768D+00 -0.183682D+00
                51 
      1   0.421157D+00
      2  -0.268885D+00
      3   0.466311D+00
 Hessian after L701:
                1             2             3             4             5 
      1  0.448907D+01
      2 -0.391293D+01  0.153214D+02
      3  0.153074D-02  0.106309D+01  0.148842D+02
      4  0.738435D+00 -0.409251D+00 -0.159808D+00  0.906018D+01
      5 -0.326319D+00 -0.318777D+00  0.218328D-01  0.117934D+01  0.753021D+01
      6 -0.226616D+00  0.512353D-01 -0.428061D+00  0.882891D+00  0.439999D+01
      7 -0.211777D+01  0.129449D+01  0.330850D+01  0.262752D+00 -0.798697D-01
      8  0.129310D+01 -0.808443D+01  0.527661D+00 -0.794224D-01 -0.105519D+00
      9  0.315258D+01  0.482976D+00 -0.689930D+01  0.185809D-01 -0.467649D-02
     10 -0.175904D+00  0.329733D+00  0.112565D+00  0.248713D+00  0.717786D-01
     11  0.276678D+00  0.243562D+00  0.110068D+00  0.116391D-01 -0.111106D+00
     12  0.132966D+00  0.176699D+00 -0.203043D+00  0.544199D-01  0.144302D-01
     13  0.440010D+00 -0.394556D+00 -0.178978D+00  0.881750D-01 -0.419094D-01
     14 -0.327824D+00 -0.962491D-01  0.564547D-01 -0.395415D-01 -0.488352D-01
     15 -0.757542D-01  0.105531D-01 -0.283295D+00  0.158090D-01 -0.121483D-02
     16 -0.419998D+01  0.366734D+01 -0.338802D+01  0.457665D+00 -0.138349D+00
     17  0.377838D+01 -0.729401D+01 -0.238389D+01 -0.594513D-01 -0.864476D-01
     18 -0.325613D+01 -0.225860D+01 -0.689859D+01  0.126815D+00  0.258904D+00
     19  0.307122D+00 -0.272048D+00  0.231659D+00 -0.796597D+01 -0.229525D+01
     20 -0.372706D+00 -0.895104D-01  0.293185D+00 -0.259691D+01 -0.169094D+01
     21  0.251756D+00  0.270055D+00 -0.136319D-01  0.112663D+01 -0.344088D+01
     22 -0.344193D-01  0.267515D-01 -0.283566D+00  0.213034D-01 -0.683074D-02
     23  0.201580D-01  0.251716D+00 -0.189337D-01 -0.183076D-01 -0.122613D-01
     24 -0.294292D+00  0.198201D-03  0.232156D+00  0.470252D-01 -0.802742D-02
     25 -0.583568D-01 -0.199051D-01  0.318063D-01  0.204638D-01  0.161312D-01
     26  0.368173D-01  0.177559D-01  0.741538D-01  0.477558D-01 -0.574474D-02
     27  0.108910D-01  0.126823D-01 -0.512325D-01 -0.303161D-01 -0.109449D-01
     28 -0.291796D-01  0.353615D-01  0.308134D-01  0.165425D-01  0.896364D-02
     29  0.440339D-01  0.378665D-01  0.751524D-01  0.226254D-01 -0.670651D-02
     30  0.427640D-01  0.842463D-01  0.368745D-01  0.391869D-01  0.118237D-01
     31  0.126449D+00  0.979196D-01  0.226517D-01  0.364651D-01  0.783205D-02
     32  0.959539D-01  0.485339D-04  0.117897D-01  0.102803D-01 -0.490411D-02
     33  0.109116D-01  0.392921D-02 -0.505214D-01 -0.217887D-02 -0.654360D-04
     34  0.127342D+00  0.483261D-02 -0.228089D-01  0.271505D-01 -0.324422D-02
     35  0.227182D-01 -0.420795D-01 -0.429615D-02  0.514072D-02 -0.557826D-02
     36 -0.383371D-01 -0.163211D-02 -0.386933D-01 -0.109926D-01  0.596060D-03
     37  0.242965D-01 -0.386852D-01  0.249392D-01  0.777800D-02 -0.729176D-02
     38 -0.103376D+00 -0.536762D-02 -0.938202D-02 -0.286082D-01  0.345751D-02
     39 -0.138733D-01  0.121592D-01 -0.703942D-01 -0.125094D-01  0.527597D-02
     40  0.105646D+00 -0.499888D-01  0.861369D-01  0.177851D-01 -0.625479D-02
     41 -0.592545D-01 -0.313566D-01 -0.329626D-01 -0.118742D-01 -0.267902D-02
     42  0.906303D-01 -0.318014D-01  0.119731D-02  0.144015D-01 -0.320025D-02
     43  0.786467D-01 -0.265657D+00  0.237402D+00  0.242124D-01 -0.979020D-01
     44 -0.275928D+00  0.130912D+00  0.253294D+00 -0.126064D+00  0.103797D+00
     45  0.214440D+00  0.198290D+00 -0.401707D-01  0.540486D-01 -0.585834D-01
     46  0.132492D+00  0.532431D-01 -0.661011D-01  0.151584D+00  0.330239D-01
     47  0.662364D-01 -0.255894D-01 -0.201118D-01  0.425998D-02 -0.171581D+00
     48 -0.828347D-01 -0.230741D-01 -0.629769D-02 -0.178359D-01  0.139896D+00
     49  0.461007D-01 -0.146651D+00  0.112722D-01 -0.321323D+01  0.168615D+01
     50 -0.255728D+00 -0.159052D-01 -0.171104D-01  0.208839D+01 -0.506639D+01
     51  0.793713D-01 -0.510093D-01 -0.171195D+00 -0.214616D+01 -0.132515D+01
                6             7             8             9            10 
      6  0.130946D+02
      7  0.236311D-01  0.150156D+02
      8 -0.526921D-02 -0.723537D+00  0.192669D+02
      9 -0.132286D+00 -0.221901D+01 -0.567255D+00  0.202676D+02
     10  0.232113D-01 -0.579898D+01  0.979443D+00  0.184636D-01  0.143420D+02
     11  0.614007D-02  0.880624D+00 -0.179349D+01  0.236051D+00 -0.104666D+01
     12 -0.117994D+00  0.604447D-02  0.203652D+00 -0.589454D+01 -0.198855D+00
     13 -0.669920D-02 -0.354336D+01 -0.202629D+01 -0.957857D+00 -0.858057D-01
     14  0.304013D-02 -0.199952D+01 -0.483524D+01  0.592516D+00 -0.174448D+00
     15 -0.593431D-01 -0.988531D+00  0.609423D+00 -0.587261D+01 -0.276071D-01
     16  0.210672D+00  0.337352D+00  0.251013D+00  0.658754D-01  0.445322D-01
     17  0.239107D+00  0.240511D+00  0.119377D+00  0.637749D-01  0.261712D+00
     18  0.227856D+00  0.113322D+00  0.665534D-01  0.859264D-01 -0.782206D-02
     19  0.955580D+00  0.260600D+00  0.161057D+00  0.289497D-01  0.121416D+00
     20 -0.340840D+01  0.101588D+00 -0.989378D-01  0.210530D-01  0.960758D-01
     21 -0.728854D+01  0.730497D-01  0.945382D-02 -0.115943D+00 -0.131263D-02
     22  0.170620D-01 -0.466244D+01  0.450398D-01 -0.111678D+00  0.121586D+00
     23 -0.529456D-02  0.856069D-01 -0.454260D+01 -0.694503D+00 -0.313455D-01
     24 -0.113758D-02 -0.277470D+00 -0.702148D+00 -0.189812D+01 -0.442968D-02
     25 -0.452943D-02  0.117312D+00 -0.358435D-02  0.114557D-01 -0.334636D+01
     26 -0.640169D-02  0.520713D-01 -0.312375D-01  0.706757D-01 -0.912767D+00
     27 -0.183800D-01  0.501551D-02  0.253372D-01  0.102871D+00  0.961352D+00
     28  0.937618D-02  0.738949D-01 -0.319611D-01 -0.284706D-01 -0.391573D+01
     29  0.584027D-02  0.177025D-03 -0.718927D-01 -0.463962D-01 -0.282824D+00
     30 -0.270571D-02 -0.120595D-01 -0.308722D-01  0.103227D+00 -0.462422D+00
     31 -0.221112D-02  0.661613D-01 -0.964614D-01 -0.637660D-02 -0.151868D+01
     32 -0.484527D-03 -0.124647D+00 -0.100848D-01  0.377392D-03  0.728161D+00
     33 -0.746120D-02 -0.216407D-01 -0.142467D-01  0.110053D+00 -0.453586D+00
     34 -0.579627D-02 -0.771070D-02  0.352792D-01  0.610364D-01 -0.790664D-03
     35 -0.134966D-02  0.726292D-01  0.100582D+00 -0.538009D-01  0.223960D-01
     36 -0.367145D-02  0.421014D-01 -0.317088D-01  0.594173D-01  0.682927D-02
     37 -0.190399D-02  0.866623D-01  0.766773D-01  0.466715D-01 -0.482326D-01
     38  0.549196D-02  0.210061D-01  0.136279D-02 -0.649135D-01 -0.125926D-01
     39 -0.555702D-02  0.105215D-01 -0.455991D-01  0.319375D-01 -0.445034D-02
     40  0.193443D-02 -0.114283D+00  0.661466D-01 -0.360003D-01 -0.146837D-02
     41 -0.724724D-03  0.772170D-01  0.872945D-01  0.202847D-01 -0.617182D-01
     42 -0.423802D-02 -0.196050D-01 -0.190569D-02  0.114310D+00  0.210544D-01
     43  0.327217D-01  0.304027D-01  0.435837D-01 -0.321956D-01 -0.364438D-02
     44 -0.431945D-01  0.105464D+00 -0.229824D-02 -0.486135D-01  0.297536D-01
     45 -0.232058D-01 -0.486376D-01 -0.340078D-01 -0.490872D-01 -0.566562D-02
     46 -0.293456D-01  0.244950D-01  0.114737D-01 -0.960730D-02  0.179428D-01
     47  0.161362D+00  0.150430D-01 -0.262718D-02 -0.674423D-02  0.154210D-01
     48 -0.752178D-02 -0.106460D-01 -0.349745D-02 -0.427606D-02 -0.780350D-02
     49 -0.187998D+01 -0.306903D-01 -0.155649D-02 -0.241789D-02 -0.633966D-03
     50 -0.140109D+01 -0.188570D-01  0.281352D-02 -0.806040D-03 -0.121194D-01
     51 -0.522234D+01  0.154073D-01 -0.557052D-02 -0.922468D-02  0.304774D-01
               11            12            13            14            15 
     11  0.119729D+02
     12 -0.427345D+00  0.153107D+02
     13 -0.603987D-01 -0.264668D-01  0.122102D+02
     14  0.217270D+00  0.116902D+00  0.150340D+01  0.136597D+02
     15  0.584744D-01 -0.103899D+00  0.563381D+00 -0.339170D+00  0.151864D+02
     16  0.225192D+00  0.448168D-02  0.225489D+00  0.204443D-01 -0.192265D-01
     17  0.104080D+00  0.626129D-02 -0.201417D-01 -0.144457D+00  0.214404D-01
     18 -0.449542D-02 -0.168869D+00 -0.420513D-01  0.804690D-02 -0.134959D+00
     19  0.917422D-01 -0.603288D-02  0.897233D-01  0.566368D-02 -0.759357D-02
     20 -0.477800D-01 -0.106601D-02 -0.240903D-01 -0.634644D-01  0.628432D-03
     21 -0.185452D-02 -0.828354D-01 -0.152139D-01  0.124300D-02 -0.551786D-01
     22 -0.198861D-01 -0.492861D-02  0.131542D-02  0.135020D+00  0.253167D+00
     23 -0.148532D+00  0.770119D-01  0.134520D+00  0.214614D+00 -0.145449D+00
     24  0.963238D-01  0.129223D+00  0.331362D+00 -0.184972D+00 -0.119552D-01
     25 -0.701426D+00  0.866926D+00 -0.662399D-02 -0.440774D-01  0.107527D-01
     26 -0.336059D+01 -0.103407D+01 -0.385506D-01  0.393932D-01 -0.119190D-01
     27 -0.877548D+00 -0.297191D+01  0.609914D-02 -0.141986D-01 -0.227609D-01
     28 -0.203208D+00 -0.359639D+00 -0.304854D-01 -0.454457D-01 -0.282332D-01
     29 -0.354841D+01  0.103818D+01 -0.508279D-01  0.826977D-01  0.764474D-01
     30  0.926021D+00 -0.206245D+01 -0.322991D-01  0.891306D-01  0.934648D-02
     31  0.588023D+00 -0.495457D+00 -0.129195D-01  0.427421D-01  0.539984D-03
     32 -0.372224D+01 -0.173466D+00  0.115422D-01  0.374715D-01  0.307481D-02
     33 -0.132371D+00 -0.374149D+01 -0.191621D-02 -0.192111D-02 -0.317420D-01
     34  0.127879D-01  0.169100D-01 -0.255340D+01  0.914567D+00 -0.105150D+01
     35 -0.147517D-01 -0.346590D-01  0.770763D+00 -0.335987D+01 -0.590134D+00
     36 -0.206537D-01 -0.163197D-01 -0.997802D+00 -0.666699D+00 -0.300891D+01
     37 -0.196848D-01 -0.519127D-02 -0.381855D+01  0.471775D+00  0.301072D+00
     38  0.137845D+00  0.666174D-01  0.677788D+00 -0.229734D+01  0.108034D+01
     39  0.701714D-01 -0.201981D-01  0.427262D+00  0.105019D+01 -0.324424D+01
     40 -0.621032D-01  0.117239D-01 -0.305186D+01 -0.487478D+00  0.107773D+01
     41  0.633499D-01 -0.192475D-01 -0.474627D+00 -0.339836D+01 -0.753167D+00
     42 -0.292231D-01 -0.293267D-01  0.963117D+00 -0.687529D+00 -0.233794D+01
     43  0.127854D-01 -0.864363D-03  0.298151D-01  0.255792D-01 -0.206839D-01
     44  0.224569D-01 -0.381561D-02  0.446559D-01 -0.280582D-02 -0.145223D-01
     45 -0.552029D-02 -0.141502D-01 -0.318576D-01 -0.175138D-01 -0.191568D-01
     46  0.618854D-02 -0.317244D-02  0.148197D-01  0.535694D-02 -0.266585D-02
     47 -0.266577D-02 -0.203051D-02  0.449577D-02 -0.300521D-02 -0.304104D-03
     48 -0.105359D-02 -0.570819D-02 -0.755155D-02 -0.295180D-02 -0.535840D-02
     49  0.770689D-02  0.713577D-02  0.344848D-02 -0.621662D-02 -0.648727D-03
     50 -0.119329D-01 -0.406017D-02 -0.157767D-01 -0.150106D-02 -0.449940D-02
     51 -0.318349D-02 -0.718306D-02  0.747302D-02 -0.257206D-02 -0.443339D-02
               16            17            18            19            20 
     16  0.955720D+01
     17 -0.200771D-01  0.193703D+02
     18  0.412045D+01  0.463839D+01  0.237024D+02
     19 -0.202901D+01 -0.373003D+01 -0.143539D+01  0.118724D+02
     20 -0.328723D+01 -0.992511D+01 -0.156586D+01  0.473954D+01  0.156508D+02
     21 -0.156286D+01 -0.149054D+01 -0.130506D+02  0.120840D+01  0.522979D+01
     22  0.619966D-01 -0.337198D-01 -0.258401D-02  0.340175D-01 -0.204037D-02
     23 -0.361470D-01 -0.124473D+00 -0.347025D-01 -0.665623D-02 -0.190945D-01
     24  0.704074D-01 -0.275694D-01 -0.858950D-01  0.141521D-01 -0.505148D-02
     25 -0.651781D-02  0.235553D-01 -0.400257D-02 -0.774914D-02  0.164024D-02
     26  0.417515D-01  0.453176D-01 -0.139941D-01  0.163871D-01 -0.567246D-05
     27 -0.129645D-01 -0.261345D-01 -0.182078D-01 -0.136420D-01 -0.853160D-02
     28  0.214996D-02  0.231709D-01  0.385390D-02  0.870661D-02  0.122066D-01
     29  0.291336D-01  0.204415D-01  0.885007D-02  0.222298D-01  0.131044D-02
     30  0.161371D-01  0.229786D-01 -0.705299D-02  0.194470D-01  0.101005D-01
     31  0.783723D-02  0.904128D-02  0.143910D-02  0.149581D-01  0.507632D-02
     32  0.461982D-02 -0.360717D-02  0.656090D-03  0.826298D-02 -0.378773D-02
     33 -0.528349D-03  0.306982D-04 -0.755034D-02 -0.259971D-02 -0.210097D-03
     34  0.217567D-01  0.675720D-02 -0.811861D-02  0.211490D-01 -0.214608D-02
     35  0.109969D-01 -0.753120D-02 -0.255862D-02  0.643561D-02 -0.568339D-02
     36 -0.102347D-01 -0.216706D-02 -0.708978D-02 -0.960394D-02  0.974423D-03
     37  0.317661D-01 -0.235746D-01 -0.239415D-01  0.147826D-01 -0.742042D-02
     38 -0.500248D-01 -0.116234D-01  0.200272D-01 -0.237255D-01  0.194468D-03
     39 -0.413881D-01  0.184371D-01 -0.151132D-01 -0.176901D-01  0.743805D-02
     40  0.446351D-01 -0.667881D-02  0.686948D-02  0.208461D-01 -0.706854D-02
     41 -0.105915D-01 -0.154219D-01 -0.133472D-02 -0.781745D-02 -0.393428D-02
     42  0.190591D-01 -0.309534D-02 -0.103167D-01  0.110009D-01 -0.360577D-02
     43 -0.424466D+01 -0.495412D+00  0.285259D+00 -0.829748D-01  0.373267D+00
     44 -0.645477D+00 -0.217817D+01 -0.120687D+01  0.431103D+00 -0.153664D+00
     45  0.351105D+00 -0.114936D+01 -0.381936D+01 -0.691285D-01  0.515988D-01
     46 -0.359255D+00 -0.257757D-01  0.150642D+00 -0.279561D+01  0.976852D+00
     47 -0.546959D-01  0.273921D+00 -0.142915D-01  0.100650D+01 -0.366446D+01
     48  0.163305D+00 -0.163591D-01  0.200265D+00 -0.100109D+01 -0.637849D+00
     49  0.470434D-01  0.717349D-01 -0.286069D-01  0.115622D+00 -0.663095D-02
     50 -0.790304D-02 -0.142556D+00  0.101276D+00 -0.153388D+00  0.114086D+00
     51  0.137314D-01  0.886893D-01  0.721277D-02  0.935720D-01  0.157952D-01
               21            22            23            24            25 
     21  0.240066D+02
     22 -0.132600D-01  0.446616D+01
     23 -0.320347D-02 -0.176412D+00  0.441390D+01
     24 -0.229525D-01  0.205082D+00  0.911373D+00  0.149942D+01
     25 -0.136610D-02 -0.322783D-01 -0.847777D-02  0.811118D-02  0.338002D+01
     26 -0.431930D-02 -0.819319D-02  0.622532D-01 -0.891513D-01  0.707798D+00
     27 -0.587850D-02  0.506863D-02 -0.700307D-01  0.343751D-01 -0.740271D+00
     28  0.477600D-02  0.322049D-01 -0.203327D-01  0.179454D-02  0.112724D+00
     29  0.607755D-02 -0.135801D-01 -0.835556D-01  0.120903D-02 -0.807783D-02
     30 -0.313447D-02 -0.645327D-03  0.176699D-02  0.310835D-01 -0.699472D-01
     31  0.135793D-03  0.714259D-02  0.267447D-01 -0.269543D-01 -0.197888D+00
     32  0.750411D-03  0.215076D-01  0.150214D-01 -0.246298D-01  0.532034D-01
     33 -0.494275D-02 -0.137385D-01 -0.170909D-01  0.333828D-02 -0.107876D+00
     34 -0.477599D-02  0.357581D-01  0.700994D-02 -0.873084D-01  0.147484D-01
     35 -0.117491D-02  0.391127D-02 -0.294661D-01 -0.642505D-02 -0.138157D-01
     36 -0.353372D-02 -0.639354D-01 -0.673064D-02  0.564449D-01 -0.705312D-02
     37 -0.767658D-02 -0.965849D-02 -0.955342D-02 -0.169438D-01 -0.101757D-02
     38  0.623347D-02 -0.972798D-02 -0.116528D-02  0.365143D-01 -0.400220D-02
     39 -0.499991D-02 -0.129063D-01  0.196391D-01  0.283313D-01 -0.160284D-02
     40  0.242637D-02 -0.381942D-01  0.316492D-01  0.175764D-01  0.181478D-02
     41 -0.969489D-03  0.292510D-01  0.659887D-02 -0.797075D-02 -0.392502D-02
     42 -0.395801D-02  0.220636D-01 -0.954577D-02  0.129162D-01  0.373775D-02
     43 -0.514319D-01 -0.147708D-02  0.490572D-02  0.681857D-02 -0.116992D-02
     44  0.338018D-01  0.133273D-01 -0.276316D-02  0.154860D-01  0.396626D-03
     45  0.236215D+00  0.446183D-03 -0.560209D-03 -0.101871D-01  0.133432D-03
     46 -0.101729D+01 -0.422504D-02 -0.242303D-02  0.430728D-02 -0.898237D-03
     47 -0.665417D+00  0.637833D-03 -0.100664D-02  0.280265D-02 -0.295305D-04
     48 -0.366129D+01 -0.152408D-02  0.442560D-03 -0.308980D-02  0.251612D-03
     49  0.801367D-02  0.120925D-02 -0.939077D-03  0.761393D-03  0.117848D-01
     50  0.509542D-01 -0.505661D-02  0.816158D-03 -0.796207D-02  0.459557D-02
     51  0.746167D-01  0.587739D-02 -0.418857D-02  0.604535D-02  0.347378D-02
               26            27            28            29            30 
     26  0.297239D+01
     27  0.962096D+00  0.312622D+01
     28 -0.160976D-02 -0.103044D+00  0.379581D+01
     29  0.133272D+00  0.163457D-01  0.196502D+00  0.330366D+01
     30  0.379035D-01 -0.249426D+00  0.276290D+00 -0.115844D+01  0.218740D+01
     31  0.737235D-01 -0.918031D-01 -0.686385D-01  0.477384D-01  0.196110D+00
[...]
   xx         0.591706D+02      0.876818D+01      0.975591D+01
   yx         0.620580D+01      0.919605D+00      0.102320D+01
   yy         0.630747D+02      0.934671D+01      0.103996D+02
   zx         0.104310D+02      0.154572D+01      0.171984D+01
   zy        -0.223462D+00     -0.331136D-01     -0.368439D-01
   zz         0.837454D+02      0.124098D+02      0.138078D+02

 ----------------------------------------------------------------------

 Test job not archived.
 1\1\GINC-C0327\Freq\RM062X\CC-pVTZ\C5H10O2\HARMS.N\26-Sep-2019\0\\#P G
 eom=AllCheck Guess=TCheck SCRF=Check Test GenChk RM062X/CC-pVTZ Freq\\
 Gaussian input prepared by ASE\\0,1\O,4.545043667,-1.6443234143,1.7699
 95961\O,2.0104235638,-2.1517773479,2.6930310528\C,5.5496434002,-1.8466
 849944,0.7723208698\C,6.3112026735,-3.090982859,1.1773874982\C,6.45581
 15736,-0.6308745052,0.6767650433\C,3.4956904499,-0.843976957,1.3950149
 906\C,2.2865193124,-1.1075248049,1.8710900805\H,5.04847897,-2.01557769
 65,-0.1866329127\H,6.7646407186,-2.9405303896,2.1575197715\H,5.6433191
 707,-3.9489672983,1.2311403997\H,7.1009223175,-3.3050823006,0.45829396
 35\H,6.9444195009,-0.4627783336,1.6367915068\H,5.9000359549,0.26745716
 69,0.4114601612\H,7.2212628579,-0.7894622186,-0.082620437\H,3.69427184
 21,0.0000581886,0.7501965245\H,1.4323696897,-0.4878806345,1.6482046581
 \H,2.837644545,-2.627226709,2.8371468872\\Version=EM64L-G16RevA.03\Sta
 te=1-A\HF=-346.9479196\RMSD=9.505e-10\RMSF=8.015e-07\ZeroPoint=0.14753
 51\Thermal=0.156027\Dipole=0.7404044,0.0936847,-0.6070693\DipoleDeriv=
 -1.6334381,0.2234984,0.3874789,0.5808556,-0.5384791,-0.0540563,0.16960
 75,0.0602875,-0.4517785,-0.4358243,-0.0494531,0.0751927,-0.5476122,-0.
 7718234,0.500932,0.4303627,0.3450281,-0.7069887,0.9431655,-0.0638419,-
 0.2645424,-0.019775,0.476372,0.0254069,-0.4876819,0.0802237,0.5029981,
 -0.0265537,0.0328515,0.0142081,0.0682906,-0.061059,0.0232403,0.0106856
 ,0.0478983,0.0715887,-0.0587155,-0.0330935,0.0261954,-0.1092458,-0.100
 2082,0.0442602,0.0615072,-0.0104487,0.0540222,0.7782911,-0.3042309,-0.
 007132,-0.5772611,0.1137924,-0.0100915,0.3184755,-0.1569264,-0.2163125
 ,0.2469964,0.132719,-0.1836871,0.4832066,0.5099892,-0.6209595,-0.42422
 15,-0.4574561,0.3798885,-0.0641895,-0.0202582,-0.1117377,-0.0201596,-0
 .01803,-0.0010087,0.0125275,-0.0329883,-0.1207766,0.0386199,0.0042423,
 -0.0497895,-0.0174731,0.0349884,-0.0577252,-0.0837841,0.0009799,-0.067
 8102,-0.0038294,-0.1010416,0.0011342,-0.0579908,-0.0721136,0.0182328,-
 0.0085264,0.0274365,0.0643088,-0.0479372,0.0446873,0.0773792,0.0297053
 ,0.0550041,0.0032567,0.0939569,-0.0239493,-0.0170222,0.0289438,-0.0281
 874,-0.0409025,-0.0080588,0.0489946,0.0144966,-0.0907574,-0.0328996,-0
 .0684809,0.0159853,0.0836567,-0.0364368,0.0629688,-0.0883875,0.0335692
 ,-0.0358197,0.032679,0.0616852,-0.0512782,0.0016337,0.0862786,0.020945
 4,0.058583,-0.0438244,0.0995245,-0.0181832,-0.0189598,0.0252855,-0.010
 702,0.044554,0.0117761,0.0063792,0.0893112,-0.0480925,0.1082383,0.0980
 615,0.0166961,0.0627346,-0.0066805,0.0452345,0.040265,0.0693006,0.0151
 375,0.0569166,0.1040228,0.2277826,0.0247851,-0.0115125,0.0545934,0.305
 7331,-0.0343408,-0.0329015,-0.0268362,0.3315537\Polar=84.307496,-1.830
 7868,63.7794147,-10.1078192,-4.9065881,57.9037905\Quadrupole=-1.205341
 5,1.671975,-0.4666336,-1.9869004,1.0145797,-1.1218113\PG=C01 [X(C5H10O
 2)]\NImag=0\\0.45061370,-0.17408456,0.21638722,-0.07419014,-0.06493117
 ,0.28190482,0.00361505,-0.00234906,0.00196741,0.50949780,-0.01029753,0
 .00930213,-0.00970691,-0.14855535,0.39060479,0.00497146,-0.01111259,-0
 .00040933,-0.00694615,-0.22359669,0.19787590,-0.12385767,0.01690123,0.
 05106898,0.00120118,0.00454038,-0.00350171,0.51112160,0.00982424,-0.07
 100365,0.00942991,-0.00241305,0.00117496,-0.00149158,-0.00296786,0.514
 67428,0.07608339,-0.00392720,-0.15961139,-0.00108243,-0.00359469,0.002
 54749,0.07866677,-0.00192619,0.56975970,-0.02909870,0.03000475,0.00024
 018,-0.00001532,-0.00097742,0.00066064,-0.10472115,0.04672450,-0.02141
 808,0.56681500,0.01108745,-0.00716867,-0.00151678,0.00000672,-0.000539
 75,0.00019722,0.05194364,-0.16718496,0.03040009,0.04128389,0.52893334,
 0.02567340,-0.02629865,0.00411062,-0.00013691,0.00019952,-0.00053839,-
 0.03077655,0.04104571,-0.09432159,-0.02048457,0.02152348,0.57651173,-0
 .03084359,-0.01847556,0.01644044,-0.00050307,0.00012660,-0.00007917,-0
 .11649558,-0.05463855,-0.00595527,0.01323232,0.01158495,-0.00139887,0.
 54364848,0.00413949,0.00716678,0.00130827,0.00016842,-0.00012361,0.000
 43952,-0.05791909,-0.16433393,0.00251547,-0.01684942,-0.03203515,0.002
 21868,-0.05192304,0.52795528,0.03168209,0.01962889,-0.01044812,0.00067
 142,0.00022774,-0.00031984,-0.01039200,-0.00494322,-0.07811869,0.00408
 120,0.01058059,0.00042289,0.00014902,0.00289917,0.58521752,-0.21055864
 ,0.10135163,-0.02059039,-0.00422687,-0.00577265,0.00594690,-0.04137348
 ,0.02208276,-0.00124071,-0.00165615,-0.00023981,0.00092041,0.00121552,
 -0.00196518,-0.00118790,0.81070109,0.10337255,-0.13478771,0.05685217,-
 0.03553442,-0.02944474,0.04137969,0.01670987,-0.01086501,-0.01107770,0
 .00071442,-0.00027179,-0.00025010,-0.00383887,0.00305527,0.00305050,0.
 02198371,0.48514992,-0.04583474,0.07192486,-0.10041155,0.03008982,0.03
 443485,-0.01786799,0.01528435,-0.01888163,0.01170519,0.00459283,-0.000
 14898,-0.00366992,0.00127953,-0.00169913,-0.00067593,-0.19809296,-0.28
 129360,0.37561469,-0.05711743,0.01032975,0.00865002,-0.12044672,-0.049
 55981,0.05665300,0.00297104,0.00027330,-0.00547524,-0.00027933,-0.0000
 5071,0.00128689,-0.00033558,0.00062165,0.00041520,-0.47992916,-0.06485
 422,0.14981880,0.89765381,0.04882563,-0.00439140,-0.00190350,-0.009483
 51,-0.22053876,0.13065032,-0.00287784,-0.00389577,0.00836985,0.0019835
 7,0.00044957,-0.00137194,0.00019424,-0.00056490,-0.00038502,-0.0884534
 1,-0.09999788,0.05203816,-0.06362526,0.49771891,-0.02383772,0.01113062
 ,0.00972761,0.02531495,0.14070940,-0.15244236,0.00387368,0.00281162,-0
 .00524178,-0.00125544,-0.00029934,0.00112168,-0.00008566,-0.00000280,0
 .00015823,0.17230647,0.04594682,-0.12967181,-0.14627638,-0.25457246,0.
 34043861,0.00130300,0.00788175,0.03312421,-0.00010254,0.00060704,-0.00
 012771,-0.10950320,-0.01904717,-0.11042217,-0.00739442,-0.00227515,-0.
 01483739,-0.00876441,-0.00378567,-0.01758592,0.00513879,-0.00139989,0.
 00226984,-0.00074196,-0.00121616,0.00025669,0.12063212,0.00265615,0.00
 052481,-0.00701619,-0.00010372,-0.00053919,0.00021107,-0.01936631,-0.0
 5871026,-0.03151850,0.01403811,0.00330866,0.02559445,-0.01543671,-0.00
 521775,-0.02373322,-0.00108114,0.00104167,-0.00132702,0.00053005,0.000
 17862,-0.00020077,0.01900127,0.06445751,0.00525377,-0.00752782,-0.0332
 8265,-0.00001196,0.00032390,-0.00015645,-0.10299477,-0.03312401,-0.233
 15468,-0.00499304,0.00003992,-0.00568978,-0.00011125,0.00049324,0.0037
 6177,-0.00373237,0.00378501,0.00032238,0.00136292,-0.00071917,0.000802
 67,0.10581995,0.03641060,0.26468152,0.00157259,-0.00108300,0.00026856,
 0.00001140,-0.00009874,0.00014855,-0.00947023,-0.00155796,-0.01769041,
 -0.09219816,-0.01738203,-0.09887329,0.00021183,-0.00101578,0.00099280,
 -0.00030369,0.00008395,0.00028004,0.00019489,0.00004904,-0.00003073,-0
 .00093303,0.00319217,-0.00032226,0.09712487,-0.00234258,0.00148141,-0.
 00042718,0.00004042,0.00007828,0.00002750,0.01270470,0.00281724,0.0281
 5629,-0.01778442,-0.05329283,-0.03720554,0.00061058,0.00212211,0.00081
 387,0.00009781,-0.00021977,-0.00003983,-0.00017365,0.00004150,-0.00007
 287,0.00300276,-0.00433254,0.00104875,0.01642115,0.05678942,0.00015113
 ,-0.00002261,0.00146931,-0.00002782,-0.00008369,0.00010971,-0.00433362
 ,-0.00136955,-0.01127250,-0.09988105,-0.03510558,-0.26434903,0.0003327
 1,-0.00068423,0.00042027,0.00024204,-0.00016258,0.00042131,0.00002363,
 0.00010712,-0.00009262,-0.00054601,0.00185077,0.00097820,0.11120953,0.
 03704541,0.28638124,0.00166357,-0.00093306,-0.00068965,0.00003619,0.00
 001969,-0.00013304,0.01054904,0.01550295,-0.00010846,-0.15341415,-0.13
 460060,0.00739953,-0.00159146,0.00247234,-0.00035761,-0.00003380,0.000
 12214,-0.00025075,0.00002042,-0.00011731,0.00007903,0.00089078,-0.0008
 2173,0.00033132,-0.00821731,-0.00896710,0.00163636,0.16286183,-0.00066
 684,0.00285180,-0.00009931,-0.00003400,0.00032464,-0.00005788,-0.01910
 495,-0.02246802,0.00094230,-0.13145032,-0.21330604,0.00916622,0.004702
 29,-0.00378317,0.00165682,0.00033261,0.00002075,0.00007281,-0.00008954
 ,-0.00022003,0.00013439,0.00011186,0.00118779,0.00004100,-0.00172248,-
 0.00312807,0.00020274,0.14383933,0.23290557,-0.00007902,-0.00092946,0.
 00004239,-0.00004709,0.00016262,-0.00010387,0.00741279,0.00786061,-0.0
 0211314,0.00635429,0.00909198,-0.04819009,-0.00150982,0.00146532,-0.00
 019514,0.00013815,-0.00003469,-0.00017308,-0.00010774,-0.00015851,0.00
 014093,0.00062004,-0.00022989,0.00003909,-0.01806590,-0.02338749,0.002
 79242,-0.00721740,-0.01232841,0.04776021,-0.00305090,0.00417558,-0.001
 40046,-0.00006771,-0.00020559,0.00027253,-0.01119140,-0.00080838,0.012
 08761,-0.18856205,0.03923929,0.12988268,0.00018774,-0.00084015,0.00043
 757,0.00077040,-0.00011492,0.00110705,-0.00019898,0.00043354,-0.000327
 80,0.00007587,-0.00043230,-0.00045181,0.01146091,-0.00311145,-0.009275
 25,-0.01347493,0.00497076,0.01213992,0.20350481,0.00560427,-0.00505433
 ,0.00161491,-0.00000044,0.00039603,-0.00028413,0.01520952,-0.00225442,
 -0.02042535,0.03714111,-0.05818128,-0.03278344,-0.00022516,0.00075760,
 -0.00041022,0.00023881,0.00037792,-0.00150415,0.00027103,-0.00080661,0
 .00050610,-0.00027987,0.00089552,0.00041835,0.00311931,-0.00217053,-0.
 00254009,-0.01768169,0.00651550,0.01781490,-0.04331197,0.06027311,-0.0
 0156786,0.00198647,0.00092343,0.00004956,-0.00007925,0.00010826,-0.006
 84236,0.00117922,0.00522184,0.13125315,-0.03489823,-0.16691575,0.00012
 664,0.00004257,-0.00008847,-0.00044705,0.00027796,0.00070883,-0.000078
 00,0.00014329,-0.00015992,0.00024215,-0.00079801,0.00021376,0.02174424
 ,-0.00502064,-0.01725673,-0.00065574,0.00027995,-0.00095376,-0.1435498
 8,0.03692696,0.17784941,0.00225814,0.00147567,0.00024477,-0.00001611,-
 0.00003190,0.00007024,-0.01155182,-0.00504634,-0.01990042,0.00040135,0
 .00141972,0.00025573,-0.09927635,-0.01598772,-0.10512435,-0.00066436,0
 .00053642,-0.00014523,0.00018738,-0.00009662,0.00007830,-0.00166989,-0
 .00348478,0.00081224,0.00064608,-0.00028245,0.00036314,-0.00004277,0.0
 0020690,0.00019923,0.00000961,-0.00002457,0.00015527,0.10548951,0.0021
 8979,0.00176625,0.00070882,0.00003855,0.00000770,-0.00000441,-0.013117
 53,-0.00649767,-0.02708413,-0.00031529,0.00165450,-0.00136924,-0.01636
 602,-0.05254610,-0.03305895,0.00027292,-0.00022657,0.00025662,0.000077
 46,0.00006886,-0.00010899,-0.00335930,-0.00404136,0.00105719,0.0002203
 2,-0.00043079,0.00073055,0.00021169,0.00030796,0.00032210,0.00005756,-
 0.00005312,-0.00002066,0.02148932,0.05714000,-0.00092983,0.00037126,0.
 00180015,-0.00007381,-0.00014150,0.00010673,0.00120178,0.00021630,-0.0
 0014518,0.00052981,0.00012459,0.00071636,-0.10630615,-0.03485768,-0.25
 796728,0.00017201,-0.00019936,-0.00003033,0.00005664,0.00008687,-0.000
 07723,0.00063684,0.00048475,0.00128730,0.00014572,-0.00049362,0.000155
 15,0.00014738,0.00000954,0.00024131,-0.00015210,-0.00005303,-0.0000246
 8,0.11703279,0.03803052,0.27753301,0.00170234,0.00191132,-0.00090120,0
 .00013019,0.00030688,-0.00008692,0.01259023,-0.01778550,0.00585942,-0.
 00265286,-0.00279368,0.00039762,-0.12095352,0.11604251,-0.03530654,-0.
 00094472,-0.00015923,0.00001829,-0.00015922,-0.00022674,0.00010613,0.0
 0079638,0.00111377,-0.00013147,-0.00009468,-0.00008185,0.00016151,0.00
 062367,-0.00111981,0.00034868,0.00006796,-0.00013142,-0.00023400,-0.00
 780186,0.01094081,-0.00197723,0.13063004,0.00019110,0.00211227,-0.0006
 0925,0.00026253,0.00049935,-0.00042775,0.01684198,-0.02143465,0.006064
 14,-0.00508564,-0.00330297,-0.00027058,0.11423216,-0.22860930,0.054531
 33,0.00066821,-0.00074700,0.00064121,-0.00056222,0.00024022,0.00001234
 ,0.00003528,0.00089043,-0.00030424,-0.00004075,0.00017451,0.00001466,0
 .00086970,-0.00139290,0.00067070,-0.00009547,0.00034691,-0.00012306,-0
 .00327246,0.00485718,-0.00108048,-0.12518286,0.24905121,-0.00053192,-0
 .00017062,-0.00007742,-0.00010565,-0.00021612,0.00024185,0.00005514,0.
 00072017,-0.00216944,0.00051436,0.00037021,0.00053349,-0.03555368,0.05
 406465,-0.06357419,0.00008879,0.00030971,-0.00027734,0.00020162,-0.000
 04291,-0.00014937,0.00057374,-0.00016387,0.00009115,0.00019053,-0.0003
 8123,0.00040029,-0.00013487,0.00019392,0.00054581,-0.00034076,0.000174
 41,0.00010029,-0.01448429,0.02423415,-0.00580740,0.03818442,-0.0595604
 6,0.06340532,-0.00464555,-0.00350779,0.00138575,-0.00026562,-0.0002725
 8,0.00024463,-0.01203728,0.00712150,0.01316144,0.00028257,0.00102888,0
 .00002553,-0.17947570,0.02702570,0.13211007,0.00134667,-0.00115321,0.0
 0050831,-0.00007303,0.00024240,-0.00015752,0.00020113,0.00020626,-0.00
 077545,0.00001894,-0.00008657,-0.00010326,0.00003868,-0.00001317,-0.00
 034971,0.00059828,-0.00018341,-0.00013929,0.01192990,-0.00223388,-0.01
 048305,-0.01168600,0.00156888,0.01103223,0.19338889,-0.00698207,-0.003
 77192,0.00266482,-0.00008212,0.00011540,-0.00014737,-0.01458861,0.0066
 2941,0.01866348,0.00042439,0.00069447,0.00009256,0.02880322,-0.0534770
 7,-0.03012071,0.00115073,-0.00147448,0.00072815,-0.00045824,0.00033373
 ,-0.00002218,0.00046573,0.00084011,-0.00077778,0.00001230,-0.00006664,
 0.00006339,0.00006655,0.00027304,-0.00022215,-0.00003917,-0.00085395,0
 .00014357,0.00336545,-0.00203723,-0.00246541,0.01789861,-0.00329979,-0
 .01956951,-0.02999334,0.05573633,0.00095280,0.00051449,0.00154559,0.00
 000324,0.00010557,-0.00001615,-0.00051790,-0.00114786,-0.00261221,-0.0
 0000322,-0.00041043,-0.00013110,0.13272272,-0.02857221,-0.17879884,-0.
 00061524,0.00053562,-0.00014624,0.00017221,-0.00025635,0.00011979,0.00
 020671,0.00050831,0.00015299,0.00014020,0.00001295,0.00000416,-0.00023
 387,0.00008448,0.00015605,-0.00018608,0.00042251,0.00034473,0.02060421
 ,-0.00367473,-0.01769975,-0.00696563,0.00066119,0.00615546,-0.14631646
 ,0.03137881,0.19088084,0.00023044,0.02576861,-0.01825506,-0.00429579,0
 .00078327,0.00359019,0.00309572,0.00080038,-0.00213536,-0.00036523,-0.
 00009426,0.00034455,-0.00052545,-0.00002326,-0.00030377,-0.06911574,-0
 .04566578,0.04288969,0.00264105,-0.02330132,0.01487742,-0.00018693,0.0
 0006453,0.00028699,0.00013392,-0.00001348,0.00006891,0.00005886,-0.000
 17782,-0.00000483,-0.00015684,0.00006515,0.00008084,0.00015290,-0.0000
 7285,-0.00001247,-0.00221682,-0.00052745,0.00035157,0.00029606,-0.0001
 8419,0.00007937,0.07130451,0.00565597,-0.01635329,0.00991531,0.0012702
 9,0.00483203,0.00449165,-0.00281582,0.00086854,0.00370260,0.00017255,-
 0.00012323,-0.00061078,0.00019662,-0.00014164,-0.00036080,-0.04572770,
 -0.21882148,0.14769373,0.00008444,-0.00165238,0.00037062,0.00014517,-0
 .00052480,-0.00075555,-0.00017509,0.00014242,-0.00006302,0.00000177,0.
 00013870,0.00002820,0.00013625,-0.00010330,-0.00003348,-0.00020551,0.0
 0004247,-0.00007222,-0.00062318,0.00075843,-0.00001322,0.00009009,0.00
 024779,-0.00009674,0.04226807,0.23210646,-0.00243284,0.00896485,-0.003
 57951,0.00310986,0.00265600,0.00835425,0.00123109,-0.00094583,-0.00051
 203,-0.00023952,-0.00010837,0.00012710,0.00007547,0.00042232,0.0000120
 5,0.04107009,0.14614203,-0.14044595,-0.00166432,0.00801995,-0.00567996
 ,-0.00003086,-0.00023008,0.00020448,0.00001901,-0.00001300,-0.00008034
 ,0.00003649,-0.00009221,0.00000704,-0.00009158,0.00009715,-0.00000041,
 -0.00009320,0.00000827,-0.00005520,0.00053600,-0.00024131,0.00060658,-
 0.00003286,-0.00036382,0.00005849,-0.04054282,-0.16160099,0.14393123,-
 0.00190958,-0.00116098,0.00543194,0.01083517,-0.00505485,0.00127582,-0
 .00031945,0.00029736,-0.00134100,-0.00028602,-0.00001859,0.00038793,-0
 .00015757,0.00009957,0.00015426,-0.01288464,0.01756423,-0.00921862,-0.
 25231784,0.13725524,-0.04339896,-0.00005300,0.00005052,0.00004949,0.00
 002141,-0.00002769,-0.00001295,0.00002324,-0.00000504,-0.00001047,-0.0
 0007066,0.00012499,-0.00002967,0.00000557,0.00000272,-0.00000674,0.000
 00028,-0.00003058,-0.00000656,-0.00005101,-0.00007068,0.00000713,-0.00
 024994,-0.00092537,-0.00021997,0.25609895,-0.00041061,0.00213188,0.005
 80846,0.02095008,-0.01886681,0.00915237,-0.00054737,0.00124650,-0.0000
 7686,-0.00028614,-0.00003009,0.00033735,0.00005466,-0.00005517,-0.0000
 3354,-0.00579752,0.00678689,-0.00306215,0.13408979,-0.13954507,0.04088
 163,-0.00010507,0.00004544,-0.00008561,-0.00001357,-0.00001478,-0.0000
 2401,0.00001086,0.00001988,0.00001835,-0.00007281,0.00011537,-0.000051
 06,-0.00001631,-0.00001764,-0.00000251,-0.00002934,-0.00000987,-0.0000
 1271,-0.00000444,0.00001426,-0.00001862,-0.00025930,-0.00126823,-0.002
 18478,-0.14580850,0.15170748,0.00573009,0.00250816,0.00601463,-0.01766
 741,0.01663887,-0.00621769,-0.00062942,0.00149289,0.00119621,-0.000102
 98,-0.00000651,0.00011041,0.00021821,-0.00018604,-0.00018179,0.0056355
 1,-0.00784022,0.00505540,-0.03902778,0.03968659,-0.05230346,-0.0001634
 1,0.00005696,-0.00024491,-0.00002666,0.00001653,-0.00003025,0.00000098
 ,-0.00000985,-0.00000204,-0.00004054,0.00001459,-0.00004742,-0.0000418
 0,-0.00001807,0.00000676,-0.00004443,-0.00000002,-0.00000824,0.0000504
 3,0.00007911,-0.00005267,-0.00092622,-0.00200566,-0.00287767,0.0450074
 2,-0.05404644,0.05052740,-0.00187676,0.00179374,-0.00279533,-0.3953872
 5,0.21444259,-0.06295928,-0.00100754,0.00163783,0.00091093,-0.00008771
 ,-0.00013972,-0.00006666,0.00042640,-0.00026037,-0.00043554,0.00251880
 ,-0.00836674,0.00540374,0.00793066,0.00041452,-0.00152246,0.00031130,-
 0.00012611,-0.00039229,-0.00017974,-0.00000617,-0.00000900,0.00000814,
 0.00022024,0.00017888,0.00009789,0.00006433,-0.00010797,-0.00005728,-0
 .00003627,0.00001842,-0.00003144,0.00012758,-0.00003470,0.00013308,0.0
 0021144,-0.00005019,-0.00080071,0.00045145,-0.00073003,0.00131507,-0.0
 0175438,0.00202801,0.38668710,0.00123756,-0.00119356,-0.00209236,0.175
 81868,-0.13728245,0.05057306,-0.00154594,0.00123741,0.00081639,0.00026
 137,0.00039622,-0.00001768,0.00039862,-0.00016925,-0.00034323,0.000858
 21,0.00042401,0.00016612,0.03309617,-0.02741859,0.01277588,0.00021744,
 -0.00000465,-0.00032376,-0.00000885,0.00000906,0.00004072,0.00000446,-
 0.00024741,-0.00014420,0.00001924,-0.00020040,0.00004441,-0.00004481,0
 .00000559,0.00004196,-0.00008027,-0.00013403,0.00006343,0.00016469,0.0
 0009655,-0.00004700,0.00056972,-0.00014850,-0.00053018,-0.00229235,-0.
 00226003,0.00361913,-0.20867394,0.16689002,-0.00109405,-0.00210946,0.0
 0028142,-0.03510701,0.04196036,-0.03127212,0.00119375,-0.00092655,-0.0
 0115783,0.00015145,0.00016613,0.00015136,-0.00034488,0.00013288,0.0003
 7556,-0.00061375,0.00257875,-0.00045766,-0.02601146,0.02030771,-0.0066
 9100,-0.00003670,0.00010063,-0.00000684,-0.00012992,-0.00007988,-0.000
 05059,0.00015030,-0.00019651,0.00000586,-0.00011108,0.00001054,-0.0000
 2342,-0.00002664,-0.00000904,-0.00003972,0.00003535,0.00002159,-0.0000
 1683,-0.00016080,-0.00012496,0.00003885,-0.00038900,-0.00058964,-0.000
 07016,0.00193095,0.00340014,-0.00094468,0.06056349,-0.06464270,0.03987
 782\\-0.00000003,-0.00000022,0.,-0.00000031,0.00000035,-0.00000048,-0.
 00000014,0.00000001,-0.00000020,-0.00000076,-0.00000068,-0.00000108,0.
 00000057,-0.00000036,0.00000080,0.00000046,0.00000065,0.00000049,0.000
 00027,0.00000089,0.00000027,-0.00000015,0.00000101,-0.00000026,-0.0000
 0073,-0.00000166,-0.00000094,-0.00000121,-0.00000038,-0.00000174,-0.00
 000087,-0.00000052,-0.00000118,0.00000059,-0.00000137,0.00000096,0.000
 00103,0.00000010,0.00000150,0.00000044,-0.00000019,0.00000077,0.000000
 87,0.00000098,0.00000121,0.00000057,0.00000151,0.00000075,-0.00000062,
 -0.00000013,-0.00000085\\\@


 THE WORLD IS NOT A HAMBURGER - YOU CAN'T HAVE IT YOUR WAY.
 Job cpu time:       0 days  2 hours 38 minutes 15.5 seconds.
 Elapsed time:       0 days  1 hours 19 minutes  8.7 seconds.
 File lengths (MBytes):  RWF=   1392 Int=      0 D2E=      0 Chk=     32 Scr=     32
 Normal termination of Gaussian 16 at Thu Sep 26 09:29:43 2019.
