 Entering Gaussian System, Link 0=g16
 Input=loose/species/CC(C)OC=CO/conformers/CC(C)OC=CO_46.com
 Output=loose/species/CC(C)OC=CO/conformers/CC(C)OC=CO_46.log
 Initial command:
 /shared/centos7/gaussian/g16/l1.exe "/scratch/harms.n/gauss_scrdir/Gau-17991.inp" -scrdir="/scratch/harms.n/gauss_scrdir/"
 Entering Link 1 = /shared/centos7/gaussian/g16/l1.exe PID=     17993.
  
 Copyright (c) 1988,1990,1992,1993,1995,1998,2003,2009,2016,
            Gaussian, Inc.  All Rights Reserved.
  
 This is part of the Gaussian(R) 16 program.  It is based on
 the Gaussian(R) 09 system (copyright 2009, Gaussian, Inc.),
 the Gaussian(R) 03 system (copyright 2003, Gaussian, Inc.),
 the Gaussian(R) 98 system (copyright 1998, Gaussian, Inc.),
 the Gaussian(R) 94 system (copyright 1995, Gaussian, Inc.),
 the Gaussian 92(TM) system (copyright 1992, Gaussian, Inc.),
 the Gaussian 90(TM) system (copyright 1990, Gaussian, Inc.),
 the Gaussian 88(TM) system (copyright 1988, Gaussian, Inc.),
 the Gaussian 86(TM) system (copyright 1986, Carnegie Mellon
 University), and the Gaussian 82(TM) system (copyright 1983,
 Carnegie Mellon University). Gaussian is a federally registered
 trademark of Gaussian, Inc.
  
 This software contains proprietary and confidential information,
 including trade secrets, belonging to Gaussian, Inc.
  
 This software is provided under written license and may be
 used, copied, transmitted, or stored only in accord with that
 written license.
  
 The following legend is applicable only to US Government
 contracts under FAR:
  
                    RESTRICTED RIGHTS LEGEND
  
 Use, reproduction and disclosure by the US Government is
 subject to restrictions as set forth in subparagraphs (a)
 and (c) of the Commercial Computer Software - Restricted
 Rights clause in FAR 52.227-19.
  
 Gaussian, Inc.
 340 Quinnipiac St., Bldg. 40, Wallingford CT 06492
  
  
 ---------------------------------------------------------------
 Warning -- This program may not be used in any manner that
 competes with the business of Gaussian, Inc. or will provide
 assistance to any competitor of Gaussian, Inc.  The licensee
 of this program is prohibited from giving any competitor of
 Gaussian, Inc. access to this program.  By using this program,
 the user acknowledges that Gaussian, Inc. is engaged in the
 business of creating and licensing software in the field of
 computational chemistry and represents and warrants to the
 licensee that it is not a competitor of Gaussian, Inc. and that
 it will not use this program in any manner prohibited above.
 ---------------------------------------------------------------
  

 Cite this work as:
 Gaussian 16, Revision A.03,
 M. J. Frisch, G. W. Trucks, H. B. Schlegel, G. E. Scuseria, 
 M. A. Robb, J. R. Cheeseman, G. Scalmani, V. Barone, 
 G. A. Petersson, H. Nakatsuji, X. Li, M. Caricato, A. V. Marenich, 
 J. Bloino, B. G. Janesko, R. Gomperts, B. Mennucci, H. P. Hratchian, 
 J. V. Ortiz, A. F. Izmaylov, J. L. Sonnenberg, D. Williams-Young, 
 F. Ding, F. Lipparini, F. Egidi, J. Goings, B. Peng, A. Petrone, 
 T. Henderson, D. Ranasinghe, V. G. Zakrzewski, J. Gao, N. Rega, 
 G. Zheng, W. Liang, M. Hada, M. Ehara, K. Toyota, R. Fukuda, 
 J. Hasegawa, M. Ishida, T. Nakajima, Y. Honda, O. Kitao, H. Nakai, 
 T. Vreven, K. Throssell, J. A. Montgomery, Jr., J. E. Peralta, 
 F. Ogliaro, M. J. Bearpark, J. J. Heyd, E. N. Brothers, K. N. Kudin, 
 V. N. Staroverov, T. A. Keith, R. Kobayashi, J. Normand, 
 K. Raghavachari, A. P. Rendell, J. C. Burant, S. S. Iyengar, 
 J. Tomasi, M. Cossi, J. M. Millam, M. Klene, C. Adamo, R. Cammi, 
 J. W. Ochterski, R. L. Martin, K. Morokuma, O. Farkas, 
 J. B. Foresman, and D. J. Fox, Gaussian, Inc., Wallingford CT, 2016.
 
 ******************************************
 Gaussian 16:  EM64L-G16RevA.03 25-Dec-2016
                28-Sep-2019 
 ******************************************
 %nprocshared=20
 Will use up to   20 processors via shared memory.
 %mem=5GB
 ----------------------------------------------------------------------
 #p m062x/cc-pVTZ opt=(calcfc,maxcycles=900,Tight) freq IOP(7/33=1,2/16
 =3) scf=(maxcycle=900)
 ----------------------------------------------------------------------
 1/6=900,7=10,10=4,18=20,19=15,26=3,38=1/1,3;
 2/9=110,12=2,16=3,17=6,18=5,40=1/2;
 3/5=16,6=1,11=2,25=1,30=1,71=2,74=-55,140=1/1,2,3;
 4//1;
 5/5=2,7=900,38=5/2;
 8/6=4,10=90,11=11/1;
 11/6=1,8=1,9=11,15=111,16=1/1,2,10;
 10/6=1,13=1/2;
 6/7=2,8=2,9=2,10=2,28=1/1;
 7/10=1,18=20,25=1,33=1/1,2,3,16;
 1/6=900,7=10,10=4,18=20,19=15,26=3/3(2);
 2/9=110,16=3/2;
 99//99;
 2/9=110,16=3/2;
 3/5=16,6=1,11=2,25=1,30=1,71=1,74=-55/1,2,3;
 4/5=5,16=3,69=1/1;
 5/5=2,7=900,38=5/2;
 7/33=1/1,2,3,16;
 1/6=900,7=10,18=20,19=15,26=3/3(-5);
 2/9=110,16=3/2;
 6/7=2,8=2,9=2,10=2,19=2,28=1/1;
 99/9=1/99;
 Leave Link    1 at Sat Sep 28 20:13:08 2019, MaxMem=   671088640 cpu:               4.2 elap:               2.1
 (Enter /shared/centos7/gaussian/g16/l101.exe)
 ------------------------------
 Gaussian input prepared by ASE
 ------------------------------
 Symbolic Z-matrix:
 Charge =  0 Multiplicity = 1
 O                    -0.11851   0.41655   0.22395 
 O                     1.10837  -1.87736  -0.82528 
 C                    -0.13568   1.78391  -0.12806 
 C                    -0.80227   2.63443   0.95328 
 C                    -0.73936   1.93621  -1.48543 
 C                     1.11423  -0.01734   0.6552 
 C                     1.65347  -1.10734   0.19135 
 H                     0.93124   2.13547  -0.19459 
 H                    -1.27577   2.01222   1.74122 
 H                    -0.06084   3.29175   1.44287 
 H                    -1.59584   3.30757   0.5293 
 H                    -1.78272   2.36944  -1.4651 
 H                    -0.79596   0.96092  -2.01237 
 H                    -0.10648   2.619    -2.12011 
 H                     1.5787    0.55421   1.47455 
 H                     2.59063  -1.50016   0.55722 
 H                     0.22981  -1.45962  -1.06069 
 
 ITRead=  0  0  0  0  0  0  0  0  0  0  0  0  0  0  0  0  0
 MicOpt= -1 -1 -1 -1 -1 -1 -1 -1 -1 -1 -1 -1 -1 -1 -1 -1 -1
 NAtoms=     17 NQM=       17 NQMF=       0 NMMI=      0 NMMIF=      0
                NMic=       0 NMicF=      0.
                    Isotopes and Nuclear Properties:
 (Nuclear quadrupole moments (NQMom) in fm**2, nuclear magnetic moments (NMagM)
  in nuclear magnetons)

  Atom         1           2           3           4           5           6           7           8           9          10
 IAtWgt=          16          16          12          12          12          12          12           1           1           1
 AtmWgt=  15.9949146  15.9949146  12.0000000  12.0000000  12.0000000  12.0000000  12.0000000   1.0078250   1.0078250   1.0078250
 NucSpn=           0           0           0           0           0           0           0           1           1           1
 AtZEff=  -0.0000000  -0.0000000  -0.0000000  -0.0000000  -0.0000000  -0.0000000  -0.0000000  -0.0000000  -0.0000000  -0.0000000
 NQMom=    0.0000000   0.0000000   0.0000000   0.0000000   0.0000000   0.0000000   0.0000000   0.0000000   0.0000000   0.0000000
 NMagM=    0.0000000   0.0000000   0.0000000   0.0000000   0.0000000   0.0000000   0.0000000   2.7928460   2.7928460   2.7928460
 AtZNuc=   8.0000000   8.0000000   6.0000000   6.0000000   6.0000000   6.0000000   6.0000000   1.0000000   1.0000000   1.0000000

  Atom        11          12          13          14          15          16          17
 IAtWgt=           1           1           1           1           1           1           1
 AtmWgt=   1.0078250   1.0078250   1.0078250   1.0078250   1.0078250   1.0078250   1.0078250
 NucSpn=           1           1           1           1           1           1           1
 AtZEff=  -0.0000000  -0.0000000  -0.0000000  -0.0000000  -0.0000000  -0.0000000  -0.0000000
 NQMom=    0.0000000   0.0000000   0.0000000   0.0000000   0.0000000   0.0000000   0.0000000
 NMagM=    2.7928460   2.7928460   2.7928460   2.7928460   2.7928460   2.7928460   2.7928460
 AtZNuc=   1.0000000   1.0000000   1.0000000   1.0000000   1.0000000   1.0000000   1.0000000
 Leave Link  101 at Sat Sep 28 20:13:09 2019, MaxMem=   671088640 cpu:               2.5 elap:               1.3
 (Enter /shared/centos7/gaussian/g16/l103.exe)

 GradGradGradGradGradGradGradGradGradGradGradGradGradGradGradGradGradGrad
 Berny optimization.
 Initialization pass.
                           ----------------------------
                           !    Initial Parameters    !
                           ! (Angstroms and Degrees)  !
 --------------------------                            --------------------------
 ! Name  Definition              Value          Derivative Info.                !
 --------------------------------------------------------------------------------
 ! R1    R(1,3)                  1.412          calculate D2E/DX2 analytically  !
 ! R2    R(1,6)                  1.3762         calculate D2E/DX2 analytically  !
 ! R3    R(2,7)                  1.3869         calculate D2E/DX2 analytically  !
 ! R4    R(2,17)                 1.0009         calculate D2E/DX2 analytically  !
 ! R5    R(3,4)                  1.5287         calculate D2E/DX2 analytically  !
 ! R6    R(3,5)                  1.4933         calculate D2E/DX2 analytically  !
 ! R7    R(3,8)                  1.1253         calculate D2E/DX2 analytically  !
 ! R8    R(4,9)                  1.1101         calculate D2E/DX2 analytically  !
 ! R9    R(4,10)                 1.1052         calculate D2E/DX2 analytically  !
 ! R10   R(4,11)                 1.1237         calculate D2E/DX2 analytically  !
 ! R11   R(5,12)                 1.1299         calculate D2E/DX2 analytically  !
 ! R12   R(5,13)                 1.11           calculate D2E/DX2 analytically  !
 ! R13   R(5,14)                 1.1267         calculate D2E/DX2 analytically  !
 ! R14   R(6,7)                  1.3016         calculate D2E/DX2 analytically  !
 ! R15   R(6,15)                 1.1017         calculate D2E/DX2 analytically  !
 ! R16   R(7,16)                 1.08           calculate D2E/DX2 analytically  !
 ! A1    A(3,1,6)              113.2234         calculate D2E/DX2 analytically  !
 ! A2    A(7,2,17)             106.5995         calculate D2E/DX2 analytically  !
 ! A3    A(1,3,4)              111.575          calculate D2E/DX2 analytically  !
 ! A4    A(1,3,5)              109.2851         calculate D2E/DX2 analytically  !
 ! A5    A(1,3,8)              107.8022         calculate D2E/DX2 analytically  !
 ! A6    A(4,3,5)              114.2002         calculate D2E/DX2 analytically  !
 ! A7    A(4,3,8)              106.3447         calculate D2E/DX2 analytically  !
 ! A8    A(5,3,8)              107.3179         calculate D2E/DX2 analytically  !
 ! A9    A(3,4,9)              112.1007         calculate D2E/DX2 analytically  !
 ! A10   A(3,4,10)             110.5927         calculate D2E/DX2 analytically  !
 ! A11   A(3,4,11)             111.9838         calculate D2E/DX2 analytically  !
 ! A12   A(9,4,10)             107.7625         calculate D2E/DX2 analytically  !
 ! A13   A(9,4,11)             107.5998         calculate D2E/DX2 analytically  !
 ! A14   A(10,4,11)            106.5375         calculate D2E/DX2 analytically  !
 ! A15   A(3,5,12)             113.3304         calculate D2E/DX2 analytically  !
 ! A16   A(3,5,13)             111.2541         calculate D2E/DX2 analytically  !
 ! A17   A(3,5,14)             110.288          calculate D2E/DX2 analytically  !
 ! A18   A(12,5,13)            107.3585         calculate D2E/DX2 analytically  !
 ! A19   A(12,5,14)            107.2448         calculate D2E/DX2 analytically  !
 ! A20   A(13,5,14)            107.0781         calculate D2E/DX2 analytically  !
 ! A21   A(1,6,7)              121.5662         calculate D2E/DX2 analytically  !
 ! A22   A(1,6,15)             116.5602         calculate D2E/DX2 analytically  !
 ! A23   A(7,6,15)             121.6578         calculate D2E/DX2 analytically  !
 ! A24   A(2,7,6)              124.2873         calculate D2E/DX2 analytically  !
 ! A25   A(2,7,16)             112.7946         calculate D2E/DX2 analytically  !
 ! A26   A(6,7,16)             122.9135         calculate D2E/DX2 analytically  !
 ! D1    D(6,1,3,4)           -103.4895         calculate D2E/DX2 analytically  !
 ! D2    D(6,1,3,5)            129.2546         calculate D2E/DX2 analytically  !
 ! D3    D(6,1,3,8)             12.9217         calculate D2E/DX2 analytically  !
 ! D4    D(3,1,6,7)           -131.6863         calculate D2E/DX2 analytically  !
 ! D5    D(3,1,6,15)            53.5677         calculate D2E/DX2 analytically  !
 ! D6    D(17,2,7,6)            -3.5068         calculate D2E/DX2 analytically  !
 ! D7    D(17,2,7,16)          177.2568         calculate D2E/DX2 analytically  !
 ! D8    D(1,3,4,9)             -8.1514         calculate D2E/DX2 analytically  !
 ! D9    D(1,3,4,10)           112.1343         calculate D2E/DX2 analytically  !
 ! D10   D(1,3,4,11)          -129.2067         calculate D2E/DX2 analytically  !
 ! D11   D(5,3,4,9)            116.3956         calculate D2E/DX2 analytically  !
 ! D12   D(5,3,4,10)          -123.3187         calculate D2E/DX2 analytically  !
 ! D13   D(5,3,4,11)            -4.6596         calculate D2E/DX2 analytically  !
 ! D14   D(8,3,4,9)           -125.4467         calculate D2E/DX2 analytically  !
 ! D15   D(8,3,4,10)            -5.161          calculate D2E/DX2 analytically  !
 ! D16   D(8,3,4,11)           113.498          calculate D2E/DX2 analytically  !
 ! D17   D(1,3,5,12)           106.5737         calculate D2E/DX2 analytically  !
 ! D18   D(1,3,5,13)           -14.5166         calculate D2E/DX2 analytically  !
 ! D19   D(1,3,5,14)          -133.1848         calculate D2E/DX2 analytically  !
 ! D20   D(4,3,5,12)           -19.1847         calculate D2E/DX2 analytically  !
 ! D21   D(4,3,5,13)          -140.275          calculate D2E/DX2 analytically  !
 ! D22   D(4,3,5,14)           101.0567         calculate D2E/DX2 analytically  !
 ! D23   D(8,3,5,12)          -136.7859         calculate D2E/DX2 analytically  !
 ! D24   D(8,3,5,13)           102.1239         calculate D2E/DX2 analytically  !
 ! D25   D(8,3,5,14)           -16.5444         calculate D2E/DX2 analytically  !
 ! D26   D(1,6,7,2)              4.686          calculate D2E/DX2 analytically  !
 ! D27   D(1,6,7,16)          -176.1526         calculate D2E/DX2 analytically  !
 ! D28   D(15,6,7,2)           179.1641         calculate D2E/DX2 analytically  !
 ! D29   D(15,6,7,16)           -1.6745         calculate D2E/DX2 analytically  !
 --------------------------------------------------------------------------------
 Trust Radius=3.00D-01 FncErr=1.00D-07 GrdErr=1.00D-06 EigMax=2.50D+02 EigMin=1.00D-04
 Number of steps in this run=    102 maximum allowed number of steps=    102.
 GradGradGradGradGradGradGradGradGradGradGradGradGradGradGradGradGradGrad

 Leave Link  103 at Sat Sep 28 20:13:10 2019, MaxMem=   671088640 cpu:               1.3 elap:               0.7
 (Enter /shared/centos7/gaussian/g16/l202.exe)
                          Input orientation:                          
 ---------------------------------------------------------------------
 Center     Atomic      Atomic             Coordinates (Angstroms)
 Number     Number       Type             X           Y           Z
 ---------------------------------------------------------------------
      1          8           0       -0.118515    0.416552    0.223951
      2          8           0        1.108366   -1.877355   -0.825278
      3          6           0       -0.135684    1.783911   -0.128061
      4          6           0       -0.802269    2.634433    0.953275
      5          6           0       -0.739364    1.936215   -1.485428
      6          6           0        1.114230   -0.017338    0.655198
      7          6           0        1.653473   -1.107344    0.191348
      8          1           0        0.931239    2.135472   -0.194587
      9          1           0       -1.275767    2.012222    1.741225
     10          1           0       -0.060840    3.291747    1.442875
     11          1           0       -1.595844    3.307571    0.529300
     12          1           0       -1.782719    2.369439   -1.465098
     13          1           0       -0.795959    0.960921   -2.012375
     14          1           0       -0.106482    2.619003   -2.120110
     15          1           0        1.578699    0.554212    1.474548
     16          1           0        2.590628   -1.500159    0.557218
     17          1           0        0.229810   -1.459619   -1.060690
 ---------------------------------------------------------------------
                    Distance matrix (angstroms):
                    1          2          3          4          5
     1  O    0.000000
     2  O    2.805018   0.000000
     3  C    1.412047   3.929203   0.000000
     4  C    2.432783   5.212486   1.528729   0.000000
     5  C    2.369979   4.288731   1.493342   2.537467   0.000000
     6  C    1.376189   2.377290   2.328149   3.285379   3.440125
     7  C    2.337362   1.386935   3.415034   4.540055   4.219063
     8  H    2.057144   4.065947   1.125320   2.138130   2.120587
     9  H    2.487472   5.234485   2.201396   1.110050   3.271817
    10  H    3.123435   5.764649   2.178764   1.105209   3.297396
    11  H    3.260940   6.002590   2.210369   1.123668   2.583274
    12  H    3.071845   5.177162   2.200735   2.622982   1.129905
    13  H    2.399254   3.618212   2.159610   3.405256   1.109989
    14  H    3.216451   4.834220   2.160206   3.151199   1.126748
    15  H    2.112695   3.379783   2.649458   3.204381   4.005597
    16  H    3.335311   2.061716   4.322904   5.363158   5.202875
    17  H    2.300359   1.000891   3.394683   4.677875   3.556879
                    6          7          8          9         10
     6  C    0.000000
     7  C    1.301558   0.000000
     8  H    2.321683   3.344611   0.000000
     9  H    3.318230   4.551291   2.938270   0.000000
    10  H    3.598787   4.884382   2.236621   1.789482   0.000000
    11  H    4.291314   5.492153   2.878190   1.802538   1.786367
    12  H    4.310995   5.161323   3.005746   3.265748   3.503117
    13  H    3.423705   3.890223   2.768959   3.927462   4.232245
    14  H    4.017807   4.725034   2.240158   4.079867   3.626228
    15  H    1.101697   2.100705   2.388639   3.216346   3.191111
    16  H    2.094780   1.080011   4.066520   5.356089   5.547704
    17  H    2.409698   1.928345   3.763883   4.708627   5.378457
                   11         12         13         14         15
    11  H    0.000000
    12  H    2.211931   0.000000
    13  H    3.550591   1.804753   0.000000
    14  H    3.116360   1.816891   1.798950   0.000000
    15  H    4.307227   4.820343   4.238284   4.474904   0.000000
    16  H    6.375075   6.179782   4.912096   5.604461   2.466968
    17  H    5.346698   4.344595   2.795875   4.227366   3.507486
                   16         17
    16  H    0.000000
    17  H    2.862295   0.000000
 Stoichiometry    C5H10O2
 Framework group  C1[X(C5H10O2)]
 Deg. of freedom    45
 Full point group                 C1      NOp   1
 Largest Abelian subgroup         C1      NOp   1
 Largest concise Abelian subgroup C1      NOp   1
                         Standard orientation:                         
 ---------------------------------------------------------------------
 Center     Atomic      Atomic             Coordinates (Angstroms)
 Number     Number       Type             X           Y           Z
 ---------------------------------------------------------------------
      1          8           0       -0.027138   -0.167562   -0.491322
      2          8           0        2.620240    0.725161   -0.241202
      3          6           0       -1.215233    0.025514    0.246940
      4          6           0       -2.331218   -0.903632   -0.230844
      5          6           0       -1.576078    1.474511    0.230607
      6          6           0        0.926604   -0.885500    0.193394
      7          6           0        2.161862   -0.481781    0.265520
      8          1           0       -1.005341   -0.255394    1.316230
      9          1           0       -2.051950   -1.450762   -1.155436
     10          1           0       -2.571727   -1.653225    0.544883
     11          1           0       -3.282892   -0.344465   -0.441270
     12          1           0       -2.459037    1.708303   -0.434533
     13          1           0       -0.725479    2.097107   -0.117141
     14          1           0       -1.838667    1.823470    1.269277
     15          1           0        0.612198   -1.860189    0.599433
     16          1           0        2.940222   -1.057002    0.744790
     17          1           0        1.842231    1.156701   -0.699740
 ---------------------------------------------------------------------
 Rotational constants (GHZ):           5.4011141           1.4501339           1.2257520
 Leave Link  202 at Sat Sep 28 20:13:12 2019, MaxMem=   671088640 cpu:               3.8 elap:               1.9
 (Enter /shared/centos7/gaussian/g16/l301.exe)
 Standard basis: CC-pVTZ (5D, 7F)
 Ernie: Thresh=  0.10000D-02 Tol=  0.10000D-05 Strict=F.
 Ernie:  21 primitive shells out of 262 were deleted.
 There are   395 symmetry adapted cartesian basis functions of A   symmetry.
 There are   350 symmetry adapted basis functions of A   symmetry.
   350 basis functions,   534 primitive gaussians,   395 cartesian basis functions
    28 alpha electrons       28 beta electrons
       nuclear repulsion energy       313.6837429649 Hartrees.
 IExCor= 4336 DFT=T Ex+Corr=M062X ExCW=0 ScaHFX=  0.540000
 ScaDFX=  1.000000  1.000000  1.000000  1.000000 ScalE2=  1.000000  1.000000
 IRadAn=      5 IRanWt=     -1 IRanGd=            0 ICorTp=0 IEmpDi=  4
 NAtoms=   17 NActive=   17 NUniq=   17 SFac= 1.00D+00 NAtFMM=   60 NAOKFM=F Big=F
 Integral buffers will be    131072 words long.
 Raffenetti 2 integral format.
 Two-electron integral symmetry is turned on.
 Leave Link  301 at Sat Sep 28 20:13:13 2019, MaxMem=   671088640 cpu:               1.6 elap:               0.8
 (Enter /shared/centos7/gaussian/g16/l302.exe)
 NPDir=0 NMtPBC=     1 NCelOv=     1 NCel=       1 NClECP=     1 NCelD=      1
         NCelK=      1 NCelE2=     1 NClLst=     1 CellRange=     0.0.
 One-electron integrals computed using PRISM.
 One-electron integral symmetry used in STVInt
 NBasis=   350 RedAO= T EigKep=  2.44D-04  NBF=   350
 NBsUse=   350 1.00D-06 EigRej= -1.00D+00 NBFU=   350
 Precomputing XC quadrature grid using
 IXCGrd= 4 IRadAn=           5 IRanWt=          -1 IRanGd=           0 AccXCQ= 0.00D+00.
 Generated NRdTot=       0 NPtTot=           0 NUsed=           0 NTot=          32
 NSgBfM=   395   395   395   395   395 MxSgAt=    17 MxSgA2=    17.
 Leave Link  302 at Sat Sep 28 20:14:20 2019, MaxMem=   671088640 cpu:             134.7 elap:              67.4
 (Enter /shared/centos7/gaussian/g16/l303.exe)
 DipDrv:  MaxL=1.
 Leave Link  303 at Sat Sep 28 20:14:25 2019, MaxMem=   671088640 cpu:               9.9 elap:               4.9
 (Enter /shared/centos7/gaussian/g16/l401.exe)
 ExpMin= 1.03D-01 ExpMax= 1.53D+04 ExpMxC= 5.22D+02 IAcc=3 IRadAn=         5 AccDes= 0.00D+00
 Harris functional with IExCor= 1009 and IRadAn=       5 diagonalized for initial guess.
 HarFok:  IExCor= 1009 AccDes= 0.00D+00 IRadAn=         5 IDoV= 1 UseB2=F ITyADJ=14
 ICtDFT=  3500011 ScaDFX=  1.000000  1.000000  1.000000  1.000000
 FoFCou: FMM=F IPFlag=           0 FMFlag=      100000 FMFlg1=           0
         NFxFlg=           0 DoJE=T BraDBF=F KetDBF=T FulRan=T
         wScrn=  0.000000 ICntrl=       500 IOpCl=  0 I1Cent=   200000004 NGrid=           0
         NMat0=    1 NMatS0=      1 NMatT0=    0 NMatD0=    1 NMtDS0=    0 NMtDT0=    0
 Petite list used in FoFCou.
 Harris En= -346.808319492865    
 JPrj=0 DoOrth=F DoCkMO=F.
 Leave Link  401 at Sat Sep 28 20:14:53 2019, MaxMem=   671088640 cpu:              56.3 elap:              28.1
 (Enter /shared/centos7/gaussian/g16/l502.exe)
 Integral symmetry usage will be decided dynamically.
 Closed shell SCF:
 Using DIIS extrapolation, IDIIS=  1040.
 NGot=   671088640 LenX=   670765141 LenY=   670608675
 Requested convergence on RMS density matrix=1.00D-08 within 900 cycles.
 Requested convergence on MAX density matrix=1.00D-06.
 Requested convergence on             energy=1.00D-06.
 No special actions if energy rises.
 Fock matrices will be formed incrementally for  20 cycles.
 Integral accuracy reduced to 1.0D-05 until final iterations.

 Cycle   1  Pass 0  IDiag  1:
 FoFJK:  IHMeth= 1 ICntrl=       0 DoSepK=F KAlg= 0 I1Cent=           0 FoldK=F
 IRaf= 950000000 NMat=       1 IRICut=       1 DoRegI=T DoRafI=F ISym2E= 0 IDoP0=0 IntGTp=1.
 FoFCou: FMM=F IPFlag=           0 FMFlag=      100000 FMFlg1=           0
         NFxFlg=           0 DoJE=F BraDBF=F KetDBF=F FulRan=T
         wScrn=  0.000000 ICntrl=         0 IOpCl=  0 I1Cent=           0 NGrid=           0
         NMat0=    1 NMatS0=      1 NMatT0=    0 NMatD0=    1 NMtDS0=    0 NMtDT0=    0
 Symmetry not used in FoFCou.
 E= -346.699707196727    
 DIIS: error= 2.78D-02 at cycle   1 NSaved=   1.
 NSaved= 1 IEnMin= 1 EnMin= -346.699707196727     IErMin= 1 ErrMin= 2.78D-02
 ErrMax= 2.78D-02  0.00D+00 EMaxC= 1.00D-01 BMatC= 2.83D-01 BMatP= 2.83D-01
 IDIUse=3 WtCom= 7.22D-01 WtEn= 2.78D-01
 Coeff-Com:  0.100D+01
 Coeff-En:   0.100D+01
 Coeff:      0.100D+01
 Gap=     0.356 Goal=   None    Shift=    0.000
 GapD=    0.356 DampG=1.000 DampE=0.500 DampFc=0.5000 IDamp=-1.
 Damping current iteration by 5.00D-01
 RMSDP=1.87D-03 MaxDP=8.37D-02              OVMax= 1.49D-01

 Cycle   2  Pass 0  IDiag  1:
 RMSU=  9.36D-04    CP:  9.98D-01
 E= -346.818183386576     Delta-E=       -0.118476189850 Rises=F Damp=T
 DIIS: error= 4.06D-03 at cycle   2 NSaved=   2.
 NSaved= 2 IEnMin= 2 EnMin= -346.818183386576     IErMin= 2 ErrMin= 4.06D-03
 ErrMax= 4.06D-03  0.00D+00 EMaxC= 1.00D-01 BMatC= 2.10D-02 BMatP= 2.83D-01
 IDIUse=3 WtCom= 9.59D-01 WtEn= 4.06D-02
 Coeff-Com: -0.139D+00 0.114D+01
 Coeff-En:   0.000D+00 0.100D+01
 Coeff:     -0.133D+00 0.113D+01
 Gap=     0.339 Goal=   None    Shift=    0.000
 RMSDP=4.33D-04 MaxDP=1.49D-02 DE=-1.18D-01 OVMax= 7.51D-02

 Cycle   3  Pass 0  IDiag  1:
 RMSU=  4.31D-04    CP:  1.00D+00  1.02D+00
 E= -346.923723542511     Delta-E=       -0.105540155934 Rises=F Damp=F
 DIIS: error= 2.57D-03 at cycle   3 NSaved=   3.
 NSaved= 3 IEnMin= 3 EnMin= -346.923723542511     IErMin= 3 ErrMin= 2.57D-03
 ErrMax= 2.57D-03  0.00D+00 EMaxC= 1.00D-01 BMatC= 3.41D-03 BMatP= 2.10D-02
 IDIUse=3 WtCom= 9.74D-01 WtEn= 2.57D-02
 Coeff-Com: -0.821D-01 0.307D+00 0.775D+00
 Coeff-En:   0.000D+00 0.000D+00 0.100D+01
 Coeff:     -0.800D-01 0.299D+00 0.781D+00
 Gap=     0.339 Goal=   None    Shift=    0.000
 RMSDP=1.34D-04 MaxDP=5.07D-03 DE=-1.06D-01 OVMax= 1.46D-02

 Cycle   4  Pass 0  IDiag  1:
 RMSU=  1.12D-04    CP:  1.00D+00  1.08D+00  9.08D-01
 E= -346.925467515768     Delta-E=       -0.001743973257 Rises=F Damp=F
 DIIS: error= 1.59D-03 at cycle   4 NSaved=   4.
 NSaved= 4 IEnMin= 4 EnMin= -346.925467515768     IErMin= 4 ErrMin= 1.59D-03
 ErrMax= 1.59D-03  0.00D+00 EMaxC= 1.00D-01 BMatC= 1.10D-03 BMatP= 3.41D-03
 IDIUse=3 WtCom= 9.84D-01 WtEn= 1.59D-02
 Coeff-Com: -0.276D-01 0.721D-01 0.403D+00 0.552D+00
 Coeff-En:   0.000D+00 0.000D+00 0.214D+00 0.786D+00
 Coeff:     -0.272D-01 0.710D-01 0.400D+00 0.556D+00
 Gap=     0.336 Goal=   None    Shift=    0.000
 RMSDP=5.41D-05 MaxDP=2.11D-03 DE=-1.74D-03 OVMax= 7.39D-03

 Cycle   5  Pass 0  IDiag  1:
 RMSU=  2.61D-05    CP:  1.00D+00  1.08D+00  9.50D-01  6.09D-01
 E= -346.926279676270     Delta-E=       -0.000812160502 Rises=F Damp=F
 DIIS: error= 2.50D-04 at cycle   5 NSaved=   5.
 NSaved= 5 IEnMin= 5 EnMin= -346.926279676270     IErMin= 5 ErrMin= 2.50D-04
 ErrMax= 2.50D-04  0.00D+00 EMaxC= 1.00D-01 BMatC= 2.47D-05 BMatP= 1.10D-03
 IDIUse=3 WtCom= 9.97D-01 WtEn= 2.50D-03
 Coeff-Com: -0.467D-02 0.907D-02 0.100D+00 0.203D+00 0.693D+00
 Coeff-En:   0.000D+00 0.000D+00 0.000D+00 0.000D+00 0.100D+01
 Coeff:     -0.466D-02 0.904D-02 0.100D+00 0.202D+00 0.693D+00
 Gap=     0.335 Goal=   None    Shift=    0.000
 RMSDP=1.16D-05 MaxDP=2.86D-04 DE=-8.12D-04 OVMax= 1.53D-03

 Cycle   6  Pass 0  IDiag  1:
 RMSU=  8.81D-06    CP:  1.00D+00  1.08D+00  9.57D-01  6.46D-01  8.36D-01
 E= -346.926297914580     Delta-E=       -0.000018238310 Rises=F Damp=F
 DIIS: error= 5.66D-05 at cycle   6 NSaved=   6.
 NSaved= 6 IEnMin= 6 EnMin= -346.926297914580     IErMin= 6 ErrMin= 5.66D-05
 ErrMax= 5.66D-05  0.00D+00 EMaxC= 1.00D-01 BMatC= 2.24D-06 BMatP= 2.47D-05
 IDIUse=1 WtCom= 1.00D+00 WtEn= 0.00D+00
 Coeff-Com: -0.725D-04-0.106D-02 0.166D-01 0.549D-01 0.282D+00 0.647D+00
 Coeff:     -0.725D-04-0.106D-02 0.166D-01 0.549D-01 0.282D+00 0.647D+00
 Gap=     0.335 Goal=   None    Shift=    0.000
 RMSDP=3.60D-06 MaxDP=1.45D-04 DE=-1.82D-05 OVMax= 5.84D-04

 Initial convergence to 1.0D-05 achieved.  Increase integral accuracy.
 Cycle   7  Pass 1  IDiag  1:
 E= -346.926300532578     Delta-E=       -0.000002617998 Rises=F Damp=F
 DIIS: error= 2.33D-05 at cycle   1 NSaved=   1.
 NSaved= 1 IEnMin= 1 EnMin= -346.926300532578     IErMin= 1 ErrMin= 2.33D-05
 ErrMax= 2.33D-05  0.00D+00 EMaxC= 1.00D-01 BMatC= 6.23D-07 BMatP= 6.23D-07
 IDIUse=1 WtCom= 1.00D+00 WtEn= 0.00D+00
 Coeff-Com:  0.100D+01
 Coeff:      0.100D+01
 Gap=     0.335 Goal=   None    Shift=    0.000
 RMSDP=3.60D-06 MaxDP=1.45D-04 DE=-2.62D-06 OVMax= 3.96D-04

 Cycle   8  Pass 1  IDiag  1:
 RMSU=  7.00D-06    CP:  1.00D+00
 E= -346.926300636496     Delta-E=       -0.000000103918 Rises=F Damp=F
 DIIS: error= 2.70D-05 at cycle   2 NSaved=   2.
 NSaved= 2 IEnMin= 2 EnMin= -346.926300636496     IErMin= 1 ErrMin= 2.33D-05
 ErrMax= 2.70D-05  0.00D+00 EMaxC= 1.00D-01 BMatC= 4.05D-07 BMatP= 6.23D-07
 IDIUse=1 WtCom= 1.00D+00 WtEn= 0.00D+00
 Coeff-Com:  0.430D+00 0.570D+00
 Coeff:      0.430D+00 0.570D+00
 Gap=     0.335 Goal=   None    Shift=    0.000
 RMSDP=1.59D-06 MaxDP=6.00D-05 DE=-1.04D-07 OVMax= 3.14D-04

 Cycle   9  Pass 1  IDiag  1:
 RMSU=  1.55D-06    CP:  1.00D+00  9.49D-01
 E= -346.926300928798     Delta-E=       -0.000000292303 Rises=F Damp=F
 DIIS: error= 1.02D-05 at cycle   3 NSaved=   3.
 NSaved= 3 IEnMin= 3 EnMin= -346.926300928798     IErMin= 3 ErrMin= 1.02D-05
 ErrMax= 1.02D-05  0.00D+00 EMaxC= 1.00D-01 BMatC= 5.68D-08 BMatP= 4.05D-07
 IDIUse=1 WtCom= 1.00D+00 WtEn= 0.00D+00
 Coeff-Com: -0.157D-01 0.264D+00 0.752D+00
 Coeff:     -0.157D-01 0.264D+00 0.752D+00
 Gap=     0.335 Goal=   None    Shift=    0.000
 RMSDP=5.19D-07 MaxDP=1.75D-05 DE=-2.92D-07 OVMax= 8.50D-05

 Cycle  10  Pass 1  IDiag  1:
 RMSU=  2.63D-07    CP:  1.00D+00  9.88D-01  7.70D-01
 E= -346.926300975087     Delta-E=       -0.000000046288 Rises=F Damp=F
 DIIS: error= 2.06D-06 at cycle   4 NSaved=   4.
 NSaved= 4 IEnMin= 4 EnMin= -346.926300975087     IErMin= 4 ErrMin= 2.06D-06
 ErrMax= 2.06D-06  0.00D+00 EMaxC= 1.00D-01 BMatC= 1.47D-09 BMatP= 5.68D-08
 IDIUse=1 WtCom= 1.00D+00 WtEn= 0.00D+00
 Coeff-Com: -0.156D-01 0.932D-01 0.302D+00 0.621D+00
 Coeff:     -0.156D-01 0.932D-01 0.302D+00 0.621D+00
 Gap=     0.335 Goal=   None    Shift=    0.000
 RMSDP=7.82D-08 MaxDP=3.99D-06 DE=-4.63D-08 OVMax= 7.53D-06

 Cycle  11  Pass 1  IDiag  1:
 RMSU=  7.62D-08    CP:  1.00D+00  9.90D-01  7.77D-01  1.01D+00
 E= -346.926300976329     Delta-E=       -0.000000001242 Rises=F Damp=F
 DIIS: error= 4.36D-07 at cycle   5 NSaved=   5.
 NSaved= 5 IEnMin= 5 EnMin= -346.926300976329     IErMin= 5 ErrMin= 4.36D-07
 ErrMax= 4.36D-07  0.00D+00 EMaxC= 1.00D-01 BMatC= 1.15D-10 BMatP= 1.47D-09
 IDIUse=1 WtCom= 1.00D+00 WtEn= 0.00D+00
 Coeff-Com: -0.183D-02-0.138D-01-0.288D-01 0.168D+00 0.877D+00
 Coeff:     -0.183D-02-0.138D-01-0.288D-01 0.168D+00 0.877D+00
 Gap=     0.335 Goal=   None    Shift=    0.000
 RMSDP=3.72D-08 MaxDP=8.86D-07 DE=-1.24D-09 OVMax= 4.29D-06

 Cycle  12  Pass 1  IDiag  1:
 RMSU=  2.12D-08    CP:  1.00D+00  9.90D-01  7.82D-01  1.12D+00  1.04D+00
 E= -346.926300976457     Delta-E=       -0.000000000128 Rises=F Damp=F
 DIIS: error= 1.66D-07 at cycle   6 NSaved=   6.
 NSaved= 6 IEnMin= 6 EnMin= -346.926300976457     IErMin= 6 ErrMin= 1.66D-07
 ErrMax= 1.66D-07  0.00D+00 EMaxC= 1.00D-01 BMatC= 1.19D-11 BMatP= 1.15D-10
 IDIUse=1 WtCom= 1.00D+00 WtEn= 0.00D+00
 Coeff-Com:  0.955D-03-0.134D-01-0.393D-01-0.294D-02 0.298D+00 0.757D+00
 Coeff:      0.955D-03-0.134D-01-0.393D-01-0.294D-02 0.298D+00 0.757D+00
 Gap=     0.335 Goal=   None    Shift=    0.000
 RMSDP=1.32D-08 MaxDP=3.60D-07 DE=-1.28D-10 OVMax= 1.49D-06

 Cycle  13  Pass 1  IDiag  1:
 RMSU=  7.94D-09    CP:  1.00D+00  9.91D-01  7.81D-01  1.15D+00  1.10D+00
                    CP:  9.58D-01
 E= -346.926300976462     Delta-E=       -0.000000000005 Rises=F Damp=F
 DIIS: error= 4.12D-08 at cycle   7 NSaved=   7.
 NSaved= 7 IEnMin= 7 EnMin= -346.926300976462     IErMin= 7 ErrMin= 4.12D-08
 ErrMax= 4.12D-08  0.00D+00 EMaxC= 1.00D-01 BMatC= 1.38D-12 BMatP= 1.19D-11
 IDIUse=1 WtCom= 1.00D+00 WtEn= 0.00D+00
 Coeff-Com:  0.554D-03-0.485D-02-0.152D-01-0.147D-01 0.622D-01 0.305D+00
 Coeff-Com:  0.667D+00
 Coeff:      0.554D-03-0.485D-02-0.152D-01-0.147D-01 0.622D-01 0.305D+00
 Coeff:      0.667D+00
 Gap=     0.335 Goal=   None    Shift=    0.000
 RMSDP=3.05D-09 MaxDP=9.49D-08 DE=-4.77D-12 OVMax= 4.57D-07

 SCF Done:  E(RM062X) =  -346.926300976     A.U. after   13 cycles
            NFock= 13  Conv=0.31D-08     -V/T= 2.0062
 KE= 3.447731895717D+02 PE=-1.437299875160D+03 EE= 4.319166416466D+02
 Leave Link  502 at Sat Sep 28 20:24:41 2019, MaxMem=   671088640 cpu:            1175.1 elap:             587.7
 (Enter /shared/centos7/gaussian/g16/l801.exe)
 DoSCS=F DFT=T ScalE2(SS,OS)=  1.000000  1.000000
 Range of M.O.s used for correlation:     1   350
 NBasis=   350 NAE=    28 NBE=    28 NFC=     0 NFV=     0
 NROrb=    350 NOA=    28 NOB=    28 NVA=   322 NVB=   322

 **** Warning!!: The largest alpha MO coefficient is  0.13512296D+02

 Leave Link  801 at Sat Sep 28 20:24:42 2019, MaxMem=   671088640 cpu:               1.4 elap:               0.7
 (Enter /shared/centos7/gaussian/g16/l1101.exe)
 Using compressed storage, NAtomX=    17.
 Will process     18 centers per pass.
 Leave Link 1101 at Sat Sep 28 20:25:10 2019, MaxMem=   671088640 cpu:              55.7 elap:              27.9
 (Enter /shared/centos7/gaussian/g16/l1102.exe)
 Symmetrizing basis deriv contribution to polar:
 IMax=3 JMax=2 DiffMx= 0.00D+00
 Leave Link 1102 at Sat Sep 28 20:25:12 2019, MaxMem=   671088640 cpu:               4.9 elap:               2.4
 (Enter /shared/centos7/gaussian/g16/l1110.exe)
 Forming Gx(P) for the SCF density, NAtomX=    17.
 Integral derivatives from FoFJK, PRISM(SPDF).
 Do as many integral derivatives as possible in FoFJK.
 G2DrvN: MDV=     671087280.
 G2DrvN: will do    18 centers at a time, making    1 passes.
 Calling FoFCou, ICntrl=  3107 FMM=F I1Cent=   0 AccDes= 0.00D+00.
 FoFJK:  IHMeth= 1 ICntrl=    3107 DoSepK=F KAlg= 0 I1Cent=           0 FoldK=F
 IRaf=         0 NMat=       1 IRICut=       1 DoRegI=T DoRafI=F ISym2E= 0 IDoP0=0 IntGTp=1.
 FoFCou: FMM=F IPFlag=           0 FMFlag=      100000 FMFlg1=           0
         NFxFlg=           0 DoJE=F BraDBF=F KetDBF=F FulRan=T
         wScrn=  0.000000 ICntrl=      3107 IOpCl=  0 I1Cent=           0 NGrid=           0
         NMat0=    1 NMatS0=      1 NMatT0=    0 NMatD0=    1 NMtDS0=    0 NMtDT0=    0
 Symmetry not used in FoFCou.
 End of G2Drv F.D. properties file   721 does not exist.
 End of G2Drv F.D. properties file   722 does not exist.
 End of G2Drv F.D. properties file   788 does not exist.
 Leave Link 1110 at Sat Sep 28 20:42:27 2019, MaxMem=   671088640 cpu:            2070.1 elap:            1035.2
 (Enter /shared/centos7/gaussian/g16/l1002.exe)
 Minotr:  Closed shell wavefunction.
          IDoAtm=11111111111111111
          Direct CPHF calculation.
          Differentiating once with respect to nuclear coordinates.
          Requested convergence is 1.0D-08 RMS, and 1.0D-07 maximum.
          Secondary convergence is 1.0D-12 RMS, and 1.0D-12 maximum.
          NewPWx=T KeepS1=F KeepF1=F KeepIn=T MapXYZ=F SortEE=F KeepMc=T.
         5109 words used for storage of precomputed grid.
 Two-electron integrals replicated using symmetry.
          MDV=     671088640 using IRadAn=       1.
          Solving linear equations simultaneously, MaxMat=     380.
 FoF2E skips out because all densities are zero.
 CalDSu exits because no D1Ps are significant.
 FoFJK:  IHMeth= 1 ICntrl=       0 DoSepK=F KAlg= 0 I1Cent=           0 FoldK=F
 IRaf= 930000000 NMat=      51 IRICut=     127 DoRegI=T DoRafI=T ISym2E= 2 IDoP0=3 IntGTp=3.
 FoFCou: FMM=F IPFlag=           0 FMFlag=      100000 FMFlg1=           0
         NFxFlg=           0 DoJE=F BraDBF=F KetDBF=F FulRan=T
         wScrn=  0.000000 ICntrl=         0 IOpCl=  0 I1Cent=           0 NGrid=           0
         NMat0=   51 NMatS0=     51 NMatT0=    0 NMatD0=   51 NMtDS0=    0 NMtDT0=    0
 Integrals replicated using symmetry in FoFCou.
 Raff kept on since  90.22% of shell-pairs survive, threshold=   0.20 IRatSp=90.
          There are    54 degrees of freedom in the 1st order CPHF.  IDoFFX=6 NUNeed=     0.
     48 vectors produced by pass  0 Test12= 1.67D-14 1.85D-09 XBig12= 6.64D-02 6.04D-02.
 AX will form    48 AO Fock derivatives at one time.
     48 vectors produced by pass  1 Test12= 1.67D-14 1.85D-09 XBig12= 1.24D-02 2.25D-02.
     48 vectors produced by pass  2 Test12= 1.67D-14 1.85D-09 XBig12= 4.73D-04 3.56D-03.
     48 vectors produced by pass  3 Test12= 1.67D-14 1.85D-09 XBig12= 5.99D-06 2.42D-04.
     48 vectors produced by pass  4 Test12= 1.67D-14 1.85D-09 XBig12= 4.70D-08 2.60D-05.
     48 vectors produced by pass  5 Test12= 1.67D-14 1.85D-09 XBig12= 1.96D-10 1.55D-06.
     25 vectors produced by pass  6 Test12= 1.67D-14 1.85D-09 XBig12= 8.03D-13 1.08D-07.
      5 vectors produced by pass  7 Test12= 1.67D-14 1.85D-09 XBig12= 3.21D-15 5.31D-09.
 InvSVY:  IOpt=1 It=  1 EMax= 2.50D-16
 Solved reduced A of dimension   318 with    54 vectors.
 End of Minotr F.D. properties file   721 does not exist.
 End of Minotr F.D. properties file   722 does not exist.
 End of Minotr F.D. properties file   788 does not exist.
 Leave Link 1002 at Sat Sep 28 21:11:48 2019, MaxMem=   671088640 cpu:            3522.0 elap:            1761.2
 (Enter /shared/centos7/gaussian/g16/l601.exe)
 Copying SCF densities to generalized density rwf, IOpCl= 0 IROHF=0.

 **********************************************************************

            Population analysis using the SCF density.

 **********************************************************************

 Orbital symmetries:
       Occupied  (A) (A) (A) (A) (A) (A) (A) (A) (A) (A) (A) (A)
                 (A) (A) (A) (A) (A) (A) (A) (A) (A) (A) (A) (A)
                 (A) (A) (A) (A)
       Virtual   (A) (A) (A) (A) (A) (A) (A) (A) (A) (A) (A) (A)
                 (A) (A) (A) (A) (A) (A) (A) (A) (A) (A) (A) (A)
                 (A) (A) (A) (A) (A) (A) (A) (A) (A) (A) (A) (A)
                 (A) (A) (A) (A) (A) (A) (A) (A) (A) (A) (A) (A)
                 (A) (A) (A) (A) (A) (A) (A) (A) (A) (A) (A) (A)
                 (A) (A) (A) (A) (A) (A) (A) (A) (A) (A) (A) (A)
                 (A) (A) (A) (A) (A) (A) (A) (A) (A) (A) (A) (A)
                 (A) (A) (A) (A) (A) (A) (A) (A) (A) (A) (A) (A)
                 (A) (A) (A) (A) (A) (A) (A) (A) (A) (A) (A) (A)
                 (A) (A) (A) (A) (A) (A) (A) (A) (A) (A) (A) (A)
                 (A) (A) (A) (A) (A) (A) (A) (A) (A) (A) (A) (A)
                 (A) (A) (A) (A) (A) (A) (A) (A) (A) (A) (A) (A)
                 (A) (A) (A) (A) (A) (A) (A) (A) (A) (A) (A) (A)
                 (A) (A) (A) (A) (A) (A) (A) (A) (A) (A) (A) (A)
                 (A) (A) (A) (A) (A) (A) (A) (A) (A) (A) (A) (A)
                 (A) (A) (A) (A) (A) (A) (A) (A) (A) (A) (A) (A)
                 (A) (A) (A) (A) (A) (A) (A) (A) (A) (A) (A) (A)
                 (A) (A) (A) (A) (A) (A) (A) (A) (A) (A) (A) (A)
                 (A) (A) (A) (A) (A) (A) (A) (A) (A) (A) (A) (A)
                 (A) (A) (A) (A) (A) (A) (A) (A) (A) (A) (A) (A)
                 (A) (A) (A) (A) (A) (A) (A) (A) (A) (A) (A) (A)
                 (A) (A) (A) (A) (A) (A) (A) (A) (A) (A) (A) (A)
                 (A) (A) (A) (A) (A) (A) (A) (A) (A) (A) (A) (A)
                 (A) (A) (A) (A) (A) (A) (A) (A) (A) (A) (A) (A)
                 (A) (A) (A) (A) (A) (A) (A) (A) (A) (A) (A) (A)
                 (A) (A) (A) (A) (A) (A) (A) (A) (A) (A) (A) (A)
                 (A) (A) (A) (A) (A) (A) (A) (A) (A) (A)
 The electronic state is 1-A.
 Alpha  occ. eigenvalues --  -19.64529 -19.64260 -10.60081 -10.58398 -10.57664
 Alpha  occ. eigenvalues --  -10.53884 -10.53685  -1.19069  -1.15258  -0.89924
 Alpha  occ. eigenvalues --   -0.83552  -0.78642  -0.69893  -0.66199  -0.60739
 Alpha  occ. eigenvalues --   -0.58917  -0.53675  -0.51359  -0.50146  -0.47508
 Alpha  occ. eigenvalues --   -0.46065  -0.45366  -0.44915  -0.43978  -0.41581
 Alpha  occ. eigenvalues --   -0.38458  -0.36650  -0.27903
 Alpha virt. eigenvalues --    0.05614   0.07290   0.08020   0.09949   0.10162
 Alpha virt. eigenvalues --    0.11011   0.11975   0.14099   0.15192   0.16018
 Alpha virt. eigenvalues --    0.16852   0.20415   0.21276   0.23026   0.24241
 Alpha virt. eigenvalues --    0.27129   0.29525   0.30696   0.31840   0.33530
 Alpha virt. eigenvalues --    0.34217   0.35569   0.36770   0.38682   0.40132
 Alpha virt. eigenvalues --    0.42135   0.42674   0.43930   0.44507   0.45638
 Alpha virt. eigenvalues --    0.46685   0.47954   0.48611   0.48911   0.49176
 Alpha virt. eigenvalues --    0.50799   0.51998   0.52343   0.53147   0.54046
 Alpha virt. eigenvalues --    0.55398   0.56865   0.57500   0.59108   0.60764
 Alpha virt. eigenvalues --    0.61961   0.64477   0.66727   0.70687   0.72860
 Alpha virt. eigenvalues --    0.74453   0.77035   0.77812   0.79795   0.80959
 Alpha virt. eigenvalues --    0.84929   0.86530   0.87503   0.87611   0.89638
 Alpha virt. eigenvalues --    0.90996   0.93351   0.95499   0.98962   0.99665
 Alpha virt. eigenvalues --    1.01120   1.02332   1.03023   1.04216   1.06234
 Alpha virt. eigenvalues --    1.06773   1.07800   1.10093   1.10968   1.11832
 Alpha virt. eigenvalues --    1.14688   1.14781   1.17266   1.19112   1.20775
 Alpha virt. eigenvalues --    1.22066   1.22626   1.24868   1.24994   1.25868
 Alpha virt. eigenvalues --    1.26646   1.29808   1.31445   1.31667   1.33946
 Alpha virt. eigenvalues --    1.34723   1.35646   1.36954   1.37894   1.38908
 Alpha virt. eigenvalues --    1.41975   1.43303   1.46721   1.48746   1.51353
 Alpha virt. eigenvalues --    1.51543   1.53371   1.54085   1.55266   1.57580
 Alpha virt. eigenvalues --    1.59998   1.61684   1.69164   1.71127   1.85602
 Alpha virt. eigenvalues --    1.88207   1.95783   2.00382   2.02268   2.04376
 Alpha virt. eigenvalues --    2.07129   2.09824   2.12934   2.14981   2.19300
 Alpha virt. eigenvalues --    2.20301   2.24717   2.26519   2.28377   2.32684
 Alpha virt. eigenvalues --    2.35241   2.35931   2.37413   2.39286   2.43158
 Alpha virt. eigenvalues --    2.47585   2.48333   2.49741   2.55436   2.56631
 Alpha virt. eigenvalues --    2.59521   2.60203   2.64192   2.65525   2.66593
 Alpha virt. eigenvalues --    2.71259   2.72212   2.74615   2.77914   2.79179
 Alpha virt. eigenvalues --    2.80069   2.80909   2.81371   2.83839   2.85281
 Alpha virt. eigenvalues --    2.86555   2.88352   2.90498   2.90837   2.93963
 Alpha virt. eigenvalues --    2.94883   2.96887   2.98150   2.99739   3.00367
 Alpha virt. eigenvalues --    3.01186   3.01765   3.04219   3.05964   3.06976
 Alpha virt. eigenvalues --    3.08111   3.08402   3.10348   3.11477   3.13392
 Alpha virt. eigenvalues --    3.14390   3.16951   3.17469   3.20090   3.20908
 Alpha virt. eigenvalues --    3.23467   3.26288   3.27876   3.28321   3.29883
 Alpha virt. eigenvalues --    3.30626   3.31018   3.31862   3.34014   3.34937
 Alpha virt. eigenvalues --    3.36434   3.36985   3.39291   3.39705   3.42547
 Alpha virt. eigenvalues --    3.43432   3.45272   3.45916   3.46789   3.52643
 Alpha virt. eigenvalues --    3.54420   3.56359   3.57854   3.59365   3.60276
 Alpha virt. eigenvalues --    3.63075   3.65796   3.67116   3.68938   3.69066
 Alpha virt. eigenvalues --    3.71388   3.72993   3.73954   3.75271   3.76824
 Alpha virt. eigenvalues --    3.79574   3.79985   3.81163   3.82021   3.82502
 Alpha virt. eigenvalues --    3.84769   3.87181   3.90057   3.90791   3.92824
 Alpha virt. eigenvalues --    3.94140   3.95509   3.97746   3.98207   4.00079
 Alpha virt. eigenvalues --    4.01342   4.03784   4.04472   4.06057   4.07668
 Alpha virt. eigenvalues --    4.09096   4.09962   4.11680   4.11867   4.16482
 Alpha virt. eigenvalues --    4.19138   4.19168   4.21930   4.24521   4.26063
 Alpha virt. eigenvalues --    4.28434   4.31484   4.33583   4.36975   4.40127
 Alpha virt. eigenvalues --    4.42730   4.45019   4.46628   4.49300   4.54122
 Alpha virt. eigenvalues --    4.55827   4.60392   4.63005   4.66769   4.68303
 Alpha virt. eigenvalues --    4.70709   4.72615   4.74034   4.75194   4.81386
 Alpha virt. eigenvalues --    4.83919   4.84634   4.88715   4.91616   4.92330
 Alpha virt. eigenvalues --    4.94167   4.94573   4.96638   4.99643   5.01822
 Alpha virt. eigenvalues --    5.04998   5.06581   5.07289   5.09760   5.13556
 Alpha virt. eigenvalues --    5.17807   5.21470   5.22215   5.25531   5.27151
 Alpha virt. eigenvalues --    5.27995   5.29636   5.36635   5.39661   5.43347
 Alpha virt. eigenvalues --    5.50949   5.53715   5.59294   5.66264   5.72590
 Alpha virt. eigenvalues --    5.74129   5.77329   5.79487   5.80266   5.83718
 Alpha virt. eigenvalues --    5.88066   6.01235   6.13490   6.19464   6.32542
 Alpha virt. eigenvalues --    6.36168   6.40971   6.53598   6.59414   6.70247
 Alpha virt. eigenvalues --    6.74081   6.76172   6.78107   6.82818   7.01754
 Alpha virt. eigenvalues --    7.09634   7.13237   7.26914   7.32512   7.36978
 Alpha virt. eigenvalues --   10.04900  10.62243  11.49095  11.92851  12.98434
 Alpha virt. eigenvalues --   13.37928  14.27790
          Condensed to atoms (all electrons):
               1          2          3          4          5          6
     1  O    7.955769  -0.004439   0.260609  -0.045745  -0.043070   0.322200
     2  O   -0.004439   7.790492   0.001720  -0.000020  -0.000685  -0.082773
     3  C    0.260609   0.001720   4.970465   0.316057   0.311587  -0.098466
     4  C   -0.045745  -0.000020   0.316057   5.034411  -0.051475  -0.009503
     5  C   -0.043070  -0.000685   0.311587  -0.051475   4.966351   0.010680
     6  C    0.322200  -0.082773  -0.098466  -0.009503   0.010680   5.040252
     7  C   -0.075351   0.364070  -0.007836  -0.000933   0.001241   0.566975
     8  H   -0.055482  -0.000260   0.396746  -0.077407  -0.043294   0.016246
     9  H    0.003444  -0.000002  -0.036860   0.378129   0.003387   0.001250
    10  H    0.003212   0.000001  -0.039221   0.395789   0.007237  -0.000057
    11  H    0.003676  -0.000000  -0.040509   0.402344  -0.012285   0.000118
    12  H    0.002426   0.000012  -0.049672  -0.010771   0.407764  -0.000653
    13  H    0.000922   0.001299  -0.043787   0.008371   0.391784  -0.001907
    14  H    0.004374  -0.000002  -0.042713   0.005088   0.401287  -0.000416
    15  H   -0.053054   0.004990   0.010542   0.000433   0.000067   0.386142
    16  H    0.003807  -0.034195  -0.000054   0.000065   0.000004  -0.072691
    17  H    0.017812   0.331618  -0.001517   0.000096  -0.000454  -0.016993
               7          8          9         10         11         12
     1  O   -0.075351  -0.055482   0.003444   0.003212   0.003676   0.002426
     2  O    0.364070  -0.000260  -0.000002   0.000001  -0.000000   0.000012
     3  C   -0.007836   0.396746  -0.036860  -0.039221  -0.040509  -0.049672
     4  C   -0.000933  -0.077407   0.378129   0.395789   0.402344  -0.010771
     5  C    0.001241  -0.043294   0.003387   0.007237  -0.012285   0.407764
     6  C    0.566975   0.016246   0.001250  -0.000057   0.000118  -0.000653
     7  C    4.834276   0.000512  -0.000251   0.000082   0.000075  -0.000114
     8  H    0.000512   0.663254   0.009035  -0.012655   0.005781   0.006499
     9  H   -0.000251   0.009035   0.566260  -0.030660  -0.026060   0.001358
    10  H    0.000082  -0.012655  -0.030660   0.596212  -0.034035   0.000312
    11  H    0.000075   0.005781  -0.026060  -0.034035   0.591379   0.000096
    12  H   -0.000114   0.006499   0.001358   0.000312   0.000096   0.599760
    13  H   -0.001179   0.001372  -0.000472  -0.000517   0.000666  -0.028263
    14  H   -0.000184  -0.012774  -0.000264  -0.000359  -0.000421  -0.034550
    15  H   -0.064103  -0.000808   0.000017  -0.000325  -0.000296   0.000052
    16  H    0.422804  -0.000570  -0.000014  -0.000005  -0.000001  -0.000001
    17  H   -0.044462   0.000473   0.000043  -0.000015  -0.000015   0.000043
              13         14         15         16         17
     1  O    0.000922   0.004374  -0.053054   0.003807   0.017812
     2  O    0.001299  -0.000002   0.004990  -0.034195   0.331618
     3  C   -0.043787  -0.042713   0.010542  -0.000054  -0.001517
     4  C    0.008371   0.005088   0.000433   0.000065   0.000096
     5  C    0.391784   0.401287   0.000067   0.000004  -0.000454
     6  C   -0.001907  -0.000416   0.386142  -0.072691  -0.016993
     7  C   -0.001179  -0.000184  -0.064103   0.422804  -0.044462
     8  H    0.001372  -0.012774  -0.000808  -0.000570   0.000473
     9  H   -0.000472  -0.000264   0.000017  -0.000014   0.000043
    10  H   -0.000517  -0.000359  -0.000325  -0.000005  -0.000015
    11  H    0.000666  -0.000421  -0.000296  -0.000001  -0.000015
    12  H   -0.028263  -0.034550   0.000052  -0.000001   0.000043
    13  H    0.580697  -0.026604   0.000347   0.000031   0.002331
    14  H   -0.026604   0.596289   0.000183  -0.000005   0.000011
    15  H    0.000347   0.000183   0.604108  -0.004015   0.001106
    16  H    0.000031  -0.000005  -0.004015   0.529055   0.006246
    17  H    0.002331   0.000011   0.001106   0.006246   0.427869
 Mulliken charges:
               1
     1  O   -0.301110
     2  O   -0.371827
     3  C    0.092908
     4  C   -0.344931
     5  C   -0.350126
     6  C   -0.060405
     7  C    0.004377
     8  H    0.103330
     9  H    0.131661
    10  H    0.115003
    11  H    0.109487
    12  H    0.105702
    13  H    0.114909
    14  H    0.111061
    15  H    0.114614
    16  H    0.149540
    17  H    0.275808
 Sum of Mulliken charges =  -0.00000
 Mulliken charges with hydrogens summed into heavy atoms:
               1
     1  O   -0.301110
     2  O   -0.096019
     3  C    0.196238
     4  C    0.011219
     5  C   -0.018454
     6  C    0.054208
     7  C    0.153917
 APT charges:
               1
     1  O   -0.208377
     2  O   -0.171165
     3  C    0.017805
     4  C   -1.246387
     5  C   -1.206692
     6  C   -0.478065
     7  C   -0.395019
     8  H    0.282752
     9  H    0.306864
    10  H    0.391031
    11  H    0.481523
    12  H    0.455899
    13  H    0.230654
    14  H    0.399244
    15  H    0.345307
    16  H    0.588505
    17  H    0.206122
 Sum of APT charges =  -0.00000
 APT charges with hydrogens summed into heavy atoms:
               1
     1  O   -0.208377
     2  O    0.034957
     3  C    0.300557
     4  C   -0.066969
     5  C   -0.120895
     6  C   -0.132758
     7  C    0.193487
 Electronic spatial extent (au):  <R**2>=            993.0283
 Charge=             -0.0000 electrons
 Dipole moment (field-independent basis, Debye):
    X=             -1.9879    Y=             -0.4717    Z=              0.8829  Tot=              2.2257
 Quadrupole moment (field-independent basis, Debye-Ang):
   XX=            -46.7627   YY=            -41.8788   ZZ=            -44.4978
   XY=             -2.5799   XZ=              0.5833   YZ=             -2.2048
 Traceless Quadrupole moment (field-independent basis, Debye-Ang):
   XX=             -2.3829   YY=              2.5009   ZZ=             -0.1180
   XY=             -2.5799   XZ=              0.5833   YZ=             -2.2048
 Octapole moment (field-independent basis, Debye-Ang**2):
  XXX=             -6.5041  YYY=              2.4708  ZZZ=             -3.0658  XYY=              4.4498
  XXY=             -8.9509  XXZ=              3.2452  XZZ=              2.4909  YZZ=              1.6876
  YYZ=             -0.9029  XYZ=             -3.6683
 Hexadecapole moment (field-independent basis, Debye-Ang**3):
 XXXX=           -977.5767 YYYY=           -284.4193 ZZZZ=            -94.3197 XXXY=            -34.5570
 XXXZ=             20.8783 YYYX=             12.2658 YYYZ=             -8.5520 ZZZX=             -6.7172
 ZZZY=             -0.1142 XXYY=           -205.5664 XXZZ=           -169.8918 YYZZ=            -59.9964
 XXYZ=             -9.8432 YYXZ=             -1.6725 ZZXY=              4.1197
 N-N= 3.136837429649D+02 E-N=-1.437299865850D+03  KE= 3.447731895717D+02
  Exact polarizability:   0.000   0.000   0.000   0.000   0.000   0.000
 Approx polarizability:  92.021   3.804  75.844   1.606  -4.470  69.991
 No NMR shielding tensors so no spin-rotation constants.
 Leave Link  601 at Sat Sep 28 21:12:22 2019, MaxMem=   671088640 cpu:              66.9 elap:              33.5
 (Enter /shared/centos7/gaussian/g16/l701.exe)
 SCFChk:  SCF convergence  3.05D-09 required  1.00D-08
 ... and contract with generalized density number  0.
 Compute integral second derivatives.
 Entering OneElI...
 Calculate overlap and kinetic energy integrals
    NBasis = 395  MinDer = 2  MaxDer = 2
 Requested accuracy = 0.1000D-12
 PrmmSu-InSpLW:  IPartL=    0 NPrtUS=   20 NPrtUL=    1 DoSpLW=F IThBeg=    0 IThEnd=   19 NThAct=   20.
 PrsmSu:  NPrtUS=  20 ThrOK=T IAlg=1 NPAlg=1 LenDen=           0 ISkipM=0 DoSpLW=F IThBeg=    0 IThEnd=   19.
 Prism:   IPart=     0 DynPar=F LinDyn=F Incr=           4.
 PRISM was handed    33314142 working-precision words and  8419 shell-pairs
 PRISM was handed    33314142 working-precision words and  8419 shell-pairs
 PRISM was handed    33314142 working-precision words and  8419 shell-pairs
 PRISM was handed    33314142 working-precision words and  8419 shell-pairs
 PRISM was handed    33314142 working-precision words and  8419 shell-pairs
 PRISM was handed    33314142 working-precision words and  8419 shell-pairs
 PRISM was handed    33314142 working-precision words and  8419 shell-pairs
 PRISM was handed    33314142 working-precision words and  8419 shell-pairs
 PRISM was handed    33314142 working-precision words and  8419 shell-pairs
 PRISM was handed    33314142 working-precision words and  8419 shell-pairs
 PRISM was handed    33314142 working-precision words and  8419 shell-pairs
 IPart=  0 NShTot=         466 NBatch=          82 AvBLen=         5.7
 IPart=  2 NShTot=         455 NBatch=          75 AvBLen=         6.1
 PRISM was handed    33314142 working-precision words and  8419 shell-pairs
 PRISM was handed    33314142 working-precision words and  8419 shell-pairs
 IPart= 11 NShTot=         411 NBatch=          47 AvBLen=         8.7
 PRISM was handed    33314142 working-precision words and  8419 shell-pairs
 PRISM was handed    33314142 working-precision words and  8419 shell-pairs
 PRISM was handed    33314142 working-precision words and  8419 shell-pairs
 PRISM was handed    33314142 working-precision words and  8419 shell-pairs
 IPart=  1 NShTot=         461 NBatch=          80 AvBLen=         5.8
 PRISM was handed    33314142 working-precision words and  8419 shell-pairs
 PRISM was handed    33314142 working-precision words and  8419 shell-pairs
 PRISM was handed    33314142 working-precision words and  8419 shell-pairs
 IPart= 12 NShTot=         408 NBatch=          44 AvBLen=         9.3
 IPart=  9 NShTot=         415 NBatch=          50 AvBLen=         8.3
 IPart= 17 NShTot=         396 NBatch=          37 AvBLen=        10.7
 IPart=  6 NShTot=         433 NBatch=          61 AvBLen=         7.1
 IPart=  7 NShTot=         419 NBatch=          52 AvBLen=         8.1
 IPart=  8 NShTot=         416 NBatch=          50 AvBLen=         8.3
 IPart=  5 NShTot=         435 NBatch=          62 AvBLen=         7.0
 IPart= 18 NShTot=         396 NBatch=          37 AvBLen=        10.7
 IPart= 10 NShTot=         414 NBatch=          49 AvBLen=         8.4
 IPart=  4 NShTot=         441 NBatch=          66 AvBLen=         6.7
 IPart= 16 NShTot=         400 NBatch=          39 AvBLen=        10.3
 IPart= 19 NShTot=         395 NBatch=          37 AvBLen=        10.7
 IPart= 14 NShTot=         403 NBatch=          41 AvBLen=         9.8
 IPart= 13 NShTot=         404 NBatch=          41 AvBLen=         9.9
 IPart= 15 NShTot=         403 NBatch=          41 AvBLen=         9.8
 IPart=  3 NShTot=         448 NBatch=          70 AvBLen=         6.4
 PrSmSu:  NxtVal=             81.
 Entering OneElI...
 Calculate potential energy integrals
    NBasis = 395  MinDer = 2  MaxDer = 2
 Requested accuracy = 0.1000D-12
 PrmmSu-InSpLW:  IPartL=    0 NPrtUS=   20 NPrtUL=    1 DoSpLW=F IThBeg=    0 IThEnd=   19 NThAct=   20.
 PrsmSu:  NPrtUS=  20 ThrOK=T IAlg=1 NPAlg=1 LenDen=           0 ISkipM=0 DoSpLW=F IThBeg=    0 IThEnd=   19.
 Prism:   IPart=     0 DynPar=F LinDyn=F Incr=          64.
 PRISM was handed    33358953 working-precision words and  7624 shell-pairs
 PRISM was handed    33358953 working-precision words and  7624 shell-pairs
 PRISM was handed    33358953 working-precision words and  7624 shell-pairs
 PRISM was handed    33358953 working-precision words and  7624 shell-pairs
 PRISM was handed    33358953 working-precision words and  7624 shell-pairs
 PRISM was handed    33358953 working-precision words and  7624 shell-pairs
 PRISM was handed    33358953 working-precision words and  7624 shell-pairs
 PRISM was handed    33358953 working-precision words and  7624 shell-pairs
 PRISM was handed    33358953 working-precision words and  7624 shell-pairs
 PRISM was handed    33358953 working-precision words and  7624 shell-pairs
 PRISM was handed    33358953 working-precision words and  7624 shell-pairs
 PRISM was handed    33358953 working-precision words and  7624 shell-pairs
 PRISM was handed    33358953 working-precision words and  7624 shell-pairs
 PRISM was handed    33358953 working-precision words and  7624 shell-pairs
 PRISM was handed    33358953 working-precision words and  7624 shell-pairs
 PRISM was handed    33358953 working-precision words and  7624 shell-pairs
 PRISM was handed    33358953 working-precision words and  7624 shell-pairs
 PRISM was handed    33358953 working-precision words and  7624 shell-pairs
 PRISM was handed    33358953 working-precision words and  7624 shell-pairs
 PRISM was handed    33358953 working-precision words and  7624 shell-pairs
 IPart=  0 NShTot=        7157 NBatch=         421 AvBLen=        17.0
 IPart= 18 NShTot=        6103 NBatch=         359 AvBLen=        17.0
 IPart=  2 NShTot=        6919 NBatch=         407 AvBLen=        17.0
 IPart=  9 NShTot=        6443 NBatch=         379 AvBLen=        17.0
 IPart= 10 NShTot=        6375 NBatch=         375 AvBLen=        17.0
 IPart= 11 NShTot=        6324 NBatch=         372 AvBLen=        17.0
 IPart=  7 NShTot=        6562 NBatch=         386 AvBLen=        17.0
 IPart= 19 NShTot=        6035 NBatch=         355 AvBLen=        17.0
 IPart= 17 NShTot=        6120 NBatch=         360 AvBLen=        17.0
 IPart= 13 NShTot=        6222 NBatch=         366 AvBLen=        17.0
 IPart= 16 NShTot=        6137 NBatch=         361 AvBLen=        17.0
 IPart= 14 NShTot=        6188 NBatch=         364 AvBLen=        17.0
 IPart=  8 NShTot=        6528 NBatch=         384 AvBLen=        17.0
 IPart=  1 NShTot=        7021 NBatch=         413 AvBLen=        17.0
 IPart= 15 NShTot=        6171 NBatch=         363 AvBLen=        17.0
 IPart=  4 NShTot=        6783 NBatch=         399 AvBLen=        17.0
 IPart=  5 NShTot=        6732 NBatch=         396 AvBLen=        17.0
 IPart=  3 NShTot=        6851 NBatch=         403 AvBLen=        17.0
 IPart= 12 NShTot=        6222 NBatch=         366 AvBLen=        17.0
 IPart=  6 NShTot=        6715 NBatch=         395 AvBLen=        17.0
 PrSmSu:  NxtVal=           1281.
 Polarizability after L701:
                1             2             3 
      1  0.000000D+00
      2  0.000000D+00  0.000000D+00
      3  0.000000D+00  0.000000D+00  0.000000D+00
 Dipole Derivatives after L701:
                 1             2             3             4             5 
      1  -0.239463D+00  0.430290D-01 -0.584510D-02  0.670433D+00  0.132750D+00
      2   0.725806D-01 -0.256121D+00 -0.258766D-01  0.564013D+00 -0.580793D+00
      3   0.538192D-01 -0.695018D-01 -0.129548D+00 -0.297421D+00  0.188119D+00
                 6             7             8             9            10 
      1   0.251621D+00  0.255777D+00 -0.137093D+00  0.623141D+00 -0.177903D+01
      2   0.259141D+00  0.293242D-01  0.297357D+00  0.112094D+00 -0.249191D+00
      3  -0.603136D+00  0.729899D-01  0.108986D+00 -0.499719D+00  0.101185D-01
                11            12            13            14            15 
      1  -0.691770D+00 -0.347797D+00 -0.113269D+01  0.883860D+00 -0.112344D-01
      2  -0.109600D+01 -0.652931D-01  0.161564D+00 -0.150277D+01 -0.192872D-01
      3   0.458225D-01 -0.864124D+00  0.335979D-01 -0.168071D+00 -0.984612D+00
                16            17            18            19            20 
      1  -0.632113D+00 -0.758099D-01 -0.285967D+00 -0.665141D+00  0.281165D+00
      2   0.746611D-01 -0.547569D+00  0.395741D+00 -0.131296D+00 -0.483750D+00
      3  -0.240180D+00  0.350691D+00 -0.254513D+00 -0.134326D+00  0.172211D+00
                21            22            23            24            25 
      1  -0.416708D+00  0.122113D+00  0.920718D-01 -0.324869D+00 -0.146631D-01
      2   0.217913D+00 -0.702734D-03  0.179111D+00 -0.693038D-01 -0.112211D+00
      3  -0.361650D-01  0.122479D-01 -0.105861D+00  0.547030D+00 -0.107118D+00
                26            27            28            29            30 
      1   0.403828D+00  0.560415D+00  0.323110D+00  0.621536D+00 -0.607087D+00
      2   0.413234D+00  0.461771D+00  0.150709D+00  0.528424D+00 -0.452070D+00
      3   0.276759D+00  0.522021D+00 -0.376745D-01 -0.183964D+00  0.321559D+00
                31            32            33            34            35 
      1   0.122223D+01 -0.595578D+00  0.250937D+00  0.879202D+00 -0.214589D+00
      2   0.733421D-01  0.105304D+00  0.160384D-01 -0.505156D+00  0.267000D+00
      3   0.154473D+00 -0.850136D-01  0.117034D+00  0.183250D+00 -0.308789D-01
                36            37            38            39            40 
      1   0.536319D+00 -0.215123D-01 -0.131535D+00  0.555544D-01  0.240158D+00
      2  -0.327625D+00  0.576818D+00  0.596158D+00 -0.262953D+00 -0.157639D+00
      3   0.221495D+00 -0.590467D-01 -0.421266D-01  0.117315D+00 -0.112939D+00
                41            42            43            44            45 
      1  -0.241153D+00 -0.630073D+00  0.971223D-01 -0.174852D+00  0.133729D+00
      2   0.329465D+00  0.612408D+00  0.199842D+00  0.760494D+00 -0.326826D+00
      3   0.156711D+00  0.628110D+00 -0.231835D-01 -0.227782D+00  0.178304D+00
                46            47            48            49            50 
      1   0.110603D+01 -0.676045D+00  0.637242D+00 -0.431550D+00  0.480186D+00
      2  -0.324995D+00  0.395592D+00 -0.256380D+00 -0.421665D+00  0.594867D+00
      3   0.235882D+00 -0.202502D+00  0.263899D+00  0.255511D+00 -0.183597D+00
                51 
      1  -0.419377D+00
      2  -0.269492D+00
      3   0.455050D+00
 Hessian after L701:
                1             2             3             4             5 
      1  0.452826D+01
      2  0.404885D+01  0.151532D+02
      3  0.973873D-01  0.113875D+01  0.150346D+02
      4  0.738805D+00  0.385218D+00  0.172169D+00  0.906668D+01
      5  0.303790D+00 -0.326432D+00  0.246883D-01 -0.122837D+01  0.723520D+01
      6  0.238253D+00  0.533835D-01 -0.422097D+00 -0.911667D+00  0.421506D+01
      7 -0.213475D+01 -0.128412D+01 -0.336337D+01  0.290793D+00  0.887038D-01
      8 -0.129562D+01 -0.809887D+01  0.405965D+00  0.887103D-01 -0.108882D+00
      9 -0.321381D+01  0.361433D+00 -0.698590D+01 -0.116808D-01 -0.372719D-02
     10  0.345809D+00  0.407142D+00  0.235179D+00  0.869816D-01  0.420907D-01
     11  0.350456D+00 -0.746131D-01  0.812341D-01  0.388111D-01 -0.468965D-01
     12  0.114286D+00  0.237121D-01 -0.224784D+00 -0.144500D-01 -0.941679D-03
     13 -0.736204D-01 -0.302666D+00 -0.134465D+00  0.203223D+00 -0.663367D-01
     14 -0.231834D+00  0.230999D+00  0.177392D+00  0.235632D-02 -0.103288D+00
     15 -0.147424D+00  0.223838D+00 -0.174707D+00 -0.477876D-01  0.132009D-01
     16 -0.426433D+01 -0.382853D+01  0.324368D+01  0.485848D+00  0.120585D+00
     17 -0.392969D+01 -0.705915D+01 -0.240074D+01  0.390068D-01 -0.125603D+00
     18  0.311234D+01 -0.227849D+01 -0.707198D+01 -0.145129D+00  0.238175D+00
     19  0.321036D+00  0.272693D+00 -0.212265D+00 -0.790305D+01  0.243950D+01
     20  0.373333D+00 -0.126293D+00  0.279167D+00  0.274645D+01 -0.150308D+01
     21 -0.225966D+00  0.260146D+00  0.912265D-02 -0.105789D+01 -0.319881D+01
     22 -0.565347D-01 -0.469206D-01  0.306223D+00  0.210793D-01  0.634981D-02
     23 -0.383460D-01  0.250583D+00  0.175197D-01  0.169868D-01 -0.131336D-01
     24  0.321656D+00  0.426079D-01  0.250785D+00 -0.470462D-01 -0.724416D-02
     25  0.494260D-01  0.693453D-01 -0.405240D-01  0.104618D-01  0.721877D-02
     26  0.110343D+00 -0.115085D-01 -0.119305D-01  0.221338D-01 -0.703198D-03
     27  0.259818D-01  0.213449D-01 -0.868908D-01  0.199350D-01  0.684283D-02
     28  0.664662D-01  0.702628D-01 -0.570454D-01  0.137428D-01  0.750378D-02
     29  0.815154D-01  0.125318D-02 -0.425420D-01  0.181249D-01  0.973638D-04
     30 -0.663002D-01 -0.445415D-01 -0.983874D-02 -0.133085D-01 -0.430357D-02
     31  0.157000D+00 -0.116018D-01 -0.834645D-02  0.270582D-01  0.258932D-02
     32 -0.222696D-01 -0.454492D-01  0.552202D-04 -0.431798D-02 -0.473995D-02
     33  0.470652D-02  0.589531D-03 -0.478050D-01  0.386043D-02  0.303992D-03
     34  0.981658D-01 -0.919717D-01  0.509073D-02  0.366575D-01 -0.849251D-02
     35 -0.849274D-01  0.621966D-02 -0.166530D-02 -0.109837D-01 -0.529037D-02
     36  0.212981D-01 -0.138874D-01 -0.472689D-01  0.115962D-01 -0.194197D-02
     37 -0.592940D-01  0.154110D-01 -0.334361D-02  0.298016D-01 -0.196865D-01
     38 -0.632722D-01  0.110014D-01  0.223324D-01 -0.631943D-01 -0.602503D-02
     39 -0.512159D-02 -0.104303D-01 -0.701386D-01  0.170751D-01 -0.620008D-02
     40  0.152243D-01 -0.655264D-01 -0.753930D-01  0.235517D-01 -0.837257D-02
     41 -0.713825D-01  0.160962D-01  0.778615D-01 -0.143167D-01 -0.612682D-02
     42 -0.838505D-01  0.817402D-01  0.452949D-01 -0.307047D-01  0.750774D-02
     43  0.827544D-01  0.277557D+00 -0.227826D+00  0.261441D-01  0.992245D-01
     44  0.289326D+00  0.110273D+00  0.260256D+00  0.129385D+00  0.104451D+00
     45 -0.206754D+00  0.206193D+00 -0.205225D-01 -0.506920D-01 -0.538503D-01
     46  0.131983D+00 -0.597949D-01  0.621652D-01  0.152972D+00 -0.432470D-01
     47 -0.733084D-01 -0.215330D-01 -0.217436D-01 -0.149666D-01 -0.171177D+00
     48  0.796818D-01 -0.254035D-01 -0.913394D-02  0.203864D-01  0.138136D+00
     49  0.536065D-01  0.144649D+00  0.688633D-03 -0.331075D+01 -0.174305D+01
     50  0.253033D+00 -0.157788D-01 -0.660331D-02 -0.215103D+01 -0.491837D+01
     51 -0.663675D-01 -0.409877D-01 -0.168749D+00  0.208533D+01 -0.136690D+01
                6             7             8             9            10 
      6  0.133108D+02
      7 -0.124100D-01  0.149018D+02
      8 -0.495116D-02  0.801450D+00  0.191767D+02
      9 -0.139471D+00  0.226755D+01 -0.567098D+00  0.202096D+02
     10  0.677534D-02 -0.327534D+01  0.210030D+01  0.937958D+00  0.120029D+02
     11  0.314591D-02  0.207462D+01 -0.429670D+01  0.622443D+00 -0.158635D+01
     12 -0.590775D-01  0.955074D+00  0.642771D+00 -0.554939D+01 -0.523490D+00
     13 -0.201846D-01 -0.603251D+01 -0.111398D+01 -0.333482D-01 -0.106608D+00
     14  0.653369D-02 -0.102668D+01 -0.226524D+01  0.204634D+00  0.911541D-02
     15 -0.104227D+00 -0.156086D-01  0.161451D+00 -0.618498D+01  0.119530D-01
     16 -0.229567D+00  0.363046D+00 -0.220342D+00 -0.775094D-01  0.228303D+00
     17  0.218786D+00 -0.222695D+00  0.177223D+00  0.907217D-01  0.214477D-01
     18  0.255053D+00 -0.138382D+00  0.999764D-01  0.148700D+00  0.277150D-01
     19 -0.893482D+00  0.223124D+00 -0.153037D+00 -0.360729D-01  0.858638D-01
     20 -0.316826D+01 -0.980101D-01 -0.860505D-01  0.250756D-01  0.252361D-01
     21 -0.752592D+01 -0.818497D-01  0.146654D-01 -0.991321D-01  0.105688D-01
     22 -0.174834D-01 -0.460766D+01 -0.696570D-01  0.180578D+00  0.517079D-01
     23 -0.495316D-02 -0.107229D+00 -0.452750D+01 -0.620633D+00 -0.147389D+00
     24 -0.137747D-02  0.352730D+00 -0.633680D+00 -0.184051D+01 -0.307457D+00
     25  0.361660D-02  0.661251D-01 -0.733077D-01 -0.763984D-01 -0.382885D+01
     26  0.578010D-02 -0.337319D-01  0.180464D-02 -0.718024D-01 -0.370734D+00
     27 -0.253355D-02 -0.334527D-01 -0.482325D-01  0.431845D-01 -0.514669D+00
     28 -0.141990D-02 -0.171611D-01 -0.113222D+00  0.157066D-01 -0.375813D+01
     29 -0.962496D-03 -0.852952D-01 -0.439296D-02 -0.899228D-02  0.361345D+00
     30 -0.484407D-02  0.263970D-02 -0.200947D-01  0.111488D+00 -0.379306D+00
     31  0.356988D-02 -0.646712D-01 -0.907760D-02 -0.257205D-01 -0.184878D+01
     32 -0.799487D-03 -0.622189D-01  0.101305D+00 -0.605922D-02 -0.929692D+00
     33 -0.492687D-02 -0.175831D-01  0.523055D-02  0.739957D-01  0.452510D+00
     34  0.622117D-02  0.101733D+00  0.733235D-01 -0.849806D-02  0.354842D-02
     35 -0.125824D-02  0.919270D-01 -0.283521D-01  0.629978D-01 -0.806866D-02
     36 -0.603469D-02  0.939428D-02  0.345005D-01  0.116823D+00  0.895800D-02
     37  0.667996D-02  0.107349D+00 -0.295925D-01  0.836819D-02  0.508329D-02
     38 -0.555779D-02 -0.987103D-01 -0.237980D-01  0.411404D-01  0.102356D+00
     39 -0.289996D-01  0.517044D-02  0.753429D-02  0.910257D-01 -0.167834D-02
     40 -0.850870D-02  0.464292D-01  0.806502D-01  0.390918D-01 -0.425187D-01
     41  0.292813D-02  0.800801D-01 -0.275396D-01 -0.799720D-01  0.139733D-01
     42 -0.293448D-02  0.356086D-01 -0.566280D-01  0.881178D-01  0.582305D-02
     43 -0.302842D-01  0.244331D-01 -0.593019D-01  0.253879D-01  0.328188D-01
     44 -0.391225D-01 -0.125324D+00  0.986829D-02 -0.410620D-01 -0.503456D-01
     45 -0.264592D-01  0.424588D-01 -0.309655D-01 -0.676387D-01  0.287002D-01
     46  0.284440D-01  0.286739D-01 -0.133479D-01  0.921155D-02  0.156750D-01
     47  0.161146D+00 -0.179736D-01 -0.233265D-02 -0.692848D-02 -0.523061D-02
     48 -0.555255D-02  0.108450D-01 -0.361902D-02 -0.534203D-02  0.764780D-02
     49  0.183145D+01 -0.214603D-01  0.604737D-02 -0.817759D-03  0.153474D-02
     50 -0.144090D+01  0.252111D-01  0.277491D-02 -0.217074D-02  0.148054D-01
     51 -0.523137D+01 -0.188124D-01 -0.682573D-02 -0.105551D-01 -0.718775D-02
               11            12            13            14            15 
     11  0.133927D+02
     12 -0.383902D+00  0.149393D+02
     13  0.125136D+00  0.116401D-01  0.145099D+02
     14  0.208514D+00  0.494781D-01  0.107442D+01  0.121808D+02
     15  0.114103D+00 -0.103233D+00  0.207470D+00 -0.389250D+00  0.154033D+02
     16 -0.192980D-01  0.141155D-01  0.533125D-01 -0.277423D+00 -0.855124D-02
     17 -0.133241D+00  0.204902D-01 -0.303402D+00  0.124675D+00  0.507258D-02
     18  0.966653D-02 -0.133485D+00  0.133774D-01 -0.155638D-01 -0.193617D+00
     19 -0.493166D-02  0.335769D-02  0.120312D+00 -0.907782D-01  0.901306D-02
     20 -0.618612D-01  0.854417D-03 -0.951644D-01 -0.467395D-01 -0.459647D-02
     21  0.161163D-02 -0.569895D-01  0.834944D-02 -0.676711D-02 -0.798999D-01
     22 -0.147462D+00 -0.241759D+00  0.732321D-01  0.904681D-01 -0.201974D-01
     23  0.174935D+00 -0.175339D+00  0.108199D+00 -0.111009D+00  0.526244D-01
     24 -0.220767D+00 -0.545058D-01 -0.376957D-01  0.682451D-01  0.154393D+00
     25 -0.234966D+00 -0.329187D+00 -0.362149D-01  0.154455D-01  0.404057D-02
     26 -0.321721D+01  0.110735D+01  0.145594D-01  0.697557D-01  0.571355D-01
     27  0.104222D+01 -0.218397D+01  0.906288D-02  0.580422D-01 -0.225163D-02
     28  0.442855D+00 -0.479685D+00 -0.294248D-01  0.654160D-01 -0.867671D-02
     29 -0.272055D+01 -0.114499D+01  0.586549D-01  0.136830D+00 -0.285970D-01
     30 -0.108348D+01 -0.279273D+01 -0.141975D-01 -0.396922D-01 -0.399761D-01
     31 -0.109478D+01  0.457772D+00  0.666511D-02 -0.542343D-02 -0.862611D-04
     32 -0.338773D+01 -0.211583D+00 -0.254871D-01 -0.184351D-01 -0.110604D-01
     33 -0.247225D+00 -0.370657D+01 -0.231259D-02 -0.469357D-02 -0.764305D-02
     34 -0.176412D-01  0.554198D-02 -0.226568D+01 -0.508883D+00  0.117439D+01
     35 -0.207564D-01  0.216888D-01 -0.617751D+00 -0.372402D+01 -0.480579D+00
     36  0.245457D-02 -0.334528D-02  0.111872D+01 -0.381753D+00 -0.305025D+01
     37  0.938455D-01 -0.132853D-02 -0.273549D+01  0.109773D+01 -0.586238D+00
     38  0.110698D+00  0.982422D-03  0.136180D+01 -0.313542D+01 -0.568450D+00
     39 -0.327471D-02 -0.484397D-01 -0.613903D+00 -0.473402D+00 -0.383880D+01
     40  0.105973D-01  0.663339D-02 -0.368952D+01 -0.192071D+00 -0.575446D+00
     41  0.764044D-01  0.680123D-01 -0.188804D+00 -0.355250D+01  0.866050D+00
     42  0.836565D-01  0.817114D-02 -0.502426D+00  0.757938D+00 -0.175276D+01
     43 -0.304091D-01  0.182496D-01 -0.163193D-02 -0.119353D-01  0.253521D-02
     44  0.785938D-03 -0.139748D-01 -0.280662D-01  0.163790D-01 -0.518011D-02
     45 -0.167518D-01 -0.212430D-01  0.615955D-02 -0.584486D-02 -0.130674D-01
     46 -0.554477D-02  0.249864D-02  0.150846D-01 -0.461784D-02  0.248031D-02
     47 -0.270811D-02 -0.291216D-03 -0.140155D-01 -0.331565D-02 -0.161444D-02
     48 -0.289490D-02 -0.552260D-02  0.672078D-02 -0.738383D-03 -0.544557D-02
     49  0.506236D-02  0.730126D-03 -0.110668D-01 -0.529611D-02 -0.187209D-02
     50 -0.175324D-02 -0.431150D-02  0.129089D-01 -0.795852D-02 -0.414675D-02
     51 -0.224638D-02 -0.419651D-02 -0.229715D-01 -0.455892D-02 -0.684169D-02
               16            17            18            19            20 
     16  0.943849D+01
     17  0.360534D+00  0.189873D+02
     18 -0.404017D+01  0.446806D+01  0.239496D+02
     19 -0.189820D+01  0.355469D+01  0.154175D+01  0.117579D+02
     20  0.311948D+01 -0.985617D+01 -0.145353D+01 -0.464961D+01  0.152988D+02
     21  0.165460D+01 -0.138740D+01 -0.131448D+02 -0.131368D+01  0.492938D+01
     22  0.678331D-01  0.187468D-01 -0.131303D-01  0.483253D-01 -0.266943D-02
     23  0.216797D-01 -0.143416D+00 -0.319011D-01  0.187026D-02 -0.225975D-01
     24 -0.927151D-01 -0.201687D-01 -0.984477D-01 -0.179129D-01 -0.394195D-02
     25  0.264471D-01  0.186735D-01  0.268544D-01  0.737412D-02  0.400071D-02
     26  0.321565D-01 -0.162121D-01  0.174783D-01  0.128880D-01 -0.337433D-02
     27  0.478478D-01  0.178554D-01 -0.129781D-02  0.202747D-01  0.749225D-02
     28  0.343759D-01  0.131665D-01 -0.545000D-02  0.189303D-01  0.874614D-02
     29  0.216250D-01 -0.106109D-01 -0.343088D-02  0.148870D-01 -0.141299D-02
     30 -0.192908D-01 -0.588598D-02 -0.120387D-01 -0.111892D-01 -0.495648D-02
     31  0.304727D-01 -0.876487D-02  0.514951D-02  0.230662D-01  0.235299D-02
     32 -0.103353D-01 -0.909459D-02 -0.588488D-04 -0.559095D-02 -0.523563D-02
     33  0.592953D-02 -0.579741D-03 -0.103938D-01  0.472571D-02  0.452274D-03
     34  0.984975D-02 -0.124656D-01  0.301982D-02  0.152453D-01 -0.613395D-02
     35 -0.713633D-02 -0.279724D-02 -0.721077D-03 -0.927371D-02 -0.349403D-02
     36  0.577181D-02 -0.332881D-02 -0.706381D-02  0.749160D-02 -0.132288D-02
     37 -0.110057D-01 -0.421465D-02 -0.689384D-02 -0.109763D-01 -0.691991D-03
     38 -0.252272D-01  0.402446D-01  0.948008D-02 -0.196320D-01  0.263834D-02
     39 -0.143035D-02 -0.218858D-02 -0.170380D-01  0.610705D-02 -0.380610D-02
     40  0.643175D-02 -0.173686D-01 -0.633533D-02  0.885557D-02 -0.783324D-02
     41 -0.172090D-01  0.454957D-02  0.533865D-02 -0.122973D-01 -0.267552D-02
     42 -0.147962D-01  0.150704D-01 -0.213078D-02 -0.150756D-01  0.579937D-02
     43 -0.424499D+01  0.496379D+00 -0.262736D+00 -0.958680D-01 -0.379213D+00
     44  0.646605D+00 -0.209115D+01 -0.114839D+01 -0.437113D+00 -0.145254D+00
     45 -0.322561D+00 -0.109167D+01 -0.388824D+01  0.582622D-01  0.396457D-01
     46 -0.373538D+00  0.554282D-01 -0.137695D+00 -0.283433D+01 -0.104766D+01
     47  0.820350D-01  0.272147D+00 -0.877148D-02 -0.107113D+01 -0.354981D+01
     48 -0.152149D+00 -0.721921D-02  0.207406D+00  0.936467D+00 -0.658671D+00
     49  0.476532D-01 -0.794774D-01  0.257110D-01  0.112359D+00  0.738476D-02
     50  0.797404D-03 -0.158688D+00  0.926763D-01  0.156861D+00  0.112635D+00
     51 -0.132034D-01  0.831214D-01  0.198496D-01 -0.877686D-01  0.112194D-01
               21            22            23            24            25 
     21  0.243610D+02
     22  0.117585D-01  0.440269D+01
     23 -0.303533D-02  0.167819D+00  0.446542D+01
     24 -0.276743D-01 -0.290241D+00  0.818025D+00  0.142723D+01
     25  0.666354D-02 -0.181913D-01  0.191493D-01  0.502445D-01  0.367848D+01
     26  0.470904D-02  0.211854D-01 -0.100641D-01  0.656273D-01  0.758019D-01
     27 -0.823414D-03  0.402326D-01  0.442272D-01  0.886002D-01  0.170197D+00
     28 -0.145647D-02 -0.296255D-01 -0.579501D-01 -0.323806D-01  0.864547D-01
     29 -0.151084D-02 -0.551731D-01 -0.142046D-01 -0.254708D-01 -0.973067D-02
     30 -0.519029D-02 -0.280860D-01 -0.249323D-01  0.193116D-01  0.848358D-01
     31  0.248077D-02  0.458629D-01 -0.315082D-02  0.687640D-01 -0.378422D-01
     32 -0.456827D-03  0.544405D-03 -0.226482D-01 -0.249121D-02  0.116209D+00
     33 -0.468867D-02  0.472073D-01 -0.194209D-02  0.213970D-01  0.955142D-01
     34  0.263174D-02  0.410491D-02 -0.406084D-01  0.470466D-01 -0.507135D-02
     35 -0.618451D-03 -0.334000D-01  0.206650D-01 -0.525319D-01 -0.344090D-02
     36 -0.426549D-02  0.302451D-01 -0.417915D-01  0.246557D-01  0.541401D-03
     37 -0.157632D-02 -0.924601D-02  0.733620D-02 -0.907446D-02 -0.459171D-03
     38 -0.874514D-04  0.535034D-02  0.262197D-01 -0.318266D-01 -0.227251D-02
     39 -0.945199D-02 -0.321704D-02 -0.207074D-01  0.788617D-02 -0.627971D-03
     40 -0.482561D-02  0.165969D-01  0.418307D-01  0.240319D-03 -0.932466D-03
     41  0.360892D-02  0.394773D-01 -0.666075D-01  0.590899D-05 -0.619475D-03
     42 -0.158893D-02 -0.328167D-03  0.104427D-02  0.301202D-01 -0.971368D-03
     43  0.418573D-01 -0.737350D-02  0.575119D-02 -0.408410D-03  0.110660D-02
     44  0.228787D-01  0.528912D-04 -0.641479D-02  0.915073D-02 -0.330367D-02
     45  0.239951D+00  0.329643D-02 -0.417682D-02 -0.507632D-02  0.460549D-02
     46  0.954890D+00 -0.492080D-02  0.255223D-02 -0.397493D-02  0.142778D-02
     47 -0.683985D+00 -0.394911D-03 -0.919834D-03  0.298461D-02 -0.513565D-03
     48 -0.372548D+01  0.154787D-02  0.318879D-03 -0.290569D-02  0.109890D-02
     49 -0.654986D-02  0.211940D-02  0.149964D-02 -0.177529D-02  0.256493D-03
     50  0.456655D-01  0.568277D-02  0.692643D-03 -0.852461D-02  0.231075D-02
     51  0.758320D-01 -0.664629D-02 -0.434760D-02  0.612144D-02 -0.503803D-03
               26            27            28            29            30 
     26  0.305458D+01
     27 -0.113826D+01  0.231930D+01
     28 -0.137037D-01  0.120856D+00  0.353452D+01
     29  0.135128D+00  0.448948D-01 -0.515558D+00  0.254604D+01
     30  0.424985D-01 -0.231164D+00  0.531300D+00  0.106236D+01  0.296402D+01
     31  0.136319D+00  0.901144D-01  0.798261D-01  0.112604D+00 -0.859061D-01
[...]
   yy         0.609428D+02      0.903080D+01      0.100481D+02
   zx        -0.102504D+02     -0.151895D+01     -0.169006D+01
   zy        -0.194632D+01     -0.288415D+00     -0.320905D+00
   zz         0.837452D+02      0.124098D+02      0.138077D+02

 ----------------------------------------------------------------------

 Test job not archived.
 1\1\GINC-C0185\Freq\RM062X\CC-pVTZ\C5H10O2\HARMS.N\29-Sep-2019\0\\#P G
 eom=AllCheck Guess=TCheck SCRF=Check Test GenChk RM062X/CC-pVTZ Freq\\
 Gaussian input prepared by ASE\\0,1\O,0.0097435197,0.4403545765,-0.071
 531408\O,1.2097929828,-1.9809625711,-0.5520577362\C,-0.0691190843,1.84
 34799237,-0.337138496\C,-0.5800842703,2.5875116504,0.8850718841\C,-0.9
 934017834,2.0032466497,-1.525627069\C,1.0922153034,0.0416772227,0.6711
 790263\C,1.6390099965,-1.1406638846,0.423621261\H,0.9336625767,2.19780
 99123,-0.5982173805\H,-1.5744302034,2.2238317944,1.1451833861\H,0.0732
 680237,2.4482397722,1.7453085576\H,-0.641034414,3.6558256197,0.6783771
 611\H,-1.976807283,1.60010986,-1.2821199401\H,-0.6027300974,1.46893145
 52,-2.3899059909\H,-1.1034578397,3.0558173804,-1.7836461893\H,1.443995
 4721,0.6898700363,1.4609370229\H,2.4621845897,-1.5270583262,1.00352766
 06\H,0.4701949133,-1.5481387681,-0.9956504615\\Version=EM64L-G16RevA.0
 3\State=1-A\HF=-346.9479196\RMSD=3.218e-09\RMSF=8.022e-07\ZeroPoint=0.
 1475352\Thermal=0.1560271\Dipole=-0.1267795,0.9519237,0.0571192\Dipole
 Deriv=-0.856793,0.7412249,-0.2180531,0.4911654,-1.2471995,0.1060541,-0
 .3917439,0.4151494,-0.5196974,-0.3204972,-0.3561002,-0.2134822,0.04367
 1,-0.8833415,-0.2853241,0.0285269,-0.7098549,-0.7107971,0.3665437,-0.1
 409588,0.0076746,-0.3681732,1.0733452,-0.1043003,0.0234082,-0.0507787,
 0.4826416,0.0419204,0.0351828,0.0192287,0.0780477,-0.0477852,-0.023197
 1,0.0361842,-0.1121577,-0.0990363,0.0212982,0.0505975,-0.065234,0.0435
 27,0.0144818,-0.0197512,-0.0742953,0.0220133,-0.0518045,0.5317585,-0.6
 56529,0.3315413,-0.3056789,0.064749,-0.0668349,0.4161598,-0.3349063,0.
 079258,0.0280989,0.2302449,0.2366973,-0.042855,0.6798784,0.4218682,0.1
 025031,0.7607474,0.4289019,-0.1350055,-0.0928236,0.0504679,0.0316305,-
 0.0452431,0.0094446,0.0226652,-0.0047951,-0.0227468,-0.0777078,-0.0276
 442,0.0537996,-0.0780177,0.0416236,0.0111329,0.009297,-0.0137494,0.045
 5417,-0.0108035,0.0163379,-0.0903388,0.018744,0.078688,0.0234443,-0.07
 58135,0.0088704,-0.0786016,0.057986,0.0211412,0.0101343,0.032134,-0.12
 31328,0.0209541,0.012745,0.0537906,0.0534919,-0.07255,-0.0389882,0.006
 0728,-0.0722423,0.0494801,0.0068157,0.0634796,0.032741,0.0288679,0.029
 526,0.0367866,0.0465478,0.0232791,0.0294165,-0.0957011,0.021717,-0.060
 5954,-0.0705775,0.0486167,0.0147355,-0.0169447,0.0331125,-0.1131291,0.
 0537995,-0.0252367,0.0249381,0.0545572,0.0466958,0.0745368,-0.0720799,
 -0.0200789,0.0591014,-0.0879962,-0.0712134,-0.0657633,0.0239276,0.0486
 781,0.0271775,-0.0867494,0.0506739,0.0585055,-0.0037628,-0.0833887,-0.
 0230575,0.0537999,0.2522348,0.0650783,0.0007178,0.041061,0.3105619,0.0
 333542,-0.0149944,0.057408,0.3022736\Polar=62.8327482,-13.5408705,80.3
 641447,5.4034039,2.5579596,62.7937541\Quadrupole=0.4793733,-1.8621912,
 1.382818,0.5251099,2.2872703,-0.3955823\PG=C01 [X(C5H10O2)]\NImag=0\\0
 .32425162,-0.08709150,0.42642964,0.16854241,-0.07462972,0.19822387,0.0
 0697206,-0.00273374,0.00956766,0.39831953,0.00096910,-0.00166044,0.007
 03570,-0.13788075,0.35490553,0.01429228,0.00085992,0.00719599,0.267144
 34,0.07521190,0.34475360,-0.07857598,-0.02538024,-0.00799717,-0.000318
 93,-0.00080576,-0.00075994,0.61634138,0.00042753,-0.20548775,0.0209194
 3,0.00224437,0.00445458,0.00541246,0.03541146,0.46430364,-0.01309045,0
 .00818302,-0.07040819,0.00279062,-0.00064690,0.00078790,-0.00576199,-0
 .00077642,0.51490957,0.00223802,0.00470281,0.00044864,-0.00017322,-0.0
 0028552,-0.00023007,-0.10115057,0.01944076,0.03798870,0.56799008,0.017
 55663,-0.04495313,-0.02579293,0.00046310,-0.00071235,-0.00008692,0.015
 46149,-0.09148913,-0.03828600,0.01951451,0.56215974,-0.00442657,0.0040
 4678,0.00859017,-0.00044083,-0.00015874,-0.00006093,0.03554504,-0.0463
 0298,-0.16630867,0.03238373,-0.04062405,0.52667121,-0.00184418,0.00530
 161,-0.00494095,0.00003580,0.00017539,0.00053392,-0.13508888,0.0054537
 7,-0.06489295,0.00812520,-0.00312693,0.00809070,0.54410978,0.03278490,
 -0.02176382,0.03807391,-0.00070339,-0.00060395,-0.00075763,-0.00454239
 ,-0.07261539,-0.00262244,-0.01084318,0.00428592,-0.01407829,0.00175905
 ,0.59349701,-0.00913292,0.00898861,-0.00854886,-0.00014701,-0.00015036
 ,-0.00052534,-0.06103785,0.00802483,-0.15852328,-0.01815496,-0.0014255
 6,-0.03079107,-0.04621992,0.00902513,0.53465287,-0.21036773,0.06082604
 ,-0.12079582,0.00573864,-0.02236283,-0.02060000,-0.01066823,0.01996249
 ,-0.00446342,0.00065606,-0.00238590,0.00289355,0.00015988,-0.00253782,
 0.00036923,0.43996900,0.03518553,-0.11603714,0.01263282,0.00438279,-0.
 03358496,-0.02938881,0.03704977,-0.01744559,0.02651353,0.00033373,-0.0
 0008033,0.00003875,0.00103634,-0.00544647,0.00012129,-0.20745222,0.794
 78274,-0.11082192,0.02319843,-0.11935275,-0.00467501,-0.05279645,-0.02
 369311,-0.00662445,0.01837729,-0.01241947,0.00092313,-0.00453053,0.003
 01926,-0.00043934,0.00111063,-0.00031128,0.18786986,0.22221265,0.43671
 350,-0.03755807,0.05064564,-0.01516336,-0.10526983,-0.00768707,-0.0669
 9881,-0.00201844,-0.00950550,-0.00178315,0.00002662,0.00051453,-0.0005
 2509,0.00035725,0.00214814,0.00014251,-0.15520093,0.16982108,0.0124826
 5,0.52882778,0.01470980,-0.01192848,-0.00187216,-0.04254967,-0.1902078
 1,-0.13560702,0.00019545,-0.00114115,-0.00203070,0.00004409,-0.0001942
 6,0.00040432,-0.00058137,0.00058199,0.00022228,0.19437197,-0.45969762,
 -0.07488894,-0.26756057,0.75691029,-0.03295074,0.03128589,-0.00229493,
 -0.08801982,-0.10348123,-0.19795061,-0.00370018,-0.00754817,-0.0030067
 5,0.00007181,0.00035941,-0.00057466,-0.00049688,0.00219536,0.00035272,
 0.02455129,-0.09363204,-0.09470068,0.23012455,0.15112777,0.45007432,0.
 00470882,-0.00122307,-0.00095699,-0.00025258,-0.00014024,-0.00068128,-
 0.26603303,-0.07069016,0.05528268,-0.00960765,-0.00257069,0.00290579,-
 0.01829993,-0.00541258,0.00351363,0.00220883,0.00047751,-0.00164321,0.
 00085251,0.00038512,0.00131499,0.28516263,-0.02852611,-0.03549382,0.01
 477462,0.00003351,-0.00006550,0.00014981,-0.06323018,-0.06859860,0.016
 55304,0.01531700,0.00696482,-0.00466999,0.00354102,0.00288541,-0.00182
 137,-0.00563768,0.00310151,-0.00342094,0.00134857,-0.00070581,-0.00035
 651,0.07660241,0.09124718,0.00387615,0.00881505,-0.00066996,-0.0000894
 8,-0.00023861,-0.00048011,0.05406666,0.01570709,-0.06673648,0.02703984
 ,0.00653768,-0.00757753,-0.02626267,-0.00884089,0.00563901,0.00188401,
 0.00010382,0.00119258,-0.00037010,0.00052341,0.00009270,-0.05875527,-0
 .02081521,0.07336132,0.00145496,0.00033606,-0.00133239,0.00004513,0.00
 014038,0.00010981,-0.01326997,-0.00461443,0.00429848,-0.27097652,-0.08
 348969,0.05564911,0.00094316,0.00005875,-0.00108083,-0.00040645,0.0001
 4551,-0.00025395,0.00013515,-0.00010478,0.00001252,0.00067680,0.001482
 19,0.00181791,0.29350129,-0.00088790,0.00243406,0.00076569,-0.00000621
 ,0.00005708,0.00008041,0.01651434,0.00424165,-0.00534378,-0.08459609,-
 0.07786813,0.02224724,0.00044851,0.00026330,0.00091026,0.00049379,-0.0
 0031161,0.00047975,-0.00014546,-0.00002195,-0.00011456,0.00130894,-0.0
 0108836,-0.00297187,0.09126753,0.08004948,-0.00202784,0.00091334,0.001
 93555,-0.00002790,0.00001670,-0.00000390,0.02771987,0.01080471,-0.0091
 6635,0.05476273,0.02058429,-0.06094499,0.00119116,0.00085578,0.0015657
 3,-0.00038573,-0.00000944,-0.00020320,0.00001895,0.00014514,0.00006579
 ,0.00134591,-0.00332030,-0.00401239,-0.06356051,-0.02120918,0.06661168
 ,0.00010831,-0.00113986,-0.00108896,0.00008888,0.00009063,-0.00005369,
 0.00832288,-0.00317136,0.01056884,-0.14838602,0.02217108,-0.12917774,-
 0.00033061,0.00139929,0.00151958,-0.00066138,0.00029431,-0.00011327,0.
 00004421,-0.00004833,0.00021306,0.00065576,-0.00069818,-0.00065834,-0.
 01654994,0.00531703,-0.02315960,0.15797653,-0.00063400,0.00155734,0.00
 150193,0.00007125,0.00032840,0.00037115,-0.01180555,0.00137138,-0.0128
 8467,0.02208995,-0.05143365,0.02904052,0.00169826,-0.00165991,-0.00238
 175,0.00030073,-0.00065621,-0.00036304,0.00007670,-0.00033093,-0.00010
 082,0.00009367,0.00025241,0.00090360,-0.00646361,0.00091596,-0.0097017
 4,-0.02643150,0.05282204,0.00045136,0.00068983,0.00207151,0.00012334,0
 .00049515,0.00045412,-0.01815078,0.00614019,-0.02070803,-0.12815594,0.
 02745764,-0.21331736,0.00362832,-0.00345001,-0.00343181,-0.00094795,-0
 .00004254,-0.00065152,0.00041675,-0.00036080,0.00021835,0.00019301,0.0
 0033062,0.00086981,0.00504416,-0.00163707,0.00688190,0.14064935,-0.029
 97698,0.23228799,-0.00025075,0.00298870,0.00183004,-0.00000575,0.00026
 497,0.00012542,-0.00184315,0.01009022,-0.00433370,-0.04734695,0.014076
 80,-0.00169168,0.00004448,-0.00019489,-0.00042244,0.00053516,-0.000151
 48,0.00034534,0.00004990,-0.00008878,0.00002044,-0.00012214,-0.0004919
 5,-0.00040127,0.00361112,-0.02928478,0.00514368,-0.00160714,0.01985834
 ,-0.00269626,0.04660890,0.00290100,-0.00294047,-0.00302410,0.00000282,
 -0.00026424,-0.00024513,-0.00125308,-0.01408918,0.00679838,0.01450171,
 -0.30661207,0.05068155,-0.00016101,0.00010944,0.00104343,-0.00146392,0
 .00054664,-0.00116978,0.00030467,0.00002694,0.00034612,0.00043671,0.00
 049134,-0.00024876,0.00122719,-0.00879095,0.00141891,0.00010011,-0.002
 79658,0.00055076,-0.01655096,0.33306023,0.00293731,-0.00697986,-0.0036
 8068,0.00016923,0.00005130,0.00010362,-0.00120906,-0.02340939,0.007912
 23,-0.00197282,0.05306339,-0.05779229,-0.00031949,0.00026400,0.0006920
 2,-0.00141909,0.00016132,-0.00135588,0.00035892,-0.00027442,0.00030365
 ,0.00023392,0.00094294,0.00082502,-0.00128740,0.00660486,-0.00262726,-
 0.00005785,0.02509696,-0.00442664,0.00231903,-0.05579397,0.06033670,0.
 00194094,-0.00003114,0.00078089,0.00012235,0.00014831,0.00011900,-0.02
 307635,-0.00916308,0.00444027,0.00098955,0.00053662,0.00127005,-0.2634
 2276,-0.08954607,0.05652422,0.00028611,0.00040805,-0.00000901,0.000064
 57,-0.00018013,-0.00010167,-0.00099075,0.00092960,-0.00389949,0.000660
 21,-0.00035391,-0.00072106,0.00033170,0.00029177,-0.00000575,0.0000302
 6,0.00010756,-0.00006445,0.28790100,-0.00004885,0.00121143,-0.00070457
 ,-0.00003692,0.00000437,0.00000061,0.00354962,-0.00003987,-0.00017800,
 -0.00022825,-0.00034896,-0.00005164,-0.09056022,-0.08427620,0.02219653
 ,0.00037162,-0.00016070,0.00014640,-0.00011075,0.00003836,-0.00003703,
 0.00070584,0.00061790,0.00052046,-0.00012040,0.00011639,-0.00040501,0.
 00025794,0.00000562,-0.00004943,-0.00012756,-0.00001273,-0.00003142,0.
 09935828,0.08647446,0.00198417,-0.00126656,0.00137094,-0.00004989,-0.0
 0000007,0.00007268,-0.02669926,-0.01123779,0.00519074,-0.00090652,-0.0
 0010213,0.00211362,0.05829329,0.02339202,-0.06214093,-0.00010064,0.000
 06286,-0.00022755,0.00018104,-0.00005123,0.00004083,-0.00320547,0.0009
 6482,-0.00391452,0.00046772,0.00017024,-0.00040617,0.00029449,0.000211
 28,0.00014280,0.00005405,-0.00007911,-0.00006108,-0.05916251,-0.024866
 78,0.06591994,0.00068822,-0.00109685,0.00153116,-0.00011977,-0.0001228
 3,-0.00008582,0.00797510,-0.01165332,-0.01843967,-0.00243653,0.0011922
 9,-0.00297280,-0.08547196,0.05031910,0.08111158,-0.00017930,-0.0002573
 7,-0.00003916,0.00007220,0.00014824,0.00016501,0.00102356,-0.00048598,
 0.00079718,0.00022117,0.00012153,-0.00037379,0.00065364,-0.00039751,-0
 .00122770,-0.00019178,0.00009301,0.00013141,-0.00957996,0.01560982,0.0
 2217636,0.08928339,-0.00049368,0.00116210,0.00016676,-0.00003732,0.000
 04706,-0.00008994,-0.00134420,-0.00039163,0.00380644,-0.00014237,0.000
 20711,0.00042308,0.04900965,-0.11330041,-0.10690511,0.00011427,-0.0000
 3884,0.00010318,-0.00003393,0.00009289,0.00002394,-0.00027259,-0.00005
 565,-0.00031012,0.00016693,-0.00005981,-0.00008717,0.00024442,0.000431
 83,-0.00000768,-0.00000900,0.00039916,0.00020330,-0.00413283,0.0063496
 3,0.01093915,-0.05410691,0.11874606,0.00074301,-0.00021786,0.00270744,
 0.00009902,0.00004202,0.00032969,0.01125089,-0.01392294,-0.02161560,-0
 .00468095,0.00170286,-0.00334035,0.07880347,-0.10491008,-0.21613781,-0
 .00028519,0.00019505,0.00003202,-0.00004508,-0.00018609,-0.00022379,-0
 .00008479,0.00014258,0.00114975,-0.00016063,0.00014286,0.00034514,0.00
 053032,-0.00096508,-0.00130889,-0.00001268,-0.00008415,0.00026039,0.00
 181101,-0.00294044,-0.00532263,-0.08437270,0.11664784,0.23549810,-0.00
 343060,0.00190365,-0.00463631,0.00020387,0.00023784,0.00020788,-0.0008
 8504,0.01964422,-0.00126103,0.00042056,0.00008215,0.00061125,-0.049350
 46,0.02427352,-0.00710124,0.00112162,0.00085672,-0.00020048,-0.0004560
 6,-0.00015734,-0.00043491,0.00009675,-0.00027797,0.00093209,-0.0000029
 1,-0.00016988,-0.00002386,-0.00019087,-0.00006766,0.00019688,0.0002974
 5,-0.00020222,-0.00014387,0.00485454,-0.02863820,0.00656906,-0.0021819
 6,0.01106095,-0.00374697,0.04977747,0.00160658,0.00074861,0.00098254,-
 0.00000620,-0.00012620,-0.00005592,-0.00104503,-0.00380858,-0.00126527
 ,-0.00028990,-0.00026184,-0.00053270,0.02586350,-0.30159479,0.06234270
 ,-0.00075963,0.00045580,-0.00023031,0.00011314,0.00002251,0.00014127,0
 .00042617,0.00024617,0.00029251,0.00014263,-0.00000682,0.00004160,0.00
 004810,0.00036255,0.00002115,-0.00013730,0.00059312,-0.00019258,0.0017
 7929,-0.00992361,0.00181874,0.00063001,-0.01347780,0.00410768,-0.02847
 414,0.32671191,-0.00542288,0.00220739,-0.00449981,0.00020742,0.0002165
 1,0.00035892,0.00258365,0.02401016,-0.00353034,0.00048301,0.00019188,0
 .00069814,-0.00706564,0.05947504,-0.06271369,0.00082527,0.00120199,0.0
 0027975,-0.00057418,-0.00021632,-0.00073196,-0.00003885,-0.00044627,0.
 00084222,0.00004338,0.00003260,-0.00005847,0.00001615,-0.00021361,0.00
 034348,-0.00022979,-0.00049125,-0.00080151,-0.00118423,0.00649279,-0.0
 0289728,0.00157034,-0.02500001,0.00774656,0.00905540,-0.06753763,0.065
 13782,-0.01448956,-0.01211147,-0.02461458,0.00437156,0.00650255,-0.002
 65939,0.00096321,-0.00384394,0.00023125,-0.00040400,0.00008564,-0.0002
 5378,-0.00005593,0.00058806,0.00010930,-0.07051370,-0.04499635,-0.0741
 8175,0.00621272,0.00518448,0.01090195,0.00015423,0.00041426,0.00003793
 ,0.00002334,-0.00007140,0.00005297,-0.00039909,0.00134697,0.00057239,0
 .00023861,-0.00003174,0.00038452,0.00009388,-0.00008205,0.00002632,0.0
 0006409,-0.00003675,0.00020084,-0.00010467,0.00016616,-0.00012184,0.07
 661171,0.00539172,0.00879841,0.00934083,0.00602156,-0.00100037,-0.0015
 8236,-0.00008183,0.00143888,0.00121943,0.00042786,-0.00011888,-0.00035
 934,-0.00002733,-0.00012443,0.00001758,-0.04677024,-0.16296695,-0.1378
 7901,-0.01345874,-0.00947043,-0.02040039,0.00007953,-0.00006306,0.0001
 8486,-0.00014218,0.00008657,-0.00004734,0.00154376,-0.00116416,-0.0002
 0267,-0.00016134,0.00015853,0.00015842,-0.00011898,-0.00002833,0.00001
 749,-0.00000841,0.00001196,-0.00004655,-0.00001447,-0.00006301,-0.0000
 2796,0.04790321,0.16526568,-0.01128820,-0.00376681,-0.01401114,-0.0042
 3897,-0.00263655,0.00551933,-0.00043722,-0.00438555,0.00105014,0.00009
 822,0.00039193,-0.00013220,0.00028310,0.00052340,-0.00018101,-0.075101
 38,-0.13919430,-0.19490224,-0.00024113,-0.00021869,-0.00143369,0.00035
 089,0.00060156,-0.00059846,0.00020873,-0.00008377,0.00003023,0.0004788
 1,-0.00042111,0.00071146,0.00000772,0.00013926,0.00020523,0.00018112,-
 0.00005856,0.00013045,-0.00001448,-0.00001064,0.00012856,-0.00007692,0
 .00010320,-0.00009288,0.08755325,0.14738691,0.20546460,0.00692575,0.00
 385544,-0.00138686,-0.00736525,0.00042937,-0.00842372,-0.00065371,0.00
 023975,-0.00110179,0.00001911,-0.00002151,0.00004824,0.00003726,0.0004
 2118,-0.00000738,-0.00647210,0.00091071,-0.00669288,-0.22010846,0.0922
 0443,-0.12656404,-0.00019199,0.00000262,-0.00005837,-0.00001630,0.0000
 1584,0.00000937,-0.00002504,0.00001288,0.00002305,-0.00002183,-0.00001
 914,0.00000208,-0.00001935,-0.00001938,0.00001049,0.00000626,-0.000018
 55,0.00001230,-0.00009486,0.00000896,-0.00008686,-0.00174809,-0.000793
 78,0.00211533,0.22763133,0.00415871,-0.00354367,-0.00266803,-0.0208268
 1,0.00936827,-0.01551590,0.00098736,0.00141959,-0.00097723,0.00004928,
 -0.00034272,0.00021505,-0.00003756,-0.00023603,0.00000493,0.01780950,-
 0.00064902,0.01677871,0.09685519,-0.09759281,0.05511659,-0.00019917,-0
 .00009994,0.00001435,-0.00001712,0.00003058,0.00001407,-0.00002522,0.0
 0001952,-0.00002038,0.00001622,-0.00008500,-0.00010273,-0.00003511,0.0
 0001219,-0.00002974,-0.00000789,0.00001427,0.00000466,0.00001368,-0.00
 001981,0.00008000,-0.00155816,-0.00098342,0.00094644,-0.09589921,0.094
 94611,-0.00419124,-0.00456221,0.00285502,-0.02148024,0.00613710,-0.016
 25231,0.00054822,-0.00034261,0.00135727,-0.00002545,0.00007749,-0.0000
 7091,-0.00002092,-0.00046432,-0.00000690,0.00646324,-0.00140348,0.0060
 7881,-0.12526743,0.05242496,-0.12646521,0.00016273,-0.00000173,0.00003
 945,0.00001445,-0.00001279,-0.00001959,0.00003259,-0.00001303,-0.00001
 231,0.00001777,0.00001691,0.00001740,0.00002832,0.00000854,-0.00001646
 ,-0.00001905,-0.00000445,0.00002055,0.00010317,-0.00000614,0.00011196,
 0.00178305,0.00147547,-0.00166431,0.14312242,-0.04973136,0.13575631,-0
 .00277182,0.00024793,0.00021259,-0.30239250,0.16032647,-0.18203992,-0.
 00002032,-0.00027277,-0.00047270,0.00001624,-0.00006013,0.00009102,0.0
 0005189,0.00002832,0.00001452,0.00379452,0.00195536,0.00407346,-0.0160
 3112,0.00402740,-0.01510739,-0.00004182,-0.00032312,0.00004322,-0.0000
 5025,0.00002810,0.00003563,-0.00003181,-0.00004070,-0.00011424,-0.0000
 2641,0.00000729,-0.00006239,-0.00018594,0.00011944,0.00006731,0.000173
 64,0.00003192,-0.00006188,-0.00007482,-0.00007233,-0.00006033,-0.00101
 832,0.00020967,0.00012113,0.00209726,-0.00128368,-0.00127163,0.3165115
 9,0.00199057,0.00146713,0.00249728,0.19156161,-0.14093947,0.10124334,0
 .00031878,-0.00212284,0.00193754,-0.00003640,0.00079787,-0.00031954,0.
 00020731,-0.00000165,-0.00021344,-0.00488019,-0.00181124,-0.00712803,-
 0.02332564,0.01361828,-0.01492562,-0.00000740,0.00036401,-0.00017736,-
 0.00001496,-0.00004745,-0.00001437,0.00004777,-0.00002562,0.00006224,-
 0.00009721,0.00020582,0.00023788,0.00000179,-0.00003995,0.00005682,0.0
 0002306,-0.00013791,0.00028761,-0.00007084,0.00014180,0.00002468,0.000
 54053,0.00022302,0.00068328,-0.00132960,-0.00225811,-0.00359836,-0.164
 92917,0.13056633,0.00052607,0.00223477,-0.00148419,-0.16093248,0.07090
 253,-0.12060954,0.00066358,-0.00147031,0.00121531,-0.00007311,0.000481
 54,-0.00018143,-0.00016521,0.00020838,0.00040962,-0.00075724,0.0004265
 1,0.00050174,-0.03275701,0.01085849,-0.02376607,0.00006230,0.00039233,
 -0.00002240,0.00000944,-0.00006090,0.00000630,0.00000627,-0.00010363,-
 0.00012486,-0.00007568,0.00014095,0.00008908,-0.00000672,-0.00004245,0
 .00000462,0.00006212,0.00010142,-0.00026914,-0.00005013,-0.00003085,-0
 .00019290,-0.00002242,0.00074463,-0.00022408,-0.00102139,-0.00412946,-
 0.00172877,0.19453161,-0.08065395,0.14637673\\-0.00000005,-0.00000004,
 -0.00000024,0.00000068,0.00000022,0.00000036,0.00000020,0.00000014,-0.
 00000003,-0.00000098,-0.00000027,-0.00000029,0.00000122,0.00000025,-0.
 00000077,-0.00000052,-0.00000020,0.00000073,-0.00000035,0.,0.00000089,
 0.00000041,0.00000012,0.00000098,-0.00000120,-0.00000037,-0.00000126,-
 0.00000174,-0.00000039,0.00000028,-0.00000087,-0.00000019,-0.00000013,
 0.00000101,0.00000011,-0.00000175,0.00000204,0.00000042,-0.00000056,0.
 00000139,0.00000028,-0.00000066,-0.00000138,-0.00000023,0.00000114,-0.
 00000083,-0.00000006,0.00000156,0.00000097,0.00000022,-0.00000024\\\@


 SEE YOU NOW,
 YOUR BAIT OF FALSEHOOD TAKES THIS CARP OF TRUTH.
 AND THUS DO WE OF WISDOM AND OF REACH...
 BY INDIRECTIONS FIND DIRECTIONS OUT.    -- HAMLET, II, 1
 Job cpu time:       0 days  3 hours  6 minutes  7.0 seconds.
 Elapsed time:       0 days  1 hours 33 minutes  4.9 seconds.
 File lengths (MBytes):  RWF=   1392 Int=      0 D2E=      0 Chk=     32 Scr=     32
 Normal termination of Gaussian 16 at Sun Sep 29 05:13:42 2019.
