 Entering Gaussian System, Link 0=g16
 Input=loose/species/CC(C)OC=CO/conformers/CC(C)OC=CO_50.com
 Output=loose/species/CC(C)OC=CO/conformers/CC(C)OC=CO_50.log
 Initial command:
 /shared/centos7/gaussian/g16/l1.exe "/scratch/harms.n/gauss_scrdir/Gau-26328.inp" -scrdir="/scratch/harms.n/gauss_scrdir/"
 Entering Link 1 = /shared/centos7/gaussian/g16/l1.exe PID=     26329.
  
 Copyright (c) 1988,1990,1992,1993,1995,1998,2003,2009,2016,
            Gaussian, Inc.  All Rights Reserved.
  
 This is part of the Gaussian(R) 16 program.  It is based on
 the Gaussian(R) 09 system (copyright 2009, Gaussian, Inc.),
 the Gaussian(R) 03 system (copyright 2003, Gaussian, Inc.),
 the Gaussian(R) 98 system (copyright 1998, Gaussian, Inc.),
 the Gaussian(R) 94 system (copyright 1995, Gaussian, Inc.),
 the Gaussian 92(TM) system (copyright 1992, Gaussian, Inc.),
 the Gaussian 90(TM) system (copyright 1990, Gaussian, Inc.),
 the Gaussian 88(TM) system (copyright 1988, Gaussian, Inc.),
 the Gaussian 86(TM) system (copyright 1986, Carnegie Mellon
 University), and the Gaussian 82(TM) system (copyright 1983,
 Carnegie Mellon University). Gaussian is a federally registered
 trademark of Gaussian, Inc.
  
 This software contains proprietary and confidential information,
 including trade secrets, belonging to Gaussian, Inc.
  
 This software is provided under written license and may be
 used, copied, transmitted, or stored only in accord with that
 written license.
  
 The following legend is applicable only to US Government
 contracts under FAR:
  
                    RESTRICTED RIGHTS LEGEND
  
 Use, reproduction and disclosure by the US Government is
 subject to restrictions as set forth in subparagraphs (a)
 and (c) of the Commercial Computer Software - Restricted
 Rights clause in FAR 52.227-19.
  
 Gaussian, Inc.
 340 Quinnipiac St., Bldg. 40, Wallingford CT 06492
  
  
 ---------------------------------------------------------------
 Warning -- This program may not be used in any manner that
 competes with the business of Gaussian, Inc. or will provide
 assistance to any competitor of Gaussian, Inc.  The licensee
 of this program is prohibited from giving any competitor of
 Gaussian, Inc. access to this program.  By using this program,
 the user acknowledges that Gaussian, Inc. is engaged in the
 business of creating and licensing software in the field of
 computational chemistry and represents and warrants to the
 licensee that it is not a competitor of Gaussian, Inc. and that
 it will not use this program in any manner prohibited above.
 ---------------------------------------------------------------
  

 Cite this work as:
 Gaussian 16, Revision A.03,
 M. J. Frisch, G. W. Trucks, H. B. Schlegel, G. E. Scuseria, 
 M. A. Robb, J. R. Cheeseman, G. Scalmani, V. Barone, 
 G. A. Petersson, H. Nakatsuji, X. Li, M. Caricato, A. V. Marenich, 
 J. Bloino, B. G. Janesko, R. Gomperts, B. Mennucci, H. P. Hratchian, 
 J. V. Ortiz, A. F. Izmaylov, J. L. Sonnenberg, D. Williams-Young, 
 F. Ding, F. Lipparini, F. Egidi, J. Goings, B. Peng, A. Petrone, 
 T. Henderson, D. Ranasinghe, V. G. Zakrzewski, J. Gao, N. Rega, 
 G. Zheng, W. Liang, M. Hada, M. Ehara, K. Toyota, R. Fukuda, 
 J. Hasegawa, M. Ishida, T. Nakajima, Y. Honda, O. Kitao, H. Nakai, 
 T. Vreven, K. Throssell, J. A. Montgomery, Jr., J. E. Peralta, 
 F. Ogliaro, M. J. Bearpark, J. J. Heyd, E. N. Brothers, K. N. Kudin, 
 V. N. Staroverov, T. A. Keith, R. Kobayashi, J. Normand, 
 K. Raghavachari, A. P. Rendell, J. C. Burant, S. S. Iyengar, 
 J. Tomasi, M. Cossi, J. M. Millam, M. Klene, C. Adamo, R. Cammi, 
 J. W. Ochterski, R. L. Martin, K. Morokuma, O. Farkas, 
 J. B. Foresman, and D. J. Fox, Gaussian, Inc., Wallingford CT, 2016.
 
 ******************************************
 Gaussian 16:  EM64L-G16RevA.03 25-Dec-2016
                26-Sep-2019 
 ******************************************
 %nprocshared=20
 Will use up to   20 processors via shared memory.
 %mem=5GB
 ----------------------------------------------------------------------
 #p m062x/cc-pVTZ opt=(calcfc,maxcycles=900,Tight) freq IOP(7/33=1,2/16
 =3) scf=(maxcycle=900)
 ----------------------------------------------------------------------
 1/6=900,7=10,10=4,18=20,19=15,26=3,38=1/1,3;
 2/9=110,12=2,16=3,17=6,18=5,40=1/2;
 3/5=16,6=1,11=2,25=1,30=1,71=2,74=-55,140=1/1,2,3;
 4//1;
 5/5=2,7=900,38=5/2;
 8/6=4,10=90,11=11/1;
 11/6=1,8=1,9=11,15=111,16=1/1,2,10;
 10/6=1,13=1/2;
 6/7=2,8=2,9=2,10=2,28=1/1;
 7/10=1,18=20,25=1,33=1/1,2,3,16;
 1/6=900,7=10,10=4,18=20,19=15,26=3/3(2);
 2/9=110,16=3/2;
 99//99;
 2/9=110,16=3/2;
 3/5=16,6=1,11=2,25=1,30=1,71=1,74=-55/1,2,3;
 4/5=5,16=3,69=1/1;
 5/5=2,7=900,38=5/2;
 7/33=1/1,2,3,16;
 1/6=900,7=10,18=20,19=15,26=3/3(-5);
 2/9=110,16=3/2;
 6/7=2,8=2,9=2,10=2,19=2,28=1/1;
 99/9=1/99;
 Leave Link    1 at Thu Sep 26 07:43:07 2019, MaxMem=   671088640 cpu:               4.4 elap:               2.2
 (Enter /shared/centos7/gaussian/g16/l101.exe)
 ------------------------------
 Gaussian input prepared by ASE
 ------------------------------
 Symbolic Z-matrix:
 Charge =  0 Multiplicity = 1
 O                     2.51853   1.21724  -0.94716 
 O                     0.05306   0.48831   0.44586 
 C                     2.4968    0.76345  -2.28412 
 C                     3.25307   1.74164  -3.18313 
 C                     1.09362   0.51574  -2.7311 
 C                     2.37612   0.19006  -0.04243 
 C                     1.29382  -0.10751   0.61645 
 H                     3.05833  -0.21147  -2.30775 
 H                     3.69212   2.57318  -2.59323 
 H                     4.07226   1.21877  -3.70947 
 H                     2.58404   2.19968  -3.9611 
 H                     0.66382   1.38217  -3.31528 
 H                     0.43998   0.36179  -1.84729 
 H                     0.99637  -0.39886  -3.38195 
 H                     3.30466  -0.36771   0.1587 
 H                     1.26086  -0.88667   1.36361 
 H                     0.14737   1.11764  -0.32669 
 
 ITRead=  0  0  0  0  0  0  0  0  0  0  0  0  0  0  0  0  0
 MicOpt= -1 -1 -1 -1 -1 -1 -1 -1 -1 -1 -1 -1 -1 -1 -1 -1 -1
 NAtoms=     17 NQM=       17 NQMF=       0 NMMI=      0 NMMIF=      0
                NMic=       0 NMicF=      0.
                    Isotopes and Nuclear Properties:
 (Nuclear quadrupole moments (NQMom) in fm**2, nuclear magnetic moments (NMagM)
  in nuclear magnetons)

  Atom         1           2           3           4           5           6           7           8           9          10
 IAtWgt=          16          16          12          12          12          12          12           1           1           1
 AtmWgt=  15.9949146  15.9949146  12.0000000  12.0000000  12.0000000  12.0000000  12.0000000   1.0078250   1.0078250   1.0078250
 NucSpn=           0           0           0           0           0           0           0           1           1           1
 AtZEff=  -0.0000000  -0.0000000  -0.0000000  -0.0000000  -0.0000000  -0.0000000  -0.0000000  -0.0000000  -0.0000000  -0.0000000
 NQMom=    0.0000000   0.0000000   0.0000000   0.0000000   0.0000000   0.0000000   0.0000000   0.0000000   0.0000000   0.0000000
 NMagM=    0.0000000   0.0000000   0.0000000   0.0000000   0.0000000   0.0000000   0.0000000   2.7928460   2.7928460   2.7928460
 AtZNuc=   8.0000000   8.0000000   6.0000000   6.0000000   6.0000000   6.0000000   6.0000000   1.0000000   1.0000000   1.0000000

  Atom        11          12          13          14          15          16          17
 IAtWgt=           1           1           1           1           1           1           1
 AtmWgt=   1.0078250   1.0078250   1.0078250   1.0078250   1.0078250   1.0078250   1.0078250
 NucSpn=           1           1           1           1           1           1           1
 AtZEff=  -0.0000000  -0.0000000  -0.0000000  -0.0000000  -0.0000000  -0.0000000  -0.0000000
 NQMom=    0.0000000   0.0000000   0.0000000   0.0000000   0.0000000   0.0000000   0.0000000
 NMagM=    2.7928460   2.7928460   2.7928460   2.7928460   2.7928460   2.7928460   2.7928460
 AtZNuc=   1.0000000   1.0000000   1.0000000   1.0000000   1.0000000   1.0000000   1.0000000
 Leave Link  101 at Thu Sep 26 07:43:09 2019, MaxMem=   671088640 cpu:               2.8 elap:               1.4
 (Enter /shared/centos7/gaussian/g16/l103.exe)

 GradGradGradGradGradGradGradGradGradGradGradGradGradGradGradGradGradGrad
 Berny optimization.
 Initialization pass.
                           ----------------------------
                           !    Initial Parameters    !
                           ! (Angstroms and Degrees)  !
 --------------------------                            --------------------------
 ! Name  Definition              Value          Derivative Info.                !
 --------------------------------------------------------------------------------
 ! R1    R(1,3)                  1.412          calculate D2E/DX2 analytically  !
 ! R2    R(1,6)                  1.3762         calculate D2E/DX2 analytically  !
 ! R3    R(2,7)                  1.3869         calculate D2E/DX2 analytically  !
 ! R4    R(2,17)                 1.0009         calculate D2E/DX2 analytically  !
 ! R5    R(3,4)                  1.5287         calculate D2E/DX2 analytically  !
 ! R6    R(3,5)                  1.4933         calculate D2E/DX2 analytically  !
 ! R7    R(3,8)                  1.1253         calculate D2E/DX2 analytically  !
 ! R8    R(4,9)                  1.1101         calculate D2E/DX2 analytically  !
 ! R9    R(4,10)                 1.1052         calculate D2E/DX2 analytically  !
 ! R10   R(4,11)                 1.1237         calculate D2E/DX2 analytically  !
 ! R11   R(5,12)                 1.1299         calculate D2E/DX2 analytically  !
 ! R12   R(5,13)                 1.11           calculate D2E/DX2 analytically  !
 ! R13   R(5,14)                 1.1267         calculate D2E/DX2 analytically  !
 ! R14   R(6,7)                  1.3016         calculate D2E/DX2 analytically  !
 ! R15   R(6,15)                 1.1017         calculate D2E/DX2 analytically  !
 ! R16   R(7,16)                 1.08           calculate D2E/DX2 analytically  !
 ! A1    A(3,1,6)              112.3955         calculate D2E/DX2 analytically  !
 ! A2    A(7,2,17)             106.3053         calculate D2E/DX2 analytically  !
 ! A3    A(1,3,4)              110.0941         calculate D2E/DX2 analytically  !
 ! A4    A(1,3,5)              110.5584         calculate D2E/DX2 analytically  !
 ! A5    A(1,3,8)              106.8951         calculate D2E/DX2 analytically  !
 ! A6    A(4,3,5)              113.263          calculate D2E/DX2 analytically  !
 ! A7    A(4,3,8)              107.1668         calculate D2E/DX2 analytically  !
 ! A8    A(5,3,8)              108.5952         calculate D2E/DX2 analytically  !
 ! A9    A(3,4,9)              111.2525         calculate D2E/DX2 analytically  !
 ! A10   A(3,4,10)             110.1215         calculate D2E/DX2 analytically  !
 ! A11   A(3,4,11)             111.9278         calculate D2E/DX2 analytically  !
 ! A12   A(9,4,10)             108.3193         calculate D2E/DX2 analytically  !
 ! A13   A(9,4,11)             107.3417         calculate D2E/DX2 analytically  !
 ! A14   A(10,4,11)            107.7245         calculate D2E/DX2 analytically  !
 ! A15   A(3,5,12)             112.6423         calculate D2E/DX2 analytically  !
 ! A16   A(3,5,13)             109.755          calculate D2E/DX2 analytically  !
 ! A17   A(3,5,14)             112.8697         calculate D2E/DX2 analytically  !
 ! A18   A(12,5,13)            107.0992         calculate D2E/DX2 analytically  !
 ! A19   A(12,5,14)            106.9151         calculate D2E/DX2 analytically  !
 ! A20   A(13,5,14)            107.2491         calculate D2E/DX2 analytically  !
 ! A21   A(1,6,7)              126.1209         calculate D2E/DX2 analytically  !
 ! A22   A(1,6,15)             114.2481         calculate D2E/DX2 analytically  !
 ! A23   A(7,6,15)             119.5167         calculate D2E/DX2 analytically  !
 ! A24   A(2,7,6)              125.6916         calculate D2E/DX2 analytically  !
 ! A25   A(2,7,16)             111.5746         calculate D2E/DX2 analytically  !
 ! A26   A(6,7,16)             122.7198         calculate D2E/DX2 analytically  !
 ! D1    D(6,1,3,4)           -154.621          calculate D2E/DX2 analytically  !
 ! D2    D(6,1,3,5)             79.4799         calculate D2E/DX2 analytically  !
 ! D3    D(6,1,3,8)            -38.5442         calculate D2E/DX2 analytically  !
 ! D4    D(3,1,6,7)           -103.0351         calculate D2E/DX2 analytically  !
 ! D5    D(3,1,6,15)            80.8986         calculate D2E/DX2 analytically  !
 ! D6    D(17,2,7,6)             4.9081         calculate D2E/DX2 analytically  !
 ! D7    D(17,2,7,16)         -173.7519         calculate D2E/DX2 analytically  !
 ! D8    D(1,3,4,9)              2.3557         calculate D2E/DX2 analytically  !
 ! D9    D(1,3,4,10)           122.4657         calculate D2E/DX2 analytically  !
 ! D10   D(1,3,4,11)          -117.7323         calculate D2E/DX2 analytically  !
 ! D11   D(5,3,4,9)            126.7083         calculate D2E/DX2 analytically  !
 ! D12   D(5,3,4,10)          -113.1817         calculate D2E/DX2 analytically  !
 ! D13   D(5,3,4,11)             6.6203         calculate D2E/DX2 analytically  !
 ! D14   D(8,3,4,9)           -113.5503         calculate D2E/DX2 analytically  !
 ! D15   D(8,3,4,10)             6.5597         calculate D2E/DX2 analytically  !
 ! D16   D(8,3,4,11)           126.3617         calculate D2E/DX2 analytically  !
 ! D17   D(1,3,5,12)            97.5648         calculate D2E/DX2 analytically  !
 ! D18   D(1,3,5,13)           -21.6647         calculate D2E/DX2 analytically  !
 ! D19   D(1,3,5,14)          -141.2311         calculate D2E/DX2 analytically  !
 ! D20   D(4,3,5,12)           -26.5349         calculate D2E/DX2 analytically  !
 ! D21   D(4,3,5,13)          -145.7644         calculate D2E/DX2 analytically  !
 ! D22   D(4,3,5,14)            94.6692         calculate D2E/DX2 analytically  !
 ! D23   D(8,3,5,12)          -145.4562         calculate D2E/DX2 analytically  !
 ! D24   D(8,3,5,13)            95.3144         calculate D2E/DX2 analytically  !
 ! D25   D(8,3,5,14)           -24.252          calculate D2E/DX2 analytically  !
 ! D26   D(1,6,7,2)              5.6557         calculate D2E/DX2 analytically  !
 ! D27   D(1,6,7,16)          -175.8255         calculate D2E/DX2 analytically  !
 ! D28   D(15,6,7,2)          -178.4663         calculate D2E/DX2 analytically  !
 ! D29   D(15,6,7,16)            0.0526         calculate D2E/DX2 analytically  !
 --------------------------------------------------------------------------------
 Trust Radius=3.00D-01 FncErr=1.00D-07 GrdErr=1.00D-06 EigMax=2.50D+02 EigMin=1.00D-04
 Number of steps in this run=    102 maximum allowed number of steps=    102.
 GradGradGradGradGradGradGradGradGradGradGradGradGradGradGradGradGradGrad

 Leave Link  103 at Thu Sep 26 07:43:09 2019, MaxMem=   671088640 cpu:               1.3 elap:               0.7
 (Enter /shared/centos7/gaussian/g16/l202.exe)
                          Input orientation:                          
 ---------------------------------------------------------------------
 Center     Atomic      Atomic             Coordinates (Angstroms)
 Number     Number       Type             X           Y           Z
 ---------------------------------------------------------------------
      1          8           0        2.518530    1.217236   -0.947157
      2          8           0        0.053062    0.488312    0.445859
      3          6           0        2.496805    0.763449   -2.284124
      4          6           0        3.253068    1.741641   -3.183134
      5          6           0        1.093621    0.515744   -2.731101
      6          6           0        2.376123    0.190059   -0.042434
      7          6           0        1.293822   -0.107508    0.616451
      8          1           0        3.058333   -0.211473   -2.307752
      9          1           0        3.692119    2.573181   -2.593229
     10          1           0        4.072255    1.218770   -3.709466
     11          1           0        2.584041    2.199675   -3.961104
     12          1           0        0.663823    1.382169   -3.315283
     13          1           0        0.439982    0.361792   -1.847286
     14          1           0        0.996369   -0.398857   -3.381953
     15          1           0        3.304659   -0.367708    0.158696
     16          1           0        1.260857   -0.886667    1.363611
     17          1           0        0.147375    1.117639   -0.326692
 ---------------------------------------------------------------------
                    Distance matrix (angstroms):
                    1          2          3          4          5
     1  O    0.000000
     2  O    2.924100   0.000000
     3  C    1.412047   3.674288   0.000000
     4  C    2.411253   4.998047   1.528729   0.000000
     5  C    2.388496   3.343142   1.493342   2.523959   0.000000
     6  C    1.376189   2.392488   2.317005   3.611154   2.996633
     7  C    2.387410   1.386935   3.258692   4.657773   3.410958
     8  H    2.045438   4.135665   1.125320   2.149156   2.137326
     9  H    2.434225   5.179331   2.190765   1.110050   3.317264
    10  H    3.169292   5.827024   2.172777   1.105209   3.213051
    11  H    3.170703   5.362457   2.209664   1.123668   2.563178
    12  H    3.012501   3.913847   2.192242   2.617418   1.129905
    13  H    2.421235   2.328998   2.140718   3.406160   1.109989
    14  H    3.294991   4.040921   2.192599   3.116721   1.126748
    15  H    2.086374   3.374628   2.810608   3.952195   3.744343
    16  H    3.368649   2.047341   4.190038   5.616921   4.331443
    17  H    2.453014   1.000891   3.078444   4.265440   2.653082
                    6          7          8          9         10
     6  C    0.000000
     7  C    1.301558   0.000000
     8  H    2.399646   3.416910   0.000000
     9  H    3.730639   4.820785   2.870101   0.000000
    10  H    4.169200   5.309639   2.244646   1.795805   0.000000
    11  H    4.408828   5.285998   2.961784   1.799562   1.800078
    12  H    3.881318   4.251420   3.047703   3.333234   3.435038
    13  H    2.652475   2.649394   2.719636   4.002882   4.170795
    14  H    3.661001   4.020025   2.332534   4.089274   3.490710
    15  H    1.101697   2.078632   2.483636   4.046238   4.250740
    16  H    2.092873   1.080011   4.143152   5.791214   6.170326
    17  H    2.430746   1.924798   3.763618   4.452079   5.182478
                   11         12         13         14         15
    11  H    0.000000
    12  H    2.184637   0.000000
    13  H    3.527468   1.801746   0.000000
    14  H    3.099756   1.813032   1.800932   0.000000
    15  H    4.907494   4.701554   3.572465   4.226744   0.000000
    16  H    6.295150   5.234130   3.541518   4.777896   2.428634
    17  H    4.507450   3.044400   1.723117   3.514993   3.522826
                   16         17
    16  H    0.000000
    17  H    2.848545   0.000000
 Stoichiometry    C5H10O2
 Framework group  C1[X(C5H10O2)]
 Deg. of freedom    45
 Full point group                 C1      NOp   1
 Largest Abelian subgroup         C1      NOp   1
 Largest concise Abelian subgroup C1      NOp   1
                         Standard orientation:                         
 ---------------------------------------------------------------------
 Center     Atomic      Atomic             Coordinates (Angstroms)
 Number     Number       Type             X           Y           Z
 ---------------------------------------------------------------------
      1          8           0       -0.200447   -0.737952   -0.458787
      2          8           0        2.309141    0.762609   -0.484209
      3          6           0       -1.187640   -0.059291    0.288706
      4          6           0       -2.569276   -0.311144   -0.315168
      5          6           0       -0.851150    1.390819    0.407144
      6          6           0        0.918819   -1.024352    0.288951
      7          6           0        2.054019   -0.389173    0.245106
      8          1           0       -1.187542   -0.512963    1.318525
      9          1           0       -2.509833   -1.002914   -1.181270
     10          1           0       -3.239107   -0.758642    0.441508
     11          1           0       -3.048402    0.638549   -0.677317
     12          1           0       -1.392692    2.026595   -0.353913
     13          1           0        0.236384    1.538384    0.241108
     14          1           0       -1.094838    1.815431    1.421975
     15          1           0        0.821581   -1.918912    0.924596
     16          1           0        2.919946   -0.701548    0.809919
     17          1           0        1.436325    1.037618   -0.889604
 ---------------------------------------------------------------------
 Rotational constants (GHZ):           5.2934608           1.6060297           1.3748756
 Leave Link  202 at Thu Sep 26 07:43:11 2019, MaxMem=   671088640 cpu:               3.6 elap:               1.8
 (Enter /shared/centos7/gaussian/g16/l301.exe)
 Standard basis: CC-pVTZ (5D, 7F)
 Ernie: Thresh=  0.10000D-02 Tol=  0.10000D-05 Strict=F.
 Ernie:  21 primitive shells out of 262 were deleted.
 There are   395 symmetry adapted cartesian basis functions of A   symmetry.
 There are   350 symmetry adapted basis functions of A   symmetry.
   350 basis functions,   534 primitive gaussians,   395 cartesian basis functions
    28 alpha electrons       28 beta electrons
       nuclear repulsion energy       319.2703059193 Hartrees.
 IExCor= 4336 DFT=T Ex+Corr=M062X ExCW=0 ScaHFX=  0.540000
 ScaDFX=  1.000000  1.000000  1.000000  1.000000 ScalE2=  1.000000  1.000000
 IRadAn=      5 IRanWt=     -1 IRanGd=            0 ICorTp=0 IEmpDi=  4
 NAtoms=   17 NActive=   17 NUniq=   17 SFac= 1.00D+00 NAtFMM=   60 NAOKFM=F Big=F
 Integral buffers will be    131072 words long.
 Raffenetti 2 integral format.
 Two-electron integral symmetry is turned on.
 Leave Link  301 at Thu Sep 26 07:43:12 2019, MaxMem=   671088640 cpu:               1.4 elap:               0.7
 (Enter /shared/centos7/gaussian/g16/l302.exe)
 NPDir=0 NMtPBC=     1 NCelOv=     1 NCel=       1 NClECP=     1 NCelD=      1
         NCelK=      1 NCelE2=     1 NClLst=     1 CellRange=     0.0.
 One-electron integrals computed using PRISM.
 One-electron integral symmetry used in STVInt
 NBasis=   350 RedAO= T EigKep=  2.60D-04  NBF=   350
 NBsUse=   350 1.00D-06 EigRej= -1.00D+00 NBFU=   350
 Precomputing XC quadrature grid using
 IXCGrd= 4 IRadAn=           5 IRanWt=          -1 IRanGd=           0 AccXCQ= 0.00D+00.
 Generated NRdTot=       0 NPtTot=           0 NUsed=           0 NTot=          32
 NSgBfM=   395   395   395   395   395 MxSgAt=    17 MxSgA2=    17.
 Leave Link  302 at Thu Sep 26 07:44:09 2019, MaxMem=   671088640 cpu:             113.7 elap:              56.9
 (Enter /shared/centos7/gaussian/g16/l303.exe)
 DipDrv:  MaxL=1.
 Leave Link  303 at Thu Sep 26 07:44:13 2019, MaxMem=   671088640 cpu:               8.5 elap:               4.3
 (Enter /shared/centos7/gaussian/g16/l401.exe)
 ExpMin= 1.03D-01 ExpMax= 1.53D+04 ExpMxC= 5.22D+02 IAcc=3 IRadAn=         5 AccDes= 0.00D+00
 Harris functional with IExCor= 1009 and IRadAn=       5 diagonalized for initial guess.
 HarFok:  IExCor= 1009 AccDes= 0.00D+00 IRadAn=         5 IDoV= 1 UseB2=F ITyADJ=14
 ICtDFT=  3500011 ScaDFX=  1.000000  1.000000  1.000000  1.000000
 FoFCou: FMM=F IPFlag=           0 FMFlag=      100000 FMFlg1=           0
         NFxFlg=           0 DoJE=T BraDBF=F KetDBF=T FulRan=T
         wScrn=  0.000000 ICntrl=       500 IOpCl=  0 I1Cent=   200000004 NGrid=           0
         NMat0=    1 NMatS0=      1 NMatT0=    0 NMatD0=    1 NMtDS0=    0 NMtDT0=    0
 Petite list used in FoFCou.
 Harris En= -346.801617439616    
 JPrj=0 DoOrth=F DoCkMO=F.
 Leave Link  401 at Thu Sep 26 07:44:42 2019, MaxMem=   671088640 cpu:              58.0 elap:              29.0
 (Enter /shared/centos7/gaussian/g16/l502.exe)
 Integral symmetry usage will be decided dynamically.
 Closed shell SCF:
 Using DIIS extrapolation, IDIIS=  1040.
 NGot=   671088640 LenX=   670765141 LenY=   670608675
 Requested convergence on RMS density matrix=1.00D-08 within 900 cycles.
 Requested convergence on MAX density matrix=1.00D-06.
 Requested convergence on             energy=1.00D-06.
 No special actions if energy rises.
 Fock matrices will be formed incrementally for  20 cycles.
 Integral accuracy reduced to 1.0D-05 until final iterations.

 Cycle   1  Pass 0  IDiag  1:
 FoFJK:  IHMeth= 1 ICntrl=       0 DoSepK=F KAlg= 0 I1Cent=           0 FoldK=F
 IRaf= 960000000 NMat=       1 IRICut=       1 DoRegI=T DoRafI=F ISym2E= 0 IDoP0=0 IntGTp=1.
 FoFCou: FMM=F IPFlag=           0 FMFlag=      100000 FMFlg1=           0
         NFxFlg=           0 DoJE=F BraDBF=F KetDBF=F FulRan=T
         wScrn=  0.000000 ICntrl=         0 IOpCl=  0 I1Cent=           0 NGrid=           0
         NMat0=    1 NMatS0=      1 NMatT0=    0 NMatD0=    1 NMtDS0=    0 NMtDT0=    0
 Symmetry not used in FoFCou.
 E= -346.704630791663    
 DIIS: error= 1.89D-02 at cycle   1 NSaved=   1.
 NSaved= 1 IEnMin= 1 EnMin= -346.704630791663     IErMin= 1 ErrMin= 1.89D-02
 ErrMax= 1.89D-02  0.00D+00 EMaxC= 1.00D-01 BMatC= 2.78D-01 BMatP= 2.78D-01
 IDIUse=3 WtCom= 8.11D-01 WtEn= 1.89D-01
 Coeff-Com:  0.100D+01
 Coeff-En:   0.100D+01
 Coeff:      0.100D+01
 Gap=     0.365 Goal=   None    Shift=    0.000
 GapD=    0.365 DampG=1.000 DampE=0.500 DampFc=0.5000 IDamp=-1.
 Damping current iteration by 5.00D-01
 RMSDP=1.96D-03 MaxDP=9.50D-02              OVMax= 1.32D-01

 Cycle   2  Pass 0  IDiag  1:
 RMSU=  9.79D-04    CP:  1.00D+00
 E= -346.820337112179     Delta-E=       -0.115706320517 Rises=F Damp=T
 DIIS: error= 4.79D-03 at cycle   2 NSaved=   2.
 NSaved= 2 IEnMin= 2 EnMin= -346.820337112179     IErMin= 2 ErrMin= 4.79D-03
 ErrMax= 4.79D-03  0.00D+00 EMaxC= 1.00D-01 BMatC= 2.10D-02 BMatP= 2.78D-01
 IDIUse=3 WtCom= 9.52D-01 WtEn= 4.79D-02
 Coeff-Com: -0.146D+00 0.115D+01
 Coeff-En:   0.000D+00 0.100D+01
 Coeff:     -0.139D+00 0.114D+01
 Gap=     0.354 Goal=   None    Shift=    0.000
 RMSDP=4.46D-04 MaxDP=1.45D-02 DE=-1.16D-01 OVMax= 7.01D-02

 Cycle   3  Pass 0  IDiag  1:
 RMSU=  4.44D-04    CP:  1.00D+00  9.72D-01
 E= -346.923135268784     Delta-E=       -0.102798156605 Rises=F Damp=F
 DIIS: error= 2.05D-03 at cycle   3 NSaved=   3.
 NSaved= 3 IEnMin= 3 EnMin= -346.923135268784     IErMin= 3 ErrMin= 2.05D-03
 ErrMax= 2.05D-03  0.00D+00 EMaxC= 1.00D-01 BMatC= 3.03D-03 BMatP= 2.10D-02
 IDIUse=3 WtCom= 9.80D-01 WtEn= 2.05D-02
 Coeff-Com: -0.819D-01 0.295D+00 0.787D+00
 Coeff-En:   0.000D+00 0.000D+00 0.100D+01
 Coeff:     -0.802D-01 0.289D+00 0.791D+00
 Gap=     0.355 Goal=   None    Shift=    0.000
 RMSDP=1.42D-04 MaxDP=5.08D-03 DE=-1.03D-01 OVMax= 1.09D-02

 Cycle   4  Pass 0  IDiag  1:
 RMSU=  1.05D-04    CP:  1.00D+00  1.05D+00  8.88D-01
 E= -346.924817372280     Delta-E=       -0.001682103496 Rises=F Damp=F
 DIIS: error= 1.02D-03 at cycle   4 NSaved=   4.
 NSaved= 4 IEnMin= 4 EnMin= -346.924817372280     IErMin= 4 ErrMin= 1.02D-03
 ErrMax= 1.02D-03  0.00D+00 EMaxC= 1.00D-01 BMatC= 8.89D-04 BMatP= 3.03D-03
 IDIUse=3 WtCom= 9.90D-01 WtEn= 1.02D-02
 Coeff-Com: -0.272D-01 0.710D-01 0.396D+00 0.561D+00
 Coeff-En:   0.000D+00 0.000D+00 0.176D+00 0.824D+00
 Coeff:     -0.270D-01 0.703D-01 0.393D+00 0.563D+00
 Gap=     0.352 Goal=   None    Shift=    0.000
 RMSDP=5.21D-05 MaxDP=1.90D-03 DE=-1.68D-03 OVMax= 5.40D-03

 Cycle   5  Pass 0  IDiag  1:
 RMSU=  2.52D-05    CP:  1.00D+00  1.04D+00  9.36D-01  6.33D-01
 E= -346.925472882308     Delta-E=       -0.000655510027 Rises=F Damp=F
 DIIS: error= 2.09D-04 at cycle   5 NSaved=   5.
 NSaved= 5 IEnMin= 5 EnMin= -346.925472882308     IErMin= 5 ErrMin= 2.09D-04
 ErrMax= 2.09D-04  0.00D+00 EMaxC= 1.00D-01 BMatC= 2.70D-05 BMatP= 8.89D-04
 IDIUse=3 WtCom= 9.98D-01 WtEn= 2.09D-03
 Coeff-Com: -0.523D-02 0.103D-01 0.107D+00 0.221D+00 0.667D+00
 Coeff-En:   0.000D+00 0.000D+00 0.000D+00 0.000D+00 0.100D+01
 Coeff:     -0.522D-02 0.103D-01 0.106D+00 0.221D+00 0.668D+00
 Gap=     0.351 Goal=   None    Shift=    0.000
 RMSDP=1.07D-05 MaxDP=2.91D-04 DE=-6.56D-04 OVMax= 9.81D-04

 Cycle   6  Pass 0  IDiag  1:
 RMSU=  8.54D-06    CP:  1.00D+00  1.04D+00  9.43D-01  6.59D-01  8.42D-01
 E= -346.925491772197     Delta-E=       -0.000018889889 Rises=F Damp=F
 DIIS: error= 4.31D-05 at cycle   6 NSaved=   6.
 NSaved= 6 IEnMin= 6 EnMin= -346.925491772197     IErMin= 6 ErrMin= 4.31D-05
 ErrMax= 4.31D-05  0.00D+00 EMaxC= 1.00D-01 BMatC= 1.74D-06 BMatP= 2.70D-05
 IDIUse=1 WtCom= 1.00D+00 WtEn= 0.00D+00
 Coeff-Com: -0.771D-05-0.108D-02 0.146D-01 0.527D-01 0.243D+00 0.690D+00
 Coeff:     -0.771D-05-0.108D-02 0.146D-01 0.527D-01 0.243D+00 0.690D+00
 Gap=     0.352 Goal=   None    Shift=    0.000
 RMSDP=3.41D-06 MaxDP=1.12D-04 DE=-1.89D-05 OVMax= 5.34D-04

 Initial convergence to 1.0D-05 achieved.  Increase integral accuracy.
 Cycle   7  Pass 1  IDiag  1:
 E= -346.925478782255     Delta-E=        0.000012989942 Rises=F Damp=F
 DIIS: error= 2.62D-05 at cycle   1 NSaved=   1.
 NSaved= 1 IEnMin= 1 EnMin= -346.925478782255     IErMin= 1 ErrMin= 2.62D-05
 ErrMax= 2.62D-05  0.00D+00 EMaxC= 1.00D-01 BMatC= 7.84D-07 BMatP= 7.84D-07
 IDIUse=1 WtCom= 1.00D+00 WtEn= 0.00D+00
 Coeff-Com:  0.100D+01
 Coeff:      0.100D+01
 Gap=     0.351 Goal=   None    Shift=    0.000
 RMSDP=3.41D-06 MaxDP=1.12D-04 DE= 1.30D-05 OVMax= 3.08D-04

 Cycle   8  Pass 1  IDiag  1:
 RMSU=  7.60D-06    CP:  1.00D+00
 E= -346.925478956372     Delta-E=       -0.000000174118 Rises=F Damp=F
 DIIS: error= 1.95D-05 at cycle   2 NSaved=   2.
 NSaved= 2 IEnMin= 2 EnMin= -346.925478956372     IErMin= 2 ErrMin= 1.95D-05
 ErrMax= 1.95D-05  0.00D+00 EMaxC= 1.00D-01 BMatC= 3.40D-07 BMatP= 7.84D-07
 IDIUse=1 WtCom= 1.00D+00 WtEn= 0.00D+00
 Coeff-Com:  0.363D+00 0.637D+00
 Coeff:      0.363D+00 0.637D+00
 Gap=     0.352 Goal=   None    Shift=    0.000
 RMSDP=1.72D-06 MaxDP=4.69D-05 DE=-1.74D-07 OVMax= 3.31D-04

 Cycle   9  Pass 1  IDiag  1:
 RMSU=  1.71D-06    CP:  1.00D+00  9.75D-01
 E= -346.925479181914     Delta-E=       -0.000000225541 Rises=F Damp=F
 DIIS: error= 9.75D-06 at cycle   3 NSaved=   3.
 NSaved= 3 IEnMin= 3 EnMin= -346.925479181914     IErMin= 3 ErrMin= 9.75D-06
 ErrMax= 9.75D-06  0.00D+00 EMaxC= 1.00D-01 BMatC= 8.98D-08 BMatP= 3.40D-07
 IDIUse=1 WtCom= 1.00D+00 WtEn= 0.00D+00
 Coeff-Com: -0.660D-02 0.335D+00 0.672D+00
 Coeff:     -0.660D-02 0.335D+00 0.672D+00
 Gap=     0.352 Goal=   None    Shift=    0.000
 RMSDP=6.16D-07 MaxDP=1.83D-05 DE=-2.26D-07 OVMax= 1.02D-04

 Cycle  10  Pass 1  IDiag  1:
 RMSU=  2.84D-07    CP:  1.00D+00  1.00D+00  7.07D-01
 E= -346.925479254716     Delta-E=       -0.000000072803 Rises=F Damp=F
 DIIS: error= 1.66D-06 at cycle   4 NSaved=   4.
 NSaved= 4 IEnMin= 4 EnMin= -346.925479254716     IErMin= 4 ErrMin= 1.66D-06
 ErrMax= 1.66D-06  0.00D+00 EMaxC= 1.00D-01 BMatC= 2.57D-09 BMatP= 8.98D-08
 IDIUse=1 WtCom= 1.00D+00 WtEn= 0.00D+00
 Coeff-Com: -0.123D-01 0.141D+00 0.305D+00 0.566D+00
 Coeff:     -0.123D-01 0.141D+00 0.305D+00 0.566D+00
 Gap=     0.352 Goal=   None    Shift=    0.000
 RMSDP=1.00D-07 MaxDP=4.78D-06 DE=-7.28D-08 OVMax= 1.22D-05

 Cycle  11  Pass 1  IDiag  1:
 RMSU=  9.52D-08    CP:  1.00D+00  1.01D+00  7.22D-01  9.55D-01
 E= -346.925479256871     Delta-E=       -0.000000002155 Rises=F Damp=F
 DIIS: error= 3.56D-07 at cycle   5 NSaved=   5.
 NSaved= 5 IEnMin= 5 EnMin= -346.925479256871     IErMin= 5 ErrMin= 3.56D-07
 ErrMax= 3.56D-07  0.00D+00 EMaxC= 1.00D-01 BMatC= 1.14D-10 BMatP= 2.57D-09
 IDIUse=1 WtCom= 1.00D+00 WtEn= 0.00D+00
 Coeff-Com: -0.128D-02-0.156D-01-0.360D-01 0.105D+00 0.948D+00
 Coeff:     -0.128D-02-0.156D-01-0.360D-01 0.105D+00 0.948D+00
 Gap=     0.352 Goal=   None    Shift=    0.000
 RMSDP=4.51D-08 MaxDP=1.13D-06 DE=-2.15D-09 OVMax= 5.48D-06

 Cycle  12  Pass 1  IDiag  1:
 RMSU=  2.30D-08    CP:  1.00D+00  1.01D+00  7.25D-01  1.08D+00  1.12D+00
 E= -346.925479257012     Delta-E=       -0.000000000141 Rises=F Damp=F
 DIIS: error= 1.50D-07 at cycle   6 NSaved=   6.
 NSaved= 6 IEnMin= 6 EnMin= -346.925479257012     IErMin= 6 ErrMin= 1.50D-07
 ErrMax= 1.50D-07  0.00D+00 EMaxC= 1.00D-01 BMatC= 1.76D-11 BMatP= 1.14D-10
 IDIUse=1 WtCom= 1.00D+00 WtEn= 0.00D+00
 Coeff-Com:  0.799D-03-0.200D-01-0.466D-01-0.155D-01 0.355D+00 0.726D+00
 Coeff:      0.799D-03-0.200D-01-0.466D-01-0.155D-01 0.355D+00 0.726D+00
 Gap=     0.352 Goal=   None    Shift=    0.000
 RMSDP=1.34D-08 MaxDP=5.03D-07 DE=-1.41D-10 OVMax= 1.42D-06

 Cycle  13  Pass 1  IDiag  1:
 RMSU=  7.87D-09    CP:  1.00D+00  1.01D+00  7.26D-01  1.11D+00  1.19D+00
                    CP:  1.01D+00
 E= -346.925479257033     Delta-E=       -0.000000000021 Rises=F Damp=F
 DIIS: error= 3.59D-08 at cycle   7 NSaved=   7.
 NSaved= 7 IEnMin= 7 EnMin= -346.925479257033     IErMin= 7 ErrMin= 3.59D-08
 ErrMax= 3.59D-08  0.00D+00 EMaxC= 1.00D-01 BMatC= 1.27D-12 BMatP= 1.76D-11
 IDIUse=1 WtCom= 1.00D+00 WtEn= 0.00D+00
 Coeff-Com:  0.367D-03-0.540D-02-0.134D-01-0.114D-01 0.558D-01 0.253D+00
 Coeff-Com:  0.721D+00
 Coeff:      0.367D-03-0.540D-02-0.134D-01-0.114D-01 0.558D-01 0.253D+00
 Coeff:      0.721D+00
 Gap=     0.352 Goal=   None    Shift=    0.000
 RMSDP=3.40D-09 MaxDP=1.08D-07 DE=-2.07D-11 OVMax= 5.46D-07

 SCF Done:  E(RM062X) =  -346.925479257     A.U. after   13 cycles
            NFock= 13  Conv=0.34D-08     -V/T= 2.0062
 KE= 3.447841712958D+02 PE=-1.448339324451D+03 EE= 4.373593679790D+02
 Leave Link  502 at Thu Sep 26 07:54:55 2019, MaxMem=   671088640 cpu:            1226.6 elap:             613.4
 (Enter /shared/centos7/gaussian/g16/l801.exe)
 DoSCS=F DFT=T ScalE2(SS,OS)=  1.000000  1.000000
 Range of M.O.s used for correlation:     1   350
 NBasis=   350 NAE=    28 NBE=    28 NFC=     0 NFV=     0
 NROrb=    350 NOA=    28 NOB=    28 NVA=   322 NVB=   322

 **** Warning!!: The largest alpha MO coefficient is  0.13756604D+02

 Leave Link  801 at Thu Sep 26 07:54:56 2019, MaxMem=   671088640 cpu:               1.3 elap:               0.7
 (Enter /shared/centos7/gaussian/g16/l1101.exe)
 Using compressed storage, NAtomX=    17.
 Will process     18 centers per pass.
 Leave Link 1101 at Thu Sep 26 07:55:25 2019, MaxMem=   671088640 cpu:              57.2 elap:              28.6
 (Enter /shared/centos7/gaussian/g16/l1102.exe)
 Symmetrizing basis deriv contribution to polar:
 IMax=3 JMax=2 DiffMx= 0.00D+00
 Leave Link 1102 at Thu Sep 26 07:55:28 2019, MaxMem=   671088640 cpu:               5.7 elap:               2.9
 (Enter /shared/centos7/gaussian/g16/l1110.exe)
 Forming Gx(P) for the SCF density, NAtomX=    17.
 Integral derivatives from FoFJK, PRISM(SPDF).
 Do as many integral derivatives as possible in FoFJK.
 G2DrvN: MDV=     671087280.
 G2DrvN: will do    18 centers at a time, making    1 passes.
 Calling FoFCou, ICntrl=  3107 FMM=F I1Cent=   0 AccDes= 0.00D+00.
 FoFJK:  IHMeth= 1 ICntrl=    3107 DoSepK=F KAlg= 0 I1Cent=           0 FoldK=F
 IRaf=         0 NMat=       1 IRICut=       1 DoRegI=T DoRafI=F ISym2E= 0 IDoP0=0 IntGTp=1.
 FoFCou: FMM=F IPFlag=           0 FMFlag=      100000 FMFlg1=           0
         NFxFlg=           0 DoJE=F BraDBF=F KetDBF=F FulRan=T
         wScrn=  0.000000 ICntrl=      3107 IOpCl=  0 I1Cent=           0 NGrid=           0
         NMat0=    1 NMatS0=      1 NMatT0=    0 NMatD0=    1 NMtDS0=    0 NMtDT0=    0
 Symmetry not used in FoFCou.
 End of G2Drv F.D. properties file   721 does not exist.
 End of G2Drv F.D. properties file   722 does not exist.
 End of G2Drv F.D. properties file   788 does not exist.
 Leave Link 1110 at Thu Sep 26 08:13:44 2019, MaxMem=   671088640 cpu:            2192.7 elap:            1096.6
 (Enter /shared/centos7/gaussian/g16/l1002.exe)
 Minotr:  Closed shell wavefunction.
          IDoAtm=11111111111111111
          Direct CPHF calculation.
          Differentiating once with respect to nuclear coordinates.
          Requested convergence is 1.0D-08 RMS, and 1.0D-07 maximum.
          Secondary convergence is 1.0D-12 RMS, and 1.0D-12 maximum.
          NewPWx=T KeepS1=F KeepF1=F KeepIn=T MapXYZ=F SortEE=F KeepMc=T.
         5095 words used for storage of precomputed grid.
 Two-electron integrals replicated using symmetry.
          MDV=     671088640 using IRadAn=       1.
          Solving linear equations simultaneously, MaxMat=     380.
 FoF2E skips out because all densities are zero.
 CalDSu exits because no D1Ps are significant.
 FoFJK:  IHMeth= 1 ICntrl=       0 DoSepK=F KAlg= 0 I1Cent=           0 FoldK=F
 IRaf= 950000000 NMat=      51 IRICut=     127 DoRegI=T DoRafI=T ISym2E= 2 IDoP0=3 IntGTp=3.
 FoFCou: FMM=F IPFlag=           0 FMFlag=      100000 FMFlg1=           0
         NFxFlg=           0 DoJE=F BraDBF=F KetDBF=F FulRan=T
         wScrn=  0.000000 ICntrl=         0 IOpCl=  0 I1Cent=           0 NGrid=           0
         NMat0=   51 NMatS0=     51 NMatT0=    0 NMatD0=   51 NMtDS0=    0 NMtDT0=    0
 Integrals replicated using symmetry in FoFCou.
 Raff kept on since  91.97% of shell-pairs survive, threshold=   0.20 IRatSp=92.
          There are    54 degrees of freedom in the 1st order CPHF.  IDoFFX=6 NUNeed=     0.
     48 vectors produced by pass  0 Test12= 1.67D-14 1.85D-09 XBig12= 7.21D-02 5.18D-02.
 AX will form    48 AO Fock derivatives at one time.
     48 vectors produced by pass  1 Test12= 1.67D-14 1.85D-09 XBig12= 1.32D-02 2.71D-02.
     48 vectors produced by pass  2 Test12= 1.67D-14 1.85D-09 XBig12= 4.61D-04 3.29D-03.
     48 vectors produced by pass  3 Test12= 1.67D-14 1.85D-09 XBig12= 5.40D-06 2.66D-04.
     48 vectors produced by pass  4 Test12= 1.67D-14 1.85D-09 XBig12= 3.66D-08 1.68D-05.
     48 vectors produced by pass  5 Test12= 1.67D-14 1.85D-09 XBig12= 1.89D-10 1.28D-06.
     22 vectors produced by pass  6 Test12= 1.67D-14 1.85D-09 XBig12= 7.69D-13 7.55D-08.
      5 vectors produced by pass  7 Test12= 1.67D-14 1.85D-09 XBig12= 3.06D-15 4.72D-09.
 InvSVY:  IOpt=1 It=  1 EMax= 2.22D-16
 Solved reduced A of dimension   315 with    54 vectors.
 End of Minotr F.D. properties file   721 does not exist.
 End of Minotr F.D. properties file   722 does not exist.
 End of Minotr F.D. properties file   788 does not exist.
 Leave Link 1002 at Thu Sep 26 08:44:51 2019, MaxMem=   671088640 cpu:            3733.5 elap:            1867.1
 (Enter /shared/centos7/gaussian/g16/l601.exe)
 Copying SCF densities to generalized density rwf, IOpCl= 0 IROHF=0.

 **********************************************************************

            Population analysis using the SCF density.

 **********************************************************************

 Orbital symmetries:
       Occupied  (A) (A) (A) (A) (A) (A) (A) (A) (A) (A) (A) (A)
                 (A) (A) (A) (A) (A) (A) (A) (A) (A) (A) (A) (A)
                 (A) (A) (A) (A)
       Virtual   (A) (A) (A) (A) (A) (A) (A) (A) (A) (A) (A) (A)
                 (A) (A) (A) (A) (A) (A) (A) (A) (A) (A) (A) (A)
                 (A) (A) (A) (A) (A) (A) (A) (A) (A) (A) (A) (A)
                 (A) (A) (A) (A) (A) (A) (A) (A) (A) (A) (A) (A)
                 (A) (A) (A) (A) (A) (A) (A) (A) (A) (A) (A) (A)
                 (A) (A) (A) (A) (A) (A) (A) (A) (A) (A) (A) (A)
                 (A) (A) (A) (A) (A) (A) (A) (A) (A) (A) (A) (A)
                 (A) (A) (A) (A) (A) (A) (A) (A) (A) (A) (A) (A)
                 (A) (A) (A) (A) (A) (A) (A) (A) (A) (A) (A) (A)
                 (A) (A) (A) (A) (A) (A) (A) (A) (A) (A) (A) (A)
                 (A) (A) (A) (A) (A) (A) (A) (A) (A) (A) (A) (A)
                 (A) (A) (A) (A) (A) (A) (A) (A) (A) (A) (A) (A)
                 (A) (A) (A) (A) (A) (A) (A) (A) (A) (A) (A) (A)
                 (A) (A) (A) (A) (A) (A) (A) (A) (A) (A) (A) (A)
                 (A) (A) (A) (A) (A) (A) (A) (A) (A) (A) (A) (A)
                 (A) (A) (A) (A) (A) (A) (A) (A) (A) (A) (A) (A)
                 (A) (A) (A) (A) (A) (A) (A) (A) (A) (A) (A) (A)
                 (A) (A) (A) (A) (A) (A) (A) (A) (A) (A) (A) (A)
                 (A) (A) (A) (A) (A) (A) (A) (A) (A) (A) (A) (A)
                 (A) (A) (A) (A) (A) (A) (A) (A) (A) (A) (A) (A)
                 (A) (A) (A) (A) (A) (A) (A) (A) (A) (A) (A) (A)
                 (A) (A) (A) (A) (A) (A) (A) (A) (A) (A) (A) (A)
                 (A) (A) (A) (A) (A) (A) (A) (A) (A) (A) (A) (A)
                 (A) (A) (A) (A) (A) (A) (A) (A) (A) (A) (A) (A)
                 (A) (A) (A) (A) (A) (A) (A) (A) (A) (A) (A) (A)
                 (A) (A) (A) (A) (A) (A) (A) (A) (A) (A) (A) (A)
                 (A) (A) (A) (A) (A) (A) (A) (A) (A) (A)
 The electronic state is 1-A.
 Alpha  occ. eigenvalues --  -19.65091 -19.64403 -10.60143 -10.59081 -10.57771
 Alpha  occ. eigenvalues --  -10.54128 -10.53713  -1.19063  -1.16073  -0.89827
 Alpha  occ. eigenvalues --   -0.84094  -0.78783  -0.70450  -0.65968  -0.61816
 Alpha  occ. eigenvalues --   -0.58288  -0.54065  -0.52260  -0.50719  -0.47170
 Alpha  occ. eigenvalues --   -0.45802  -0.45746  -0.45441  -0.44399  -0.41402
 Alpha  occ. eigenvalues --   -0.38918  -0.35322  -0.29263
 Alpha virt. eigenvalues --    0.05890   0.07675   0.08265   0.09791   0.10106
 Alpha virt. eigenvalues --    0.11039   0.12531   0.13530   0.15705   0.16692
 Alpha virt. eigenvalues --    0.17346   0.18224   0.20778   0.24182   0.25528
 Alpha virt. eigenvalues --    0.26165   0.28782   0.29726   0.31685   0.33375
 Alpha virt. eigenvalues --    0.34602   0.36207   0.37352   0.39416   0.39765
 Alpha virt. eigenvalues --    0.40445   0.40966   0.44062   0.45281   0.45588
 Alpha virt. eigenvalues --    0.46076   0.47596   0.48700   0.49112   0.49440
 Alpha virt. eigenvalues --    0.50241   0.52325   0.52980   0.53385   0.54239
 Alpha virt. eigenvalues --    0.54898   0.56285   0.57638   0.59068   0.61423
 Alpha virt. eigenvalues --    0.62084   0.65010   0.70193   0.72842   0.74608
 Alpha virt. eigenvalues --    0.75816   0.76587   0.80291   0.80874   0.82729
 Alpha virt. eigenvalues --    0.84390   0.85207   0.86881   0.88160   0.90202
 Alpha virt. eigenvalues --    0.92120   0.92622   0.95858   0.97337   0.99926
 Alpha virt. eigenvalues --    1.01927   1.03047   1.03731   1.04611   1.06252
 Alpha virt. eigenvalues --    1.07111   1.08739   1.10098   1.11201   1.13703
 Alpha virt. eigenvalues --    1.16152   1.16566   1.18283   1.19966   1.20538
 Alpha virt. eigenvalues --    1.22084   1.23359   1.24706   1.25499   1.26830
 Alpha virt. eigenvalues --    1.29067   1.30662   1.31708   1.34518   1.34918
 Alpha virt. eigenvalues --    1.35470   1.36424   1.38197   1.38856   1.40944
 Alpha virt. eigenvalues --    1.41626   1.42755   1.45934   1.46594   1.50585
 Alpha virt. eigenvalues --    1.51797   1.53009   1.55535   1.57321   1.58826
 Alpha virt. eigenvalues --    1.61060   1.64330   1.66571   1.72997   1.87369
 Alpha virt. eigenvalues --    1.92751   1.98573   1.99243   2.03290   2.07875
 Alpha virt. eigenvalues --    2.08374   2.11746   2.13727   2.13863   2.17577
 Alpha virt. eigenvalues --    2.21427   2.26297   2.28246   2.30346   2.33997
 Alpha virt. eigenvalues --    2.35037   2.36250   2.38794   2.39384   2.43870
 Alpha virt. eigenvalues --    2.47794   2.49253   2.53112   2.54669   2.56495
 Alpha virt. eigenvalues --    2.58915   2.60923   2.63293   2.65964   2.67338
 Alpha virt. eigenvalues --    2.70595   2.73427   2.75483   2.76799   2.78447
 Alpha virt. eigenvalues --    2.80685   2.81387   2.82062   2.82989   2.85282
 Alpha virt. eigenvalues --    2.86673   2.87868   2.89801   2.91018   2.93797
 Alpha virt. eigenvalues --    2.95351   2.97587   2.98104   2.99060   3.00981
 Alpha virt. eigenvalues --    3.01453   3.04017   3.04705   3.06952   3.07798
 Alpha virt. eigenvalues --    3.09359   3.09967   3.11917   3.12360   3.12708
 Alpha virt. eigenvalues --    3.14268   3.16946   3.19077   3.21154   3.23223
 Alpha virt. eigenvalues --    3.24933   3.25833   3.27828   3.29432   3.30332
 Alpha virt. eigenvalues --    3.31632   3.33213   3.33707   3.34221   3.36419
 Alpha virt. eigenvalues --    3.37370   3.38332   3.40031   3.40494   3.42161
 Alpha virt. eigenvalues --    3.43523   3.47434   3.49724   3.50945   3.52834
 Alpha virt. eigenvalues --    3.53018   3.55963   3.59165   3.60981   3.61365
 Alpha virt. eigenvalues --    3.65181   3.66819   3.67506   3.68309   3.71644
 Alpha virt. eigenvalues --    3.72897   3.73521   3.75444   3.76965   3.77589
 Alpha virt. eigenvalues --    3.78864   3.80630   3.81063   3.83779   3.86507
 Alpha virt. eigenvalues --    3.88324   3.88643   3.90172   3.92176   3.92831
 Alpha virt. eigenvalues --    3.94364   3.96497   3.97871   4.01287   4.01919
 Alpha virt. eigenvalues --    4.03498   4.04381   4.06506   4.07637   4.08067
 Alpha virt. eigenvalues --    4.09562   4.12395   4.13523   4.15566   4.17056
 Alpha virt. eigenvalues --    4.20207   4.21805   4.24903   4.27219   4.28281
 Alpha virt. eigenvalues --    4.31234   4.32576   4.33876   4.37075   4.39175
 Alpha virt. eigenvalues --    4.40970   4.44275   4.49327   4.50364   4.54101
 Alpha virt. eigenvalues --    4.55566   4.60432   4.63453   4.67268   4.69221
 Alpha virt. eigenvalues --    4.69463   4.72821   4.74428   4.75745   4.79325
 Alpha virt. eigenvalues --    4.82640   4.84919   4.88914   4.90981   4.92259
 Alpha virt. eigenvalues --    4.93033   4.95407   5.00150   5.02463   5.03648
 Alpha virt. eigenvalues --    5.05270   5.06699   5.09336   5.10891   5.14495
 Alpha virt. eigenvalues --    5.17960   5.20237   5.22592   5.24933   5.27631
 Alpha virt. eigenvalues --    5.28629   5.32248   5.37472   5.42658   5.47541
 Alpha virt. eigenvalues --    5.49605   5.55933   5.59047   5.63651   5.73066
 Alpha virt. eigenvalues --    5.75984   5.77687   5.79744   5.80211   5.84003
 Alpha virt. eigenvalues --    5.85650   5.96840   6.21405   6.23773   6.32941
 Alpha virt. eigenvalues --    6.35059   6.41142   6.56157   6.61306   6.73590
 Alpha virt. eigenvalues --    6.75012   6.76528   6.81999   6.83423   7.04892
 Alpha virt. eigenvalues --    7.10136   7.13925   7.26605   7.29100   7.37044
 Alpha virt. eigenvalues --    9.97790  10.59601  11.51463  12.09405  13.09941
 Alpha virt. eigenvalues --   13.38500  14.16071
          Condensed to atoms (all electrons):
               1          2          3          4          5          6
     1  O    7.925619  -0.000705   0.281358  -0.040993  -0.048735   0.336634
     2  O   -0.000705   7.777084  -0.000051  -0.000066  -0.014870  -0.073650
     3  C    0.281358  -0.000051   4.915612   0.316349   0.280574  -0.085044
     4  C   -0.040993  -0.000066   0.316349   4.981682  -0.056789   0.006624
     5  C   -0.048735  -0.014870   0.280574  -0.056789   5.107697   0.020262
     6  C    0.336634  -0.073650  -0.085044   0.006624   0.020262   5.005908
     7  C   -0.076445   0.346835  -0.005504   0.000094   0.007669   0.523440
     8  H   -0.057452   0.000009   0.407314  -0.049609  -0.067361   0.009924
     9  H    0.004927   0.000003  -0.041285   0.387841   0.004755   0.001781
    10  H    0.002660   0.000001  -0.037227   0.397508   0.005750  -0.000437
    11  H    0.002136  -0.000000  -0.050903   0.407903  -0.006280  -0.000379
    12  H    0.002308  -0.000162  -0.039207  -0.014566   0.401098   0.001310
    13  H   -0.008834   0.021920  -0.030493   0.006171   0.370529  -0.018373
    14  H    0.005045   0.000448  -0.031483   0.002734   0.386642  -0.000658
    15  H   -0.053684   0.005218  -0.004703  -0.000788  -0.000896   0.423029
    16  H    0.003434  -0.033974  -0.000802   0.000032   0.000016  -0.064025
    17  H    0.017401   0.331486  -0.006532   0.000079   0.005916  -0.007870
               7          8          9         10         11         12
     1  O   -0.076445  -0.057452   0.004927   0.002660   0.002136   0.002308
     2  O    0.346835   0.000009   0.000003   0.000001  -0.000000  -0.000162
     3  C   -0.005504   0.407314  -0.041285  -0.037227  -0.050903  -0.039207
     4  C    0.000094  -0.049609   0.387841   0.397508   0.407903  -0.014566
     5  C    0.007669  -0.067361   0.004755   0.005750  -0.006280   0.401098
     6  C    0.523440   0.009924   0.001781  -0.000437  -0.000379   0.001310
     7  C    4.935300  -0.008403  -0.000005   0.000026   0.000023  -0.000334
     8  H   -0.008403   0.662120   0.006203  -0.010753   0.004822   0.008933
     9  H   -0.000005   0.006203   0.560097  -0.025998  -0.028813   0.001360
    10  H    0.000026  -0.010753  -0.025998   0.591366  -0.035599   0.000413
    11  H    0.000023   0.004822  -0.028813  -0.035599   0.604371   0.000710
    12  H   -0.000334   0.008933   0.001360   0.000413   0.000710   0.590890
    13  H   -0.008674  -0.005709  -0.000869  -0.000276   0.001240  -0.038626
    14  H   -0.001395  -0.006879  -0.000375  -0.000093  -0.000451  -0.031007
    15  H   -0.083132   0.012417   0.000156   0.000071  -0.000029   0.000050
    16  H    0.416533  -0.000173  -0.000003  -0.000002  -0.000002  -0.000006
    17  H   -0.051558   0.001451   0.000136  -0.000019  -0.000027   0.000915
              13         14         15         16         17
     1  O   -0.008834   0.005045  -0.053684   0.003434   0.017401
     2  O    0.021920   0.000448   0.005218  -0.033974   0.331486
     3  C   -0.030493  -0.031483  -0.004703  -0.000802  -0.006532
     4  C    0.006171   0.002734  -0.000788   0.000032   0.000079
     5  C    0.370529   0.386642  -0.000896   0.000016   0.005916
     6  C   -0.018373  -0.000658   0.423029  -0.064025  -0.007870
     7  C   -0.008674  -0.001395  -0.083132   0.416533  -0.051558
     8  H   -0.005709  -0.006879   0.012417  -0.000173   0.001451
     9  H   -0.000869  -0.000375   0.000156  -0.000003   0.000136
    10  H   -0.000276  -0.000093   0.000071  -0.000002  -0.000019
    11  H    0.001240  -0.000451  -0.000029  -0.000002  -0.000027
    12  H   -0.038626  -0.031007   0.000050  -0.000006   0.000915
    13  H    0.629736  -0.022381  -0.001194  -0.000670  -0.013251
    14  H   -0.022381   0.577773   0.000378   0.000018   0.000502
    15  H   -0.001194   0.000378   0.595573  -0.005440   0.001360
    16  H   -0.000670   0.000018  -0.005440   0.520419   0.006783
    17  H   -0.013251   0.000502   0.001360   0.006783   0.441388
 Mulliken charges:
               1
     1  O   -0.294674
     2  O   -0.359525
     3  C    0.132030
     4  C   -0.344204
     5  C   -0.395976
     6  C   -0.078476
     7  C    0.005530
     8  H    0.093148
     9  H    0.130090
    10  H    0.112609
    11  H    0.101278
    12  H    0.115922
    13  H    0.119753
    14  H    0.121183
    15  H    0.111613
    16  H    0.157860
    17  H    0.271840
 Sum of Mulliken charges =  -0.00000
 Mulliken charges with hydrogens summed into heavy atoms:
               1
     1  O   -0.294674
     2  O   -0.087685
     3  C    0.225177
     4  C   -0.000227
     5  C   -0.039118
     6  C    0.033137
     7  C    0.163390
 APT charges:
               1
     1  O   -0.213328
     2  O   -0.159239
     3  C   -0.026589
     4  C   -1.280868
     5  C   -1.033222
     6  C   -0.551600
     7  C   -0.364861
     8  H    0.296177
     9  H    0.339064
    10  H    0.456712
    11  H    0.392988
    12  H    0.398672
    13  H    0.177650
    14  H    0.411839
    15  H    0.385280
    16  H    0.592875
    17  H    0.178450
 Sum of APT charges =  -0.00000
 APT charges with hydrogens summed into heavy atoms:
               1
     1  O   -0.213328
     2  O    0.019211
     3  C    0.269588
     4  C   -0.092104
     5  C   -0.045061
     6  C   -0.166320
     7  C    0.228014
 Electronic spatial extent (au):  <R**2>=            913.9275
 Charge=              0.0000 electrons
 Dipole moment (field-independent basis, Debye):
    X=             -1.5694    Y=              0.1522    Z=              1.2276  Tot=              1.9983
 Quadrupole moment (field-independent basis, Debye-Ang):
   XX=            -45.1611   YY=            -43.8620   ZZ=            -44.0127
   XY=             -2.8363   XZ=              1.6345   YZ=             -2.5502
 Traceless Quadrupole moment (field-independent basis, Debye-Ang):
   XX=             -0.8158   YY=              0.4832   ZZ=              0.3326
   XY=             -2.8363   XZ=              1.6345   YZ=             -2.5502
 Octapole moment (field-independent basis, Debye-Ang**2):
  XXX=             -0.0343  YYY=              0.3294  ZZZ=             -4.1018  XYY=              0.4434
  XXY=             -9.1689  XXZ=              6.9163  XZZ=              1.4187  YZZ=              1.1093
  YYZ=             -0.0330  XYZ=             -1.5885
 Hexadecapole moment (field-independent basis, Debye-Ang**3):
 XXXX=           -849.6131 YYYY=           -263.3111 ZZZZ=           -112.1159 XXXY=            -17.2745
 XXXZ=             21.2947 YYYX=              6.4412 YYYZ=             -7.9966 ZZZX=             -6.4980
 ZZZY=             -0.9560 XXYY=           -188.7273 XXZZ=           -156.0558 YYZZ=            -57.4922
 XXYZ=             -4.7073 YYXZ=              0.8846 ZZXY=              2.9448
 N-N= 3.192703059193D+02 E-N=-1.448339326928D+03  KE= 3.447841712958D+02
  Exact polarizability:   0.000   0.000   0.000   0.000   0.000   0.000
 Approx polarizability:  90.009   4.783  77.384   0.493  -5.076  72.023
 No NMR shielding tensors so no spin-rotation constants.
 Leave Link  601 at Thu Sep 26 08:45:19 2019, MaxMem=   671088640 cpu:              55.7 elap:              27.9
 (Enter /shared/centos7/gaussian/g16/l701.exe)
 SCFChk:  SCF convergence  3.40D-09 required  1.00D-08
 ... and contract with generalized density number  0.
 Compute integral second derivatives.
 Entering OneElI...
 Calculate overlap and kinetic energy integrals
    NBasis = 395  MinDer = 2  MaxDer = 2
 Requested accuracy = 0.1000D-12
 PrmmSu-InSpLW:  IPartL=    0 NPrtUS=   20 NPrtUL=    1 DoSpLW=F IThBeg=    0 IThEnd=   19 NThAct=   20.
 PrsmSu:  NPrtUS=  20 ThrOK=T IAlg=1 NPAlg=1 LenDen=           0 ISkipM=0 DoSpLW=F IThBeg=    0 IThEnd=   19.
 Prism:   IPart=     0 DynPar=F LinDyn=F Incr=           4.
 PRISM was handed    33311686 working-precision words and  8446 shell-pairs
 PRISM was handed    33311686 working-precision words and  8446 shell-pairs
 PRISM was handed    33311686 working-precision words and  8446 shell-pairs
 PRISM was handed    33311686 working-precision words and  8446 shell-pairs
 PRISM was handed    33311686 working-precision words and  8446 shell-pairs
 PRISM was handed    33311686 working-precision words and  8446 shell-pairs
 PRISM was handed    33311686 working-precision words and  8446 shell-pairs
 PRISM was handed    33311686 working-precision words and  8446 shell-pairs
 PRISM was handed    33311686 working-precision words and  8446 shell-pairs
 PRISM was handed    33311686 working-precision words and  8446 shell-pairs
 PRISM was handed    33311686 working-precision words and  8446 shell-pairs
 PRISM was handed    33311686 working-precision words and  8446 shell-pairs
 PRISM was handed    33311686 working-precision words and  8446 shell-pairs
 IPart= 16 NShTot=         400 NBatch=          40 AvBLen=        10.0
 PRISM was handed    33311686 working-precision words and  8446 shell-pairs
 PRISM was handed    33311686 working-precision words and  8446 shell-pairs
 IPart=  0 NShTot=         467 NBatch=          83 AvBLen=         5.6
 IPart=  1 NShTot=         460 NBatch=          78 AvBLen=         5.9
 IPart=  2 NShTot=         452 NBatch=          73 AvBLen=         6.2
 IPart=  7 NShTot=         428 NBatch=          53 AvBLen=         8.1
 PRISM was handed    33311686 working-precision words and  8446 shell-pairs
 PRISM was handed    33311686 working-precision words and  8446 shell-pairs
 PRISM was handed    33311686 working-precision words and  8446 shell-pairs
 IPart=  4 NShTot=         441 NBatch=          64 AvBLen=         6.9
 PRISM was handed    33311686 working-precision words and  8446 shell-pairs
 PRISM was handed    33311686 working-precision words and  8446 shell-pairs
 IPart=  6 NShTot=         435 NBatch=          60 AvBLen=         7.3
 IPart= 11 NShTot=         414 NBatch=          45 AvBLen=         9.2
 IPart= 10 NShTot=         416 NBatch=          47 AvBLen=         8.9
 IPart= 13 NShTot=         406 NBatch=          40 AvBLen=        10.2
 IPart= 18 NShTot=         395 NBatch=          38 AvBLen=        10.4
 IPart=  5 NShTot=         438 NBatch=          62 AvBLen=         7.1
 IPart= 12 NShTot=         410 NBatch=          41 AvBLen=        10.0
 IPart=  3 NShTot=         447 NBatch=          70 AvBLen=         6.4
 IPart=  9 NShTot=         418 NBatch=          49 AvBLen=         8.5
 IPart= 17 NShTot=         398 NBatch=          40 AvBLen=         9.9
 IPart= 15 NShTot=         401 NBatch=          40 AvBLen=        10.0
 IPart= 19 NShTot=         394 NBatch=          38 AvBLen=        10.4
 IPart=  8 NShTot=         422 NBatch=          52 AvBLen=         8.1
 IPart= 14 NShTot=         404 NBatch=          40 AvBLen=        10.1
 PrSmSu:  NxtVal=             81.
 Entering OneElI...
 Calculate potential energy integrals
    NBasis = 395  MinDer = 2  MaxDer = 2
 Requested accuracy = 0.1000D-12
 PrmmSu-InSpLW:  IPartL=    0 NPrtUS=   20 NPrtUL=    1 DoSpLW=F IThBeg=    0 IThEnd=   19 NThAct=   20.
 PrsmSu:  NPrtUS=  20 ThrOK=T IAlg=1 NPAlg=1 LenDen=           0 ISkipM=0 DoSpLW=F IThBeg=    0 IThEnd=   19.
 Prism:   IPart=     0 DynPar=F LinDyn=F Incr=          66.
 PRISM was handed    33354575 working-precision words and  7769 shell-pairs
 PRISM was handed    33354575 working-precision words and  7769 shell-pairs
 PRISM was handed    33354575 working-precision words and  7769 shell-pairs
 PRISM was handed    33354575 working-precision words and  7769 shell-pairs
 PRISM was handed    33354575 working-precision words and  7769 shell-pairs
 PRISM was handed    33354575 working-precision words and  7769 shell-pairs
 PRISM was handed    33354575 working-precision words and  7769 shell-pairs
 PRISM was handed    33354575 working-precision words and  7769 shell-pairs
 PRISM was handed    33354575 working-precision words and  7769 shell-pairs
 PRISM was handed    33354575 working-precision words and  7769 shell-pairs
 PRISM was handed    33354575 working-precision words and  7769 shell-pairs
 PRISM was handed    33354575 working-precision words and  7769 shell-pairs
 PRISM was handed    33354575 working-precision words and  7769 shell-pairs
 PRISM was handed    33354575 working-precision words and  7769 shell-pairs
 PRISM was handed    33354575 working-precision words and  7769 shell-pairs
 PRISM was handed    33354575 working-precision words and  7769 shell-pairs
 PRISM was handed    33354575 working-precision words and  7769 shell-pairs
 PRISM was handed    33354575 working-precision words and  7769 shell-pairs
 PRISM was handed    33354575 working-precision words and  7769 shell-pairs
 PRISM was handed    33354575 working-precision words and  7769 shell-pairs
 IPart=  8 NShTot=        6613 NBatch=         389 AvBLen=        17.0
 IPart=  3 NShTot=        6902 NBatch=         406 AvBLen=        17.0
 IPart=  2 NShTot=        6987 NBatch=         411 AvBLen=        17.0
 IPart= 16 NShTot=        6307 NBatch=         371 AvBLen=        17.0
 IPart= 17 NShTot=        6290 NBatch=         370 AvBLen=        17.0
 IPart= 11 NShTot=        6494 NBatch=         382 AvBLen=        17.0
 IPart= 10 NShTot=        6528 NBatch=         384 AvBLen=        17.0
 IPart= 12 NShTot=        6443 NBatch=         379 AvBLen=        17.0
 IPart=  4 NShTot=        6851 NBatch=         403 AvBLen=        17.0
 IPart= 14 NShTot=        6392 NBatch=         376 AvBLen=        17.0
 IPart= 13 NShTot=        6426 NBatch=         378 AvBLen=        17.0
 IPart=  9 NShTot=        6545 NBatch=         385 AvBLen=        17.0
 IPart= 18 NShTot=        6188 NBatch=         364 AvBLen=        17.0
 IPart=  6 NShTot=        6783 NBatch=         399 AvBLen=        17.0
 IPart= 15 NShTot=        6358 NBatch=         374 AvBLen=        17.0
 IPart=  0 NShTot=        7259 NBatch=         427 AvBLen=        17.0
 IPart=  7 NShTot=        6630 NBatch=         390 AvBLen=        17.0
 IPart=  1 NShTot=        7157 NBatch=         421 AvBLen=        17.0
 IPart=  5 NShTot=        6783 NBatch=         399 AvBLen=        17.0
 IPart= 19 NShTot=        6137 NBatch=         361 AvBLen=        17.0
 PrSmSu:  NxtVal=           1321.
 Polarizability after L701:
                1             2             3 
      1  0.000000D+00
      2  0.000000D+00  0.000000D+00
      3  0.000000D+00  0.000000D+00  0.000000D+00
 Dipole Derivatives after L701:
                 1             2             3             4             5 
      1  -0.303690D+00  0.442927D-01  0.578138D-02  0.542221D+00  0.243956D+00
      2   0.166238D+00 -0.235451D+00  0.385555D-01  0.567964D+00 -0.459628D+00
      3   0.786081D-01  0.149698D-01 -0.100843D+00 -0.483463D+00  0.995042D-01
                 6             7             8             9            10 
      1  -0.284413D-01  0.248969D+00 -0.205766D+00  0.712116D+00 -0.198995D+01
      2   0.126753D+00  0.133759D+00  0.113087D+00  0.125193D+00 -0.886632D-01
      3  -0.560311D+00  0.228486D+00  0.205115D+00 -0.441824D+00 -0.982322D-02
                11            12            13            14            15 
      1  -0.182192D+00 -0.464402D+00 -0.689799D+00  0.666245D+00 -0.483560D-01
      2  -0.919013D+00 -0.175473D-01 -0.114345D+00 -0.142232D+01 -0.286791D-01
      3   0.292438D-01 -0.933638D+00 -0.989978D-01 -0.254088D+00 -0.987546D+00
                16            17            18            19            20 
      1  -0.638519D+00 -0.834315D-01 -0.280234D+00 -0.678041D+00  0.698603D-01
      2   0.522695D-01 -0.586482D+00  0.504230D+00 -0.213035D+00 -0.305169D+00
      3  -0.271808D+00  0.408025D+00 -0.429800D+00 -0.165058D+00  0.182256D+00
                21            22            23            24            25 
      1  -0.502633D+00  0.162846D+00  0.143458D+00 -0.380971D+00  0.137954D+00
      2   0.230628D+00  0.226754D-01  0.205975D+00 -0.150373D+00  0.377018D-02
      3  -0.111372D+00 -0.570540D-01 -0.145968D+00  0.519710D+00  0.630839D-02
                26            27            28            29            30 
      1   0.546068D+00  0.734234D+00  0.866868D+00  0.483459D+00 -0.809093D+00
      2   0.371031D+00  0.353121D+00  0.188375D+00  0.218206D+00 -0.228876D+00
      3   0.317757D+00  0.508207D+00 -0.131342D+00 -0.110072D+00  0.285064D+00
                31            32            33            34            35 
      1   0.627067D+00 -0.918757D+00  0.380380D+00  0.380218D+00 -0.329559D+00
      2  -0.118598D+00  0.381176D+00 -0.100289D+00 -0.346398D+00  0.582933D+00
      3   0.124512D+00 -0.225698D+00  0.170721D+00  0.112933D+00 -0.964538D-01
                36            37            38            39            40 
      1   0.375334D+00  0.219036D+00 -0.403562D-01 -0.329574D-01  0.176972D+00
      2  -0.483902D+00  0.491598D+00  0.188219D+00 -0.133119D+00 -0.141995D+00
      3   0.232864D+00  0.651973D-01  0.732071D-02  0.125695D+00 -0.125345D+00
                41            42            43            44            45 
      1  -0.172048D+00 -0.393260D+00  0.128818D+00 -0.216772D+00  0.231260D+00
      2   0.390215D+00  0.626376D+00  0.772525D-01  0.729778D+00 -0.495796D+00
      3   0.220915D+00  0.668331D+00  0.139690D-01 -0.327532D+00  0.297245D+00
                46            47            48            49            50 
      1   0.121233D+01 -0.355783D+00  0.703414D+00 -0.403300D+00  0.307327D+00
      2  -0.226202D+00  0.250802D+00 -0.194047D+00 -0.454665D+00  0.496641D+00
      3   0.305154D+00 -0.136747D+00  0.315488D+00  0.407721D+00 -0.188548D+00
                51 
      1  -0.202173D+00
      2  -0.172228D+00
      3   0.442009D+00
 Hessian after L701:
                1             2             3             4             5 
      1  0.503128D+01
      2  0.390805D+01  0.150846D+02
      3 -0.115119D+01 -0.119463D+01  0.150114D+02
      4  0.565434D+00  0.566846D+00  0.355083D-01  0.895496D+01
      5  0.502605D+00 -0.122400D+00  0.253107D-02 -0.432478D+00  0.869117D+01
      6  0.942703D-01  0.327610D-01 -0.401192D+00 -0.778671D+00  0.484454D+01
      7 -0.388405D+01 -0.317313D+01 -0.279168D+01  0.277496D+00  0.127432D+00
      8 -0.308530D+01 -0.680123D+01  0.194846D+01  0.987409D-01 -0.116095D+00
      9 -0.265288D+01  0.187858D+01 -0.703340D+01 -0.615388D-01 -0.200718D-01
     10  0.474772D+00 -0.519761D-01  0.105103D+00  0.107266D+00  0.326305D-01
     11 -0.991000D-01 -0.262339D+00  0.360496D-01  0.414691D-01 -0.577737D-01
     12  0.187324D-01  0.393581D-01 -0.240380D+00 -0.263049D-01 -0.241472D-02
     13 -0.322028D+00 -0.410374D-01  0.103285D+00  0.253596D+00 -0.154662D+00
     14  0.674119D-01  0.695893D+00  0.179495D+00 -0.293755D-01 -0.130016D+00
     15  0.110255D+00  0.250393D+00 -0.181613D+00 -0.154914D+00  0.574284D-01
     16 -0.260981D+01 -0.207149D+01  0.420012D+01  0.314022D+00  0.152884D+00
     17 -0.228295D+01 -0.931554D+01 -0.970777D+00  0.880421D-01  0.530913D-01
     18  0.405639D+01 -0.846359D+00 -0.685331D+01 -0.147543D+00  0.266592D+00
     19  0.383480D+00  0.442909D+00 -0.371099D+00 -0.847517D+01  0.111283D+01
     20  0.516096D+00  0.203597D+00  0.203681D+00  0.142318D+01 -0.227603D+01
     21 -0.364216D+00  0.169284D+00 -0.899932D-01 -0.834751D+00 -0.425228D+01
     22  0.595542D-01  0.199307D+00  0.213412D+00  0.277921D-01  0.125156D-01
     23  0.167389D+00  0.186542D+00 -0.310288D+00  0.232569D-01 -0.792213D-02
     24  0.198331D+00 -0.343947D+00  0.151279D+00 -0.485869D-01 -0.126868D-01
     25  0.970624D-01 -0.136825D-01 -0.223925D-01  0.180357D-01  0.839692D-02
     26  0.410080D-01 -0.828134D-01  0.676882D-02  0.227162D-01 -0.172281D-02
     27  0.540010D-01  0.185903D-03 -0.880537D-01  0.208569D-01  0.608730D-02
     28  0.122019D+00  0.805235D-02 -0.637058D-01  0.225977D-01  0.604345D-02
     29  0.212619D-01 -0.454478D-01 -0.943762D-02  0.117907D-01 -0.324517D-02
     30 -0.709286D-01 -0.565567D-02 -0.156072D-01 -0.139329D-01 -0.291342D-02
     31  0.818749D-01 -0.837361D-01  0.108328D-01  0.283260D-01 -0.468042D-03
     32 -0.926710D-01  0.193911D-01 -0.884880D-02 -0.174069D-01 -0.638757D-02
     33  0.219837D-01 -0.138257D-01 -0.423770D-01  0.786203D-02 -0.290095D-03
     34 -0.106147D-01 -0.773347D-01 -0.480479D-02  0.493356D-01 -0.210180D-01
     35 -0.677754D-01  0.100112D+00  0.155818D-01 -0.419285D-01 -0.523461D-02
     36  0.613456D-02 -0.105474D-01 -0.448612D-01  0.177637D-01 -0.527999D-02
     37  0.381083D-02  0.908061D-01  0.101802D-01  0.811684D-01  0.345985D-01
     38 -0.534958D-03 -0.360777D-02 -0.100994D+00 -0.273444D-01 -0.184937D+00
     39 -0.176838D-01 -0.929197D-01 -0.744810D-01  0.172014D-01 -0.357918D-01
     40 -0.318896D-01 -0.519998D-01 -0.482043D-01  0.349665D-01 -0.147447D-01
     41 -0.523575D-01  0.614917D-01  0.108115D+00 -0.281118D-01 -0.103593D-01
     42 -0.500689D-01  0.118169D+00  0.563190D-01 -0.542581D-01  0.148143D-01
     43 -0.904459D-01  0.204120D+00 -0.304256D+00 -0.129421D-01  0.699981D-01
     44  0.232301D+00  0.231096D+00  0.108813D+00  0.100015D+00  0.116540D+00
     45 -0.287975D+00  0.671695D-01  0.613829D-03 -0.651920D-01 -0.952922D-01
     46  0.147658D+00 -0.340986D-02  0.729677D-01  0.147093D+00  0.316938D-01
     47 -0.194391D-01 -0.392881D-01 -0.157690D-02  0.587529D-01 -0.133443D+00
     48  0.879113D-01  0.368319D-02 -0.261355D-02 -0.165794D-01  0.161529D+00
     49 -0.181082D-01  0.147717D+00  0.592588D-02 -0.239398D+01 -0.146826D+01
     50  0.244006D+00  0.899931D-01 -0.129469D-01 -0.185817D+01 -0.580524D+01
     51 -0.530711D-01 -0.516979D-01 -0.151697D+00  0.210308D+01 -0.926503D+00
                6             7             8             9            10 
      6  0.128775D+02
      7 -0.540254D-01  0.161716D+02
      8 -0.106656D-01  0.219561D+01  0.188256D+02
      9 -0.145470D+00  0.173674D+01 -0.169891D+01  0.203631D+02
     10  0.777642D-03 -0.218707D+01  0.724862D+00  0.145259D+01  0.112485D+02
     11  0.944427D-03  0.686081D+00 -0.573370D+01  0.187638D+00 -0.399310D+00
     12 -0.666203D-01  0.145859D+01  0.205206D+00 -0.530392D+01 -0.951466D+00
     13 -0.129934D+00 -0.627904D+01  0.567261D+00  0.916744D-01  0.104299D+00
     14  0.284926D-01  0.658931D+00 -0.215683D+01  0.627672D+00  0.959796D-01
     15 -0.120565D+00  0.110490D+00  0.616042D+00 -0.615051D+01  0.586541D-01
     16 -0.233798D+00  0.356668D+00 -0.330732D+00 -0.137763D+00  0.312971D+00
     17  0.259756D+00 -0.249877D+00  0.159679D+00  0.654923D-01 -0.758217D-01
     18  0.902162D-01 -0.152250D+00  0.602361D-01  0.578374D-01  0.101092D+00
     19 -0.651423D+00  0.225232D+00 -0.162630D+00 -0.361878D-01  0.971064D-01
     20 -0.427673D+01 -0.816841D-01 -0.113524D+00  0.164235D-01  0.111410D-01
     21 -0.630708D+01 -0.893052D-01  0.400291D-02 -0.128601D+00  0.131829D-01
     22 -0.198569D-01 -0.469156D+01  0.771240D-01 -0.295260D+00 -0.578890D-01
     23 -0.868461D-02  0.227536D-01 -0.430264D+01 -0.979565D+00  0.528566D-03
     24  0.175587D-02 -0.154890D+00 -0.101603D+01 -0.210171D+01 -0.186151D+00
     25  0.397530D-02  0.353057D-01 -0.624758D-01 -0.968477D-01 -0.398070D+01
     26  0.438838D-02 -0.296841D-01  0.855821D-01 -0.248230D-01 -0.704130D-01
     27 -0.429843D-02 -0.410380D-01 -0.106154D-01  0.373481D-01 -0.107240D+00
     28 -0.281381D-02 -0.681873D-01 -0.196027D-01  0.105958D-01 -0.289278D+01
     29 -0.130409D-02 -0.145383D-01  0.692409D-01 -0.813691D-02  0.591300D+00
     30 -0.399828D-02 -0.142249D-01 -0.188834D-01  0.949845D-01 -0.959969D+00
     31  0.306749D-02 -0.615311D-01  0.675726D-01 -0.981128D-01 -0.332506D+01
     32 -0.181572D-02  0.235497D-01  0.144133D+00  0.142248D-01 -0.942568D+00
     33 -0.677509D-02 -0.734266D-01  0.211679D-01  0.720611D-01  0.395796D+00
     34  0.380849D-02  0.100515D+00  0.447834D-02  0.186243D-01 -0.529153D-02
     35 -0.239994D-02  0.113382D-01 -0.956567D-01  0.395629D-01 -0.393443D-01
     36 -0.154160D-01  0.214971D-01 -0.587372D-02  0.104531D+00  0.828917D-02
     37  0.449837D-01 -0.381800D-01 -0.413786D-01  0.119991D-01  0.106871D+00
     38 -0.492609D-01 -0.143307D+00  0.638835D-01  0.647747D-03  0.910433D-01
     39 -0.207707D+00 -0.136717D-01 -0.201227D-01  0.588173D-01  0.206960D-01
     40 -0.274467D-01  0.708734D-01  0.335203D-01 -0.146159D-03 -0.155665D-01
     41  0.125319D-01  0.328834D-01 -0.641357D-01 -0.575334D-01  0.379196D-01
     42  0.655984D-02  0.675708D-02 -0.434095D-01  0.811045D-01  0.370415D-01
     43 -0.407950D-01  0.963716D-02 -0.261118D-01  0.252457D-01  0.492022D-03
     44 -0.816147D-01 -0.464294D-01  0.394252D-01 -0.437448D-01 -0.164343D-01
     45  0.555325D-02  0.351188D-01 -0.357856D-01 -0.135119D-02  0.130978D-01
     46  0.439925D-02  0.185652D-01 -0.127004D-01  0.112267D-01  0.127686D-01
     47  0.179235D+00 -0.969845D-02 -0.423466D-02 -0.523680D-02 -0.326505D-02
     48 -0.349983D-01  0.882552D-02 -0.478911D-02 -0.370495D-02  0.616850D-02
     49  0.178348D+01 -0.562836D-01 -0.282400D-01  0.200435D-01 -0.690011D-03
     50 -0.930177D+00 -0.102291D-01  0.539752D-03  0.778595D-02  0.137266D-01
     51 -0.566744D+01  0.649972D-02  0.996662D-02 -0.113479D-02 -0.765922D-02
               11            12            13            14            15 
     11  0.146982D+02
     12 -0.164126D+00  0.145803D+02
     13  0.211730D+00  0.365622D-01  0.146590D+02
     14  0.306646D-01  0.104331D-01  0.192712D+00  0.125289D+02
     15  0.802849D-01 -0.886388D-01  0.729501D-01 -0.859344D+00  0.160484D+02
     16 -0.841205D-01  0.723807D-01 -0.225753D+00 -0.244334D+00 -0.245075D-01
     17 -0.144097D+00 -0.632016D-02 -0.314384D+00  0.274702D+00  0.197430D-01
     18 -0.161494D-01 -0.146668D+00 -0.922876D-02 -0.113771D-01 -0.302316D+00
     19 -0.959331D-02  0.928952D-02  0.314213D+00 -0.227328D+00 -0.703451D-02
     20 -0.625806D-01  0.603002D-03 -0.246007D+00 -0.950895D-01  0.526736D-02
     21  0.125402D-02 -0.547076D-01 -0.779043D-02 -0.172053D-02 -0.178079D+00
     22 -0.598262D-02 -0.153098D+00  0.239037D+00 -0.613115D-01  0.182770D-01
     23  0.145095D+00 -0.275702D-01 -0.261009D-01 -0.248950D+00  0.156830D+00
     24 -0.352036D-01  0.289026D-01  0.946479D-02  0.214047D+00  0.199046D+00
     25  0.767850D-01  0.863615D-01 -0.629601D-02  0.570568D-01  0.390918D-01
     26 -0.296031D+01  0.120732D+01  0.521253D-01  0.386199D-01  0.632981D-01
     27  0.121356D+01 -0.231936D+01  0.395749D-01  0.607504D-01  0.878721D-02
     28  0.637823D+00 -0.107902D+01  0.525619D-01  0.866577D-01 -0.862898D-02
     29 -0.343715D+01 -0.635164D+00  0.842958D-01  0.298113D-01 -0.843462D-02
     30 -0.608668D+00 -0.281680D+01 -0.196975D-01 -0.148996D-01 -0.411364D-01
     31 -0.113211D+01  0.448296D+00  0.187959D-01  0.275782D-02  0.239698D-01
     32 -0.220319D+01 -0.703424D+00 -0.221321D-01 -0.233885D-01 -0.133522D-01
     33 -0.755422D+00 -0.355388D+01  0.263507D-01  0.179177D-02 -0.129431D-01
     34 -0.357708D-01  0.138224D-01 -0.349339D+01 -0.752591D+00  0.762516D+00
     35 -0.379919D-01  0.152812D-01 -0.812330D+00 -0.299870D+01 -0.118441D+01
     36 -0.479861D-02  0.146423D-01  0.731219D+00 -0.104331D+01 -0.291292D+01
     37  0.882254D-01  0.242708D-01 -0.152696D+01  0.408835D+00 -0.517921D+00
     38  0.494885D-02  0.166833D-01  0.763322D+00 -0.440898D+01 -0.140531D+00
     39  0.116797D-01 -0.387894D-01 -0.459657D+00 -0.666440D-01 -0.434523D+01
     40  0.336972D-01  0.309793D-01 -0.378350D+01 -0.215902D+00 -0.468993D+00
     41  0.259134D-01  0.567640D-01 -0.216590D+00 -0.350482D+01  0.968403D+00
     42  0.685812D-01  0.241856D-01 -0.428794D+00  0.875011D+00 -0.189358D+01
     43 -0.869406D-02  0.695843D-02 -0.141036D-01  0.314224D-03  0.388336D-02
     44  0.274104D-02 -0.742670D-02 -0.166320D-01  0.187229D-01 -0.115049D-01
     45 -0.107649D-01 -0.775089D-02  0.950243D-02 -0.121791D-01 -0.102836D-01
     46 -0.291241D-02  0.220739D-02  0.332804D-01 -0.107142D-01  0.500505D-02
     47 -0.366453D-02 -0.106540D-03 -0.219090D-01 -0.364734D-02 -0.298726D-02
     48 -0.135346D-02 -0.455229D-02  0.141014D-01 -0.227112D-02 -0.946469D-02
     49  0.178237D-02  0.144047D-02 -0.237436D-01 -0.291015D-01 -0.230924D-01
     50 -0.480563D-02 -0.509641D-02  0.339065D-03 -0.468968D-01  0.287464D-02
     51 -0.350271D-02 -0.594964D-02 -0.795838D-01  0.140511D-01 -0.891988D-02
               16            17            18            19            20 
     16  0.957855D+01
     17 -0.209583D+01  0.206280D+02
     18 -0.441532D+01  0.399646D+01  0.228271D+02
     19 -0.320273D+01  0.510690D+01  0.811679D+00  0.129789D+02
     20  0.464081D+01 -0.914279D+01 -0.198583D+01 -0.533192D+01  0.157930D+02
     21  0.965653D+00 -0.194328D+01 -0.124682D+02 -0.103193D+01  0.613945D+01
     22  0.114784D+00  0.689830D-02 -0.535503D-01 -0.774188D-01  0.379429D-02
     23  0.277479D-01 -0.105330D+00 -0.198621D-01  0.673002D-02  0.120105D-01
     24 -0.115243D+00 -0.685269D-02 -0.478475D-01  0.354106D-01 -0.311423D-02
     25  0.411572D-01  0.545165D-02  0.302294D-01  0.134259D-01  0.413194D-02
     26  0.174035D-01 -0.201484D-01  0.856348D-02  0.106658D-01 -0.431048D-02
     27  0.451274D-01  0.497798D-02 -0.972548D-03  0.187742D-01  0.519547D-02
     28  0.209861D-01 -0.221676D-02 -0.328380D-02  0.191961D-01  0.434867D-02
     29  0.225318D-02 -0.967218D-02 -0.111346D-02  0.537347D-02 -0.445453D-02
     30 -0.122063D-01 -0.199041D-03 -0.660162D-02 -0.833496D-02 -0.217660D-02
     31  0.916506D-02 -0.847162D-02  0.471829D-02  0.162200D-01 -0.178647D-02
     32 -0.153562D-01 -0.174869D-03 -0.266129D-02 -0.129750D-01 -0.420084D-02
     33  0.596261D-02 -0.248580D-02 -0.739058D-02  0.697043D-02 -0.307970D-03
     34  0.113612D-01 -0.357759D-01  0.122113D-01  0.121418D-01 -0.119313D-01
     35 -0.381940D-01  0.260285D-01 -0.147424D-01 -0.200385D-01  0.511860D-03
     36  0.146607D-01 -0.184871D-01 -0.124763D-01  0.119038D-01 -0.572067D-02
     37  0.302872D-01 -0.257106D-01 -0.296295D-01 -0.162985D-01  0.193930D-02
     38 -0.709219D-01  0.106097D+00  0.121596D+00 -0.993154D-02 -0.103819D-01
     39 -0.276527D-01  0.780920D-01  0.625013D-02 -0.225313D-01  0.230852D-01
     40  0.459818D-03 -0.218117D-01 -0.929962D-02  0.995738D-03 -0.574259D-02
     41 -0.195127D-01  0.109936D-01  0.103626D-01 -0.937824D-02 -0.532685D-02
     42 -0.144418D-01  0.214641D-01 -0.167650D-02 -0.148841D-01  0.802894D-02
     43 -0.446790D+01  0.608373D-01 -0.582697D-01  0.118570D+00 -0.354056D+00
     44  0.167435D+00 -0.260171D+01 -0.157596D+01 -0.431231D+00 -0.269833D+00
     45 -0.137483D+00 -0.150294D+01 -0.330904D+01  0.185512D+00  0.227816D+00
     46 -0.309428D+00 -0.134814D+00 -0.135615D+00 -0.252322D+01 -0.593855D+00
     47 -0.100181D+00  0.215182D+00 -0.517713D-01 -0.637522D+00 -0.413199D+01
     48 -0.138593D+00 -0.625134D-01  0.180860D+00  0.118319D+01 -0.381276D+00
     49  0.252116D-01 -0.204655D-01 -0.232701D-02  0.115321D+00  0.215395D-01
     50  0.621481D-01 -0.134321D+00  0.620031D-01  0.167135D+00  0.111427D+00
     51 -0.468906D-01  0.678704D-01 -0.579664D-02 -0.119306D+00  0.255960D-01
               21            22            23            24            25 
     21  0.224896D+02
     22  0.393575D-01  0.436333D+01
     23 -0.875237D-03 -0.949702D-01  0.431206D+01
     24 -0.227341D-02  0.222067D+00  0.127501D+01  0.165509D+01
     25  0.722869D-02 -0.464621D-02  0.614797D-02  0.505078D-01  0.366063D+01
     26  0.301965D-02  0.966487D-02 -0.227016D-01  0.265766D-01 -0.190454D+00
     27 -0.211854D-02  0.375411D-01  0.996766D-02  0.712345D-01 -0.240797D+00
     28 -0.299626D-02 -0.514995D-01 -0.968925D-02 -0.272297D-01  0.493865D-01
     29 -0.107376D-02 -0.788753D-02  0.240684D-01 -0.147283D-02  0.295087D-01
     30 -0.346171D-02 -0.309236D-01 -0.274155D-02  0.110637D-01  0.105251D+00
     31  0.197485D-02  0.121675D-01 -0.266361D-01  0.470173D-01  0.784206D-01
     32 -0.849546D-03 -0.213563D-01 -0.749184D-03 -0.344291D-01  0.750354D-01
     33 -0.500911D-02  0.311037D-01 -0.264504D-01  0.269113D-01  0.328332D-01
     34  0.552356D-02 -0.333432D-01 -0.175601D-01  0.136606D-01 -0.433664D-02
     35 -0.322321D-02 -0.604563D-02  0.800706D-01 -0.919705D-01  0.126327D-01
     36 -0.682141D-02  0.334720D-02 -0.735356D-01  0.267064D-01  0.174532D-02
     37 -0.367983D-01  0.418984D-02 -0.158868D-01  0.285046D-02 -0.294408D-02
     38  0.462268D-01 -0.221258D-01 -0.160215D-01  0.169422D-01 -0.743418D-02
     39 -0.561858D-02  0.853160D-02  0.123335D-01  0.876136D-02 -0.374852D-02
     40 -0.554454D-02  0.183412D-01 -0.290085D-02  0.757360D-03 -0.110416D-02
     41  0.635305D-02 -0.443924D-02 -0.609772D-01 -0.793941D-02 -0.260167D-03
     42  0.146866D-02 -0.319768D-03 -0.214822D-02  0.143136D-01  0.305057D-03
     43  0.154301D+00  0.669005D-01 -0.700018D-01 -0.325703D-01  0.331409D-02
     44  0.219389D+00 -0.961759D-01  0.578828D-02  0.336734D-01 -0.431268D-02
     45  0.221624D+00 -0.687931D-02  0.687359D-02 -0.500419D-01  0.570265D-02
     46  0.119779D+01  0.299411D-02  0.241036D-02 -0.594817D-02  0.250782D-02
     47 -0.412676D+00 -0.148670D-02 -0.162950D-02  0.186465D-02 -0.456105D-03
     48 -0.357753D+01  0.168602D-02  0.743587D-03 -0.370768D-02  0.158617D-02
     49 -0.116754D-01  0.727348D-02  0.678175D-02 -0.944735D-02  0.787406D-03
     50  0.269980D-01  0.124771D-01  0.128109D-02 -0.144694D-01  0.392788D-02
     51  0.116788D+00 -0.154353D-01 -0.100342D-01  0.105187D-01 -0.103145D-02
               26            27            28            29            30 
     26  0.302213D+01
     27 -0.117140D+01  0.236875D+01
     28  0.253440D-01  0.125773D+00  0.257730D+01
     29  0.106113D+00 -0.450888D-01 -0.702688D+00  0.336460D+01
     30 -0.290688D-01 -0.167216D+00  0.102046D+01  0.515477D+00  0.298198D+01
     31  0.105084D+00  0.374037D-01  0.138230D+00 -0.311988D-01  0.105771D-01
[...]
   zx         0.424785D+01      0.629467D+00      0.700376D+00
   zy        -0.108086D+02     -0.160166D+01     -0.178209D+01
   zz         0.769767D+02      0.114068D+02      0.126917D+02

 ----------------------------------------------------------------------

 Test job not archived.
 1\1\GINC-C0202\Freq\RM062X\CC-pVTZ\C5H10O2\HARMS.N\26-Sep-2019\0\\#P G
 eom=AllCheck Guess=TCheck SCRF=Check Test GenChk RM062X/CC-pVTZ Freq\\
 Gaussian input prepared by ASE\\0,1\O,2.3737828419,1.1208160089,-1.001
 2244919\O,0.1743420182,1.1302565958,0.6528180636\C,2.5922536041,0.6527
 593337,-2.3369939389\C,3.1257635853,1.8296767338,-3.1239337089\C,1.305
 2343403,0.0949946402,-2.9171566672\C,2.1889637454,0.127593615,-0.07122
 87707\C,1.1330321908,0.1739695067,0.7291768334\H,3.3496119763,-0.13894
 94856,-2.2951671814\H,4.0397360023,2.2096102932,-2.6713606501\H,3.3348
 493597,1.5360156837,-4.1519024884\H,2.3861461055,2.6308759015,-3.13638
 70763\H,0.55609589,0.8856353803,-2.9831265041\H,0.9123873021,-0.703760
 806,-2.2888912632\H,1.4764448623,-0.3028832058,-3.9171710593\H,2.94646
 87254,-0.6424806181,-0.0016252641\H,0.9722594858,-0.544189493,1.518161
 1617\H,0.4374714315,1.7375159267,-0.050085487\\Version=EM64L-G16RevA.0
 3\State=1-A\HF=-346.9495355\RMSD=3.816e-09\RMSF=8.482e-07\ZeroPoint=0.
 147555\Thermal=0.1559412\Dipole=0.3832789,-0.3321934,-0.6944411\Dipole
 Deriv=-0.5430655,-0.028386,0.2951803,-0.2078175,-0.5740357,0.4140658,0
 .3791662,0.1895701,-1.4053807,-0.8665278,0.3086271,0.273536,0.6295537,
 -0.6814812,-0.2667418,-0.0901879,0.05614,-0.31389,0.4745763,0.0823919,
 -0.119086,0.0131395,0.3437412,0.1528306,-0.1460154,-0.0136424,1.010599
 8,0.0356286,-0.0607158,0.028276,-0.056052,-0.0111669,0.0683075,0.02365
 81,0.0449291,-0.016951,-0.086009,-0.1112365,-0.0768776,-0.0770716,0.00
 54352,-0.0443236,0.0033763,0.029802,-0.0678483,0.0102529,0.0366262,-0.
 1555235,0.1369014,0.2318084,-0.7262832,-0.1927286,-0.3701591,0.4249246
 ,0.6908567,-0.4354158,-0.3402692,-0.6133554,0.409668,0.1663187,-0.0705
 213,-0.0967936,0.0155355,-0.0926437,0.0739764,0.0009871,0.0896201,-0.0
 889124,-0.0247233,-0.0348103,0.0555581,-0.0432674,-0.0631629,-0.071843
 2,-0.0446718,-0.0589376,0.0191027,0.0060569,-0.0790463,-0.0261385,0.04
 38866,0.0638755,-0.0044031,0.0276931,0.005108,0.0308843,-0.0572334,0.0
 469388,-0.021841,-0.1086267,-0.0372676,0.1071667,-0.0041882,0.0461426,
 -0.0302401,0.0278765,0.0199638,-0.0111603,0.0668315,-0.023417,0.049192
 9,-0.0190003,0.1022623,-0.0506546,0.0160278,0.0029166,-0.0206488,0.063
 0453,0.0055693,-0.0446018,0.0264635,-0.0556472,-0.0228873,0.0715866,0.
 0358434,0.0823407,0.0429711,0.0579626,0.0270211,0.0326374,0.0103169,0.
 0621858,-0.0643913,0.0147576,-0.0638184,-0.1090713,0.0041434,0.0911468
 ,0.0412083,0.0485345,0.0076866,0.1311563,0.0400375,0.0287067,0.0909549
 ,0.0857344,0.0258775,0.0379862,0.0415996,0.0398324,0.0642506,0.0233407
 ,0.0891545,0.0433213,0.2834936,-0.0454245,-0.0043512,-0.0542973,0.3090
 336,0.0652194,0.0233108,0.0480008,0.2629647\Polar=67.6515843,-0.495622
 4,60.0793881,-10.8667027,-4.9711185,76.1829957\Quadrupole=-1.5038882,1
 .3950029,0.1088853,-1.0972913,0.8678404,-1.9474208\PG=C01 [X(C5H10O2)]
 \NImag=0\\0.11885022,0.00971415,0.34626746,-0.08627654,-0.07707287,0.4
 7655512,0.00007212,-0.00690984,0.00224109,0.31972018,-0.00393265,0.010
 10365,-0.01102922,-0.10235321,0.43457121,-0.00206054,-0.00886806,0.000
 30651,-0.13135411,-0.25348254,0.34404378,-0.06481456,0.01053037,0.0186
 3740,0.00089375,-0.00351531,0.00115304,0.55013079,0.01600201,-0.112270
 92,-0.06122109,-0.00059525,0.00208433,-0.00032712,-0.04572082,0.579871
 02,0.01981867,-0.03647311,-0.16910657,-0.00449402,0.00259789,0.0005335
 5,0.00416729,-0.03751630,0.46047634,-0.00125604,-0.00617304,0.00967763
 ,0.00025412,-0.00002850,0.00002065,-0.09676327,-0.03200535,0.01997140,
 0.57800547,0.00331570,0.01075678,-0.00788440,0.00034415,-0.00050560,0.
 00007633,-0.03755871,-0.17067635,0.06003434,-0.01862301,0.52646647,0.0
 1597561,0.03088184,-0.04095537,0.00048575,-0.00051952,0.00005019,0.018
 55415,0.04579951,-0.10191541,0.01791087,0.04068494,0.56952961,0.008294
 79,0.00067767,0.00261734,-0.00022368,0.00038328,-0.00050402,-0.1795112
 9,-0.03791418,-0.03923517,-0.01467871,-0.00840669,-0.00323531,0.509128
 78,-0.01092234,-0.00461542,-0.01629950,0.00041243,-0.00050032,0.000769
 40,-0.03154506,-0.09494734,-0.00782474,-0.02758638,-0.01301084,-0.0085
 4321,-0.02670657,0.57113258,-0.02798060,-0.01945678,-0.03861276,0.0006
 0424,-0.00075140,-0.00003435,-0.03224081,-0.00740934,-0.08644497,0.015
 38111,0.00612277,0.01080423,-0.03601805,-0.01404677,0.57457193,-0.0668
 4790,-0.00692648,0.03474769,-0.04060726,0.02748969,0.01817493,-0.00758
 180,-0.00636111,0.01226391,-0.00047871,0.00121372,0.00323820,0.0014206
 5,0.00045762,-0.00313171,0.68505538,-0.00904822,-0.20677275,0.12055770
 ,0.05207695,-0.02126153,-0.01238970,-0.00264235,0.01094423,0.01224489,
 0.00088590,-0.00151025,-0.00329423,0.00190219,-0.00085036,-0.00528749,
 -0.19706560,0.47778130,0.03111642,0.09120261,-0.16884760,-0.00072381,0
 .00819932,0.01121426,0.01005897,0.02765626,-0.04855168,-0.00015175,-0.
 00159388,-0.00406680,-0.00185757,0.00012340,0.00117584,-0.29851878,-0.
 14092507,0.51029767,-0.00326606,-0.00031361,0.01013623,-0.20838062,0.1
 4889027,0.00356176,-0.00120457,0.00130310,-0.00248787,0.00017087,-0.00
 051221,-0.00081366,0.00010861,-0.00112411,-0.00052368,-0.37582633,0.01
 579630,0.24539871,0.65283567,-0.02816771,-0.01584034,0.04831734,0.1146
 8255,-0.20191101,0.04415801,0.00292741,-0.00685988,-0.00650466,-0.0003
 5730,0.00149058,0.00209725,-0.00072667,0.00117464,0.00125080,0.0361961
 8,-0.08203876,-0.00525239,-0.13578935,0.50765279,0.03226762,0.01833722
 ,-0.03212638,0.02967261,0.01808526,-0.08480866,0.00002835,0.00387215,0
 .00313391,0.00008325,-0.00071309,-0.00123771,0.00041216,-0.00045940,-0
 .00012799,0.22998490,0.01437758,-0.25636139,-0.30702129,-0.22930744,0.
 58137989,-0.00182625,0.00551574,0.00834501,0.00048483,-0.00030619,0.00
 024721,-0.17017855,0.12167993,-0.01178714,0.00912725,-0.01017514,0.000
 48900,-0.02163846,0.02014092,-0.00390222,0.00071230,0.00118941,-0.0015
 5909,-0.00048937,-0.00025408,0.00030139,0.18503624,0.01025708,-0.01055
 259,-0.01095800,-0.00016626,0.00014508,-0.00016483,0.12160949,-0.17622
 576,0.01256234,0.01686087,-0.01936017,0.00309186,-0.00984240,0.0094596
 1,-0.00064094,-0.00217163,0.00011730,0.00259259,0.00031182,0.00040187,
 -0.00038439,-0.13322968,0.19593719,0.02745664,-0.02916557,-0.01981543,
 0.00029123,0.00053589,-0.00032663,-0.01447459,0.01746426,-0.04915249,-
 0.01251909,0.01343965,-0.00002563,-0.00922545,0.00951977,0.00087830,0.
 00134892,-0.00612281,0.00437112,0.00023713,0.00029711,-0.00046487,0.00
 848589,-0.00720153,0.06471039,0.00093207,0.00114432,-0.00033160,0.0000
 9191,-0.00001103,0.00006928,-0.01027185,-0.00295321,-0.00533855,-0.241
 06364,-0.07804694,-0.09659134,0.00029521,-0.00222005,0.00215811,0.0001
 6129,-0.00003554,0.00039463,0.00001788,0.00014492,-0.00009844,0.000771
 37,-0.00002627,0.00045433,0.25905027,0.00178172,0.00158181,-0.00119927
 ,0.00006289,-0.00003626,0.00002189,-0.02388112,-0.01010353,-0.01341139
 ,-0.07674749,-0.07892341,-0.03807877,-0.00087873,-0.00384839,0.0042154
 9,0.00016576,-0.00005324,0.00012927,0.00003752,0.00011071,-0.00010126,
 0.00054268,0.00070779,-0.00073287,0.08732686,0.08527436,-0.00057836,-0
 .00063957,0.00176925,-0.00016752,0.00011379,-0.00003764,0.01687447,0.0
 0612750,0.00658856,-0.09890647,-0.04040834,-0.09599085,0.00101922,0.00
 229693,-0.00201085,-0.00007915,0.00027134,-0.00005616,0.00015442,-0.00
 021358,0.00013445,-0.00039555,-0.00081217,0.00054276,0.10608541,0.0413
 1259,0.10005705,0.00002673,-0.00241815,0.00205145,-0.00009259,0.000103
 29,0.00000318,-0.00381706,0.00577898,0.00863873,-0.05665058,0.01308840
 ,0.04867089,0.00017412,0.00040454,-0.00013016,0.00026141,0.00033413,0.
 00033446,0.00010713,-0.00021262,0.00009858,0.00025805,-0.00009231,-0.0
 0023616,0.00719806,-0.00663013,-0.02600490,0.05702587,-0.00219616,-0.0
 0443489,0.00527015,-0.00016887,0.00026103,-0.00002256,-0.00376084,0.01
 014527,0.02218278,0.01384229,-0.06859958,-0.07178304,0.00027110,0.0005
 9367,-0.00035149,-0.00087349,0.00113220,0.00098508,0.00029869,-0.00064
 702,0.00036826,0.00091509,0.00066488,-0.00062693,0.00330110,-0.0038604
 9,-0.00935716,-0.01419257,0.07110285,0.00129322,0.00459381,-0.00287363
 ,0.00027244,-0.00023616,0.00002712,0.00131004,-0.00882408,-0.01438539,
 0.04984059,-0.06896837,-0.28817207,-0.00039725,-0.00089532,0.00023656,
 0.00064153,-0.00120777,0.00033297,-0.00025394,0.00064106,-0.00036976,-
 0.00048418,0.00030104,0.00030233,0.00298189,-0.00269230,-0.01101886,-0
 .05466419,0.07598419,0.31332811,0.00038073,0.00032917,-0.00145431,0.00
 000573,-0.00009630,-0.00002410,0.00754561,-0.00915828,-0.00004487,-0.1
 7413083,0.13461706,-0.00146437,0.00167261,-0.00064421,-0.00002799,0.00
 016597,-0.00037707,0.00003730,-0.00006570,0.00016354,-0.00005539,0.000
 08653,-0.00213774,0.00144135,-0.01724467,0.01989361,0.00115438,-0.0042
 3708,0.00279618,-0.00045127,0.18580189,-0.00046564,0.00209844,-0.00112
 612,-0.00025739,0.00021584,-0.00007073,0.02013289,-0.02373266,-0.00008
 535,0.13282141,-0.18872045,0.00120782,0.00154143,0.00111043,-0.0003216
 9,-0.00016244,0.00025351,0.00002949,0.00019605,-0.00011239,0.00000415,
 -0.00276750,-0.00291929,0.00309381,-0.00817371,0.00928074,0.00048703,0
 .00444049,-0.00593444,0.00048550,-0.14583276,0.20781592,-0.00044088,-0
 .00083769,0.00199216,0.00004806,-0.00012151,0.00003331,-0.01275725,0.0
 1499474,-0.00174950,-0.00116267,-0.00000492,-0.04618901,-0.00062835,-0
 .00100019,-0.00005628,-0.00005958,0.00020366,-0.00037844,-0.00009006,-
 0.00008717,0.00008670,0.00151552,0.00262765,-0.00137194,-0.00892795,0.
 01092545,-0.00064126,0.02130972,-0.02258447,0.00190653,0.00067326,-0.0
 0356623,0.04613463,0.00340100,-0.00061016,0.00091645,0.00005994,0.0000
 0133,0.00016158,-0.02412191,0.02331814,-0.00076787,0.00131275,0.001630
 46,-0.00003183,-0.16843906,0.13159356,-0.01005967,-0.00025651,-0.00009
 394,-0.00008244,-0.00014585,0.00007942,-0.00007874,-0.00404954,-0.0030
 5133,-0.00256822,0.00056436,-0.00022739,-0.00003418,-0.00006259,-0.000
 05432,-0.00000404,0.00003019,-0.00114126,0.00026630,0.18626572,0.00007
 191,0.00066420,0.00192523,-0.00059853,0.00046389,-0.00046295,-0.009008
 06,0.00820815,-0.00111624,-0.00051281,0.00160174,-0.00016901,0.1335632
 0,-0.19070323,0.01136241,0.00000843,0.00030723,0.00015748,0.00086898,-
 0.00057751,0.00019323,-0.00258892,-0.00000081,-0.00112253,0.00006630,0
 .00014149,-0.00001148,0.00004597,-0.00001648,0.00015578,0.00027690,0.0
 0003995,-0.00027095,-0.14464089,0.20423771,0.00095821,0.00057735,0.001
 71598,0.00065856,-0.00047337,0.00037010,-0.01040508,0.00944032,-0.0022
 3674,0.00090400,0.00020514,-0.00008779,-0.00945077,0.01183519,-0.04767
 723,0.00033462,0.00019391,-0.00056691,-0.00077384,0.00047869,-0.000021
 11,-0.00223404,-0.00103625,-0.00027953,0.00005755,0.00007348,-0.000151
 20,0.00010138,-0.00012832,-0.00002590,0.00024079,-0.00018056,0.0003552
 3,0.01297811,-0.01201797,0.04667080,0.00154732,0.00163800,0.00097618,-
 0.00077714,0.00056454,-0.00023470,-0.01031002,-0.02219741,0.01944383,-
 0.00458802,-0.00102082,-0.00370277,-0.08142096,-0.06887415,0.05448664,
 -0.00008563,-0.00004150,0.00008317,0.00110461,-0.00027665,-0.00029365,
 0.00094785,0.00064730,0.00038902,-0.00041371,-0.00172529,0.00079007,0.
 00011103,0.00033571,-0.00018080,0.00007527,-0.00025311,-0.00006756,0.0
 0871977,0.01590418,-0.01400523,0.08794741,0.00078423,0.00036980,0.0002
 0263,0.00008393,-0.00001668,0.00007270,-0.00352674,-0.00974307,0.00648
 990,-0.00256555,0.00020234,-0.00178161,-0.06936524,-0.19341076,0.11520
 918,-0.00027523,0.00030329,0.00069200,0.00050550,0.00018991,-0.0002028
 6,0.00002663,0.00052238,-0.00056319,-0.00046169,-0.00033829,0.00062228
 ,0.00008187,0.00007327,0.00023719,0.00010852,0.00054557,-0.00010677,-0
 .00896494,-0.01615700,0.01313013,0.07838813,0.20766183,0.00120246,0.00
 114601,0.00076932,-0.00027982,0.00058725,0.00035674,-0.00436853,-0.011
 21122,0.00816149,-0.00202455,-0.00101424,-0.00120784,0.05647125,0.1168
 0337,-0.13822612,-0.00093563,-0.00076083,-0.00082228,0.00025234,-0.000
 35293,-0.00095766,0.00078613,0.00037969,0.00031952,-0.00051688,-0.0005
 5583,0.00053601,-0.00018596,0.00001853,0.00023701,-0.00002130,0.000040
 81,-0.00011359,-0.00026716,-0.00044436,-0.00093939,-0.05975047,-0.1266
 6412,0.14762301,-0.00444573,-0.00339435,-0.00686712,0.00050745,-0.0004
 8902,0.00025734,0.00832852,-0.00848898,-0.02369460,0.00077030,0.000350
 71,0.00030966,-0.05515967,0.01649910,0.04155784,-0.00041147,-0.0014609
 6,0.00139010,-0.00018520,0.00085616,-0.00018652,0.00075288,0.00111023,
 0.00057611,0.00005319,0.00034787,0.00001139,-0.00028098,-0.00046066,0.
 00018213,-0.00003934,-0.00005248,0.00007602,-0.00329511,0.00645428,0.0
 2072955,-0.00266931,0.00528967,0.00967952,0.05628522,-0.00291449,-0.00
 008932,-0.00253671,0.00004464,-0.00016423,-0.00018283,0.00476020,-0.00
 550756,-0.00909976,0.00055852,0.00012331,0.00006453,0.01569503,-0.0816
 2821,-0.09055129,-0.00026727,-0.00036351,0.00116750,0.00039663,0.00019
 852,-0.00013263,-0.00012351,0.00037684,0.00022957,0.00003044,0.0001603
 8,0.00024085,-0.00064991,-0.00026200,0.00027245,-0.00006774,-0.0000117
 0,-0.00011386,0.00225593,-0.00832950,-0.02175695,-0.00309408,0.0102495
 4,0.02216500,-0.01653842,0.08512498,-0.00292689,-0.00077220,-0.0022291
 1,0.00024408,-0.00026053,-0.00002913,0.00546609,-0.00252056,-0.0107165
 6,0.00063168,0.00033424,-0.00010304,0.03943472,-0.09124365,-0.27431525
 ,-0.00014614,-0.00131736,0.00101930,-0.00028993,0.00033418,0.00009273,
 -0.00040531,0.00041893,0.00026831,-0.00020375,0.00013674,0.00021011,-0
 .00002747,-0.00000852,0.00061436,-0.00010063,0.00006600,0.00001724,-0.
 00029571,0.00157515,0.00332655,0.00225133,-0.00720765,-0.01569200,-0.0
 4357180,0.10018668,0.29759752,0.00852610,-0.00490713,0.00030583,0.0009
 0796,0.00279872,0.00656203,0.00125080,-0.00111170,-0.00023989,0.000144
 22,-0.00035660,-0.00009740,-0.00010857,0.00032623,0.00002563,-0.196283
 91,0.15046545,0.00257551,-0.01157076,0.01614986,-0.00680744,-0.0001038
 7,0.00033085,-0.00084349,-0.00004705,-0.00004739,0.00002775,-0.0000135
 6,0.00006701,-0.00004118,-0.00010077,-0.00003564,0.00011289,-0.0000213
 6,-0.00008720,0.00007237,-0.00027428,-0.00002812,-0.00003233,0.0000077
 0,-0.00004240,0.00003933,0.19889589,0.01399652,-0.02294777,0.01154303,
 0.00070425,0.00604119,0.00362492,0.00058998,-0.00062921,-0.00391137,-0
 .00023881,0.00040683,0.00030833,-0.00019675,0.00012075,0.00048970,0.14
 978183,-0.18299799,0.01611824,-0.00117956,0.00076260,-0.00025110,-0.00
 048944,0.00073640,0.00092034,0.00000237,-0.00004823,-0.00003354,-0.000
 09082,-0.00006743,0.00013349,0.00004014,0.00015964,-0.00019852,-0.0001
 1073,-0.00009256,-0.00005692,-0.00001530,-0.00005647,0.00005581,0.0001
 4639,0.00010898,0.00013988,-0.16105538,0.20014888,-0.01360717,0.021024
 21,-0.00798179,0.00595684,0.00459702,0.00183505,-0.00283417,0.00369481
 ,0.00457576,0.00023948,-0.00009600,-0.00028480,0.00026662,-0.00041788,
 -0.00043738,0.00071757,0.01772492,-0.04462997,0.01072737,-0.01652803,0
 .00613986,0.00086732,-0.00093524,0.00009434,-0.00005206,-0.00000936,0.
 00002537,0.00009768,-0.00000694,-0.00008537,0.00008843,-0.00022624,0.0
 0004905,0.00015036,-0.00006537,0.00012983,-0.00023538,-0.00007569,-0.0
 0002020,-0.00011919,-0.00012125,-0.00006050,-0.00052020,-0.02750967,0.
 04308397,0.00009366,0.00571182,0.00603600,0.00385230,0.02113613,-0.020
 73520,-0.00059215,-0.00174358,0.00015395,-0.00008634,0.00031572,0.0005
 7849,-0.00016069,-0.00001986,-0.00000371,0.00338699,-0.01812148,0.0143
 6363,-0.06099155,-0.03073221,0.04730531,-0.00007560,0.00007375,0.00005
 212,-0.00000858,0.00000726,-0.00001743,-0.00006555,-0.00017266,0.00010
 116,0.00002653,-0.00000554,-0.00001198,0.00004161,-0.00001145,0.000009
 95,0.00004960,0.00003645,-0.00004377,0.00003490,-0.00000505,0.00002062
 ,-0.00124641,-0.00089193,-0.00149453,0.05851190,0.00423655,0.00615514,
 0.00116409,0.00051989,-0.02021136,0.01867635,0.00000316,-0.00047049,0.
 00104751,0.00003489,0.00002483,0.00005655,-0.00009886,-0.00014276,0.00
 001180,-0.00045874,0.00357496,-0.00154867,-0.02703435,-0.17357700,0.14
 699493,-0.00002181,-0.00000950,-0.00010213,-0.00003540,-0.00002092,0.0
 0001034,-0.00002939,-0.00003573,-0.00002824,0.00000179,-0.00000385,0.0
 0001279,-0.00000356,0.00001924,-0.00003673,0.00001238,0.00002417,-0.00
 003548,-0.00002867,0.00001478,-0.00001832,-0.00167709,-0.00130559,-0.0
 0135170,0.02023720,0.18685705,0.00523809,0.00380692,0.00189709,-0.0017
 4668,0.00081551,0.00208949,0.00053948,0.00004131,0.00163812,0.00002641
 ,-0.00006884,-0.00013374,-0.00018160,-0.00007782,-0.00001267,-0.002704
 04,0.01143719,-0.00701737,0.04576845,0.15143794,-0.21089670,0.00003462
 ,-0.00006029,-0.00020073,-0.00004382,-0.00003712,0.00002632,-0.0000195
 1,0.00000177,-0.00006211,-0.00000160,-0.00002087,0.00004042,0.00001783
 ,-0.00002967,0.00002927,-0.00000968,0.00004842,-0.00008166,-0.00001098
 ,-0.00000521,-0.00003018,-0.00110869,-0.00198876,-0.00173170,-0.046448
 44,-0.16478803,0.21250991,0.00033179,-0.00360849,-0.00175874,-0.076769
 02,-0.09063505,0.12470165,0.00101757,0.00016771,0.00363219,-0.00008885
 ,-0.00017579,-0.00027595,0.00024631,-0.00019167,-0.00019496,-0.0027844
 6,0.00623631,-0.00285947,0.00778122,0.02531656,-0.02561270,0.00018434,
 -0.00048376,-0.00086574,-0.00008612,-0.00002864,0.00006647,0.00005759,
 0.00005241,-0.00014615,0.00002733,0.00001521,0.00014454,-0.00000341,0.
 00018771,-0.00017613,0.00003621,-0.00011742,0.00003468,-0.00025334,-0.
 00003853,-0.00012023,0.00003785,-0.00099278,-0.00024896,-0.00277060,0.
 00434202,0.00065016,0.07303559,-0.00251265,-0.00047330,0.00034701,-0.0
 5788233,-0.20927922,0.20857172,0.00060552,-0.00008622,-0.00121673,-0.0
 0016564,0.00023378,-0.00002324,0.00010219,0.00006595,0.00015502,-0.000
 75125,0.00143439,0.00026678,-0.00265166,-0.03041772,0.02931937,-0.0000
 5411,-0.00000120,0.00013717,-0.00005248,-0.00002451,-0.00000682,0.0000
 3822,-0.00011510,0.00004772,0.00008718,-0.00008525,0.00012799,0.000019
 69,0.00019348,-0.00024713,0.00000806,-0.00041983,-0.00015746,-0.000140
 86,-0.00000128,0.00015701,-0.00078947,-0.00034002,0.00030239,0.0041854
 2,-0.00089296,-0.00051246,0.05995418,0.24020901,-0.00145595,0.00171587
 ,-0.00245680,0.09829105,0.23134232,-0.27562371,0.00029114,-0.00006114,
 -0.00084843,0.00007747,-0.00014532,-0.00001398,0.00051222,-0.00053960,
 0.00028897,0.00412276,-0.00570593,0.00288742,-0.00398215,0.00923383,-0
 .00359532,-0.00030458,0.00021952,0.00015019,-0.00009680,0.00000326,0.0
 0001694,-0.00003773,0.00005867,0.00000811,0.00001031,0.00018318,-0.000
 11527,-0.00030076,0.00034124,-0.00061198,0.00005999,-0.00010254,0.0000
 5764,-0.00031945,0.00017390,0.00002966,-0.00003070,0.00061613,-0.00070
 155,0.00013382,-0.00006506,0.00193623,-0.09697065,-0.23726834,0.278591
 88\\-0.00000043,-0.00000033,0.00000053,-0.00000138,-0.00000106,-0.0000
 0067,0.00000031,0.00000028,0.00000032,0.00000075,0.00000071,0.00000105
 ,0.00000071,0.00000058,-0.00000064,-0.00000084,-0.00000074,-0.00000003
 ,-0.00000082,-0.00000127,-0.00000086,0.00000037,0.00000038,0.00000030,
 0.00000046,0.00000060,0.00000176,0.00000121,0.00000123,0.00000112,0.00
 000063,0.00000073,0.00000114,0.00000067,0.00000058,-0.00000059,0.00000
 036,0.00000024,-0.00000119,0.00000118,0.00000103,-0.00000070,-0.000000
 78,-0.00000066,-0.00000016,-0.00000158,-0.00000156,-0.00000103,-0.0000
 0081,-0.00000077,-0.00000037\\\@


 THE WORLD IS MADE UP OF THE WILLS, THE WON'TS, AND THE CANT'S:
 THE WILLS DO EVERYTHING,
 THE WON'TS DO NOTHING,
 THE CAN'TS CAN'T DO ANYTHING.

                               -- FROM WALT DISNEY'S "BLACK HOLE"
 Job cpu time:       0 days  2 hours 59 minutes 56.7 seconds.
 Elapsed time:       0 days  1 hours 30 minutes  4.0 seconds.
 File lengths (MBytes):  RWF=   1392 Int=      0 D2E=      0 Chk=     32 Scr=     32
 Normal termination of Gaussian 16 at Thu Sep 26 15:59:43 2019.
