 Entering Gaussian System, Link 0=g16
 Input=loose/species/CC(C)OC=CO/conformers/CC(C)OC=CO_125.com
 Output=loose/species/CC(C)OC=CO/conformers/CC(C)OC=CO_125.log
 Initial command:
 /shared/centos7/gaussian/g16/l1.exe "/scratch/harms.n/gauss_scrdir/Gau-24148.inp" -scrdir="/scratch/harms.n/gauss_scrdir/"
 Entering Link 1 = /shared/centos7/gaussian/g16/l1.exe PID=     24149.
  
 Copyright (c) 1988,1990,1992,1993,1995,1998,2003,2009,2016,
            Gaussian, Inc.  All Rights Reserved.
  
 This is part of the Gaussian(R) 16 program.  It is based on
 the Gaussian(R) 09 system (copyright 2009, Gaussian, Inc.),
 the Gaussian(R) 03 system (copyright 2003, Gaussian, Inc.),
 the Gaussian(R) 98 system (copyright 1998, Gaussian, Inc.),
 the Gaussian(R) 94 system (copyright 1995, Gaussian, Inc.),
 the Gaussian 92(TM) system (copyright 1992, Gaussian, Inc.),
 the Gaussian 90(TM) system (copyright 1990, Gaussian, Inc.),
 the Gaussian 88(TM) system (copyright 1988, Gaussian, Inc.),
 the Gaussian 86(TM) system (copyright 1986, Carnegie Mellon
 University), and the Gaussian 82(TM) system (copyright 1983,
 Carnegie Mellon University). Gaussian is a federally registered
 trademark of Gaussian, Inc.
  
 This software contains proprietary and confidential information,
 including trade secrets, belonging to Gaussian, Inc.
  
 This software is provided under written license and may be
 used, copied, transmitted, or stored only in accord with that
 written license.
  
 The following legend is applicable only to US Government
 contracts under FAR:
  
                    RESTRICTED RIGHTS LEGEND
  
 Use, reproduction and disclosure by the US Government is
 subject to restrictions as set forth in subparagraphs (a)
 and (c) of the Commercial Computer Software - Restricted
 Rights clause in FAR 52.227-19.
  
 Gaussian, Inc.
 340 Quinnipiac St., Bldg. 40, Wallingford CT 06492
  
  
 ---------------------------------------------------------------
 Warning -- This program may not be used in any manner that
 competes with the business of Gaussian, Inc. or will provide
 assistance to any competitor of Gaussian, Inc.  The licensee
 of this program is prohibited from giving any competitor of
 Gaussian, Inc. access to this program.  By using this program,
 the user acknowledges that Gaussian, Inc. is engaged in the
 business of creating and licensing software in the field of
 computational chemistry and represents and warrants to the
 licensee that it is not a competitor of Gaussian, Inc. and that
 it will not use this program in any manner prohibited above.
 ---------------------------------------------------------------
  

 Cite this work as:
 Gaussian 16, Revision A.03,
 M. J. Frisch, G. W. Trucks, H. B. Schlegel, G. E. Scuseria, 
 M. A. Robb, J. R. Cheeseman, G. Scalmani, V. Barone, 
 G. A. Petersson, H. Nakatsuji, X. Li, M. Caricato, A. V. Marenich, 
 J. Bloino, B. G. Janesko, R. Gomperts, B. Mennucci, H. P. Hratchian, 
 J. V. Ortiz, A. F. Izmaylov, J. L. Sonnenberg, D. Williams-Young, 
 F. Ding, F. Lipparini, F. Egidi, J. Goings, B. Peng, A. Petrone, 
 T. Henderson, D. Ranasinghe, V. G. Zakrzewski, J. Gao, N. Rega, 
 G. Zheng, W. Liang, M. Hada, M. Ehara, K. Toyota, R. Fukuda, 
 J. Hasegawa, M. Ishida, T. Nakajima, Y. Honda, O. Kitao, H. Nakai, 
 T. Vreven, K. Throssell, J. A. Montgomery, Jr., J. E. Peralta, 
 F. Ogliaro, M. J. Bearpark, J. J. Heyd, E. N. Brothers, K. N. Kudin, 
 V. N. Staroverov, T. A. Keith, R. Kobayashi, J. Normand, 
 K. Raghavachari, A. P. Rendell, J. C. Burant, S. S. Iyengar, 
 J. Tomasi, M. Cossi, J. M. Millam, M. Klene, C. Adamo, R. Cammi, 
 J. W. Ochterski, R. L. Martin, K. Morokuma, O. Farkas, 
 J. B. Foresman, and D. J. Fox, Gaussian, Inc., Wallingford CT, 2016.
 
 ******************************************
 Gaussian 16:  EM64L-G16RevA.03 25-Dec-2016
                26-Sep-2019 
 ******************************************
 %nprocshared=20
 Will use up to   20 processors via shared memory.
 %mem=5GB
 ----------------------------------------------------------------------
 #p m062x/cc-pVTZ opt=(calcfc,maxcycles=900,Tight) freq IOP(7/33=1,2/16
 =3) scf=(maxcycle=900)
 ----------------------------------------------------------------------
 1/6=900,7=10,10=4,18=20,19=15,26=3,38=1/1,3;
 2/9=110,12=2,16=3,17=6,18=5,40=1/2;
 3/5=16,6=1,11=2,25=1,30=1,71=2,74=-55,140=1/1,2,3;
 4//1;
 5/5=2,7=900,38=5/2;
 8/6=4,10=90,11=11/1;
 11/6=1,8=1,9=11,15=111,16=1/1,2,10;
 10/6=1,13=1/2;
 6/7=2,8=2,9=2,10=2,28=1/1;
 7/10=1,18=20,25=1,33=1/1,2,3,16;
 1/6=900,7=10,10=4,18=20,19=15,26=3/3(2);
 2/9=110,16=3/2;
 99//99;
 2/9=110,16=3/2;
 3/5=16,6=1,11=2,25=1,30=1,71=1,74=-55/1,2,3;
 4/5=5,16=3,69=1/1;
 5/5=2,7=900,38=5/2;
 7/33=1/1,2,3,16;
 1/6=900,7=10,18=20,19=15,26=3/3(-5);
 2/9=110,16=3/2;
 6/7=2,8=2,9=2,10=2,19=2,28=1/1;
 99/9=1/99;
 Leave Link    1 at Thu Sep 26 01:51:45 2019, MaxMem=   671088640 cpu:               4.2 elap:               2.1
 (Enter /shared/centos7/gaussian/g16/l101.exe)
 ------------------------------
 Gaussian input prepared by ASE
 ------------------------------
 Symbolic Z-matrix:
 Charge =  0 Multiplicity = 1
 O                     0.16937   0.97013   1.1402 
 O                     1.6764   -0.0491    3.52363 
 C                     0.28391   2.20179   1.8212 
 C                    -0.36707   3.26352   0.93464 
 C                     1.66326   2.60396   2.2283 
 C                     1.23333   0.09775   1.16913 
 C                     1.9135   -0.34062   2.18857 
 H                    -0.33275   2.10505   2.75754 
 H                    -0.58011   2.83289  -0.06605 
 H                    -1.31315   3.64923   1.35613 
 H                     0.30997   4.14474   0.76821 
 H                     2.08029   3.41611   1.56259 
 H                     2.3742    1.75189   2.20344 
 H                     1.65476   3.0076    3.28023 
 H                     1.48735  -0.25217   0.15583 
 H                     2.76031  -0.98617   2.00799 
 H                     2.45931  -0.40075   4.03858 
 
 ITRead=  0  0  0  0  0  0  0  0  0  0  0  0  0  0  0  0  0
 MicOpt= -1 -1 -1 -1 -1 -1 -1 -1 -1 -1 -1 -1 -1 -1 -1 -1 -1
 NAtoms=     17 NQM=       17 NQMF=       0 NMMI=      0 NMMIF=      0
                NMic=       0 NMicF=      0.
                    Isotopes and Nuclear Properties:
 (Nuclear quadrupole moments (NQMom) in fm**2, nuclear magnetic moments (NMagM)
  in nuclear magnetons)

  Atom         1           2           3           4           5           6           7           8           9          10
 IAtWgt=          16          16          12          12          12          12          12           1           1           1
 AtmWgt=  15.9949146  15.9949146  12.0000000  12.0000000  12.0000000  12.0000000  12.0000000   1.0078250   1.0078250   1.0078250
 NucSpn=           0           0           0           0           0           0           0           1           1           1
 AtZEff=  -0.0000000  -0.0000000  -0.0000000  -0.0000000  -0.0000000  -0.0000000  -0.0000000  -0.0000000  -0.0000000  -0.0000000
 NQMom=    0.0000000   0.0000000   0.0000000   0.0000000   0.0000000   0.0000000   0.0000000   0.0000000   0.0000000   0.0000000
 NMagM=    0.0000000   0.0000000   0.0000000   0.0000000   0.0000000   0.0000000   0.0000000   2.7928460   2.7928460   2.7928460
 AtZNuc=   8.0000000   8.0000000   6.0000000   6.0000000   6.0000000   6.0000000   6.0000000   1.0000000   1.0000000   1.0000000

  Atom        11          12          13          14          15          16          17
 IAtWgt=           1           1           1           1           1           1           1
 AtmWgt=   1.0078250   1.0078250   1.0078250   1.0078250   1.0078250   1.0078250   1.0078250
 NucSpn=           1           1           1           1           1           1           1
 AtZEff=  -0.0000000  -0.0000000  -0.0000000  -0.0000000  -0.0000000  -0.0000000  -0.0000000
 NQMom=    0.0000000   0.0000000   0.0000000   0.0000000   0.0000000   0.0000000   0.0000000
 NMagM=    2.7928460   2.7928460   2.7928460   2.7928460   2.7928460   2.7928460   2.7928460
 AtZNuc=   1.0000000   1.0000000   1.0000000   1.0000000   1.0000000   1.0000000   1.0000000
 Leave Link  101 at Thu Sep 26 01:51:46 2019, MaxMem=   671088640 cpu:               2.4 elap:               1.2
 (Enter /shared/centos7/gaussian/g16/l103.exe)

 GradGradGradGradGradGradGradGradGradGradGradGradGradGradGradGradGradGrad
 Berny optimization.
 Initialization pass.
                           ----------------------------
                           !    Initial Parameters    !
                           ! (Angstroms and Degrees)  !
 --------------------------                            --------------------------
 ! Name  Definition              Value          Derivative Info.                !
 --------------------------------------------------------------------------------
 ! R1    R(1,3)                  1.412          calculate D2E/DX2 analytically  !
 ! R2    R(1,6)                  1.3762         calculate D2E/DX2 analytically  !
 ! R3    R(2,7)                  1.3869         calculate D2E/DX2 analytically  !
 ! R4    R(2,17)                 1.0009         calculate D2E/DX2 analytically  !
 ! R5    R(3,4)                  1.5287         calculate D2E/DX2 analytically  !
 ! R6    R(3,5)                  1.4933         calculate D2E/DX2 analytically  !
 ! R7    R(3,8)                  1.1253         calculate D2E/DX2 analytically  !
 ! R8    R(4,9)                  1.1101         calculate D2E/DX2 analytically  !
 ! R9    R(4,10)                 1.1052         calculate D2E/DX2 analytically  !
 ! R10   R(4,11)                 1.1237         calculate D2E/DX2 analytically  !
 ! R11   R(5,12)                 1.1299         calculate D2E/DX2 analytically  !
 ! R12   R(5,13)                 1.11           calculate D2E/DX2 analytically  !
 ! R13   R(5,14)                 1.1267         calculate D2E/DX2 analytically  !
 ! R14   R(6,7)                  1.3016         calculate D2E/DX2 analytically  !
 ! R15   R(6,15)                 1.1017         calculate D2E/DX2 analytically  !
 ! R16   R(7,16)                 1.08           calculate D2E/DX2 analytically  !
 ! A1    A(3,1,6)              118.6909         calculate D2E/DX2 analytically  !
 ! A2    A(7,2,17)             106.7191         calculate D2E/DX2 analytically  !
 ! A3    A(1,3,4)              106.9517         calculate D2E/DX2 analytically  !
 ! A4    A(1,3,5)              116.1866         calculate D2E/DX2 analytically  !
 ! A5    A(1,3,8)              106.3709         calculate D2E/DX2 analytically  !
 ! A6    A(4,3,5)              111.3694         calculate D2E/DX2 analytically  !
 ! A7    A(4,3,8)              107.9929         calculate D2E/DX2 analytically  !
 ! A8    A(5,3,8)              107.6064         calculate D2E/DX2 analytically  !
 ! A9    A(3,4,9)              109.5782         calculate D2E/DX2 analytically  !
 ! A10   A(3,4,10)             112.6892         calculate D2E/DX2 analytically  !
 ! A11   A(3,4,11)             111.962          calculate D2E/DX2 analytically  !
 ! A12   A(9,4,10)             108.3542         calculate D2E/DX2 analytically  !
 ! A13   A(9,4,11)             106.6391         calculate D2E/DX2 analytically  !
 ! A14   A(10,4,11)            107.3718         calculate D2E/DX2 analytically  !
 ! A15   A(3,5,12)             111.9548         calculate D2E/DX2 analytically  !
 ! A16   A(3,5,13)             112.2579         calculate D2E/DX2 analytically  !
 ! A17   A(3,5,14)             110.1217         calculate D2E/DX2 analytically  !
 ! A18   A(12,5,13)            107.5875         calculate D2E/DX2 analytically  !
 ! A19   A(12,5,14)            107.1781         calculate D2E/DX2 analytically  !
 ! A20   A(13,5,14)            107.5016         calculate D2E/DX2 analytically  !
 ! A21   A(1,6,7)              129.3447         calculate D2E/DX2 analytically  !
 ! A22   A(1,6,15)             111.1168         calculate D2E/DX2 analytically  !
 ! A23   A(7,6,15)             119.5332         calculate D2E/DX2 analytically  !
 ! A24   A(2,7,6)              126.4288         calculate D2E/DX2 analytically  !
 ! A25   A(2,7,16)             114.8736         calculate D2E/DX2 analytically  !
 ! A26   A(6,7,16)             118.6919         calculate D2E/DX2 analytically  !
 ! D1    D(6,1,3,4)            139.8831         calculate D2E/DX2 analytically  !
 ! D2    D(6,1,3,5)             14.8257         calculate D2E/DX2 analytically  !
 ! D3    D(6,1,3,8)           -104.8955         calculate D2E/DX2 analytically  !
 ! D4    D(3,1,6,7)             50.5863         calculate D2E/DX2 analytically  !
 ! D5    D(3,1,6,15)          -130.271          calculate D2E/DX2 analytically  !
 ! D6    D(17,2,7,6)          -170.159          calculate D2E/DX2 analytically  !
 ! D7    D(17,2,7,16)            8.9537         calculate D2E/DX2 analytically  !
 ! D8    D(1,3,4,9)            -10.4091         calculate D2E/DX2 analytically  !
 ! D9    D(1,3,4,10)           110.3174         calculate D2E/DX2 analytically  !
 ! D10   D(1,3,4,11)          -128.5157         calculate D2E/DX2 analytically  !
 ! D11   D(5,3,4,9)            117.5185         calculate D2E/DX2 analytically  !
 ! D12   D(5,3,4,10)          -121.755          calculate D2E/DX2 analytically  !
 ! D13   D(5,3,4,11)            -0.5881         calculate D2E/DX2 analytically  !
 ! D14   D(8,3,4,9)           -124.5388         calculate D2E/DX2 analytically  !
 ! D15   D(8,3,4,10)            -3.8123         calculate D2E/DX2 analytically  !
 ! D16   D(8,3,4,11)           117.3546         calculate D2E/DX2 analytically  !
 ! D17   D(1,3,5,12)           104.4554         calculate D2E/DX2 analytically  !
 ! D18   D(1,3,5,13)           -16.6758         calculate D2E/DX2 analytically  !
 ! D19   D(1,3,5,14)          -136.4125         calculate D2E/DX2 analytically  !
 ! D20   D(4,3,5,12)           -18.3182         calculate D2E/DX2 analytically  !
 ! D21   D(4,3,5,13)          -139.4493         calculate D2E/DX2 analytically  !
 ! D22   D(4,3,5,14)           100.8139         calculate D2E/DX2 analytically  !
 ! D23   D(8,3,5,12)          -136.4937         calculate D2E/DX2 analytically  !
 ! D24   D(8,3,5,13)           102.3752         calculate D2E/DX2 analytically  !
 ! D25   D(8,3,5,14)           -17.3616         calculate D2E/DX2 analytically  !
 ! D26   D(1,6,7,2)              2.481          calculate D2E/DX2 analytically  !
 ! D27   D(1,6,7,16)          -176.6013         calculate D2E/DX2 analytically  !
 ! D28   D(15,6,7,2)          -176.5998         calculate D2E/DX2 analytically  !
 ! D29   D(15,6,7,16)            4.3179         calculate D2E/DX2 analytically  !
 --------------------------------------------------------------------------------
 Trust Radius=3.00D-01 FncErr=1.00D-07 GrdErr=1.00D-06 EigMax=2.50D+02 EigMin=1.00D-04
 Number of steps in this run=    102 maximum allowed number of steps=    102.
 GradGradGradGradGradGradGradGradGradGradGradGradGradGradGradGradGradGrad

 Leave Link  103 at Thu Sep 26 01:51:47 2019, MaxMem=   671088640 cpu:               1.7 elap:               0.8
 (Enter /shared/centos7/gaussian/g16/l202.exe)
                          Input orientation:                          
 ---------------------------------------------------------------------
 Center     Atomic      Atomic             Coordinates (Angstroms)
 Number     Number       Type             X           Y           Z
 ---------------------------------------------------------------------
      1          8           0        0.169371    0.970129    1.140199
      2          8           0        1.676397   -0.049101    3.523630
      3          6           0        0.283906    2.201792    1.821202
      4          6           0       -0.367067    3.263519    0.934645
      5          6           0        1.663255    2.603956    2.228299
      6          6           0        1.233329    0.097746    1.169129
      7          6           0        1.913500   -0.340617    2.188568
      8          1           0       -0.332749    2.105052    2.757537
      9          1           0       -0.580108    2.832888   -0.066046
     10          1           0       -1.313148    3.649225    1.356129
     11          1           0        0.309971    4.144738    0.768207
     12          1           0        2.080294    3.416109    1.562588
     13          1           0        2.374202    1.751893    2.203443
     14          1           0        1.654757    3.007600    3.280231
     15          1           0        1.487354   -0.252173    0.155834
     16          1           0        2.760306   -0.986168    2.007994
     17          1           0        2.459310   -0.400750    4.038580
 ---------------------------------------------------------------------
                    Distance matrix (angstroms):
                    1          2          3          4          5
     1  O    0.000000
     2  O    2.998449   0.000000
     3  C    1.412047   3.147032   0.000000
     4  C    2.364245   4.674616   1.528729   0.000000
     5  C    2.466788   2.952416   1.493342   2.496152   0.000000
     6  C    1.376189   2.400323   2.398669   3.555048   2.754590
     7  C    2.420562   1.386935   3.042102   4.445572   2.955455
     8  H    2.038617   3.043672   1.125320   2.160130   2.124390
     9  H    2.342353   5.126738   2.169448   1.110050   3.217003
    10  H    3.069535   5.226189   2.204979   1.105209   3.272957
    11  H    3.199420   5.200746   2.210094   1.123668   2.517391
    12  H    3.132548   4.002061   2.183680   2.531240   1.129905
    13  H    2.569615   2.339531   2.172063   3.377783   1.109989
    14  H    3.307174   3.066452   2.158084   3.107257   1.126748
    15  H    2.049408   3.379204   3.200575   4.050372   3.533203
    16  H    3.360522   2.085690   4.041106   5.384457   3.760458
    17  H    3.940018   1.000891   4.052453   5.572224   3.597092
                    6          7          8          9         10
     6  C    0.000000
     7  C    1.301558   0.000000
     8  H    3.000819   3.369073   0.000000
     9  H    3.506453   4.623040   2.926355   0.000000
    10  H    4.374073   5.198370   2.304257   1.796200   0.000000
    11  H    4.170309   4.970628   2.920761   1.791415   1.796024
    12  H    3.447273   3.812174   2.994921   3.173380   3.407700
    13  H    2.260000   2.142678   2.785557   3.879056   4.232536
    14  H    3.619614   3.531180   2.244545   4.027744   3.594762
    15  H    1.101697   2.078805   3.954508   3.720380   4.950194
    16  H    2.051883   1.080011   4.436715   5.481349   6.205225
    17  H    3.159949   1.929784   3.964303   6.045033   6.150551
                   11         12         13         14         15
    11  H    0.000000
    12  H    2.072676   0.000000
    13  H    3.470830   1.807399   0.000000
    14  H    3.067866   1.816111   1.803850   0.000000
    15  H    4.592827   3.973264   2.999247   4.518407   0.000000
    16  H    5.819571   4.476700   2.772049   4.334859   2.364244
    17  H    5.998038   4.565369   2.829990   3.583189   4.005307
                   16         17
    16  H    0.000000
    17  H    2.134617   0.000000
 Stoichiometry    C5H10O2
 Framework group  C1[X(C5H10O2)]
 Deg. of freedom    45
 Full point group                 C1      NOp   1
 Largest Abelian subgroup         C1      NOp   1
 Largest concise Abelian subgroup C1      NOp   1
                         Standard orientation:                         
 ---------------------------------------------------------------------
 Center     Atomic      Atomic             Coordinates (Angstroms)
 Number     Number       Type             X           Y           Z
 ---------------------------------------------------------------------
      1          8           0        0.370917   -1.037752   -0.296193
      2          8           0       -2.036624    0.718579   -0.627475
      3          6           0        1.052661    0.198402   -0.328228
      4          6           0        2.538208   -0.106748   -0.135755
      5          6           0        0.580940    1.236330    0.636270
      6          6           0       -0.836027   -1.109781    0.361068
      7          6           0       -1.884310   -0.346729    0.247458
      8          1           0        0.914038    0.610259   -1.366256
      9          1           0        2.664278   -1.168649    0.162043
     10          1           0        3.131969    0.070920   -1.050833
     11          1           0        2.991816    0.513390    0.684183
     12          1           0        1.286115    1.351207    1.511609
     13          1           0       -0.425116    1.004956    1.044181
     14          1           0        0.517416    2.239052    0.126295
     15          1           0       -0.858218   -1.962824    1.057891
     16          1           0       -2.730001   -0.527789    0.894333
     17          1           0       -2.875466    1.194018   -0.358988
 ---------------------------------------------------------------------
 Rotational constants (GHZ):           4.9880476           1.7739648           1.5053736
 Leave Link  202 at Thu Sep 26 01:51:49 2019, MaxMem=   671088640 cpu:               3.7 elap:               1.8
 (Enter /shared/centos7/gaussian/g16/l301.exe)
 Standard basis: CC-pVTZ (5D, 7F)
 Ernie: Thresh=  0.10000D-02 Tol=  0.10000D-05 Strict=F.
 Ernie:  21 primitive shells out of 262 were deleted.
 There are   395 symmetry adapted cartesian basis functions of A   symmetry.
 There are   350 symmetry adapted basis functions of A   symmetry.
   350 basis functions,   534 primitive gaussians,   395 cartesian basis functions
    28 alpha electrons       28 beta electrons
       nuclear repulsion energy       322.8564736528 Hartrees.
 IExCor= 4336 DFT=T Ex+Corr=M062X ExCW=0 ScaHFX=  0.540000
 ScaDFX=  1.000000  1.000000  1.000000  1.000000 ScalE2=  1.000000  1.000000
 IRadAn=      5 IRanWt=     -1 IRanGd=            0 ICorTp=0 IEmpDi=  4
 NAtoms=   17 NActive=   17 NUniq=   17 SFac= 1.00D+00 NAtFMM=   60 NAOKFM=F Big=F
 Integral buffers will be    131072 words long.
 Raffenetti 2 integral format.
 Two-electron integral symmetry is turned on.
 Leave Link  301 at Thu Sep 26 01:51:51 2019, MaxMem=   671088640 cpu:               2.9 elap:               1.7
 (Enter /shared/centos7/gaussian/g16/l302.exe)
 NPDir=0 NMtPBC=     1 NCelOv=     1 NCel=       1 NClECP=     1 NCelD=      1
         NCelK=      1 NCelE2=     1 NClLst=     1 CellRange=     0.0.
 One-electron integrals computed using PRISM.
 One-electron integral symmetry used in STVInt
 NBasis=   350 RedAO= T EigKep=  3.02D-04  NBF=   350
 NBsUse=   350 1.00D-06 EigRej= -1.00D+00 NBFU=   350
 Precomputing XC quadrature grid using
 IXCGrd= 4 IRadAn=           5 IRanWt=          -1 IRanGd=           0 AccXCQ= 0.00D+00.
 Generated NRdTot=       0 NPtTot=           0 NUsed=           0 NTot=          32
 NSgBfM=   395   395   395   395   395 MxSgAt=    17 MxSgA2=    17.
 Leave Link  302 at Thu Sep 26 01:52:47 2019, MaxMem=   671088640 cpu:             111.5 elap:              55.8
 (Enter /shared/centos7/gaussian/g16/l303.exe)
 DipDrv:  MaxL=1.
 Leave Link  303 at Thu Sep 26 01:52:51 2019, MaxMem=   671088640 cpu:               8.2 elap:               4.1
 (Enter /shared/centos7/gaussian/g16/l401.exe)
 ExpMin= 1.03D-01 ExpMax= 1.53D+04 ExpMxC= 5.22D+02 IAcc=3 IRadAn=         5 AccDes= 0.00D+00
 Harris functional with IExCor= 1009 and IRadAn=       5 diagonalized for initial guess.
 HarFok:  IExCor= 1009 AccDes= 0.00D+00 IRadAn=         5 IDoV= 1 UseB2=F ITyADJ=14
 ICtDFT=  3500011 ScaDFX=  1.000000  1.000000  1.000000  1.000000
 FoFCou: FMM=F IPFlag=           0 FMFlag=      100000 FMFlg1=           0
         NFxFlg=           0 DoJE=T BraDBF=F KetDBF=T FulRan=T
         wScrn=  0.000000 ICntrl=       500 IOpCl=  0 I1Cent=   200000004 NGrid=           0
         NMat0=    1 NMatS0=      1 NMatT0=    0 NMatD0=    1 NMtDS0=    0 NMtDT0=    0
 Petite list used in FoFCou.
 Harris En= -346.797783038931    
 JPrj=0 DoOrth=F DoCkMO=F.
 Leave Link  401 at Thu Sep 26 01:53:21 2019, MaxMem=   671088640 cpu:              60.1 elap:              30.1
 (Enter /shared/centos7/gaussian/g16/l502.exe)
 Integral symmetry usage will be decided dynamically.
 Closed shell SCF:
 Using DIIS extrapolation, IDIIS=  1040.
 NGot=   671088640 LenX=   670765141 LenY=   670608675
 Requested convergence on RMS density matrix=1.00D-08 within 900 cycles.
 Requested convergence on MAX density matrix=1.00D-06.
 Requested convergence on             energy=1.00D-06.
 No special actions if energy rises.
 Fock matrices will be formed incrementally for  20 cycles.
 Integral accuracy reduced to 1.0D-05 until final iterations.

 Cycle   1  Pass 0  IDiag  1:
 FoFJK:  IHMeth= 1 ICntrl=       0 DoSepK=F KAlg= 0 I1Cent=           0 FoldK=F
 IRaf= 960000000 NMat=       1 IRICut=       1 DoRegI=T DoRafI=F ISym2E= 0 IDoP0=0 IntGTp=1.
 FoFCou: FMM=F IPFlag=           0 FMFlag=      100000 FMFlg1=           0
         NFxFlg=           0 DoJE=F BraDBF=F KetDBF=F FulRan=T
         wScrn=  0.000000 ICntrl=         0 IOpCl=  0 I1Cent=           0 NGrid=           0
         NMat0=    1 NMatS0=      1 NMatT0=    0 NMatD0=    1 NMtDS0=    0 NMtDT0=    0
 Symmetry not used in FoFCou.
 E= -346.678768418785    
 DIIS: error= 2.10D-02 at cycle   1 NSaved=   1.
 NSaved= 1 IEnMin= 1 EnMin= -346.678768418785     IErMin= 1 ErrMin= 2.10D-02
 ErrMax= 2.10D-02  0.00D+00 EMaxC= 1.00D-01 BMatC= 2.88D-01 BMatP= 2.88D-01
 IDIUse=3 WtCom= 7.90D-01 WtEn= 2.10D-01
 Coeff-Com:  0.100D+01
 Coeff-En:   0.100D+01
 Coeff:      0.100D+01
 Gap=     0.352 Goal=   None    Shift=    0.000
 GapD=    0.352 DampG=1.000 DampE=0.500 DampFc=0.5000 IDamp=-1.
 Damping current iteration by 5.00D-01
 RMSDP=2.29D-03 MaxDP=1.40D-01              OVMax= 1.50D-01

 Cycle   2  Pass 0  IDiag  1:
 RMSU=  1.14D-03    CP:  1.00D+00
 E= -346.797928069130     Delta-E=       -0.119159650345 Rises=F Damp=T
 DIIS: error= 4.53D-03 at cycle   2 NSaved=   2.
 NSaved= 2 IEnMin= 2 EnMin= -346.797928069130     IErMin= 2 ErrMin= 4.53D-03
 ErrMax= 4.53D-03  0.00D+00 EMaxC= 1.00D-01 BMatC= 2.15D-02 BMatP= 2.88D-01
 IDIUse=3 WtCom= 9.55D-01 WtEn= 4.53D-02
 Coeff-Com: -0.121D+00 0.112D+01
 Coeff-En:   0.000D+00 0.100D+01
 Coeff:     -0.116D+00 0.112D+01
 Gap=     0.323 Goal=   None    Shift=    0.000
 RMSDP=4.95D-04 MaxDP=1.76D-02 DE=-1.19D-01 OVMax= 7.51D-02

 Cycle   3  Pass 0  IDiag  1:
 RMSU=  4.74D-04    CP:  1.01D+00  8.75D-01
 E= -346.907037096437     Delta-E=       -0.109109027308 Rises=F Damp=F
 DIIS: error= 2.77D-03 at cycle   3 NSaved=   3.
 NSaved= 3 IEnMin= 3 EnMin= -346.907037096437     IErMin= 3 ErrMin= 2.77D-03
 ErrMax= 2.77D-03  0.00D+00 EMaxC= 1.00D-01 BMatC= 4.22D-03 BMatP= 2.15D-02
 IDIUse=3 WtCom= 9.72D-01 WtEn= 2.77D-02
 Coeff-Com: -0.849D-01 0.327D+00 0.758D+00
 Coeff-En:   0.000D+00 0.000D+00 0.100D+01
 Coeff:     -0.825D-01 0.318D+00 0.765D+00
 Gap=     0.321 Goal=   None    Shift=    0.000
 RMSDP=1.93D-04 MaxDP=1.21D-02 DE=-1.09D-01 OVMax= 1.27D-02

 Cycle   4  Pass 0  IDiag  1:
 RMSU=  1.27D-04    CP:  1.01D+00  9.90D-01  8.66D-01
 E= -346.909525268329     Delta-E=       -0.002488171891 Rises=F Damp=F
 DIIS: error= 1.22D-03 at cycle   4 NSaved=   4.
 NSaved= 4 IEnMin= 4 EnMin= -346.909525268329     IErMin= 4 ErrMin= 1.22D-03
 ErrMax= 1.22D-03  0.00D+00 EMaxC= 1.00D-01 BMatC= 1.03D-03 BMatP= 4.22D-03
 IDIUse=3 WtCom= 9.88D-01 WtEn= 1.22D-02
 Coeff-Com: -0.289D-01 0.775D-01 0.376D+00 0.576D+00
 Coeff-En:   0.000D+00 0.000D+00 0.132D+00 0.868D+00
 Coeff:     -0.285D-01 0.765D-01 0.373D+00 0.579D+00
 Gap=     0.318 Goal=   None    Shift=    0.000
 RMSDP=6.69D-05 MaxDP=4.18D-03 DE=-2.49D-03 OVMax= 5.66D-03

 Cycle   5  Pass 0  IDiag  1:
 RMSU=  2.87D-05    CP:  1.01D+00  9.65D-01  9.22D-01  6.39D-01
 E= -346.910273588555     Delta-E=       -0.000748320226 Rises=F Damp=F
 DIIS: error= 2.25D-04 at cycle   5 NSaved=   5.
 NSaved= 5 IEnMin= 5 EnMin= -346.910273588555     IErMin= 5 ErrMin= 2.25D-04
 ErrMax= 2.25D-04  0.00D+00 EMaxC= 1.00D-01 BMatC= 3.37D-05 BMatP= 1.03D-03
 IDIUse=3 WtCom= 9.98D-01 WtEn= 2.25D-03
 Coeff-Com: -0.571D-02 0.108D-01 0.101D+00 0.227D+00 0.667D+00
 Coeff-En:   0.000D+00 0.000D+00 0.000D+00 0.000D+00 0.100D+01
 Coeff:     -0.570D-02 0.107D-01 0.100D+00 0.226D+00 0.668D+00
 Gap=     0.318 Goal=   None    Shift=    0.000
 RMSDP=1.09D-05 MaxDP=4.39D-04 DE=-7.48D-04 OVMax= 8.77D-04

 Cycle   6  Pass 0  IDiag  1:
 RMSU=  8.13D-06    CP:  1.01D+00  9.64D-01  9.27D-01  6.76D-01  8.20D-01
 E= -346.910296683018     Delta-E=       -0.000023094463 Rises=F Damp=F
 DIIS: error= 5.70D-05 at cycle   6 NSaved=   6.
 NSaved= 6 IEnMin= 6 EnMin= -346.910296683018     IErMin= 6 ErrMin= 5.70D-05
 ErrMax= 5.70D-05  0.00D+00 EMaxC= 1.00D-01 BMatC= 1.79D-06 BMatP= 3.37D-05
 IDIUse=1 WtCom= 1.00D+00 WtEn= 0.00D+00
 Coeff-Com: -0.253D-03-0.692D-03 0.149D-01 0.536D-01 0.233D+00 0.700D+00
 Coeff:     -0.253D-03-0.692D-03 0.149D-01 0.536D-01 0.233D+00 0.700D+00
 Gap=     0.318 Goal=   None    Shift=    0.000
 RMSDP=3.30D-06 MaxDP=1.43D-04 DE=-2.31D-05 OVMax= 3.08D-04

 Initial convergence to 1.0D-05 achieved.  Increase integral accuracy.
 Cycle   7  Pass 1  IDiag  1:
 E= -346.910292523793     Delta-E=        0.000004159225 Rises=F Damp=F
 DIIS: error= 1.79D-05 at cycle   1 NSaved=   1.
 NSaved= 1 IEnMin= 1 EnMin= -346.910292523793     IErMin= 1 ErrMin= 1.79D-05
 ErrMax= 1.79D-05  0.00D+00 EMaxC= 1.00D-01 BMatC= 6.95D-07 BMatP= 6.95D-07
 IDIUse=1 WtCom= 1.00D+00 WtEn= 0.00D+00
 Coeff-Com:  0.100D+01
 Coeff:      0.100D+01
 Gap=     0.318 Goal=   None    Shift=    0.000
 RMSDP=3.30D-06 MaxDP=1.43D-04 DE= 4.16D-06 OVMax= 1.61D-04

 Cycle   8  Pass 1  IDiag  1:
 RMSU=  6.11D-06    CP:  1.00D+00
 E= -346.910292760103     Delta-E=       -0.000000236310 Rises=F Damp=F
 DIIS: error= 1.58D-05 at cycle   2 NSaved=   2.
 NSaved= 2 IEnMin= 2 EnMin= -346.910292760103     IErMin= 2 ErrMin= 1.58D-05
 ErrMax= 1.58D-05  0.00D+00 EMaxC= 1.00D-01 BMatC= 2.94D-07 BMatP= 6.95D-07
 IDIUse=1 WtCom= 1.00D+00 WtEn= 0.00D+00
 Coeff-Com:  0.360D+00 0.640D+00
 Coeff:      0.360D+00 0.640D+00
 Gap=     0.318 Goal=   None    Shift=    0.000
 RMSDP=1.29D-06 MaxDP=7.48D-05 DE=-2.36D-07 OVMax= 1.04D-04

 Cycle   9  Pass 1  IDiag  1:
 RMSU=  1.28D-06    CP:  1.00D+00  9.81D-01
 E= -346.910292925893     Delta-E=       -0.000000165789 Rises=F Damp=F
 DIIS: error= 7.03D-06 at cycle   3 NSaved=   3.
 NSaved= 3 IEnMin= 3 EnMin= -346.910292925893     IErMin= 3 ErrMin= 7.03D-06
 ErrMax= 7.03D-06  0.00D+00 EMaxC= 1.00D-01 BMatC= 5.95D-08 BMatP= 2.94D-07
 IDIUse=1 WtCom= 1.00D+00 WtEn= 0.00D+00
 Coeff-Com: -0.133D-01 0.302D+00 0.711D+00
 Coeff:     -0.133D-01 0.302D+00 0.711D+00
 Gap=     0.318 Goal=   None    Shift=    0.000
 RMSDP=5.03D-07 MaxDP=2.38D-05 DE=-1.66D-07 OVMax= 4.18D-05

 Cycle  10  Pass 1  IDiag  1:
 RMSU=  2.71D-07    CP:  1.00D+00  1.02D+00  7.20D-01
 E= -346.910292963705     Delta-E=       -0.000000037813 Rises=F Damp=F
 DIIS: error= 2.00D-06 at cycle   4 NSaved=   4.
 NSaved= 4 IEnMin= 4 EnMin= -346.910292963705     IErMin= 4 ErrMin= 2.00D-06
 ErrMax= 2.00D-06  0.00D+00 EMaxC= 1.00D-01 BMatC= 1.96D-09 BMatP= 5.95D-08
 IDIUse=1 WtCom= 1.00D+00 WtEn= 0.00D+00
 Coeff-Com: -0.146D-01 0.121D+00 0.316D+00 0.578D+00
 Coeff:     -0.146D-01 0.121D+00 0.316D+00 0.578D+00
 Gap=     0.318 Goal=   None    Shift=    0.000
 RMSDP=1.11D-07 MaxDP=3.92D-06 DE=-3.78D-08 OVMax= 1.41D-05

 Cycle  11  Pass 1  IDiag  1:
 RMSU=  9.43D-08    CP:  1.00D+00  1.02D+00  7.52D-01  8.56D-01
 E= -346.910292965406     Delta-E=       -0.000000001701 Rises=F Damp=F
 DIIS: error= 4.74D-07 at cycle   5 NSaved=   5.
 NSaved= 5 IEnMin= 5 EnMin= -346.910292965406     IErMin= 5 ErrMin= 4.74D-07
 ErrMax= 4.74D-07  0.00D+00 EMaxC= 1.00D-01 BMatC= 1.20D-10 BMatP= 1.96D-09
 IDIUse=1 WtCom= 1.00D+00 WtEn= 0.00D+00
 Coeff-Com: -0.199D-02-0.775D-02-0.172D-01 0.155D+00 0.872D+00
 Coeff:     -0.199D-02-0.775D-02-0.172D-01 0.155D+00 0.872D+00
 Gap=     0.318 Goal=   None    Shift=    0.000
 RMSDP=4.49D-08 MaxDP=1.67D-06 DE=-1.70D-09 OVMax= 7.16D-06

 Cycle  12  Pass 1  IDiag  1:
 RMSU=  2.57D-08    CP:  1.00D+00  1.02D+00  7.48D-01  9.85D-01  1.01D+00
 E= -346.910292965563     Delta-E=       -0.000000000157 Rises=F Damp=F
 DIIS: error= 1.84D-07 at cycle   6 NSaved=   6.
 NSaved= 6 IEnMin= 6 EnMin= -346.910292965563     IErMin= 6 ErrMin= 1.84D-07
 ErrMax= 1.84D-07  0.00D+00 EMaxC= 1.00D-01 BMatC= 2.34D-11 BMatP= 1.20D-10
 IDIUse=1 WtCom= 1.00D+00 WtEn= 0.00D+00
 Coeff-Com:  0.788D-03-0.178D-01-0.456D-01-0.627D-02 0.377D+00 0.692D+00
 Coeff:      0.788D-03-0.178D-01-0.456D-01-0.627D-02 0.377D+00 0.692D+00
 Gap=     0.318 Goal=   None    Shift=    0.000
 RMSDP=1.44D-08 MaxDP=5.85D-07 DE=-1.57D-10 OVMax= 1.49D-06

 Cycle  13  Pass 1  IDiag  1:
 RMSU=  9.47D-09    CP:  1.00D+00  1.02D+00  7.50D-01  9.99D-01  1.11D+00
                    CP:  9.93D-01
 E= -346.910292965585     Delta-E=       -0.000000000022 Rises=F Damp=F
 DIIS: error= 8.03D-08 at cycle   7 NSaved=   7.
 NSaved= 7 IEnMin= 7 EnMin= -346.910292965585     IErMin= 7 ErrMin= 8.03D-08
 ErrMax= 8.03D-08  0.00D+00 EMaxC= 1.00D-01 BMatC= 1.78D-12 BMatP= 2.34D-11
 IDIUse=1 WtCom= 1.00D+00 WtEn= 0.00D+00
 Coeff-Com:  0.482D-03-0.629D-02-0.166D-01-0.155D-01 0.922D-01 0.283D+00
 Coeff-Com:  0.662D+00
 Coeff:      0.482D-03-0.629D-02-0.166D-01-0.155D-01 0.922D-01 0.283D+00
 Coeff:      0.662D+00
 Gap=     0.318 Goal=   None    Shift=    0.000
 RMSDP=3.70D-09 MaxDP=1.19D-07 DE=-2.18D-11 OVMax= 5.63D-07

 SCF Done:  E(RM062X) =  -346.910292966     A.U. after   13 cycles
            NFock= 13  Conv=0.37D-08     -V/T= 2.0061
 KE= 3.448007832682D+02 PE=-1.455977077819D+03 EE= 4.414095279324D+02
 Leave Link  502 at Thu Sep 26 02:03:26 2019, MaxMem=   671088640 cpu:            1210.1 elap:             605.2
 (Enter /shared/centos7/gaussian/g16/l801.exe)
 DoSCS=F DFT=T ScalE2(SS,OS)=  1.000000  1.000000
 Range of M.O.s used for correlation:     1   350
 NBasis=   350 NAE=    28 NBE=    28 NFC=     0 NFV=     0
 NROrb=    350 NOA=    28 NOB=    28 NVA=   322 NVB=   322
 Leave Link  801 at Thu Sep 26 02:03:27 2019, MaxMem=   671088640 cpu:               2.1 elap:               1.0
 (Enter /shared/centos7/gaussian/g16/l1101.exe)
 Using compressed storage, NAtomX=    17.
 Will process     18 centers per pass.
 Leave Link 1101 at Thu Sep 26 02:03:54 2019, MaxMem=   671088640 cpu:              54.4 elap:              27.2
 (Enter /shared/centos7/gaussian/g16/l1102.exe)
 Symmetrizing basis deriv contribution to polar:
 IMax=3 JMax=2 DiffMx= 0.00D+00
 Leave Link 1102 at Thu Sep 26 02:03:57 2019, MaxMem=   671088640 cpu:               4.7 elap:               2.4
 (Enter /shared/centos7/gaussian/g16/l1110.exe)
 Forming Gx(P) for the SCF density, NAtomX=    17.
 Integral derivatives from FoFJK, PRISM(SPDF).
 Do as many integral derivatives as possible in FoFJK.
 G2DrvN: MDV=     671087280.
 G2DrvN: will do    18 centers at a time, making    1 passes.
 Calling FoFCou, ICntrl=  3107 FMM=F I1Cent=   0 AccDes= 0.00D+00.
 FoFJK:  IHMeth= 1 ICntrl=    3107 DoSepK=F KAlg= 0 I1Cent=           0 FoldK=F
 IRaf=         0 NMat=       1 IRICut=       1 DoRegI=T DoRafI=F ISym2E= 0 IDoP0=0 IntGTp=1.
 FoFCou: FMM=F IPFlag=           0 FMFlag=      100000 FMFlg1=           0
         NFxFlg=           0 DoJE=F BraDBF=F KetDBF=F FulRan=T
         wScrn=  0.000000 ICntrl=      3107 IOpCl=  0 I1Cent=           0 NGrid=           0
         NMat0=    1 NMatS0=      1 NMatT0=    0 NMatD0=    1 NMtDS0=    0 NMtDT0=    0
 Symmetry not used in FoFCou.
 End of G2Drv F.D. properties file   721 does not exist.
 End of G2Drv F.D. properties file   722 does not exist.
 End of G2Drv F.D. properties file   788 does not exist.
 Leave Link 1110 at Thu Sep 26 02:22:01 2019, MaxMem=   671088640 cpu:            2168.3 elap:            1084.3
 (Enter /shared/centos7/gaussian/g16/l1002.exe)
 Minotr:  Closed shell wavefunction.
          IDoAtm=11111111111111111
          Direct CPHF calculation.
          Differentiating once with respect to nuclear coordinates.
          Requested convergence is 1.0D-08 RMS, and 1.0D-07 maximum.
          Secondary convergence is 1.0D-12 RMS, and 1.0D-12 maximum.
          NewPWx=T KeepS1=F KeepF1=F KeepIn=T MapXYZ=F SortEE=F KeepMc=T.
         5102 words used for storage of precomputed grid.
 Two-electron integrals replicated using symmetry.
          MDV=     671088640 using IRadAn=       1.
          Solving linear equations simultaneously, MaxMat=     380.
 FoF2E skips out because all densities are zero.
 CalDSu exits because no D1Ps are significant.
 FoFJK:  IHMeth= 1 ICntrl=       0 DoSepK=F KAlg= 0 I1Cent=           0 FoldK=F
 IRaf= 950000000 NMat=      51 IRICut=     127 DoRegI=T DoRafI=T ISym2E= 2 IDoP0=3 IntGTp=3.
 FoFCou: FMM=F IPFlag=           0 FMFlag=      100000 FMFlg1=           0
         NFxFlg=           0 DoJE=F BraDBF=F KetDBF=F FulRan=T
         wScrn=  0.000000 ICntrl=         0 IOpCl=  0 I1Cent=           0 NGrid=           0
         NMat0=   51 NMatS0=     51 NMatT0=    0 NMatD0=   51 NMtDS0=    0 NMtDT0=    0
 Integrals replicated using symmetry in FoFCou.
 Raff kept on since  91.94% of shell-pairs survive, threshold=   0.20 IRatSp=92.
          There are    54 degrees of freedom in the 1st order CPHF.  IDoFFX=6 NUNeed=     0.
     48 vectors produced by pass  0 Test12= 1.67D-14 1.85D-09 XBig12= 7.06D-02 6.19D-02.
 AX will form    48 AO Fock derivatives at one time.
     48 vectors produced by pass  1 Test12= 1.67D-14 1.85D-09 XBig12= 6.85D-03 3.15D-02.
     48 vectors produced by pass  2 Test12= 1.67D-14 1.85D-09 XBig12= 1.93D-04 2.63D-03.
     48 vectors produced by pass  3 Test12= 1.67D-14 1.85D-09 XBig12= 2.22D-06 1.69D-04.
     48 vectors produced by pass  4 Test12= 1.67D-14 1.85D-09 XBig12= 1.68D-08 1.71D-05.
     48 vectors produced by pass  5 Test12= 1.67D-14 1.85D-09 XBig12= 8.36D-11 9.74D-07.
     27 vectors produced by pass  6 Test12= 1.67D-14 1.85D-09 XBig12= 3.78D-13 7.21D-08.
      6 vectors produced by pass  7 Test12= 1.67D-14 1.85D-09 XBig12= 1.47D-15 3.51D-09.
 InvSVY:  IOpt=1 It=  1 EMax= 2.50D-16
 Solved reduced A of dimension   321 with    54 vectors.
 End of Minotr F.D. properties file   721 does not exist.
 End of Minotr F.D. properties file   722 does not exist.
 End of Minotr F.D. properties file   788 does not exist.
 Leave Link 1002 at Thu Sep 26 02:52:35 2019, MaxMem=   671088640 cpu:            3667.2 elap:            1833.9
 (Enter /shared/centos7/gaussian/g16/l601.exe)
 Copying SCF densities to generalized density rwf, IOpCl= 0 IROHF=0.

 **********************************************************************

            Population analysis using the SCF density.

 **********************************************************************

 Orbital symmetries:
       Occupied  (A) (A) (A) (A) (A) (A) (A) (A) (A) (A) (A) (A)
                 (A) (A) (A) (A) (A) (A) (A) (A) (A) (A) (A) (A)
                 (A) (A) (A) (A)
       Virtual   (A) (A) (A) (A) (A) (A) (A) (A) (A) (A) (A) (A)
                 (A) (A) (A) (A) (A) (A) (A) (A) (A) (A) (A) (A)
                 (A) (A) (A) (A) (A) (A) (A) (A) (A) (A) (A) (A)
                 (A) (A) (A) (A) (A) (A) (A) (A) (A) (A) (A) (A)
                 (A) (A) (A) (A) (A) (A) (A) (A) (A) (A) (A) (A)
                 (A) (A) (A) (A) (A) (A) (A) (A) (A) (A) (A) (A)
                 (A) (A) (A) (A) (A) (A) (A) (A) (A) (A) (A) (A)
                 (A) (A) (A) (A) (A) (A) (A) (A) (A) (A) (A) (A)
                 (A) (A) (A) (A) (A) (A) (A) (A) (A) (A) (A) (A)
                 (A) (A) (A) (A) (A) (A) (A) (A) (A) (A) (A) (A)
                 (A) (A) (A) (A) (A) (A) (A) (A) (A) (A) (A) (A)
                 (A) (A) (A) (A) (A) (A) (A) (A) (A) (A) (A) (A)
                 (A) (A) (A) (A) (A) (A) (A) (A) (A) (A) (A) (A)
                 (A) (A) (A) (A) (A) (A) (A) (A) (A) (A) (A) (A)
                 (A) (A) (A) (A) (A) (A) (A) (A) (A) (A) (A) (A)
                 (A) (A) (A) (A) (A) (A) (A) (A) (A) (A) (A) (A)
                 (A) (A) (A) (A) (A) (A) (A) (A) (A) (A) (A) (A)
                 (A) (A) (A) (A) (A) (A) (A) (A) (A) (A) (A) (A)
                 (A) (A) (A) (A) (A) (A) (A) (A) (A) (A) (A) (A)
                 (A) (A) (A) (A) (A) (A) (A) (A) (A) (A) (A) (A)
                 (A) (A) (A) (A) (A) (A) (A) (A) (A) (A) (A) (A)
                 (A) (A) (A) (A) (A) (A) (A) (A) (A) (A) (A) (A)
                 (A) (A) (A) (A) (A) (A) (A) (A) (A) (A) (A) (A)
                 (A) (A) (A) (A) (A) (A) (A) (A) (A) (A) (A) (A)
                 (A) (A) (A) (A) (A) (A) (A) (A) (A) (A) (A) (A)
                 (A) (A) (A) (A) (A) (A) (A) (A) (A) (A) (A) (A)
                 (A) (A) (A) (A) (A) (A) (A) (A) (A) (A)
 The electronic state is 1-A.
 Alpha  occ. eigenvalues --  -19.65770 -19.63313 -10.58611 -10.58589 -10.57889
 Alpha  occ. eigenvalues --  -10.52223 -10.52105  -1.17964  -1.16218  -0.88642
 Alpha  occ. eigenvalues --   -0.84574  -0.76894  -0.70340  -0.63449  -0.61500
 Alpha  occ. eigenvalues --   -0.56698  -0.54400  -0.53126  -0.50670  -0.46347
 Alpha  occ. eigenvalues --   -0.44999  -0.44464  -0.43455  -0.42090  -0.40183
 Alpha  occ. eigenvalues --   -0.38207  -0.34597  -0.27748
 Alpha virt. eigenvalues --    0.04099   0.07674   0.08405   0.09986   0.10890
 Alpha virt. eigenvalues --    0.12373   0.12796   0.13587   0.16464   0.17788
 Alpha virt. eigenvalues --    0.18034   0.18715   0.22606   0.24240   0.25451
 Alpha virt. eigenvalues --    0.28872   0.29405   0.30983   0.33066   0.33446
 Alpha virt. eigenvalues --    0.35501   0.36337   0.37344   0.38441   0.39829
 Alpha virt. eigenvalues --    0.41581   0.42690   0.43069   0.45068   0.46667
 Alpha virt. eigenvalues --    0.47940   0.48582   0.49610   0.49978   0.50663
 Alpha virt. eigenvalues --    0.51399   0.53152   0.53362   0.54227   0.54486
 Alpha virt. eigenvalues --    0.56208   0.57228   0.58608   0.59820   0.62377
 Alpha virt. eigenvalues --    0.64198   0.66629   0.68438   0.72011   0.75066
 Alpha virt. eigenvalues --    0.75674   0.78277   0.78352   0.81377   0.82413
 Alpha virt. eigenvalues --    0.83805   0.87210   0.89472   0.92216   0.93095
 Alpha virt. eigenvalues --    0.96065   0.97849   0.97985   1.00654   1.01800
 Alpha virt. eigenvalues --    1.02452   1.03220   1.05072   1.07752   1.08111
 Alpha virt. eigenvalues --    1.09377   1.10211   1.11352   1.12117   1.13031
 Alpha virt. eigenvalues --    1.15515   1.16237   1.18309   1.19813   1.22213
 Alpha virt. eigenvalues --    1.23632   1.25027   1.27194   1.27673   1.29777
 Alpha virt. eigenvalues --    1.31115   1.32175   1.33240   1.34108   1.35189
 Alpha virt. eigenvalues --    1.36937   1.38329   1.39831   1.40695   1.41665
 Alpha virt. eigenvalues --    1.43517   1.44239   1.49448   1.51612   1.52725
 Alpha virt. eigenvalues --    1.53577   1.55339   1.56902   1.58149   1.59113
 Alpha virt. eigenvalues --    1.62920   1.64016   1.67362   1.73292   1.87657
 Alpha virt. eigenvalues --    1.89776   1.94616   2.00200   2.04309   2.08828
 Alpha virt. eigenvalues --    2.10414   2.12724   2.15344   2.17573   2.19701
 Alpha virt. eigenvalues --    2.20881   2.24712   2.27443   2.31709   2.32813
 Alpha virt. eigenvalues --    2.35281   2.39743   2.40062   2.42555   2.45118
 Alpha virt. eigenvalues --    2.47255   2.50347   2.52968   2.54544   2.59346
 Alpha virt. eigenvalues --    2.60285   2.63024   2.64304   2.65511   2.66788
 Alpha virt. eigenvalues --    2.70066   2.75431   2.79290   2.79801   2.82092
 Alpha virt. eigenvalues --    2.82474   2.83197   2.84679   2.87153   2.88887
 Alpha virt. eigenvalues --    2.89519   2.91826   2.92185   2.94010   2.95354
 Alpha virt. eigenvalues --    2.96821   2.98476   2.99673   3.00499   3.02402
 Alpha virt. eigenvalues --    3.04186   3.05208   3.06420   3.06867   3.07724
 Alpha virt. eigenvalues --    3.08479   3.10509   3.11889   3.12194   3.14286
 Alpha virt. eigenvalues --    3.17795   3.17869   3.19618   3.20082   3.21935
 Alpha virt. eigenvalues --    3.23876   3.24950   3.26934   3.27924   3.31775
 Alpha virt. eigenvalues --    3.32052   3.34079   3.34842   3.37854   3.38859
 Alpha virt. eigenvalues --    3.40577   3.41221   3.42568   3.43023   3.43642
 Alpha virt. eigenvalues --    3.45951   3.46500   3.49521   3.50603   3.53057
 Alpha virt. eigenvalues --    3.53696   3.54914   3.57577   3.60978   3.61832
 Alpha virt. eigenvalues --    3.63786   3.66609   3.67290   3.68744   3.72711
 Alpha virt. eigenvalues --    3.73371   3.74302   3.75459   3.77822   3.79165
 Alpha virt. eigenvalues --    3.82989   3.83682   3.84190   3.84851   3.87964
 Alpha virt. eigenvalues --    3.88970   3.91056   3.91954   3.92355   3.95109
 Alpha virt. eigenvalues --    3.95537   3.96773   3.99955   4.02487   4.03653
 Alpha virt. eigenvalues --    4.04548   4.05727   4.07343   4.08557   4.10501
 Alpha virt. eigenvalues --    4.11731   4.13208   4.14378   4.15870   4.16769
 Alpha virt. eigenvalues --    4.19884   4.21412   4.23184   4.27405   4.28753
 Alpha virt. eigenvalues --    4.32081   4.34307   4.37677   4.40048   4.43330
 Alpha virt. eigenvalues --    4.45272   4.48656   4.50590   4.51390   4.53622
 Alpha virt. eigenvalues --    4.59044   4.60853   4.63379   4.67400   4.67917
 Alpha virt. eigenvalues --    4.69404   4.72233   4.73240   4.78789   4.82140
 Alpha virt. eigenvalues --    4.83479   4.89267   4.89868   4.92974   4.94198
 Alpha virt. eigenvalues --    4.95284   4.99161   5.00801   5.02558   5.04231
 Alpha virt. eigenvalues --    5.08229   5.10436   5.11465   5.12938   5.13134
 Alpha virt. eigenvalues --    5.21258   5.23126   5.25458   5.26054   5.27280
 Alpha virt. eigenvalues --    5.30704   5.32367   5.36438   5.36968   5.46270
 Alpha virt. eigenvalues --    5.48852   5.55655   5.61339   5.67653   5.75126
 Alpha virt. eigenvalues --    5.76910   5.77736   5.79285   5.82632   5.86301
 Alpha virt. eigenvalues --    5.94215   6.03262   6.09973   6.21276   6.26719
 Alpha virt. eigenvalues --    6.33160   6.48234   6.58746   6.59769   6.70887
 Alpha virt. eigenvalues --    6.73737   6.78850   6.79947   6.81404   7.02983
 Alpha virt. eigenvalues --    7.08816   7.19709   7.28447   7.37631   7.39682
 Alpha virt. eigenvalues --   10.09319  10.94896  11.67227  12.10118  13.02522
 Alpha virt. eigenvalues --   13.44709  14.35675
          Condensed to atoms (all electrons):
               1          2          3          4          5          6
     1  O    7.855945   0.002755   0.286277  -0.054471  -0.045407   0.355665
     2  O    0.002755   7.788912   0.008744   0.000142  -0.001154  -0.076475
     3  C    0.286277   0.008744   4.910451   0.313843   0.302077  -0.070192
     4  C   -0.054471   0.000142   0.313843   5.012648  -0.054283   0.001276
     5  C   -0.045407  -0.001154   0.302077  -0.054283   5.115786  -0.034948
     6  C    0.355665  -0.076475  -0.070192   0.001276  -0.034948   5.093639
     7  C   -0.061069   0.342654  -0.014049  -0.000982  -0.023355   0.409814
     8  H   -0.040358   0.003318   0.414741  -0.048686  -0.068629  -0.006556
     9  H    0.006806  -0.000013  -0.048001   0.387036   0.005394   0.002430
    10  H    0.003252  -0.000004  -0.038485   0.396044   0.005473  -0.000215
    11  H    0.003733  -0.000004  -0.045474   0.401919  -0.012801  -0.000144
    12  H    0.004388   0.001070  -0.037616  -0.018107   0.391563  -0.003384
    13  H   -0.009617  -0.005041  -0.041571   0.006917   0.408667   0.000132
    14  H    0.003855   0.001237  -0.037679   0.004831   0.394456   0.001808
    15  H   -0.047709   0.002997   0.007608   0.000253   0.000310   0.457455
    16  H    0.004901  -0.050454   0.000870   0.000131   0.000115  -0.079751
    17  H   -0.000323   0.318590  -0.000697  -0.000036   0.000927   0.010005
               7          8          9         10         11         12
     1  O   -0.061069  -0.040358   0.006806   0.003252   0.003733   0.004388
     2  O    0.342654   0.003318  -0.000013  -0.000004  -0.000004   0.001070
     3  C   -0.014049   0.414741  -0.048001  -0.038485  -0.045474  -0.037616
     4  C   -0.000982  -0.048686   0.387036   0.396044   0.401919  -0.018107
     5  C   -0.023355  -0.068629   0.005394   0.005473  -0.012801   0.391563
     6  C    0.409814  -0.006556   0.002430  -0.000215  -0.000144  -0.003384
     7  C    5.097226   0.007476   0.000648   0.000020   0.000076   0.001597
     8  H    0.007476   0.614097   0.005948  -0.007733   0.005907   0.009630
     9  H    0.000648   0.005948   0.572993  -0.024982  -0.030541   0.002004
    10  H    0.000020  -0.007733  -0.024982   0.592930  -0.036533   0.001077
    11  H    0.000076   0.005907  -0.030541  -0.036533   0.617459   0.000182
    12  H    0.001597   0.009630   0.002004   0.001077   0.000182   0.618111
    13  H   -0.007515  -0.000346  -0.000646  -0.000521   0.001184  -0.036872
    14  H   -0.000596  -0.013827  -0.000420  -0.000228  -0.000409  -0.031936
    15  H   -0.113643  -0.001372  -0.000565  -0.000014  -0.000043  -0.000530
    16  H    0.423712   0.000073  -0.000019  -0.000004  -0.000009   0.000078
    17  H   -0.037514   0.000145   0.000002   0.000001   0.000003  -0.000011
              13         14         15         16         17
     1  O   -0.009617   0.003855  -0.047709   0.004901  -0.000323
     2  O   -0.005041   0.001237   0.002997  -0.050454   0.318590
     3  C   -0.041571  -0.037679   0.007608   0.000870  -0.000697
     4  C    0.006917   0.004831   0.000253   0.000131  -0.000036
     5  C    0.408667   0.394456   0.000310   0.000115   0.000927
     6  C    0.000132   0.001808   0.457455  -0.079751   0.010005
     7  C   -0.007515  -0.000596  -0.113643   0.423712  -0.037514
     8  H   -0.000346  -0.013827  -0.001372   0.000073   0.000145
     9  H   -0.000646  -0.000420  -0.000565  -0.000019   0.000002
    10  H   -0.000521  -0.000228  -0.000014  -0.000004   0.000001
    11  H    0.001184  -0.000409  -0.000043  -0.000009   0.000003
    12  H   -0.036872  -0.031936  -0.000530   0.000078  -0.000011
    13  H    0.577818  -0.028090   0.001194  -0.001279   0.001011
    14  H   -0.028090   0.584397  -0.000059   0.000109  -0.000050
    15  H    0.001194  -0.000059   0.563664  -0.005472  -0.000639
    16  H   -0.001279   0.000109  -0.005472   0.601788  -0.015233
    17  H    0.001011  -0.000050  -0.000639  -0.015233   0.455812
 Mulliken charges:
               1
     1  O   -0.268623
     2  O   -0.337273
     3  C    0.089154
     4  C   -0.348476
     5  C   -0.384192
     6  C   -0.060559
     7  C   -0.024503
     8  H    0.126175
     9  H    0.121927
    10  H    0.109922
    11  H    0.095496
    12  H    0.098757
    13  H    0.134576
    14  H    0.122601
    15  H    0.136568
    16  H    0.120443
    17  H    0.268006
 Sum of Mulliken charges =  -0.00000
 Mulliken charges with hydrogens summed into heavy atoms:
               1
     1  O   -0.268623
     2  O   -0.069267
     3  C    0.215329
     4  C   -0.021131
     5  C   -0.028257
     6  C    0.076009
     7  C    0.095940
 APT charges:
               1
     1  O   -0.206850
     2  O   -0.823129
     3  C   -0.077409
     4  C   -1.286970
     5  C   -1.001132
     6  C   -0.479181
     7  C   -0.355977
     8  H    0.331993
     9  H    0.325322
    10  H    0.458984
    11  H    0.378839
    12  H    0.381601
    13  H    0.230727
    14  H    0.372411
    15  H    0.458565
    16  H    0.488712
    17  H    0.803496
 Sum of APT charges =  -0.00000
 APT charges with hydrogens summed into heavy atoms:
               1
     1  O   -0.206850
     2  O   -0.019633
     3  C    0.254584
     4  C   -0.123825
     5  C   -0.016393
     6  C   -0.020616
     7  C    0.132734
 Electronic spatial extent (au):  <R**2>=            861.1379
 Charge=             -0.0000 electrons
 Dipole moment (field-independent basis, Debye):
    X=             -1.7323    Y=              1.2602    Z=              1.4650  Tot=              2.5952
 Quadrupole moment (field-independent basis, Debye-Ang):
   XX=            -35.3344   YY=            -44.0578   ZZ=            -45.2142
   XY=             -1.8330   XZ=             -2.7297   YZ=             -1.9174
 Traceless Quadrupole moment (field-independent basis, Debye-Ang):
   XX=              6.2011   YY=             -2.5223   ZZ=             -3.6788
   XY=             -1.8330   XZ=             -2.7297   YZ=             -1.9174
 Octapole moment (field-independent basis, Debye-Ang**2):
  XXX=            -40.2452  YYY=              1.0862  ZZZ=             -4.4491  XYY=             -8.3164
  XXY=             11.5559  XXZ=              3.1052  XZZ=             -0.2693  YZZ=             -0.9706
  YYZ=              1.3380  XYZ=              1.1023
 Hexadecapole moment (field-independent basis, Debye-Ang**3):
 XXXX=           -662.4002 YYYY=           -252.2303 ZZZZ=           -126.9049 XXXY=            -52.0690
 XXXZ=             -6.3542 YYYX=            -19.0507 YYYZ=            -12.0764 ZZZX=              0.7743
 ZZZY=             -3.2616 XXYY=           -156.6750 XXZZ=           -146.1298 YYZZ=            -63.1871
 XXYZ=             -4.9211 YYXZ=              1.1486 ZZXY=              0.2684
 N-N= 3.228564736528D+02 E-N=-1.455977081528D+03  KE= 3.448007832682D+02
  Exact polarizability:   0.000   0.000   0.000   0.000   0.000   0.000
 Approx polarizability:  88.736  -7.686  80.382  -1.048  -4.579  71.810
 No NMR shielding tensors so no spin-rotation constants.
 Leave Link  601 at Thu Sep 26 02:53:02 2019, MaxMem=   671088640 cpu:              54.3 elap:              27.2
 (Enter /shared/centos7/gaussian/g16/l701.exe)
 SCFChk:  SCF convergence  3.70D-09 required  1.00D-08
 ... and contract with generalized density number  0.
 Compute integral second derivatives.
 Entering OneElI...
 Calculate overlap and kinetic energy integrals
    NBasis = 395  MinDer = 2  MaxDer = 2
 Requested accuracy = 0.1000D-12
 PrmmSu-InSpLW:  IPartL=    0 NPrtUS=   20 NPrtUL=    1 DoSpLW=F IThBeg=    0 IThEnd=   19 NThAct=   20.
 PrsmSu:  NPrtUS=  20 ThrOK=T IAlg=1 NPAlg=1 LenDen=           0 ISkipM=0 DoSpLW=F IThBeg=    0 IThEnd=   19.
 Prism:   IPart=     0 DynPar=F LinDyn=F Incr=           4.
 PRISM was handed    33310760 working-precision words and  8440 shell-pairs
 PRISM was handed    33310760 working-precision words and  8440 shell-pairs
 PRISM was handed    33310760 working-precision words and  8440 shell-pairs
 PRISM was handed    33310760 working-precision words and  8440 shell-pairs
 PRISM was handed    33310760 working-precision words and  8440 shell-pairs
 PRISM was handed    33310760 working-precision words and  8440 shell-pairs
 PRISM was handed    33310760 working-precision words and  8440 shell-pairs
 PRISM was handed    33310760 working-precision words and  8440 shell-pairs
 PRISM was handed    33310760 working-precision words and  8440 shell-pairs
 PRISM was handed    33310760 working-precision words and  8440 shell-pairs
 PRISM was handed    33310760 working-precision words and  8440 shell-pairs
 IPart=  0 NShTot=         465 NBatch=          83 AvBLen=         5.6
 IPart=  2 NShTot=         453 NBatch=          72 AvBLen=         6.3
 PRISM was handed    33310760 working-precision words and  8440 shell-pairs
 IPart= 11 NShTot=         413 NBatch=          45 AvBLen=         9.2
 PRISM was handed    33310760 working-precision words and  8440 shell-pairs
 PRISM was handed    33310760 working-precision words and  8440 shell-pairs
 IPart= 13 NShTot=         405 NBatch=          40 AvBLen=        10.1
 IPart=  6 NShTot=         435 NBatch=          58 AvBLen=         7.5
 PRISM was handed    33310760 working-precision words and  8440 shell-pairs
 IPart=  4 NShTot=         441 NBatch=          61 AvBLen=         7.2
 PRISM was handed    33310760 working-precision words and  8440 shell-pairs
 IPart=  3 NShTot=         446 NBatch=          66 AvBLen=         6.8
 PRISM was handed    33310760 working-precision words and  8440 shell-pairs
 PRISM was handed    33310760 working-precision words and  8440 shell-pairs
 PRISM was handed    33310760 working-precision words and  8440 shell-pairs
 IPart= 10 NShTot=         414 NBatch=          46 AvBLen=         9.0
 IPart=  1 NShTot=         461 NBatch=          79 AvBLen=         5.8
 PRISM was handed    33310760 working-precision words and  8440 shell-pairs
 IPart=  9 NShTot=         416 NBatch=          48 AvBLen=         8.7
 IPart= 18 NShTot=         399 NBatch=          39 AvBLen=        10.2
 IPart= 19 NShTot=         393 NBatch=          37 AvBLen=        10.6
 IPart= 15 NShTot=         402 NBatch=          39 AvBLen=        10.3
 IPart=  5 NShTot=         439 NBatch=          59 AvBLen=         7.4
 IPart= 17 NShTot=         401 NBatch=          39 AvBLen=        10.3
 IPart=  7 NShTot=         426 NBatch=          50 AvBLen=         8.5
 IPart=  8 NShTot=         417 NBatch=          49 AvBLen=         8.5
 IPart= 14 NShTot=         403 NBatch=          39 AvBLen=        10.3
 IPart= 16 NShTot=         402 NBatch=          39 AvBLen=        10.3
 IPart= 12 NShTot=         409 NBatch=          42 AvBLen=         9.7
 PrSmSu:  NxtVal=             81.
 Entering OneElI...
 Calculate potential energy integrals
    NBasis = 395  MinDer = 2  MaxDer = 2
 Requested accuracy = 0.1000D-12
 PrmmSu-InSpLW:  IPartL=    0 NPrtUS=   20 NPrtUL=    1 DoSpLW=F IThBeg=    0 IThEnd=   19 NThAct=   20.
 PrsmSu:  NPrtUS=  20 ThrOK=T IAlg=1 NPAlg=1 LenDen=           0 ISkipM=0 DoSpLW=F IThBeg=    0 IThEnd=   19.
 Prism:   IPart=     0 DynPar=F LinDyn=F Incr=          66.
 PRISM was handed    33353782 working-precision words and  7804 shell-pairs
 PRISM was handed    33353782 working-precision words and  7804 shell-pairs
 PRISM was handed    33353782 working-precision words and  7804 shell-pairs
 PRISM was handed    33353782 working-precision words and  7804 shell-pairs
 PRISM was handed    33353782 working-precision words and  7804 shell-pairs
 PRISM was handed    33353782 working-precision words and  7804 shell-pairs
 PRISM was handed    33353782 working-precision words and  7804 shell-pairs
 PRISM was handed    33353782 working-precision words and  7804 shell-pairs
 PRISM was handed    33353782 working-precision words and  7804 shell-pairs
 PRISM was handed    33353782 working-precision words and  7804 shell-pairs
 PRISM was handed    33353782 working-precision words and  7804 shell-pairs
 PRISM was handed    33353782 working-precision words and  7804 shell-pairs
 PRISM was handed    33353782 working-precision words and  7804 shell-pairs
 PRISM was handed    33353782 working-precision words and  7804 shell-pairs
 PRISM was handed    33353782 working-precision words and  7804 shell-pairs
 PRISM was handed    33353782 working-precision words and  7804 shell-pairs
 PRISM was handed    33353782 working-precision words and  7804 shell-pairs
 PRISM was handed    33353782 working-precision words and  7804 shell-pairs
 PRISM was handed    33353782 working-precision words and  7804 shell-pairs
 PRISM was handed    33353782 working-precision words and  7804 shell-pairs
 IPart= 19 NShTot=        6239 NBatch=         367 AvBLen=        17.0
 IPart=  5 NShTot=        6800 NBatch=         400 AvBLen=        17.0
 IPart=  8 NShTot=        6579 NBatch=         387 AvBLen=        17.0
 IPart=  4 NShTot=        6851 NBatch=         403 AvBLen=        17.0
 IPart=  6 NShTot=        6800 NBatch=         400 AvBLen=        17.0
 IPart= 11 NShTot=        6494 NBatch=         382 AvBLen=        17.0
 IPart=  3 NShTot=        6987 NBatch=         411 AvBLen=        17.0
 IPart= 14 NShTot=        6392 NBatch=         376 AvBLen=        17.0
 IPart= 15 NShTot=        6375 NBatch=         375 AvBLen=        17.0
 IPart= 17 NShTot=        6307 NBatch=         371 AvBLen=        17.0
 IPart= 13 NShTot=        6409 NBatch=         377 AvBLen=        17.0
 IPart=  0 NShTot=        7327 NBatch=         431 AvBLen=        17.0
 IPart= 16 NShTot=        6358 NBatch=         374 AvBLen=        17.0
 IPart=  1 NShTot=        7208 NBatch=         424 AvBLen=        17.0
 IPart= 18 NShTot=        6256 NBatch=         368 AvBLen=        17.0
 IPart= 12 NShTot=        6426 NBatch=         378 AvBLen=        17.0
 IPart=  2 NShTot=        7140 NBatch=         420 AvBLen=        17.0
 IPart=  9 NShTot=        6545 NBatch=         385 AvBLen=        17.0
 IPart= 10 NShTot=        6528 NBatch=         384 AvBLen=        17.0
 IPart=  7 NShTot=        6647 NBatch=         391 AvBLen=        17.0
 PrSmSu:  NxtVal=           1321.
 Polarizability after L701:
                1             2             3 
      1  0.000000D+00
      2  0.000000D+00  0.000000D+00
      3  0.000000D+00  0.000000D+00  0.000000D+00
 Dipole Derivatives after L701:
                 1             2             3             4             5 
      1  -0.212899D+00 -0.834160D-02 -0.835359D-01 -0.163045D+01  0.539550D+00
      2  -0.278159D+00 -0.213588D+00  0.121210D+00  0.549931D+00 -0.623614D+00
      3  -0.731121D-01  0.103215D-01 -0.194063D+00 -0.132996D+00 -0.567322D-01
                 6             7             8             9            10 
      1   0.426630D+00  0.312702D+00 -0.261752D+00  0.474454D+00 -0.206489D+01
      2  -0.197435D+00 -0.131154D+00 -0.491428D-01  0.316411D+00 -0.477946D-01
      3  -0.215326D+00 -0.142067D+00  0.193309D+00 -0.495786D+00  0.120206D+00
                11            12            13            14            15 
      1   0.259881D+00 -0.164652D+00 -0.704374D+00 -0.289404D+00 -0.369468D+00
      2  -0.873698D+00 -0.274379D-02  0.148063D+00 -0.134149D+01 -0.320800D+00
      3  -0.271052D-01 -0.922324D+00 -0.397824D-01 -0.119806D+00 -0.957534D+00
                16            17            18            19            20 
      1  -0.598838D+00  0.187290D+00  0.372028D+00 -0.459507D+00 -0.443334D+00
      2   0.189097D+00 -0.434503D+00  0.537293D+00  0.749455D-01 -0.313448D+00
      3   0.164857D+00  0.398670D+00 -0.404203D+00  0.352896D+00  0.375540D+00
                21            22            23            24            25 
      1   0.460157D+00  0.123218D+00  0.163142D+00 -0.316111D+00  0.269271D+00
      2   0.203942D+00  0.378679D-02  0.265668D+00 -0.177030D+00 -0.832491D-01
      3  -0.294978D+00  0.370558D-01 -0.173524D+00  0.607091D+00  0.738918D-02
                26            27            28            29            30 
      1  -0.890932D+00  0.297124D+00  0.782682D+00  0.198470D+00 -0.921591D+00
      2   0.595685D+00 -0.155696D+00  0.198008D-01  0.928359D-01 -0.420000D-01
      3  -0.789997D-01  0.111009D+00 -0.245711D+00 -0.874424D-01  0.501433D+00
                31            32            33            34            35 
      1   0.586469D+00  0.541023D+00  0.792008D+00  0.450765D+00  0.423909D-01
      2   0.854874D-01  0.229729D+00  0.202591D+00  0.296710D+00  0.157311D+00
      3   0.109874D+00  0.191386D+00  0.320320D+00  0.388169D+00  0.788673D-01
                36            37            38            39            40 
      1   0.383087D+00  0.357281D+00  0.859401D-01 -0.644278D-01  0.699124D-01
      2   0.370336D+00 -0.313671D+00  0.574543D-01  0.137090D+00 -0.805043D-01
      3   0.536727D+00 -0.379283D+00 -0.903767D-01  0.277445D+00 -0.862597D-02
                41            42            43            44            45 
      1   0.169991D+00 -0.880249D-01  0.204052D+00  0.269820D+00 -0.225011D+00
      2   0.898920D+00 -0.406627D+00 -0.287743D-01  0.793975D+00 -0.534598D+00
      3   0.342717D-02  0.148401D+00 -0.548534D-02 -0.405921D+00  0.377667D+00
                46            47            48            49            50 
      1   0.985551D+00  0.190837D+00 -0.685288D+00  0.152905D+01 -0.754573D+00
      2   0.107713D+00  0.162740D+00 -0.156068D+00 -0.512227D+00  0.595163D+00
      3  -0.286674D+00 -0.107095D+00  0.317844D+00  0.133289D+00 -0.104518D+00
                51 
      1  -0.287378D+00
      2   0.104126D+00
      3   0.286276D+00
 Hessian after L701:
                1             2             3             4             5 
      1  0.670502D+01
      2 -0.376192D+01  0.119618D+02
      3  0.356822D+01 -0.211054D+00  0.168941D+02
      4  0.332830D+00 -0.564318D+00  0.101579D+00  0.958299D+01
      5 -0.592655D+00  0.700539D-01 -0.118722D+00  0.408778D+01  0.850471D+01
      6  0.112338D+00 -0.120947D+00 -0.369168D+00 -0.648515D+00  0.381841D+01
      7 -0.602190D+01  0.405953D+01 -0.158226D+00  0.500924D+00 -0.210306D+00
      8  0.385608D+01 -0.274668D+01 -0.103590D+00 -0.190485D+00 -0.247320D+00
      9 -0.205379D+00 -0.765189D-01 -0.883009D+01  0.196381D+00 -0.460642D-01
     10  0.400982D+00  0.230556D-01  0.225174D+00  0.110727D+00 -0.391689D-01
     11  0.144545D+00 -0.173251D+00  0.907780D-01 -0.308784D-01 -0.733731D-01
     12  0.186584D+00  0.690154D-01 -0.204710D+00  0.250985D-01 -0.633298D-02
     13 -0.158411D+00 -0.139980D+00  0.235170D-01  0.259108D+00  0.141191D+00
     14 -0.171348D+00  0.389066D+00  0.454116D+00  0.744374D-01 -0.293966D+00
     15 -0.190806D-01  0.371861D+00  0.485446D-01  0.225010D+00  0.475756D-01
     16 -0.188657D+01  0.999670D+00 -0.454485D+01  0.410900D+00 -0.310482D-01
     17  0.129448D+01 -0.968087D+01 -0.375604D+00  0.128960D+00 -0.455638D+00
     18 -0.436535D+01 -0.296788D+00 -0.783605D+01  0.927544D-01  0.471544D+00
     19  0.487089D+00 -0.338322D+00  0.489041D+00 -0.904749D+01 -0.104225D+01
     20 -0.448552D+00  0.184628D+00  0.159373D+00 -0.120171D+01 -0.288648D+01
     21  0.403475D+00  0.965323D-01 -0.118593D+00  0.790350D+00 -0.462592D+01
     22  0.929095D-02 -0.293015D+00  0.942577D-01  0.925250D-01 -0.224940D-01
     23 -0.268491D+00 -0.231508D+00 -0.433951D-01 -0.536661D-03 -0.470716D-01
     24  0.105005D+00 -0.406878D-01  0.404246D+00 -0.800625D-01  0.948106D-02
     25  0.494964D-01  0.704734D-01  0.281311D-01  0.129941D-01 -0.990770D-02
     26 -0.216253D-01 -0.944892D-01 -0.678063D-02 -0.175994D-01  0.114519D-02
     27  0.496028D-01  0.115009D-01 -0.897419D-01  0.697353D-02 -0.368538D-02
     28  0.106543D+00  0.732105D-01 -0.662715D-01  0.208358D-01 -0.358788D-02
     29  0.629899D-01 -0.243645D-01 -0.280407D-01 -0.583797D-03 -0.784601D-02
     30 -0.808823D-01 -0.378893D-01 -0.178295D-01 -0.114289D-01  0.102437D-02
     31  0.674749D-01  0.880640D-01  0.537972D-01  0.180598D-01 -0.508709D-03
     32  0.793526D-01  0.133741D-01  0.407668D-01  0.510808D-02 -0.743942D-02
     33  0.587878D-01  0.470549D-01 -0.187718D-01  0.146627D-01  0.569368D-03
     34 -0.290936D-01  0.682339D-01  0.495284D-01  0.404595D-01  0.770800D-02
     35  0.421587D-01  0.736667D-01  0.845984D-01  0.122889D-01 -0.193964D-01
     36  0.360870D-01  0.106233D+00  0.176869D-01  0.475477D-01  0.729329D-02
     37  0.577631D-02 -0.274493D-01 -0.298625D-01 -0.582318D-01  0.170510D-01
     38  0.322299D-01 -0.343168D-01  0.105671D-01  0.934304D-02 -0.391379D-01
     39  0.276660D-02  0.237501D-01  0.328245D-01  0.741059D-02  0.287883D-01
     40 -0.509059D-01  0.580288D-02  0.115460D-02  0.284423D-01  0.471007D-01
     41  0.570016D-02  0.165377D+00  0.144015D-01  0.764419D-01  0.114337D-01
     42  0.157459D-02 -0.640938D-02 -0.458092D-01  0.830580D-02  0.746625D-03
     43 -0.213873D+00 -0.204790D+00  0.257631D+00 -0.186984D-01 -0.373446D-01
     44 -0.206810D+00  0.166594D+00  0.226923D-01 -0.514979D-01  0.795393D-01
     45  0.253571D+00  0.433736D-01  0.144401D+00  0.399243D-01 -0.792077D-01
     46  0.151363D+00 -0.245892D-01 -0.904214D-01  0.267107D+00 -0.449732D-01
     47 -0.676369D-02 -0.478384D-01  0.102692D-01 -0.103658D-01 -0.175076D-02
     48 -0.104373D+00  0.199797D-01  0.720800D-03 -0.271517D-01  0.202790D+00
     49  0.448752D-01 -0.336560D-01 -0.240523D-02 -0.255348D+01 -0.226659D+01
     50 -0.393724D-01  0.871198D-02 -0.375395D-03 -0.232638D+01 -0.458746D+01
     51 -0.294982D-02  0.993258D-03 -0.117550D-01 -0.788840D+00  0.291711D+00
                6             7             8             9            10 
      6  0.121326D+02
      7  0.139923D+00  0.175376D+02
      8 -0.278625D-01 -0.253778D+01  0.165466D+02
      9 -0.264114D+00  0.214070D+00 -0.395214D+00  0.215639D+02
     10  0.291360D-01 -0.160739D+01 -0.665572D+00  0.434576D+00  0.110047D+02
     11 -0.624603D-02 -0.659395D+00 -0.584384D+01 -0.807636D-01  0.194157D+00
     12 -0.757642D-01  0.424621D+00 -0.945707D-01 -0.582987D+01 -0.193528D+00
     13  0.327875D+00 -0.624910D+01 -0.965822D+00 -0.730681D+00  0.107455D+00
     14  0.311524D-01 -0.104053D+01 -0.383786D+01  0.207819D+01 -0.943769D-01
     15 -0.183649D+00 -0.785564D+00  0.209377D+01 -0.477369D+01 -0.381579D-01
     16  0.240864D+00  0.304787D+00  0.250069D+00 -0.267333D-01  0.259645D+00
     17  0.402620D+00  0.166295D+00  0.177883D+00 -0.751268D-02  0.720702D-01
     18 -0.251407D-01 -0.707955D-01 -0.643137D-01  0.662984D-01 -0.472077D-01
     19  0.658315D+00  0.620460D-01  0.121637D+00  0.245315D-01  0.664780D-01
     20 -0.461767D+01  0.832783D-01 -0.635339D-01  0.705374D-02 -0.103544D-01
     21 -0.521549D+01 -0.176972D-01 -0.165016D-01 -0.106301D+00 -0.122367D-01
     22 -0.320638D-01 -0.477245D+01 -0.505708D-01  0.120832D+00 -0.120105D+00
     23  0.179714D-02 -0.105808D+00 -0.426122D+01 -0.111587D+01  0.100626D+00
     24 -0.333755D-01  0.253947D+00 -0.106773D+01 -0.217263D+01 -0.159909D+00
     25  0.543099D-02  0.967554D-02  0.115652D+00 -0.434102D-01 -0.395996D+01
     26 -0.596402D-02  0.562868D-01  0.897038D-01  0.203191D-01 -0.273175D+00
     27 -0.628002D-02 -0.150588D-01  0.746153D-02  0.106066D+00  0.747773D-01
     28 -0.133012D-02 -0.662139D-01  0.138659D-01  0.196877D-01 -0.305411D+01
     29 -0.147188D-03  0.150277D-01  0.740502D-01 -0.146704D-01  0.198975D+00
     30 -0.690831D-02  0.783774D-02 -0.122032D-01  0.116395D+00 -0.107502D+01
     31  0.883803D-02 -0.956943D-01 -0.514985D-01 -0.964009D-01 -0.338289D+01
     32  0.326373D-02 -0.318422D-01  0.111828D+00  0.428191D-02  0.581568D+00
     33 -0.153736D-02 -0.500960D-01  0.732877D-02  0.912259D-01  0.811645D+00
     34  0.474713D-01  0.122610D+00  0.711294D-02  0.502028D-01 -0.223654D-02
     35  0.865252D-02 -0.556254D-02 -0.332663D-01 -0.148826D+00  0.287000D-01
     36  0.157700D-01  0.363325D-01 -0.118903D+00 -0.118034D-01  0.494630D-01
     37 -0.655501D-01  0.682676D-01  0.235472D-01  0.941857D-01  0.120033D+00
     38 -0.452102D-02  0.992394D-01  0.113442D+00 -0.699015D-01 -0.513160D-01
     39 -0.607776D-01  0.128324D+00 -0.252652D-01 -0.128917D-01 -0.733139D-01
     40  0.254994D-01  0.109127D+00 -0.437882D-02 -0.652757D-02  0.162299D-01
     41  0.279335D-01 -0.716968D-04 -0.121717D+00 -0.771542D-01 -0.888580D-01
     42 -0.383639D-01  0.507499D-02 -0.955950D-01  0.896548D-01 -0.425829D-03
     43  0.331142D-01  0.257002D-01  0.792182D-01 -0.489280D-01  0.147050D-01
     44 -0.872032D-01  0.111484D+00  0.589208D-01 -0.704344D-01  0.255835D-01
     45  0.235595D-01 -0.824048D-01 -0.855380D-01 -0.976440D-02 -0.173677D-01
     46  0.158283D-01  0.444780D-01  0.894309D-02 -0.772993D-02  0.159636D-01
     47  0.198020D+00  0.140181D-01 -0.141885D-01 -0.116900D-02  0.360967D-02
     48 -0.370232D-01 -0.251873D-01 -0.310309D-02 -0.135569D-01 -0.710171D-02
     49 -0.897175D+00  0.275033D-01 -0.100188D-01  0.113225D-01  0.977072D-02
     50  0.378715D+00 -0.138675D-01 -0.283859D-02 -0.575001D-02 -0.552349D-02
     51 -0.585439D+01 -0.509973D-02  0.183150D-02 -0.880380D-02 -0.505179D-03
               11            12            13            14            15 
     11  0.148601D+02
     12 -0.500006D-01  0.149954D+02
     13 -0.178858D+00 -0.147513D+00  0.146803D+02
     14 -0.256720D-02  0.977782D-01  0.375303D+00  0.140747D+02
     15  0.568874D-01 -0.696970D-01  0.345614D+00 -0.157373D+01  0.156328D+02
     16  0.113048D+00 -0.494873D-01  0.583597D-01  0.142590D+00  0.218354D-01
     17 -0.122152D+00 -0.855189D-03  0.207761D+00  0.320809D-01  0.433728D-01
     18 -0.106945D-01 -0.134688D+00  0.666046D-01  0.128007D+00 -0.860660D-01
     19  0.158515D-01 -0.183997D-01  0.200328D+00  0.132729D+00 -0.301091D-02
     20 -0.667395D-01  0.567760D-02  0.180500D+00 -0.566727D-01  0.486200D-01
     21  0.267114D-02 -0.616561D-01  0.550697D-01  0.598771D-01 -0.103038D+00
     22  0.893063D-01 -0.130622D+00  0.254223D+00  0.209240D-01  0.397926D-01
     23  0.108876D+00  0.360284D-01  0.118668D-01  0.161018D+00 -0.208686D+00
     24  0.397704D-01  0.100504D+00  0.351016D-02 -0.268517D+00 -0.210097D+00
     25 -0.518154D+00  0.150036D+00  0.179429D-01 -0.801909D-01 -0.124228D-01
     26 -0.171418D+01 -0.679578D+00 -0.815547D-01  0.575957D-01  0.794330D-02
     27 -0.680780D+00 -0.373924D+01 -0.760353D-02  0.100089D-01 -0.424695D-01
     28  0.221576D+00 -0.118444D+01  0.632316D-01 -0.427762D-01 -0.752568D-01
     29 -0.378185D+01 -0.277231D+00 -0.351985D-01 -0.279639D-01  0.256910D-01
     30 -0.278641D+00 -0.234116D+01 -0.821519D-01  0.289912D-01  0.150502D-01
     31  0.700417D+00  0.978272D+00  0.140534D-01  0.104563D-01  0.149311D-01
     32 -0.323630D+01  0.933721D+00  0.235819D-01 -0.110083D-01  0.429749D-02
     33  0.942881D+00 -0.253202D+01  0.354585D-01 -0.174228D-02  0.747818D-03
     34  0.236710D-01  0.529446D-01 -0.309745D+01  0.232012D+00  0.122203D+01
     35  0.394043D-02 -0.440202D-01  0.321031D+00 -0.402512D+01  0.343795D+00
     36 -0.248531D-01 -0.316563D-01  0.129804D+01  0.247615D+00 -0.239812D+01
     37 -0.496654D-01 -0.682710D-01 -0.221820D+01  0.562830D+00 -0.100929D+01
     38 -0.338597D-01  0.172634D-01  0.316805D+00 -0.460482D+01 -0.162965D+00
     39  0.202925D-01 -0.195208D-01 -0.126591D+01 -0.323907D+00 -0.416456D+01
     40 -0.813025D-01 -0.627809D-02 -0.404099D+01 -0.158842D+00  0.806021D-01
     41  0.760783D-01  0.885732D-02 -0.235858D+00 -0.188645D+01 -0.106342D+01
     42 -0.488090D-02 -0.438666D-01  0.997915D-01 -0.943026D+00 -0.362886D+01
     43  0.155812D-01 -0.114388D-01  0.583688D-03  0.314974D-01 -0.874610D-02
     44  0.661324D-02 -0.144021D-01  0.490494D-01  0.487379D-01 -0.291879D-01
     45 -0.145701D-01 -0.520082D-02 -0.165987D-01 -0.235958D-01 -0.118218D-01
     46  0.348132D-02 -0.694537D-02  0.387938D-01  0.170272D-01 -0.117953D-01
     47 -0.477869D-02 -0.150104D-02  0.309623D-01 -0.379714D-02 -0.539719D-02
     48 -0.194284D-02 -0.322213D-02 -0.153452D-01 -0.265099D-02 -0.119209D-01
     49 -0.338056D-02 -0.632562D-03  0.698178D-01 -0.117442D-01  0.135118D-01
     50 -0.271538D-02  0.150885D-03 -0.207810D-01 -0.129526D-01 -0.430073D-03
     51  0.918686D-04 -0.365950D-02  0.103187D-01  0.142936D-02 -0.131579D-01
               16            17            18            19            20 
     16  0.100276D+02
     17  0.408843D+01  0.199385D+02
     18  0.468681D+01  0.369826D+01  0.231480D+02
     19 -0.410752D+01 -0.599781D+01 -0.587129D+00  0.148892D+02
     20 -0.549056D+01 -0.788010D+01 -0.226560D+01  0.587437D+01  0.151762D+02
     21 -0.694287D+00 -0.212548D+01 -0.118948D+02  0.117054D+01  0.678054D+01
     22 -0.759579D-01 -0.148493D-01  0.344006D-01  0.830341D-01  0.760616D-01
     23 -0.298970D-02  0.387406D-01 -0.223628D-01  0.877651D-01 -0.839003D-02
     24  0.180833D-01 -0.383459D-01  0.164313D-01 -0.105373D+00 -0.472404D-01
     25  0.642906D-01 -0.877052D-02 -0.301601D-02  0.350068D-01 -0.956659D-02
     26 -0.315307D-01 -0.217446D-01 -0.182269D-02 -0.213342D-01 -0.261461D-02
     27  0.559102D-02 -0.830146D-03 -0.259476D-01  0.373328D-02 -0.129148D-02
     28  0.163627D-01  0.610974D-02 -0.794124D-02  0.185526D-01 -0.526923D-03
     29  0.939917D-02 -0.680411D-02 -0.300519D-02  0.393275D-02 -0.652515D-02
     30 -0.163512D-01 -0.362997D-02 -0.335546D-02 -0.131144D-01  0.138195D-02
     31  0.182459D-01  0.107439D-01  0.275265D-02  0.206954D-01  0.207559D-02
     32  0.193723D-01 -0.283655D-02  0.409098D-02  0.112737D-01 -0.661740D-02
     33  0.129463D-01  0.537935D-02 -0.723573D-02  0.118733D-01  0.757406D-03
     34 -0.938558D-02  0.559604D-02  0.723433D-02  0.415035D-01  0.305369D-01
     35  0.164489D-02  0.202293D-02  0.344221D-02  0.374418D-01 -0.139002D-02
     36  0.401914D-02  0.644308D-02 -0.235505D-02  0.385236D-01  0.173269D-01
     37 -0.857414D-01 -0.206491D-01 -0.922655D-02 -0.194771D-01  0.645536D-02
     38  0.348911D-01  0.886583D-01  0.910289D-01  0.336697D-01 -0.571660D-01
     39  0.228367D-01  0.119730D+00 -0.321703D-01  0.608014D-01  0.369089D-01
     40 -0.118535D-01  0.346447D-01 -0.575950D-02  0.349711D-02  0.165558D-01
     41  0.462099D-01  0.791421D-01 -0.132592D-01  0.323276D-01  0.129676D-01
     42 -0.403258D-02 -0.178591D-01 -0.223678D-01 -0.769004D-02 -0.594372D-02
     43 -0.461177D+01  0.401939D-01 -0.527102D-01  0.191916D+00  0.304597D+00
     44 -0.107373D+00 -0.259649D+01 -0.161547D+01  0.412799D+00 -0.109785D+00
     45  0.563474D-01 -0.159817D+01 -0.333145D+01 -0.281704D+00  0.316732D+00
     46 -0.480732D+00  0.169351D+00  0.224227D+00 -0.284016D+01  0.500974D+00
     47  0.130542D+00  0.287551D+00 -0.709268D-01  0.468339D+00 -0.424242D+01
     48  0.237782D+00 -0.789076D-01  0.229656D+00 -0.135398D+01 -0.483588D+00
     49  0.109313D+00 -0.182558D+00  0.343541D-01 -0.847482D-01  0.858676D-01
     50 -0.172358D+00  0.122099D+00 -0.321283D-01  0.167580D+00  0.146622D-01
     51  0.286243D-01 -0.286100D-01 -0.587695D-01 -0.869490D-01  0.469637D-01
               21            22            23            24            25 
     21  0.205596D+02
     22 -0.680655D-01  0.453008D+01
     23 -0.423403D-01  0.190006D+00  0.431399D+01
     24  0.972423D-02 -0.161297D+00  0.148241D+01  0.169386D+01
     25 -0.340337D-02  0.100053D-01 -0.433107D-01  0.427420D-01  0.357521D+01
     26  0.892717D-03 -0.373207D-01  0.234470D-01 -0.482198D-01  0.598466D+00
     27 -0.105684D-01  0.284750D-01 -0.355952D-01  0.123212D-01 -0.184503D+00
     28 -0.591562D-02 -0.515261D-01  0.143188D-01 -0.346181D-02  0.805390D-01
     29 -0.881995D-03  0.173277D-01  0.142358D-01  0.258960D-02 -0.571007D-01
     30 -0.145015D-02 -0.106202D-01  0.440962D-02  0.141795D-01  0.367809D-01
     31  0.271183D-02  0.268271D-01 -0.698407D-02  0.641195D-01  0.109113D+00
     32  0.208835D-02  0.202884D-02 -0.245541D-01  0.464850D-02 -0.468034D-01
     33 -0.556762D-02  0.481873D-01 -0.764457D-02  0.406785D-01 -0.338747D-02
     34  0.268718D-01 -0.338605D-01  0.444831D-02  0.348419D-01 -0.373678D-02
     35  0.160345D-01  0.591935D-02 -0.282749D-01  0.495612D-01 -0.169683D-01
     36 -0.340759D-02  0.196860D-01  0.260615D-01  0.139205D+00 -0.113966D-01
     37  0.194193D-01  0.186383D-02  0.320884D-02 -0.183185D-01 -0.145835D-02
     38  0.228312D-01 -0.449537D-03 -0.331519D-02 -0.196202D-04  0.553784D-02
     39 -0.239899D-01 -0.701516D-02 -0.245073D-02  0.139831D-01  0.126489D-02
     40 -0.309009D-02  0.399066D-01  0.197365D-01  0.179493D-01 -0.891783D-03
     41 -0.565683D-02  0.262466D-01 -0.472582D-01 -0.834829D-01 -0.550285D-03
     42 -0.133922D-01  0.214513D-01 -0.777680D-01 -0.315606D-01  0.879137D-03
     43 -0.215035D+00 -0.397134D-02 -0.933939D-02  0.721611D-02 -0.414239D-02
     44  0.332155D+00 -0.837921D-02 -0.561898D-02  0.414976D-02  0.273877D-02
     45  0.186756D+00  0.800095D-02  0.859891D-02 -0.265186D-02 -0.176597D-02
     46 -0.142961D+01  0.317671D-02  0.346821D-02 -0.820139D-02  0.284107D-02
     47 -0.483023D+00  0.174788D-02 -0.126847D-03 -0.300424D-02  0.398176D-03
     48 -0.326786D+01 -0.335847D-02 -0.283593D-02  0.470492D-02 -0.169946D-02
     49 -0.190974D-01  0.694604D-02  0.201478D-02 -0.107910D-01  0.307167D-02
     50 -0.138126D-01 -0.248976D-02 -0.296423D-02  0.463293D-02 -0.194357D-02
     51  0.700852D-01 -0.204196D-02 -0.364647D-03  0.475673D-03 -0.259974D-03
               26            27            28            29            30 
     26  0.190005D+01
     27  0.638617D+00  0.375212D+01
     28 -0.666223D-01  0.529237D-01  0.271388D+01
     29 -0.468242D-01  0.163234D+00 -0.230131D+00  0.370512D+01
     30  0.145509D+00 -0.463197D-01  0.125313D+01  0.229733D+00  0.249541D+01
     31 -0.787359D-01 -0.166958D-01  0.141047D+00  0.166482D-01  0.132185D-01
[...]
   yy         0.690936D+02      0.102386D+02      0.113920D+02
   zx        -0.351084D+01     -0.520253D+00     -0.578860D+00
   zy        -0.805595D+01     -0.119377D+01     -0.132825D+01
   zz         0.766489D+02      0.113582D+02      0.126377D+02

 ----------------------------------------------------------------------

 Test job not archived.
 1\1\GINC-C0307\Freq\RM062X\CC-pVTZ\C5H10O2\HARMS.N\26-Sep-2019\0\\#P G
 eom=AllCheck Guess=TCheck SCRF=Check Test GenChk RM062X/CC-pVTZ Freq\\
 Gaussian input prepared by ASE\\0,1\O,0.614138938,1.163778546,0.789427
 9497\O,1.5009713061,0.1235983314,3.5005089279\C,0.5302541397,2.2228790
 549,1.7525564947\C,-0.4590869752,3.2136176801,1.176032121\C,1.89784425
 83,2.8420666471,1.9756450966\C,1.2656057945,0.0224517418,1.1064684809\
 C,1.6753517473,-0.4698258445,2.2714647739\H,0.1489746971,1.8170526262,
 2.6894615192\H,-0.0924976782,3.5909730494,0.2209788006\H,-1.4249137307
 ,2.7387290377,1.0129129066\H,-0.5903473178,4.0544055392,1.8563361697\H
 ,2.2743358076,3.2533750337,1.0380764712\H,2.6037279475,2.1028923468,2.
 3485047472\H,1.8274276578,3.6475830003,2.7067156275\H,1.4404241741,-0.
 5865743527,0.2308183717\H,2.170130186,-1.431169037,2.2614391646\H,2.09
 05407942,-0.2899936607,4.1328205136\\Version=EM64L-G16RevA.03\State=1-
 A\HF=-346.9424039\RMSD=3.681e-09\RMSF=6.677e-07\ZeroPoint=0.1472916\Th
 ermal=0.1559755\Dipole=0.5157536,-0.2560132,0.5644296\DipoleDeriv=-0.5
 655155,0.5597467,-0.2767264,0.469537,-1.5310249,0.2296327,-0.0475826,-
 0.1956256,-0.4842487,-0.2352929,-0.0435441,0.1306385,-0.0587461,-0.392
 5102,-0.2998414,-0.1130713,0.1020982,-1.2496262,0.4590281,-0.0685816,0
 .0823217,-0.1241474,0.8702085,0.0700295,-0.0612717,0.4080449,0.2421618
 ,-0.0167376,0.0742348,-0.0413357,0.0515661,-0.0233155,0.0211692,-0.053
 4522,0.0222165,0.0910504,-0.1355788,-0.0646868,-0.0816145,0.0143814,-0
 .0421395,0.0141185,-0.0218024,-0.069471,0.0932515,0.1794007,-0.6244069
 ,0.2181894,-0.4881802,0.9834149,-0.315716,0.1511429,-0.2826507,0.18736
 35,-0.1922942,-0.0299263,-0.100838,-0.0350211,-0.0289562,0.3596696,0.0
 449083,0.1650076,0.8775915,-0.0180353,-0.0356326,0.0298234,-0.0361391,
 -0.0445015,0.0610321,0.0575321,-0.0454325,-0.0437776,0.0187838,-0.0278
 127,0.0849843,0.0019269,0.0412474,0.033433,0.024314,0.0816909,-0.06895
 38,-0.0981476,-0.0371338,-0.0338939,-0.0810822,0.0288358,-0.0094531,-0
 .0410539,0.0133147,0.0565781,0.0591273,0.0140872,-0.0154689,0.0401337,
 -0.0638257,-0.0607365,0.0140528,-0.1005957,-0.0178032,0.0297619,-0.022
 3463,0.0137974,-0.0390375,0.0357709,0.0339977,0.0687911,0.0842591,-0.0
 801329,-0.0443133,0.0665053,-0.0380596,0.088147,0.0176798,0.0398896,-0
 .0416639,0.0326256,0.0404253,0.0662856,0.0080894,0.0397378,-0.0067223,
 -0.0579918,-0.0829147,0.0106776,-0.1065702,-0.0092758,0.1157468,0.0642
 137,0.0131527,0.0674368,-0.0324979,-0.0383838,0.0087338,-0.0643543,0.0
 037663,0.1162576,0.0908539,0.0167188,0.0900853,-0.0389793,-0.0264437,-
 0.0185083,-0.0047989,0.0052406,0.2615234,0.07634,-0.0414269,0.0458616,
 0.2785853,-0.0294826,0.0182537,-0.0397585,0.356389\Polar=59.9166471,-8
 .3688457,74.2195108,6.3102009,-4.8796499,68.2236279\Quadrupole=-1.4929
 743,1.8132275,-0.3202532,-3.2257775,1.6330601,-1.4577009\PG=C01 [X(C5H
 10O2)]\NImag=0\\0.17079209,-0.16936965,0.49891940,0.05931286,0.0545764
 8,0.29042565,-0.00066237,-0.00855601,0.00316505,0.26092629,-0.01029508
 ,0.01240433,-0.00097408,-0.20807706,0.24687720,-0.01250283,0.02125246,
 0.00565909,0.18921413,-0.02912115,0.57395659,-0.06476334,0.00151246,-0
 .01166537,-0.00400307,0.00239920,-0.00029101,0.52493149,0.01202354,-0.
 12543816,-0.04709617,0.00271654,-0.00681306,-0.00331977,0.00388035,0.4
 9568842,-0.00258588,-0.06630423,-0.15662801,0.00323865,-0.00563611,-0.
 00728812,-0.02534712,-0.08069314,0.58213048,-0.00254088,0.00871218,0.0
 0037242,0.00081890,-0.00035899,0.00054556,-0.13573751,0.05396948,-0.03
 259671,0.55273275,0.02544753,-0.03906994,0.00299917,0.00017093,0.00044
 733,0.00098314,0.04922083,-0.12584780,0.03635506,0.04085670,0.55055491
 ,0.01970735,-0.02926501,0.00745764,-0.00103897,0.00152400,0.00071346,-
 0.04126182,0.04845167,-0.10538342,-0.02108303,0.03050577,0.57067802,0.
 00380203,0.00045967,-0.00269214,-0.00114431,-0.00169936,-0.00063443,-0
 .18582613,-0.04419880,-0.01204815,-0.02884622,-0.00680352,-0.00488005,
 0.50659660,-0.02421969,-0.02864500,-0.01820293,-0.00023094,0.00022844,
 0.00166293,-0.03947307,-0.09413317,0.00191722,0.02070745,0.01226172,0.
 00393629,-0.04439116,0.56867680,-0.02289417,-0.02647926,-0.01197996,0.
 00028746,0.00238482,0.00076177,-0.00377644,0.00390439,-0.07879597,-0.0
 1536868,-0.00301277,-0.00185100,-0.00943577,-0.00585319,0.58255778,-0.
 10664771,0.12016420,-0.03715122,0.00946827,0.00287428,0.01958410,-0.00
 895813,0.01141715,0.00906258,-0.00011546,0.00046966,0.00034082,0.00294
 509,-0.00533354,-0.00291114,0.25967815,0.10987562,-0.25551868,0.028791
 41,-0.00500522,0.00805312,-0.04261857,0.01706374,-0.04196198,-0.003661
 81,-0.00011045,-0.00123397,-0.00181822,-0.00242041,0.00311571,0.001815
 51,-0.23209909,0.57935680,-0.04963777,0.05341429,-0.12042276,-0.012329
 90,0.00858597,-0.04163760,0.01571099,-0.01892288,0.00871884,-0.0001350
 5,-0.00369749,-0.00364818,0.00180546,-0.00195418,-0.00008745,0.1299188
 6,-0.02734674,0.85857648,-0.00703757,0.02573668,-0.02108060,-0.0609346
 0,0.05175301,0.03039425,0.00233469,-0.00493191,-0.00653963,-0.00010031
 ,0.00037549,0.00066273,-0.00066687,0.00084514,0.00056240,-0.10714533,0
 .07394892,-0.12219123,0.26527037,0.02992845,-0.03592586,0.03608042,0.0
 4180453,-0.12399713,-0.10692065,-0.00163736,0.00911667,0.01197557,0.00
 000915,-0.00085411,-0.00168436,-0.00009543,-0.00115618,-0.00166205,0.0
 6931729,-0.15471964,0.12949630,-0.25856256,0.57439144,0.00354649,-0.00
 603151,0.00101598,-0.00235651,-0.07057045,-0.27483963,-0.00191500,0.00
 550550,0.01017874,0.00048198,-0.00090404,-0.00177424,0.00040450,-0.000
 94680,-0.00222095,-0.13842255,0.15302432,-0.44715774,0.14094303,-0.073
 29073,0.82177784,0.00082065,0.00412321,0.00316133,0.00007439,0.0003803
 3,-0.00156999,-0.08428983,-0.03715875,0.07691584,0.00748862,0.00977272
 ,-0.02052476,-0.01250017,-0.01382579,0.02569621,0.00113488,-0.00164154
 ,0.00080198,-0.00078776,0.00135594,0.00206507,0.09189912,0.01284625,-0
 .00142725,-0.03672306,0.00304849,-0.00280705,0.00385779,-0.03958249,-0
 .09182422,0.09534817,-0.00694996,-0.00817176,0.01894484,-0.00530166,-0
 .00411680,0.01168927,-0.00210638,0.00595960,-0.00215700,-0.00013884,-0
 .00089824,-0.00069373,0.03711603,0.10457914,0.00892854,-0.00658986,-0.
 02856509,-0.00263332,0.00357415,-0.00143454,0.08044097,0.08584321,-0.2
 3761642,0.00218503,0.00606326,-0.00812766,-0.00186594,-0.00097735,0.00
 618029,-0.00185494,0.00300121,-0.00000828,0.00137605,-0.00176479,-0.00
 025248,-0.08332666,-0.09013958,0.26727657,0.00082148,-0.00224682,0.000
 30420,-0.00025968,0.00029964,-0.00006355,0.00710264,0.00826344,-0.0214
 7831,-0.08014719,-0.03273510,0.08241637,0.00202456,0.00028004,-0.00089
 283,-0.00012619,0.00000532,-0.00008844,0.00010808,-0.00023103,-0.00026
 350,-0.00244568,0.00313043,-0.00126877,0.08447735,-0.00101410,0.002389
 13,-0.00033043,0.00032671,-0.00040850,-0.00017364,-0.00758606,-0.01016
 503,0.02224081,-0.03211404,-0.07722778,0.07861775,-0.00132473,0.000333
 26,-0.00093065,0.00016234,-0.00025581,-0.00018590,-0.00024361,0.000529
 08,0.00048203,0.00339468,-0.00221696,0.00081948,0.03292321,0.08169916,
 -0.00000988,-0.00057944,0.00158262,-0.00024966,0.00017858,-0.00008694,
 0.00501936,0.00504979,-0.01492290,0.08041311,0.08012351,-0.25189619,0.
 00093730,-0.00044885,0.00042613,0.00004320,-0.00030823,0.00041143,0.00
 009567,-0.00023011,-0.00026295,-0.00230202,0.00141549,0.00074747,-0.08
 708675,-0.09025779,0.27375450,0.00214525,-0.00114226,0.00040467,0.0000
 3301,0.00027223,0.00024001,-0.02016512,-0.01118183,-0.00266061,-0.2602
 6012,-0.10669110,-0.03436568,-0.00180493,0.00456109,-0.00189338,0.0000
 6409,0.00049522,0.00002109,0.00018742,-0.00034633,-0.00024759,0.001029
 73,0.00016304,-0.00000232,-0.00884594,-0.00402828,-0.00187366,0.282768
 76,-0.00129343,0.00213716,0.00044222,-0.00003861,-0.00011354,-0.000260
 36,0.02200900,0.00972456,0.00276478,-0.10984648,-0.10161375,-0.0177223
 1,0.00246598,-0.00315643,0.00114158,0.00019930,-0.00032195,0.00018684,
 -0.00006965,0.00026654,0.00016572,-0.00084685,0.00101236,-0.00043741,-
 0.00837953,-0.00536992,-0.00230528,0.11619468,0.10706733,0.00115861,-0
 .00035724,0.00016845,0.00008084,0.00001087,-0.00007905,-0.01233384,-0.
 00754669,-0.00337136,-0.03415930,-0.01636703,-0.05338020,-0.00131600,0
 .00247464,-0.00067479,0.00014769,-0.00002710,-0.00005527,-0.00001073,0
 .00003556,0.00006057,0.00023161,-0.00066863,0.00004200,0.02558554,0.01
 270786,0.00552223,0.04010314,0.01745824,0.05411043,-0.00300582,0.00532
 637,-0.00164416,0.00004956,-0.00020538,-0.00030497,-0.00166992,0.01219
 210,0.01578479,-0.05120318,0.02422793,0.01846369,0.00053665,-0.0003118
 4,0.00044428,0.00042299,0.00027797,0.00089248,-0.00018112,0.00029831,0
 .00031097,0.00068392,-0.00041957,-0.00023424,-0.00240994,0.00902806,0.
 00607264,0.00554404,-0.02178984,-0.01844571,0.05189036,0.00436439,-0.0
 0542600,0.00214555,-0.00007242,0.00032009,0.00064407,-0.00157506,-0.01
 372662,-0.01564918,0.02604416,-0.20723261,-0.12974395,-0.00084935,0.00
 040124,-0.00065274,-0.00018789,0.00089709,-0.00126234,0.00024986,-0.00
 055878,-0.00050458,-0.00059399,0.00028926,0.00045024,-0.00124108,0.010
 29080,0.00741200,0.00246649,-0.01026821,-0.00754822,-0.02886803,0.2247
 4798,-0.00220249,0.00287660,0.00014246,0.00003806,-0.00005506,-0.00001
 169,-0.00049655,0.00908988,0.00746827,0.02010494,-0.13191738,-0.154488
 65,0.00006268,-0.00014639,-0.00000784,-0.00034003,0.00057628,0.0010072
 1,0.00004759,-0.00005402,0.00004379,0.00081833,-0.00045269,0.00025696,
 0.00215545,-0.02226870,-0.01590477,0.00062536,-0.00183086,-0.00317403,
 -0.02071587,0.14380410,0.16439577,0.00268090,0.00208671,-0.00078982,0.
 00051383,0.00052543,0.00027617,-0.01399467,-0.01199405,0.02978087,0.00
 171468,-0.00055948,0.00149264,-0.07668043,-0.03257717,0.07583996,-0.00
 005004,-0.00004353,-0.00005223,-0.00015212,0.00010819,-0.00030317,-0.0
 0523882,-0.00246848,-0.00203742,-0.00033681,0.00046606,-0.00091086,0.0
 0043838,0.00010868,-0.00034879,-0.00006097,0.00005573,-0.00001496,0.08
 478689,0.00106848,0.00169174,0.00010051,-0.00023102,-0.00108576,-0.000
 41155,-0.00615742,-0.00683893,0.01292875,0.00112314,0.00017236,-0.0003
 7436,-0.03227348,-0.08444008,0.08652216,0.00051706,-0.00075617,0.00017
 518,-0.00016309,0.00066315,0.00092444,-0.00252037,-0.00040308,-0.00068
 717,-0.00002023,0.00059509,-0.00023315,0.00011899,-0.00011590,-0.00011
 083,0.00002045,-0.00000552,-0.00015337,0.03868489,0.08755114,-0.000109
 21,0.00111567,0.00161744,0.00015579,0.00048639,0.00024784,-0.00176869,
 -0.00214506,0.00245375,-0.00021857,-0.00055472,0.00085818,0.07802628,0
 .08701974,-0.24698793,0.00024315,-0.00003243,0.00001437,-0.00000747,-0
 .00021672,-0.00044618,-0.00114576,-0.00065742,0.00109468,0.00040203,-0
 .00023763,0.00016335,-0.00002419,-0.00012559,0.00023070,0.00007650,0.0
 0013772,-0.00001347,-0.08526439,-0.09599898,0.26595515,0.00255149,-0.0
 0013475,0.00102903,0.00047182,0.00141773,0.00055408,-0.01998400,0.0237
 4977,-0.01003859,-0.00493974,-0.00447605,-0.00033039,-0.15982603,0.119
 16212,-0.06005548,-0.00045005,0.00048865,-0.00056108,0.00015727,-0.001
 42250,-0.00104676,0.00103326,0.00024408,0.00014398,0.00010853,-0.00006
 452,-0.00008428,-0.00123883,0.00129301,-0.00098192,0.00027119,-0.00016
 205,0.00020971,0.00808876,-0.00890204,0.00333985,0.17472390,0.00123539
 ,0.00078372,0.00091194,-0.00057218,-0.00148457,0.00014895,-0.00929642,
 0.01068937,-0.00572228,-0.00240631,-0.00105207,-0.00064287,0.12329641,
 -0.17617155,0.06520147,-0.00028455,-0.00006487,-0.00027255,-0.00098003
 ,-0.00248088,0.00030903,0.00089211,0.00049687,0.00012479,-0.00006204,-
 0.00009213,-0.00010737,-0.00070800,0.00060319,-0.00029329,-0.00015554,
 0.00009096,0.00015920,0.00614513,-0.00747534,0.00235038,-0.13147416,0.
 19151871,0.00041429,0.00043160,0.00027151,-0.00004581,0.00023997,-0.00
 154221,-0.00308375,0.00263087,-0.00321867,-0.00085990,-0.00089552,0.00
 032956,-0.06082186,0.06533355,-0.07940490,-0.00031168,-0.00048231,-0.0
 0082533,0.00034029,0.00055506,0.00179402,0.00020326,-0.00048500,0.0000
 9262,0.00025260,-0.00024123,0.00040744,-0.00034492,0.00028954,0.000413
 85,-0.00008585,0.00035771,0.00010679,-0.01863906,0.01838986,-0.0083438
 1,0.06732650,-0.07152927,0.08188333,-0.00529594,-0.00714996,-0.0033215
 1,-0.00020999,0.00024425,0.00035346,0.00580376,-0.01916926,-0.01966966
 ,0.00098457,0.00028389,-0.00000600,-0.04856109,0.01455518,0.01431038,-
 0.00152005,0.00217876,-0.00108216,0.00068260,-0.00038140,0.00016394,0.
 00101733,0.00037529,0.00093084,-0.00007777,0.00005387,-0.00003845,0.00
 024041,-0.00001295,0.00031929,-0.00071023,0.00024864,-0.00021164,-0.00
 171096,0.00879648,0.00630592,-0.00121418,0.01425858,0.01547778,0.05042
 535,-0.00279968,-0.00255313,-0.00101629,-0.00014978,0.00014429,0.00102
 005,0.00447893,-0.01004250,-0.00817378,0.00081376,-0.00001432,0.000057
 50,0.01271184,-0.19331975,-0.13407137,-0.00091031,0.00153114,-0.000230
 05,0.00024145,0.00000693,-0.00067064,-0.00003110,0.00013421,0.00047987
 ,-0.00008088,0.00003273,0.00010237,-0.00012041,0.00006035,0.00027308,0
 .00006577,0.00056716,0.00014657,-0.00031364,0.01056008,0.00886147,0.00
 028411,-0.01533656,-0.01491103,-0.01419886,0.20841899,-0.00131394,-0.0
 0162007,0.00120190,-0.00013457,-0.00002647,0.00021322,0.00200735,-0.00
 185333,-0.00446819,0.00051559,-0.00005962,-0.00010319,0.01259858,-0.13
 398349,-0.16806576,-0.00047063,0.00112625,-0.00031016,0.00028466,-0.00
 027891,-0.00003376,-0.00040509,-0.00001268,0.00027305,-0.00004583,-0.0
 0013148,-0.00000241,-0.00002867,0.00024641,0.00017462,-0.00050817,0.00
 029459,0.00024940,0.00091198,-0.02090333,-0.01695184,0.00015783,0.0090
 0235,0.00834033,-0.01358135,0.14816723,0.17953665,-0.00277871,0.017498
 45,0.01361132,0.00654355,0.00379571,-0.00290497,-0.00018883,-0.0003245
 8,-0.00286322,0.00009399,0.00050866,0.00049708,-0.00000593,0.00035439,
 0.00028751,-0.04389712,0.02927164,0.03177892,0.00282478,-0.00645368,-0
 .00626775,-0.00006965,-0.00012538,-0.00004208,0.00002386,0.00001163,-0
 .00001992,-0.00004182,-0.00000715,0.00000930,-0.00014206,0.00016244,-0
 .00009829,0.00004550,-0.00009971,0.00001182,0.00013772,0.00012708,0.00
 000519,0.00011346,0.00006517,-0.00000133,0.04028933,0.00956275,-0.0300
 8527,-0.02279279,0.00441324,0.00114323,0.00192665,0.00372566,0.0012428
 1,0.00349902,-0.00007513,-0.00097366,-0.00124129,0.00023934,0.00004474
 ,-0.00005677,0.02952794,-0.13041090,-0.13135147,-0.00240556,0.00682234
 ,0.00925804,0.00015690,-0.00044386,-0.00040560,-0.00004747,-0.00000089
 ,0.00008507,-0.00000192,0.00006338,-0.00000047,0.00031317,-0.00036499,
 0.00024751,-0.00005121,-0.00007142,0.00005528,-0.00011827,0.00005557,0
 .00000071,-0.00014747,-0.00005959,-0.00002125,-0.04336611,0.15297929,-
 0.00104879,0.00537280,0.01105551,-0.00431375,0.00323693,-0.00109999,-0
 .00119344,0.00220802,0.00118822,-0.00010323,0.00019895,0.00024779,0.00
 001399,0.00004310,0.00003389,0.03373266,-0.13334500,-0.25442057,0.0064
 5733,-0.01721138,-0.01881998,-0.00012265,0.00023714,0.00008159,0.00003
 121,-0.00000484,-0.00001455,-0.00000519,-0.00000279,0.00000398,-0.0000
 5150,0.00006987,-0.00005532,0.00002953,-0.00002486,0.00002355,0.000097
 04,0.00004069,-0.00003575,0.00000212,0.00000046,-0.00001206,-0.0342522
 8,0.13886668,0.26342470,0.00907428,0.00327435,-0.00287786,0.00139784,0
 .00262406,0.00238778,0.00000383,0.00021985,0.00004142,0.00001559,0.000
 00831,0.00000290,-0.00013139,0.00016043,-0.00009540,-0.00461876,0.0078
 2701,0.00289686,-0.09560095,0.12882528,-0.00692873,0.00005114,-0.00021
 060,-0.00015156,0.00000538,-0.00001349,0.00001097,-0.00005060,0.000004
 67,-0.00001882,-0.00004236,-0.00003112,0.00001592,-0.00004197,0.000031
 60,-0.00001521,-0.00000300,-0.00005531,0.00001966,0.00005924,-0.000018
 17,0.00002689,-0.00432607,-0.00229401,0.00034365,0.09317452,0.00378898
 ,0.00404554,0.00103983,0.00413778,-0.00927883,-0.00682368,-0.00005280,
 0.00079964,-0.00019254,-0.00005030,-0.00005454,-0.00001290,-0.00006254
 ,0.00011921,0.00000467,0.00435026,-0.00991413,-0.00172237,0.12940519,-
 0.27668769,0.00451551,-0.00016729,-0.00001408,-0.00011492,0.00000946,-
 0.00000413,0.00002986,-0.00002317,0.00001301,-0.00000547,-0.00000370,-
 0.00003894,-0.00000281,-0.00001998,-0.00003851,0.00004352,0.00014689,0
 .00003655,-0.00009078,0.00001938,-0.00001435,0.00000595,-0.00241929,-0
 .00059826,0.00087665,-0.13976155,0.29091381,-0.00201676,0.00053475,-0.
 00363802,0.01523286,-0.03289894,-0.01129236,0.00013003,-0.00142226,-0.
 00143278,-0.00004060,0.00024295,0.00034856,-0.00003958,0.00010382,0.00
 019750,-0.01243282,0.02547107,0.00271346,-0.00687292,0.00564172,-0.054
 85762,-0.00026476,0.00011609,0.00011281,0.00002994,-0.00007908,0.00003
 664,0.00004569,-0.00003352,-0.00000929,-0.00007334,0.00011861,-0.00000
 232,0.00001122,-0.00006446,0.00003303,0.00010225,-0.00001421,-0.000128
 40,0.00003828,0.00009831,0.00000370,0.00022779,0.00114887,-0.00041675,
 0.00400200,0.00260532,0.06539162,0.00004416,-0.00029485,-0.00013819,-0
 .21308344,0.15405001,-0.22527777,-0.00059586,0.00052696,0.00100373,0.0
 0004153,-0.00007741,-0.00009289,0.00008856,-0.00026265,-0.00010491,-0.
 00018464,-0.00011261,0.00225123,0.00104142,-0.00251684,0.00983557,0.00
 009887,0.00037973,-0.00058816,-0.00002269,0.00002227,-0.00001678,-0.00
 004373,0.00000918,-0.00002092,0.00002690,-0.00001070,0.00000179,-0.000
 00216,0.00000628,-0.00000787,0.00011189,0.00003986,0.00015327,-0.00002
 653,-0.00003820,-0.00001331,0.00137803,0.00056816,0.00038328,0.0010332
 7,0.00070268,0.00192070,0.21009441,-0.00114976,0.00171828,0.00004822,0
 .16631503,-0.12362957,0.15815334,0.00107050,-0.00047001,-0.00099630,-0
 .00032437,-0.00009002,0.00046746,0.00024720,-0.00004216,0.00005493,0.0
 0192228,-0.00375534,-0.00275561,-0.01506046,0.00548235,-0.02057212,-0.
 00040625,-0.00014813,0.00076047,0.00013264,-0.00012810,0.00007355,-0.0
 0002844,0.00001182,-0.00003529,0.00000378,0.00001708,-0.00001885,-0.00
 015328,-0.00000285,-0.00010164,-0.00003201,-0.00011695,0.00040627,0.00
 004560,-0.00011571,0.00004786,0.00100072,0.00065748,-0.00056242,-0.000
 59130,0.00071569,-0.00156903,-0.15299188,0.11989614,0.00125359,-0.0023
 4803,0.00063560,-0.18831035,0.11906059,-0.24223983,-0.00017568,0.00031
 598,0.00098755,-0.00005357,-0.00006322,0.00001952,-0.00011488,0.000021
 89,-0.00008079,0.00082196,-0.00416565,-0.00286845,-0.02446144,0.019529
 10,-0.03420541,-0.00023197,0.00038101,-0.00015357,0.00001065,-0.000026
 56,0.00003890,0.00000623,0.00002278,0.00001715,0.00001845,-0.00007345,
 -0.00001255,0.00001833,-0.00007886,0.00005118,0.00013823,0.00033304,-0
 .00014036,0.00000876,-0.00013375,-0.00004549,0.00002091,0.00078180,-0.
 00118426,0.00033952,-0.00015582,0.00294021,0.21071126,-0.13340084,0.27
 624061\\-0.00000059,0.00000043,-0.00000003,0.00000137,-0.00000019,-0.0
 0000050,-0.00000047,-0.00000015,0.00000065,-0.00000062,0.00000007,0.00
 000114,0.00000022,-0.00000007,-0.00000069,-0.00000042,0.00000006,-0.00
 000031,0.00000066,0.00000009,-0.00000022,0.00000057,-0.00000018,0.0000
 0055,-0.00000126,0.00000005,0.00000096,-0.00000056,-0.00000014,0.00000
 173,-0.00000019,-0.00000015,0.00000124,-0.00000065,0.00000017,-0.00000
 064,0.00000032,-0.00000002,-0.00000095,0.00000043,-0.00000007,-0.00000
 036,-0.00000091,0.00000012,-0.00000048,0.00000049,0.00000004,-0.000001
 08,0.00000161,-0.00000007,-0.00000101\\\@


 EVERYTHING'S GOT A MORAL, IF ONLY YOU CAN FIND IT.

                                    -- LEWIS CARROL, ALICE IN WONDERLAND
 Job cpu time:       0 days  2 hours 50 minutes 19.9 seconds.
 Elapsed time:       0 days  1 hours 25 minutes 11.0 seconds.
 File lengths (MBytes):  RWF=   1392 Int=      0 D2E=      0 Chk=     32 Scr=     32
 Normal termination of Gaussian 16 at Thu Sep 26 11:38:52 2019.
