 Entering Gaussian System, Link 0=g16
 Input=loose/species/CC(C)OC=CO/conformers/CC(C)OC=CO_54.com
 Output=loose/species/CC(C)OC=CO/conformers/CC(C)OC=CO_54.log
 Initial command:
 /shared/centos7/gaussian/g16/l1.exe "/scratch/harms.n/gauss_scrdir/Gau-3980.inp" -scrdir="/scratch/harms.n/gauss_scrdir/"
 Entering Link 1 = /shared/centos7/gaussian/g16/l1.exe PID=      3982.
  
 Copyright (c) 1988,1990,1992,1993,1995,1998,2003,2009,2016,
            Gaussian, Inc.  All Rights Reserved.
  
 This is part of the Gaussian(R) 16 program.  It is based on
 the Gaussian(R) 09 system (copyright 2009, Gaussian, Inc.),
 the Gaussian(R) 03 system (copyright 2003, Gaussian, Inc.),
 the Gaussian(R) 98 system (copyright 1998, Gaussian, Inc.),
 the Gaussian(R) 94 system (copyright 1995, Gaussian, Inc.),
 the Gaussian 92(TM) system (copyright 1992, Gaussian, Inc.),
 the Gaussian 90(TM) system (copyright 1990, Gaussian, Inc.),
 the Gaussian 88(TM) system (copyright 1988, Gaussian, Inc.),
 the Gaussian 86(TM) system (copyright 1986, Carnegie Mellon
 University), and the Gaussian 82(TM) system (copyright 1983,
 Carnegie Mellon University). Gaussian is a federally registered
 trademark of Gaussian, Inc.
  
 This software contains proprietary and confidential information,
 including trade secrets, belonging to Gaussian, Inc.
  
 This software is provided under written license and may be
 used, copied, transmitted, or stored only in accord with that
 written license.
  
 The following legend is applicable only to US Government
 contracts under FAR:
  
                    RESTRICTED RIGHTS LEGEND
  
 Use, reproduction and disclosure by the US Government is
 subject to restrictions as set forth in subparagraphs (a)
 and (c) of the Commercial Computer Software - Restricted
 Rights clause in FAR 52.227-19.
  
 Gaussian, Inc.
 340 Quinnipiac St., Bldg. 40, Wallingford CT 06492
  
  
 ---------------------------------------------------------------
 Warning -- This program may not be used in any manner that
 competes with the business of Gaussian, Inc. or will provide
 assistance to any competitor of Gaussian, Inc.  The licensee
 of this program is prohibited from giving any competitor of
 Gaussian, Inc. access to this program.  By using this program,
 the user acknowledges that Gaussian, Inc. is engaged in the
 business of creating and licensing software in the field of
 computational chemistry and represents and warrants to the
 licensee that it is not a competitor of Gaussian, Inc. and that
 it will not use this program in any manner prohibited above.
 ---------------------------------------------------------------
  

 Cite this work as:
 Gaussian 16, Revision A.03,
 M. J. Frisch, G. W. Trucks, H. B. Schlegel, G. E. Scuseria, 
 M. A. Robb, J. R. Cheeseman, G. Scalmani, V. Barone, 
 G. A. Petersson, H. Nakatsuji, X. Li, M. Caricato, A. V. Marenich, 
 J. Bloino, B. G. Janesko, R. Gomperts, B. Mennucci, H. P. Hratchian, 
 J. V. Ortiz, A. F. Izmaylov, J. L. Sonnenberg, D. Williams-Young, 
 F. Ding, F. Lipparini, F. Egidi, J. Goings, B. Peng, A. Petrone, 
 T. Henderson, D. Ranasinghe, V. G. Zakrzewski, J. Gao, N. Rega, 
 G. Zheng, W. Liang, M. Hada, M. Ehara, K. Toyota, R. Fukuda, 
 J. Hasegawa, M. Ishida, T. Nakajima, Y. Honda, O. Kitao, H. Nakai, 
 T. Vreven, K. Throssell, J. A. Montgomery, Jr., J. E. Peralta, 
 F. Ogliaro, M. J. Bearpark, J. J. Heyd, E. N. Brothers, K. N. Kudin, 
 V. N. Staroverov, T. A. Keith, R. Kobayashi, J. Normand, 
 K. Raghavachari, A. P. Rendell, J. C. Burant, S. S. Iyengar, 
 J. Tomasi, M. Cossi, J. M. Millam, M. Klene, C. Adamo, R. Cammi, 
 J. W. Ochterski, R. L. Martin, K. Morokuma, O. Farkas, 
 J. B. Foresman, and D. J. Fox, Gaussian, Inc., Wallingford CT, 2016.
 
 ******************************************
 Gaussian 16:  EM64L-G16RevA.03 25-Dec-2016
                25-Sep-2019 
 ******************************************
 %nprocshared=20
 Will use up to   20 processors via shared memory.
 %mem=5GB
 ----------------------------------------------------------------------
 #p m062x/cc-pVTZ opt=(calcfc,maxcycles=900,Tight) freq IOP(7/33=1,2/16
 =3) scf=(maxcycle=900)
 ----------------------------------------------------------------------
 1/6=900,7=10,10=4,18=20,19=15,26=3,38=1/1,3;
 2/9=110,12=2,16=3,17=6,18=5,40=1/2;
 3/5=16,6=1,11=2,25=1,30=1,71=2,74=-55,140=1/1,2,3;
 4//1;
 5/5=2,7=900,38=5/2;
 8/6=4,10=90,11=11/1;
 11/6=1,8=1,9=11,15=111,16=1/1,2,10;
 10/6=1,13=1/2;
 6/7=2,8=2,9=2,10=2,28=1/1;
 7/10=1,18=20,25=1,33=1/1,2,3,16;
 1/6=900,7=10,10=4,18=20,19=15,26=3/3(2);
 2/9=110,16=3/2;
 99//99;
 2/9=110,16=3/2;
 3/5=16,6=1,11=2,25=1,30=1,71=1,74=-55/1,2,3;
 4/5=5,16=3,69=1/1;
 5/5=2,7=900,38=5/2;
 7/33=1/1,2,3,16;
 1/6=900,7=10,18=20,19=15,26=3/3(-5);
 2/9=110,16=3/2;
 6/7=2,8=2,9=2,10=2,19=2,28=1/1;
 99/9=1/99;
 Leave Link    1 at Wed Sep 25 22:25:25 2019, MaxMem=   671088640 cpu:               4.3 elap:               2.2
 (Enter /shared/centos7/gaussian/g16/l101.exe)
 ------------------------------
 Gaussian input prepared by ASE
 ------------------------------
 Symbolic Z-matrix:
 Charge =  0 Multiplicity = 1
 O                     0.36513  -1.07734   2.50299 
 O                     2.76967   0.3929    0.21348 
 C                    -0.93559  -0.52939   2.46119 
 C                    -0.93889   0.95034   2.07726 
 C                    -1.57467  -0.72113   3.79719 
 C                     1.11897  -0.86633   1.37114 
 C                     1.93749   0.14272   1.29444 
 H                    -1.54323  -1.07224   1.68502 
 H                    -0.05613   1.19035   1.44849 
 H                    -1.84905   1.21572   1.50921 
 H                    -0.89981   1.60696   2.98827 
 H                    -1.04593  -0.07347   4.55723 
 H                    -1.53445  -1.77284   4.14985 
 H                    -2.66384  -0.43261   3.79534 
 H                     1.04149  -1.6505    0.6012 
 H                     1.98766   0.89974   2.0631 
 H                     3.43378   1.07759   0.51667 
 
 ITRead=  0  0  0  0  0  0  0  0  0  0  0  0  0  0  0  0  0
 MicOpt= -1 -1 -1 -1 -1 -1 -1 -1 -1 -1 -1 -1 -1 -1 -1 -1 -1
 NAtoms=     17 NQM=       17 NQMF=       0 NMMI=      0 NMMIF=      0
                NMic=       0 NMicF=      0.
                    Isotopes and Nuclear Properties:
 (Nuclear quadrupole moments (NQMom) in fm**2, nuclear magnetic moments (NMagM)
  in nuclear magnetons)

  Atom         1           2           3           4           5           6           7           8           9          10
 IAtWgt=          16          16          12          12          12          12          12           1           1           1
 AtmWgt=  15.9949146  15.9949146  12.0000000  12.0000000  12.0000000  12.0000000  12.0000000   1.0078250   1.0078250   1.0078250
 NucSpn=           0           0           0           0           0           0           0           1           1           1
 AtZEff=  -0.0000000  -0.0000000  -0.0000000  -0.0000000  -0.0000000  -0.0000000  -0.0000000  -0.0000000  -0.0000000  -0.0000000
 NQMom=    0.0000000   0.0000000   0.0000000   0.0000000   0.0000000   0.0000000   0.0000000   0.0000000   0.0000000   0.0000000
 NMagM=    0.0000000   0.0000000   0.0000000   0.0000000   0.0000000   0.0000000   0.0000000   2.7928460   2.7928460   2.7928460
 AtZNuc=   8.0000000   8.0000000   6.0000000   6.0000000   6.0000000   6.0000000   6.0000000   1.0000000   1.0000000   1.0000000

  Atom        11          12          13          14          15          16          17
 IAtWgt=           1           1           1           1           1           1           1
 AtmWgt=   1.0078250   1.0078250   1.0078250   1.0078250   1.0078250   1.0078250   1.0078250
 NucSpn=           1           1           1           1           1           1           1
 AtZEff=  -0.0000000  -0.0000000  -0.0000000  -0.0000000  -0.0000000  -0.0000000  -0.0000000
 NQMom=    0.0000000   0.0000000   0.0000000   0.0000000   0.0000000   0.0000000   0.0000000
 NMagM=    2.7928460   2.7928460   2.7928460   2.7928460   2.7928460   2.7928460   2.7928460
 AtZNuc=   1.0000000   1.0000000   1.0000000   1.0000000   1.0000000   1.0000000   1.0000000
 Leave Link  101 at Wed Sep 25 22:25:27 2019, MaxMem=   671088640 cpu:               5.3 elap:               2.7
 (Enter /shared/centos7/gaussian/g16/l103.exe)

 GradGradGradGradGradGradGradGradGradGradGradGradGradGradGradGradGradGrad
 Berny optimization.
 Initialization pass.
                           ----------------------------
                           !    Initial Parameters    !
                           ! (Angstroms and Degrees)  !
 --------------------------                            --------------------------
 ! Name  Definition              Value          Derivative Info.                !
 --------------------------------------------------------------------------------
 ! R1    R(1,3)                  1.412          calculate D2E/DX2 analytically  !
 ! R2    R(1,6)                  1.3762         calculate D2E/DX2 analytically  !
 ! R3    R(2,7)                  1.3869         calculate D2E/DX2 analytically  !
 ! R4    R(2,17)                 1.0009         calculate D2E/DX2 analytically  !
 ! R5    R(3,4)                  1.5287         calculate D2E/DX2 analytically  !
 ! R6    R(3,5)                  1.4933         calculate D2E/DX2 analytically  !
 ! R7    R(3,8)                  1.1253         calculate D2E/DX2 analytically  !
 ! R8    R(4,9)                  1.1101         calculate D2E/DX2 analytically  !
 ! R9    R(4,10)                 1.1052         calculate D2E/DX2 analytically  !
 ! R10   R(4,11)                 1.1237         calculate D2E/DX2 analytically  !
 ! R11   R(5,12)                 1.1299         calculate D2E/DX2 analytically  !
 ! R12   R(5,13)                 1.11           calculate D2E/DX2 analytically  !
 ! R13   R(5,14)                 1.1267         calculate D2E/DX2 analytically  !
 ! R14   R(6,7)                  1.3016         calculate D2E/DX2 analytically  !
 ! R15   R(6,15)                 1.1017         calculate D2E/DX2 analytically  !
 ! R16   R(7,16)                 1.08           calculate D2E/DX2 analytically  !
 ! A1    A(3,1,6)              114.8814         calculate D2E/DX2 analytically  !
 ! A2    A(7,2,17)             106.584          calculate D2E/DX2 analytically  !
 ! A3    A(1,3,4)              112.6461         calculate D2E/DX2 analytically  !
 ! A4    A(1,3,5)              108.5361         calculate D2E/DX2 analytically  !
 ! A5    A(1,3,8)              109.3063         calculate D2E/DX2 analytically  !
 ! A6    A(4,3,5)              110.3678         calculate D2E/DX2 analytically  !
 ! A7    A(4,3,8)              107.0101         calculate D2E/DX2 analytically  !
 ! A8    A(5,3,8)              108.9076         calculate D2E/DX2 analytically  !
 ! A9    A(3,4,9)              110.4769         calculate D2E/DX2 analytically  !
 ! A10   A(3,4,10)             111.3019         calculate D2E/DX2 analytically  !
 ! A11   A(3,4,11)             111.2193         calculate D2E/DX2 analytically  !
 ! A12   A(9,4,10)             108.1706         calculate D2E/DX2 analytically  !
 ! A13   A(9,4,11)             107.7714         calculate D2E/DX2 analytically  !
 ! A14   A(10,4,11)            107.7598         calculate D2E/DX2 analytically  !
 ! A15   A(3,5,12)             109.1433         calculate D2E/DX2 analytically  !
 ! A16   A(3,5,13)             112.9786         calculate D2E/DX2 analytically  !
 ! A17   A(3,5,14)             112.292          calculate D2E/DX2 analytically  !
 ! A18   A(12,5,13)            108.206          calculate D2E/DX2 analytically  !
 ! A19   A(12,5,14)            107.8588         calculate D2E/DX2 analytically  !
 ! A20   A(13,5,14)            106.1513         calculate D2E/DX2 analytically  !
 ! A21   A(1,6,7)              120.7854         calculate D2E/DX2 analytically  !
 ! A22   A(1,6,15)             115.2848         calculate D2E/DX2 analytically  !
 ! A23   A(7,6,15)             123.7019         calculate D2E/DX2 analytically  !
 ! A24   A(2,7,6)              124.2707         calculate D2E/DX2 analytically  !
 ! A25   A(2,7,16)             113.6033         calculate D2E/DX2 analytically  !
 ! A26   A(6,7,16)             122.0513         calculate D2E/DX2 analytically  !
 ! D1    D(6,1,3,4)            -51.9703         calculate D2E/DX2 analytically  !
 ! D2    D(6,1,3,5)           -174.4936         calculate D2E/DX2 analytically  !
 ! D3    D(6,1,3,8)             66.8472         calculate D2E/DX2 analytically  !
 ! D4    D(3,1,6,7)             94.5162         calculate D2E/DX2 analytically  !
 ! D5    D(3,1,6,15)           -90.7711         calculate D2E/DX2 analytically  !
 ! D6    D(17,2,7,6)          -166.1716         calculate D2E/DX2 analytically  !
 ! D7    D(17,2,7,16)           16.923          calculate D2E/DX2 analytically  !
 ! D8    D(1,3,4,9)             27.5465         calculate D2E/DX2 analytically  !
 ! D9    D(1,3,4,10)           147.7385         calculate D2E/DX2 analytically  !
 ! D10   D(1,3,4,11)           -92.0895         calculate D2E/DX2 analytically  !
 ! D11   D(5,3,4,9)            149.0347         calculate D2E/DX2 analytically  !
 ! D12   D(5,3,4,10)           -90.7734         calculate D2E/DX2 analytically  !
 ! D13   D(5,3,4,11)            29.3987         calculate D2E/DX2 analytically  !
 ! D14   D(8,3,4,9)            -92.6031         calculate D2E/DX2 analytically  !
 ! D15   D(8,3,4,10)            27.5888         calculate D2E/DX2 analytically  !
 ! D16   D(8,3,4,11)           147.7609         calculate D2E/DX2 analytically  !
 ! D17   D(1,3,5,12)            68.1898         calculate D2E/DX2 analytically  !
 ! D18   D(1,3,5,13)           -52.2359         calculate D2E/DX2 analytically  !
 ! D19   D(1,3,5,14)          -172.2622         calculate D2E/DX2 analytically  !
 ! D20   D(4,3,5,12)           -55.7051         calculate D2E/DX2 analytically  !
 ! D21   D(4,3,5,13)          -176.1308         calculate D2E/DX2 analytically  !
 ! D22   D(4,3,5,14)            63.843          calculate D2E/DX2 analytically  !
 ! D23   D(8,3,5,12)          -172.8997         calculate D2E/DX2 analytically  !
 ! D24   D(8,3,5,13)            66.6746         calculate D2E/DX2 analytically  !
 ! D25   D(8,3,5,14)           -53.3516         calculate D2E/DX2 analytically  !
 ! D26   D(1,6,7,2)            177.2668         calculate D2E/DX2 analytically  !
 ! D27   D(1,6,7,16)            -6.0791         calculate D2E/DX2 analytically  !
 ! D28   D(15,6,7,2)             3.0148         calculate D2E/DX2 analytically  !
 ! D29   D(15,6,7,16)          179.6689         calculate D2E/DX2 analytically  !
 --------------------------------------------------------------------------------
 Trust Radius=3.00D-01 FncErr=1.00D-07 GrdErr=1.00D-06 EigMax=2.50D+02 EigMin=1.00D-04
 Number of steps in this run=    102 maximum allowed number of steps=    102.
 GradGradGradGradGradGradGradGradGradGradGradGradGradGradGradGradGradGrad

 Leave Link  103 at Wed Sep 25 22:25:28 2019, MaxMem=   671088640 cpu:               1.7 elap:               0.9
 (Enter /shared/centos7/gaussian/g16/l202.exe)
                          Input orientation:                          
 ---------------------------------------------------------------------
 Center     Atomic      Atomic             Coordinates (Angstroms)
 Number     Number       Type             X           Y           Z
 ---------------------------------------------------------------------
      1          8           0        0.365128   -1.077345    2.502990
      2          8           0        2.769668    0.392898    0.213475
      3          6           0       -0.935594   -0.529392    2.461195
      4          6           0       -0.938892    0.950336    2.077258
      5          6           0       -1.574666   -0.721134    3.797193
      6          6           0        1.118968   -0.866328    1.371137
      7          6           0        1.937495    0.142723    1.294441
      8          1           0       -1.543233   -1.072237    1.685025
      9          1           0       -0.056133    1.190350    1.448495
     10          1           0       -1.849047    1.215718    1.509212
     11          1           0       -0.899808    1.606965    2.988269
     12          1           0       -1.045931   -0.073474    4.557234
     13          1           0       -1.534446   -1.772842    4.149850
     14          1           0       -2.663845   -0.432607    3.795338
     15          1           0        1.041487   -1.650505    0.601201
     16          1           0        1.987655    0.899738    2.063099
     17          1           0        3.433784    1.077593    0.516668
 ---------------------------------------------------------------------
                    Distance matrix (angstroms):
                    1          2          3          4          5
     1  O    0.000000
     2  O    3.631158   0.000000
     3  C    1.412047   4.430782   0.000000
     4  C    2.448102   4.187820   1.528729   0.000000
     5  C    2.358951   5.740849   1.493342   2.481169   0.000000
     6  C    1.376189   2.377108   2.350102   2.834371   3.628015
     7  C    2.328410   1.386935   3.172963   3.088469   4.398328
     8  H    2.076279   4.786773   1.125320   2.147063   2.141382
     9  H    2.536111   3.185334   2.180945   1.110050   3.387639
    10  H    3.338907   4.867083   2.187710   1.105209   3.010239
    11  H    3.006838   4.757993   2.200706   1.123668   2.555354
    12  H    2.686776   5.800392   2.147886   2.685131   1.129905
    13  H    2.608494   6.221806   2.180905   3.473618   1.109989
    14  H    3.355671   6.560051   2.185442   2.799964   1.126748
    15  H    2.098279   2.704151   2.936890   3.586783   4.233480
    16  H    2.595180   2.071120   3.278152   2.927018   4.280706
    17  H    4.243334   1.000891   5.045300   4.644559   6.251547
                    6          7          8          9         10
     6  C    0.000000
     7  C    1.301558   0.000000
     8  H    2.688538   3.707310   0.000000
     9  H    2.369972   2.257389   2.717851   0.000000
    10  H    3.628097   3.941490   2.314989   1.794121   0.000000
    11  H    3.578791   3.614325   3.048043   1.804511   1.800482
    12  H    3.932763   4.426442   3.081302   3.498744   3.405503
    13  H    3.947609   4.886422   2.562477   4.273550   4.000429
    14  H    4.513816   5.268569   2.473524   3.865465   2.933810
    15  H    1.101697   2.121102   2.861791   3.161191   4.170720
    16  H    2.086245   1.080011   4.061871   2.153895   3.889333
    17  H    3.141229   1.928158   5.545947   3.613936   5.377037
                   11         12         13         14         15
    11  H    0.000000
    12  H    2.303666   0.000000
    13  H    3.629756   1.814514   0.000000
    14  H    2.814790   1.824036   1.788142   0.000000
    15  H    4.480829   4.742841   4.386719   5.041356   0.000000
    16  H    3.113447   4.046047   4.889009   5.139285   3.088060
    17  H    5.016878   6.141578   6.782941   7.086004   3.629427
                   16         17
    16  H    0.000000
    17  H    2.124704   0.000000
 Stoichiometry    C5H10O2
 Framework group  C1[X(C5H10O2)]
 Deg. of freedom    45
 Full point group                 C1      NOp   1
 Largest Abelian subgroup         C1      NOp   1
 Largest concise Abelian subgroup C1      NOp   1
                         Standard orientation:                         
 ---------------------------------------------------------------------
 Center     Atomic      Atomic             Coordinates (Angstroms)
 Number     Number       Type             X           Y           Z
 ---------------------------------------------------------------------
      1          8           0        0.399585   -0.938541   -0.133049
      2          8           0       -3.047819    0.188039    0.044516
      3          6           0        1.366229   -0.034213    0.358545
      4          6           0        0.950509    1.426080    0.180403
      5          6           0        2.659655   -0.295403   -0.340667
      6          6           0       -0.876971   -0.734673    0.338902
      7          6           0       -1.729971   -0.018921   -0.334999
      8          1           0        1.507427   -0.204037    1.461981
      9          1           0       -0.155803    1.516882    0.174030
     10          1           0        1.343485    2.057961    0.997582
     11          1           0        1.334423    1.842755   -0.789970
     12          1           0        2.559625   -0.001144   -1.426988
     13          1           0        2.968473   -1.360671   -0.296948
     14          1           0        3.511102    0.296129    0.100568
     15          1           0       -1.133284   -1.287696    1.256619
     16          1           0       -1.448225    0.517076   -1.229286
     17          1           0       -3.518060    0.569544   -0.752422
 ---------------------------------------------------------------------
 Rotational constants (GHZ):           6.5860032           1.3313202           1.1906772
 Leave Link  202 at Wed Sep 25 22:25:30 2019, MaxMem=   671088640 cpu:               3.9 elap:               2.0
 (Enter /shared/centos7/gaussian/g16/l301.exe)
 Standard basis: CC-pVTZ (5D, 7F)
 Ernie: Thresh=  0.10000D-02 Tol=  0.10000D-05 Strict=F.
 Ernie:  21 primitive shells out of 262 were deleted.
 There are   395 symmetry adapted cartesian basis functions of A   symmetry.
 There are   350 symmetry adapted basis functions of A   symmetry.
   350 basis functions,   534 primitive gaussians,   395 cartesian basis functions
    28 alpha electrons       28 beta electrons
       nuclear repulsion energy       313.4985937742 Hartrees.
 IExCor= 4336 DFT=T Ex+Corr=M062X ExCW=0 ScaHFX=  0.540000
 ScaDFX=  1.000000  1.000000  1.000000  1.000000 ScalE2=  1.000000  1.000000
 IRadAn=      5 IRanWt=     -1 IRanGd=            0 ICorTp=0 IEmpDi=  4
 NAtoms=   17 NActive=   17 NUniq=   17 SFac= 1.00D+00 NAtFMM=   60 NAOKFM=F Big=F
 Integral buffers will be    131072 words long.
 Raffenetti 2 integral format.
 Two-electron integral symmetry is turned on.
 Leave Link  301 at Wed Sep 25 22:25:31 2019, MaxMem=   671088640 cpu:               1.8 elap:               0.9
 (Enter /shared/centos7/gaussian/g16/l302.exe)
 NPDir=0 NMtPBC=     1 NCelOv=     1 NCel=       1 NClECP=     1 NCelD=      1
         NCelK=      1 NCelE2=     1 NClLst=     1 CellRange=     0.0.
 One-electron integrals computed using PRISM.
 One-electron integral symmetry used in STVInt
 NBasis=   350 RedAO= T EigKep=  2.57D-04  NBF=   350
 NBsUse=   350 1.00D-06 EigRej= -1.00D+00 NBFU=   350
 Precomputing XC quadrature grid using
 IXCGrd= 4 IRadAn=           5 IRanWt=          -1 IRanGd=           0 AccXCQ= 0.00D+00.
 Generated NRdTot=       0 NPtTot=           0 NUsed=           0 NTot=          32
 NSgBfM=   395   395   395   395   395 MxSgAt=    17 MxSgA2=    17.
 Leave Link  302 at Wed Sep 25 22:26:35 2019, MaxMem=   671088640 cpu:             127.4 elap:              63.7
 (Enter /shared/centos7/gaussian/g16/l303.exe)
 DipDrv:  MaxL=1.
 Leave Link  303 at Wed Sep 25 22:26:40 2019, MaxMem=   671088640 cpu:              10.1 elap:               5.1
 (Enter /shared/centos7/gaussian/g16/l401.exe)
 ExpMin= 1.03D-01 ExpMax= 1.53D+04 ExpMxC= 5.22D+02 IAcc=3 IRadAn=         5 AccDes= 0.00D+00
 Harris functional with IExCor= 1009 and IRadAn=       5 diagonalized for initial guess.
 HarFok:  IExCor= 1009 AccDes= 0.00D+00 IRadAn=         5 IDoV= 1 UseB2=F ITyADJ=14
 ICtDFT=  3500011 ScaDFX=  1.000000  1.000000  1.000000  1.000000
 FoFCou: FMM=F IPFlag=           0 FMFlag=      100000 FMFlg1=           0
         NFxFlg=           0 DoJE=T BraDBF=F KetDBF=T FulRan=T
         wScrn=  0.000000 ICntrl=       500 IOpCl=  0 I1Cent=   200000004 NGrid=           0
         NMat0=    1 NMatS0=      1 NMatT0=    0 NMatD0=    1 NMtDS0=    0 NMtDT0=    0
 Petite list used in FoFCou.
 Harris En= -346.806220649752    
 JPrj=0 DoOrth=F DoCkMO=F.
 Leave Link  401 at Wed Sep 25 22:27:12 2019, MaxMem=   671088640 cpu:              64.7 elap:              32.3
 (Enter /shared/centos7/gaussian/g16/l502.exe)
 Integral symmetry usage will be decided dynamically.
 Closed shell SCF:
 Using DIIS extrapolation, IDIIS=  1040.
 NGot=   671088640 LenX=   670765141 LenY=   670608675
 Requested convergence on RMS density matrix=1.00D-08 within 900 cycles.
 Requested convergence on MAX density matrix=1.00D-06.
 Requested convergence on             energy=1.00D-06.
 No special actions if energy rises.
 Fock matrices will be formed incrementally for  20 cycles.
 Integral accuracy reduced to 1.0D-05 until final iterations.

 Cycle   1  Pass 0  IDiag  1:
 FoFJK:  IHMeth= 1 ICntrl=       0 DoSepK=F KAlg= 0 I1Cent=           0 FoldK=F
 IRaf= 940000000 NMat=       1 IRICut=       1 DoRegI=T DoRafI=F ISym2E= 0 IDoP0=0 IntGTp=1.
 FoFCou: FMM=F IPFlag=           0 FMFlag=      100000 FMFlg1=           0
         NFxFlg=           0 DoJE=F BraDBF=F KetDBF=F FulRan=T
         wScrn=  0.000000 ICntrl=         0 IOpCl=  0 I1Cent=           0 NGrid=           0
         NMat0=    1 NMatS0=      1 NMatT0=    0 NMatD0=    1 NMtDS0=    0 NMtDT0=    0
 Symmetry not used in FoFCou.
 E= -346.691412798141    
 DIIS: error= 2.43D-02 at cycle   1 NSaved=   1.
 NSaved= 1 IEnMin= 1 EnMin= -346.691412798141     IErMin= 1 ErrMin= 2.43D-02
 ErrMax= 2.43D-02  0.00D+00 EMaxC= 1.00D-01 BMatC= 2.87D-01 BMatP= 2.87D-01
 IDIUse=3 WtCom= 7.57D-01 WtEn= 2.43D-01
 Coeff-Com:  0.100D+01
 Coeff-En:   0.100D+01
 Coeff:      0.100D+01
 Gap=     0.349 Goal=   None    Shift=    0.000
 GapD=    0.349 DampG=1.000 DampE=0.500 DampFc=0.5000 IDamp=-1.
 Damping current iteration by 5.00D-01
 RMSDP=2.08D-03 MaxDP=1.05D-01              OVMax= 1.52D-01

 Cycle   2  Pass 0  IDiag  1:
 RMSU=  1.04D-03    CP:  9.99D-01
 E= -346.810938249511     Delta-E=       -0.119525451370 Rises=F Damp=T
 DIIS: error= 6.53D-03 at cycle   2 NSaved=   2.
 NSaved= 2 IEnMin= 2 EnMin= -346.810938249511     IErMin= 2 ErrMin= 6.53D-03
 ErrMax= 6.53D-03  0.00D+00 EMaxC= 1.00D-01 BMatC= 2.09D-02 BMatP= 2.87D-01
 IDIUse=3 WtCom= 9.35D-01 WtEn= 6.53D-02
 Coeff-Com: -0.127D+00 0.113D+01
 Coeff-En:   0.000D+00 0.100D+01
 Coeff:     -0.119D+00 0.112D+01
 Gap=     0.334 Goal=   None    Shift=    0.000
 RMSDP=4.63D-04 MaxDP=1.46D-02 DE=-1.20D-01 OVMax= 7.23D-02

 Cycle   3  Pass 0  IDiag  1:
 RMSU=  4.55D-04    CP:  1.00D+00  9.23D-01
 E= -346.919537414061     Delta-E=       -0.108599164550 Rises=F Damp=F
 DIIS: error= 2.16D-03 at cycle   3 NSaved=   3.
 NSaved= 3 IEnMin= 3 EnMin= -346.919537414061     IErMin= 3 ErrMin= 2.16D-03
 ErrMax= 2.16D-03  0.00D+00 EMaxC= 1.00D-01 BMatC= 2.98D-03 BMatP= 2.09D-02
 IDIUse=3 WtCom= 9.78D-01 WtEn= 2.16D-02
 Coeff-Com: -0.763D-01 0.281D+00 0.795D+00
 Coeff-En:   0.000D+00 0.000D+00 0.100D+01
 Coeff:     -0.747D-01 0.275D+00 0.800D+00
 Gap=     0.335 Goal=   None    Shift=    0.000
 RMSDP=1.30D-04 MaxDP=4.28D-03 DE=-1.09D-01 OVMax= 1.12D-02

 Cycle   4  Pass 0  IDiag  1:
 RMSU=  1.02D-04    CP:  1.00D+00  9.92D-01  9.28D-01
 E= -346.921166629572     Delta-E=       -0.001629215511 Rises=F Damp=F
 DIIS: error= 1.16D-03 at cycle   4 NSaved=   4.
 NSaved= 4 IEnMin= 4 EnMin= -346.921166629572     IErMin= 4 ErrMin= 1.16D-03
 ErrMax= 1.16D-03  0.00D+00 EMaxC= 1.00D-01 BMatC= 8.31D-04 BMatP= 2.98D-03
 IDIUse=3 WtCom= 9.88D-01 WtEn= 1.16D-02
 Coeff-Com: -0.263D-01 0.683D-01 0.393D+00 0.565D+00
 Coeff-En:   0.000D+00 0.000D+00 0.161D+00 0.839D+00
 Coeff:     -0.260D-01 0.675D-01 0.390D+00 0.569D+00
 Gap=     0.332 Goal=   None    Shift=    0.000
 RMSDP=4.92D-05 MaxDP=1.81D-03 DE=-1.63D-03 OVMax= 5.73D-03

 Cycle   5  Pass 0  IDiag  1:
 RMSU=  2.65D-05    CP:  1.00D+00  9.81D-01  9.62D-01  6.44D-01
 E= -346.921777958051     Delta-E=       -0.000611328479 Rises=F Damp=F
 DIIS: error= 1.81D-04 at cycle   5 NSaved=   5.
 NSaved= 5 IEnMin= 5 EnMin= -346.921777958051     IErMin= 5 ErrMin= 1.81D-04
 ErrMax= 1.81D-04  0.00D+00 EMaxC= 1.00D-01 BMatC= 1.85D-05 BMatP= 8.31D-04
 IDIUse=3 WtCom= 9.98D-01 WtEn= 1.81D-03
 Coeff-Com: -0.387D-02 0.695D-02 0.849D-01 0.191D+00 0.721D+00
 Coeff-En:   0.000D+00 0.000D+00 0.000D+00 0.000D+00 0.100D+01
 Coeff:     -0.386D-02 0.694D-02 0.847D-01 0.191D+00 0.721D+00
 Gap=     0.332 Goal=   None    Shift=    0.000
 RMSDP=9.85D-06 MaxDP=3.53D-04 DE=-6.11D-04 OVMax= 7.72D-04

 Initial convergence to 1.0D-05 achieved.  Increase integral accuracy.
 Cycle   6  Pass 1  IDiag  1:
 E= -346.921774267825     Delta-E=        0.000003690227 Rises=F Damp=F
 DIIS: error= 4.43D-05 at cycle   1 NSaved=   1.
 NSaved= 1 IEnMin= 1 EnMin= -346.921774267825     IErMin= 1 ErrMin= 4.43D-05
 ErrMax= 4.43D-05  0.00D+00 EMaxC= 1.00D-01 BMatC= 1.96D-06 BMatP= 1.96D-06
 IDIUse=1 WtCom= 1.00D+00 WtEn= 0.00D+00
 Coeff-Com:  0.100D+01
 Coeff:      0.100D+01
 Gap=     0.332 Goal=   None    Shift=    0.000
 RMSDP=9.85D-06 MaxDP=3.53D-04 DE= 3.69D-06 OVMax= 5.00D-04

 Cycle   7  Pass 1  IDiag  1:
 RMSU=  8.69D-06    CP:  1.00D+00
 E= -346.921774665078     Delta-E=       -0.000000397254 Rises=F Damp=F
 DIIS: error= 5.35D-05 at cycle   2 NSaved=   2.
 NSaved= 2 IEnMin= 2 EnMin= -346.921774665078     IErMin= 1 ErrMin= 4.43D-05
 ErrMax= 5.35D-05  0.00D+00 EMaxC= 1.00D-01 BMatC= 1.55D-06 BMatP= 1.96D-06
 IDIUse=1 WtCom= 1.00D+00 WtEn= 0.00D+00
 Coeff-Com:  0.467D+00 0.533D+00
 Coeff:      0.467D+00 0.533D+00
 Gap=     0.332 Goal=   None    Shift=    0.000
 RMSDP=2.39D-06 MaxDP=1.11D-04 DE=-3.97D-07 OVMax= 1.92D-04

 Cycle   8  Pass 1  IDiag  1:
 RMSU=  2.23D-06    CP:  1.00D+00  9.01D-01
 E= -346.921775878446     Delta-E=       -0.000001213368 Rises=F Damp=F
 DIIS: error= 5.76D-06 at cycle   3 NSaved=   3.
 NSaved= 3 IEnMin= 3 EnMin= -346.921775878446     IErMin= 3 ErrMin= 5.76D-06
 ErrMax= 5.76D-06  0.00D+00 EMaxC= 1.00D-01 BMatC= 3.39D-08 BMatP= 1.55D-06
 IDIUse=1 WtCom= 1.00D+00 WtEn= 0.00D+00
 Coeff-Com:  0.278D-02 0.114D+00 0.883D+00
 Coeff:      0.278D-02 0.114D+00 0.883D+00
 Gap=     0.332 Goal=   None    Shift=    0.000
 RMSDP=5.28D-07 MaxDP=1.41D-05 DE=-1.21D-06 OVMax= 6.50D-05

 Cycle   9  Pass 1  IDiag  1:
 RMSU=  4.52D-07    CP:  1.00D+00  9.31D-01  9.82D-01
 E= -346.921775904678     Delta-E=       -0.000000026232 Rises=F Damp=F
 DIIS: error= 4.00D-06 at cycle   4 NSaved=   4.
 NSaved= 4 IEnMin= 4 EnMin= -346.921775904678     IErMin= 4 ErrMin= 4.00D-06
 ErrMax= 4.00D-06  0.00D+00 EMaxC= 1.00D-01 BMatC= 7.47D-09 BMatP= 3.39D-08
 IDIUse=1 WtCom= 1.00D+00 WtEn= 0.00D+00
 Coeff-Com: -0.232D-01 0.256D-01 0.428D+00 0.569D+00
 Coeff:     -0.232D-01 0.256D-01 0.428D+00 0.569D+00
 Gap=     0.332 Goal=   None    Shift=    0.000
 RMSDP=1.66D-07 MaxDP=6.59D-06 DE=-2.62D-08 OVMax= 1.59D-05

 Cycle  10  Pass 1  IDiag  1:
 RMSU=  1.55D-07    CP:  1.00D+00  9.35D-01  9.95D-01  9.16D-01
 E= -346.921775910487     Delta-E=       -0.000000005808 Rises=F Damp=F
 DIIS: error= 5.71D-07 at cycle   5 NSaved=   5.
 NSaved= 5 IEnMin= 5 EnMin= -346.921775910487     IErMin= 5 ErrMin= 5.71D-07
 ErrMax= 5.71D-07  0.00D+00 EMaxC= 1.00D-01 BMatC= 2.22D-10 BMatP= 7.47D-09
 IDIUse=1 WtCom= 1.00D+00 WtEn= 0.00D+00
 Coeff-Com: -0.538D-02-0.720D-02 0.355D-02 0.103D+00 0.906D+00
 Coeff:     -0.538D-02-0.720D-02 0.355D-02 0.103D+00 0.906D+00
 Gap=     0.332 Goal=   None    Shift=    0.000
 RMSDP=7.53D-08 MaxDP=2.20D-06 DE=-5.81D-09 OVMax= 7.46D-06

 Cycle  11  Pass 1  IDiag  1:
 RMSU=  4.34D-08    CP:  1.00D+00  9.37D-01  1.00D+00  1.03D+00  1.16D+00
 E= -346.921775910804     Delta-E=       -0.000000000317 Rises=F Damp=F
 DIIS: error= 2.71D-07 at cycle   6 NSaved=   6.
 NSaved= 6 IEnMin= 6 EnMin= -346.921775910804     IErMin= 6 ErrMin= 2.71D-07
 ErrMax= 2.71D-07  0.00D+00 EMaxC= 1.00D-01 BMatC= 4.70D-11 BMatP= 2.22D-10
 IDIUse=1 WtCom= 1.00D+00 WtEn= 0.00D+00
 Coeff-Com:  0.917D-03-0.584D-02-0.508D-01-0.405D-01 0.331D+00 0.765D+00
 Coeff:      0.917D-03-0.584D-02-0.508D-01-0.405D-01 0.331D+00 0.765D+00
 Gap=     0.332 Goal=   None    Shift=    0.000
 RMSDP=2.45D-08 MaxDP=1.07D-06 DE=-3.17D-10 OVMax= 3.03D-06

 Cycle  12  Pass 1  IDiag  1:
 RMSU=  1.46D-08    CP:  1.00D+00  9.37D-01  1.01D+00  1.05D+00  1.25D+00
                    CP:  8.18D-01
 E= -346.921775910860     Delta-E=       -0.000000000056 Rises=F Damp=F
 DIIS: error= 4.97D-08 at cycle   7 NSaved=   7.
 NSaved= 7 IEnMin= 7 EnMin= -346.921775910860     IErMin= 7 ErrMin= 4.97D-08
 ErrMax= 4.97D-08  0.00D+00 EMaxC= 1.00D-01 BMatC= 1.83D-12 BMatP= 4.70D-11
 IDIUse=1 WtCom= 1.00D+00 WtEn= 0.00D+00
 Coeff-Com:  0.482D-03-0.160D-02-0.156D-01-0.175D-01 0.689D-01 0.232D+00
 Coeff-Com:  0.733D+00
 Coeff:      0.482D-03-0.160D-02-0.156D-01-0.175D-01 0.689D-01 0.232D+00
 Coeff:      0.733D+00
 Gap=     0.332 Goal=   None    Shift=    0.000
 RMSDP=4.12D-09 MaxDP=1.35D-07 DE=-5.63D-11 OVMax= 5.68D-07

 SCF Done:  E(RM062X) =  -346.921775911     A.U. after   12 cycles
            NFock= 12  Conv=0.41D-08     -V/T= 2.0062
 KE= 3.447750930561D+02 PE=-1.437112342230D+03 EE= 4.319168794889D+02
 Leave Link  502 at Wed Sep 25 22:37:14 2019, MaxMem=   671088640 cpu:            1203.8 elap:             602.0
 (Enter /shared/centos7/gaussian/g16/l801.exe)
 DoSCS=F DFT=T ScalE2(SS,OS)=  1.000000  1.000000
 Range of M.O.s used for correlation:     1   350
 NBasis=   350 NAE=    28 NBE=    28 NFC=     0 NFV=     0
 NROrb=    350 NOA=    28 NOB=    28 NVA=   322 NVB=   322

 **** Warning!!: The largest alpha MO coefficient is  0.10965233D+02

 Leave Link  801 at Wed Sep 25 22:37:15 2019, MaxMem=   671088640 cpu:               1.4 elap:               0.7
 (Enter /shared/centos7/gaussian/g16/l1101.exe)
 Using compressed storage, NAtomX=    17.
 Will process     18 centers per pass.
 Leave Link 1101 at Wed Sep 25 22:37:45 2019, MaxMem=   671088640 cpu:              60.2 elap:              30.1
 (Enter /shared/centos7/gaussian/g16/l1102.exe)
 Symmetrizing basis deriv contribution to polar:
 IMax=3 JMax=2 DiffMx= 0.00D+00
 Leave Link 1102 at Wed Sep 25 22:37:48 2019, MaxMem=   671088640 cpu:               5.1 elap:               2.6
 (Enter /shared/centos7/gaussian/g16/l1110.exe)
 Forming Gx(P) for the SCF density, NAtomX=    17.
 Integral derivatives from FoFJK, PRISM(SPDF).
 Do as many integral derivatives as possible in FoFJK.
 G2DrvN: MDV=     671087280.
 G2DrvN: will do    18 centers at a time, making    1 passes.
 Calling FoFCou, ICntrl=  3107 FMM=F I1Cent=   0 AccDes= 0.00D+00.
 FoFJK:  IHMeth= 1 ICntrl=    3107 DoSepK=F KAlg= 0 I1Cent=           0 FoldK=F
 IRaf=         0 NMat=       1 IRICut=       1 DoRegI=T DoRafI=F ISym2E= 0 IDoP0=0 IntGTp=1.
 FoFCou: FMM=F IPFlag=           0 FMFlag=      100000 FMFlg1=           0
         NFxFlg=           0 DoJE=F BraDBF=F KetDBF=F FulRan=T
         wScrn=  0.000000 ICntrl=      3107 IOpCl=  0 I1Cent=           0 NGrid=           0
         NMat0=    1 NMatS0=      1 NMatT0=    0 NMatD0=    1 NMtDS0=    0 NMtDT0=    0
 Symmetry not used in FoFCou.
 End of G2Drv F.D. properties file   721 does not exist.
 End of G2Drv F.D. properties file   722 does not exist.
 End of G2Drv F.D. properties file   788 does not exist.
 Leave Link 1110 at Wed Sep 25 22:56:55 2019, MaxMem=   671088640 cpu:            2294.2 elap:            1147.3
 (Enter /shared/centos7/gaussian/g16/l1002.exe)
 Minotr:  Closed shell wavefunction.
          IDoAtm=11111111111111111
          Direct CPHF calculation.
          Differentiating once with respect to nuclear coordinates.
          Requested convergence is 1.0D-08 RMS, and 1.0D-07 maximum.
          Secondary convergence is 1.0D-12 RMS, and 1.0D-12 maximum.
          NewPWx=T KeepS1=F KeepF1=F KeepIn=T MapXYZ=F SortEE=F KeepMc=T.
         5116 words used for storage of precomputed grid.
 Two-electron integrals replicated using symmetry.
          MDV=     671088640 using IRadAn=       1.
          Solving linear equations simultaneously, MaxMat=     380.
 FoF2E skips out because all densities are zero.
 CalDSu exits because no D1Ps are significant.
 FoFJK:  IHMeth= 1 ICntrl=       0 DoSepK=F KAlg= 0 I1Cent=           0 FoldK=F
 IRaf= 930000000 NMat=      51 IRICut=     127 DoRegI=T DoRafI=T ISym2E= 2 IDoP0=3 IntGTp=3.
 FoFCou: FMM=F IPFlag=           0 FMFlag=      100000 FMFlg1=           0
         NFxFlg=           0 DoJE=F BraDBF=F KetDBF=F FulRan=T
         wScrn=  0.000000 ICntrl=         0 IOpCl=  0 I1Cent=           0 NGrid=           0
         NMat0=   51 NMatS0=     51 NMatT0=    0 NMatD0=   51 NMtDS0=    0 NMtDT0=    0
 Integrals replicated using symmetry in FoFCou.
 Raff kept on since  90.31% of shell-pairs survive, threshold=   0.20 IRatSp=90.
          There are    54 degrees of freedom in the 1st order CPHF.  IDoFFX=6 NUNeed=     0.
     48 vectors produced by pass  0 Test12= 1.67D-14 1.85D-09 XBig12= 7.76D-02 5.85D-02.
 AX will form    48 AO Fock derivatives at one time.
     48 vectors produced by pass  1 Test12= 1.67D-14 1.85D-09 XBig12= 5.45D-03 2.64D-02.
     48 vectors produced by pass  2 Test12= 1.67D-14 1.85D-09 XBig12= 1.68D-04 2.25D-03.
     48 vectors produced by pass  3 Test12= 1.67D-14 1.85D-09 XBig12= 2.70D-06 2.84D-04.
     48 vectors produced by pass  4 Test12= 1.67D-14 1.85D-09 XBig12= 1.93D-08 1.60D-05.
     48 vectors produced by pass  5 Test12= 1.67D-14 1.85D-09 XBig12= 9.84D-11 1.03D-06.
     24 vectors produced by pass  6 Test12= 1.67D-14 1.85D-09 XBig12= 4.36D-13 6.09D-08.
      6 vectors produced by pass  7 Test12= 1.67D-14 1.85D-09 XBig12= 1.79D-15 4.46D-09.
 InvSVY:  IOpt=1 It=  1 EMax= 2.22D-16
 Solved reduced A of dimension   318 with    54 vectors.
 End of Minotr F.D. properties file   721 does not exist.
 End of Minotr F.D. properties file   722 does not exist.
 End of Minotr F.D. properties file   788 does not exist.
 Leave Link 1002 at Wed Sep 25 23:30:06 2019, MaxMem=   671088640 cpu:            3982.2 elap:            1991.5
 (Enter /shared/centos7/gaussian/g16/l601.exe)
 Copying SCF densities to generalized density rwf, IOpCl= 0 IROHF=0.

 **********************************************************************

            Population analysis using the SCF density.

 **********************************************************************

 Orbital symmetries:
       Occupied  (A) (A) (A) (A) (A) (A) (A) (A) (A) (A) (A) (A)
                 (A) (A) (A) (A) (A) (A) (A) (A) (A) (A) (A) (A)
                 (A) (A) (A) (A)
       Virtual   (A) (A) (A) (A) (A) (A) (A) (A) (A) (A) (A) (A)
                 (A) (A) (A) (A) (A) (A) (A) (A) (A) (A) (A) (A)
                 (A) (A) (A) (A) (A) (A) (A) (A) (A) (A) (A) (A)
                 (A) (A) (A) (A) (A) (A) (A) (A) (A) (A) (A) (A)
                 (A) (A) (A) (A) (A) (A) (A) (A) (A) (A) (A) (A)
                 (A) (A) (A) (A) (A) (A) (A) (A) (A) (A) (A) (A)
                 (A) (A) (A) (A) (A) (A) (A) (A) (A) (A) (A) (A)
                 (A) (A) (A) (A) (A) (A) (A) (A) (A) (A) (A) (A)
                 (A) (A) (A) (A) (A) (A) (A) (A) (A) (A) (A) (A)
                 (A) (A) (A) (A) (A) (A) (A) (A) (A) (A) (A) (A)
                 (A) (A) (A) (A) (A) (A) (A) (A) (A) (A) (A) (A)
                 (A) (A) (A) (A) (A) (A) (A) (A) (A) (A) (A) (A)
                 (A) (A) (A) (A) (A) (A) (A) (A) (A) (A) (A) (A)
                 (A) (A) (A) (A) (A) (A) (A) (A) (A) (A) (A) (A)
                 (A) (A) (A) (A) (A) (A) (A) (A) (A) (A) (A) (A)
                 (A) (A) (A) (A) (A) (A) (A) (A) (A) (A) (A) (A)
                 (A) (A) (A) (A) (A) (A) (A) (A) (A) (A) (A) (A)
                 (A) (A) (A) (A) (A) (A) (A) (A) (A) (A) (A) (A)
                 (A) (A) (A) (A) (A) (A) (A) (A) (A) (A) (A) (A)
                 (A) (A) (A) (A) (A) (A) (A) (A) (A) (A) (A) (A)
                 (A) (A) (A) (A) (A) (A) (A) (A) (A) (A) (A) (A)
                 (A) (A) (A) (A) (A) (A) (A) (A) (A) (A) (A) (A)
                 (A) (A) (A) (A) (A) (A) (A) (A) (A) (A) (A) (A)
                 (A) (A) (A) (A) (A) (A) (A) (A) (A) (A) (A) (A)
                 (A) (A) (A) (A) (A) (A) (A) (A) (A) (A) (A) (A)
                 (A) (A) (A) (A) (A) (A) (A) (A) (A) (A) (A) (A)
                 (A) (A) (A) (A) (A) (A) (A) (A) (A) (A)
 The electronic state is 1-A.
 Alpha  occ. eigenvalues --  -19.65444 -19.63474 -10.59218 -10.58889 -10.57354
 Alpha  occ. eigenvalues --  -10.53224 -10.52605  -1.17793  -1.16581  -0.89238
 Alpha  occ. eigenvalues --   -0.84056  -0.77357  -0.68940  -0.65155  -0.61458
 Alpha  occ. eigenvalues --   -0.57550  -0.53941  -0.52985  -0.51738  -0.47159
 Alpha  occ. eigenvalues --   -0.44742  -0.44369  -0.43690  -0.43018  -0.40920
 Alpha  occ. eigenvalues --   -0.39139  -0.33852  -0.28762
 Alpha virt. eigenvalues --    0.04430   0.06576   0.07511   0.09720   0.11560
 Alpha virt. eigenvalues --    0.12384   0.13420   0.14052   0.15434   0.16771
 Alpha virt. eigenvalues --    0.17040   0.19937   0.21163   0.23295   0.25642
 Alpha virt. eigenvalues --    0.27857   0.29169   0.30471   0.30712   0.34329
 Alpha virt. eigenvalues --    0.35319   0.37382   0.37870   0.38442   0.39812
 Alpha virt. eigenvalues --    0.42091   0.43232   0.44422   0.44856   0.45091
 Alpha virt. eigenvalues --    0.47923   0.48202   0.48975   0.49517   0.49745
 Alpha virt. eigenvalues --    0.51025   0.52249   0.53058   0.53742   0.54016
 Alpha virt. eigenvalues --    0.55804   0.57175   0.58928   0.60850   0.62691
 Alpha virt. eigenvalues --    0.64084   0.66118   0.68620   0.71084   0.72251
 Alpha virt. eigenvalues --    0.74570   0.75540   0.78406   0.79607   0.80828
 Alpha virt. eigenvalues --    0.82336   0.85780   0.87978   0.90676   0.91336
 Alpha virt. eigenvalues --    0.92736   0.94124   0.96931   0.98688   0.98941
 Alpha virt. eigenvalues --    1.02096   1.03041   1.03321   1.05226   1.06458
 Alpha virt. eigenvalues --    1.07747   1.10503   1.11072   1.12801   1.13318
 Alpha virt. eigenvalues --    1.14579   1.16632   1.18457   1.19092   1.20273
 Alpha virt. eigenvalues --    1.22291   1.24254   1.26224   1.27066   1.28147
 Alpha virt. eigenvalues --    1.30323   1.31346   1.33152   1.33530   1.35185
 Alpha virt. eigenvalues --    1.36058   1.36447   1.38534   1.38862   1.40243
 Alpha virt. eigenvalues --    1.41652   1.44870   1.46666   1.47563   1.48864
 Alpha virt. eigenvalues --    1.50658   1.53587   1.56462   1.60679   1.61648
 Alpha virt. eigenvalues --    1.64153   1.64900   1.70599   1.79344   1.87164
 Alpha virt. eigenvalues --    1.89519   1.91742   1.99465   2.02048   2.03910
 Alpha virt. eigenvalues --    2.06032   2.11362   2.14680   2.16873   2.22913
 Alpha virt. eigenvalues --    2.23945   2.28933   2.31757   2.32683   2.33598
 Alpha virt. eigenvalues --    2.35069   2.37788   2.40843   2.42580   2.45357
 Alpha virt. eigenvalues --    2.50468   2.51497   2.53470   2.54822   2.55658
 Alpha virt. eigenvalues --    2.59338   2.61033   2.62990   2.63923   2.67731
 Alpha virt. eigenvalues --    2.68969   2.71546   2.76275   2.77562   2.79738
 Alpha virt. eigenvalues --    2.80154   2.81857   2.82660   2.84116   2.86967
 Alpha virt. eigenvalues --    2.89012   2.89915   2.90148   2.92829   2.93863
 Alpha virt. eigenvalues --    2.95469   2.96759   2.98227   3.00467   3.00951
 Alpha virt. eigenvalues --    3.02414   3.03762   3.05518   3.06759   3.07279
 Alpha virt. eigenvalues --    3.08031   3.09383   3.10488   3.13076   3.13604
 Alpha virt. eigenvalues --    3.15002   3.18144   3.18339   3.20661   3.22897
 Alpha virt. eigenvalues --    3.24047   3.29216   3.30068   3.30684   3.31529
 Alpha virt. eigenvalues --    3.32735   3.34072   3.35136   3.36307   3.37596
 Alpha virt. eigenvalues --    3.40034   3.41218   3.41712   3.42657   3.44327
 Alpha virt. eigenvalues --    3.45556   3.46269   3.48435   3.49898   3.53327
 Alpha virt. eigenvalues --    3.54042   3.54833   3.57440   3.59751   3.60663
 Alpha virt. eigenvalues --    3.61766   3.63617   3.65985   3.68887   3.72087
 Alpha virt. eigenvalues --    3.72204   3.74874   3.75770   3.78513   3.79073
 Alpha virt. eigenvalues --    3.79567   3.81451   3.82922   3.83799   3.86728
 Alpha virt. eigenvalues --    3.87005   3.90151   3.91558   3.93341   3.94727
 Alpha virt. eigenvalues --    3.96344   3.96752   3.97760   3.99028   4.00076
 Alpha virt. eigenvalues --    4.01861   4.02939   4.03775   4.04804   4.06612
 Alpha virt. eigenvalues --    4.08523   4.11035   4.13401   4.14186   4.17238
 Alpha virt. eigenvalues --    4.18650   4.19385   4.24675   4.26035   4.28045
 Alpha virt. eigenvalues --    4.29287   4.31010   4.33621   4.36532   4.40304
 Alpha virt. eigenvalues --    4.42596   4.44185   4.48412   4.50130   4.50720
 Alpha virt. eigenvalues --    4.53681   4.61644   4.65722   4.66742   4.70151
 Alpha virt. eigenvalues --    4.71218   4.72930   4.75766   4.77714   4.80713
 Alpha virt. eigenvalues --    4.81779   4.85553   4.88354   4.90526   4.93666
 Alpha virt. eigenvalues --    4.94085   4.97297   4.99995   5.04835   5.07315
 Alpha virt. eigenvalues --    5.08356   5.11281   5.12238   5.15962   5.19979
 Alpha virt. eigenvalues --    5.20872   5.22918   5.25371   5.25671   5.28620
 Alpha virt. eigenvalues --    5.29630   5.32008   5.33923   5.38861   5.48572
 Alpha virt. eigenvalues --    5.50703   5.56651   5.58941   5.65600   5.71505
 Alpha virt. eigenvalues --    5.77108   5.77695   5.80174   5.82033   5.82615
 Alpha virt. eigenvalues --    5.94022   6.01701   6.11571   6.22275   6.27012
 Alpha virt. eigenvalues --    6.33285   6.46101   6.55226   6.58549   6.64672
 Alpha virt. eigenvalues --    6.72756   6.77454   6.78371   6.83440   7.01284
 Alpha virt. eigenvalues --    7.12824   7.22296   7.25929   7.27364   7.38849
 Alpha virt. eigenvalues --   10.38465  10.94379  11.69879  11.78692  13.13636
 Alpha virt. eigenvalues --   13.30529  14.33265
          Condensed to atoms (all electrons):
               1          2          3          4          5          6
     1  O    7.871643   0.001638   0.307137  -0.048215  -0.051559   0.346550
     2  O    0.001638   7.789269   0.000139  -0.000803  -0.000002  -0.064350
     3  C    0.307137   0.000139   4.848368   0.291234   0.345664  -0.064127
     4  C   -0.048215  -0.000803   0.291234   5.143138  -0.062314  -0.011469
     5  C   -0.051559  -0.000002   0.345664  -0.062314   4.961241   0.002735
     6  C    0.346550  -0.064350  -0.064127  -0.011469   0.002735   4.991292
     7  C   -0.066657   0.335161  -0.011405  -0.005942   0.000091   0.531004
     8  H   -0.051840   0.000045   0.411026  -0.086598  -0.036274  -0.001794
     9  H   -0.008587   0.003263  -0.034899   0.411799   0.007318   0.000486
    10  H    0.003739  -0.000032  -0.026787   0.388964  -0.000082   0.001503
    11  H    0.002180   0.000005  -0.043437   0.389601  -0.008394   0.002131
    12  H    0.002028   0.000002  -0.039511  -0.019629   0.401402  -0.000199
    13  H    0.002784  -0.000001  -0.035072   0.011187   0.395009   0.000703
    14  H    0.003980  -0.000000  -0.036382   0.000539   0.387762  -0.000057
    15  H   -0.043336   0.004318   0.003965  -0.002985  -0.000011   0.393735
    16  H    0.007234  -0.049676   0.002182  -0.001886  -0.000245  -0.089133
    17  H   -0.000377   0.325673  -0.000091  -0.000049  -0.000001   0.009982
               7          8          9         10         11         12
     1  O   -0.066657  -0.051840  -0.008587   0.003739   0.002180   0.002028
     2  O    0.335161   0.000045   0.003263  -0.000032   0.000005   0.000002
     3  C   -0.011405   0.411026  -0.034899  -0.026787  -0.043437  -0.039511
     4  C   -0.005942  -0.086598   0.411799   0.388964   0.389601  -0.019629
     5  C    0.000091  -0.036274   0.007318  -0.000082  -0.008394   0.401402
     6  C    0.531004  -0.001794   0.000486   0.001503   0.002131  -0.000199
     7  C    4.899926  -0.002711  -0.011772   0.000072  -0.000301  -0.000332
     8  H   -0.002711   0.652756  -0.002640  -0.004650   0.008935   0.010032
     9  H   -0.011772  -0.002640   0.574915  -0.027241  -0.037301   0.000065
    10  H    0.000072  -0.004650  -0.027241   0.571303  -0.029705   0.000792
    11  H   -0.000301   0.008935  -0.037301  -0.029705   0.600682   0.005362
    12  H   -0.000332   0.010032   0.000065   0.000792   0.005362   0.598696
    13  H    0.000138  -0.007059  -0.000447  -0.000549   0.000415  -0.031578
    14  H    0.000014  -0.002130   0.000061  -0.000037  -0.001707  -0.032356
    15  H   -0.062221   0.008013  -0.000957   0.000311   0.000047   0.000141
    16  H    0.439600   0.000742  -0.011450   0.000509   0.000541   0.000274
    17  H   -0.038799  -0.000003  -0.000064  -0.000007   0.000007  -0.000001
              13         14         15         16         17
     1  O    0.002784   0.003980  -0.043336   0.007234  -0.000377
     2  O   -0.000001  -0.000000   0.004318  -0.049676   0.325673
     3  C   -0.035072  -0.036382   0.003965   0.002182  -0.000091
     4  C    0.011187   0.000539  -0.002985  -0.001886  -0.000049
     5  C    0.395009   0.387762  -0.000011  -0.000245  -0.000001
     6  C    0.000703  -0.000057   0.393735  -0.089133   0.009982
     7  C    0.000138   0.000014  -0.062221   0.439600  -0.038799
     8  H   -0.007059  -0.002130   0.008013   0.000742  -0.000003
     9  H   -0.000447   0.000061  -0.000957  -0.011450  -0.000064
    10  H   -0.000549  -0.000037   0.000311   0.000509  -0.000007
    11  H    0.000415  -0.001707   0.000047   0.000541   0.000007
    12  H   -0.031578  -0.032356   0.000141   0.000274  -0.000001
    13  H    0.569762  -0.028947  -0.000158  -0.000006   0.000000
    14  H   -0.028947   0.600610   0.000075   0.000047   0.000000
    15  H   -0.000158   0.000075   0.560798   0.008393  -0.000701
    16  H   -0.000006   0.000047   0.008393   0.579183  -0.012766
    17  H    0.000000   0.000000  -0.000701  -0.012766   0.451050
 Mulliken charges:
               1
     1  O   -0.278343
     2  O   -0.344649
     3  C    0.081996
     4  C   -0.396572
     5  C   -0.342339
     6  C   -0.048992
     7  C   -0.005865
     8  H    0.104149
     9  H    0.137451
    10  H    0.121896
    11  H    0.110938
    12  H    0.104809
    13  H    0.123818
    14  H    0.108529
    15  H    0.130572
    16  H    0.126458
    17  H    0.266146
 Sum of Mulliken charges =  -0.00000
 Mulliken charges with hydrogens summed into heavy atoms:
               1
     1  O   -0.278343
     2  O   -0.078503
     3  C    0.186145
     4  C   -0.026288
     5  C   -0.005184
     6  C    0.081580
     7  C    0.120593
 APT charges:
               1
     1  O   -0.197279
     2  O   -0.647374
     3  C   -0.184806
     4  C   -0.971581
     5  C   -1.264566
     6  C   -0.410121
     7  C   -0.235262
     8  H    0.342733
     9  H    0.190027
    10  H    0.432026
    11  H    0.351421
    12  H    0.275216
    13  H    0.433946
    14  H    0.500006
    15  H    0.390538
    16  H    0.246317
    17  H    0.748760
 Sum of APT charges =  -0.00000
 APT charges with hydrogens summed into heavy atoms:
               1
     1  O   -0.197279
     2  O    0.101386
     3  C    0.157926
     4  C    0.001893
     5  C   -0.055398
     6  C   -0.019583
     7  C    0.011055
 Electronic spatial extent (au):  <R**2>=           1012.0675
 Charge=             -0.0000 electrons
 Dipole moment (field-independent basis, Debye):
    X=             -0.1237    Y=              1.6057    Z=             -0.8558  Tot=              1.8237
 Quadrupole moment (field-independent basis, Debye-Ang):
   XX=            -40.1910   YY=            -45.6024   ZZ=            -42.0880
   XY=             -1.9802   XZ=              6.1550   YZ=             -2.8233
 Traceless Quadrupole moment (field-independent basis, Debye-Ang):
   XX=              2.4361   YY=             -2.9752   ZZ=              0.5391
   XY=             -1.9802   XZ=              6.1550   YZ=             -2.8233
 Octapole moment (field-independent basis, Debye-Ang**2):
  XXX=            -20.9167  YYY=             -2.2296  ZZZ=             -1.9543  XYY=             -5.5881
  XXY=              8.5561  XXZ=            -18.9924  XZZ=             -8.5694  YZZ=              0.2284
  YYZ=              1.2997  XYZ=              5.5290
 Hexadecapole moment (field-independent basis, Debye-Ang**3):
 XXXX=           -918.6390 YYYY=           -230.9318 ZZZZ=           -100.6563 XXXY=            -44.5955
 XXXZ=             77.6843 YYYX=             -8.9843 YYYZ=             -1.9563 ZZZX=              6.3050
 ZZZY=             -4.5166 XXYY=           -196.8759 XXZZ=           -167.4668 YYZZ=            -52.1968
 XXYZ=            -13.2475 YYXZ=              2.6816 ZZXY=             -1.9042
 N-N= 3.134985937742D+02 E-N=-1.437112358758D+03  KE= 3.447750930560D+02
  Exact polarizability:   0.000   0.000   0.000   0.000   0.000   0.000
 Approx polarizability:  88.962  -6.189  74.651   5.425  -6.467  77.622
 No NMR shielding tensors so no spin-rotation constants.
 Leave Link  601 at Wed Sep 25 23:30:32 2019, MaxMem=   671088640 cpu:              51.5 elap:              25.8
 (Enter /shared/centos7/gaussian/g16/l701.exe)
 SCFChk:  SCF convergence  4.12D-09 required  1.00D-08
 ... and contract with generalized density number  0.
 Compute integral second derivatives.
 Entering OneElI...
 Calculate overlap and kinetic energy integrals
    NBasis = 395  MinDer = 2  MaxDer = 2
 Requested accuracy = 0.1000D-12
 PrmmSu-InSpLW:  IPartL=    0 NPrtUS=   20 NPrtUL=    1 DoSpLW=F IThBeg=    0 IThEnd=   19 NThAct=   20.
 PrsmSu:  NPrtUS=  20 ThrOK=T IAlg=1 NPAlg=1 LenDen=           0 ISkipM=0 DoSpLW=F IThBeg=    0 IThEnd=   19.
 Prism:   IPart=     0 DynPar=F LinDyn=F Incr=           4.
 PRISM was handed    33314517 working-precision words and  8389 shell-pairs
 PRISM was handed    33314517 working-precision words and  8389 shell-pairs
 PRISM was handed    33314517 working-precision words and  8389 shell-pairs
 PRISM was handed    33314517 working-precision words and  8389 shell-pairs
 PRISM was handed    33314517 working-precision words and  8389 shell-pairs
 PRISM was handed    33314517 working-precision words and  8389 shell-pairs
 PRISM was handed    33314517 working-precision words and  8389 shell-pairs
 PRISM was handed    33314517 working-precision words and  8389 shell-pairs
 PRISM was handed    33314517 working-precision words and  8389 shell-pairs
 PRISM was handed    33314517 working-precision words and  8389 shell-pairs
 PRISM was handed    33314517 working-precision words and  8389 shell-pairs
 PRISM was handed    33314517 working-precision words and  8389 shell-pairs
 PRISM was handed    33314517 working-precision words and  8389 shell-pairs
 IPart=  0 NShTot=         466 NBatch=          84 AvBLen=         5.5
 IPart=  8 NShTot=         417 NBatch=          50 AvBLen=         8.3
 IPart= 13 NShTot=         399 NBatch=          39 AvBLen=        10.2
 IPart= 10 NShTot=         416 NBatch=          49 AvBLen=         8.5
 PRISM was handed    33314517 working-precision words and  8389 shell-pairs
 IPart= 11 NShTot=         411 NBatch=          47 AvBLen=         8.7
 IPart=  9 NShTot=         417 NBatch=          50 AvBLen=         8.3
 PRISM was handed    33314517 working-precision words and  8389 shell-pairs
 PRISM was handed    33314517 working-precision words and  8389 shell-pairs
 PRISM was handed    33314517 working-precision words and  8389 shell-pairs
 PRISM was handed    33314517 working-precision words and  8389 shell-pairs
 PRISM was handed    33314517 working-precision words and  8389 shell-pairs
 IPart= 15 NShTot=         398 NBatch=          38 AvBLen=        10.5
 IPart= 17 NShTot=         396 NBatch=          38 AvBLen=        10.4
 PRISM was handed    33314517 working-precision words and  8389 shell-pairs
 IPart=  4 NShTot=         441 NBatch=          66 AvBLen=         6.7
 IPart=  7 NShTot=         418 NBatch=          50 AvBLen=         8.4
 IPart=  5 NShTot=         431 NBatch=          60 AvBLen=         7.2
 IPart=  6 NShTot=         428 NBatch=          59 AvBLen=         7.3
 IPart= 19 NShTot=         394 NBatch=          38 AvBLen=        10.4
 IPart=  1 NShTot=         462 NBatch=          82 AvBLen=         5.6
 IPart=  2 NShTot=         454 NBatch=          75 AvBLen=         6.1
 IPart= 18 NShTot=         396 NBatch=          38 AvBLen=        10.4
 IPart= 12 NShTot=         404 NBatch=          42 AvBLen=         9.6
 IPart=  3 NShTot=         446 NBatch=          70 AvBLen=         6.4
 IPart= 16 NShTot=         397 NBatch=          38 AvBLen=        10.4
 IPart= 14 NShTot=         398 NBatch=          38 AvBLen=        10.5
 PrSmSu:  NxtVal=             81.
 Entering OneElI...
 Calculate potential energy integrals
    NBasis = 395  MinDer = 2  MaxDer = 2
 Requested accuracy = 0.1000D-12
 PrmmSu-InSpLW:  IPartL=    0 NPrtUS=   20 NPrtUL=    1 DoSpLW=F IThBeg=    0 IThEnd=   19 NThAct=   20.
 PrsmSu:  NPrtUS=  20 ThrOK=T IAlg=1 NPAlg=1 LenDen=           0 ISkipM=0 DoSpLW=F IThBeg=    0 IThEnd=   19.
 Prism:   IPart=     0 DynPar=F LinDyn=F Incr=          65.
 PRISM was handed    33356829 working-precision words and  7650 shell-pairs
 PRISM was handed    33356829 working-precision words and  7650 shell-pairs
 PRISM was handed    33356829 working-precision words and  7650 shell-pairs
 PRISM was handed    33356829 working-precision words and  7650 shell-pairs
 PRISM was handed    33356829 working-precision words and  7650 shell-pairs
 PRISM was handed    33356829 working-precision words and  7650 shell-pairs
 PRISM was handed    33356829 working-precision words and  7650 shell-pairs
 PRISM was handed    33356829 working-precision words and  7650 shell-pairs
 PRISM was handed    33356829 working-precision words and  7650 shell-pairs
 PRISM was handed    33356829 working-precision words and  7650 shell-pairs
 PRISM was handed    33356829 working-precision words and  7650 shell-pairs
 PRISM was handed    33356829 working-precision words and  7650 shell-pairs
 PRISM was handed    33356829 working-precision words and  7650 shell-pairs
 PRISM was handed    33356829 working-precision words and  7650 shell-pairs
 PRISM was handed    33356829 working-precision words and  7650 shell-pairs
 PRISM was handed    33356829 working-precision words and  7650 shell-pairs
 PRISM was handed    33356829 working-precision words and  7650 shell-pairs
 PRISM was handed    33356829 working-precision words and  7650 shell-pairs
 PRISM was handed    33356829 working-precision words and  7650 shell-pairs
 PRISM was handed    33356829 working-precision words and  7650 shell-pairs
 IPart=  9 NShTot=        6443 NBatch=         379 AvBLen=        17.0
 IPart= 11 NShTot=        6375 NBatch=         375 AvBLen=        17.0
 IPart=  0 NShTot=        7174 NBatch=         422 AvBLen=        17.0
 IPart=  8 NShTot=        6494 NBatch=         382 AvBLen=        17.0
 IPart= 13 NShTot=        6290 NBatch=         370 AvBLen=        17.0
 IPart=  6 NShTot=        6698 NBatch=         394 AvBLen=        17.0
 IPart= 10 NShTot=        6426 NBatch=         378 AvBLen=        17.0
 IPart=  5 NShTot=        6698 NBatch=         394 AvBLen=        17.0
 IPart= 12 NShTot=        6324 NBatch=         372 AvBLen=        17.0
 IPart= 16 NShTot=        6205 NBatch=         365 AvBLen=        17.0
 IPart=  4 NShTot=        6749 NBatch=         397 AvBLen=        17.0
 IPart= 18 NShTot=        6120 NBatch=         360 AvBLen=        17.0
 IPart= 14 NShTot=        6222 NBatch=         366 AvBLen=        17.0
 IPart= 15 NShTot=        6205 NBatch=         365 AvBLen=        17.0
 IPart= 19 NShTot=        6069 NBatch=         357 AvBLen=        17.0
 IPart= 17 NShTot=        6171 NBatch=         363 AvBLen=        17.0
 IPart=  1 NShTot=        7072 NBatch=         416 AvBLen=        17.0
 IPart=  7 NShTot=        6494 NBatch=         382 AvBLen=        17.0
 IPart=  2 NShTot=        7004 NBatch=         412 AvBLen=        17.0
 IPart=  3 NShTot=        6817 NBatch=         401 AvBLen=        17.0
 PrSmSu:  NxtVal=           1301.
 Polarizability after L701:
                1             2             3 
      1  0.000000D+00
      2  0.000000D+00  0.000000D+00
      3  0.000000D+00  0.000000D+00  0.000000D+00
 Dipole Derivatives after L701:
                 1             2             3             4             5 
      1  -0.226842D+00 -0.472333D-01  0.168226D-03 -0.792620D+00  0.792380D+00
      2  -0.196148D+00 -0.164828D+00  0.334379D-01  0.155623D+00 -0.499660D+00
      3  -0.150971D-01  0.472397D-01 -0.200169D+00 -0.322910D+00  0.158302D+00
                 6             7             8             9            10 
      1  -0.165852D+01 -0.282970D-01  0.528494D-01 -0.797755D+00 -0.677778D+00
      2   0.209077D+00 -0.153936D+00  0.482151D-01 -0.768913D-02  0.105713D+00
      3  -0.649843D+00 -0.250682D+00  0.797707D-01 -0.574337D+00  0.653219D-01
                11            12            13            14            15 
      1  -0.670593D+00  0.138853D+00 -0.192369D+01  0.254117D+00  0.522103D+00
      2  -0.138074D+01  0.359520D-01  0.809805D-01 -0.902302D+00 -0.411814D-02
      3  -0.197789D+00 -0.856222D+00 -0.221928D-01  0.289512D-01 -0.967703D+00
                16            17            18            19            20 
      1  -0.531296D+00  0.308975D+00  0.128531D+00 -0.648726D-01 -0.182190D+00
      2   0.102714D+00 -0.199709D+00  0.363858D+00  0.108823D+00 -0.169980D+00
      3   0.206732D+00  0.339924D+00 -0.499359D+00  0.253632D+00  0.266330D+00
                21            22            23            24            25 
      1   0.127208D+00  0.246261D+00 -0.334429D-01  0.504730D+00  0.272397D+00
      2   0.360628D+00 -0.241215D-02  0.176564D+00 -0.747369D-01 -0.582429D+00
      3  -0.470934D+00  0.110222D+00 -0.538400D-01  0.605373D+00 -0.670349D-01
                26            27            28            29            30 
      1   0.277880D-01  0.894589D-02  0.276888D+00  0.310336D+00  0.402493D+00
      2   0.170032D+00 -0.652508D-01  0.279836D+00  0.578412D+00  0.595495D+00
      3   0.144989D-01  0.127652D+00  0.161517D+00  0.248518D+00  0.440779D+00
                31            32            33            34            35 
      1   0.269000D+00  0.200700D+00 -0.426339D+00  0.563569D-01  0.267938D+00
      2   0.199813D+00  0.379761D+00 -0.542678D+00 -0.221391D-01  0.974801D-01
      3  -0.134539D+00 -0.136706D+00  0.405502D+00  0.468396D-01 -0.174086D+00
                36            37            38            39            40 
      1  -0.870687D+00  0.507320D+00 -0.105541D+01  0.145457D-01  0.116921D+01
      2  -0.134280D-01 -0.199519D+00  0.674421D+00 -0.203643D-01  0.131120D+00
      3   0.671811D+00 -0.438437D-01  0.931967D-01  0.120096D+00  0.687316D-01
                41            42            43            44            45 
      1   0.632829D+00  0.453241D+00  0.230392D+00  0.220010D+00 -0.415815D+00
      2   0.188985D+00  0.696211D-01  0.103398D+00  0.380842D+00 -0.504067D+00
      3   0.521511D-01  0.141826D+00 -0.130427D+00 -0.313029D+00  0.560382D+00
                46            47            48            49            50 
      1  -0.210385D-01 -0.309943D+00  0.499950D+00  0.123861D+01 -0.769108D+00
      2   0.374486D-01  0.220510D+00 -0.211745D+00 -0.148886D+00  0.401999D+00
      3  -0.113569D+00 -0.291760D+00  0.539480D+00  0.187299D+00 -0.161672D+00
                51 
      1   0.136835D+01
      2  -0.223992D+00
      3   0.605667D+00
 Hessian after L701:
                1             2             3             4             5 
      1  0.398867D+01
      2 -0.221829D+01  0.141460D+02
      3  0.845577D+00 -0.181670D+01  0.172234D+02
      4  0.418358D+00 -0.203385D+00 -0.551684D-01  0.347063D+01
      5 -0.190576D+00 -0.150595D+00  0.186170D-01  0.269691D+01  0.134659D+02
      6 -0.843588D-01  0.317264D-01 -0.215199D+00 -0.144305D+00  0.125935D+01
      7 -0.387193D+01  0.406618D+01  0.174628D+01  0.166515D+00 -0.139696D-01
      8  0.388491D+01 -0.573465D+01  0.180115D+01  0.240076D-02 -0.858118D-01
      9  0.169686D+01  0.173835D+01 -0.818316D+01 -0.627022D-02 -0.263967D-02
     10 -0.290839D+00 -0.350777D-01 -0.116732D+00  0.182784D+00  0.120090D+00
     11 -0.116236D+00  0.852247D+00 -0.202294D+00  0.531477D-01 -0.874830D-01
     12 -0.963748D-01 -0.117148D+00 -0.243340D+00  0.872756D-02  0.615271D-02
     13  0.360243D+00  0.166874D-01 -0.143706D+00  0.632933D-01 -0.536046D-02
     14  0.798022D-01 -0.172409D+00 -0.928255D-01 -0.736922D-02 -0.415568D-01
     15 -0.110294D+00 -0.697355D-01 -0.191939D+00 -0.130551D-02  0.285642D-02
     16 -0.584704D+00 -0.125494D+01 -0.281842D+01 -0.316867D+00 -0.969957D-01
     17 -0.947028D+00 -0.946631D+01  0.723695D+00 -0.111057D+00  0.249464D+00
     18 -0.277820D+01  0.747712D+00 -0.880540D+01  0.310267D+00 -0.333908D-03
     19  0.107072D-01 -0.225142D+00  0.448601D+00  0.167918D+00 -0.134011D+01
     20 -0.309329D+00  0.242176D+00 -0.817779D-01 -0.135218D+01 -0.839791D+01
     21  0.413041D+00 -0.551066D-01  0.102024D+00 -0.224955D+01  0.399192D+00
     22 -0.411157D-01 -0.260524D+00 -0.119298D+00  0.234891D-01 -0.889332D-03
     23 -0.229584D+00 -0.151530D-01 -0.215684D+00 -0.475136D-02 -0.893797D-02
     24 -0.134083D+00 -0.242799D+00  0.364909D+00  0.258031D-01  0.624352D-03
     25  0.400784D-02 -0.681551D-01  0.297227D-02  0.370911D-01  0.236333D-01
     26  0.113478D-01 -0.380057D-02 -0.490905D-01  0.546565D-01 -0.243751D-01
     27  0.129540D-01 -0.485401D-01 -0.232481D-01 -0.130826D-02  0.414217D-03
     28 -0.280370D-01  0.602046D-01  0.304152D-01  0.182112D-01  0.139874D-01
     29  0.535515D-01  0.989864D-01  0.772523D-01  0.183018D-01  0.879179D-03
     30  0.307198D-01  0.872734D-01 -0.163177D-02  0.151399D-01  0.937899D-02
     31 -0.271363D-01  0.624424D-01 -0.148874D-01  0.196725D-01  0.137626D-01
     32  0.498547D-01  0.102661D+00 -0.317605D-01  0.167761D-01 -0.227738D-02
     33 -0.203602D-01 -0.591464D-01 -0.312018D-01 -0.169361D-01 -0.875106D-02
     34  0.556592D-01  0.328322D-01 -0.312366D-01  0.974628D-02 -0.861181D-04
     35  0.513971D-01 -0.417969D-01 -0.182926D-01  0.367832D-02 -0.531923D-02
     36 -0.855047D-01 -0.282643D-01 -0.224920D-01 -0.158574D-01 -0.160198D-02
     37  0.115888D+00  0.243276D-01 -0.365503D-01  0.126651D-01 -0.335333D-02
     38 -0.456054D-01 -0.625705D-01  0.881976D-02 -0.130056D-01 -0.249403D-02
     39 -0.266811D-01 -0.517870D-03 -0.618011D-01 -0.775293D-03  0.133891D-03
     40  0.129371D+00  0.907067D-01  0.381258D-01  0.145790D-01  0.300773D-02
     41  0.783064D-01 -0.665419D-02  0.148503D-01  0.427148D-02 -0.285700D-02
     42  0.339200D-01  0.146341D-01 -0.401392D-01  0.291713D-02  0.711570D-03
     43 -0.281997D+00  0.181003D-01  0.193758D+00  0.676695D-01 -0.825697D-01
     44 -0.428719D-02  0.200362D+00 -0.837250D-01 -0.116122D+00 -0.481049D-02
     45  0.187460D+00 -0.923486D-01  0.190790D+00  0.948058D-01 -0.614652D-01
     46  0.153506D-01 -0.927714D-01  0.250911D-01 -0.139159D+00  0.464530D-01
     47 -0.123425D+00  0.109390D-01 -0.501455D-01  0.316375D-01  0.239423D+00
     48  0.848880D-01 -0.783887D-01 -0.576173D-01  0.219809D+00 -0.786475D-01
     49  0.275019D-01 -0.131879D-01  0.517248D-02 -0.421660D+01 -0.118393D+01
     50 -0.248052D-01  0.524118D-03 -0.208820D-02 -0.107391D+01 -0.514123D+01
     51  0.304301D-01 -0.110001D-01 -0.393936D-02  0.181401D+01 -0.154399D+01
                6             7             8             9            10 
      6  0.112355D+02
      7 -0.455461D-02  0.159836D+02
      8 -0.145794D-02 -0.269020D+01  0.181809D+02
      9 -0.871693D-01 -0.918008D+00 -0.149958D+01  0.212859D+02
     10 -0.117487D-01 -0.588169D+01 -0.103109D+01  0.525000D-01  0.142646D+02
     11  0.599090D-02 -0.112671D+01 -0.150456D+01 -0.232020D+00  0.346220D+00
     12 -0.112394D+00  0.279926D-01 -0.233123D+00 -0.596881D+01  0.155226D-01
     13 -0.147368D-01 -0.268599D+01 -0.586620D+00 -0.185805D+01  0.101728D+00
     14  0.155282D-02 -0.596902D+00 -0.634647D+01  0.284746D+00 -0.197891D+00
     15 -0.469659D-01 -0.179521D+01  0.285501D+00 -0.554862D+01 -0.343620D-01
     16  0.303347D+00  0.253487D+00  0.349647D+00  0.828435D-01 -0.456257D-01
     17  0.102618D-01  0.257367D+00  0.829747D-01  0.456725D-01  0.287506D+00
     18 -0.112393D-01  0.970186D-01  0.469655D-01 -0.591219D-01 -0.857365D-02
     19 -0.229782D+01  0.175319D+00  0.522557D-01  0.120282D+00  0.337114D+00
     20  0.382364D+00  0.130431D-02 -0.120098D+00  0.157646D-01  0.190247D+00
     21 -0.779535D+01  0.151197D+00  0.189701D-01 -0.758059D-01  0.886834D-01
     22  0.773896D-02 -0.443091D+01 -0.603753D-01  0.747766D+00  0.255758D+00
     23 -0.814347D-03 -0.445524D-01 -0.450639D+01 -0.331625D+00  0.104470D+00
     24 -0.683177D-02  0.690773D+00 -0.365497D+00 -0.169784D+01 -0.847292D-01
     25  0.885988D-02  0.391452D-01  0.259926D-01 -0.163679D-01 -0.164007D+01
     26  0.221821D-02  0.123163D+00  0.404888D-01  0.358427D-02 -0.596772D+00
     27 -0.416425D-01 -0.270353D-02 -0.151770D-01  0.670801D-01  0.666757D-01
     28  0.330617D-02  0.521666D-01 -0.309990D-01  0.126435D-01 -0.366737D+01
     29  0.151157D-02 -0.508710D-01 -0.761830D-01 -0.103777D-01  0.533674D+00
     30 -0.875484D-02 -0.157568D-02  0.530433D-02  0.743589D-01  0.599352D+00
     31 -0.106916D-01  0.114811D+00  0.165938D-01 -0.301720D-01 -0.375022D+01
     32 -0.638708D-02  0.226444D-01 -0.108549D+00  0.118698D+00  0.397260D+00
     33 -0.141793D-02 -0.329422D-01  0.728198D-01  0.921454D-01 -0.670985D+00
     34 -0.546029D-02  0.766647D-01 -0.260459D-02  0.834733D-01 -0.117659D-01
     35 -0.228137D-02  0.132348D-01  0.730234D-01 -0.400828D-01  0.281463D-01
     36  0.322577D-02  0.344162D-02 -0.188605D-01  0.438002D-02  0.297192D-01
     37 -0.376327D-02  0.175795D-01  0.707926D-01  0.500281D-01  0.246082D-01
     38  0.455191D-02  0.133863D-01  0.560177D-01 -0.546906D-01 -0.117873D+00
     39 -0.456363D-02  0.336044D-01 -0.599464D-01  0.258324D-01 -0.162042D-01
     40 -0.346906D-02 -0.942026D-01 -0.808434D-01 -0.160396D-02  0.914500D-01
     41 -0.130481D-02 -0.367691D-01  0.583013D-01  0.261576D-01 -0.275002D-01
     42 -0.490554D-02  0.103832D-01  0.285800D-01  0.791808D-01  0.119177D-01
     43  0.436620D-01  0.518977D-01  0.838152D-01 -0.511391D-01 -0.151743D-01
     44 -0.414592D-01  0.932954D-01  0.210247D-01 -0.500843D-01  0.352001D-02
     45 -0.412125D-01 -0.797564D-01 -0.600647D-01 -0.825908D-02 -0.117135D-01
     46  0.180065D+00  0.187269D-01 -0.335227D-02  0.352713D-01  0.168750D-01
     47 -0.698287D-01 -0.228961D-01 -0.255329D-01 -0.126068D-01  0.252484D-02
     48  0.112537D+00  0.596352D-01 -0.548565D-02  0.595386D-02  0.657045D-01
     49  0.203393D+01  0.148519D-01 -0.318240D-03 -0.615257D-04  0.278022D-01
     50 -0.157599D+01 -0.770484D-02 -0.450604D-02  0.737384D-03 -0.745163D-02
     51 -0.297367D+01  0.144216D-01 -0.965831D-04 -0.600429D-02  0.249729D-01
               11            12            13            14            15 
     11  0.120954D+02
     12 -0.897471D-01  0.160587D+02
     13 -0.108511D+00 -0.572244D-01  0.114348D+02
     14  0.237397D-01  0.510809D-01  0.651429D+00  0.150671D+02
     15 -0.108355D-01 -0.961956D-01  0.106421D+01 -0.318844D-01  0.148292D+02
     16  0.186710D+00  0.136828D-01  0.249533D+00  0.569757D-01 -0.715509D-01
     17  0.644198D-01  0.258058D-01  0.393363D-01 -0.130036D+00 -0.983458D-03
     18  0.277421D-01 -0.203951D+00 -0.915566D-01 -0.739971D-02 -0.121274D+00
     19  0.143943D+00  0.107537D+00  0.119932D+00 -0.606820D-02  0.144997D-01
     20 -0.132822D+00  0.671589D-01 -0.232583D-01 -0.704062D-01  0.328522D-02
     21  0.472671D-01 -0.177349D+00 -0.572687D-02  0.666700D-02 -0.754084D-01
     22  0.143468D+00 -0.904733D-01 -0.304676D-02 -0.221742D-01  0.144261D+00
     23 -0.118040D+00  0.262223D+00 -0.253662D-01  0.898548D-01  0.207776D-01
     24  0.335910D+00  0.108732D+00  0.147969D+00  0.299580D-01 -0.726772D-01
     25 -0.243246D+00  0.974296D-01  0.119422D+00 -0.928211D-01 -0.234754D-01
     26 -0.454459D+01 -0.160532D-01 -0.975702D-01  0.821232D-03  0.167641D-01
     27  0.137590D-02 -0.448159D+01 -0.213978D-01  0.114636D-01 -0.450760D-01
     28  0.502423D+00  0.611197D+00 -0.242908D-01 -0.189087D-01 -0.109364D-01
     29 -0.313527D+01  0.109785D+01 -0.219414D-01  0.433619D-01  0.420828D-01
     30  0.101175D+01 -0.266292D+01 -0.150445D-01  0.536079D-01  0.590070D-03
     31  0.349551D+00 -0.684517D+00 -0.113452D-01 -0.290939D-02 -0.104611D-01
     32 -0.357069D+01 -0.103202D+01 -0.878718D-02  0.379515D-02  0.275067D-02
     33 -0.869263D+00 -0.212661D+01  0.122568D-02 -0.197665D-01 -0.796272D-02
     34  0.462046D-01  0.527930D-01 -0.396550D+01  0.132422D-01  0.167758D-01
     35 -0.396779D-02 -0.414478D-01 -0.513556D-01 -0.371988D+01 -0.638955D+00
     36 -0.487723D-01 -0.306396D-02  0.269429D+00 -0.692735D+00 -0.139218D+01
     37 -0.130345D+00 -0.226597D-01 -0.364332D+01 -0.885892D+00  0.414080D-01
     38  0.119136D+00  0.333801D-01 -0.698657D+00 -0.164421D+01 -0.301914D-01
     39  0.302902D-01 -0.506862D-01  0.306227D-01  0.374409D-04 -0.386858D+01
     40 -0.425732D-01 -0.527276D-02 -0.214486D+01  0.102906D+01  0.777496D+00
     41 -0.230536D-01  0.133769D-02  0.925085D+00 -0.308654D+01  0.421426D+00
     42 -0.234765D-03 -0.404099D-01  0.693812D+00  0.417478D+00 -0.335741D+01
     43 -0.101020D-01 -0.116845D-02  0.144583D-01  0.555844D-02 -0.990531D-02
     44 -0.518409D-02 -0.838882D-02  0.108239D-01 -0.676848D-02 -0.450107D-02
     45 -0.689904D-02 -0.136864D-02 -0.204623D-01 -0.799429D-02 -0.446274D-02
     46  0.790061D-02  0.149644D-01  0.700202D-02 -0.401535D-02  0.537302D-02
     47 -0.243819D-01 -0.499899D-02 -0.119040D-01 -0.775293D-02 -0.635085D-02
     48  0.365439D-02  0.196501D-02  0.148286D-01 -0.363818D-02 -0.176519D-02
     49 -0.184858D-02  0.784436D-02  0.795271D-02 -0.111342D-02  0.347863D-02
     50 -0.486145D-02 -0.205844D-02 -0.403033D-02 -0.265491D-02 -0.200752D-02
     51 -0.391889D-02 -0.666233D-03  0.580950D-02 -0.347277D-03  0.688602D-03
               16            17            18            19            20 
     16  0.101130D+02
     17  0.480172D+01  0.228398D+02
     18  0.765256D+00  0.441043D+01  0.210221D+02
     19 -0.603282D+01 -0.483227D+01  0.251745D+01  0.946258D+01
     20 -0.456990D+01 -0.988388D+01 -0.437228D+01  0.545079D+01  0.226424D+02
     21  0.239702D+01 -0.445316D+01 -0.936780D+01  0.202428D+00  0.483464D+01
     22  0.444414D-01 -0.164122D-01  0.347472D-01 -0.146092D-01 -0.713368D-02
     23 -0.191367D-01 -0.380803D-01 -0.987312D-02 -0.654202D-02 -0.303365D-02
     24  0.665858D-01 -0.486044D-02  0.856778D-02  0.103279D-01 -0.845582D-02
     25 -0.822054D-01 -0.327673D-01  0.159880D-01 -0.287019D-01 -0.231227D-02
     26  0.331403D-01  0.130019D+00  0.368957D-01  0.359248D-01 -0.181134D-01
     27  0.152710D-01  0.221296D-01 -0.693180D-01 -0.703544D-02 -0.476167D-02
     28  0.140758D-01  0.445717D-01  0.885003D-02  0.164938D-01  0.141144D-01
     29  0.477352D-01  0.306584D-01  0.947669D-02  0.259697D-01 -0.250722D-02
     30  0.146600D-01  0.206646D-01 -0.157115D-01  0.237005D-01  0.111862D-01
     31  0.152203D-01  0.426895D-01 -0.261494D-01  0.251364D-01  0.165393D-01
     32  0.476755D-01  0.210585D-01 -0.262994D-01  0.292988D-01 -0.488284D-02
     33 -0.299774D-01 -0.321896D-01 -0.551843D-02 -0.242147D-01 -0.809221D-02
     34  0.152373D-01  0.443531D-02 -0.119808D-01  0.110698D-01 -0.209121D-02
     35  0.113898D-01 -0.101703D-01 -0.531794D-02  0.669730D-02 -0.971076D-02
     36 -0.274598D-01 -0.579510D-02  0.161947D-02 -0.226655D-01  0.376411D-02
     37  0.380946D-01 -0.115458D-01 -0.104006D-01  0.240841D-01 -0.117602D-01
     38 -0.266630D-01 -0.899392D-02  0.411871D-02 -0.221387D-01  0.219603D-02
     39 -0.877693D-02  0.205499D-02 -0.134228D-01 -0.195316D-03  0.331642D-03
     40  0.223713D-01  0.740579D-02 -0.466171D-03  0.231018D-01 -0.126898D-02
     41  0.106905D-01 -0.493350D-02  0.726152D-03  0.682657D-02 -0.601257D-02
     42  0.328254D-02  0.189060D-02 -0.700980D-02  0.533156D-02  0.416654D-03
     43 -0.422112D+01  0.415261D+00 -0.753286D+00  0.233192D+00  0.110722D+00
     44  0.418603D+00 -0.381474D+01 -0.124421D+01  0.131601D+00 -0.649210D-01
     45 -0.711898D+00 -0.116195D+01 -0.220847D+01 -0.151945D+00  0.340015D+00
     46  0.346473D+00  0.160900D+00 -0.179060D+00 -0.448637D+01  0.373542D+00
     47  0.111226D+00 -0.552262D-01  0.432619D+00  0.496144D+00 -0.418155D+01
     48 -0.123152D+00  0.457547D+00 -0.142591D+00 -0.929162D+00 -0.121730D+01
     49  0.171444D+00 -0.110112D+00  0.110092D+00 -0.441582D-01  0.121965D+00
     50 -0.107880D+00 -0.598665D-02 -0.509649D-01  0.528185D-01  0.904895D-02
     51  0.129283D+00 -0.612103D-01 -0.146871D-02 -0.171149D-01  0.337468D-01
               21            22            23            24            25 
     21  0.201659D+02
     22 -0.670856D-02  0.413431D+01
     23 -0.284841D-02  0.160192D+00  0.464700D+01
     24 -0.472453D-02 -0.725422D+00  0.372499D+00  0.112685D+01
     25 -0.177012D-01  0.232858D-02  0.634632D-02  0.383181D-02  0.180116D+01
     26 -0.895110D-02  0.880338D-02 -0.411060D-02  0.562515D-02  0.597319D+00
     27 -0.456929D-01 -0.531191D-02  0.570382D-02  0.206678D-02 -0.101126D+00
     28  0.143203D-01  0.100970D-01  0.374303D-02 -0.262582D-02 -0.103641D+00
     29  0.125987D-01  0.128115D-02 -0.403759D-01  0.120892D-02 -0.894521D-01
     30 -0.330395D-02 -0.102245D-02  0.107182D-01  0.605448D-02 -0.116266D+00
     31 -0.140068D-01 -0.336715D-01  0.147417D-03  0.949662D-03 -0.150944D+00
     32 -0.863119D-02 -0.974764D-02  0.373051D-01 -0.951796D-01 -0.875471D-01
     33 -0.899606D-02  0.121235D-01 -0.770592D-01  0.708837D-01  0.201219D+00
     34 -0.549401D-02 -0.226104D-01  0.519373D-02 -0.588277D-01  0.671205D-02
     35 -0.121430D-02  0.401675D-02 -0.326189D-01 -0.155741D-01 -0.210488D-02
     36 -0.204464D-02 -0.383129D-01 -0.127539D-01  0.129350D+00 -0.144038D-01
     37 -0.710525D-03 -0.410085D-02  0.163889D-01  0.252567D-01  0.664405D-03
     38  0.926747D-03  0.172266D-01  0.521423D-02 -0.145638D-01 -0.476085D-02
     39 -0.767718D-02  0.225774D-01 -0.193799D-01 -0.142194D-01  0.520334D-03
     40  0.166452D-02 -0.916404D-02 -0.160849D-02 -0.325326D-02  0.148712D-01
     41  0.842631D-03 -0.218747D-02  0.179239D-02 -0.302665D-02  0.713634D-03
     42 -0.571122D-02  0.767398D-02  0.305380D-02 -0.258871D-02  0.240215D-02
     43 -0.137560D+00  0.793963D-01  0.382112D-01  0.219299D-01 -0.463496D-02
     44  0.363948D+00  0.509392D-01 -0.115077D-01  0.139244D-01 -0.982915D-02
     45 -0.165493D+00 -0.706129D-02 -0.659694D-03 -0.365672D-01  0.912235D-02
     46 -0.687178D+00  0.659748D-02 -0.241376D-02  0.107502D-01 -0.122770D-01
     47 -0.120836D+01 -0.483672D-02 -0.272642D-02 -0.702889D-02 -0.229550D-01
     48 -0.257608D+01  0.135100D-01 -0.355991D-02  0.134551D-01 -0.503241D-01
     49 -0.143717D+00  0.281227D-02 -0.737979D-03  0.476421D-02 -0.292736D-02
     50  0.532167D-01 -0.164575D-02 -0.192298D-03 -0.276411D-02  0.194549D-02
     51  0.435417D-01  0.321313D-02 -0.716821D-03  0.458360D-02 -0.268158D-02
               26            27            28            29            30 
     26  0.420466D+01
     27  0.426318D-01  0.458363D+01
     28 -0.815378D-01 -0.139517D+00  0.358684D+01
     29  0.776506D-01 -0.414411D-01 -0.525862D+00  0.287427D+01
     30 -0.300468D-01  0.392223D-01 -0.537135D+00 -0.116237D+01  0.279683D+01
     31 -0.530687D-01  0.223682D+00  0.117638D+00  0.113457D-01 -0.491013D-02
     32  0.139925D+00  0.512693D-01  0.123200D-01  0.119919D+00 -0.353695D-01
     33  0.234170D-01  0.251573D-01  0.346214D-02 -0.522694D-01 -0.243108D+00
     34 -0.434178D-02 -0.345632D-02 -0.267851D-02 -0.601763D-02 -0.638354D-02
     35 -0.132194D-02  0.167177D-02 -0.387278D-02  0.270419D-02  0.901942D-02
     36  0.468501D-02  0.603724D-03 -0.465419D-02  0.182602D-01  0.162385D-01
     37  0.456149D-02  0.117246D-02 -0.208989D-02  0.185783D-04 -0.136560D-02
     38 -0.178325D-02 -0.145297D-02  0.279780D-02  0.209998D-02  0.423844D-02
     39 -0.175909D-02  0.237470D-03  0.554468D-03 -0.515362D-03  0.116025D-03
[...]
   xx         0.776766D+02      0.115105D+02      0.128071D+02
   yx         0.160584D+02      0.237962D+01      0.264768D+01
   yy         0.737122D+02      0.109230D+02      0.121535D+02
   zx        -0.141126D+01     -0.209127D+00     -0.232685D+00
   zy        -0.251235D+01     -0.372292D+00     -0.414231D+00
   zz         0.578267D+02      0.856904D+01      0.953434D+01

 ----------------------------------------------------------------------

 Test job not archived.
 1\1\GINC-C0228\Freq\RM062X\CC-pVTZ\C5H10O2\HARMS.N\26-Sep-2019\0\\#P G
 eom=AllCheck Guess=TCheck SCRF=Check Test GenChk RM062X/CC-pVTZ Freq\\
 Gaussian input prepared by ASE\\0,1\O,0.4387332452,-0.5761077215,2.604
 339867\O,3.0954779389,-0.049724057,0.2397559987\C,-0.9715786431,-0.403
 6619261,2.4641393395\C,-1.3026305171,1.0317810154,2.0953550561\C,-1.58
 61908363,-0.8198567901,3.7828401827\C,1.1341415319,-0.5171144182,1.433
 1554147\C,2.3282107851,0.0492799555,1.371693354\H,-1.3175682237,-1.074
 4481641,1.6677073864\H,-0.8153859977,1.3166765647,1.1633457467\H,-2.37
 87182559,1.1563225621,1.975845201\H,-0.958012582,1.70235442,2.88363172
 28\H,-1.2206454279,-0.1715487703,4.5795196669\H,-1.316749008,-1.846952
 7978,4.0217833747\H,-2.6716726932,-0.7392720099,3.7390085028\H,0.69559
 42181,-1.011640958,0.5704869631\H,2.7571442461,0.5431410815,2.23544039
 99\H,3.7024396811,0.6912304418,0.204031871\\Version=EM64L-G16RevA.03\S
 tate=1-A\HF=-346.9407858\RMSD=1.147e-09\RMSF=4.126e-07\ZeroPoint=0.146
 4961\Thermal=0.1553721\Dipole=-0.1936733,0.5909015,-0.013776\DipoleDer
 iv=-1.4192521,-0.055221,0.3865806,-0.0772348,-0.402453,0.0360939,0.795
 7424,0.1306097,-0.8381498,-1.082174,-0.0891708,0.3788137,0.1191235,-0.
 2316759,-0.0161879,0.7839254,0.1648546,-0.8710907,1.0811317,-0.0358896
 ,-0.2230181,-0.0452598,0.4685107,-0.0449818,-0.0045174,-0.0363251,0.35
 60794,-0.0375005,0.0064251,0.0649793,0.0882145,-0.1206873,0.0630837,-0
 .0272667,0.0794816,0.0202114,0.0121381,0.0036959,0.0559281,-0.008499,0
 .0329419,0.0559248,0.0753015,0.0447047,-0.0328701,0.4254579,0.1936026,
 -0.2131833,0.1321015,-0.0077982,0.0761163,-0.894037,-0.0044086,0.63719
 05,0.6168397,0.1516573,-0.3341621,0.0118242,-0.1219181,0.1327683,-0.74
 68736,-0.0714923,0.6355504,-0.049397,-0.0006995,0.0255186,-0.0339541,-
 0.0900714,-0.0841936,-0.0689703,-0.0861558,-0.1059787,0.0549106,-0.036
 1368,0.0712747,-0.0258665,0.0149594,0.0389061,0.0708906,0.0496603,-0.0
 675126,-0.1368819,0.0367858,-0.014929,0.0173247,0.0543441,-0.0141909,-
 0.0128204,-0.0034024,0.0785022,0.0473565,-0.0456125,-0.0561562,-0.0115
 298,-0.0131206,-0.037489,-0.0308653,-0.0929742,-0.0413346,0.0470381,-0
 .0496767,-0.0604799,-0.0404902,-0.0124446,-0.0925604,-0.0049434,-0.040
 8538,-0.034163,0.069526,0.0531647,-0.0135181,0.0235179,-0.0978378,0.06
 28691,0.0117198,0.0349379,0.0271159,-0.1309373,0.0061065,0.0185321,0.0
 273344,0.0687442,0.0062043,-0.0192458,0.0095075,0.0398016,0.0622699,-0
 .0702569,-0.0523336,-0.1096756,0.0902229,-0.0563838,0.0543682,-0.05445
 47,-0.0461704,0.0288961,-0.0651157,0.0071381,-0.0163397,0.1308373,-0.0
 809241,0.0054618,-0.0741364,-0.0496928,0.4105781,-0.0036584,-0.0409851
 ,-0.0505913,0.2374464,-0.0450548,0.0121303,-0.0495531,0.2925112\Polar=
 85.4068552,6.6265604,59.3069488,-11.7895007,-1.658699,64.5017474\Quadr
 upole=3.7691535,-0.9901177,-2.7790358,4.5544285,-0.3599959,-0.7926916\
 PG=C01 [X(C5H10O2)]\NImag=0\\0.47291624,-0.00848660,0.09001526,-0.1065
 4833,-0.01766771,0.40066890,-0.01359079,-0.00882771,0.01192247,0.39389
 117,-0.00542103,0.00707984,-0.00604610,0.28041026,0.38628491,0.0098110
 7,0.00207912,-0.00929908,-0.17760115,0.03631875,0.30774030,-0.19854316
 ,0.01218288,-0.01729963,0.00708955,-0.00106717,-0.00648764,0.46984618,
 0.01635291,-0.06317845,0.00180505,0.00002889,-0.00014847,-0.00129087,0
 .02943294,0.53598648,-0.04541533,0.00386928,-0.09468185,0.00127564,0.0
 0160745,-0.00057378,0.00517934,0.04202571,0.59315571,-0.03311450,0.042
 04895,-0.00827814,-0.00105978,-0.00008511,0.00121976,-0.07516952,0.009
 69540,-0.00051816,0.58471088,0.00963217,-0.00232135,0.00268907,0.00025
 436,-0.00024444,-0.00019408,0.01792228,-0.19540708,0.02553276,0.021995
 43,0.49030119,-0.00405472,0.00523535,0.00197301,-0.00053327,0.00016951
 ,0.00030699,-0.00251973,0.02216547,-0.08954542,-0.00675080,0.01818473,
 0.57913502,-0.03690923,-0.00797497,0.04216335,-0.00107342,-0.00048853,
 0.00059779,-0.08819660,-0.01219851,0.03277871,0.00621402,-0.00059755,-
 0.00520918,0.57941019,0.00153898,0.00285473,-0.00323804,0.00025698,0.0
 0007897,-0.00027788,-0.01540465,-0.09132907,0.03041637,-0.01409164,-0.
 01323038,0.03313681,-0.01370275,0.58445282,0.00302073,-0.00024835,0.00
 272829,-0.00041807,-0.00010097,0.00027192,0.04783106,0.03132705,-0.189
 32689,0.00232489,0.00705669,-0.01026529,0.03128897,0.01674583,0.511131
 43,-0.14619982,-0.01524432,0.07407190,-0.02241159,-0.01063768,0.013574
 12,-0.04095289,-0.00273968,0.04159185,0.00100845,0.00120114,-0.0006837
 5,-0.00587500,0.00143577,-0.00088357,0.79631269,-0.01774169,-0.0455403
 8,0.00481401,0.00634586,0.00701094,0.00125534,-0.00099109,-0.00519314,
 -0.00238612,0.00343747,0.00040507,-0.00106935,-0.00162087,0.00008526,-
 0.00000453,0.29535769,0.30188279,0.10826488,0.00194220,-0.26704243,0.0
 3679460,0.02199191,0.00455089,0.02404472,-0.00170203,-0.00242621,-0.00
 610394,-0.00058675,0.00072907,-0.00262805,-0.00034092,-0.00086822,-0.0
 4709461,0.11400452,0.59235943,-0.01900802,-0.00663048,0.01091542,-0.15
 454659,-0.02984714,0.10602830,-0.00057103,-0.00111820,0.00045711,0.000
 65147,-0.00047152,0.00050259,0.00013659,0.00018715,0.00000584,-0.47489
 348,-0.20908815,0.00286307,0.78257061,-0.00580004,0.00191557,0.0120803
 7,-0.00885683,-0.06867069,-0.05101005,0.00480581,0.00050075,-0.0018347
 8,-0.00041716,0.00005420,0.00055304,0.00061070,0.00024906,0.00007482,-
 0.20035555,-0.15916538,-0.02363479,0.30693327,0.32529746,0.04101435,0.
 01610012,0.00028216,0.12982673,-0.01941845,-0.24589233,0.00043320,0.00
 309537,-0.00424156,-0.00033252,0.00020380,-0.00004795,0.00162884,0.000
 15024,0.00053742,0.00017333,-0.01687921,-0.11400606,-0.06170933,0.1407
 4572,0.58771890,-0.03687874,-0.01842177,-0.02467691,-0.00059481,0.0001
 6523,0.00047508,-0.06631770,-0.04217308,-0.04596182,0.00445773,0.00396
 968,0.00518032,0.00569276,0.00887231,0.01071971,0.00320820,-0.00111774
 ,-0.00828517,-0.00023215,-0.00013194,0.00075110,0.08928105,0.00026716,
 0.00639758,0.00361819,-0.00007809,-0.00002897,0.00012610,-0.04449642,-
 0.14704897,-0.11109128,-0.00836714,-0.02239031,-0.02341116,0.00299590,
 0.00627361,0.00812596,0.00041910,0.00046633,-0.00000666,0.00008244,0.0
 0011120,0.00039692,0.04816803,0.15837159,-0.00817479,-0.00144065,-0.00
 243443,-0.00023078,-0.00014865,0.00026242,-0.05063573,-0.11026741,-0.1
 8012254,0.00257979,0.00622690,0.00638304,-0.00726837,-0.01733513,-0.02
 228198,0.00270629,0.00162070,0.00125938,0.00004995,0.00020761,0.000373
 71,0.05915286,0.11841852,0.19707093,0.00064563,-0.00106977,0.00036360,
 0.00014176,0.00007711,-0.00018975,0.00239394,0.00169930,-0.00764511,-0
 .10117977,-0.03156579,0.10478169,-0.00025895,0.00132985,-0.00042028,-0
 .00045048,0.00103251,-0.00025147,-0.00060991,-0.00008377,0.00020559,-0
 .00001849,-0.00055110,0.00026591,0.10655928,-0.00113669,0.00220203,-0.
 00163081,-0.00029091,-0.00002342,0.00033590,-0.01664123,-0.00751443,0.
 02965617,-0.03007696,-0.06469865,0.05698573,0.00266761,-0.00615841,0.0
 0012064,0.00059703,-0.00014912,0.00029879,0.00063243,-0.00002570,-0.00
 069104,-0.00028556,0.00132920,-0.00063288,0.03319291,0.07052787,-0.000
 38713,-0.00022602,0.00029771,0.00028436,-0.00008692,-0.00031255,0.0029
 8444,0.00109191,-0.00686374,0.10352037,0.05821963,-0.24657768,-0.00071
 808,0.00212889,0.00084375,0.00101621,-0.00012898,0.00008570,-0.0005214
 6,-0.00060678,0.00039093,-0.00044284,0.00032354,0.00059136,-0.11464938
 ,-0.06519889,0.26548194,-0.00018457,0.00239547,0.00054300,-0.00035341,
 0.00003887,0.00034822,-0.00697047,-0.00229338,0.00003296,-0.31100972,0
 .02982023,-0.02959609,-0.00021807,-0.00058060,0.00029249,0.00067558,0.
 00001146,-0.00121770,0.00029794,-0.00001599,-0.00024574,0.00031915,0.0
 0054961,0.00014946,-0.01274450,0.00146193,-0.00225483,0.33746687,0.006
 00612,-0.00744121,0.00128920,0.00033262,0.00005598,-0.00032640,0.02960
 608,0.00184699,0.00214258,0.02768987,-0.05087231,0.00300694,-0.0000488
 3,0.00110511,-0.00032363,-0.00156184,-0.00020698,0.00222281,0.00007280
 ,0.00039064,-0.00004574,-0.00076815,0.00078999,-0.00101230,-0.00827207
 ,-0.00003173,-0.00204068,-0.03266729,0.05233387,-0.00120279,0.00248876
 ,0.00085911,0.00002653,-0.00003697,0.00005561,-0.00709537,-0.00115262,
 -0.00286721,-0.02886894,0.00311523,-0.04915235,-0.00005233,-0.00035258
 ,0.00001809,0.00084912,-0.00002132,-0.00049398,-0.00036700,-0.00037502
 ,0.00003223,0.00017854,-0.00001590,0.00015985,0.02753645,-0.00413738,0
 .00450249,0.03194252,-0.00448781,0.04913441,0.00167572,-0.00062818,0.0
 0024585,0.00007353,-0.00002387,-0.00008631,0.00097118,0.00544163,0.005
 14087,-0.07411423,-0.05264479,-0.06180253,-0.00019481,-0.00034141,0.00
 014331,-0.00017102,-0.00024880,0.00049648,-0.00000551,-0.00007469,-0.0
 0001683,0.00046655,0.00166389,-0.00021207,0.00474438,0.01024187,0.0107
 3793,-0.00830017,-0.01992826,-0.02316103,0.07484061,-0.00034255,0.0037
 3926,0.00095868,0.00000391,0.00002607,0.00006919,-0.01240637,-0.023904
 50,-0.02553041,-0.05140423,-0.14387659,-0.11739133,0.00004949,0.001503
 88,-0.00167500,0.00022999,-0.00014891,-0.00028641,-0.00004213,-0.00013
 715,-0.00008387,0.00194230,-0.00551816,0.00235228,0.00368002,0.0052643
 3,0.00641031,0.00116488,0.00246918,0.00428472,0.05689902,0.16001633,0.
 00132727,-0.00033359,0.00011846,0.00020145,0.00004045,-0.00014321,0.00
 257780,0.00491921,0.00514557,-0.06227481,-0.11892369,-0.19005045,0.000
 39026,0.00059238,0.00145483,-0.00001906,-0.00017534,0.00002734,-0.0001
 6537,-0.00002596,0.00017156,-0.00033751,0.00200011,0.00059382,-0.00990
 726,-0.01666430,-0.01864929,-0.00010706,-0.00048305,-0.00216323,0.0684
 7683,0.12927105,0.20324125,0.00191206,0.00009542,-0.00084908,0.0001348
 1,0.00000106,-0.00012813,0.00355618,0.00858372,0.01138638,-0.00003397,
 0.00073485,-0.00044736,-0.07782409,-0.05511519,-0.06788158,-0.00020161
 ,0.00018219,0.00057394,-0.00003515,0.00000133,-0.00007431,-0.00057083,
 -0.00069950,0.00248045,-0.00005769,0.00015735,0.00002639,0.00000122,-0
 .00007915,-0.00011738,0.00016127,-0.00004830,-0.00034495,0.07993120,0.
 00089759,-0.00002810,-0.00053669,0.00004832,0.00001239,-0.00000664,0.0
 0354871,0.00489438,0.00693066,0.00064361,0.00143101,0.00074405,-0.0550
 8398,-0.14530384,-0.11739732,0.00015378,0.00007134,0.00033129,-0.00003
 087,-0.00004966,-0.00008036,-0.00079078,0.00040534,0.00191703,0.000031
 02,0.00003092,-0.00013374,0.00011160,-0.00004742,0.00003830,-0.0003388
 4,0.00010848,-0.00011595,0.06104160,0.15381577,-0.00093024,0.00050293,
 0.00242917,0.00004289,0.00001320,-0.00002319,-0.01157636,-0.01949304,-
 0.02619095,-0.00042301,-0.00153683,0.00133673,-0.06597064,-0.11583054,
 -0.18682720,0.00014999,0.00006041,0.00006722,0.00000391,0.00005254,0.0
 0016294,0.00312962,0.00238317,-0.00404857,0.00024491,0.00014514,0.0005
 2410,0.00006733,0.00006818,-0.00001471,0.00007811,0.00118066,0.0001414
 8,0.07178219,0.12703830,0.20679814,0.00129727,0.00006932,-0.00088815,0
 .00018734,-0.00000407,-0.00017942,0.00181885,-0.01416152,0.00273265,-0
 .00120359,-0.00041800,0.00215641,-0.06422983,0.06616459,-0.01540354,-0
 .00005693,0.00002147,0.00031966,-0.00003856,0.00001567,0.00003893,0.00
 018873,0.00042365,-0.00062004,0.00051644,-0.00063641,0.00046625,0.0003
 1977,-0.00016161,0.00015450,-0.00005758,0.00027085,0.00003762,0.002393
 66,-0.01125405,0.00332418,0.06497646,-0.00002252,0.00094749,-0.0009821
 4,0.00000846,-0.00001560,-0.00000461,0.00281125,-0.00884830,0.00083778
 ,-0.00124321,0.00079275,0.00233195,0.06419261,-0.29214600,0.05436005,-
 0.00027886,0.00025187,0.00005801,0.00004242,0.00009313,-0.00007255,-0.
 00025254,0.00077458,0.00029658,0.00034018,-0.00047504,0.00021005,0.000
 10872,0.00007943,-0.00015318,0.00010002,0.00048788,-0.00006720,0.00509
 232,-0.01668907,0.00455231,-0.07090336,0.31495400,-0.00158202,-0.00149
 130,0.00194818,-0.00008549,0.00000547,0.00005395,-0.00894838,0.0306195
 4,-0.00681837,0.00349694,0.00031483,-0.00513022,-0.01370158,0.05197932
 ,-0.05929808,0.00002420,-0.00020758,-0.00017690,-0.00004965,-0.0000756
 4,0.00006435,-0.00075676,-0.00043902,0.00103928,-0.00020247,0.00198476
 ,-0.00027044,0.00002741,-0.00036507,0.00005531,0.00018923,0.00018764,0
 .00008882,0.00724223,-0.02227562,0.00570553,0.01467936,-0.06082643,0.0
 6432503,-0.00129311,-0.00058550,0.00437879,-0.00037768,-0.00003258,0.0
 0030704,-0.01213648,0.00205192,-0.00492234,0.00001011,0.00040743,-0.00
 081298,-0.31650303,0.01942792,-0.01088301,0.00009396,-0.00025134,-0.00
 109948,0.00007635,-0.00001725,0.00009056,0.00037956,0.00022630,0.00042
 288,0.00037060,0.00001620,0.00013310,0.00062390,-0.00031344,0.00018877
 ,-0.00003202,0.00002543,0.00012559,-0.00916215,0.00115188,0.00015232,-
 0.00610515,-0.00005019,-0.00030029,0.34406558,-0.00117840,0.00039084,0
 .00187630,-0.00002351,-0.00008871,0.00004814,-0.00807915,-0.00156267,-
 0.00257194,0.00001011,0.00006771,-0.00024974,0.02086446,-0.04843880,0.
 00166145,-0.00041223,0.00047182,0.00002570,0.00000950,0.00006202,0.000
 01805,0.00023896,0.00014487,-0.00009614,0.00011678,0.00006982,-0.00016
 448,-0.00005588,-0.00030206,0.00060715,-0.00010829,-0.00002573,-0.0000
 5156,-0.01981403,0.00136734,0.00078797,0.03063136,-0.00009572,0.000497
 15,-0.02214064,0.04791356,0.00470577,0.00145877,-0.00661117,0.00036494
 ,0.00014908,-0.00023483,0.02694604,-0.00351352,0.00564809,-0.00024101,
 -0.00034473,0.00082290,-0.01390041,0.00195890,-0.04861070,0.00142409,0
 .00050001,0.00120597,0.00000219,-0.00015810,-0.00039802,-0.00075284,-0
 .00083603,0.00069103,-0.00014241,-0.00033280,0.00001961,-0.00008969,0.
 00054269,-0.00023557,-0.00010078,0.00008401,-0.00002019,-0.02347630,0.
 00355667,-0.00034827,-0.00675165,-0.00052869,-0.00156330,0.01205618,-0
 .00245235,0.04976267,0.00525529,0.00698635,0.01709166,0.00160008,0.002
 50862,-0.00132386,0.00423604,0.00197263,0.00352759,-0.00034373,-0.0000
 8959,-0.00031140,-0.00008380,-0.00004293,0.00022277,-0.10658415,-0.062
 03242,-0.08813791,-0.00357869,-0.01368003,-0.02216421,0.00032407,-0.00
 072373,-0.00077228,0.00000361,0.00009831,-0.00002213,-0.00003281,0.000
 06352,0.00000082,0.00003355,-0.00010632,-0.00005228,-0.00015813,-0.000
 12284,-0.00012157,0.00001907,0.00003124,-0.00001669,-0.00005046,-0.000
 03176,-0.00006336,0.10217351,0.00130115,0.00567138,0.00206330,0.002644
 45,-0.00328728,0.00302114,-0.00016056,0.00088826,0.00045987,-0.0001056
 5,-0.00003093,-0.00037091,0.00021033,0.00002985,0.00022245,-0.06321528
 ,-0.10198859,-0.10188048,-0.00520593,0.00083921,-0.01477061,0.00041429
 ,-0.00017257,-0.00031956,0.00006681,-0.00041440,0.00007749,-0.00006408
 ,-0.00002765,0.00012317,-0.00004883,-0.00003677,0.00010806,-0.00008497
 ,-0.00002809,0.00006284,-0.00002587,-0.00006544,0.00006825,0.00002540,
 0.00000360,-0.00004744,0.06951462,0.09327042,-0.00034968,-0.01310757,-
 0.03251864,-0.00129336,0.00089256,-0.00013112,-0.00592424,0.00054594,-
 0.00017800,0.00066329,0.00001322,0.00004951,0.00055778,0.00024563,0.00
 045647,-0.08965978,-0.10016727,-0.21334759,0.00211840,-0.00057921,0.00
 429218,0.00153563,0.00049582,0.00067615,0.00003084,-0.00020454,0.00000
 178,0.00010160,-0.00020420,0.00012480,-0.00010533,0.00019564,0.0000181
 0,-0.00018850,0.00000385,0.00031188,-0.00006833,-0.00003403,-0.0000079
 1,0.00017463,0.00006350,-0.00010259,0.09051207,0.11271478,0.23959656,0
 .00095946,0.00364252,-0.00049261,0.00716076,0.01041094,0.02366480,-0.0
 0022160,-0.00001814,0.00021711,-0.00001113,-0.00012267,-0.00003016,-0.
 00004877,0.00006677,0.00002900,-0.00369527,-0.01379186,-0.02480820,-0.
 10829845,-0.06511544,-0.09109265,0.00026647,0.00011121,0.00009301,0.00
 001172,-0.00006666,-0.00009228,0.00003106,0.00007009,-0.00000360,-0.00
 007568,0.00007645,0.00010200,-0.00003662,0.00000341,0.00006346,-0.0000
 0071,0.00000656,-0.00000984,0.00000108,-0.00002435,0.00002846,-0.00296
 418,-0.00521572,0.00197409,0.10464422,0.00372639,-0.00410658,-0.000168
 35,0.00077213,0.00381484,-0.00270764,-0.00065216,-0.00033492,-0.000153
 10,0.00024476,0.00008455,-0.00003258,0.00006363,0.00000071,0.00004938,
 -0.00624027,0.00233162,-0.01176650,-0.06293235,-0.10358686,-0.10394949
 ,0.00010085,0.00011982,0.00021718,-0.00003613,0.00003104,0.00012309,0.
 00000033,-0.00012742,0.00008082,0.00004030,0.00002951,-0.00006658,-0.0
 0003538,0.00000248,0.00001490,-0.00001858,-0.00002656,0.00000743,0.000
 02684,0.00002855,-0.00002389,-0.00475474,0.00576261,-0.00124052,0.0687
 3577,0.09522635,-0.00150266,0.00174984,0.00095861,-0.00216247,-0.01003
 602,-0.02573016,0.00038101,0.00005359,0.00032178,-0.00006869,-0.000051
 98,0.00001118,-0.00006976,0.00002795,-0.00001806,0.00220516,-0.0005415
 4,0.00291183,-0.09076127,-0.10691700,-0.22254197,0.00011636,-0.0000984
 3,-0.00022245,-0.00002419,-0.00003589,-0.00008961,0.00002308,0.0000561
 1,-0.00002577,-0.00004851,-0.00001086,0.00006602,0.00000895,0.00000041
 ,-0.00000981,-0.00000021,0.00001074,-0.00001110,-0.00001378,-0.0000178
 7,0.00002043,0.00180594,-0.00191520,0.00081436,0.09078078,0.11926886,0
 .24291140,0.00106028,0.00044839,-0.00266320,-0.21627092,-0.24600490,0.
 02997007,-0.00083248,-0.00055685,0.00014253,0.00018727,-0.00002767,0.0
 0013094,-0.00003795,-0.00000113,0.00001126,0.00019335,0.00049531,0.006
 26916,-0.02191541,-0.01781809,0.00147297,0.00002846,0.00000870,0.00001
 345,-0.00006756,0.00006878,-0.00008092,0.00007824,-0.00004048,-0.00000
 881,-0.00001576,0.00000758,-0.00003053,-0.00001017,-0.00001014,-0.0000
 1708,-0.00002523,0.00001691,-0.00000618,0.00003895,-0.00000293,-0.0000
 0920,0.00015073,-0.00005014,-0.00007911,0.00227764,0.00095859,-0.00066
 973,0.23516054,0.00040704,0.00140210,-0.00092433,-0.27302921,-0.331856
 35,0.01256449,-0.00041115,0.00035314,0.00008901,0.00002550,-0.00006444
 ,0.00001148,0.00006126,-0.00002750,0.00000548,0.00129121,-0.00058452,-
 0.00067068,0.00740676,0.00212220,-0.00471891,0.00006993,-0.00002513,-0
 .00000409,0.00001214,0.00003569,0.00000158,0.00001411,-0.00001439,-0.0
 0000538,-0.00000076,0.00000292,-0.00002404,-0.00001331,0.00000674,-0.0
 0000214,-0.00001343,-0.00001938,0.00001626,0.00003162,-0.00000644,-0.0
 0001256,0.00040908,-0.00041359,0.00036641,0.00123112,0.00075028,-0.001
 54272,0.26250807,0.32833867,0.00200360,-0.00091117,0.00032401,0.001585
 00,-0.02531430,-0.03090183,0.00010946,-0.00022935,-0.00043461,0.000054
 95,0.00008119,0.00002191,0.00011269,-0.00000721,0.00005422,0.00055451,
 -0.00067376,-0.00483544,0.03062729,0.03150323,-0.00689849,-0.00002538,
 0.00001015,0.00000902,0.00000331,0.00000141,0.00002396,-0.00001696,-0.
 00003963,0.00001093,0.00002479,-0.00001630,-0.00004088,0.00000707,-0.0
 0001424,-0.00001449,0.00000180,0.00001135,-0.00000413,0.00000201,0.000
 01865,-0.00004608,-0.00017516,0.00038284,-0.00005596,-0.00042336,0.000
 34698,0.00063331,-0.03444563,-0.00514985,0.04215456\\0.00000014,0.0000
 0059,0.00000020,0.00000021,-0.00000037,0.00000032,0.,-0.00000007,0.000
 00010,-0.00000033,-0.00000034,-0.00000064,0.00000020,0.00000052,0.0000
 0040,0.00000007,-0.00000021,0.00000024,0.00000009,0.00000003,-0.000000
 08,0.00000020,-0.00000064,0.00000058,-0.00000002,-0.00000060,-0.000000
 58,-0.00000020,-0.00000063,-0.00000097,-0.00000062,0.00000015,-0.00000
 081,0.00000009,0.00000078,0.00000002,0.00000006,0.00000057,0.00000071,
 0.00000009,0.00000049,0.00000030,0.00000026,-0.00000058,0.00000052,-0.
 00000009,0.00000051,-0.00000009,-0.00000016,-0.00000018,-0.00000021\\\
 @


 ONLY A FOOL KNOWS EVERYTHING.

               -- THE CHEMIST ANALYST, SEPTEMBER 1946
 Job cpu time:       0 days  2 hours 44 minutes 36.4 seconds.
 Elapsed time:       0 days  1 hours 22 minutes 19.3 seconds.
 File lengths (MBytes):  RWF=   1392 Int=      0 D2E=      0 Chk=     32 Scr=     32
 Normal termination of Gaussian 16 at Thu Sep 26 07:34:49 2019.
