 Entering Gaussian System, Link 0=g16
 Input=loose/species/CC(C)OC=CO/conformers/CC(C)OC=CO_56.com
 Output=loose/species/CC(C)OC=CO/conformers/CC(C)OC=CO_56.log
 Initial command:
 /shared/centos7/gaussian/g16/l1.exe "/scratch/harms.n/gauss_scrdir/Gau-19475.inp" -scrdir="/scratch/harms.n/gauss_scrdir/"
 Entering Link 1 = /shared/centos7/gaussian/g16/l1.exe PID=     19476.
  
 Copyright (c) 1988,1990,1992,1993,1995,1998,2003,2009,2016,
            Gaussian, Inc.  All Rights Reserved.
  
 This is part of the Gaussian(R) 16 program.  It is based on
 the Gaussian(R) 09 system (copyright 2009, Gaussian, Inc.),
 the Gaussian(R) 03 system (copyright 2003, Gaussian, Inc.),
 the Gaussian(R) 98 system (copyright 1998, Gaussian, Inc.),
 the Gaussian(R) 94 system (copyright 1995, Gaussian, Inc.),
 the Gaussian 92(TM) system (copyright 1992, Gaussian, Inc.),
 the Gaussian 90(TM) system (copyright 1990, Gaussian, Inc.),
 the Gaussian 88(TM) system (copyright 1988, Gaussian, Inc.),
 the Gaussian 86(TM) system (copyright 1986, Carnegie Mellon
 University), and the Gaussian 82(TM) system (copyright 1983,
 Carnegie Mellon University). Gaussian is a federally registered
 trademark of Gaussian, Inc.
  
 This software contains proprietary and confidential information,
 including trade secrets, belonging to Gaussian, Inc.
  
 This software is provided under written license and may be
 used, copied, transmitted, or stored only in accord with that
 written license.
  
 The following legend is applicable only to US Government
 contracts under FAR:
  
                    RESTRICTED RIGHTS LEGEND
  
 Use, reproduction and disclosure by the US Government is
 subject to restrictions as set forth in subparagraphs (a)
 and (c) of the Commercial Computer Software - Restricted
 Rights clause in FAR 52.227-19.
  
 Gaussian, Inc.
 340 Quinnipiac St., Bldg. 40, Wallingford CT 06492
  
  
 ---------------------------------------------------------------
 Warning -- This program may not be used in any manner that
 competes with the business of Gaussian, Inc. or will provide
 assistance to any competitor of Gaussian, Inc.  The licensee
 of this program is prohibited from giving any competitor of
 Gaussian, Inc. access to this program.  By using this program,
 the user acknowledges that Gaussian, Inc. is engaged in the
 business of creating and licensing software in the field of
 computational chemistry and represents and warrants to the
 licensee that it is not a competitor of Gaussian, Inc. and that
 it will not use this program in any manner prohibited above.
 ---------------------------------------------------------------
  

 Cite this work as:
 Gaussian 16, Revision A.03,
 M. J. Frisch, G. W. Trucks, H. B. Schlegel, G. E. Scuseria, 
 M. A. Robb, J. R. Cheeseman, G. Scalmani, V. Barone, 
 G. A. Petersson, H. Nakatsuji, X. Li, M. Caricato, A. V. Marenich, 
 J. Bloino, B. G. Janesko, R. Gomperts, B. Mennucci, H. P. Hratchian, 
 J. V. Ortiz, A. F. Izmaylov, J. L. Sonnenberg, D. Williams-Young, 
 F. Ding, F. Lipparini, F. Egidi, J. Goings, B. Peng, A. Petrone, 
 T. Henderson, D. Ranasinghe, V. G. Zakrzewski, J. Gao, N. Rega, 
 G. Zheng, W. Liang, M. Hada, M. Ehara, K. Toyota, R. Fukuda, 
 J. Hasegawa, M. Ishida, T. Nakajima, Y. Honda, O. Kitao, H. Nakai, 
 T. Vreven, K. Throssell, J. A. Montgomery, Jr., J. E. Peralta, 
 F. Ogliaro, M. J. Bearpark, J. J. Heyd, E. N. Brothers, K. N. Kudin, 
 V. N. Staroverov, T. A. Keith, R. Kobayashi, J. Normand, 
 K. Raghavachari, A. P. Rendell, J. C. Burant, S. S. Iyengar, 
 J. Tomasi, M. Cossi, J. M. Millam, M. Klene, C. Adamo, R. Cammi, 
 J. W. Ochterski, R. L. Martin, K. Morokuma, O. Farkas, 
 J. B. Foresman, and D. J. Fox, Gaussian, Inc., Wallingford CT, 2016.
 
 ******************************************
 Gaussian 16:  EM64L-G16RevA.03 25-Dec-2016
                25-Sep-2019 
 ******************************************
 %nprocshared=20
 Will use up to   20 processors via shared memory.
 %mem=5GB
 ----------------------------------------------------------------------
 #p m062x/cc-pVTZ opt=(calcfc,maxcycles=900,Tight) freq IOP(7/33=1,2/16
 =3) scf=(maxcycle=900)
 ----------------------------------------------------------------------
 1/6=900,7=10,10=4,18=20,19=15,26=3,38=1/1,3;
 2/9=110,12=2,16=3,17=6,18=5,40=1/2;
 3/5=16,6=1,11=2,25=1,30=1,71=2,74=-55,140=1/1,2,3;
 4//1;
 5/5=2,7=900,38=5/2;
 8/6=4,10=90,11=11/1;
 11/6=1,8=1,9=11,15=111,16=1/1,2,10;
 10/6=1,13=1/2;
 6/7=2,8=2,9=2,10=2,28=1/1;
 7/10=1,18=20,25=1,33=1/1,2,3,16;
 1/6=900,7=10,10=4,18=20,19=15,26=3/3(2);
 2/9=110,16=3/2;
 99//99;
 2/9=110,16=3/2;
 3/5=16,6=1,11=2,25=1,30=1,71=1,74=-55/1,2,3;
 4/5=5,16=3,69=1/1;
 5/5=2,7=900,38=5/2;
 7/33=1/1,2,3,16;
 1/6=900,7=10,18=20,19=15,26=3/3(-5);
 2/9=110,16=3/2;
 6/7=2,8=2,9=2,10=2,19=2,28=1/1;
 99/9=1/99;
 Leave Link    1 at Wed Sep 25 21:26:35 2019, MaxMem=   671088640 cpu:               4.1 elap:               2.0
 (Enter /shared/centos7/gaussian/g16/l101.exe)
 ------------------------------
 Gaussian input prepared by ASE
 ------------------------------
 Symbolic Z-matrix:
 Charge =  0 Multiplicity = 1
 O                     3.15098   0.8481    2.9015 
 O                     0.43615   1.0647    1.41413 
 C                     2.41068   1.91543   3.45526 
 C                     1.14649   1.43072   4.1651 
 C                     2.19597   3.0457    2.50318 
 C                     2.61515   0.09763   1.87994 
 C                     1.4875    0.17805   1.23497 
 H                     3.10655   2.29801   4.2526 
 H                     0.95118   0.36567   3.92068 
 H                     1.25027   1.4972    5.26341 
 H                     0.25019   2.03659   3.86146 
 H                     1.10847   3.17458   2.22495 
 H                     2.7639    2.88006   1.56398 
 H                     2.54769   4.02166   2.94291 
 H                     3.32721  -0.6984    1.60967 
 H                     1.28272  -0.52387   0.44011 
 H                     0.63277   1.5834    2.24724 
 
 ITRead=  0  0  0  0  0  0  0  0  0  0  0  0  0  0  0  0  0
 MicOpt= -1 -1 -1 -1 -1 -1 -1 -1 -1 -1 -1 -1 -1 -1 -1 -1 -1
 NAtoms=     17 NQM=       17 NQMF=       0 NMMI=      0 NMMIF=      0
                NMic=       0 NMicF=      0.
                    Isotopes and Nuclear Properties:
 (Nuclear quadrupole moments (NQMom) in fm**2, nuclear magnetic moments (NMagM)
  in nuclear magnetons)

  Atom         1           2           3           4           5           6           7           8           9          10
 IAtWgt=          16          16          12          12          12          12          12           1           1           1
 AtmWgt=  15.9949146  15.9949146  12.0000000  12.0000000  12.0000000  12.0000000  12.0000000   1.0078250   1.0078250   1.0078250
 NucSpn=           0           0           0           0           0           0           0           1           1           1
 AtZEff=  -0.0000000  -0.0000000  -0.0000000  -0.0000000  -0.0000000  -0.0000000  -0.0000000  -0.0000000  -0.0000000  -0.0000000
 NQMom=    0.0000000   0.0000000   0.0000000   0.0000000   0.0000000   0.0000000   0.0000000   0.0000000   0.0000000   0.0000000
 NMagM=    0.0000000   0.0000000   0.0000000   0.0000000   0.0000000   0.0000000   0.0000000   2.7928460   2.7928460   2.7928460
 AtZNuc=   8.0000000   8.0000000   6.0000000   6.0000000   6.0000000   6.0000000   6.0000000   1.0000000   1.0000000   1.0000000

  Atom        11          12          13          14          15          16          17
 IAtWgt=           1           1           1           1           1           1           1
 AtmWgt=   1.0078250   1.0078250   1.0078250   1.0078250   1.0078250   1.0078250   1.0078250
 NucSpn=           1           1           1           1           1           1           1
 AtZEff=  -0.0000000  -0.0000000  -0.0000000  -0.0000000  -0.0000000  -0.0000000  -0.0000000
 NQMom=    0.0000000   0.0000000   0.0000000   0.0000000   0.0000000   0.0000000   0.0000000
 NMagM=    2.7928460   2.7928460   2.7928460   2.7928460   2.7928460   2.7928460   2.7928460
 AtZNuc=   1.0000000   1.0000000   1.0000000   1.0000000   1.0000000   1.0000000   1.0000000
 Leave Link  101 at Wed Sep 25 21:26:37 2019, MaxMem=   671088640 cpu:               3.1 elap:               1.6
 (Enter /shared/centos7/gaussian/g16/l103.exe)

 GradGradGradGradGradGradGradGradGradGradGradGradGradGradGradGradGradGrad
 Berny optimization.
 Initialization pass.
                           ----------------------------
                           !    Initial Parameters    !
                           ! (Angstroms and Degrees)  !
 --------------------------                            --------------------------
 ! Name  Definition              Value          Derivative Info.                !
 --------------------------------------------------------------------------------
 ! R1    R(1,3)                  1.412          calculate D2E/DX2 analytically  !
 ! R2    R(1,6)                  1.3762         calculate D2E/DX2 analytically  !
 ! R3    R(2,7)                  1.3869         calculate D2E/DX2 analytically  !
 ! R4    R(2,17)                 1.0009         calculate D2E/DX2 analytically  !
 ! R5    R(3,4)                  1.5287         calculate D2E/DX2 analytically  !
 ! R6    R(3,5)                  1.4933         calculate D2E/DX2 analytically  !
 ! R7    R(3,8)                  1.1253         calculate D2E/DX2 analytically  !
 ! R8    R(4,9)                  1.1101         calculate D2E/DX2 analytically  !
 ! R9    R(4,10)                 1.1052         calculate D2E/DX2 analytically  !
 ! R10   R(4,11)                 1.1237         calculate D2E/DX2 analytically  !
 ! R11   R(5,12)                 1.1299         calculate D2E/DX2 analytically  !
 ! R12   R(5,13)                 1.11           calculate D2E/DX2 analytically  !
 ! R13   R(5,14)                 1.1267         calculate D2E/DX2 analytically  !
 ! R14   R(6,7)                  1.3016         calculate D2E/DX2 analytically  !
 ! R15   R(6,15)                 1.1017         calculate D2E/DX2 analytically  !
 ! R16   R(7,16)                 1.08           calculate D2E/DX2 analytically  !
 ! A1    A(3,1,6)              119.9456         calculate D2E/DX2 analytically  !
 ! A2    A(7,2,17)             106.8528         calculate D2E/DX2 analytically  !
 ! A3    A(1,3,4)              112.0851         calculate D2E/DX2 analytically  !
 ! A4    A(1,3,5)              113.4191         calculate D2E/DX2 analytically  !
 ! A5    A(1,3,8)              102.1607         calculate D2E/DX2 analytically  !
 ! A6    A(4,3,5)              114.6529         calculate D2E/DX2 analytically  !
 ! A7    A(4,3,8)              106.8677         calculate D2E/DX2 analytically  !
 ! A8    A(5,3,8)              106.4584         calculate D2E/DX2 analytically  !
 ! A9    A(3,4,9)              110.3329         calculate D2E/DX2 analytically  !
 ! A10   A(3,4,10)             111.3895         calculate D2E/DX2 analytically  !
 ! A11   A(3,4,11)             111.2964         calculate D2E/DX2 analytically  !
 ! A12   A(9,4,10)             107.0411         calculate D2E/DX2 analytically  !
 ! A13   A(9,4,11)             108.5109         calculate D2E/DX2 analytically  !
 ! A14   A(10,4,11)            108.12           calculate D2E/DX2 analytically  !
 ! A15   A(3,5,12)             112.439          calculate D2E/DX2 analytically  !
 ! A16   A(3,5,13)             110.6677         calculate D2E/DX2 analytically  !
 ! A17   A(3,5,14)             111.2161         calculate D2E/DX2 analytically  !
 ! A18   A(12,5,13)            107.5249         calculate D2E/DX2 analytically  !
 ! A19   A(12,5,14)            107.3218         calculate D2E/DX2 analytically  !
 ! A20   A(13,5,14)            107.4434         calculate D2E/DX2 analytically  !
 ! A21   A(1,6,7)              132.1816         calculate D2E/DX2 analytically  !
 ! A22   A(1,6,15)             108.9337         calculate D2E/DX2 analytically  !
 ! A23   A(7,6,15)             118.8846         calculate D2E/DX2 analytically  !
 ! A24   A(2,7,6)              129.2156         calculate D2E/DX2 analytically  !
 ! A25   A(2,7,16)             111.5201         calculate D2E/DX2 analytically  !
 ! A26   A(6,7,16)             119.263          calculate D2E/DX2 analytically  !
 ! D1    D(6,1,3,4)             65.1137         calculate D2E/DX2 analytically  !
 ! D2    D(6,1,3,5)            -66.6688         calculate D2E/DX2 analytically  !
 ! D3    D(6,1,3,8)            179.178          calculate D2E/DX2 analytically  !
 ! D4    D(3,1,6,7)              1.798          calculate D2E/DX2 analytically  !
 ! D5    D(3,1,6,15)          -178.2688         calculate D2E/DX2 analytically  !
 ! D6    D(17,2,7,6)            -8.1848         calculate D2E/DX2 analytically  !
 ! D7    D(17,2,7,16)          171.3941         calculate D2E/DX2 analytically  !
 ! D8    D(1,3,4,9)            -11.9747         calculate D2E/DX2 analytically  !
 ! D9    D(1,3,4,10)           106.7625         calculate D2E/DX2 analytically  !
 ! D10   D(1,3,4,11)          -132.4952         calculate D2E/DX2 analytically  !
 ! D11   D(5,3,4,9)            119.1853         calculate D2E/DX2 analytically  !
 ! D12   D(5,3,4,10)          -122.0775         calculate D2E/DX2 analytically  !
 ! D13   D(5,3,4,11)            -1.3353         calculate D2E/DX2 analytically  !
 ! D14   D(8,3,4,9)           -123.1106         calculate D2E/DX2 analytically  !
 ! D15   D(8,3,4,10)            -4.3734         calculate D2E/DX2 analytically  !
 ! D16   D(8,3,4,11)           116.3688         calculate D2E/DX2 analytically  !
 ! D17   D(1,3,5,12)           113.8201         calculate D2E/DX2 analytically  !
 ! D18   D(1,3,5,13)            -6.4433         calculate D2E/DX2 analytically  !
 ! D19   D(1,3,5,14)          -125.7914         calculate D2E/DX2 analytically  !
 ! D20   D(4,3,5,12)           -16.6925         calculate D2E/DX2 analytically  !
 ! D21   D(4,3,5,13)          -136.9559         calculate D2E/DX2 analytically  !
 ! D22   D(4,3,5,14)           103.696          calculate D2E/DX2 analytically  !
 ! D23   D(8,3,5,12)          -134.6287         calculate D2E/DX2 analytically  !
 ! D24   D(8,3,5,13)           105.1078         calculate D2E/DX2 analytically  !
 ! D25   D(8,3,5,14)           -14.2402         calculate D2E/DX2 analytically  !
 ! D26   D(1,6,7,2)             -1.5921         calculate D2E/DX2 analytically  !
 ! D27   D(1,6,7,16)           178.857          calculate D2E/DX2 analytically  !
 ! D28   D(15,6,7,2)           178.48           calculate D2E/DX2 analytically  !
 ! D29   D(15,6,7,16)           -1.071          calculate D2E/DX2 analytically  !
 --------------------------------------------------------------------------------
 Trust Radius=3.00D-01 FncErr=1.00D-07 GrdErr=1.00D-06 EigMax=2.50D+02 EigMin=1.00D-04
 Number of steps in this run=    102 maximum allowed number of steps=    102.
 GradGradGradGradGradGradGradGradGradGradGradGradGradGradGradGradGradGrad

 Leave Link  103 at Wed Sep 25 21:26:37 2019, MaxMem=   671088640 cpu:               1.7 elap:               0.9
 (Enter /shared/centos7/gaussian/g16/l202.exe)
                          Input orientation:                          
 ---------------------------------------------------------------------
 Center     Atomic      Atomic             Coordinates (Angstroms)
 Number     Number       Type             X           Y           Z
 ---------------------------------------------------------------------
      1          8           0        3.150977    0.848098    2.901500
      2          8           0        0.436146    1.064697    1.414134
      3          6           0        2.410682    1.915428    3.455258
      4          6           0        1.146486    1.430716    4.165100
      5          6           0        2.195974    3.045699    2.503178
      6          6           0        2.615152    0.097635    1.879937
      7          6           0        1.487500    0.178051    1.234966
      8          1           0        3.106548    2.298011    4.252597
      9          1           0        0.951176    0.365670    3.920681
     10          1           0        1.250274    1.497205    5.263414
     11          1           0        0.250188    2.036587    3.861456
     12          1           0        1.108469    3.174576    2.224953
     13          1           0        2.763899    2.880064    1.563976
     14          1           0        2.547687    4.021657    2.942914
     15          1           0        3.327209   -0.698398    1.609671
     16          1           0        1.282720   -0.523872    0.440113
     17          1           0        0.632768    1.583397    2.247244
 ---------------------------------------------------------------------
                    Distance matrix (angstroms):
                    1          2          3          4          5
     1  O    0.000000
     2  O    3.103140   0.000000
     3  C    1.412047   2.964579   0.000000
     4  C    2.440105   2.864676   1.528729   0.000000
     5  C    2.429021   2.864853   1.493342   2.543930   0.000000
     6  C    1.376189   2.429043   2.414087   3.025898   3.042240
     7  C    2.448153   1.386935   2.966554   3.204863   3.214608
     8  H    1.982343   4.087662   1.125320   2.145156   2.109181
     9  H    2.471961   2.652673   2.179112   1.110050   3.277407
    10  H    3.100427   3.958134   2.188809   1.105209   3.303193
    11  H    3.278506   2.639799   2.201684   1.123668   2.578626
    12  H    3.168920   2.358185   2.189718   2.608958   1.129905
    13  H    2.463267   2.955747   2.152262   3.388580   1.109989
    14  H    3.230658   3.942002   2.171973   3.189055   1.126748
    15  H    2.022753   3.391900   3.328408   3.977298   4.012021
    16  H    3.380993   2.046694   4.039008   4.208860   4.222808
    17  H    2.703718   1.000891   2.174976   1.991329   2.155793
                    6          7          8          9         10
     6  C    0.000000
     7  C    1.301558   0.000000
     8  H    3.273017   4.027609   0.000000
     9  H    2.646751   2.745161   2.913716   0.000000
    10  H    3.907634   4.245567   2.260264   1.781226   0.000000
    11  H    3.644038   3.447252   2.894845   1.812970   1.804603
    12  H    3.443356   3.178506   2.978594   3.284842   3.473604
    13  H    2.804259   3.006379   2.772160   3.893867   4.229563
    14  H    4.066008   4.337555   2.235743   4.107446   3.666178
    15  H    1.101697   2.071978   4.001527   3.481169   4.741748
    16  H    2.057848   1.080011   5.081772   3.607708   5.229726
    17  H    2.504446   1.931391   3.263694   2.093952   3.079939
                   11         12         13         14         15
    11  H    0.000000
    12  H    2.170209   0.000000
    13  H    3.508363   1.806676   0.000000
    14  H    3.172179   1.817790   1.803178   0.000000
    15  H    4.692413   4.505697   3.622816   4.966297   0.000000
    16  H    4.396324   4.110297   3.878626   5.340972   2.361834
    17  H    1.719718   1.660915   2.586487   3.177417   3.587910
                   16         17
    16  H    0.000000
    17  H    2.851095   0.000000
 Stoichiometry    C5H10O2
 Framework group  C1[X(C5H10O2)]
 Deg. of freedom    45
 Full point group                 C1      NOp   1
 Largest Abelian subgroup         C1      NOp   1
 Largest concise Abelian subgroup C1      NOp   1
                         Standard orientation:                         
 ---------------------------------------------------------------------
 Center     Atomic      Atomic             Coordinates (Angstroms)
 Number     Number       Type             X           Y           Z
 ---------------------------------------------------------------------
      1          8           0       -0.208763    1.379441   -0.004340
      2          8           0        1.230457   -1.369684   -0.025274
      3          6           0       -1.180662    0.355092   -0.005772
      4          6           0       -1.152214   -0.466021    1.283404
      5          6           0       -1.187308   -0.455023   -1.260259
      6          6           0        1.129089    1.057042    0.005911
      7          6           0        1.753050   -0.085015   -0.014832
      8          1           0       -2.141841    0.940272    0.000955
      9          1           0       -0.238309   -0.233231    1.868894
     10          1           0       -2.018523   -0.232988    1.928920
     11          1           0       -1.165199   -1.568294    1.065563
     12          1           0       -0.870867   -1.525323   -1.084165
     13          1           0       -0.494294   -0.020751   -2.010735
     14          1           0       -2.214036   -0.480665   -1.723653
     15          1           0        1.720445    1.986064    0.036805
     16          1           0        2.832991   -0.096577   -0.018961
     17          1           0        0.244348   -1.283016    0.122576
 ---------------------------------------------------------------------
 Rotational constants (GHZ):           3.4334094           2.4093905           2.0551874
 Leave Link  202 at Wed Sep 25 21:26:40 2019, MaxMem=   671088640 cpu:               4.0 elap:               2.0
 (Enter /shared/centos7/gaussian/g16/l301.exe)
 Standard basis: CC-pVTZ (5D, 7F)
 Ernie: Thresh=  0.10000D-02 Tol=  0.10000D-05 Strict=F.
 Ernie:  21 primitive shells out of 262 were deleted.
 There are   395 symmetry adapted cartesian basis functions of A   symmetry.
 There are   350 symmetry adapted basis functions of A   symmetry.
   350 basis functions,   534 primitive gaussians,   395 cartesian basis functions
    28 alpha electrons       28 beta electrons
       nuclear repulsion energy       333.0837032849 Hartrees.
 IExCor= 4336 DFT=T Ex+Corr=M062X ExCW=0 ScaHFX=  0.540000
 ScaDFX=  1.000000  1.000000  1.000000  1.000000 ScalE2=  1.000000  1.000000
 IRadAn=      5 IRanWt=     -1 IRanGd=            0 ICorTp=0 IEmpDi=  4
 NAtoms=   17 NActive=   17 NUniq=   17 SFac= 1.00D+00 NAtFMM=   60 NAOKFM=F Big=F
 Integral buffers will be    131072 words long.
 Raffenetti 2 integral format.
 Two-electron integral symmetry is turned on.
 Leave Link  301 at Wed Sep 25 21:26:40 2019, MaxMem=   671088640 cpu:               1.8 elap:               0.9
 (Enter /shared/centos7/gaussian/g16/l302.exe)
 NPDir=0 NMtPBC=     1 NCelOv=     1 NCel=       1 NClECP=     1 NCelD=      1
         NCelK=      1 NCelE2=     1 NClLst=     1 CellRange=     0.0.
 One-electron integrals computed using PRISM.
 One-electron integral symmetry used in STVInt
 NBasis=   350 RedAO= T EigKep=  3.08D-04  NBF=   350
 NBsUse=   350 1.00D-06 EigRej= -1.00D+00 NBFU=   350
 Precomputing XC quadrature grid using
 IXCGrd= 4 IRadAn=           5 IRanWt=          -1 IRanGd=           0 AccXCQ= 0.00D+00.
 Generated NRdTot=       0 NPtTot=           0 NUsed=           0 NTot=          32
 NSgBfM=   395   395   395   395   395 MxSgAt=    17 MxSgA2=    17.
 Leave Link  302 at Wed Sep 25 21:27:46 2019, MaxMem=   671088640 cpu:             131.4 elap:              65.7
 (Enter /shared/centos7/gaussian/g16/l303.exe)
 DipDrv:  MaxL=1.
 Leave Link  303 at Wed Sep 25 21:27:54 2019, MaxMem=   671088640 cpu:              14.7 elap:               7.4
 (Enter /shared/centos7/gaussian/g16/l401.exe)
 ExpMin= 1.03D-01 ExpMax= 1.53D+04 ExpMxC= 5.22D+02 IAcc=3 IRadAn=         5 AccDes= 0.00D+00
 Harris functional with IExCor= 1009 and IRadAn=       5 diagonalized for initial guess.
 HarFok:  IExCor= 1009 AccDes= 0.00D+00 IRadAn=         5 IDoV= 1 UseB2=F ITyADJ=14
 ICtDFT=  3500011 ScaDFX=  1.000000  1.000000  1.000000  1.000000
 FoFCou: FMM=F IPFlag=           0 FMFlag=      100000 FMFlg1=           0
         NFxFlg=           0 DoJE=T BraDBF=F KetDBF=T FulRan=T
         wScrn=  0.000000 ICntrl=       500 IOpCl=  0 I1Cent=   200000004 NGrid=           0
         NMat0=    1 NMatS0=      1 NMatT0=    0 NMatD0=    1 NMtDS0=    0 NMtDT0=    0
 Petite list used in FoFCou.
 Harris En= -346.784621069311    
 JPrj=0 DoOrth=F DoCkMO=F.
 Leave Link  401 at Wed Sep 25 21:28:30 2019, MaxMem=   671088640 cpu:              73.5 elap:              36.8
 (Enter /shared/centos7/gaussian/g16/l502.exe)
 Integral symmetry usage will be decided dynamically.
 Closed shell SCF:
 Using DIIS extrapolation, IDIIS=  1040.
 NGot=   671088640 LenX=   670765141 LenY=   670608675
 Requested convergence on RMS density matrix=1.00D-08 within 900 cycles.
 Requested convergence on MAX density matrix=1.00D-06.
 Requested convergence on             energy=1.00D-06.
 No special actions if energy rises.
 Fock matrices will be formed incrementally for  20 cycles.
 Integral accuracy reduced to 1.0D-05 until final iterations.

 Cycle   1  Pass 0  IDiag  1:
 FoFJK:  IHMeth= 1 ICntrl=       0 DoSepK=F KAlg= 0 I1Cent=           0 FoldK=F
 IRaf= 980000000 NMat=       1 IRICut=       1 DoRegI=T DoRafI=F ISym2E= 0 IDoP0=0 IntGTp=1.
 FoFCou: FMM=F IPFlag=           0 FMFlag=      100000 FMFlg1=           0
         NFxFlg=           0 DoJE=F BraDBF=F KetDBF=F FulRan=T
         wScrn=  0.000000 ICntrl=         0 IOpCl=  0 I1Cent=           0 NGrid=           0
         NMat0=    1 NMatS0=      1 NMatT0=    0 NMatD0=    1 NMtDS0=    0 NMtDT0=    0
 Symmetry not used in FoFCou.
 E= -346.703051645778    
 DIIS: error= 2.16D-02 at cycle   1 NSaved=   1.
 NSaved= 1 IEnMin= 1 EnMin= -346.703051645778     IErMin= 1 ErrMin= 2.16D-02
 ErrMax= 2.16D-02  0.00D+00 EMaxC= 1.00D-01 BMatC= 2.71D-01 BMatP= 2.71D-01
 IDIUse=3 WtCom= 7.84D-01 WtEn= 2.16D-01
 Coeff-Com:  0.100D+01
 Coeff-En:   0.100D+01
 Coeff:      0.100D+01
 Gap=     0.367 Goal=   None    Shift=    0.000
 GapD=    0.367 DampG=1.000 DampE=0.500 DampFc=0.5000 IDamp=-1.
 Damping current iteration by 5.00D-01
 RMSDP=1.85D-03 MaxDP=9.90D-02              OVMax= 1.25D-01

 Cycle   2  Pass 0  IDiag  1:
 RMSU=  9.24D-04    CP:  1.00D+00
 E= -346.814466095964     Delta-E=       -0.111414450187 Rises=F Damp=T
 DIIS: error= 3.92D-03 at cycle   2 NSaved=   2.
 NSaved= 2 IEnMin= 2 EnMin= -346.814466095964     IErMin= 2 ErrMin= 3.92D-03
 ErrMax= 3.92D-03  0.00D+00 EMaxC= 1.00D-01 BMatC= 2.17D-02 BMatP= 2.71D-01
 IDIUse=3 WtCom= 9.61D-01 WtEn= 3.92D-02
 Coeff-Com: -0.163D+00 0.116D+01
 Coeff-En:   0.000D+00 0.100D+01
 Coeff:     -0.156D+00 0.116D+01
 Gap=     0.333 Goal=   None    Shift=    0.000
 RMSDP=4.26D-04 MaxDP=1.65D-02 DE=-1.11D-01 OVMax= 6.55D-02

 Cycle   3  Pass 0  IDiag  1:
 RMSU=  4.24D-04    CP:  1.01D+00  1.01D+00
 E= -346.911937271418     Delta-E=       -0.097471175453 Rises=F Damp=F
 DIIS: error= 2.25D-03 at cycle   3 NSaved=   3.
 NSaved= 3 IEnMin= 3 EnMin= -346.911937271418     IErMin= 3 ErrMin= 2.25D-03
 ErrMax= 2.25D-03  0.00D+00 EMaxC= 1.00D-01 BMatC= 3.39D-03 BMatP= 2.17D-02
 IDIUse=3 WtCom= 9.78D-01 WtEn= 2.25D-02
 Coeff-Com: -0.891D-01 0.323D+00 0.767D+00
 Coeff-En:   0.000D+00 0.000D+00 0.100D+01
 Coeff:     -0.871D-01 0.315D+00 0.772D+00
 Gap=     0.330 Goal=   None    Shift=    0.000
 RMSDP=1.43D-04 MaxDP=5.25D-03 DE=-9.75D-02 OVMax= 1.70D-02

 Cycle   4  Pass 0  IDiag  1:
 RMSU=  1.15D-04    CP:  1.00D+00  1.08D+00  8.70D-01
 E= -346.913887217688     Delta-E=       -0.001949946270 Rises=F Damp=F
 DIIS: error= 1.05D-03 at cycle   4 NSaved=   4.
 NSaved= 4 IEnMin= 4 EnMin= -346.913887217688     IErMin= 4 ErrMin= 1.05D-03
 ErrMax= 1.05D-03  0.00D+00 EMaxC= 1.00D-01 BMatC= 8.56D-04 BMatP= 3.39D-03
 IDIUse=3 WtCom= 9.90D-01 WtEn= 1.05D-02
 Coeff-Com: -0.282D-01 0.753D-01 0.377D+00 0.576D+00
 Coeff-En:   0.000D+00 0.000D+00 0.146D+00 0.854D+00
 Coeff:     -0.279D-01 0.745D-01 0.374D+00 0.579D+00
 Gap=     0.327 Goal=   None    Shift=    0.000
 RMSDP=5.93D-05 MaxDP=2.41D-03 DE=-1.95D-03 OVMax= 8.73D-03

 Cycle   5  Pass 0  IDiag  1:
 RMSU=  3.16D-05    CP:  1.00D+00  1.08D+00  9.15D-01  6.00D-01
 E= -346.914508849686     Delta-E=       -0.000621631998 Rises=F Damp=F
 DIIS: error= 2.88D-04 at cycle   5 NSaved=   5.
 NSaved= 5 IEnMin= 5 EnMin= -346.914508849686     IErMin= 5 ErrMin= 2.88D-04
 ErrMax= 2.88D-04  0.00D+00 EMaxC= 1.00D-01 BMatC= 4.94D-05 BMatP= 8.56D-04
 IDIUse=3 WtCom= 9.97D-01 WtEn= 2.88D-03
 Coeff-Com: -0.672D-02 0.135D-01 0.122D+00 0.272D+00 0.600D+00
 Coeff-En:   0.000D+00 0.000D+00 0.000D+00 0.000D+00 0.100D+01
 Coeff:     -0.670D-02 0.135D-01 0.121D+00 0.271D+00 0.601D+00
 Gap=     0.327 Goal=   None    Shift=    0.000
 RMSDP=1.56D-05 MaxDP=5.23D-04 DE=-6.22D-04 OVMax= 2.19D-03

 Cycle   6  Pass 0  IDiag  1:
 RMSU=  8.82D-06    CP:  1.00D+00  1.07D+00  9.24D-01  6.53D-01  6.82D-01
 E= -346.914546081723     Delta-E=       -0.000037232036 Rises=F Damp=F
 DIIS: error= 5.66D-05 at cycle   6 NSaved=   6.
 NSaved= 6 IEnMin= 6 EnMin= -346.914546081723     IErMin= 6 ErrMin= 5.66D-05
 ErrMax= 5.66D-05  0.00D+00 EMaxC= 1.00D-01 BMatC= 1.94D-06 BMatP= 4.94D-05
 IDIUse=1 WtCom= 1.00D+00 WtEn= 0.00D+00
 Coeff-Com: -0.445D-03-0.240D-03 0.204D-01 0.665D-01 0.214D+00 0.700D+00
 Coeff:     -0.445D-03-0.240D-03 0.204D-01 0.665D-01 0.214D+00 0.700D+00
 Gap=     0.327 Goal=   None    Shift=    0.000
 RMSDP=3.70D-06 MaxDP=1.26D-04 DE=-3.72D-05 OVMax= 4.59D-04

 Initial convergence to 1.0D-05 achieved.  Increase integral accuracy.
 Cycle   7  Pass 1  IDiag  1:
 E= -346.914551829810     Delta-E=       -0.000005748087 Rises=F Damp=F
 DIIS: error= 2.65D-05 at cycle   1 NSaved=   1.
 NSaved= 1 IEnMin= 1 EnMin= -346.914551829810     IErMin= 1 ErrMin= 2.65D-05
 ErrMax= 2.65D-05  0.00D+00 EMaxC= 1.00D-01 BMatC= 7.86D-07 BMatP= 7.86D-07
 IDIUse=1 WtCom= 1.00D+00 WtEn= 0.00D+00
 Coeff-Com:  0.100D+01
 Coeff:      0.100D+01
 Gap=     0.327 Goal=   None    Shift=    0.000
 RMSDP=3.70D-06 MaxDP=1.26D-04 DE=-5.75D-06 OVMax= 3.77D-04

 Cycle   8  Pass 1  IDiag  1:
 RMSU=  6.30D-06    CP:  1.00D+00
 E= -346.914552016902     Delta-E=       -0.000000187092 Rises=F Damp=F
 DIIS: error= 3.31D-05 at cycle   2 NSaved=   2.
 NSaved= 2 IEnMin= 2 EnMin= -346.914552016902     IErMin= 1 ErrMin= 2.65D-05
 ErrMax= 3.31D-05  0.00D+00 EMaxC= 1.00D-01 BMatC= 4.39D-07 BMatP= 7.86D-07
 IDIUse=1 WtCom= 1.00D+00 WtEn= 0.00D+00
 Coeff-Com:  0.405D+00 0.595D+00
 Coeff:      0.405D+00 0.595D+00
 Gap=     0.327 Goal=   None    Shift=    0.000
 RMSDP=1.86D-06 MaxDP=7.72D-05 DE=-1.87D-07 OVMax= 2.93D-04

 Cycle   9  Pass 1  IDiag  1:
 RMSU=  1.78D-06    CP:  1.00D+00  9.16D-01
 E= -346.914552314027     Delta-E=       -0.000000297125 Rises=F Damp=F
 DIIS: error= 1.31D-05 at cycle   3 NSaved=   3.
 NSaved= 3 IEnMin= 3 EnMin= -346.914552314027     IErMin= 3 ErrMin= 1.31D-05
 ErrMax= 1.31D-05  0.00D+00 EMaxC= 1.00D-01 BMatC= 7.89D-08 BMatP= 4.39D-07
 IDIUse=1 WtCom= 1.00D+00 WtEn= 0.00D+00
 Coeff-Com: -0.101D-01 0.291D+00 0.719D+00
 Coeff:     -0.101D-01 0.291D+00 0.719D+00
 Gap=     0.327 Goal=   None    Shift=    0.000
 RMSDP=5.98D-07 MaxDP=2.30D-05 DE=-2.97D-07 OVMax= 9.73D-05

 Cycle  10  Pass 1  IDiag  1:
 RMSU=  2.89D-07    CP:  1.00D+00  9.59D-01  7.49D-01
 E= -346.914552374362     Delta-E=       -0.000000060336 Rises=F Damp=F
 DIIS: error= 2.19D-06 at cycle   4 NSaved=   4.
 NSaved= 4 IEnMin= 4 EnMin= -346.914552374362     IErMin= 4 ErrMin= 2.19D-06
 ErrMax= 2.19D-06  0.00D+00 EMaxC= 1.00D-01 BMatC= 3.67D-09 BMatP= 7.89D-08
 IDIUse=1 WtCom= 1.00D+00 WtEn= 0.00D+00
 Coeff-Com: -0.159D-01 0.124D+00 0.351D+00 0.541D+00
 Coeff:     -0.159D-01 0.124D+00 0.351D+00 0.541D+00
 Gap=     0.327 Goal=   None    Shift=    0.000
 RMSDP=1.03D-07 MaxDP=5.64D-06 DE=-6.03D-08 OVMax= 1.08D-05

 Cycle  11  Pass 1  IDiag  1:
 RMSU=  9.12D-08    CP:  1.00D+00  9.61D-01  7.66D-01  8.75D-01
 E= -346.914552377222     Delta-E=       -0.000000002860 Rises=F Damp=F
 DIIS: error= 3.27D-07 at cycle   5 NSaved=   5.
 NSaved= 5 IEnMin= 5 EnMin= -346.914552377222     IErMin= 5 ErrMin= 3.27D-07
 ErrMax= 3.27D-07  0.00D+00 EMaxC= 1.00D-01 BMatC= 8.70D-11 BMatP= 3.67D-09
 IDIUse=1 WtCom= 1.00D+00 WtEn= 0.00D+00
 Coeff-Com: -0.202D-02-0.787D-02-0.482D-02 0.849D-01 0.930D+00
 Coeff:     -0.202D-02-0.787D-02-0.482D-02 0.849D-01 0.930D+00
 Gap=     0.327 Goal=   None    Shift=    0.000
 RMSDP=3.99D-08 MaxDP=2.34D-06 DE=-2.86D-09 OVMax= 2.70D-06

 Cycle  12  Pass 1  IDiag  1:
 RMSU=  2.38D-08    CP:  1.00D+00  9.62D-01  7.73D-01  9.72D-01  1.10D+00
 E= -346.914552377309     Delta-E=       -0.000000000087 Rises=F Damp=F
 DIIS: error= 2.36D-07 at cycle   6 NSaved=   6.
 NSaved= 6 IEnMin= 6 EnMin= -346.914552377309     IErMin= 6 ErrMin= 2.36D-07
 ErrMax= 2.36D-07  0.00D+00 EMaxC= 1.00D-01 BMatC= 2.99D-11 BMatP= 8.70D-11
 IDIUse=1 WtCom= 1.00D+00 WtEn= 0.00D+00
 Coeff-Com:  0.763D-03-0.162D-01-0.370D-01-0.141D-01 0.447D+00 0.619D+00
 Coeff:      0.763D-03-0.162D-01-0.370D-01-0.141D-01 0.447D+00 0.619D+00
 Gap=     0.327 Goal=   None    Shift=    0.000
 RMSDP=1.33D-08 MaxDP=6.06D-07 DE=-8.65D-11 OVMax= 1.60D-06

 Cycle  13  Pass 1  IDiag  1:
 RMSU=  8.82D-09    CP:  1.00D+00  9.62D-01  7.75D-01  9.87D-01  1.16D+00
                    CP:  7.37D-01
 E= -346.914552377324     Delta-E=       -0.000000000015 Rises=F Damp=F
 DIIS: error= 5.23D-08 at cycle   7 NSaved=   7.
 NSaved= 7 IEnMin= 7 EnMin= -346.914552377324     IErMin= 7 ErrMin= 5.23D-08
 ErrMax= 5.23D-08  0.00D+00 EMaxC= 1.00D-01 BMatC= 1.76D-12 BMatP= 2.99D-11
 IDIUse=1 WtCom= 1.00D+00 WtEn= 0.00D+00
 Coeff-Com:  0.464D-03-0.525D-02-0.134D-01-0.136D-01 0.653D-01 0.225D+00
 Coeff-Com:  0.742D+00
 Coeff:      0.464D-03-0.525D-02-0.134D-01-0.136D-01 0.653D-01 0.225D+00
 Coeff:      0.742D+00
 Gap=     0.327 Goal=   None    Shift=    0.000
 RMSDP=3.85D-09 MaxDP=1.63D-07 DE=-1.55D-11 OVMax= 2.96D-07

 SCF Done:  E(RM062X) =  -346.914552377     A.U. after   13 cycles
            NFock= 13  Conv=0.39D-08     -V/T= 2.0060
 KE= 3.448452218560D+02 PE=-1.475864570892D+03 EE= 4.510210933734D+02
 Leave Link  502 at Wed Sep 25 21:44:27 2019, MaxMem=   671088640 cpu:            1912.4 elap:             956.6
 (Enter /shared/centos7/gaussian/g16/l801.exe)
 DoSCS=F DFT=T ScalE2(SS,OS)=  1.000000  1.000000
 Range of M.O.s used for correlation:     1   350
 NBasis=   350 NAE=    28 NBE=    28 NFC=     0 NFV=     0
 NROrb=    350 NOA=    28 NOB=    28 NVA=   322 NVB=   322

 **** Warning!!: The largest alpha MO coefficient is  0.11278635D+02

 Leave Link  801 at Wed Sep 25 21:44:28 2019, MaxMem=   671088640 cpu:               1.6 elap:               0.8
 (Enter /shared/centos7/gaussian/g16/l1101.exe)
 Using compressed storage, NAtomX=    17.
 Will process     18 centers per pass.
 Leave Link 1101 at Wed Sep 25 21:44:59 2019, MaxMem=   671088640 cpu:              62.1 elap:              31.1
 (Enter /shared/centos7/gaussian/g16/l1102.exe)
 Symmetrizing basis deriv contribution to polar:
 IMax=3 JMax=2 DiffMx= 0.00D+00
 Leave Link 1102 at Wed Sep 25 21:45:02 2019, MaxMem=   671088640 cpu:               5.3 elap:               2.7
 (Enter /shared/centos7/gaussian/g16/l1110.exe)
 Forming Gx(P) for the SCF density, NAtomX=    17.
 Integral derivatives from FoFJK, PRISM(SPDF).
 Do as many integral derivatives as possible in FoFJK.
 G2DrvN: MDV=     671087280.
 G2DrvN: will do    18 centers at a time, making    1 passes.
 Calling FoFCou, ICntrl=  3107 FMM=F I1Cent=   0 AccDes= 0.00D+00.
 FoFJK:  IHMeth= 1 ICntrl=    3107 DoSepK=F KAlg= 0 I1Cent=           0 FoldK=F
 IRaf=         0 NMat=       1 IRICut=       1 DoRegI=T DoRafI=F ISym2E= 0 IDoP0=0 IntGTp=1.
 FoFCou: FMM=F IPFlag=           0 FMFlag=      100000 FMFlg1=           0
         NFxFlg=           0 DoJE=F BraDBF=F KetDBF=F FulRan=T
         wScrn=  0.000000 ICntrl=      3107 IOpCl=  0 I1Cent=           0 NGrid=           0
         NMat0=    1 NMatS0=      1 NMatT0=    0 NMatD0=    1 NMtDS0=    0 NMtDT0=    0
 Symmetry not used in FoFCou.
 End of G2Drv F.D. properties file   721 does not exist.
 End of G2Drv F.D. properties file   722 does not exist.
 End of G2Drv F.D. properties file   788 does not exist.
 Leave Link 1110 at Wed Sep 25 22:12:47 2019, MaxMem=   671088640 cpu:            3329.3 elap:            1664.9
 (Enter /shared/centos7/gaussian/g16/l1002.exe)
 Minotr:  Closed shell wavefunction.
          IDoAtm=11111111111111111
          Direct CPHF calculation.
          Differentiating once with respect to nuclear coordinates.
          Requested convergence is 1.0D-08 RMS, and 1.0D-07 maximum.
          Secondary convergence is 1.0D-12 RMS, and 1.0D-12 maximum.
          NewPWx=T KeepS1=F KeepF1=F KeepIn=T MapXYZ=F SortEE=F KeepMc=T.
         5046 words used for storage of precomputed grid.
 Two-electron integrals replicated using symmetry.
          MDV=     671088640 using IRadAn=       1.
          Solving linear equations simultaneously, MaxMat=     380.
 FoF2E skips out because all densities are zero.
 CalDSu exits because no D1Ps are significant.
 FoFJK:  IHMeth= 1 ICntrl=       0 DoSepK=F KAlg= 0 I1Cent=           0 FoldK=F
 IRaf= 970000000 NMat=      51 IRICut=     127 DoRegI=T DoRafI=T ISym2E= 2 IDoP0=3 IntGTp=3.
 FoFCou: FMM=F IPFlag=           0 FMFlag=      100000 FMFlg1=           0
         NFxFlg=           0 DoJE=F BraDBF=F KetDBF=F FulRan=T
         wScrn=  0.000000 ICntrl=         0 IOpCl=  0 I1Cent=           0 NGrid=           0
         NMat0=   51 NMatS0=     51 NMatT0=    0 NMatD0=   51 NMtDS0=    0 NMtDT0=    0
 Integrals replicated using symmetry in FoFCou.
 Raff kept on since  95.47% of shell-pairs survive, threshold=   0.20 IRatSp=95.
          There are    54 degrees of freedom in the 1st order CPHF.  IDoFFX=6 NUNeed=     0.
     48 vectors produced by pass  0 Test12= 1.67D-14 1.85D-09 XBig12= 8.00D-02 7.03D-02.
 AX will form    48 AO Fock derivatives at one time.
     48 vectors produced by pass  1 Test12= 1.67D-14 1.85D-09 XBig12= 7.25D-03 3.44D-02.
     48 vectors produced by pass  2 Test12= 1.67D-14 1.85D-09 XBig12= 2.10D-04 3.07D-03.
     48 vectors produced by pass  3 Test12= 1.67D-14 1.85D-09 XBig12= 2.17D-06 2.44D-04.
     48 vectors produced by pass  4 Test12= 1.67D-14 1.85D-09 XBig12= 1.40D-08 1.67D-05.
     48 vectors produced by pass  5 Test12= 1.67D-14 1.85D-09 XBig12= 7.13D-11 1.19D-06.
     28 vectors produced by pass  6 Test12= 1.67D-14 1.85D-09 XBig12= 3.37D-13 6.37D-08.
      7 vectors produced by pass  7 Test12= 1.67D-14 1.85D-09 XBig12= 1.23D-15 4.23D-09.
 InvSVY:  IOpt=1 It=  1 EMax= 2.22D-16
 Solved reduced A of dimension   323 with    54 vectors.
 End of Minotr F.D. properties file   721 does not exist.
 End of Minotr F.D. properties file   722 does not exist.
 End of Minotr F.D. properties file   788 does not exist.
 Leave Link 1002 at Wed Sep 25 23:00:23 2019, MaxMem=   671088640 cpu:            5711.3 elap:            2856.2
 (Enter /shared/centos7/gaussian/g16/l601.exe)
 Copying SCF densities to generalized density rwf, IOpCl= 0 IROHF=0.

 **********************************************************************

            Population analysis using the SCF density.

 **********************************************************************

 Orbital symmetries:
       Occupied  (A) (A) (A) (A) (A) (A) (A) (A) (A) (A) (A) (A)
                 (A) (A) (A) (A) (A) (A) (A) (A) (A) (A) (A) (A)
                 (A) (A) (A) (A)
       Virtual   (A) (A) (A) (A) (A) (A) (A) (A) (A) (A) (A) (A)
                 (A) (A) (A) (A) (A) (A) (A) (A) (A) (A) (A) (A)
                 (A) (A) (A) (A) (A) (A) (A) (A) (A) (A) (A) (A)
                 (A) (A) (A) (A) (A) (A) (A) (A) (A) (A) (A) (A)
                 (A) (A) (A) (A) (A) (A) (A) (A) (A) (A) (A) (A)
                 (A) (A) (A) (A) (A) (A) (A) (A) (A) (A) (A) (A)
                 (A) (A) (A) (A) (A) (A) (A) (A) (A) (A) (A) (A)
                 (A) (A) (A) (A) (A) (A) (A) (A) (A) (A) (A) (A)
                 (A) (A) (A) (A) (A) (A) (A) (A) (A) (A) (A) (A)
                 (A) (A) (A) (A) (A) (A) (A) (A) (A) (A) (A) (A)
                 (A) (A) (A) (A) (A) (A) (A) (A) (A) (A) (A) (A)
                 (A) (A) (A) (A) (A) (A) (A) (A) (A) (A) (A) (A)
                 (A) (A) (A) (A) (A) (A) (A) (A) (A) (A) (A) (A)
                 (A) (A) (A) (A) (A) (A) (A) (A) (A) (A) (A) (A)
                 (A) (A) (A) (A) (A) (A) (A) (A) (A) (A) (A) (A)
                 (A) (A) (A) (A) (A) (A) (A) (A) (A) (A) (A) (A)
                 (A) (A) (A) (A) (A) (A) (A) (A) (A) (A) (A) (A)
                 (A) (A) (A) (A) (A) (A) (A) (A) (A) (A) (A) (A)
                 (A) (A) (A) (A) (A) (A) (A) (A) (A) (A) (A) (A)
                 (A) (A) (A) (A) (A) (A) (A) (A) (A) (A) (A) (A)
                 (A) (A) (A) (A) (A) (A) (A) (A) (A) (A) (A) (A)
                 (A) (A) (A) (A) (A) (A) (A) (A) (A) (A) (A) (A)
                 (A) (A) (A) (A) (A) (A) (A) (A) (A) (A) (A) (A)
                 (A) (A) (A) (A) (A) (A) (A) (A) (A) (A) (A) (A)
                 (A) (A) (A) (A) (A) (A) (A) (A) (A) (A) (A) (A)
                 (A) (A) (A) (A) (A) (A) (A) (A) (A) (A) (A) (A)
                 (A) (A) (A) (A) (A) (A) (A) (A) (A) (A)
 The electronic state is 1-A.
 Alpha  occ. eigenvalues --  -19.64860 -19.63984 -10.60864 -10.58030 -10.57890
 Alpha  occ. eigenvalues --  -10.55011 -10.54532  -1.18948  -1.15455  -0.90880
 Alpha  occ. eigenvalues --   -0.84133  -0.79919  -0.73482  -0.64484  -0.61044
 Alpha  occ. eigenvalues --   -0.57483  -0.54023  -0.53440  -0.50877  -0.49300
 Alpha  occ. eigenvalues --   -0.47376  -0.45205  -0.44529  -0.42958  -0.40885
 Alpha  occ. eigenvalues --   -0.40129  -0.38458  -0.27077
 Alpha virt. eigenvalues --    0.05653   0.08122   0.08926   0.09544   0.10449
 Alpha virt. eigenvalues --    0.10662   0.13958   0.14406   0.14918   0.15483
 Alpha virt. eigenvalues --    0.16883   0.20037   0.20197   0.22486   0.27068
 Alpha virt. eigenvalues --    0.27788   0.29902   0.31143   0.32817   0.34786
 Alpha virt. eigenvalues --    0.35199   0.35370   0.36954   0.37796   0.39643
 Alpha virt. eigenvalues --    0.40140   0.40845   0.42205   0.43426   0.45293
 Alpha virt. eigenvalues --    0.45435   0.47357   0.47461   0.48266   0.49036
 Alpha virt. eigenvalues --    0.50694   0.51883   0.52135   0.52778   0.53367
 Alpha virt. eigenvalues --    0.53928   0.55465   0.57476   0.62760   0.64820
 Alpha virt. eigenvalues --    0.66663   0.69469   0.72316   0.73897   0.75356
 Alpha virt. eigenvalues --    0.78564   0.79066   0.81205   0.83144   0.84956
 Alpha virt. eigenvalues --    0.85903   0.87788   0.88827   0.90331   0.92757
 Alpha virt. eigenvalues --    0.93746   0.97089   0.98692   0.98975   1.02032
 Alpha virt. eigenvalues --    1.03048   1.04489   1.05562   1.06994   1.07337
 Alpha virt. eigenvalues --    1.08305   1.09005   1.09716   1.11120   1.13543
 Alpha virt. eigenvalues --    1.15133   1.16543   1.17787   1.19315   1.21117
 Alpha virt. eigenvalues --    1.22666   1.24931   1.27373   1.27736   1.28476
 Alpha virt. eigenvalues --    1.30950   1.31568   1.33514   1.35109   1.35388
 Alpha virt. eigenvalues --    1.36620   1.37953   1.39452   1.39969   1.44372
 Alpha virt. eigenvalues --    1.45622   1.46924   1.49684   1.50397   1.52318
 Alpha virt. eigenvalues --    1.53869   1.54327   1.57311   1.57827   1.63989
 Alpha virt. eigenvalues --    1.65872   1.72033   1.73808   1.77407   1.83909
 Alpha virt. eigenvalues --    1.96500   1.97543   2.01725   2.02607   2.07047
 Alpha virt. eigenvalues --    2.10963   2.12456   2.14256   2.18433   2.18880
 Alpha virt. eigenvalues --    2.26511   2.29599   2.31485   2.32243   2.35496
 Alpha virt. eigenvalues --    2.36012   2.39992   2.42810   2.45753   2.50404
 Alpha virt. eigenvalues --    2.52620   2.54330   2.56555   2.58707   2.61431
 Alpha virt. eigenvalues --    2.61840   2.64587   2.65459   2.66992   2.69509
 Alpha virt. eigenvalues --    2.71708   2.74416   2.76669   2.77419   2.78518
 Alpha virt. eigenvalues --    2.79432   2.81598   2.83438   2.84978   2.86533
 Alpha virt. eigenvalues --    2.88535   2.90074   2.91479   2.94180   2.95301
 Alpha virt. eigenvalues --    2.95625   2.97652   2.99574   3.00795   3.01369
 Alpha virt. eigenvalues --    3.02990   3.04088   3.07199   3.07946   3.08141
 Alpha virt. eigenvalues --    3.08790   3.09294   3.11191   3.12655   3.13355
 Alpha virt. eigenvalues --    3.15628   3.18145   3.19067   3.20679   3.23273
 Alpha virt. eigenvalues --    3.23931   3.25795   3.27702   3.29275   3.30934
 Alpha virt. eigenvalues --    3.31666   3.31900   3.33706   3.37179   3.38149
 Alpha virt. eigenvalues --    3.40978   3.41514   3.43556   3.44968   3.46401
 Alpha virt. eigenvalues --    3.48929   3.51296   3.52716   3.53820   3.55008
 Alpha virt. eigenvalues --    3.56562   3.58017   3.60249   3.63195   3.65252
 Alpha virt. eigenvalues --    3.67557   3.68281   3.69947   3.70703   3.71693
 Alpha virt. eigenvalues --    3.73390   3.75390   3.76097   3.78961   3.80284
 Alpha virt. eigenvalues --    3.81489   3.83771   3.85147   3.88628   3.89828
 Alpha virt. eigenvalues --    3.92619   3.93349   3.96069   3.97303   3.98541
 Alpha virt. eigenvalues --    3.99924   4.00642   4.02234   4.03960   4.04554
 Alpha virt. eigenvalues --    4.05582   4.08124   4.09281   4.11862   4.13753
 Alpha virt. eigenvalues --    4.13823   4.14822   4.17745   4.19247   4.21838
 Alpha virt. eigenvalues --    4.22679   4.25726   4.26810   4.28684   4.34735
 Alpha virt. eigenvalues --    4.35827   4.37959   4.40163   4.41713   4.44354
 Alpha virt. eigenvalues --    4.48055   4.51022   4.54900   4.58354   4.60341
 Alpha virt. eigenvalues --    4.62255   4.64306   4.66810   4.70412   4.70685
 Alpha virt. eigenvalues --    4.73178   4.75907   4.78235   4.82308   4.84648
 Alpha virt. eigenvalues --    4.85452   4.87055   4.90490   4.93239   4.95923
 Alpha virt. eigenvalues --    4.96762   4.98544   4.99938   5.03453   5.03604
 Alpha virt. eigenvalues --    5.06370   5.08084   5.09241   5.10130   5.15755
 Alpha virt. eigenvalues --    5.18656   5.21488   5.27740   5.28177   5.29744
 Alpha virt. eigenvalues --    5.31599   5.34317   5.38706   5.41814   5.44328
 Alpha virt. eigenvalues --    5.54150   5.55169   5.61596   5.69873   5.73673
 Alpha virt. eigenvalues --    5.76065   5.78625   5.81064   5.84467   5.88002
 Alpha virt. eigenvalues --    5.93626   6.01642   6.10946   6.27459   6.38453
 Alpha virt. eigenvalues --    6.44042   6.49867   6.63570   6.66578   6.69840
 Alpha virt. eigenvalues --    6.72553   6.81593   6.83128   6.91913   7.00304
 Alpha virt. eigenvalues --    7.11937   7.21426   7.25779   7.41924   7.46715
 Alpha virt. eigenvalues --    9.97042  10.81295  11.85500  12.32928  13.08044
 Alpha virt. eigenvalues --   13.48358  14.28041
          Condensed to atoms (all electrons):
               1          2          3          4          5          6
     1  O    7.838792   0.002773   0.307277  -0.053035  -0.057287   0.352242
     2  O    0.002773   7.785060   0.002391  -0.014244  -0.008396  -0.077420
     3  C    0.307277   0.002391   4.948247   0.276242   0.276938  -0.070701
     4  C   -0.053035  -0.014244   0.276242   5.134640  -0.087419  -0.008789
     5  C   -0.057287  -0.008396   0.276938  -0.087419   5.138403  -0.000818
     6  C    0.352242  -0.077420  -0.070701  -0.008789  -0.000818   5.062386
     7  C   -0.079789   0.327044   0.000190   0.011944   0.005321   0.479335
     8  H   -0.033095   0.000016   0.411554  -0.047712  -0.051174   0.007692
     9  H   -0.005412  -0.002568  -0.042715   0.411277   0.003835   0.003985
    10  H    0.003625   0.001195  -0.026525   0.368790   0.007598  -0.001335
    11  H    0.004891  -0.003631  -0.045090   0.380365   0.000177   0.002020
    12  H    0.005187   0.000650  -0.045046  -0.001030   0.375421  -0.000048
    13  H   -0.002366  -0.002180  -0.041962   0.007548   0.396661   0.003174
    14  H    0.004295   0.001360  -0.031642   0.007571   0.376340  -0.001015
    15  H   -0.035909   0.003533   0.004101   0.000283   0.000227   0.417124
    16  H    0.003488  -0.037248  -0.000912   0.000240  -0.000170  -0.067348
    17  H    0.001361   0.363548   0.002141  -0.006040   0.002050  -0.008642
               7          8          9         10         11         12
     1  O   -0.079789  -0.033095  -0.005412   0.003625   0.004891   0.005187
     2  O    0.327044   0.000016  -0.002568   0.001195  -0.003631   0.000650
     3  C    0.000190   0.411554  -0.042715  -0.026525  -0.045090  -0.045046
     4  C    0.011944  -0.047712   0.411277   0.368790   0.380365  -0.001030
     5  C    0.005321  -0.051174   0.003835   0.007598   0.000177   0.375421
     6  C    0.479335   0.007692   0.003985  -0.001335   0.002020  -0.000048
     7  C    5.011922  -0.001104   0.000510  -0.000218  -0.004081  -0.003914
     8  H   -0.001104   0.597912   0.003767  -0.013941   0.005729   0.007100
     9  H    0.000510   0.003767   0.533443  -0.028450  -0.032490   0.001104
    10  H   -0.000218  -0.013941  -0.028450   0.594786  -0.029929  -0.000446
    11  H   -0.004081   0.005729  -0.032490  -0.029929   0.627296  -0.001127
    12  H   -0.003914   0.007100   0.001104  -0.000446  -0.001127   0.633964
    13  H   -0.001768   0.002362  -0.000262  -0.000488   0.000269  -0.030554
    14  H   -0.000032  -0.017187  -0.000511  -0.000301  -0.000472  -0.029167
    15  H   -0.063924  -0.000288  -0.000417   0.000057   0.000059  -0.000002
    16  H    0.417422   0.000040  -0.000125   0.000020  -0.000123   0.000068
    17  H   -0.040015   0.000455  -0.003160   0.002207   0.004003  -0.004196
              13         14         15         16         17
     1  O   -0.002366   0.004295  -0.035909   0.003488   0.001361
     2  O   -0.002180   0.001360   0.003533  -0.037248   0.363548
     3  C   -0.041962  -0.031642   0.004101  -0.000912   0.002141
     4  C    0.007548   0.007571   0.000283   0.000240  -0.006040
     5  C    0.396661   0.376340   0.000227  -0.000170   0.002050
     6  C    0.003174  -0.001015   0.417124  -0.067348  -0.008642
     7  C   -0.001768  -0.000032  -0.063924   0.417422  -0.040015
     8  H    0.002362  -0.017187  -0.000288   0.000040   0.000455
     9  H   -0.000262  -0.000511  -0.000417  -0.000125  -0.003160
    10  H   -0.000488  -0.000301   0.000057   0.000020   0.002207
    11  H    0.000269  -0.000472   0.000059  -0.000123   0.004003
    12  H   -0.030554  -0.029167  -0.000002   0.000068  -0.004196
    13  H    0.534935  -0.023897  -0.000309  -0.000079  -0.000163
    14  H   -0.023897   0.598910   0.000045   0.000022  -0.000274
    15  H   -0.000309   0.000045   0.533694  -0.007065  -0.001220
    16  H   -0.000079   0.000022  -0.007065   0.527987   0.005204
    17  H   -0.000163  -0.000274  -0.001220   0.005204   0.427517
 Mulliken charges:
               1
     1  O   -0.257038
     2  O   -0.341882
     3  C    0.075511
     4  C   -0.380631
     5  C   -0.377708
     6  C   -0.091842
     7  C   -0.058844
     8  H    0.127876
     9  H    0.158190
    10  H    0.123353
    11  H    0.092136
    12  H    0.092036
    13  H    0.159080
    14  H    0.115954
    15  H    0.150011
    16  H    0.158577
    17  H    0.255221
 Sum of Mulliken charges =  -0.00000
 Mulliken charges with hydrogens summed into heavy atoms:
               1
     1  O   -0.257038
     2  O   -0.086660
     3  C    0.203386
     4  C   -0.006952
     5  C   -0.010638
     6  C    0.058168
     7  C    0.099733
 APT charges:
               1
     1  O   -0.177696
     2  O   -0.243187
     3  C   -0.245665
     4  C   -1.008865
     5  C   -1.042682
     6  C   -0.545094
     7  C   -0.445780
     8  H    0.456839
     9  H    0.261650
    10  H    0.458925
    11  H    0.268796
    12  H    0.231909
    13  H    0.296382
    14  H    0.476270
    15  H    0.528161
    16  H    0.566095
    17  H    0.163940
 Sum of APT charges =  -0.00000
 APT charges with hydrogens summed into heavy atoms:
               1
     1  O   -0.177696
     2  O   -0.079246
     3  C    0.211175
     4  C   -0.019494
     5  C   -0.038120
     6  C   -0.016933
     7  C    0.120315
 Electronic spatial extent (au):  <R**2>=            734.9255
 Charge=             -0.0000 electrons
 Dipole moment (field-independent basis, Debye):
    X=             -1.5734    Y=              0.0135    Z=              0.2518  Tot=              1.5935
 Quadrupole moment (field-independent basis, Debye-Ang):
   XX=            -40.2026   YY=            -47.7782   ZZ=            -44.4525
   XY=              3.9458   XZ=             -0.0937   YZ=             -0.2322
 Traceless Quadrupole moment (field-independent basis, Debye-Ang):
   XX=              3.9418   YY=             -3.6338   ZZ=             -0.3081
   XY=              3.9458   XZ=             -0.0937   YZ=             -0.2322
 Octapole moment (field-independent basis, Debye-Ang**2):
  XXX=              5.3989  YYY=              1.7192  ZZZ=              0.3028  XYY=             -0.8816
  XXY=              7.1088  XXZ=              0.1744  XZZ=             -3.2164  YZZ=              0.0103
  YYZ=              0.4904  XYZ=             -0.0904
 Hexadecapole moment (field-independent basis, Debye-Ang**3):
 XXXX=           -431.5845 YYYY=           -275.3859 ZZZZ=           -221.6205 XXXY=             -8.3224
 XXXZ=             -0.6770 YYYX=             11.7011 YYYZ=             -0.3292 ZZZX=             -1.7994
 ZZZY=             -0.2382 XXYY=           -126.7116 XXZZ=           -117.2385 YYZZ=            -86.8861
 XXYZ=              1.1102 YYXZ=             -0.1083 ZZXY=             -3.8241
 N-N= 3.330837032849D+02 E-N=-1.475864573318D+03  KE= 3.448452218560D+02
  Exact polarizability:   0.000   0.000   0.000   0.000   0.000   0.000
 Approx polarizability:  85.481  -5.595  87.837  -0.578   0.255  66.759
 No NMR shielding tensors so no spin-rotation constants.
 Leave Link  601 at Wed Sep 25 23:00:48 2019, MaxMem=   671088640 cpu:              50.5 elap:              25.3
 (Enter /shared/centos7/gaussian/g16/l701.exe)
 SCFChk:  SCF convergence  3.85D-09 required  1.00D-08
 ... and contract with generalized density number  0.
 Compute integral second derivatives.
 Entering OneElI...
 Calculate overlap and kinetic energy integrals
    NBasis = 395  MinDer = 2  MaxDer = 2
 Requested accuracy = 0.1000D-12
 PrmmSu-InSpLW:  IPartL=    0 NPrtUS=   20 NPrtUL=    1 DoSpLW=F IThBeg=    0 IThEnd=   19 NThAct=   20.
 PrsmSu:  NPrtUS=  20 ThrOK=T IAlg=1 NPAlg=1 LenDen=           0 ISkipM=0 DoSpLW=F IThBeg=    0 IThEnd=   19.
 Prism:   IPart=     0 DynPar=F LinDyn=F Incr=           4.
 PRISM was handed    33306117 working-precision words and  8514 shell-pairs
 PRISM was handed    33306117 working-precision words and  8514 shell-pairs
 PRISM was handed    33306117 working-precision words and  8514 shell-pairs
 PRISM was handed    33306117 working-precision words and  8514 shell-pairs
 PRISM was handed    33306117 working-precision words and  8514 shell-pairs
 PRISM was handed    33306117 working-precision words and  8514 shell-pairs
 PRISM was handed    33306117 working-precision words and  8514 shell-pairs
 PRISM was handed    33306117 working-precision words and  8514 shell-pairs
 IPart=  1 NShTot=         466 NBatch=          76 AvBLen=         6.1
 IPart=  0 NShTot=         467 NBatch=          77 AvBLen=         6.1
 PRISM was handed    33306117 working-precision words and  8514 shell-pairs
 PRISM was handed    33306117 working-precision words and  8514 shell-pairs
 PRISM was handed    33306117 working-precision words and  8514 shell-pairs
 PRISM was handed    33306117 working-precision words and  8514 shell-pairs
 PRISM was handed    33306117 working-precision words and  8514 shell-pairs
 PRISM was handed    33306117 working-precision words and  8514 shell-pairs
 PRISM was handed    33306117 working-precision words and  8514 shell-pairs
 PRISM was handed    33306117 working-precision words and  8514 shell-pairs
 PRISM was handed    33306117 working-precision words and  8514 shell-pairs
 IPart= 16 NShTot=         404 NBatch=          40 AvBLen=        10.1
 IPart=  2 NShTot=         457 NBatch=          70 AvBLen=         6.5
 IPart= 18 NShTot=         402 NBatch=          40 AvBLen=        10.1
 IPart=  7 NShTot=         429 NBatch=          49 AvBLen=         8.8
 PRISM was handed    33306117 working-precision words and  8514 shell-pairs
 IPart=  9 NShTot=         417 NBatch=          48 AvBLen=         8.7
 PRISM was handed    33306117 working-precision words and  8514 shell-pairs
 IPart=  4 NShTot=         446 NBatch=          61 AvBLen=         7.3
 PRISM was handed    33306117 working-precision words and  8514 shell-pairs
 IPart=  3 NShTot=         454 NBatch=          68 AvBLen=         6.7
 IPart=  6 NShTot=         441 NBatch=          58 AvBLen=         7.6
 IPart= 14 NShTot=         407 NBatch=          41 AvBLen=         9.9
 IPart=  5 NShTot=         442 NBatch=          58 AvBLen=         7.6
 IPart= 13 NShTot=         409 NBatch=          42 AvBLen=         9.7
 IPart=  8 NShTot=         423 NBatch=          48 AvBLen=         8.8
 IPart= 12 NShTot=         409 NBatch=          42 AvBLen=         9.7
 IPart= 11 NShTot=         415 NBatch=          46 AvBLen=         9.0
 IPart= 19 NShTot=         400 NBatch=          39 AvBLen=        10.3
 IPart= 10 NShTot=         416 NBatch=          47 AvBLen=         8.9
 IPart= 15 NShTot=         406 NBatch=          41 AvBLen=         9.9
 IPart= 17 NShTot=         404 NBatch=          40 AvBLen=        10.1
 PrSmSu:  NxtVal=             81.
 Entering OneElI...
 Calculate potential energy integrals
    NBasis = 395  MinDer = 2  MaxDer = 2
 Requested accuracy = 0.1000D-12
 PrmmSu-InSpLW:  IPartL=    0 NPrtUS=   20 NPrtUL=    1 DoSpLW=F IThBeg=    0 IThEnd=   19 NThAct=   20.
 PrsmSu:  NPrtUS=  20 ThrOK=T IAlg=1 NPAlg=1 LenDen=           0 ISkipM=0 DoSpLW=F IThBeg=    0 IThEnd=   19.
 Prism:   IPart=     0 DynPar=F LinDyn=F Incr=          68.
 PRISM was handed    33346263 working-precision words and  8079 shell-pairs
 PRISM was handed    33346263 working-precision words and  8079 shell-pairs
 PRISM was handed    33346263 working-precision words and  8079 shell-pairs
 PRISM was handed    33346263 working-precision words and  8079 shell-pairs
 PRISM was handed    33346263 working-precision words and  8079 shell-pairs
 PRISM was handed    33346263 working-precision words and  8079 shell-pairs
 PRISM was handed    33346263 working-precision words and  8079 shell-pairs
 PRISM was handed    33346263 working-precision words and  8079 shell-pairs
 PRISM was handed    33346263 working-precision words and  8079 shell-pairs
 PRISM was handed    33346263 working-precision words and  8079 shell-pairs
 PRISM was handed    33346263 working-precision words and  8079 shell-pairs
 PRISM was handed    33346263 working-precision words and  8079 shell-pairs
 PRISM was handed    33346263 working-precision words and  8079 shell-pairs
 PRISM was handed    33346263 working-precision words and  8079 shell-pairs
 PRISM was handed    33346263 working-precision words and  8079 shell-pairs
 PRISM was handed    33346263 working-precision words and  8079 shell-pairs
 PRISM was handed    33346263 working-precision words and  8079 shell-pairs
 PRISM was handed    33346263 working-precision words and  8079 shell-pairs
 PRISM was handed    33346263 working-precision words and  8079 shell-pairs
 PRISM was handed    33346263 working-precision words and  8079 shell-pairs
 IPart=  0 NShTot=        7548 NBatch=         444 AvBLen=        17.0
 IPart=  1 NShTot=        7514 NBatch=         442 AvBLen=        17.0
 IPart=  9 NShTot=        6783 NBatch=         399 AvBLen=        17.0
 IPart= 12 NShTot=        6664 NBatch=         392 AvBLen=        17.0
 IPart= 16 NShTot=        6545 NBatch=         385 AvBLen=        17.0
 IPart= 18 NShTot=        6460 NBatch=         380 AvBLen=        17.0
 IPart= 14 NShTot=        6579 NBatch=         387 AvBLen=        17.0
 IPart= 19 NShTot=        6443 NBatch=         379 AvBLen=        17.0
 IPart= 17 NShTot=        6511 NBatch=         383 AvBLen=        17.0
 IPart= 15 NShTot=        6562 NBatch=         386 AvBLen=        17.0
 IPart= 10 NShTot=        6783 NBatch=         399 AvBLen=        17.0
 IPart= 11 NShTot=        6749 NBatch=         397 AvBLen=        17.0
 IPart=  8 NShTot=        6834 NBatch=         402 AvBLen=        17.0
 IPart= 13 NShTot=        6613 NBatch=         389 AvBLen=        17.0
 IPart=  2 NShTot=        7429 NBatch=         437 AvBLen=        17.0
 IPart=  4 NShTot=        7140 NBatch=         420 AvBLen=        17.0
 IPart=  5 NShTot=        7055 NBatch=         415 AvBLen=        17.0
 IPart=  3 NShTot=        7259 NBatch=         427 AvBLen=        17.0
 IPart=  6 NShTot=        7004 NBatch=         412 AvBLen=        17.0
 IPart=  7 NShTot=        6868 NBatch=         404 AvBLen=        17.0
 PrSmSu:  NxtVal=           1361.
 Polarizability after L701:
                1             2             3 
      1  0.000000D+00
      2  0.000000D+00  0.000000D+00
      3  0.000000D+00  0.000000D+00  0.000000D+00
 Dipole Derivatives after L701:
                 1             2             3             4             5 
      1  -0.274550D+00  0.920295D-02 -0.720976D-02 -0.250151D+00 -0.276493D+00
      2  -0.190927D+00 -0.312291D-01  0.152435D-02 -0.621840D+00 -0.108195D+00
      3  -0.100628D-01  0.307076D-02 -0.227308D+00  0.850348D-01  0.458610D-01
                 6             7             8             9            10 
      1   0.206409D-02 -0.818153D+00  0.614104D+00  0.358586D-01 -0.780097D+00
      2   0.111621D+00  0.188305D+00 -0.213557D+00 -0.129352D-01 -0.101206D-01
      3  -0.371214D+00  0.285402D-01  0.534571D-02  0.294716D+00 -0.114365D+00
                11            12            13            14            15 
      1  -0.377547D+00  0.617379D+00 -0.875585D+00 -0.413299D+00 -0.660531D+00
      2  -0.954704D+00  0.651851D-01 -0.218428D-02 -0.964249D+00 -0.515481D-01
      3   0.166181D+00 -0.129179D+01  0.349035D-01 -0.210359D+00 -0.128821D+01
                16            17            18            19            20 
      1  -0.778864D+00 -0.150802D+00  0.596979D-01 -0.968707D+00 -0.219882D+00
      2  -0.249008D+00 -0.830093D+00 -0.169667D-01  0.113805D+00 -0.403764D+00
      3   0.289482D-02 -0.286212D-01 -0.263258D-01 -0.351358D-01 -0.457827D-01
                21            22            23            24            25 
      1  -0.785128D-01  0.866430D+00 -0.350048D+00  0.101835D-01  0.124709D+00
      2  -0.545049D-01 -0.303888D+00  0.334157D+00  0.641323D-02 -0.316922D-01
      3   0.351314D-01  0.243506D-02  0.892091D-02  0.169931D+00  0.598852D+00
                26            27            28            29            30 
      1   0.267916D-01 -0.240022D-01  0.709093D+00 -0.195242D+00 -0.484428D+00
      2   0.121830D+00 -0.328143D-01  0.199654D-01  0.110354D+00 -0.567215D-01
      3   0.136471D+00  0.538411D+00 -0.519334D+00  0.146856D+00  0.557328D+00
                31            32            33            34            35 
      1   0.553237D-01  0.419233D+00  0.717191D-01 -0.191427D-01  0.276493D+00
      2  -0.156527D-01  0.710463D+00  0.145577D+00 -0.189105D+00  0.669181D+00
      3   0.181396D-01 -0.328467D+00  0.406020D-01 -0.104190D+00  0.322876D+00
                36            37            38            39            40 
      1  -0.387940D-01  0.515857D-01 -0.291494D-01  0.103765D+00  0.921078D+00
      2  -0.142744D+00  0.255255D-01  0.146776D+00 -0.296713D-01  0.138001D+00
      3   0.456901D-01 -0.522902D+00 -0.285819D+00  0.690783D+00  0.584218D+00
                41            42            43            44            45 
      1  -0.792648D-02  0.368397D+00  0.582938D+00  0.604154D+00  0.386835D-01
      2   0.125597D+00  0.975090D-01  0.445120D+00  0.908684D+00  0.416925D-01
      3   0.303245D-01  0.382137D+00  0.796798D-02  0.875114D-02  0.928600D-01
                46            47            48            49            50 
      1   0.139653D+01  0.113855D-01 -0.357454D-01  0.575634D-01  0.590239D-01
      2  -0.578161D-01  0.205083D+00 -0.512250D-02  0.741513D+00  0.173666D+00
      3   0.138241D-02 -0.657360D-02  0.966716D-01 -0.583789D-01  0.309651D-01
                51 
      1   0.214744D-01
      2  -0.664934D-01
      3   0.260592D+00
 Hessian after L701:
                1             2             3             4             5 
      1  0.521830D+01
      2 -0.189361D+01  0.122103D+02
      3 -0.135511D+00  0.321279D-02  0.185516D+02
      4 -0.639905D-01 -0.534749D+00 -0.250861D-02  0.799075D+01
      5 -0.445379D+00  0.553682D+00  0.115179D-01 -0.131238D+01  0.831417D+01
      6 -0.446865D-02  0.176643D-01 -0.370228D+00  0.944333D+00 -0.943327D-01
      7 -0.418895D+01  0.446486D+01  0.367425D-01  0.275936D+00 -0.425768D+00
      8  0.429548D+01 -0.463610D+01  0.403420D-01 -0.447549D+00 -0.441443D-02
      9  0.391490D-01  0.504469D-01 -0.942451D+01  0.108411D-01 -0.667331D-02
     10 -0.221903D+00  0.494577D-01 -0.205782D+00  0.209621D+00 -0.146358D+00
     11  0.163015D-01  0.159782D+00 -0.525337D+00 -0.234047D+00 -0.214489D+00
     12 -0.112684D+00 -0.406689D+00  0.324976D+00 -0.233291D+00  0.510912D-01
     13 -0.199097D+00  0.379920D-01  0.197710D+00  0.239020D+00 -0.206417D+00
     14  0.158826D-01  0.127893D+00  0.480671D+00 -0.315931D+00 -0.196316D+00
     15  0.103264D+00  0.343514D+00  0.339705D+00  0.253702D+00 -0.624216D-01
     16 -0.645606D-01 -0.195556D+01  0.783853D-01  0.256569D-01 -0.396771D+00
     17 -0.165806D+01 -0.941053D+01  0.186465D-01 -0.248914D+00  0.138957D+00
     18  0.999423D-01  0.264168D-02 -0.987963D+01  0.206144D-01 -0.216500D-01
     19 -0.182181D+00 -0.673532D-01  0.527024D-01 -0.751153D+01  0.357491D+01
     20 -0.212520D+00  0.334745D+00 -0.632274D-01  0.318584D+01 -0.128947D+01
     21  0.257636D-01 -0.421152D-01  0.418408D+00 -0.636893D-01  0.265667D-01
     22 -0.106760D-01 -0.261790D+00 -0.117504D-02  0.466829D-01 -0.379369D-01
     23 -0.300788D+00  0.299578D-02  0.128900D-02 -0.356514D-01  0.804240D-02
     24 -0.368942D-04  0.131256D-02  0.864677D-01  0.130810D-03  0.523258D-03
     25 -0.266998D-01 -0.404464D-01  0.481690D-01 -0.445300D-01  0.342127D-02
     26  0.562291D-02 -0.648853D-02 -0.838192D-02 -0.409961D-01 -0.958582D-02
     27 -0.273627D-03 -0.441446D-01 -0.271822D-03 -0.569988D-01  0.359008D-01
     28  0.423129D-01  0.747363D-01 -0.909476D-01  0.596446D-01 -0.284483D-01
     29  0.517747D-01 -0.875140D-02 -0.523756D-01 -0.249107D-01 -0.118317D-01
     30 -0.906901D-01 -0.763239D-01  0.350430D-01 -0.564742D-01  0.186732D-01
     31 -0.375308D-01  0.608573D-01 -0.106281D-01  0.316181D-01  0.176491D-01
     32  0.649018D-01  0.159024D+00 -0.397563D-01  0.906773D-01 -0.305184D-01
     33 -0.138557D-01 -0.380671D-01 -0.487507D-01 -0.496201D-02 -0.578463D-02
     34 -0.509975D-01  0.380267D-01  0.513194D-02  0.375285D-02  0.466540D-04
     35  0.484326D-01  0.176401D+00  0.399815D-01  0.898497D-01 -0.603089D-01
     36  0.111290D-01  0.376859D-01 -0.560405D-01 -0.242052D-01  0.860471D-03
     37 -0.485053D-01 -0.176125D-01 -0.392983D-01 -0.362661D-01  0.406543D-02
     38  0.109264D-01  0.911419D-02  0.229843D-01 -0.315341D-01 -0.272394D-02
     39  0.755960D-02  0.816973D-01 -0.606998D-02  0.525587D-01 -0.410833D-01
     40  0.604716D-01  0.969519D-01  0.836093D-01  0.780488D-01 -0.277504D-01
     41  0.699325D-01  0.124633D-01  0.547807D-01 -0.152777D-01 -0.168580D-01
     42  0.781956D-01  0.717084D-01  0.706734D-02  0.493946D-01 -0.124333D-01
     43 -0.295497D+00 -0.243360D-01 -0.167063D-01 -0.398860D-01  0.624594D-01
     44  0.118570D-01  0.210679D+00 -0.206478D-02  0.245083D-01  0.171847D+00
     45 -0.914267D-02  0.825310D-03  0.112853D+00  0.827829D-03  0.636644D-02
     46  0.150486D+00 -0.873254D-01  0.494468D-02  0.208918D-01 -0.223231D+00
     47 -0.590482D-01 -0.181437D-01 -0.268332D-02 -0.243488D+00 -0.124251D+00
     48 -0.137782D-02 -0.256911D-03 -0.336596D-01  0.113814D-01  0.102559D-01
     49 -0.809834D-01  0.599069D-01 -0.483807D-02 -0.128542D+01 -0.412118D+00
     50 -0.217066D-01  0.122907D+00  0.203999D-01  0.945472D-01 -0.722593D+01
     51  0.303823D-02 -0.311259D-02 -0.569020D-01 -0.901654D+00  0.826229D-01
                6             7             8             9            10 
      6  0.170563D+02
      7  0.833778D-03  0.175203D+02
      8 -0.123414D-02 -0.305088D+01  0.185115D+02
      9 -0.293092D+00 -0.115414D+00 -0.484900D-01  0.208167D+02
     10 -0.306927D+00 -0.591499D+01  0.135481D+00 -0.359669D+00  0.148539D+02
     11  0.125004D+00  0.647506D-01 -0.474454D+01 -0.201615D+01 -0.337153D+00
     12 -0.120186D+00 -0.284690D+00 -0.201563D+01 -0.288672D+01  0.849626D+00
     13  0.283401D+00 -0.630370D+01  0.230945D+00  0.450762D+00  0.960182D-01
     14 -0.122612D+00  0.160295D+00 -0.504566D+01  0.205696D+01  0.178701D-01
     15 -0.173592D+00  0.387865D+00  0.207299D+01 -0.327497D+01  0.281515D-01
     16  0.120087D-01  0.346064D+00  0.949240D-01 -0.270482D-01  0.101967D-02
     17 -0.428892D-01 -0.619757D-01  0.154924D-01 -0.489674D-02  0.186485D+00
     18  0.420504D+00 -0.258336D-01 -0.581256D-03  0.135842D+00 -0.968510D-01
     19 -0.625926D-01  0.159436D+00  0.207454D-01  0.117896D-01  0.440748D+00
     20  0.740360D-01 -0.384715D-01 -0.195653D+00 -0.396025D-02  0.386944D-01
     21 -0.902438D+01  0.282574D-02 -0.286859D-02 -0.129594D+00 -0.175806D+00
     22 -0.222679D-02 -0.264209D+01 -0.115688D+01 -0.444656D-02  0.173543D+00
     23  0.169768D-02 -0.107143D+01 -0.401421D+01  0.988011D-03  0.340444D-01
     24 -0.152416D-01 -0.297041D-02  0.494811D-03 -0.465670D+01 -0.560973D-01
     25  0.214940D-01  0.109154D+00  0.253598D-01 -0.300338D-01 -0.262625D+01
     26  0.329079D-01  0.485582D-01  0.111306D+00  0.600239D-01  0.387441D+00
     27 -0.768092D-03 -0.119088D+00  0.522424D-01 -0.673206D-01  0.151747D+01
     28 -0.386510D-01  0.881364D-01 -0.299213D-01 -0.187072D-01 -0.271086D+01
     29  0.117833D-01 -0.329844D-01  0.193321D-01  0.644963D-01 -0.277200D+00
     30  0.493329D-02 -0.224043D-01  0.508982D-01 -0.158526D-01 -0.108952D+01
     31 -0.139418D-01  0.124138D+00 -0.725939D-01  0.455418D-01 -0.420738D+01
     32 -0.328202D-01 -0.276633D-01 -0.756166D-01  0.160150D+00 -0.869331D-01
     33 -0.439470D-01  0.218018D-01  0.205112D+00  0.227317D-01 -0.118469D-01
     34 -0.371789D-01  0.145858D+00 -0.415286D-01 -0.924042D-02 -0.353545D-01
     35  0.255767D-01  0.117763D-01 -0.877601D-01 -0.185040D+00  0.245437D-02
     36 -0.116796D+00  0.291829D-01 -0.226825D+00  0.955303D-02  0.235899D-01
     37 -0.110154D-02  0.975974D-01  0.186196D-01  0.217565D-01 -0.338918D-01
     38 -0.346395D-01  0.321517D-01  0.127534D+00 -0.477691D-01  0.905981D-02
     39  0.251165D-01  0.106386D+00 -0.284606D-01 -0.859685D-01 -0.548270D-01
     40  0.349967D-01  0.871081D-01 -0.547770D-01 -0.183828D-01 -0.167558D-01
     41 -0.441330D-02 -0.502102D-01 -0.101220D-01 -0.817265D-01 -0.581971D-03
     42 -0.673680D-02 -0.325963D-01 -0.891304D-01 -0.170739D-01  0.692347D-01
     43  0.157621D-02  0.938799D-01  0.883361D-01  0.175688D-02  0.204972D-01
     44  0.339290D-02  0.922220D-01  0.256060D-01  0.134672D-02  0.380537D-01
     45 -0.333866D-01  0.349475D-02  0.253789D-02 -0.381269D-01 -0.110014D-01
     46  0.217991D-01  0.163013D-01  0.718895D-02  0.110192D-02  0.455984D-01
     47  0.151098D-01  0.108216D-02 -0.933621D-02 -0.203862D-03  0.271389D-02
     48  0.107016D+00 -0.425821D-03 -0.118866D-03 -0.853084D-02 -0.153595D-01
     49 -0.853355D+00 -0.141654D-01 -0.629499D-01  0.242576D-03 -0.735138D-01
     50  0.257681D-01 -0.116310D+00  0.126652D-01  0.496659D-03 -0.535310D-01
     51 -0.741549D+01  0.142903D-01 -0.112800D-01 -0.863682D-01 -0.104389D+00
               11            12            13            14            15 
     11  0.149929D+02
     12  0.116257D+01  0.135521D+02
     13  0.164536D-01 -0.249853D-01  0.149174D+02
     14  0.103773D+00 -0.101572D+00 -0.313032D+00  0.149721D+02
     15  0.623548D-01 -0.801885D-01 -0.104692D+01 -0.116587D+01  0.137894D+02
     16  0.165410D+00 -0.424296D-01  0.340478D-01  0.203872D+00  0.105710D+00
     17 -0.203523D-01 -0.706533D-01  0.223200D+00 -0.379239D-01  0.978907D-01
     18 -0.945602D-01 -0.978181D-01  0.157283D+00  0.113988D+00 -0.877954D-01
     19  0.403828D-01 -0.139649D+00  0.423467D+00  0.517173D-01  0.920059D-01
     20 -0.251063D+00 -0.756328D-02  0.659377D-01 -0.219693D+00  0.129916D-01
     21 -0.556720D-02 -0.187209D+00  0.110133D+00  0.276256D-03 -0.197789D+00
     22  0.559891D-01 -0.771859D-01  0.190612D+00  0.677347D-01  0.740296D-01
     23 -0.240684D-01  0.171501D+00  0.383973D-01 -0.484237D-01 -0.184046D+00
     24  0.157171D+00 -0.111691D-01  0.534115D-01 -0.173583D+00  0.854354D-02
     25  0.428359D+00  0.114860D+01 -0.132647D-01  0.112121D-02  0.494082D-01
     26 -0.442583D+01  0.311938D+00  0.660289D-02 -0.386460D-01  0.114729D-01
     27  0.432097D+00 -0.355845D+01  0.503104D-01  0.104590D-01  0.782348D-01
     28 -0.325612D+00 -0.107257D+01 -0.290252D-01 -0.518442D-02 -0.727662D-01
     29 -0.384569D+01  0.284728D+00 -0.755242D-02 -0.507151D-01  0.203144D-01
     30  0.337975D+00 -0.297987D+01 -0.538955D-01  0.172113D-01  0.154081D+00
     31  0.956036D-01  0.166304D-01 -0.430007D-01  0.747780D-02 -0.156738D-01
     32 -0.156215D+01  0.549138D+00  0.103033D-01  0.884383D-02 -0.692058D-01
     33  0.320415D+00 -0.420857D+01 -0.194463D-01 -0.348943D-01  0.210810D-01
     34 -0.584953D-02  0.347779D-02 -0.405760D+01 -0.629144D+00  0.913664D-01
     35  0.384246D-02  0.464913D-01 -0.857953D+00 -0.169201D+01 -0.464723D+00
     36  0.185302D-01 -0.426306D-02  0.549930D-01 -0.230168D+00 -0.426045D+01
     37  0.624226D-02 -0.498947D-01 -0.329146D+01  0.600747D+00 -0.107289D+01
     38 -0.475529D-01 -0.292188D-01  0.613874D+00 -0.397930D+01 -0.669895D+00
     39 -0.317995D-01  0.142476D+00 -0.136519D+01 -0.826966D+00 -0.295998D+01
     40  0.514304D-02  0.932148D-01 -0.192799D+01  0.129113D+00  0.975179D+00
     41 -0.534165D-01  0.562264D-02  0.155094D+00 -0.385022D+01  0.413485D-01
     42  0.801909D-02  0.140992D+00  0.102851D+01  0.336104D-01 -0.334153D+01
     43  0.257707D-01 -0.660017D-02  0.194515D-01  0.234675D-01  0.683257D-02
     44  0.146139D-01 -0.524317D-02  0.356716D-01  0.118868D-01  0.537899D-02
     45 -0.957838D-02 -0.117141D-01  0.135759D-01  0.105376D-01 -0.108813D-01
     46 -0.242570D-02 -0.541037D-02  0.355126D-01 -0.549129D-02  0.235327D-02
     47 -0.113553D-01 -0.734788D-03  0.217037D-02 -0.102628D-01  0.338448D-03
     48 -0.964838D-03 -0.991269D-02  0.101103D-01  0.473885D-03 -0.927021D-02
     49 -0.153195D-01 -0.621632D-01 -0.904270D-01 -0.105161D-01  0.383804D-01
     50 -0.744311D-01  0.542253D-01 -0.516871D-01 -0.552944D-01 -0.524309D-01
     51  0.598221D-01 -0.451092D-02  0.100239D+00 -0.685216D-01  0.540043D-02
               16            17            18            19            20 
     16  0.110523D+02
     17  0.401616D+01  0.146043D+02
     18 -0.369469D-01 -0.452247D+00  0.280288D+02
     19 -0.778867D+01 -0.425909D+01 -0.149029D+00  0.158525D+02
     20 -0.373556D+01 -0.278622D+01  0.381963D+00  0.698973D+00  0.919509D+01
     21 -0.108414D+00  0.399064D+00 -0.143949D+02  0.255924D+00 -0.391876D+00
     22  0.241558D+00 -0.136650D-01  0.543033D-03  0.632409D-02 -0.145393D-01
     23 -0.314274D-01 -0.558972D-01 -0.415371D-03 -0.108550D-01 -0.307377D-02
     24 -0.531030D-03  0.342364D-04 -0.542021D-01 -0.230789D-03  0.109252D-03
     25 -0.359914D-01  0.268137D-01 -0.406077D-01 -0.856380D-02  0.175753D-02
     26  0.413276D-01 -0.256373D-01 -0.606381D-01 -0.321809D-02 -0.432081D-01
     27 -0.870729D-01 -0.848135D-01  0.674965D-01 -0.835573D-01  0.166951D-02
     28  0.202737D-02  0.218906D-02 -0.965371D-02  0.169661D-01 -0.168302D-02
     29  0.164593D-02 -0.826806D-02 -0.126068D-02 -0.464013D-03 -0.106837D-01
     30 -0.118225D-01 -0.281263D-02  0.772102D-04 -0.183329D-01  0.140985D-02
     31  0.199783D-01  0.460188D-01 -0.218160D-01 -0.164085D-01 -0.135455D-01
     32  0.610318D-01  0.381655D-01 -0.278839D-01  0.398307D-02 -0.103893D-01
     33 -0.234242D-01 -0.195602D-01 -0.124705D-01 -0.550498D-03  0.322723D-02
     34  0.292322D-02  0.229553D-01  0.291778D-01 -0.260207D-01 -0.183616D-01
     35  0.427528D-01  0.273346D-01  0.452260D-01  0.578311D-02 -0.164560D-01
     36  0.261423D-01  0.253687D-01  0.345363D-02  0.194010D-01  0.343019D-02
     37 -0.230928D-01  0.216273D-01  0.371011D-01 -0.119397D-01  0.460873D-02
     38  0.239571D-01 -0.342633D-01  0.303446D-01 -0.561651D-02 -0.214564D-01
     39  0.785025D-01  0.565645D-01  0.613408D-01  0.496613D-01 -0.227683D-02
     40  0.811141D-02  0.504580D-02  0.127954D-01  0.231144D-01  0.269318D-03
     41  0.545083D-02 -0.776726D-02  0.326701D-02  0.250769D-02 -0.114297D-01
     42  0.107713D-01  0.285481D-02 -0.126105D-02  0.163342D-01  0.548626D-03
     43 -0.359106D+01  0.137457D+01  0.687048D-01  0.265637D+00 -0.116634D-01
     44  0.128062D+01 -0.233844D+01  0.112627D+00  0.387638D-01 -0.409853D+00
     45  0.591984D-01  0.104417D+00 -0.445594D+01 -0.829908D-03  0.540684D-03
     46 -0.218130D+00  0.359373D+00 -0.294808D-01 -0.161838D+01 -0.239083D-01
     47  0.314334D+00  0.579144D-01  0.146525D-01  0.129984D-01 -0.445197D+01
     48 -0.186256D-01  0.149725D-01  0.222754D+00 -0.323467D-01  0.289117D-02
     49 -0.121869D-01 -0.427319D-01 -0.159428D-01 -0.245279D-01  0.741641D-01
     50 -0.132166D+00 -0.156829D+00 -0.454736D-01 -0.104171D+00  0.190786D+00
     51 -0.144035D-01 -0.419400D-01  0.437640D-01 -0.106998D-01 -0.139128D-01
               21            22            23            24            25 
     21  0.276231D+02
     22 -0.212374D-02  0.184928D+01
     23  0.810262D-03  0.151687D+01  0.402703D+01
     24 -0.753966D-02  0.166617D-01  0.423547D-01  0.478156D+01
     25 -0.349871D-01  0.326399D-01 -0.288546D-01  0.367393D-01  0.288608D+01
     26  0.387293D-02 -0.255792D-01 -0.501957D-02 -0.195244D-01 -0.244866D+00
     27  0.423224D-01  0.522516D-01 -0.288275D-01  0.191826D-01 -0.115586D+01
     28 -0.147241D-01  0.401222D-01  0.202751D-02 -0.257223D-02 -0.309251D+00
     29 -0.156530D-03  0.776770D-02 -0.235293D-02  0.699326D-01 -0.134762D-01
     30  0.127101D-02 -0.889923D-02  0.720897D-01 -0.740004D-01  0.122221D-01
     31 -0.113856D-01 -0.929230D-02 -0.302183D-01  0.108684D-01  0.376027D-01
     32 -0.103788D-01 -0.535687D-01  0.719994D-01 -0.352478D-01 -0.171036D+00
     33  0.143199D-02  0.178318D-01 -0.366491D-01 -0.108038D-01 -0.835360D-01
     34  0.351334D-01  0.245372D-02 -0.472467D-01 -0.175603D-01 -0.706372D-02
     35  0.241783D-01 -0.706137D-01  0.767174D-01  0.400927D-01  0.966658D-02
     36  0.170456D-01 -0.259832D-01  0.415789D-01 -0.136004D-01  0.792561D-02
     37  0.157840D-01  0.187926D-01 -0.168929D-01 -0.278484D-01 -0.326994D-02
     38 -0.701179D-02 -0.122159D-01 -0.795493D-02  0.138225D-01 -0.118989D-02
     39  0.290606D-01 -0.431377D-01  0.223876D-01  0.231690D-01  0.591417D-02
     40  0.133505D-01  0.521568D-01 -0.723618D-02 -0.103931D-01  0.411387D-02
     41  0.173153D-02  0.150473D-02 -0.279860D-01 -0.969978D-01 -0.360858D-05
     42 -0.238644D-02  0.124332D-02 -0.103091D+00 -0.682437D-01  0.138999D-02
     43  0.239089D-02  0.279696D-02 -0.387794D-02  0.499353D-04 -0.509136D-02
     44  0.277198D-02  0.750376D-02 -0.263416D-02  0.543542D-04 -0.549176D-02
     45  0.206453D+00  0.472563D-03 -0.137961D-03 -0.929828D-03  0.132777D-02
     46 -0.368374D-01  0.107503D-01 -0.410911D-02  0.528497D-04 -0.307067D-02
     47  0.287361D-02 -0.561652D-03 -0.329765D-03  0.000000D+00  0.566701D-04
     48 -0.448184D+01 -0.319453D-03  0.110947D-03 -0.106410D-02 -0.712547D-03
     49 -0.133378D-01 -0.565092D-02 -0.275273D-02  0.325995D-03  0.134614D-01
     50 -0.217086D-02 -0.100208D-01  0.517257D-02 -0.547819D-03  0.880897D-02
     51  0.865282D-01  0.246383D-02 -0.164038D-02 -0.542725D-02  0.125435D-01
               26            27            28            29            30 
     26  0.441779D+01
     27 -0.187808D+00  0.321397D+01
     28  0.704382D-02 -0.818557D-02  0.273576D+01
     29  0.134142D+00  0.799242D-02  0.159931D+00  0.387973D+01
     30  0.781485D-02  0.153671D+00  0.128161D+01 -0.285516D+00  0.267959D+01
     31 -0.196242D+00 -0.123787D+00  0.440139D-01  0.146895D+00  0.852939D-01
[...]
   yx        -0.257843D+00     -0.382084D-01     -0.425125D-01
   yy         0.599766D+02      0.888762D+01      0.988881D+01
   zx        -0.101939D+02     -0.151058D+01     -0.168075D+01
   zy        -0.556334D+01     -0.824403D+00     -0.917272D+00
   zz         0.769770D+02      0.114068D+02      0.126918D+02

 ----------------------------------------------------------------------

 Test job not archived.
 1\1\GINC-C0219\Freq\RM062X\CC-pVTZ\C5H10O2\HARMS.N\26-Sep-2019\0\\#P G
 eom=AllCheck Guess=TCheck SCRF=Check Test GenChk RM062X/CC-pVTZ Freq\\
 Gaussian input prepared by ASE\\0,1\O,1.5880159675,0.6506860959,2.8861
 050472\O,0.4058840502,0.209186478,0.4404666478\C,2.1918166853,1.801306
 3533,3.4882547149\C,1.4751001519,2.0262374873,4.8015578889\C,2.0957003
 611,2.9955399832,2.5562263434\C,2.3032778022,0.1084845946,1.8468943097
 \C,1.6987984115,-0.1167153716,0.6885846035\H,3.2460859732,1.5666385268
 ,3.6769114658\H,1.5547434221,1.1458077454,5.4363947078\H,1.9014723156,
 2.8807740839,5.3256260941\H,0.4191476611,2.2254888919,4.6161596486\H,1
 .0479557205,3.2476893164,2.3849799715\H,2.5609427597,2.7748514968,1.59
 60687872\H,2.5928629033,3.8622420187,2.9913186253\H,3.3368762484,-0.15
 44233554,2.0318976812\H,2.1950430585,-0.597918449,-0.1398362465\H,0.05
 01311893,0.5893461038,1.2534813683\\Version=EM64L-G16RevA.03\State=1-A
 \HF=-346.9495355\RMSD=4.123e-09\RMSF=8.467e-07\ZeroPoint=0.147555\Ther
 mal=0.1559411\Dipole=0.5218034,0.4918895,0.4746376\DipoleDeriv=-0.4574
 183,0.0690777,0.1952257,-0.0494215,-0.8536473,-0.5472463,-0.0787732,-0
 .5703841,-1.2114199,-1.1370842,-0.0353194,-0.5733615,0.2141953,-0.3231
 975,0.141532,-0.0796015,-0.0414667,-0.4016188,0.3537529,0.1697623,0.17
 91369,0.0911155,0.8021385,0.3072563,0.0480364,0.2079525,0.6730205,0.05
 39398,0.0138436,0.0598903,-0.0038259,0.0231377,-0.0188181,0.0541665,-0
 .0344592,-0.0695673,0.064716,-0.0057182,-0.0112166,-0.0031369,-0.11643
 16,-0.0013558,0.0374325,0.1022255,-0.0967071,0.0547985,-0.3860958,-0.4
 062189,-0.1517507,0.0323356,0.3020869,-0.1499162,0.4349773,0.5798586,0
 .9333677,-0.0232841,0.5513374,-0.2552547,-0.0710381,-0.0648383,0.22670
 77,0.0554178,0.2537306,-0.1556822,0.0128929,-0.052898,0.081483,-0.0497
 238,-0.008156,0.0038856,-0.001659,-0.0194161,0.0580063,0.0232175,0.011
 72,0.0083764,-0.0424204,0.1138434,0.0146673,0.0674137,-0.0157587,0.030
 6093,-0.0669972,-0.0294487,-0.0538445,-0.05122,-0.0911748,-0.0086174,-
 0.057911,0.0067449,-0.0956452,0.0394009,0.0060489,0.0289997,0.0638017,
 0.0081025,-0.0693364,0.0144168,0.0311681,-0.1074172,0.056901,-0.030716
 3,-0.0062499,0.046877,0.0181242,-0.0052386,0.0159706,0.0495153,0.03333
 9,0.0248793,0.0589288,0.0340627,0.0740304,-0.0083296,0.0524668,0.00579
 57,-0.0817159,0.03563,-0.0704353,-0.0417968,-0.0538062,-0.06734,-0.061
 2216,-0.0527783,-0.0754312,0.042788,-0.0449585,0.1007317,0.0327828,0.0
 453762,0.1398492,-0.0053767,-0.0507409,-0.0530476,0.0078946,0.0291004,
 0.0390024,0.0096797,0.0565889,0.1066939,-0.0612837,0.0374158,-0.063087
 7,0.0330929,0.3509457,0.0381406,0.0409063,0.0170925,0.2861548,-0.02314
 43,0.0202239,-0.0067235,0.2183902\Polar=62.4608913,-0.4755942,63.56452
 39,4.618024,10.5986716,77.8886189\Quadrupole=1.3535313,-0.3054308,-1.0
 481005,-1.6190654,-1.6286798,1.0361033\PG=C01 [X(C5H10O2)]\NImag=0\\0.
 28211809,0.03474610,0.30640709,-0.08794400,0.18975772,0.35314793,0.011
 11926,-0.00881297,-0.00772606,0.47251770,-0.00670345,-0.00345402,0.005
 55841,-0.15613809,0.13904961,-0.00335319,0.00264795,0.00281716,-0.0624
 9215,0.16924504,0.48676774,-0.11960818,-0.06258330,-0.02313477,0.00377
 467,-0.00059011,-0.00112254,0.60629431,-0.04727035,-0.14382293,-0.0445
 7382,0.00272581,-0.00064323,0.00268437,-0.04513232,0.46664861,-0.00732
 424,-0.03195056,-0.08276171,0.00379675,-0.00102740,0.00038029,-0.01076
 340,-0.01518430,0.51753593,0.00943921,-0.00770875,-0.01690496,-0.00050
 122,0.00006241,0.00008076,-0.11881164,0.01407878,0.06498455,0.55801245
 ,0.01382354,-0.01732953,-0.03813800,-0.00077453,0.00022929,-0.00016545
 ,0.00677489,-0.07673408,-0.00450862,0.00989590,0.59398612,0.00783766,-
 0.01454401,-0.02356417,0.00004814,-0.00007241,0.00007062,0.05393135,-0
 .01225184,-0.17380938,0.03906808,-0.01292291,0.52200323,0.00129544,-0.
 02381697,0.00528844,-0.00077151,0.00090228,0.00036736,-0.08393099,0.01
 943997,-0.01021601,0.00135401,-0.01303674,0.01252496,0.57989033,-0.006
 71979,-0.04441103,0.00755724,-0.00074970,0.00002012,-0.00017296,0.0134
 9356,-0.14264727,0.05906328,-0.00113855,0.00610597,0.00229318,0.008820
 66,0.52332099,-0.00059247,-0.01989924,0.00818248,-0.00050434,0.0000575
 4,-0.00000698,-0.00577319,0.06494203,-0.13432527,-0.00094966,0.0269180
 0,-0.02434519,-0.00595052,0.05148939,0.55162162,-0.15691788,0.04758676
 ,0.09492273,-0.06000846,0.00739232,-0.04368172,0.01176156,0.00491359,-
 0.00732702,-0.00255309,-0.00402492,-0.00212929,-0.00144707,-0.00242344
 ,-0.00167522,0.69544474,0.02830406,-0.09013656,-0.06646123,0.01935779,
 0.01231094,0.00765473,0.01562548,-0.02351055,-0.03085032,-0.00106333,-
 0.00262347,-0.00066046,0.00034505,-0.00145392,-0.00027933,-0.09671200,
 0.23012267,0.08038641,-0.08367408,-0.19541445,-0.00939952,-0.00054244,
 -0.00295665,0.00333390,-0.02557699,-0.03344022,-0.00101391,-0.00277586
 ,-0.00087924,0.00180980,0.00335060,0.00464712,0.19122731,0.18207045,0.
 74756831,0.00156683,0.01880371,0.03830001,-0.31151108,0.07372089,-0.02
 501735,-0.00735332,-0.00346240,-0.00155348,0.00164169,0.00196531,0.000
 65516,0.00175059,0.00114843,0.00044905,-0.18824849,-0.03269656,-0.2039
 8136,0.64950154,-0.00005480,-0.00044104,-0.02885829,0.05907996,-0.0690
 1668,-0.01629538,0.00237184,0.00085038,-0.00103910,-0.00061683,-0.0009
 9230,-0.00031785,-0.00074658,-0.00010690,0.00005097,-0.02098400,-0.080
 85251,-0.08374853,-0.12675994,0.25349567,-0.00369962,-0.02215823,-0.05
 235798,-0.07150861,-0.00380733,-0.11457294,0.00411854,0.00606272,0.001
 57225,-0.00065484,-0.00090342,-0.00022560,-0.00015613,0.00001476,-0.00
 048836,-0.17442778,-0.08908613,-0.44512708,0.11105636,0.23005874,0.838
 87234,-0.01872174,-0.01024627,-0.00975381,0.00042585,-0.00035479,-0.00
 000988,-0.27425568,0.05782142,-0.03820540,-0.01408215,0.00440244,-0.00
 088048,-0.00123917,0.00161877,0.00012001,0.00048971,0.00174137,0.00361
 702,0.00014292,-0.00011627,-0.00086448,0.30380505,-0.03479900,-0.00671
 718,-0.01500460,0.00008129,0.00009102,-0.00059021,0.06273509,-0.063659
 56,0.01106421,0.00485686,-0.00033389,0.00151438,0.02621263,-0.00639824
 ,0.00551552,-0.00445400,0.00273293,0.00307362,0.00014702,-0.00023601,-
 0.00029412,-0.05517087,0.07609858,-0.01744552,-0.00743864,-0.00675517,
 0.00042274,-0.00022254,-0.00021361,-0.03553879,0.01109184,-0.05764186,
 0.02978358,-0.00665469,0.00415755,-0.02038683,0.00779123,-0.00366310,-
 0.00381486,0.00162598,0.00197802,-0.00004953,-0.00005889,-0.00045925,0
 .04442537,-0.00757511,0.06578025,0.00011844,-0.00003847,-0.00152531,-0
 .00001708,-0.00001852,0.00000079,0.00045084,-0.01556877,0.00995648,-0.
 04982459,0.01932912,-0.01335077,-0.00128686,0.00140188,0.00280941,-0.0
 0004485,-0.00004519,-0.00008068,-0.00000808,-0.00000974,-0.00004679,0.
 00041162,-0.00057630,-0.00071613,0.05020695,0.00018134,0.00117878,0.00
 026588,0.00012114,-0.00002347,0.00003105,-0.00079905,0.00366563,-0.004
 74837,0.01799963,-0.22862728,0.13010633,-0.00017162,0.00045180,-0.0007
 6348,0.00017699,0.00018955,-0.00004598,-0.00015563,0.00009631,-0.00004
 083,-0.00052881,0.00041360,0.00045040,-0.01995518,0.24460262,-0.000669
 79,0.00027815,0.00298590,0.00015079,-0.00013620,0.00005856,-0.00348849
 ,0.02548815,-0.01790325,-0.01285089,0.12687249,-0.13752605,0.00331523,
 -0.00277477,-0.00472892,0.00024696,-0.00040440,-0.00009281,-0.00023823
 ,0.00013282,0.00017481,-0.00009945,-0.00036796,0.00119666,0.01135241,-
 0.14104380,0.14957209,-0.00097013,0.00169377,0.00412197,0.00018096,-0.
 00002532,-0.00001951,0.00638294,0.01278630,0.00546202,-0.08959960,-0.0
 8553237,-0.05138695,0.00015315,-0.00009277,-0.00032367,0.00110807,0.00
 038072,0.00064653,-0.00044179,0.00022672,0.00016682,0.00022544,0.00005
 174,-0.00097204,0.00013470,0.00294241,0.00223386,0.09332950,0.00142221
 ,0.00020031,-0.00177622,-0.00017419,0.00007238,-0.00006258,-0.00245262
 ,-0.00509121,0.00021384,-0.08432223,-0.21406576,-0.10277444,-0.0003139
 9,-0.00011723,0.00042119,-0.00081026,0.00065110,0.00022958,0.00034106,
 -0.00017219,-0.00016848,0.00036750,0.00003677,-0.00003455,-0.00999213,
 -0.01834880,-0.01337853,0.09294077,0.23071097,0.00414775,-0.00277982,-
 0.00651197,-0.00040358,0.00008748,-0.00005778,-0.01560304,-0.02052684,
 -0.00934893,-0.04966567,-0.10044383,-0.10975695,-0.00063801,-0.0000658
 1,0.00096843,-0.00146010,-0.00048102,-0.00003257,0.00080153,-0.0003786
 7,-0.00029567,0.00037362,0.00012978,0.00096303,0.00855549,0.01447853,0
 .01053283,0.05456921,0.11281037,0.11741640,0.00170082,-0.00011080,-0.0
 0033734,0.00030310,-0.00010178,0.00004202,-0.01967008,0.00297348,-0.00
 295900,-0.29732809,0.04735562,-0.04650050,0.00080181,0.00021369,-0.001
 05000,0.00047218,-0.00004108,-0.00002791,-0.00025242,0.00008727,-0.000
 04697,0.00009807,0.00034556,0.00329690,-0.00098116,-0.00002447,-0.0001
 8202,-0.01052657,0.00252880,-0.00149243,0.32451716,0.00003421,0.000582
 88,0.00072955,-0.00009394,-0.00001740,0.00005431,0.00573621,-0.0023252
 4,0.00016495,0.04718623,-0.05589933,0.00996134,-0.00108636,-0.00005589
 ,0.00000067,0.00002847,-0.00026075,-0.00016849,0.00001881,0.00000756,0
 .00008882,0.00026991,0.00055819,-0.00096790,0.02599322,-0.00399683,0.0
 0368563,-0.02534950,0.00568288,-0.00350030,-0.05252812,0.05542627,-0.0
 0108581,0.00180688,0.00218764,-0.00013474,0.00010356,-0.00003082,0.031
 76845,-0.00561049,0.00405894,-0.04867226,0.00975917,-0.05581324,0.0006
 5595,-0.00099795,0.00198078,0.00025624,-0.00018329,-0.00017040,-0.0000
 5382,0.00001225,0.00015347,0.00252248,-0.00108615,-0.00486092,-0.01801
 341,0.00181267,-0.00362719,-0.01458471,0.00423647,-0.00342127,0.048556
 37,-0.01011154,0.05980916,0.00162090,0.00065717,0.00138013,0.00053958,
 -0.00056026,-0.00001139,-0.00457478,0.00011053,-0.00111506,0.00102902,
 -0.00046961,0.00041494,-0.29471733,0.05749357,-0.03846334,0.00022011,0
 .00025170,-0.00019468,-0.00080722,0.00043805,-0.00025085,0.00146095,0.
 00026474,-0.00017720,0.00030974,-0.00005511,0.00004842,-0.00002531,0.0
 0015436,0.00000709,0.00036079,-0.00008039,-0.00060731,0.31910689,-0.00
 070168,0.00313001,-0.00084524,-0.00050052,0.00043303,-0.00006848,0.028
 08826,-0.00829548,0.00582787,0.00043075,0.00070574,-0.00157365,0.05661
 375,-0.05925794,0.00783128,0.00004085,-0.00032332,-0.00045884,0.000581
 12,-0.00021583,0.00026819,-0.00004663,-0.00377710,0.00343796,-0.000175
 91,0.00001271,-0.00030543,-0.00015453,0.00000913,0.00001405,-0.0006914
 4,0.00033265,0.00028186,-0.06414345,0.06303887,0.00135310,-0.00150593,
 0.00103029,-0.00063054,0.00040052,-0.00007871,-0.02268454,0.00468625,-
 0.00528019,-0.00145467,-0.00043212,0.00109192,-0.03664525,0.00845908,-
 0.05284395,-0.00016607,-0.00008401,-0.00041295,0.00069531,-0.00025356,
 0.00027860,0.00020303,0.00374031,-0.00201370,0.00032594,-0.00020402,0.
 00023219,-0.00005435,-0.00003795,-0.00008878,0.00067377,0.00020808,-0.
 00026804,0.04278911,-0.01288129,0.05502798,-0.00036687,-0.00027640,0.0
 0004541,-0.00041072,0.00032469,-0.00011194,0.00029073,-0.00176773,-0.0
 0341687,0.00061213,0.00017261,-0.00007885,-0.09870444,0.02503319,0.102
 29220,0.00036464,0.00036721,0.00033776,0.00027049,-0.00006995,-0.00011
 641,0.00028768,-0.00071593,-0.00011073,0.00056559,0.00015640,0.0000476
 6,-0.00006644,0.00025477,0.00019084,0.00049278,0.00007775,-0.00034721,
 -0.01200038,0.00629965,0.02770847,0.10233884,0.00074251,0.00220157,-0.
 00167596,0.00096383,0.00006608,0.00019544,-0.01334268,0.00677269,0.024
 97582,0.00074065,-0.00488239,0.00233462,0.02556857,-0.05862130,-0.0512
 5720,-0.00014570,-0.00100690,0.00069121,-0.00080937,-0.00057787,-0.000
 91974,0.00011203,0.00094961,-0.00099342,-0.00074962,0.00024428,0.00160
 088,0.00021710,0.00013629,0.00007141,-0.00000876,-0.00010994,-0.000109
 08,0.00204797,-0.00248903,-0.00561553,-0.02760044,0.06232946,-0.000310
 76,-0.00096526,0.00085165,-0.00028807,0.00043697,-0.00009239,0.0091942
 6,-0.00561721,-0.01895492,-0.00138550,0.00427407,-0.00132323,0.1022228
 5,-0.04872151,-0.25573230,-0.00033857,-0.00088443,0.00003763,0.0003956
 2,-0.00056816,0.00064419,-0.00029569,-0.00014951,0.00055245,0.00085386
 ,-0.00019407,-0.00102585,-0.00012882,-0.00002171,0.00035148,0.00002639
 ,-0.00002166,0.00012440,-0.00267183,0.00148601,0.00611280,-0.11222247,
 0.05244249,0.27856411,0.00166876,0.00084123,0.00022552,0.00013844,-0.0
 0032147,-0.00003120,-0.00081676,0.00249259,0.00137936,-0.00011733,-0.0
 0002281,-0.00014893,-0.10317259,-0.09859253,-0.05082968,0.00031138,0.0
 0039756,0.00009991,-0.00039275,0.00013220,-0.00022236,0.00008038,-0.00
 031248,0.00042489,0.00000435,0.00018129,0.00012463,0.00021643,-0.00003
 206,0.00042011,0.00003067,-0.00013527,-0.00003947,-0.01262054,-0.02536
 329,-0.01201495,0.00667909,0.01238030,0.00490257,0.10786496,0.00014861
 ,-0.00756156,0.00213741,-0.00063331,0.00016729,-0.00009308,-0.01219910
 ,-0.01600565,-0.01446859,-0.00006762,0.00059954,-0.00093404,-0.0977605
 9,-0.21680422,-0.08500520,-0.00134825,0.00099912,0.00196581,0.00075164
 ,-0.00001214,-0.00014081,0.00087262,0.00062764,-0.00013745,0.00035503,
 0.00019234,0.00008504,-0.00005548,0.00040927,0.00064860,0.00008642,-0.
 00002306,0.00008802,0.00362177,0.00713796,0.00379497,-0.00215415,-0.00
 478294,-0.00175098,0.10809735,0.23530095,0.00071770,0.00639736,-0.0008
 7131,0.00040069,-0.00017797,0.00000833,0.01051976,0.01327625,0.0089267
 6,0.00009526,-0.00053652,0.00030836,-0.05145243,-0.08713912,-0.0911265
 5,0.00029290,-0.00065611,-0.00106621,-0.00039098,0.00002533,0.00051098
 ,-0.00038200,-0.00081984,0.00068999,-0.00015945,-0.00013176,0.00022699
 ,0.00016617,0.00034258,-0.00055432,0.00006178,0.00002176,-0.00004142,-
 0.00116399,-0.00300161,-0.00281542,-0.01439342,-0.02186639,-0.01000794
 ,0.05566446,0.09392358,0.09584201,-0.01702515,0.00844464,0.00653339,0.
 00342139,0.00114560,-0.00228343,0.00014040,-0.00268908,-0.00135308,0.0
 0060139,0.00023586,0.00010538,0.00000479,0.00027498,0.00029979,-0.3102
 5721,0.06847303,-0.05957137,-0.00951855,0.00391134,0.00146812,0.000602
 54,0.00099292,0.00064121,-0.00003036,-0.00002967,-0.00002693,-0.000039
 30,0.00006676,0.00015449,0.00006502,-0.00012862,-0.00024018,-0.0000058
 2,-0.00010881,0.00003949,-0.00008134,0.00009438,-0.00002827,0.00004438
 ,0.00015896,-0.00008714,0.33183777,0.01261744,-0.00433494,-0.00359342,
 0.00316513,0.00836904,-0.00461676,0.00334271,0.00241160,0.00170132,-0.
 00027592,-0.00013187,-0.00020955,-0.00025807,-0.00021184,-0.00015795,0
 .07084606,-0.04873830,0.00612023,-0.00774520,0.00239839,0.00130315,-0.
 00076801,0.00006897,-0.00028762,0.00000023,-0.00001249,0.00008093,-0.0
 0002415,-0.00002910,-0.00008514,-0.00017519,0.00003355,0.00008201,-0.0
 0013888,0.00014283,0.00004193,0.00008144,-0.00018706,0.00027837,-0.000
 05665,-0.00006047,0.00009771,-0.07954166,0.04433365,0.02988740,-0.0124
 2477,-0.00104334,-0.00355339,-0.00453473,-0.00300627,0.00407061,0.0029
 9812,0.00264538,-0.00003836,-0.00011877,-0.00020327,-0.00061337,-0.000
 35105,-0.00021813,-0.05909203,0.00532072,-0.06491574,-0.02427736,0.009
 90637,0.00245177,-0.00123423,0.00036412,0.00005537,0.00004218,0.000019
 61,-0.00002706,-0.00007257,-0.00002121,-0.00009795,-0.00018226,0.00004
 219,0.00000936,0.00000073,0.00010751,-0.00012109,-0.00003938,0.0000367
 3,-0.00008257,-0.00001220,-0.00017951,0.00007227,0.05371984,-0.0022126
 1,0.06595673,0.00044938,0.00080817,-0.00515271,-0.02175569,0.01721296,
 0.02657040,0.00028607,0.00105574,0.00002286,-0.00017009,-0.00019973,-0
 .00011052,-0.00009414,-0.00002193,0.00007533,0.01152226,-0.00630412,-0
 .00831463,-0.10862150,0.06019450,0.09485020,-0.00006004,-0.00011117,-0
 .00005537,-0.00000554,-0.00000126,0.00004251,0.00003822,-0.00005585,-0
 .00006498,0.00000499,0.00001157,0.00001901,0.00002605,-0.00003666,-0.0
 0000969,0.00001153,-0.00001837,-0.00000016,0.00003181,-0.00004100,0.00
 001150,-0.00032123,-0.00108161,0.00080093,0.12363305,0.00386289,0.0077
 7668,-0.00496909,0.00531502,-0.00225642,-0.00524578,-0.00072087,0.0014
 0786,0.00105367,0.00009239,0.00014881,0.00004400,0.00002980,-0.0001418
 6,0.00022815,0.00251789,0.00015082,-0.00033356,0.06241172,-0.09845663,
 -0.10974068,-0.00002548,-0.00015569,-0.00006719,-0.00000409,-0.0000134
 9,0.00005945,-0.00004865,-0.00005083,0.00007038,-0.00002185,0.00002903
 ,0.00001706,-0.00003877,0.00003053,-0.00000157,0.00004070,-0.00006585,
 -0.00008834,-0.00000543,-0.00001797,-0.00000878,-0.00135013,-0.0034030
 2,0.00126615,-0.07324794,0.09321788,-0.00508745,-0.00428946,-0.0000802
 6,-0.00302765,0.00408151,0.00974256,0.00101511,0.00078676,-0.00111839,
 -0.00031008,-0.00047965,-0.00017399,-0.00000135,0.00003485,-0.00008013
 ,0.01613702,-0.01014178,-0.01172871,0.10037737,-0.10918329,-0.23838680
 ,-0.00011632,-0.00005583,-0.00007011,-0.00001136,0.00001633,0.00001584
 ,0.00009579,-0.00003006,-0.00015078,0.00000816,0.00000937,0.00002908,-
 0.00000108,0.00000819,0.00003354,0.00001075,-0.00001642,0.00004642,0.0
 0000274,-0.00002845,0.00000566,-0.00024424,0.00134776,-0.00055944,-0.1
 0610071,0.11753672,0.24102787,0.00251283,0.00001237,0.00166135,-0.0974
 4520,0.06405265,0.11107298,-0.00036012,-0.00250755,-0.00136848,0.00029
 790,0.00010543,0.00000062,0.00011398,0.00023997,0.00006630,-0.00221762
 ,0.00161831,0.00112542,-0.02771887,0.02291624,0.04033481,0.00032856,0.
 00045191,0.00027230,-0.00000372,-0.00003839,-0.00000667,-0.00010025,0.
 00007710,0.00010768,-0.00008907,0.00004582,0.00000042,0.00007736,-0.00
 013147,-0.00012817,-0.00028330,-0.00019241,0.00007459,0.00004932,0.000
 16711,0.00009919,0.00056129,0.00001231,0.00059345,-0.00497513,0.001192
 79,-0.00274671,0.12925204,0.00036615,-0.00326853,-0.00011033,0.0770672
 8,-0.08539757,-0.15520221,-0.00034799,0.00097843,-0.00028768,-0.000150
 37,-0.00015556,0.00000729,-0.00074179,0.00032877,-0.00009232,-0.002600
 38,0.00174915,-0.00017673,0.01173939,-0.00576820,-0.01053662,0.0000510
 8,-0.00029962,0.00004059,0.00005446,-0.00002525,0.00012756,0.00004324,
 -0.00003398,-0.00004917,0.00011267,0.00003542,-0.00010145,0.00044661,-
 0.00061475,-0.00031518,-0.00022381,0.00002332,0.00006491,0.00031947,-0
 .00016609,0.00025352,0.00004948,-0.00064893,-0.00021886,0.00183671,0.0
 0180017,0.00040344,-0.08802220,0.09146321,0.00318281,0.00074194,-0.001
 84270,0.15484954,-0.16945003,-0.37882911,0.00015679,-0.00267500,-0.000
 53543,-0.00011146,0.00025611,-0.00001137,-0.00012469,0.00016957,0.0001
 5846,-0.00897050,0.00350064,0.00200594,0.00283171,0.00051523,0.0072552
 8,0.00058019,0.00054138,0.00030441,0.00000735,-0.00000848,-0.00006472,
 0.00008024,0.00005171,0.00008482,0.00011306,-0.00019677,-0.00011953,0.
 00001630,-0.00012837,0.00011551,0.00020419,0.00010513,-0.00006592,0.00
 005460,0.00009467,-0.00010819,0.00087292,0.00010963,-0.00091605,-0.002
 58398,0.00017942,0.00144764,-0.15115908,0.16619322,0.37112096\\-0.0000
 0001,0.00000001,-0.00000062,0.00000057,0.00000133,-0.00000114,-0.00000
 003,-0.00000070,0.00000011,-0.00000038,-0.00000145,0.00000030,-0.00000
 016,0.00000021,0.00000112,0.00000027,0.00000064,-0.00000047,0.00000035
 ,0.00000125,-0.00000120,-0.00000015,-0.00000050,0.00000033,-0.00000039
 ,-0.00000181,-0.00000028,-0.00000059,-0.00000171,0.00000096,-0.0000003
 8,-0.00000140,0.00000029,-0.00000016,0.00000009,0.00000102,0.00000007,
 0.00000082,0.00000098,-0.00000027,-0.00000016,0.00000171,0.00000026,0.
 00000064,-0.00000096,0.00000072,0.00000194,-0.00000135,0.00000026,0.00
 000080,-0.00000079\\\@


 IT IS A SIMPLE TASK TO MAKE THINGS COMPLEX,
 BUT A COMPLEX TASK TO MAKE THEM SIMPLE.
 Job cpu time:       0 days  2 hours 58 minutes 51.7 seconds.
 Elapsed time:       0 days  1 hours 29 minutes 27.5 seconds.
 File lengths (MBytes):  RWF=   1392 Int=      0 D2E=      0 Chk=     32 Scr=     32
 Normal termination of Gaussian 16 at Thu Sep 26 13:48:35 2019.
