 Entering Gaussian System, Link 0=g16
 Input=loose/species/CC(C)OC=CO/conformers/CC(C)OC=CO_61.com
 Output=loose/species/CC(C)OC=CO/conformers/CC(C)OC=CO_61.log
 Initial command:
 /shared/centos7/gaussian/g16/l1.exe "/scratch/harms.n/gauss_scrdir/Gau-26141.inp" -scrdir="/scratch/harms.n/gauss_scrdir/"
 Entering Link 1 = /shared/centos7/gaussian/g16/l1.exe PID=     26142.
  
 Copyright (c) 1988,1990,1992,1993,1995,1998,2003,2009,2016,
            Gaussian, Inc.  All Rights Reserved.
  
 This is part of the Gaussian(R) 16 program.  It is based on
 the Gaussian(R) 09 system (copyright 2009, Gaussian, Inc.),
 the Gaussian(R) 03 system (copyright 2003, Gaussian, Inc.),
 the Gaussian(R) 98 system (copyright 1998, Gaussian, Inc.),
 the Gaussian(R) 94 system (copyright 1995, Gaussian, Inc.),
 the Gaussian 92(TM) system (copyright 1992, Gaussian, Inc.),
 the Gaussian 90(TM) system (copyright 1990, Gaussian, Inc.),
 the Gaussian 88(TM) system (copyright 1988, Gaussian, Inc.),
 the Gaussian 86(TM) system (copyright 1986, Carnegie Mellon
 University), and the Gaussian 82(TM) system (copyright 1983,
 Carnegie Mellon University). Gaussian is a federally registered
 trademark of Gaussian, Inc.
  
 This software contains proprietary and confidential information,
 including trade secrets, belonging to Gaussian, Inc.
  
 This software is provided under written license and may be
 used, copied, transmitted, or stored only in accord with that
 written license.
  
 The following legend is applicable only to US Government
 contracts under FAR:
  
                    RESTRICTED RIGHTS LEGEND
  
 Use, reproduction and disclosure by the US Government is
 subject to restrictions as set forth in subparagraphs (a)
 and (c) of the Commercial Computer Software - Restricted
 Rights clause in FAR 52.227-19.
  
 Gaussian, Inc.
 340 Quinnipiac St., Bldg. 40, Wallingford CT 06492
  
  
 ---------------------------------------------------------------
 Warning -- This program may not be used in any manner that
 competes with the business of Gaussian, Inc. or will provide
 assistance to any competitor of Gaussian, Inc.  The licensee
 of this program is prohibited from giving any competitor of
 Gaussian, Inc. access to this program.  By using this program,
 the user acknowledges that Gaussian, Inc. is engaged in the
 business of creating and licensing software in the field of
 computational chemistry and represents and warrants to the
 licensee that it is not a competitor of Gaussian, Inc. and that
 it will not use this program in any manner prohibited above.
 ---------------------------------------------------------------
  

 Cite this work as:
 Gaussian 16, Revision A.03,
 M. J. Frisch, G. W. Trucks, H. B. Schlegel, G. E. Scuseria, 
 M. A. Robb, J. R. Cheeseman, G. Scalmani, V. Barone, 
 G. A. Petersson, H. Nakatsuji, X. Li, M. Caricato, A. V. Marenich, 
 J. Bloino, B. G. Janesko, R. Gomperts, B. Mennucci, H. P. Hratchian, 
 J. V. Ortiz, A. F. Izmaylov, J. L. Sonnenberg, D. Williams-Young, 
 F. Ding, F. Lipparini, F. Egidi, J. Goings, B. Peng, A. Petrone, 
 T. Henderson, D. Ranasinghe, V. G. Zakrzewski, J. Gao, N. Rega, 
 G. Zheng, W. Liang, M. Hada, M. Ehara, K. Toyota, R. Fukuda, 
 J. Hasegawa, M. Ishida, T. Nakajima, Y. Honda, O. Kitao, H. Nakai, 
 T. Vreven, K. Throssell, J. A. Montgomery, Jr., J. E. Peralta, 
 F. Ogliaro, M. J. Bearpark, J. J. Heyd, E. N. Brothers, K. N. Kudin, 
 V. N. Staroverov, T. A. Keith, R. Kobayashi, J. Normand, 
 K. Raghavachari, A. P. Rendell, J. C. Burant, S. S. Iyengar, 
 J. Tomasi, M. Cossi, J. M. Millam, M. Klene, C. Adamo, R. Cammi, 
 J. W. Ochterski, R. L. Martin, K. Morokuma, O. Farkas, 
 J. B. Foresman, and D. J. Fox, Gaussian, Inc., Wallingford CT, 2016.
 
 ******************************************
 Gaussian 16:  EM64L-G16RevA.03 25-Dec-2016
                26-Sep-2019 
 ******************************************
 %nprocshared=20
 Will use up to   20 processors via shared memory.
 %mem=5GB
 ----------------------------------------------------------------------
 #p m062x/cc-pVTZ opt=(calcfc,maxcycles=900,Tight) freq IOP(7/33=1,2/16
 =3) scf=(maxcycle=900)
 ----------------------------------------------------------------------
 1/6=900,7=10,10=4,18=20,19=15,26=3,38=1/1,3;
 2/9=110,12=2,16=3,17=6,18=5,40=1/2;
 3/5=16,6=1,11=2,25=1,30=1,71=2,74=-55,140=1/1,2,3;
 4//1;
 5/5=2,7=900,38=5/2;
 8/6=4,10=90,11=11/1;
 11/6=1,8=1,9=11,15=111,16=1/1,2,10;
 10/6=1,13=1/2;
 6/7=2,8=2,9=2,10=2,28=1/1;
 7/10=1,18=20,25=1,33=1/1,2,3,16;
 1/6=900,7=10,10=4,18=20,19=15,26=3/3(2);
 2/9=110,16=3/2;
 99//99;
 2/9=110,16=3/2;
 3/5=16,6=1,11=2,25=1,30=1,71=1,74=-55/1,2,3;
 4/5=5,16=3,69=1/1;
 5/5=2,7=900,38=5/2;
 7/33=1/1,2,3,16;
 1/6=900,7=10,18=20,19=15,26=3/3(-5);
 2/9=110,16=3/2;
 6/7=2,8=2,9=2,10=2,19=2,28=1/1;
 99/9=1/99;
 Leave Link    1 at Thu Sep 26 07:14:10 2019, MaxMem=   671088640 cpu:               5.6 elap:               2.8
 (Enter /shared/centos7/gaussian/g16/l101.exe)
 ------------------------------
 Gaussian input prepared by ASE
 ------------------------------
 Symbolic Z-matrix:
 Charge =  0 Multiplicity = 1
 O                     1.91147  -1.62572   3.23161 
 O                     2.27403  -1.13559  -0.32913 
 C                     1.78813  -0.80832   4.3764 
 C                     1.82157   0.71095   4.20991 
 C                     2.76801  -1.2531    5.41181 
 C                     2.04991  -1.0261    2.00068 
 C                     2.11854  -1.73554   0.91163 
 H                     0.76205  -1.04222   4.77489 
 H                     2.21271   1.09226   3.24357 
 H                     0.80545   1.1209    4.35453 
 H                     2.46884   1.16789   5.0067 
 H                     3.62906  -0.53064   5.52724 
 H                     3.19173  -2.25098   5.17357 
 H                     2.27816  -1.29839   6.4255 
 H                     2.1114    0.07387   1.99594 
 H                     2.05297  -2.8135    0.9003 
 H                     2.34486  -1.8683   -1.00729 
 
 ITRead=  0  0  0  0  0  0  0  0  0  0  0  0  0  0  0  0  0
 MicOpt= -1 -1 -1 -1 -1 -1 -1 -1 -1 -1 -1 -1 -1 -1 -1 -1 -1
 NAtoms=     17 NQM=       17 NQMF=       0 NMMI=      0 NMMIF=      0
                NMic=       0 NMicF=      0.
                    Isotopes and Nuclear Properties:
 (Nuclear quadrupole moments (NQMom) in fm**2, nuclear magnetic moments (NMagM)
  in nuclear magnetons)

  Atom         1           2           3           4           5           6           7           8           9          10
 IAtWgt=          16          16          12          12          12          12          12           1           1           1
 AtmWgt=  15.9949146  15.9949146  12.0000000  12.0000000  12.0000000  12.0000000  12.0000000   1.0078250   1.0078250   1.0078250
 NucSpn=           0           0           0           0           0           0           0           1           1           1
 AtZEff=  -0.0000000  -0.0000000  -0.0000000  -0.0000000  -0.0000000  -0.0000000  -0.0000000  -0.0000000  -0.0000000  -0.0000000
 NQMom=    0.0000000   0.0000000   0.0000000   0.0000000   0.0000000   0.0000000   0.0000000   0.0000000   0.0000000   0.0000000
 NMagM=    0.0000000   0.0000000   0.0000000   0.0000000   0.0000000   0.0000000   0.0000000   2.7928460   2.7928460   2.7928460
 AtZNuc=   8.0000000   8.0000000   6.0000000   6.0000000   6.0000000   6.0000000   6.0000000   1.0000000   1.0000000   1.0000000

  Atom        11          12          13          14          15          16          17
 IAtWgt=           1           1           1           1           1           1           1
 AtmWgt=   1.0078250   1.0078250   1.0078250   1.0078250   1.0078250   1.0078250   1.0078250
 NucSpn=           1           1           1           1           1           1           1
 AtZEff=  -0.0000000  -0.0000000  -0.0000000  -0.0000000  -0.0000000  -0.0000000  -0.0000000
 NQMom=    0.0000000   0.0000000   0.0000000   0.0000000   0.0000000   0.0000000   0.0000000
 NMagM=    2.7928460   2.7928460   2.7928460   2.7928460   2.7928460   2.7928460   2.7928460
 AtZNuc=   1.0000000   1.0000000   1.0000000   1.0000000   1.0000000   1.0000000   1.0000000
 Leave Link  101 at Thu Sep 26 07:14:11 2019, MaxMem=   671088640 cpu:               2.1 elap:               1.1
 (Enter /shared/centos7/gaussian/g16/l103.exe)

 GradGradGradGradGradGradGradGradGradGradGradGradGradGradGradGradGradGrad
 Berny optimization.
 Initialization pass.
                           ----------------------------
                           !    Initial Parameters    !
                           ! (Angstroms and Degrees)  !
 --------------------------                            --------------------------
 ! Name  Definition              Value          Derivative Info.                !
 --------------------------------------------------------------------------------
 ! R1    R(1,3)                  1.412          calculate D2E/DX2 analytically  !
 ! R2    R(1,6)                  1.3762         calculate D2E/DX2 analytically  !
 ! R3    R(2,7)                  1.3869         calculate D2E/DX2 analytically  !
 ! R4    R(2,17)                 1.0009         calculate D2E/DX2 analytically  !
 ! R5    R(3,4)                  1.5287         calculate D2E/DX2 analytically  !
 ! R6    R(3,5)                  1.4933         calculate D2E/DX2 analytically  !
 ! R7    R(3,8)                  1.1253         calculate D2E/DX2 analytically  !
 ! R8    R(4,9)                  1.1101         calculate D2E/DX2 analytically  !
 ! R9    R(4,10)                 1.1052         calculate D2E/DX2 analytically  !
 ! R10   R(4,11)                 1.1237         calculate D2E/DX2 analytically  !
 ! R11   R(5,12)                 1.1299         calculate D2E/DX2 analytically  !
 ! R12   R(5,13)                 1.11           calculate D2E/DX2 analytically  !
 ! R13   R(5,14)                 1.1267         calculate D2E/DX2 analytically  !
 ! R14   R(6,7)                  1.3016         calculate D2E/DX2 analytically  !
 ! R15   R(6,15)                 1.1017         calculate D2E/DX2 analytically  !
 ! R16   R(7,16)                 1.08           calculate D2E/DX2 analytically  !
 ! A1    A(3,1,6)              118.7978         calculate D2E/DX2 analytically  !
 ! A2    A(7,2,17)             107.3022         calculate D2E/DX2 analytically  !
 ! A3    A(1,3,4)              119.0184         calculate D2E/DX2 analytically  !
 ! A4    A(1,3,5)              109.4141         calculate D2E/DX2 analytically  !
 ! A5    A(1,3,8)              104.2657         calculate D2E/DX2 analytically  !
 ! A6    A(4,3,5)              110.9255         calculate D2E/DX2 analytically  !
 ! A7    A(4,3,8)              105.3712         calculate D2E/DX2 analytically  !
 ! A8    A(5,3,8)              106.9096         calculate D2E/DX2 analytically  !
 ! A9    A(3,4,9)              116.3529         calculate D2E/DX2 analytically  !
 ! A10   A(3,4,10)             109.5282         calculate D2E/DX2 analytically  !
 ! A11   A(3,4,11)             109.8472         calculate D2E/DX2 analytically  !
 ! A12   A(9,4,10)             108.0867         calculate D2E/DX2 analytically  !
 ! A13   A(9,4,11)             105.9402         calculate D2E/DX2 analytically  !
 ! A14   A(10,4,11)            106.6172         calculate D2E/DX2 analytically  !
 ! A15   A(3,5,12)             112.36           calculate D2E/DX2 analytically  !
 ! A16   A(3,5,13)             111.6803         calculate D2E/DX2 analytically  !
 ! A17   A(3,5,14)             110.5177         calculate D2E/DX2 analytically  !
 ! A18   A(12,5,13)            107.8086         calculate D2E/DX2 analytically  !
 ! A19   A(12,5,14)            105.3725         calculate D2E/DX2 analytically  !
 ! A20   A(13,5,14)            108.8395         calculate D2E/DX2 analytically  !
 ! A21   A(1,6,7)              121.0796         calculate D2E/DX2 analytically  !
 ! A22   A(1,6,15)             116.3907         calculate D2E/DX2 analytically  !
 ! A23   A(7,6,15)             122.525          calculate D2E/DX2 analytically  !
 ! A24   A(2,7,6)              121.2432         calculate D2E/DX2 analytically  !
 ! A25   A(2,7,16)             115.4154         calculate D2E/DX2 analytically  !
 ! A26   A(6,7,16)             123.3399         calculate D2E/DX2 analytically  !
 ! D1    D(6,1,3,4)             -0.386          calculate D2E/DX2 analytically  !
 ! D2    D(6,1,3,5)           -129.3295         calculate D2E/DX2 analytically  !
 ! D3    D(6,1,3,8)            116.6026         calculate D2E/DX2 analytically  !
 ! D4    D(3,1,6,7)           -177.4973         calculate D2E/DX2 analytically  !
 ! D5    D(3,1,6,15)             3.2704         calculate D2E/DX2 analytically  !
 ! D6    D(17,2,7,6)           177.3739         calculate D2E/DX2 analytically  !
 ! D7    D(17,2,7,16)           -3.0648         calculate D2E/DX2 analytically  !
 ! D8    D(1,3,4,9)            -16.0541         calculate D2E/DX2 analytically  !
 ! D9    D(1,3,4,10)           106.8549         calculate D2E/DX2 analytically  !
 ! D10   D(1,3,4,11)          -136.3622         calculate D2E/DX2 analytically  !
 ! D11   D(5,3,4,9)            112.1937         calculate D2E/DX2 analytically  !
 ! D12   D(5,3,4,10)          -124.8973         calculate D2E/DX2 analytically  !
 ! D13   D(5,3,4,11)            -8.1144         calculate D2E/DX2 analytically  !
 ! D14   D(8,3,4,9)           -132.4612         calculate D2E/DX2 analytically  !
 ! D15   D(8,3,4,10)            -9.5522         calculate D2E/DX2 analytically  !
 ! D16   D(8,3,4,11)           107.2307         calculate D2E/DX2 analytically  !
 ! D17   D(1,3,5,12)           107.3385         calculate D2E/DX2 analytically  !
 ! D18   D(1,3,5,13)           -13.9544         calculate D2E/DX2 analytically  !
 ! D19   D(1,3,5,14)          -135.2742         calculate D2E/DX2 analytically  !
 ! D20   D(4,3,5,12)           -25.9296         calculate D2E/DX2 analytically  !
 ! D21   D(4,3,5,13)          -147.2225         calculate D2E/DX2 analytically  !
 ! D22   D(4,3,5,14)            91.4577         calculate D2E/DX2 analytically  !
 ! D23   D(8,3,5,12)          -140.3141         calculate D2E/DX2 analytically  !
 ! D24   D(8,3,5,13)            98.3931         calculate D2E/DX2 analytically  !
 ! D25   D(8,3,5,14)           -22.9267         calculate D2E/DX2 analytically  !
 ! D26   D(1,6,7,2)           -179.2242         calculate D2E/DX2 analytically  !
 ! D27   D(1,6,7,16)             1.2502         calculate D2E/DX2 analytically  !
 ! D28   D(15,6,7,2)            -0.0398         calculate D2E/DX2 analytically  !
 ! D29   D(15,6,7,16)         -179.5655         calculate D2E/DX2 analytically  !
 --------------------------------------------------------------------------------
 Trust Radius=3.00D-01 FncErr=1.00D-07 GrdErr=1.00D-06 EigMax=2.50D+02 EigMin=1.00D-04
 Number of steps in this run=    102 maximum allowed number of steps=    102.
 GradGradGradGradGradGradGradGradGradGradGradGradGradGradGradGradGradGrad

 Leave Link  103 at Thu Sep 26 07:14:12 2019, MaxMem=   671088640 cpu:               1.5 elap:               0.8
 (Enter /shared/centos7/gaussian/g16/l202.exe)
                          Input orientation:                          
 ---------------------------------------------------------------------
 Center     Atomic      Atomic             Coordinates (Angstroms)
 Number     Number       Type             X           Y           Z
 ---------------------------------------------------------------------
      1          8           0        1.911473   -1.625717    3.231614
      2          8           0        2.274028   -1.135589   -0.329127
      3          6           0        1.788132   -0.808320    4.376396
      4          6           0        1.821574    0.710948    4.209911
      5          6           0        2.768006   -1.253100    5.411813
      6          6           0        2.049910   -1.026102    2.000682
      7          6           0        2.118541   -1.735540    0.911628
      8          1           0        0.762051   -1.042215    4.774889
      9          1           0        2.212715    1.092264    3.243569
     10          1           0        0.805449    1.120902    4.354532
     11          1           0        2.468844    1.167890    5.006702
     12          1           0        3.629059   -0.530639    5.527241
     13          1           0        3.191734   -2.250982    5.173572
     14          1           0        2.278163   -1.298392    6.425501
     15          1           0        2.111404    0.073867    1.995939
     16          1           0        2.052974   -2.813499    0.900304
     17          1           0        2.344858   -1.868298   -1.007289
 ---------------------------------------------------------------------
                    Distance matrix (angstroms):
                    1          2          3          4          5
     1  O    0.000000
     2  O    3.612553   0.000000
     3  C    1.412047   4.741850   0.000000
     4  C    2.534789   4.921106   1.528729   0.000000
     5  C    2.371869   5.763351   1.493342   2.489535   0.000000
     6  C    1.376189   2.343123   2.399994   2.819606   3.493279
     7  C    2.331796   1.386935   3.601878   4.117301   4.572332
     8  H    2.010807   5.324075   1.125320   2.124940   2.115182
     9  H    2.734651   4.210848   2.252951   1.110050   3.241969
    10  H    3.166726   5.402327   2.165189   1.105209   3.256586
    11  H    3.356464   5.815070   2.183132   1.123668   2.472813
    12  H    3.069072   6.041450   2.188735   2.558105   1.129905
    13  H    2.408574   5.689111   2.164916   3.402795   1.109989
    14  H    3.231489   6.756591   2.163131   3.025684   1.126748
    15  H    2.110794   2.625864   2.559166   2.321971   3.722924
    16  H    2.620277   2.091828   4.021703   4.840328   4.826989
    17  H    4.267899   1.000891   5.515211   5.843417   6.462383
                    6          7          8          9         10
     6  C    0.000000
     7  C    1.301558   0.000000
     8  H    3.058605   4.152777   0.000000
     9  H    2.461453   3.666510   3.000895   0.000000
    10  H    3.420369   4.662303   2.204010   1.793170   0.000000
    11  H    3.745032   5.032122   2.802043   1.783245   1.787293
    12  H    3.895614   5.003732   3.007902   3.139268   3.474997
    13  H    3.587662   4.425109   2.742886   3.982548   4.211269
    14  H    4.439061   5.533478   2.255824   3.980479   3.508673
    15  H    1.101697   2.109440   3.284655   1.613684   2.892190
    16  H    2.098959   1.080011   4.451555   4.557564   5.382149
    17  H    3.137543   1.936772   6.051551   5.181909   6.328841
                   11         12         13         14         15
    11  H    0.000000
    12  H    2.121806   0.000000
    13  H    3.498443   1.809949   0.000000
    14  H    2.851649   1.794780   1.819167   0.000000
    15  H    3.223251   3.890861   4.082816   4.640251   0.000000
    16  H    5.734711   5.394815   4.458028   5.733591   3.088804
    17  H    6.738093   6.792539   6.250335   7.454905   3.584115
                   16         17
    16  H    0.000000
    17  H    2.148840   0.000000
 Stoichiometry    C5H10O2
 Framework group  C1[X(C5H10O2)]
 Deg. of freedom    45
 Full point group                 C1      NOp   1
 Largest Abelian subgroup         C1      NOp   1
 Largest concise Abelian subgroup C1      NOp   1
                         Standard orientation:                         
 ---------------------------------------------------------------------
 Center     Atomic      Atomic             Coordinates (Angstroms)
 Number     Number       Type             X           Y           Z
 ---------------------------------------------------------------------
      1          8           0       -0.229327   -0.666368   -0.361933
      2          8           0        3.187333    0.329480    0.258762
      3          6           0       -1.498689   -0.047824   -0.360898
      4          6           0       -1.601447    1.433592    0.002231
      5          6           0       -2.447777   -0.863726    0.453723
      6          6           0        0.876264    0.088575   -0.043147
      7          6           0        2.072265   -0.423747   -0.077185
      8          1           0       -1.841887   -0.117300   -1.430353
      9          1           0       -0.720054    1.878948    0.509198
     10          1           0       -1.807686    2.023906   -0.909076
     11          1           0       -2.471098    1.597204    0.694739
     12          1           0       -2.694887   -0.375840    1.442454
     13          1           0       -2.041607   -1.874658    0.666127
     14          1           0       -3.433921   -0.972647   -0.080335
     15          1           0        0.687576    1.133416    0.250864
     16          1           0        2.272943   -1.443821   -0.369759
     17          1           0        3.982884   -0.275326    0.203157
 ---------------------------------------------------------------------
 Rotational constants (GHZ):           6.5858525           1.1882508           1.0647256
 Leave Link  202 at Thu Sep 26 07:14:13 2019, MaxMem=   671088640 cpu:               3.5 elap:               1.7
 (Enter /shared/centos7/gaussian/g16/l301.exe)
 Standard basis: CC-pVTZ (5D, 7F)
 Ernie: Thresh=  0.10000D-02 Tol=  0.10000D-05 Strict=F.
 Ernie:  21 primitive shells out of 262 were deleted.
 There are   395 symmetry adapted cartesian basis functions of A   symmetry.
 There are   350 symmetry adapted basis functions of A   symmetry.
   350 basis functions,   534 primitive gaussians,   395 cartesian basis functions
    28 alpha electrons       28 beta electrons
       nuclear repulsion energy       307.4407346243 Hartrees.
 IExCor= 4336 DFT=T Ex+Corr=M062X ExCW=0 ScaHFX=  0.540000
 ScaDFX=  1.000000  1.000000  1.000000  1.000000 ScalE2=  1.000000  1.000000
 IRadAn=      5 IRanWt=     -1 IRanGd=            0 ICorTp=0 IEmpDi=  4
 NAtoms=   17 NActive=   17 NUniq=   17 SFac= 1.00D+00 NAtFMM=   60 NAOKFM=F Big=F
 Integral buffers will be    131072 words long.
 Raffenetti 2 integral format.
 Two-electron integral symmetry is turned on.
 Leave Link  301 at Thu Sep 26 07:14:14 2019, MaxMem=   671088640 cpu:               1.5 elap:               0.8
 (Enter /shared/centos7/gaussian/g16/l302.exe)
 NPDir=0 NMtPBC=     1 NCelOv=     1 NCel=       1 NClECP=     1 NCelD=      1
         NCelK=      1 NCelE2=     1 NClLst=     1 CellRange=     0.0.
 One-electron integrals computed using PRISM.
 One-electron integral symmetry used in STVInt
 NBasis=   350 RedAO= T EigKep=  2.24D-04  NBF=   350
 NBsUse=   350 1.00D-06 EigRej= -1.00D+00 NBFU=   350
 Precomputing XC quadrature grid using
 IXCGrd= 4 IRadAn=           5 IRanWt=          -1 IRanGd=           0 AccXCQ= 0.00D+00.
 Generated NRdTot=       0 NPtTot=           0 NUsed=           0 NTot=          32
 NSgBfM=   395   395   395   395   395 MxSgAt=    17 MxSgA2=    17.
 Leave Link  302 at Thu Sep 26 07:15:12 2019, MaxMem=   671088640 cpu:             115.5 elap:              57.8
 (Enter /shared/centos7/gaussian/g16/l303.exe)
 DipDrv:  MaxL=1.
 Leave Link  303 at Thu Sep 26 07:15:17 2019, MaxMem=   671088640 cpu:               9.8 elap:               4.9
 (Enter /shared/centos7/gaussian/g16/l401.exe)
 ExpMin= 1.03D-01 ExpMax= 1.53D+04 ExpMxC= 5.22D+02 IAcc=3 IRadAn=         5 AccDes= 0.00D+00
 Harris functional with IExCor= 1009 and IRadAn=       5 diagonalized for initial guess.
 HarFok:  IExCor= 1009 AccDes= 0.00D+00 IRadAn=         5 IDoV= 1 UseB2=F ITyADJ=14
 ICtDFT=  3500011 ScaDFX=  1.000000  1.000000  1.000000  1.000000
 FoFCou: FMM=F IPFlag=           0 FMFlag=      100000 FMFlg1=           0
         NFxFlg=           0 DoJE=T BraDBF=F KetDBF=T FulRan=T
         wScrn=  0.000000 ICntrl=       500 IOpCl=  0 I1Cent=   200000004 NGrid=           0
         NMat0=    1 NMatS0=      1 NMatT0=    0 NMatD0=    1 NMtDS0=    0 NMtDT0=    0
 Petite list used in FoFCou.
 Harris En= -346.794926056499    
 JPrj=0 DoOrth=F DoCkMO=F.
 Leave Link  401 at Thu Sep 26 07:15:45 2019, MaxMem=   671088640 cpu:              56.2 elap:              28.1
 (Enter /shared/centos7/gaussian/g16/l502.exe)
 Integral symmetry usage will be decided dynamically.
 Closed shell SCF:
 Using DIIS extrapolation, IDIIS=  1040.
 NGot=   671088640 LenX=   670765141 LenY=   670608675
 Requested convergence on RMS density matrix=1.00D-08 within 900 cycles.
 Requested convergence on MAX density matrix=1.00D-06.
 Requested convergence on             energy=1.00D-06.
 No special actions if energy rises.
 Fock matrices will be formed incrementally for  20 cycles.
 Integral accuracy reduced to 1.0D-05 until final iterations.

 Cycle   1  Pass 0  IDiag  1:
 FoFJK:  IHMeth= 1 ICntrl=       0 DoSepK=F KAlg= 0 I1Cent=           0 FoldK=F
 IRaf= 920000000 NMat=       1 IRICut=       1 DoRegI=T DoRafI=F ISym2E= 0 IDoP0=0 IntGTp=1.
 FoFCou: FMM=F IPFlag=           0 FMFlag=      100000 FMFlg1=           0
         NFxFlg=           0 DoJE=F BraDBF=F KetDBF=F FulRan=T
         wScrn=  0.000000 ICntrl=         0 IOpCl=  0 I1Cent=           0 NGrid=           0
         NMat0=    1 NMatS0=      1 NMatT0=    0 NMatD0=    1 NMtDS0=    0 NMtDT0=    0
 Symmetry not used in FoFCou.
 E= -346.677305326708    
 DIIS: error= 2.19D-02 at cycle   1 NSaved=   1.
 NSaved= 1 IEnMin= 1 EnMin= -346.677305326708     IErMin= 1 ErrMin= 2.19D-02
 ErrMax= 2.19D-02  0.00D+00 EMaxC= 1.00D-01 BMatC= 2.88D-01 BMatP= 2.88D-01
 IDIUse=3 WtCom= 7.81D-01 WtEn= 2.19D-01
 Coeff-Com:  0.100D+01
 Coeff-En:   0.100D+01
 Coeff:      0.100D+01
 Gap=     0.339 Goal=   None    Shift=    0.000
 GapD=    0.339 DampG=1.000 DampE=0.500 DampFc=0.5000 IDamp=-1.
 Damping current iteration by 5.00D-01
 RMSDP=2.37D-03 MaxDP=1.93D-01              OVMax= 1.30D-01

 Cycle   2  Pass 0  IDiag  1:
 RMSU=  1.18D-03    CP:  1.00D+00
 E= -346.796933306005     Delta-E=       -0.119627979296 Rises=F Damp=T
 DIIS: error= 7.44D-03 at cycle   2 NSaved=   2.
 NSaved= 2 IEnMin= 2 EnMin= -346.796933306005     IErMin= 2 ErrMin= 7.44D-03
 ErrMax= 7.44D-03  0.00D+00 EMaxC= 1.00D-01 BMatC= 2.10D-02 BMatP= 2.88D-01
 IDIUse=3 WtCom= 9.26D-01 WtEn= 7.44D-02
 Coeff-Com: -0.132D+00 0.113D+01
 Coeff-En:   0.000D+00 0.100D+01
 Coeff:     -0.122D+00 0.112D+01
 Gap=     0.311 Goal=   None    Shift=    0.000
 RMSDP=4.58D-04 MaxDP=3.31D-02 DE=-1.20D-01 OVMax= 6.53D-02

 Cycle   3  Pass 0  IDiag  1:
 RMSU=  4.43D-04    CP:  1.01D+00  9.03D-01
 E= -346.904632032093     Delta-E=       -0.107698726088 Rises=F Damp=F
 DIIS: error= 2.35D-03 at cycle   3 NSaved=   3.
 NSaved= 3 IEnMin= 3 EnMin= -346.904632032093     IErMin= 3 ErrMin= 2.35D-03
 ErrMax= 2.35D-03  0.00D+00 EMaxC= 1.00D-01 BMatC= 3.17D-03 BMatP= 2.10D-02
 IDIUse=3 WtCom= 9.76D-01 WtEn= 2.35D-02
 Coeff-Com: -0.764D-01 0.292D+00 0.784D+00
 Coeff-En:   0.000D+00 0.000D+00 0.100D+01
 Coeff:     -0.746D-01 0.285D+00 0.789D+00
 Gap=     0.314 Goal=   None    Shift=    0.000
 RMSDP=1.85D-04 MaxDP=1.63D-02 DE=-1.08D-01 OVMax= 1.07D-02

 Cycle   4  Pass 0  IDiag  1:
 RMSU=  1.26D-04    CP:  1.01D+00  1.01D+00  8.73D-01
 E= -346.906179894840     Delta-E=       -0.001547862747 Rises=F Damp=F
 DIIS: error= 1.43D-03 at cycle   4 NSaved=   4.
 NSaved= 4 IEnMin= 4 EnMin= -346.906179894840     IErMin= 4 ErrMin= 1.43D-03
 ErrMax= 1.43D-03  0.00D+00 EMaxC= 1.00D-01 BMatC= 9.74D-04 BMatP= 3.17D-03
 IDIUse=3 WtCom= 9.86D-01 WtEn= 1.43D-02
 Coeff-Com: -0.259D-01 0.674D-01 0.397D+00 0.561D+00
 Coeff-En:   0.000D+00 0.000D+00 0.198D+00 0.802D+00
 Coeff:     -0.255D-01 0.664D-01 0.394D+00 0.565D+00
 Gap=     0.309 Goal=   None    Shift=    0.000
 RMSDP=8.04D-05 MaxDP=7.28D-03 DE=-1.55D-03 OVMax= 5.03D-03

 Cycle   5  Pass 0  IDiag  1:
 RMSU=  2.76D-05    CP:  1.01D+00  9.75D-01  9.37D-01  5.36D-01
 E= -346.906863244543     Delta-E=       -0.000683349703 Rises=F Damp=F
 DIIS: error= 1.89D-04 at cycle   5 NSaved=   5.
 NSaved= 5 IEnMin= 5 EnMin= -346.906863244543     IErMin= 5 ErrMin= 1.89D-04
 ErrMax= 1.89D-04  0.00D+00 EMaxC= 1.00D-01 BMatC= 1.91D-05 BMatP= 9.74D-04
 IDIUse=3 WtCom= 9.98D-01 WtEn= 1.89D-03
 Coeff-Com: -0.381D-02 0.702D-02 0.877D-01 0.189D+00 0.720D+00
 Coeff-En:   0.000D+00 0.000D+00 0.000D+00 0.000D+00 0.100D+01
 Coeff:     -0.380D-02 0.701D-02 0.875D-01 0.189D+00 0.720D+00
 Gap=     0.310 Goal=   None    Shift=    0.000
 RMSDP=1.20D-05 MaxDP=6.73D-04 DE=-6.83D-04 OVMax= 1.34D-03

 Cycle   6  Pass 0  IDiag  1:
 RMSU=  7.95D-06    CP:  1.01D+00  9.76D-01  9.38D-01  5.95D-01  8.29D-01
 E= -346.906876917053     Delta-E=       -0.000013672510 Rises=F Damp=F
 DIIS: error= 5.29D-05 at cycle   6 NSaved=   6.
 NSaved= 6 IEnMin= 6 EnMin= -346.906876917053     IErMin= 6 ErrMin= 5.29D-05
 ErrMax= 5.29D-05  0.00D+00 EMaxC= 1.00D-01 BMatC= 2.02D-06 BMatP= 1.91D-05
 IDIUse=1 WtCom= 1.00D+00 WtEn= 0.00D+00
 Coeff-Com:  0.734D-04-0.133D-02 0.133D-01 0.490D-01 0.299D+00 0.640D+00
 Coeff:      0.734D-04-0.133D-02 0.133D-01 0.490D-01 0.299D+00 0.640D+00
 Gap=     0.310 Goal=   None    Shift=    0.000
 RMSDP=4.03D-06 MaxDP=2.60D-04 DE=-1.37D-05 OVMax= 5.88D-04

 Initial convergence to 1.0D-05 achieved.  Increase integral accuracy.
 Cycle   7  Pass 1  IDiag  1:
 E= -346.906865901816     Delta-E=        0.000011015237 Rises=F Damp=F
 DIIS: error= 3.21D-05 at cycle   1 NSaved=   1.
 NSaved= 1 IEnMin= 1 EnMin= -346.906865901816     IErMin= 1 ErrMin= 3.21D-05
 ErrMax= 3.21D-05  0.00D+00 EMaxC= 1.00D-01 BMatC= 7.32D-07 BMatP= 7.32D-07
 IDIUse=1 WtCom= 1.00D+00 WtEn= 0.00D+00
 Coeff-Com:  0.100D+01
 Coeff:      0.100D+01
 Gap=     0.310 Goal=   None    Shift=    0.000
 RMSDP=4.03D-06 MaxDP=2.60D-04 DE= 1.10D-05 OVMax= 4.48D-04

 Cycle   8  Pass 1  IDiag  1:
 RMSU=  7.83D-06    CP:  1.00D+00
 E= -346.906866012244     Delta-E=       -0.000000110429 Rises=F Damp=F
 DIIS: error= 2.45D-05 at cycle   2 NSaved=   2.
 NSaved= 2 IEnMin= 2 EnMin= -346.906866012244     IErMin= 2 ErrMin= 2.45D-05
 ErrMax= 2.45D-05  0.00D+00 EMaxC= 1.00D-01 BMatC= 4.34D-07 BMatP= 7.32D-07
 IDIUse=1 WtCom= 1.00D+00 WtEn= 0.00D+00
 Coeff-Com:  0.414D+00 0.586D+00
 Coeff:      0.414D+00 0.586D+00
 Gap=     0.310 Goal=   None    Shift=    0.000
 RMSDP=1.83D-06 MaxDP=8.28D-05 DE=-1.10D-07 OVMax= 3.39D-04

 Cycle   9  Pass 1  IDiag  1:
 RMSU=  1.79D-06    CP:  1.00D+00  9.58D-01
 E= -346.906866310143     Delta-E=       -0.000000297899 Rises=F Damp=F
 DIIS: error= 1.00D-05 at cycle   3 NSaved=   3.
 NSaved= 3 IEnMin= 3 EnMin= -346.906866310143     IErMin= 3 ErrMin= 1.00D-05
 ErrMax= 1.00D-05  0.00D+00 EMaxC= 1.00D-01 BMatC= 7.51D-08 BMatP= 4.34D-07
 IDIUse=1 WtCom= 1.00D+00 WtEn= 0.00D+00
 Coeff-Com: -0.116D-01 0.289D+00 0.723D+00
 Coeff:     -0.116D-01 0.289D+00 0.723D+00
 Gap=     0.310 Goal=   None    Shift=    0.000
 RMSDP=6.04D-07 MaxDP=2.72D-05 DE=-2.98D-07 OVMax= 1.05D-04

 Cycle  10  Pass 1  IDiag  1:
 RMSU=  2.26D-07    CP:  1.00D+00  9.93D-01  7.29D-01
 E= -346.906866370615     Delta-E=       -0.000000060472 Rises=F Damp=F
 DIIS: error= 1.19D-06 at cycle   4 NSaved=   4.
 NSaved= 4 IEnMin= 4 EnMin= -346.906866370615     IErMin= 4 ErrMin= 1.19D-06
 ErrMax= 1.19D-06  0.00D+00 EMaxC= 1.00D-01 BMatC= 1.39D-09 BMatP= 7.51D-08
 IDIUse=1 WtCom= 1.00D+00 WtEn= 0.00D+00
 Coeff-Com: -0.117D-01 0.108D+00 0.300D+00 0.604D+00
 Coeff:     -0.117D-01 0.108D+00 0.300D+00 0.604D+00
 Gap=     0.310 Goal=   None    Shift=    0.000
 RMSDP=8.12D-08 MaxDP=4.56D-06 DE=-6.05D-08 OVMax= 6.53D-06

 Cycle  11  Pass 1  IDiag  1:
 RMSU=  7.74D-08    CP:  1.00D+00  9.94D-01  7.41D-01  9.65D-01
 E= -346.906866371669     Delta-E=       -0.000000001054 Rises=F Damp=F
 DIIS: error= 3.92D-07 at cycle   5 NSaved=   5.
 NSaved= 5 IEnMin= 5 EnMin= -346.906866371669     IErMin= 5 ErrMin= 3.92D-07
 ErrMax= 3.92D-07  0.00D+00 EMaxC= 1.00D-01 BMatC= 1.02D-10 BMatP= 1.39D-09
 IDIUse=1 WtCom= 1.00D+00 WtEn= 0.00D+00
 Coeff-Com: -0.177D-02-0.954D-02-0.773D-02 0.173D+00 0.846D+00
 Coeff:     -0.177D-02-0.954D-02-0.773D-02 0.173D+00 0.846D+00
 Gap=     0.310 Goal=   None    Shift=    0.000
 RMSDP=3.02D-08 MaxDP=1.39D-06 DE=-1.05D-09 OVMax= 2.53D-06

 Cycle  12  Pass 1  IDiag  1:
 RMSU=  2.13D-08    CP:  1.00D+00  9.95D-01  7.41D-01  1.06D+00  9.81D-01
 E= -346.906866371763     Delta-E=       -0.000000000095 Rises=F Damp=F
 DIIS: error= 1.34D-07 at cycle   6 NSaved=   6.
 NSaved= 6 IEnMin= 6 EnMin= -346.906866371763     IErMin= 6 ErrMin= 1.34D-07
 ErrMax= 1.34D-07  0.00D+00 EMaxC= 1.00D-01 BMatC= 1.23D-11 BMatP= 1.02D-10
 IDIUse=1 WtCom= 1.00D+00 WtEn= 0.00D+00
 Coeff-Com:  0.607D-03-0.153D-01-0.339D-01-0.118D-02 0.312D+00 0.738D+00
 Coeff:      0.607D-03-0.153D-01-0.339D-01-0.118D-02 0.312D+00 0.738D+00
 Gap=     0.310 Goal=   None    Shift=    0.000
 RMSDP=1.27D-08 MaxDP=8.75D-07 DE=-9.47D-11 OVMax= 9.73D-07

 Cycle  13  Pass 1  IDiag  1:
 RMSU=  7.99D-09    CP:  1.00D+00  9.94D-01  7.43D-01  1.08D+00  1.07D+00
                    CP:  8.44D-01
 E= -346.906866371781     Delta-E=       -0.000000000017 Rises=F Damp=F
 DIIS: error= 3.82D-08 at cycle   7 NSaved=   7.
 NSaved= 7 IEnMin= 7 EnMin= -346.906866371781     IErMin= 7 ErrMin= 3.82D-08
 ErrMax= 3.82D-08  0.00D+00 EMaxC= 1.00D-01 BMatC= 9.49D-13 BMatP= 1.23D-11
 IDIUse=1 WtCom= 1.00D+00 WtEn= 0.00D+00
 Coeff-Com:  0.340D-03-0.542D-02-0.126D-01-0.116D-01 0.663D-01 0.286D+00
 Coeff-Com:  0.677D+00
 Coeff:      0.340D-03-0.542D-02-0.126D-01-0.116D-01 0.663D-01 0.286D+00
 Coeff:      0.677D+00
 Gap=     0.310 Goal=   None    Shift=    0.000
 RMSDP=2.92D-09 MaxDP=2.76D-07 DE=-1.73D-11 OVMax= 2.01D-07

 SCF Done:  E(RM062X) =  -346.906866372     A.U. after   13 cycles
            NFock= 13  Conv=0.29D-08     -V/T= 2.0062
 KE= 3.447859522853D+02 PE=-1.425049588394D+03 EE= 4.259160351122D+02
 Leave Link  502 at Thu Sep 26 07:25:11 2019, MaxMem=   671088640 cpu:            1131.3 elap:             565.7
 (Enter /shared/centos7/gaussian/g16/l801.exe)
 DoSCS=F DFT=T ScalE2(SS,OS)=  1.000000  1.000000
 Range of M.O.s used for correlation:     1   350
 NBasis=   350 NAE=    28 NBE=    28 NFC=     0 NFV=     0
 NROrb=    350 NOA=    28 NOB=    28 NVA=   322 NVB=   322

 **** Warning!!: The largest alpha MO coefficient is  0.12843290D+02

 Leave Link  801 at Thu Sep 26 07:25:12 2019, MaxMem=   671088640 cpu:               1.4 elap:               0.7
 (Enter /shared/centos7/gaussian/g16/l1101.exe)
 Using compressed storage, NAtomX=    17.
 Will process     18 centers per pass.
 Leave Link 1101 at Thu Sep 26 07:25:41 2019, MaxMem=   671088640 cpu:              58.2 elap:              29.1
 (Enter /shared/centos7/gaussian/g16/l1102.exe)
 Symmetrizing basis deriv contribution to polar:
 IMax=3 JMax=2 DiffMx= 0.00D+00
 Leave Link 1102 at Thu Sep 26 07:25:43 2019, MaxMem=   671088640 cpu:               4.3 elap:               2.2
 (Enter /shared/centos7/gaussian/g16/l1110.exe)
 Forming Gx(P) for the SCF density, NAtomX=    17.
 Integral derivatives from FoFJK, PRISM(SPDF).
 Do as many integral derivatives as possible in FoFJK.
 G2DrvN: MDV=     671087280.
 G2DrvN: will do    18 centers at a time, making    1 passes.
 Calling FoFCou, ICntrl=  3107 FMM=F I1Cent=   0 AccDes= 0.00D+00.
 FoFJK:  IHMeth= 1 ICntrl=    3107 DoSepK=F KAlg= 0 I1Cent=           0 FoldK=F
 IRaf=         0 NMat=       1 IRICut=       1 DoRegI=T DoRafI=F ISym2E= 0 IDoP0=0 IntGTp=1.
 FoFCou: FMM=F IPFlag=           0 FMFlag=      100000 FMFlg1=           0
         NFxFlg=           0 DoJE=F BraDBF=F KetDBF=F FulRan=T
         wScrn=  0.000000 ICntrl=      3107 IOpCl=  0 I1Cent=           0 NGrid=           0
         NMat0=    1 NMatS0=      1 NMatT0=    0 NMatD0=    1 NMtDS0=    0 NMtDT0=    0
 Symmetry not used in FoFCou.
 End of G2Drv F.D. properties file   721 does not exist.
 End of G2Drv F.D. properties file   722 does not exist.
 End of G2Drv F.D. properties file   788 does not exist.
 Leave Link 1110 at Thu Sep 26 07:41:59 2019, MaxMem=   671088640 cpu:            1952.3 elap:             976.2
 (Enter /shared/centos7/gaussian/g16/l1002.exe)
 Minotr:  Closed shell wavefunction.
          IDoAtm=11111111111111111
          Direct CPHF calculation.
          Differentiating once with respect to nuclear coordinates.
          Requested convergence is 1.0D-08 RMS, and 1.0D-07 maximum.
          Secondary convergence is 1.0D-12 RMS, and 1.0D-12 maximum.
          NewPWx=T KeepS1=F KeepF1=F KeepIn=T MapXYZ=F SortEE=F KeepMc=T.
         5137 words used for storage of precomputed grid.
 Two-electron integrals replicated using symmetry.
          MDV=     671088640 using IRadAn=       1.
          Solving linear equations simultaneously, MaxMat=     380.
 FoF2E skips out because all densities are zero.
 CalDSu exits because no D1Ps are significant.
 FoFJK:  IHMeth= 1 ICntrl=       0 DoSepK=F KAlg= 0 I1Cent=           0 FoldK=F
 IRaf= 910000000 NMat=      51 IRICut=     127 DoRegI=T DoRafI=T ISym2E= 2 IDoP0=3 IntGTp=3.
 FoFCou: FMM=F IPFlag=           0 FMFlag=      100000 FMFlg1=           0
         NFxFlg=           0 DoJE=F BraDBF=F KetDBF=F FulRan=T
         wScrn=  0.000000 ICntrl=         0 IOpCl=  0 I1Cent=           0 NGrid=           0
         NMat0=   51 NMatS0=     51 NMatT0=    0 NMatD0=   51 NMtDS0=    0 NMtDT0=    0
 Integrals replicated using symmetry in FoFCou.
 Raff kept on since  87.79% of shell-pairs survive, threshold=   0.20 IRatSp=88.
          There are    54 degrees of freedom in the 1st order CPHF.  IDoFFX=6 NUNeed=     0.
     48 vectors produced by pass  0 Test12= 1.67D-14 1.85D-09 XBig12= 7.18D-02 6.76D-02.
 AX will form    48 AO Fock derivatives at one time.
     48 vectors produced by pass  1 Test12= 1.67D-14 1.85D-09 XBig12= 9.32D-03 2.56D-02.
     48 vectors produced by pass  2 Test12= 1.67D-14 1.85D-09 XBig12= 2.80D-04 2.59D-03.
     48 vectors produced by pass  3 Test12= 1.67D-14 1.85D-09 XBig12= 2.74D-06 2.45D-04.
     48 vectors produced by pass  4 Test12= 1.67D-14 1.85D-09 XBig12= 2.16D-08 2.08D-05.
     48 vectors produced by pass  5 Test12= 1.67D-14 1.85D-09 XBig12= 9.86D-11 1.29D-06.
     27 vectors produced by pass  6 Test12= 1.67D-14 1.85D-09 XBig12= 4.09D-13 6.52D-08.
      6 vectors produced by pass  7 Test12= 1.67D-14 1.85D-09 XBig12= 1.53D-15 3.63D-09.
 InvSVY:  IOpt=1 It=  1 EMax= 2.22D-16
 Solved reduced A of dimension   321 with    54 vectors.
 End of Minotr F.D. properties file   721 does not exist.
 End of Minotr F.D. properties file   722 does not exist.
 End of Minotr F.D. properties file   788 does not exist.
 Leave Link 1002 at Thu Sep 26 08:11:12 2019, MaxMem=   671088640 cpu:            3504.5 elap:            1752.4
 (Enter /shared/centos7/gaussian/g16/l601.exe)
 Copying SCF densities to generalized density rwf, IOpCl= 0 IROHF=0.

 **********************************************************************

            Population analysis using the SCF density.

 **********************************************************************

 Orbital symmetries:
       Occupied  (A) (A) (A) (A) (A) (A) (A) (A) (A) (A) (A) (A)
                 (A) (A) (A) (A) (A) (A) (A) (A) (A) (A) (A) (A)
                 (A) (A) (A) (A)
       Virtual   (A) (A) (A) (A) (A) (A) (A) (A) (A) (A) (A) (A)
                 (A) (A) (A) (A) (A) (A) (A) (A) (A) (A) (A) (A)
                 (A) (A) (A) (A) (A) (A) (A) (A) (A) (A) (A) (A)
                 (A) (A) (A) (A) (A) (A) (A) (A) (A) (A) (A) (A)
                 (A) (A) (A) (A) (A) (A) (A) (A) (A) (A) (A) (A)
                 (A) (A) (A) (A) (A) (A) (A) (A) (A) (A) (A) (A)
                 (A) (A) (A) (A) (A) (A) (A) (A) (A) (A) (A) (A)
                 (A) (A) (A) (A) (A) (A) (A) (A) (A) (A) (A) (A)
                 (A) (A) (A) (A) (A) (A) (A) (A) (A) (A) (A) (A)
                 (A) (A) (A) (A) (A) (A) (A) (A) (A) (A) (A) (A)
                 (A) (A) (A) (A) (A) (A) (A) (A) (A) (A) (A) (A)
                 (A) (A) (A) (A) (A) (A) (A) (A) (A) (A) (A) (A)
                 (A) (A) (A) (A) (A) (A) (A) (A) (A) (A) (A) (A)
                 (A) (A) (A) (A) (A) (A) (A) (A) (A) (A) (A) (A)
                 (A) (A) (A) (A) (A) (A) (A) (A) (A) (A) (A) (A)
                 (A) (A) (A) (A) (A) (A) (A) (A) (A) (A) (A) (A)
                 (A) (A) (A) (A) (A) (A) (A) (A) (A) (A) (A) (A)
                 (A) (A) (A) (A) (A) (A) (A) (A) (A) (A) (A) (A)
                 (A) (A) (A) (A) (A) (A) (A) (A) (A) (A) (A) (A)
                 (A) (A) (A) (A) (A) (A) (A) (A) (A) (A) (A) (A)
                 (A) (A) (A) (A) (A) (A) (A) (A) (A) (A) (A) (A)
                 (A) (A) (A) (A) (A) (A) (A) (A) (A) (A) (A) (A)
                 (A) (A) (A) (A) (A) (A) (A) (A) (A) (A) (A) (A)
                 (A) (A) (A) (A) (A) (A) (A) (A) (A) (A) (A) (A)
                 (A) (A) (A) (A) (A) (A) (A) (A) (A) (A) (A) (A)
                 (A) (A) (A) (A) (A) (A) (A) (A) (A) (A) (A) (A)
                 (A) (A) (A) (A) (A) (A) (A) (A) (A) (A)
 The electronic state is 1-A.
 Alpha  occ. eigenvalues --  -19.64062 -19.63911 -10.59721 -10.57199 -10.57054
 Alpha  occ. eigenvalues --  -10.54000 -10.53075  -1.17675  -1.15401  -0.89768
 Alpha  occ. eigenvalues --   -0.83532  -0.78284  -0.69424  -0.64238  -0.60710
 Alpha  occ. eigenvalues --   -0.56984  -0.54766  -0.54040  -0.48478  -0.47379
 Alpha  occ. eigenvalues --   -0.45861  -0.45347  -0.42987  -0.42507  -0.41482
 Alpha  occ. eigenvalues --   -0.38610  -0.37167  -0.25398
 Alpha virt. eigenvalues --    0.05612   0.06851   0.08517   0.09396   0.10291
 Alpha virt. eigenvalues --    0.11866   0.13130   0.14922   0.15837   0.16322
 Alpha virt. eigenvalues --    0.18018   0.20994   0.21254   0.22273   0.26245
 Alpha virt. eigenvalues --    0.27707   0.28323   0.30198   0.32622   0.33250
 Alpha virt. eigenvalues --    0.35127   0.36088   0.36411   0.37889   0.40023
 Alpha virt. eigenvalues --    0.42084   0.42994   0.44703   0.45605   0.46691
 Alpha virt. eigenvalues --    0.47466   0.48265   0.48846   0.50245   0.50648
 Alpha virt. eigenvalues --    0.50870   0.51917   0.53157   0.53838   0.54140
 Alpha virt. eigenvalues --    0.54731   0.58194   0.58561   0.61651   0.63204
 Alpha virt. eigenvalues --    0.63825   0.66881   0.68955   0.69823   0.70543
 Alpha virt. eigenvalues --    0.71544   0.76301   0.78224   0.80000   0.82993
 Alpha virt. eigenvalues --    0.84559   0.86273   0.89191   0.90150   0.90401
 Alpha virt. eigenvalues --    0.91606   0.93536   0.94405   0.95784   0.97368
 Alpha virt. eigenvalues --    1.02004   1.02299   1.04199   1.04644   1.05044
 Alpha virt. eigenvalues --    1.06101   1.08083   1.09650   1.11320   1.12255
 Alpha virt. eigenvalues --    1.13137   1.14384   1.15641   1.18168   1.19423
 Alpha virt. eigenvalues --    1.20439   1.22695   1.24274   1.27070   1.28326
 Alpha virt. eigenvalues --    1.29987   1.30652   1.32453   1.34347   1.35433
 Alpha virt. eigenvalues --    1.36812   1.36949   1.39417   1.40260   1.41184
 Alpha virt. eigenvalues --    1.43229   1.45102   1.46362   1.49730   1.49864
 Alpha virt. eigenvalues --    1.52487   1.54076   1.57363   1.58212   1.60545
 Alpha virt. eigenvalues --    1.66577   1.67588   1.72209   1.77724   1.85523
 Alpha virt. eigenvalues --    1.86952   1.88732   1.95439   2.01614   2.05169
 Alpha virt. eigenvalues --    2.07751   2.09250   2.12045   2.13995   2.17891
 Alpha virt. eigenvalues --    2.24330   2.28441   2.29141   2.29443   2.34158
 Alpha virt. eigenvalues --    2.35748   2.38170   2.40793   2.41604   2.46452
 Alpha virt. eigenvalues --    2.48438   2.50100   2.53005   2.54488   2.57787
 Alpha virt. eigenvalues --    2.60066   2.62198   2.64019   2.66739   2.67257
 Alpha virt. eigenvalues --    2.69656   2.75120   2.75726   2.77914   2.80734
 Alpha virt. eigenvalues --    2.81402   2.82023   2.83851   2.86734   2.86875
 Alpha virt. eigenvalues --    2.87247   2.90066   2.90334   2.92193   2.93837
 Alpha virt. eigenvalues --    2.95603   2.96239   2.96725   2.98034   2.99691
 Alpha virt. eigenvalues --    3.01089   3.02478   3.02888   3.05287   3.06086
 Alpha virt. eigenvalues --    3.07153   3.08906   3.10800   3.11411   3.12805
 Alpha virt. eigenvalues --    3.14782   3.17371   3.20148   3.20802   3.22971
 Alpha virt. eigenvalues --    3.23296   3.26407   3.27879   3.28336   3.31199
 Alpha virt. eigenvalues --    3.31735   3.32362   3.33599   3.35261   3.35938
 Alpha virt. eigenvalues --    3.37015   3.38581   3.40776   3.42565   3.43538
 Alpha virt. eigenvalues --    3.46029   3.47448   3.47719   3.49159   3.49777
 Alpha virt. eigenvalues --    3.52103   3.55009   3.58601   3.59799   3.61084
 Alpha virt. eigenvalues --    3.62252   3.64171   3.64964   3.67251   3.68677
 Alpha virt. eigenvalues --    3.71462   3.73890   3.75078   3.76073   3.77176
 Alpha virt. eigenvalues --    3.78807   3.80984   3.83540   3.84117   3.85081
 Alpha virt. eigenvalues --    3.88004   3.90877   3.92822   3.92959   3.94105
 Alpha virt. eigenvalues --    3.95987   3.97237   3.98052   3.99441   4.01788
 Alpha virt. eigenvalues --    4.02698   4.04723   4.05395   4.06255   4.08386
 Alpha virt. eigenvalues --    4.10868   4.11639   4.12982   4.15126   4.16515
 Alpha virt. eigenvalues --    4.18051   4.23040   4.23666   4.25204   4.27862
 Alpha virt. eigenvalues --    4.30457   4.35029   4.37231   4.37906   4.39039
 Alpha virt. eigenvalues --    4.42722   4.45401   4.45759   4.51449   4.53223
 Alpha virt. eigenvalues --    4.58153   4.63474   4.64663   4.65992   4.71812
 Alpha virt. eigenvalues --    4.72823   4.74162   4.76240   4.80106   4.82998
 Alpha virt. eigenvalues --    4.84839   4.87039   4.88914   4.90134   4.92077
 Alpha virt. eigenvalues --    4.96427   4.99211   5.02699   5.03759   5.06780
 Alpha virt. eigenvalues --    5.07128   5.10202   5.12867   5.14995   5.17927
 Alpha virt. eigenvalues --    5.20294   5.22097   5.24932   5.27149   5.28257
 Alpha virt. eigenvalues --    5.30108   5.35202   5.39574   5.47364   5.50503
 Alpha virt. eigenvalues --    5.52065   5.54610   5.60156   5.65671   5.76018
 Alpha virt. eigenvalues --    5.77413   5.78923   5.80886   5.83194   5.85079
 Alpha virt. eigenvalues --    5.93779   5.99588   6.01779   6.19626   6.22541
 Alpha virt. eigenvalues --    6.33380   6.44133   6.57653   6.60808   6.67688
 Alpha virt. eigenvalues --    6.75391   6.76132   6.77807   6.82724   7.00963
 Alpha virt. eigenvalues --    7.05206   7.19496   7.28765   7.31531   7.43570
 Alpha virt. eigenvalues --   10.34837  10.90652  11.55497  11.68113  12.92500
 Alpha virt. eigenvalues --   13.40890  14.49987
          Condensed to atoms (all electrons):
               1          2          3          4          5          6
     1  O    7.845872   0.001278   0.308608  -0.038103  -0.053548   0.328908
     2  O    0.001278   7.794184  -0.000117  -0.000000   0.000006  -0.094022
     3  C    0.308608  -0.000117   4.854471   0.306508   0.314000  -0.059876
     4  C   -0.038103  -0.000000   0.306508   5.065928  -0.052741  -0.030943
     5  C   -0.053548   0.000006   0.314000  -0.052741   5.040600   0.000573
     6  C    0.328908  -0.094022  -0.059876  -0.030943   0.000573   5.120384
     7  C   -0.067947   0.357877   0.000460   0.000229  -0.000512   0.509512
     8  H   -0.045437  -0.000003   0.422751  -0.066509  -0.073887   0.009616
     9  H   -0.001943  -0.000377  -0.026543   0.394544   0.001641  -0.005977
    10  H    0.002569   0.000002  -0.041490   0.402595   0.008385   0.000606
    11  H    0.003245  -0.000001  -0.037187   0.393372  -0.012833   0.002067
    12  H    0.002631   0.000000  -0.041939  -0.015410   0.397169   0.000025
    13  H    0.004051   0.000001  -0.038906   0.009977   0.386271  -0.000301
    14  H    0.004781  -0.000000  -0.036869   0.002435   0.388567   0.000141
    15  H   -0.043658   0.012056  -0.008942  -0.005894  -0.001237   0.313687
    16  H    0.006709  -0.050700   0.000221  -0.000080  -0.000245  -0.117446
    17  H   -0.000225   0.334933   0.000025   0.000004  -0.000002   0.018200
               7          8          9         10         11         12
     1  O   -0.067947  -0.045437  -0.001943   0.002569   0.003245   0.002631
     2  O    0.357877  -0.000003  -0.000377   0.000002  -0.000001   0.000000
     3  C    0.000460   0.422751  -0.026543  -0.041490  -0.037187  -0.041939
     4  C    0.000229  -0.066509   0.394544   0.402595   0.393372  -0.015410
     5  C   -0.000512  -0.073887   0.001641   0.008385  -0.012833   0.397169
     6  C    0.509512   0.009616  -0.005977   0.000606   0.002067   0.000025
     7  C    4.858774   0.001089  -0.001104  -0.000103  -0.000094  -0.000040
     8  H    0.001089   0.646100   0.005080  -0.014150   0.006080   0.008947
     9  H   -0.001104   0.005080   0.585606  -0.030458  -0.031717   0.001739
    10  H   -0.000103  -0.014150  -0.030458   0.582431  -0.033595   0.000588
    11  H   -0.000094   0.006080  -0.031717  -0.033595   0.599862  -0.000924
    12  H   -0.000040   0.008947   0.001739   0.000588  -0.000924   0.622209
    13  H   -0.000048   0.001390  -0.000487  -0.000616   0.000871  -0.029633
    14  H    0.000017  -0.009029  -0.000114  -0.000433  -0.000120  -0.039639
    15  H   -0.009347  -0.000813  -0.013799  -0.000334  -0.000241  -0.000036
    16  H    0.453647  -0.000058  -0.000335  -0.000002  -0.000003  -0.000004
    17  H   -0.047371  -0.000001   0.000023  -0.000000   0.000000  -0.000000
              13         14         15         16         17
     1  O    0.004051   0.004781  -0.043658   0.006709  -0.000225
     2  O    0.000001  -0.000000   0.012056  -0.050700   0.334933
     3  C   -0.038906  -0.036869  -0.008942   0.000221   0.000025
     4  C    0.009977   0.002435  -0.005894  -0.000080   0.000004
     5  C    0.386271   0.388567  -0.001237  -0.000245  -0.000002
     6  C   -0.000301   0.000141   0.313687  -0.117446   0.018200
     7  C   -0.000048   0.000017  -0.009347   0.453647  -0.047371
     8  H    0.001390  -0.009029  -0.000813  -0.000058  -0.000001
     9  H   -0.000487  -0.000114  -0.013799  -0.000335   0.000023
    10  H   -0.000616  -0.000433  -0.000334  -0.000002  -0.000000
    11  H    0.000871  -0.000120  -0.000241  -0.000003   0.000000
    12  H   -0.029633  -0.039639  -0.000036  -0.000004  -0.000000
    13  H    0.564327  -0.023055   0.000667   0.000215  -0.000000
    14  H   -0.023055   0.603460  -0.000034   0.000001   0.000000
    15  H    0.000667  -0.000034   0.627141   0.012999  -0.001377
    16  H    0.000215   0.000001   0.012999   0.605227  -0.013779
    17  H   -0.000000   0.000000  -0.001377  -0.013779   0.443731
 Mulliken charges:
               1
     1  O   -0.257790
     2  O   -0.355117
     3  C    0.084825
     4  C   -0.365913
     5  C   -0.342207
     6  C    0.004848
     7  C   -0.055041
     8  H    0.108834
     9  H    0.124221
    10  H    0.124004
    11  H    0.111218
    12  H    0.094317
    13  H    0.125274
    14  H    0.109893
    15  H    0.119163
    16  H    0.103633
    17  H    0.265838
 Sum of Mulliken charges =   0.00000
 Mulliken charges with hydrogens summed into heavy atoms:
               1
     1  O   -0.257790
     2  O   -0.089279
     3  C    0.193659
     4  C   -0.006470
     5  C   -0.012724
     6  C    0.124011
     7  C    0.048593
 APT charges:
               1
     1  O   -0.170469
     2  O   -0.869995
     3  C   -0.183589
     4  C   -1.105399
     5  C   -1.233864
     6  C   -0.280353
     7  C   -0.285826
     8  H    0.391114
     9  H    0.216767
    10  H    0.415917
    11  H    0.449850
    12  H    0.359595
    13  H    0.281795
    14  H    0.516208
    15  H    0.230596
    16  H    0.362297
    17  H    0.905356
 Sum of APT charges =   0.00000
 APT charges with hydrogens summed into heavy atoms:
               1
     1  O   -0.170469
     2  O    0.035361
     3  C    0.207524
     4  C   -0.022864
     5  C   -0.076265
     6  C   -0.049757
     7  C    0.076470
 Electronic spatial extent (au):  <R**2>=           1112.1129
 Charge=              0.0000 electrons
 Dipole moment (field-independent basis, Debye):
    X=             -0.2607    Y=             -0.2434    Z=             -0.0598  Tot=              0.3617
 Quadrupole moment (field-independent basis, Debye-Ang):
   XX=            -35.2558   YY=            -43.5852   ZZ=            -45.5416
   XY=             -6.3811   XZ=             -0.2734   YZ=             -0.0162
 Traceless Quadrupole moment (field-independent basis, Debye-Ang):
   XX=              6.2051   YY=             -2.1244   ZZ=             -4.0807
   XY=             -6.3811   XZ=             -0.2734   YZ=             -0.0162
 Octapole moment (field-independent basis, Debye-Ang**2):
  XXX=             50.2139  YYY=             -2.3028  ZZZ=             -1.4925  XYY=              6.0037
  XXY=            -22.1006  XXZ=             -2.9573  XZZ=              0.0341  YZZ=              0.5195
  YYZ=              0.1094  XYZ=              0.0471
 Hexadecapole moment (field-independent basis, Debye-Ang**3):
 XXXX=           -896.3021 YYYY=           -238.3229 ZZZZ=            -93.2935 XXXY=            -74.7359
 XXXZ=              9.1393 YYYX=             -0.8532 YYYZ=              0.9209 ZZZX=              5.7057
 ZZZY=              1.2406 XXYY=           -225.3799 XXZZ=           -206.4566 YYZZ=            -55.3276
 XXYZ=              1.1252 YYXZ=              1.1058 ZZXY=             -1.7366
 N-N= 3.074407346243D+02 E-N=-1.425049582509D+03  KE= 3.447859522853D+02
  Exact polarizability:   0.000   0.000   0.000   0.000   0.000   0.000
 Approx polarizability:  97.387  -6.007  75.054   2.119   2.450  67.185
 No NMR shielding tensors so no spin-rotation constants.
 Leave Link  601 at Thu Sep 26 08:11:43 2019, MaxMem=   671088640 cpu:              62.9 elap:              31.5
 (Enter /shared/centos7/gaussian/g16/l701.exe)
 SCFChk:  SCF convergence  2.92D-09 required  1.00D-08
 ... and contract with generalized density number  0.
 Compute integral second derivatives.
 Entering OneElI...
 Calculate overlap and kinetic energy integrals
    NBasis = 395  MinDer = 2  MaxDer = 2
 Requested accuracy = 0.1000D-12
 PrmmSu-InSpLW:  IPartL=    0 NPrtUS=   20 NPrtUL=    1 DoSpLW=F IThBeg=    0 IThEnd=   19 NThAct=   20.
 PrsmSu:  NPrtUS=  20 ThrOK=T IAlg=1 NPAlg=1 LenDen=           0 ISkipM=0 DoSpLW=F IThBeg=    0 IThEnd=   19.
 Prism:   IPart=     0 DynPar=F LinDyn=F Incr=           4.
 PRISM was handed    33317710 working-precision words and  8310 shell-pairs
 PRISM was handed    33317710 working-precision words and  8310 shell-pairs
 PRISM was handed    33317710 working-precision words and  8310 shell-pairs
 PRISM was handed    33317710 working-precision words and  8310 shell-pairs
 PRISM was handed    33317710 working-precision words and  8310 shell-pairs
 PRISM was handed    33317710 working-precision words and  8310 shell-pairs
 PRISM was handed    33317710 working-precision words and  8310 shell-pairs
 PRISM was handed    33317710 working-precision words and  8310 shell-pairs
 PRISM was handed    33317710 working-precision words and  8310 shell-pairs
 PRISM was handed    33317710 working-precision words and  8310 shell-pairs
 IPart=  5 NShTot=         433 NBatch=          63 AvBLen=         6.9
 IPart=  0 NShTot=         458 NBatch=          82 AvBLen=         5.6
 IPart=  4 NShTot=         438 NBatch=          65 AvBLen=         6.7
 IPart=  6 NShTot=         426 NBatch=          61 AvBLen=         7.0
 PRISM was handed    33317710 working-precision words and  8310 shell-pairs
 PRISM was handed    33317710 working-precision words and  8310 shell-pairs
 IPart=  8 NShTot=         411 NBatch=          50 AvBLen=         8.2
 PRISM was handed    33317710 working-precision words and  8310 shell-pairs
 PRISM was handed    33317710 working-precision words and  8310 shell-pairs
 PRISM was handed    33317710 working-precision words and  8310 shell-pairs
 IPart= 11 NShTot=         405 NBatch=          45 AvBLen=         9.0
 PRISM was handed    33317710 working-precision words and  8310 shell-pairs
 PRISM was handed    33317710 working-precision words and  8310 shell-pairs
 PRISM was handed    33317710 working-precision words and  8310 shell-pairs
 IPart=  3 NShTot=         441 NBatch=          68 AvBLen=         6.5
 PRISM was handed    33317710 working-precision words and  8310 shell-pairs
 PRISM was handed    33317710 working-precision words and  8310 shell-pairs
 IPart= 12 NShTot=         400 NBatch=          40 AvBLen=        10.0
 IPart=  7 NShTot=         416 NBatch=          52 AvBLen=         8.0
 IPart= 10 NShTot=         407 NBatch=          47 AvBLen=         8.7
 IPart=  9 NShTot=         407 NBatch=          47 AvBLen=         8.7
 IPart= 13 NShTot=         399 NBatch=          39 AvBLen=        10.2
 IPart= 18 NShTot=         391 NBatch=          36 AvBLen=        10.9
 IPart= 14 NShTot=         398 NBatch=          38 AvBLen=        10.5
 IPart= 16 NShTot=         394 NBatch=          37 AvBLen=        10.6
 IPart=  1 NShTot=         457 NBatch=          81 AvBLen=         5.6
 IPart=  2 NShTot=         452 NBatch=          76 AvBLen=         5.9
 IPart= 17 NShTot=         393 NBatch=          36 AvBLen=        10.9
 IPart= 15 NShTot=         397 NBatch=          38 AvBLen=        10.4
 IPart= 19 NShTot=         387 NBatch=          34 AvBLen=        11.4
 PrSmSu:  NxtVal=             81.
 Entering OneElI...
 Calculate potential energy integrals
    NBasis = 395  MinDer = 2  MaxDer = 2
 Requested accuracy = 0.1000D-12
 PrmmSu-InSpLW:  IPartL=    0 NPrtUS=   20 NPrtUL=    1 DoSpLW=F IThBeg=    0 IThEnd=   19 NThAct=   20.
 PrsmSu:  NPrtUS=  20 ThrOK=T IAlg=1 NPAlg=1 LenDen=           0 ISkipM=0 DoSpLW=F IThBeg=    0 IThEnd=   19.
 Prism:   IPart=     0 DynPar=F LinDyn=F Incr=          63.
 PRISM was handed    33361600 working-precision words and  7418 shell-pairs
 PRISM was handed    33361600 working-precision words and  7418 shell-pairs
 PRISM was handed    33361600 working-precision words and  7418 shell-pairs
 PRISM was handed    33361600 working-precision words and  7418 shell-pairs
 PRISM was handed    33361600 working-precision words and  7418 shell-pairs
 PRISM was handed    33361600 working-precision words and  7418 shell-pairs
 PRISM was handed    33361600 working-precision words and  7418 shell-pairs
 PRISM was handed    33361600 working-precision words and  7418 shell-pairs
 PRISM was handed    33361600 working-precision words and  7418 shell-pairs
 PRISM was handed    33361600 working-precision words and  7418 shell-pairs
 PRISM was handed    33361600 working-precision words and  7418 shell-pairs
 PRISM was handed    33361600 working-precision words and  7418 shell-pairs
 PRISM was handed    33361600 working-precision words and  7418 shell-pairs
 PRISM was handed    33361600 working-precision words and  7418 shell-pairs
 PRISM was handed    33361600 working-precision words and  7418 shell-pairs
 PRISM was handed    33361600 working-precision words and  7418 shell-pairs
 PRISM was handed    33361600 working-precision words and  7418 shell-pairs
 PRISM was handed    33361600 working-precision words and  7418 shell-pairs
 PRISM was handed    33361600 working-precision words and  7418 shell-pairs
 PRISM was handed    33361600 working-precision words and  7418 shell-pairs
 IPart=  0 NShTot=        7021 NBatch=         413 AvBLen=        17.0
 IPart=  5 NShTot=        6477 NBatch=         381 AvBLen=        17.0
 IPart=  6 NShTot=        6443 NBatch=         379 AvBLen=        17.0
 IPart=  9 NShTot=        6205 NBatch=         365 AvBLen=        17.0
 IPart=  2 NShTot=        6834 NBatch=         402 AvBLen=        17.0
 IPart=  1 NShTot=        6902 NBatch=         406 AvBLen=        17.0
 IPart= 10 NShTot=        6171 NBatch=         363 AvBLen=        17.0
 IPart= 12 NShTot=        6120 NBatch=         360 AvBLen=        17.0
 IPart= 13 NShTot=        6069 NBatch=         357 AvBLen=        17.0
 IPart= 16 NShTot=        5984 NBatch=         352 AvBLen=        17.0
 IPart= 17 NShTot=        5950 NBatch=         350 AvBLen=        17.0
 IPart= 18 NShTot=        5933 NBatch=         349 AvBLen=        17.0
 IPart= 19 NShTot=        5916 NBatch=         348 AvBLen=        17.0
 IPart=  4 NShTot=        6613 NBatch=         389 AvBLen=        17.0
 IPart=  8 NShTot=        6290 NBatch=         370 AvBLen=        17.0
 IPart=  7 NShTot=        6290 NBatch=         370 AvBLen=        17.0
 IPart=  3 NShTot=        6698 NBatch=         394 AvBLen=        17.0
 IPart= 11 NShTot=        6171 NBatch=         363 AvBLen=        17.0
 IPart= 15 NShTot=        6001 NBatch=         353 AvBLen=        17.0
 IPart= 14 NShTot=        6018 NBatch=         354 AvBLen=        17.0
 PrSmSu:  NxtVal=           1261.
 Polarizability after L701:
                1             2             3 
      1  0.000000D+00
      2  0.000000D+00  0.000000D+00
      3  0.000000D+00  0.000000D+00  0.000000D+00
 Dipole Derivatives after L701:
                 1             2             3             4             5 
      1  -0.171100D+00  0.270469D-01  0.331204D-01 -0.189109D+01  0.165845D+01
      2   0.512371D-01 -0.120607D+00  0.610800D-01  0.229457D+00 -0.355364D+00
      3   0.137192D-01  0.528691D-01 -0.219701D+00 -0.505533D-01  0.121201D+00
                 6             7             8             9            10 
      1   0.274202D+00 -0.130123D+00 -0.101169D+00 -0.100429D+01 -0.101711D+01
      2   0.430624D-01  0.156624D+00  0.145875D+00 -0.969040D-01  0.173454D+00
      3  -0.363529D+00 -0.155108D+00 -0.165814D+00 -0.566520D+00  0.163918D-01
                11            12            13            14            15 
      1   0.987972D+00  0.216191D+00 -0.176791D+01 -0.637187D+00  0.711655D+00
      2  -0.141303D+01 -0.593154D-01 -0.223314D+00 -0.102552D+01  0.140504D+00
      3   0.126486D+00 -0.886057D+00  0.337695D-01 -0.127467D-01 -0.908162D+00
                16            17            18            19            20 
      1  -0.581074D+00  0.195492D+00 -0.619675D-02  0.116586D+00 -0.537257D-01
      2   0.966039D-01 -0.327155D+00 -0.102310D+00 -0.129526D+00 -0.902505D+00
      3   0.193823D-01 -0.725877D-01  0.671712D-01 -0.714761D-01 -0.290066D+00
                21            22            23            24            25 
      1  -0.629769D-02  0.405430D+00  0.391794D-01  0.597270D+00  0.641042D-02
      2  -0.291276D+00  0.581305D-02  0.157114D+00  0.393151D-01  0.574860D+00
      3  -0.715599D-01  0.148124D+00  0.356851D-01  0.610796D+00  0.192003D+00
                26            27            28            29            30 
      1  -0.145337D+00 -0.864182D-01  0.253791D+00 -0.342645D+00  0.551275D+00
      2   0.443763D+00  0.324614D+00 -0.181298D+00  0.515602D+00 -0.623927D+00
      3   0.100076D+00  0.200129D+00  0.924647D-01 -0.189791D+00  0.478359D+00
                31            32            33            34            35 
      1   0.840248D+00 -0.146543D+00 -0.610271D+00  0.416717D+00 -0.415862D+00
      2  -0.428793D+00  0.227849D+00  0.340067D+00  0.654546D-01  0.784597D-01
      3  -0.247776D+00  0.264197D-01  0.281455D+00 -0.171800D+00  0.276654D+00
                36            37            38            39            40 
      1  -0.780863D+00 -0.139496D+00  0.662932D+00 -0.207538D+00  0.125521D+01
      2  -0.652408D-01 -0.267306D+00  0.818984D+00 -0.200346D+00  0.319140D+00
      3   0.583609D+00  0.894702D-01 -0.232733D+00  0.165898D+00  0.695584D-01
                41            42            43            44            45 
      1   0.122161D+00  0.592544D+00  0.198039D-01  0.229564D+00  0.719331D-01
      2   0.119108D+00  0.158045D+00 -0.174873D+00  0.583347D+00  0.145041D+00
      3   0.516048D-02  0.174301D+00 -0.385910D-01  0.112685D+00  0.886372D-01
                46            47            48            49            50 
      1   0.330773D+00 -0.889606D+00 -0.241987D+00  0.205293D+01 -0.119073D+01
      2  -0.157058D+00  0.666632D+00  0.174572D+00 -0.110475D+00  0.387447D+00
      3  -0.338600D-01  0.161979D+00  0.894855D-01  0.942805D-01 -0.554774D-01
                51 
      1  -0.104332D+00
      2   0.130189D-01
      3   0.275689D+00
 Hessian after L701:
                1             2             3             4             5 
      1  0.300730D+01
      2 -0.660932D+00  0.141543D+02
      3 -0.965994D+00 -0.121091D+01  0.176502D+02
      4  0.358656D+00  0.197777D+00  0.117216D+00  0.338086D+01
      5  0.214873D+00 -0.150402D+00  0.433297D-01 -0.142578D+01  0.104713D+02
      6  0.114936D+00  0.386362D-01 -0.195644D+00 -0.166198D+01 -0.113807D+01
      7 -0.113455D+01 -0.322223D+01 -0.155631D+00  0.122681D+00  0.363279D-01
      8 -0.310776D+01 -0.742110D+01  0.109459D+00  0.794269D-02 -0.674280D-01
      9 -0.147454D+00  0.160987D+00 -0.885074D+01  0.428024D-02 -0.550072D-02
     10 -0.979693D-01 -0.342087D+00 -0.156771D+00  0.113867D+00 -0.335445D-01
     11 -0.262959D+00  0.469106D+00  0.239729D+00 -0.151802D-01 -0.600066D-01
     12 -0.115443D+00  0.198738D+00 -0.153065D+00  0.178648D-01 -0.177114D-02
     13  0.124003D+00  0.245008D+00 -0.474747D+00  0.573224D-01  0.300127D-01
     14  0.152208D+00 -0.944204D-01 -0.715134D-01  0.175459D-01 -0.408622D-01
     15 -0.382152D+00 -0.102843D+00 -0.300174D-02  0.633160D-02  0.481917D-02
     16 -0.237496D+01  0.407255D+01  0.191805D+01 -0.160625D+00 -0.511855D+00
     17  0.397671D+01 -0.703965D+01  0.103315D+01 -0.595347D+00 -0.156035D+00
     18  0.184244D+01  0.102321D+01 -0.906074D+01 -0.282174D+00 -0.196571D+00
     19  0.287304D-01  0.170277D-01 -0.833253D-01 -0.216431D+01  0.423255D+01
     20 -0.733981D-02 -0.399360D-01 -0.113962D+00  0.428676D+01 -0.574711D+01
     21 -0.746940D-01 -0.103944D+00  0.203484D+00  0.195458D+01  0.117001D+01
     22 -0.386853D+00  0.163032D+00  0.212149D-01  0.131343D-01  0.407575D-02
     23  0.174451D+00  0.112526D+00  0.264986D-02  0.364664D-02 -0.591854D-02
     24  0.154035D-02 -0.170924D-01  0.463908D+00  0.170532D-01  0.607326D-02
     25 -0.392509D-01  0.219120D-01  0.123092D-01 -0.761071D-02 -0.622804D-02
     26 -0.358410D-01  0.906341D-01  0.333019D-01 -0.221828D-01 -0.739794D-02
     27 -0.106698D-01  0.518020D-01 -0.284829D-01 -0.122719D-01  0.274892D-02
     28 -0.303371D-02 -0.768220D-01  0.177943D-01  0.127912D-01 -0.490044D-02
     29 -0.732949D-01  0.831458D-01 -0.282394D-01 -0.110056D-01 -0.485928D-02
     30  0.317514D-01 -0.576274D-01 -0.286037D-01  0.126512D-01 -0.177038D-02
     31  0.505778D-01 -0.916157D-01 -0.453743D-01  0.159963D-01 -0.117440D-02
     32 -0.743087D-01  0.310058D-01  0.316972D-01 -0.488627D-02 -0.506409D-02
     33 -0.501208D-01  0.462839D-01 -0.201415D-01 -0.657059D-02 -0.733587D-03
     34  0.622905D-01 -0.219054D-01 -0.807076D-01  0.117800D-01  0.520856D-02
     35 -0.265117D-01 -0.379227D-01  0.241299D-01 -0.239993D-02 -0.678930D-02
     36 -0.894094D-01  0.218301D-01  0.235683D-01 -0.100037D-01 -0.446699D-02
     37  0.236546D-01 -0.976733D-02 -0.641612D-01  0.540725D-02  0.494068D-02
     38  0.730182D-01 -0.781330D-01 -0.507531D-01  0.155643D-01  0.663826D-02
     39 -0.891228D-01 -0.147631D-01 -0.276649D-01 -0.394279D-02 -0.343315D-02
     40  0.185225D+00  0.622504D-02  0.941078D-02  0.108642D-01  0.726142D-02
     41  0.196995D-01 -0.542073D-01  0.124038D-02  0.255229D-02 -0.261516D-02
     42  0.220624D-01  0.224625D-02 -0.524852D-01  0.333134D-02  0.221817D-02
     43  0.902454D-02 -0.292172D+00 -0.925461D-01  0.251775D+00 -0.236444D-02
     44 -0.256108D+00  0.586559D-01 -0.376672D-01 -0.690539D-01 -0.114976D+00
     45 -0.806877D-01 -0.412039D-01  0.177031D+00  0.151495D-01 -0.174942D-02
     46  0.139304D+00 -0.169375D-01  0.132429D-01  0.332394D-01 -0.206794D+00
     47 -0.862420D-01 -0.711498D-01 -0.194036D-02 -0.254633D+00  0.294360D-01
     48 -0.776465D-02  0.470246D-02 -0.888100D-01 -0.881730D-01 -0.556383D-01
     49  0.478490D-01  0.109364D-01  0.100213D-01 -0.205583D+01 -0.234261D+01
     50 -0.196634D-01 -0.124280D-01 -0.370551D-02 -0.213132D+01 -0.413789D+01
     51  0.783275D-03 -0.541772D-04 -0.876480D-02 -0.833422D-01  0.180499D+00
                6             7             8             9            10 
      6  0.137107D+02
      7  0.284580D-01  0.144331D+02
      8 -0.119963D-02  0.206983D+01  0.187418D+02
      9 -0.693564D-01  0.601777D+00 -0.441900D-01  0.214137D+02
     10  0.115170D-01 -0.586229D+01 -0.652151D+00 -0.152240D+00  0.142436D+02
     11  0.331784D-03 -0.638913D+00 -0.151498D+01  0.857029D+00  0.602992D+00
     12 -0.682533D-01 -0.139926D+00  0.893056D+00 -0.565237D+01  0.244375D-01
     13 -0.390588D-02 -0.408724D+01  0.167966D+01 -0.154204D+01 -0.615045D-01
     14 -0.117971D-02  0.168461D+01 -0.499862D+01 -0.119794D+01  0.174418D+00
     15 -0.417875D-01 -0.152875D+01 -0.120329D+01 -0.502964D+01 -0.229830D-01
     16 -0.262498D+00  0.280502D+00 -0.410893D-02  0.648881D-01  0.710312D-01
     17 -0.199169D+00  0.775553D-01 -0.498056D-01 -0.348833D-02 -0.158019D+00
     18  0.214897D+00  0.141706D+00 -0.549912D-02  0.247531D-01 -0.200377D-01
     19  0.194123D+01  0.281740D+00 -0.793086D-01  0.252071D-01  0.129471D+00
     20  0.116350D+01 -0.742206D-01 -0.122569D+00 -0.125249D-01 -0.115501D+00
     21 -0.768846D+01  0.634083D-01 -0.172254D-01 -0.108374D+00 -0.120401D-01
     22  0.871732D-02 -0.424665D+01  0.639704D-01  0.972660D+00  0.204387D+00
     23  0.127165D-02  0.459317D-01 -0.457045D+01  0.165856D+00 -0.993970D-02
     24  0.812990D-03  0.853422D+00  0.188302D+00 -0.206000D+01  0.124638D-01
     25 -0.154302D-02  0.755982D-01  0.917247D-02  0.851315D-02 -0.264821D+01
     26  0.976069D-03 -0.494974D-01 -0.201100D-01 -0.429810D-01  0.111909D+01
     27 -0.130549D-01  0.677072D-03 -0.148894D-01  0.299684D-01  0.100978D+01
     28  0.594571D-02  0.788259D-01  0.498758D-01 -0.642882D-02 -0.383985D+01
     29 -0.384270D-02  0.397206D-01 -0.102892D+00  0.259777D-01 -0.266148D+00
     30 -0.164455D-02 -0.104304D-02  0.481561D-02  0.127970D+00  0.389803D+00
     31 -0.191358D-02  0.373659D-01  0.916933D-01  0.115566D-01 -0.239852D+01
     32  0.213369D-03  0.122798D+00 -0.822068D-01 -0.633733D-01 -0.475653D+00
     33 -0.505087D-02  0.595992D-02 -0.331234D-01  0.914785D-01 -0.114893D+01
     34 -0.336239D-02  0.154612D-01 -0.166783D-01  0.106228D+00  0.144329D-01
     35  0.791938D-03 -0.374785D-01  0.944304D-01  0.799352D-01 -0.427048D-02
     36 -0.273058D-02  0.733340D-01  0.433357D-01 -0.200784D-02 -0.101390D-01
     37 -0.598489D-03  0.895538D-01 -0.736486D-01  0.244695D-01 -0.564785D-01
     38 -0.556618D-03 -0.591553D-02  0.962249D-02  0.683606D-01  0.177361D-01
     39 -0.605847D-02 -0.806759D-02  0.609315D-01  0.397525D-01 -0.240450D-02
     40  0.183303D-02 -0.843127D-01 -0.143592D-01  0.636048D-01  0.372821D-01
     41  0.255375D-03 -0.490116D-01  0.733708D-01  0.626010D-02  0.693117D-01
     42 -0.261153D-02  0.719563D-01  0.127703D-01  0.737948D-01  0.138508D-01
     43  0.369340D-01 -0.445376D-01 -0.489656D-02 -0.241911D-01  0.125699D+00
     44 -0.919983D-02  0.376643D-01  0.324954D-01 -0.673241D-02  0.104612D+00
     45 -0.110161D+00 -0.320940D-02  0.445731D-02 -0.126102D-01  0.680525D-01
     46 -0.728223D-01  0.248203D-01 -0.161077D-01 -0.535672D-02  0.756692D-02
     47 -0.582105D-01 -0.287188D-01  0.904509D-03  0.911135D-02 -0.203921D-01
     48  0.148816D+00 -0.457367D-02  0.252842D-02 -0.130053D-01 -0.401558D-02
     49 -0.140946D+00  0.198976D-01 -0.313103D-02 -0.547575D-02  0.175044D-01
     50  0.205446D+00 -0.845213D-02 -0.241045D-02  0.321687D-02 -0.104544D-01
     51 -0.587042D+01  0.502337D-03 -0.233292D-03 -0.333890D-02 -0.345338D-03
               11            12            13            14            15 
     11  0.117052D+02
     12 -0.632707D+00  0.151982D+02
     13  0.819150D-01 -0.427013D-01  0.125863D+02
     14  0.176081D+00 -0.935945D-01 -0.124359D+01  0.137215D+02
     15  0.199525D-01 -0.122022D+00  0.127466D+01  0.761663D+00  0.144403D+02
     16 -0.250290D-01  0.232530D-01  0.226574D+00  0.976464D-01 -0.437225D-01
     17 -0.705404D-01 -0.239003D-02  0.120581D+00 -0.111569D+00 -0.163722D-01
     18  0.200112D-01 -0.120811D+00 -0.461210D-01 -0.203321D-01 -0.127229D+00
     19 -0.845837D-01 -0.360626D-02  0.104128D+00  0.673213D-03  0.322876D-02
     20 -0.499753D-01 -0.256360D-02  0.117449D-01 -0.680241D-01 -0.437633D-02
     21  0.330219D-02 -0.865256D-01 -0.117669D-01 -0.306635D-02 -0.593969D-01
     22 -0.334789D-01 -0.112765D-01  0.154318D+00 -0.673455D-01  0.186811D+00
     23 -0.869859D-01 -0.207034D+00 -0.785583D-01  0.174444D+00  0.154579D+00
     24 -0.248973D+00  0.546300D-01  0.255965D+00  0.172852D+00 -0.144524D+00
     25  0.869865D+00  0.904076D+00  0.754566D-02  0.537075D-01  0.116209D-01
     26 -0.363889D+01  0.628740D+00  0.504988D-01  0.437674D-01  0.694450D-02
     27  0.538152D+00 -0.357123D+01  0.521952D-02  0.843433D-02 -0.273691D-01
     28 -0.278458D+00  0.450429D+00 -0.486375D-01  0.201638D-01 -0.104151D-01
     29 -0.321062D+01 -0.117615D+01  0.332869D-01  0.118608D+00 -0.878192D-01
     30 -0.106777D+01 -0.239818D+01 -0.157452D-01 -0.995833D-01 -0.888672D-03
     31 -0.351171D+00 -0.117017D+01  0.306133D-02 -0.269439D-01 -0.110660D-01
     32 -0.383509D+01  0.394063D+00 -0.558766D-02 -0.665842D-02 -0.823264D-03
     33  0.288958D+00 -0.294236D+01 -0.871637D-02  0.166278D-01 -0.159296D-02
     34 -0.708647D-02  0.836443D-02 -0.367785D+01 -0.383886D+00 -0.692047D+00
     35 -0.260449D-01  0.415847D-01 -0.285737D+00 -0.347244D+01  0.821250D+00
     36  0.244727D-01 -0.179520D-02 -0.578581D+00  0.954638D+00 -0.186708D+01
     37  0.223385D-01 -0.168269D-02 -0.368624D+01 -0.669389D+00  0.185496D+00
     38  0.177552D+00 -0.498206D-01 -0.898547D+00 -0.180514D+01 -0.513298D+00
     39 -0.546640D-01 -0.434731D-01  0.262712D+00 -0.549688D+00 -0.378621D+01
     40  0.741430D-01  0.387728D-03 -0.172176D+01  0.199573D+00  0.101698D+01
     41  0.334822D-01 -0.294533D-04  0.254840D+00 -0.362919D+01  0.155972D+00
     42  0.820963D-02 -0.367118D-01  0.929214D+00  0.118142D+00 -0.320666D+01
     43  0.506446D-01  0.532040D-01  0.423870D-03 -0.677867D-03  0.268143D-02
     44 -0.618743D-01  0.114528D-01  0.195867D-01 -0.587380D-02  0.730183D-02
     45  0.263966D-02 -0.437189D-01  0.287640D-02  0.197024D-02 -0.120936D-01
     46 -0.690276D-02 -0.118498D-03  0.924684D-02 -0.626643D-02 -0.599641D-03
     47 -0.123086D-02  0.494648D-04 -0.115376D-01 -0.719033D-03 -0.143548D-02
     48  0.154880D-02 -0.845039D-02 -0.546366D-02  0.238183D-02 -0.787408D-02
     49  0.186220D-02  0.290607D-02  0.103520D-01 -0.244782D-02  0.392677D-02
     50 -0.523747D-02 -0.162230D-02 -0.358181D-02 -0.888542D-03 -0.221956D-02
     51 -0.225702D-03 -0.386161D-02 -0.863013D-03  0.191759D-03 -0.288759D-02
               16            17            18            19            20 
     16  0.724460D+01
     17 -0.533518D+00  0.184130D+02
     18 -0.211450D+01 -0.270950D+01  0.268345D+02
     19 -0.146112D+01 -0.327454D+01  0.255504D+00  0.779952D+01
     20 -0.328012D+01 -0.898472D+01  0.120830D+01 -0.708569D+00  0.168260D+02
     21  0.225120D+00  0.120321D+01 -0.138083D+02 -0.208319D+01 -0.304974D+01
     22  0.115693D+00  0.232196D-01  0.788771D-01  0.533692D-01 -0.262233D-02
     23  0.159680D-01 -0.632369D-01  0.112166D-01  0.140684D-02 -0.158805D-01
     24  0.125220D+00  0.163346D-01  0.113795D-02  0.371766D-01 -0.149400D-02
     25 -0.627255D-01  0.797992D-02  0.178570D-01 -0.508900D-02 -0.657155D-02
     26 -0.329144D-01  0.566770D-01  0.657773D-02 -0.379315D-01  0.135539D-01
     27 -0.887483D-02  0.265774D-01 -0.208900D-01 -0.164861D-01  0.129542D-01
     28  0.255031D-01 -0.368295D-01  0.193819D-01  0.137060D-01 -0.130387D-01
     29 -0.402202D-01  0.647444D-02 -0.163797D-01 -0.191801D-01  0.332337D-02
     30  0.274955D-01 -0.244162D-01 -0.772366D-02  0.169410D-01 -0.972401D-02
     31  0.598702D-01 -0.318229D-01 -0.248464D-01  0.209192D-01 -0.980454D-02
     32 -0.357039D-01 -0.110391D-01  0.749168D-02 -0.950818D-02 -0.214314D-02
     33 -0.291912D-01  0.104465D-01 -0.131456D-01 -0.117753D-01  0.424724D-02
     34  0.253633D-01  0.614363D-02 -0.138409D-01  0.193350D-01 -0.725268D-03
     35 -0.482459D-02 -0.144219D-01  0.327049D-02 -0.774941D-02 -0.657960D-02
     36 -0.246302D-01 -0.407676D-02 -0.285881D-02 -0.197342D-01  0.884624D-03
     37 -0.798985D-03  0.160714D-01 -0.425953D-02  0.989278D-02  0.729738D-02
     38  0.318185D-01  0.149583D-01 -0.103643D-01  0.291222D-01 -0.987314D-03
     39 -0.983102D-02 -0.105572D-01 -0.124558D-01 -0.108857D-01 -0.399811D-02
     40  0.270124D-01  0.118630D-01  0.178436D-02  0.234098D-01  0.231415D-02
     41  0.769524D-02 -0.729642D-02  0.787450D-04  0.299572D-02 -0.543494D-02
     42  0.482637D-02  0.721788D-03 -0.845983D-02  0.551849D-02  0.276230D-03
     43 -0.446585D+01 -0.725876D-01 -0.223122D-01 -0.137376D+00  0.250639D+00
     44 -0.170385D+00 -0.170332D+01  0.834464D+00  0.234812D+00 -0.168662D+00
     45 -0.536387D-01  0.829817D+00 -0.419204D+01  0.518390D-01 -0.470219D-01
     46  0.732379D-01  0.541606D+00  0.138652D+00 -0.447456D+01 -0.498465D+00
     47  0.507890D+00 -0.208839D+00 -0.148928D+00 -0.315882D+00 -0.173875D+01
     48  0.129379D+00 -0.145297D+00  0.382016D+00 -0.814959D-01  0.833430D+00
     49  0.376708D+00 -0.790654D-01  0.318865D-01 -0.241768D+00  0.158221D+00
     50 -0.948905D-01 -0.706569D-01 -0.704691D-02  0.186638D-01  0.107939D+00
     51  0.286523D-01 -0.499982D-02 -0.826420D-01 -0.261471D-01  0.218146D-01
               21            22            23            24            25 
     21  0.257896D+02
     22  0.894950D-02  0.413450D+01
     23  0.120262D-02 -0.135416D+00  0.452754D+01
     24 -0.820388D-02 -0.129874D+01 -0.182118D+00  0.146181D+01
     25 -0.438426D-03 -0.232195D-02  0.266855D-01  0.347472D-01  0.292172D+01
     26  0.560097D-02  0.322626D-01  0.221371D-01  0.560069D-01 -0.100116D+01
     27 -0.112789D-01  0.294684D-01  0.398912D-01  0.306265D-01 -0.839191D+00
     28  0.432503D-02  0.387702D-01  0.106501D-02 -0.310699D-03 -0.136464D-01
     29 -0.404169D-02 -0.260582D-02 -0.916541D-01 -0.319609D-01  0.330179D-01
     30 -0.344300D-02 -0.244235D-02 -0.304280D-01  0.284165D-01 -0.167370D+00
     31 -0.485022D-02 -0.209481D-01 -0.178062D-01 -0.307920D-01 -0.230372D+00
     32  0.141991D-02 -0.100335D-01  0.133843D-01  0.551418D-01 -0.408439D-01
     33 -0.391008D-02 -0.112469D-01  0.449249D-01  0.467111D-01  0.321863D-01
     34 -0.725011D-02 -0.226174D-01  0.226762D-02 -0.516103D-01  0.114209D-01
     35  0.196350D-02  0.141589D-02 -0.320324D-01 -0.573773D-02  0.137074D-01
     36 -0.942044D-03 -0.261885D-01 -0.765114D-02  0.120361D+00 -0.153246D-01
     37 -0.300469D-02 -0.836374D-02  0.108931D-02  0.230304D-03 -0.133977D-02
     38 -0.420819D-02 -0.432980D-02  0.759430D-02 -0.300142D-01  0.541470D-02
     39 -0.797077D-02  0.255978D-02 -0.166197D-01  0.167316D-01 -0.144576D-02
     40  0.619385D-03 -0.273154D-01 -0.282564D-01  0.374983D-01  0.698776D-02
     41 -0.205737D-03 -0.285373D-01  0.859054D-02  0.236743D-01  0.411964D-02
     42 -0.399315D-02  0.415839D-01  0.223868D-01 -0.119343D-01  0.347972D-02
     43  0.592299D-01 -0.552873D-02 -0.211995D-02 -0.333425D-02 -0.590710D-02
     44 -0.515738D-01  0.305763D-02  0.111976D-02  0.765646D-02  0.150472D-02
     45  0.555721D-01 -0.581584D-03 -0.284980D-03  0.172933D-02 -0.117478D-02
     46 -0.135152D+00  0.232655D-02 -0.719657D-03  0.379998D-02 -0.481864D-02
     47  0.843621D+00 -0.452043D-02 -0.656068D-03 -0.572826D-02  0.659599D-02
     48 -0.435903D+01 -0.686909D-03  0.190022D-03 -0.188036D-02  0.159570D-02
     49  0.161522D-01  0.409690D-02  0.304751D-03  0.566533D-02 -0.197791D-02
     50  0.366901D-02 -0.214467D-02 -0.523404D-03 -0.292311D-02  0.112400D-02
     51  0.101125D+00  0.315431D-03 -0.328872D-04 -0.333972D-03  0.102848D-03
               26            27            28            29            30 
     26  0.319558D+01
     27 -0.710422D+00  0.361507D+01
     28  0.256740D-01 -0.197434D+00  0.364805D+01
     29  0.127148D+00  0.273219D-01  0.354627D+00  0.296860D+01
     30  0.127533D-01 -0.117778D+00 -0.413768D+00  0.121868D+01  0.257400D+01
     31 -0.670488D-01  0.505928D-01  0.846784D-01 -0.494948D-01  0.122741D+00
[...]
   yx         0.111303D+02      0.164933D+01      0.183513D+01
   yy         0.620887D+02      0.920059D+01      0.102370D+02
   zx         0.201379D+01      0.298413D+00      0.332030D+00
   zy        -0.681156D+00     -0.100937D+00     -0.112308D+00
   zz         0.590206D+02      0.874596D+01      0.973119D+01

 ----------------------------------------------------------------------

 Test job not archived.
 1\1\GINC-C0206\Freq\RM062X\CC-pVTZ\C5H10O2\HARMS.N\26-Sep-2019\0\\#P G
 eom=AllCheck Guess=TCheck SCRF=Check Test GenChk RM062X/CC-pVTZ Freq\\
 Gaussian input prepared by ASE\\0,1\O,2.3703871472,-1.558900962,3.2489
 252707\O,1.5456871164,-1.2500324926,-0.243210241\C,1.9125592096,-0.751
 642458,4.3346002183\C,2.2278325191,0.7124612055,4.0843068874\C,2.58829
 90304,-1.2861426226,5.5786388804\C,1.6626674082,-1.4077382978,2.093338
 4583\C,2.2659766521,-1.3755337239,0.9160184495\H,0.8264027595,-0.88230
 65514,4.4194362437\H,3.3067461984,0.8457690121,3.9947902353\H,1.760647
 0142,1.0601345667,3.163446193\H,1.8667988374,1.3264197844,4.9092269714
 \H,3.6693657642,-1.1823452679,5.482939828\H,2.3528811308,-2.3396629186
 ,5.7177883589\H,2.2618474139,-0.7311202864,6.4573123514\H,0.5809246443
 ,-1.349406849,2.1787371885\H,3.3455313461,-1.4253259447,0.8411426575\H
 ,2.0443617985,-1.6271471597,-0.9695605026\\Version=EM64L-G16RevA.03\St
 ate=1-A\HF=-346.940684\RMSD=2.621e-09\RMSF=6.826e-07\ZeroPoint=0.14645
 83\Thermal=0.1553569\Dipole=0.2072198,0.1049715,-0.0105376\DipoleDeriv
 =-0.4440355,0.0238122,-0.3630976,0.0197988,-0.4742062,-0.0990008,-0.00
 00121,-0.2550916,-1.7295704,-0.3863926,-0.0763333,-0.5699862,-0.084359
 4,-0.324299,0.1864482,-0.0915972,-0.0142269,-1.4539144,0.3506737,-0.03
 88463,-0.2136225,0.0007338,0.5875495,0.2898256,-0.0315931,0.1784625,0.
 9587385,0.0599356,-0.0227416,0.0198212,-0.0198871,-0.1562194,-0.041926
 9,-0.0206017,0.0747277,-0.0450007,0.0598996,0.0123393,-0.0557794,0.020
 743,0.015045,0.0446501,-0.049459,0.0226584,-0.063157,0.2593389,0.08232
 75,0.6586374,0.0031339,-0.1567744,-0.2358069,0.0444748,0.0587716,0.929
 4082,0.2263011,-0.0051843,0.5762019,0.0098979,-0.1416954,-0.1612412,0.
 1016906,-0.0287333,1.0457241,-0.1822707,-0.0160974,0.0460457,-0.053325
 3,-0.0293043,-0.0236219,-0.043911,-0.004632,-0.0338935,-0.1087845,-0.0
 478742,0.0050387,0.020926,0.0401081,0.0100743,0.014302,0.008445,0.0621
 971,0.0266721,0.0080964,-0.0661438,0.0035145,0.0310465,0.0673643,-0.05
 8705,0.0779555,-0.0506412,0.0471258,0.0302121,0.0525331,0.0128096,0.00
 2889,-0.0898372,0.05217,-0.1032207,-0.0529589,-0.1053155,-0.0089401,-0
 .0217295,-0.0347134,0.0572007,0.019831,0.050366,0.0152745,0.0481489,0.
 0505637,-0.039261,-0.011719,-0.0229739,-0.1088056,0.0650042,-0.0132331
 ,0.0191654,0.0549879,0.0423643,0.0403397,0.0438527,0.0382624,0.0107436
 ,-0.0931937,0.0214729,-0.056467,-0.0758631,-0.0736971,0.000542,-0.0438
 819,0.0154837,0.1650511,0.081381,0.0350654,0.0011088,0.0145733,-0.0684
 176,0.0106113,-0.0323509,0.0071309,0.1723239,0.0579103,-0.0187216,0.00
 55365,0.0143548,0.2460387,0.0469975,-0.02382,0.0628244,0.3093467,-0.07
 78605,0.0082922,0.0002653,0.3768662\Polar=59.9182089,-0.5620498,57.409
 1302,-1.754358,3.4422078,91.6270462\Quadrupole=-1.3997226,-2.8543786,4
 .2541011,-0.0538666,-3.8781543,2.8111995\PG=C01 [X(C5H10O2)]\NImag=0\\
 0.25999736,-0.09737039,0.18385006,0.08104649,0.07572420,0.51738101,-0.
 00294382,0.00048543,-0.00343195,0.33883345,0.00087763,0.00933126,0.000
 66985,-0.14957678,0.11206298,-0.00120855,-0.00105110,-0.02244051,-0.06
 959638,0.13515488,0.63655875,-0.10508453,0.04623497,0.04318337,-0.0014
 0200,0.00148609,-0.00487861,0.61270832,0.04002562,-0.11361017,-0.06327
 507,-0.00011061,0.00075617,0.00385571,0.01260112,0.48599787,0.02268061
 ,-0.04525142,-0.13577423,0.00292428,-0.00007347,0.00648287,0.02292952,
 -0.03154550,0.49839566,0.00565700,0.01681141,0.00353843,0.00019305,-0.
 00020472,0.00073215,-0.09180032,-0.03578027,0.00426527,0.57560239,0.00
 035278,-0.03052979,-0.01234819,-0.00036333,-0.00000315,-0.00094077,-0.
 02948576,-0.18412229,0.02706846,-0.02453927,0.49065590,-0.00301985,-0.
 03992827,-0.00862827,-0.00051408,0.00047137,-0.00113339,0.00393801,0.0
 3356984,-0.08437236,0.00287997,0.01526353,0.58821793,0.00783131,-0.002
 11289,0.01339133,-0.00003010,-0.00007982,0.00063903,-0.11485416,0.0228
 6838,-0.05815462,0.00385470,-0.00173285,0.00611837,0.56043435,-0.00988
 726,0.00536097,-0.02560186,-0.00012228,0.00017418,-0.00113828,0.024308
 14,-0.09806492,0.04849143,0.01590102,-0.01582180,0.03185494,0.01477656
 ,0.58437279,-0.01449203,0.00248034,-0.04459897,0.00008249,0.00007437,-
 0.00083874,-0.04640415,0.03873034,-0.15585887,-0.00367333,0.00915664,-
 0.00524605,-0.03628547,0.02892720,0.52994684,-0.15812344,0.03022307,-0
 .11280338,0.02403780,-0.00279266,-0.02182130,0.00747967,-0.01019552,0.
 00013062,-0.00098191,0.00140346,0.00240535,-0.00211031,0.00259150,0.00
 350862,0.70112877,0.03762158,-0.05332502,0.02887881,-0.00191668,0.0050
 5104,0.00444007,-0.01426671,0.00096968,-0.01518519,0.00072789,-0.00172
 599,-0.00431987,0.00094981,-0.00150568,-0.00134237,-0.04041928,0.13464
 276,-0.08617090,0.00759961,-0.24627186,0.01040457,0.00119556,-0.038369
 28,-0.01359953,-0.00571669,-0.05706629,-0.00115441,0.00051630,0.004684
 60,0.00087407,-0.00314089,-0.00305551,-0.13480707,-0.01265451,0.850951
 52,0.02082465,-0.00324121,-0.01956909,-0.16550892,0.02338107,-0.119722
 25,-0.00133598,0.00245209,-0.00460057,0.00029296,0.00001582,0.00044072
 ,0.00104848,-0.00064812,-0.00125550,-0.23866533,0.00349559,0.19848794,
 0.71845704,-0.00074176,0.00236776,0.00854743,0.03012091,-0.03948870,0.
 02323022,0.00005877,-0.00178077,-0.00238014,0.00033993,0.00010012,0.00
 028948,-0.00004475,0.00001498,-0.00004070,0.00211516,-0.05333620,0.004
 27791,-0.03475875,0.12274470,0.00686895,0.00270623,-0.04003197,-0.0783
 0736,0.00254457,-0.26439412,-0.00012398,0.00302455,-0.00061304,-0.0003
 1822,0.00072078,0.00037933,0.00024020,-0.00029727,-0.00021484,0.201400
 99,0.00458346,-0.45416075,-0.13368237,-0.01947881,0.85317149,-0.013374
 86,0.00744140,0.01227218,0.00011051,-0.00009349,0.00055565,-0.28795160
 ,-0.03488332,0.01281907,-0.00665276,-0.00204613,-0.00048572,-0.0136664
 4,-0.00196073,-0.00074754,0.00045631,0.00006144,-0.00388078,0.00070031
 ,-0.00006470,0.00037684,0.31712559,0.02456781,-0.00190164,-0.01276246,
 -0.00006057,-0.00007346,-0.00028310,-0.03776768,-0.05523386,0.00361376
 ,-0.03359399,-0.00611081,0.00264290,0.01236785,0.00160590,0.00065559,0
 .00213061,0.00001347,0.00310737,-0.00003735,0.00003882,-0.00022105,0.0
 3225875,0.06477505,0.03028345,-0.00743281,-0.01759398,-0.00014947,-0.0
 0021234,-0.00039654,0.00853450,0.00434111,-0.05032930,0.00601122,0.002
 93389,0.00121975,-0.02883937,-0.00291616,0.00172694,0.00648707,-0.0005
 9028,0.00453800,-0.00033579,0.00024195,-0.00048615,-0.01962409,0.00117
 461,0.06282434,0.00165843,0.00033047,-0.00122968,-0.00002236,0.0000794
 9,-0.00023540,-0.00992907,-0.00113665,0.00147852,-0.30985688,-0.029649
 65,0.02088841,0.00095807,0.00066664,-0.00033488,-0.00008829,-0.0002931
 4,0.00002496,-0.00003811,-0.00012342,0.00023097,0.00123015,-0.00142506
 ,0.00019828,0.33628436,0.00182589,0.00331992,0.00068432,0.00008523,-0.
 00002772,0.00013887,-0.03594602,-0.00605236,0.00397431,-0.02790383,-0.
 04927387,0.00209977,-0.00099503,0.00166441,-0.00121124,-0.00026465,0.0
 0008110,-0.00046474,-0.00012477,0.00000013,-0.00005065,-0.00103924,-0.
 00629353,0.00106548,0.03444414,0.05413904,-0.00083456,-0.00003260,0.00
 053812,0.00001849,0.00007860,-0.00003368,0.00645731,-0.00000391,-0.001
 78441,0.02026866,0.00287499,-0.04897027,0.00099253,-0.00032656,0.00012
 573,-0.00014407,0.00020904,-0.00023611,0.00009420,0.00004112,0.0000780
 5,0.00003263,0.00123715,0.00059384,-0.02334119,-0.00473148,0.04772463,
 -0.00029285,0.00093632,0.00021974,-0.00006814,-0.00003376,-0.00007764,
 0.00287635,-0.00206773,0.00822249,-0.09944830,0.03642335,-0.09966621,0
 .00023197,-0.00130073,-0.00004556,0.00047078,-0.00033196,-0.00078509,-
 0.00030934,-0.00035644,0.00028018,0.00042223,0.00075753,0.00035671,-0.
 01243516,0.00995319,-0.02756888,0.10327572,-0.00045520,0.00299702,-0.0
 0044719,0.00024495,-0.00017662,0.00052427,0.01615546,-0.00963309,0.029
 54079,0.03575735,-0.07303128,0.07014170,-0.00242554,-0.00644927,-0.000
 59179,0.00009531,-0.00069315,-0.00001789,-0.00023314,0.00013073,-0.001
 21161,-0.00009704,0.00133326,-0.00063979,-0.00139595,0.00033929,-0.003
 86860,-0.03862756,0.07980981,0.00014846,0.00033536,0.00037396,-0.00004
 593,-0.00004728,-0.00004353,-0.00175349,0.00070399,-0.00505335,-0.0997
 0928,0.07233950,-0.24028532,0.00103256,0.00123481,0.00063925,-0.000048
 10,-0.00114653,-0.00027708,0.00007795,-0.00037619,0.00000791,0.0002724
 1,0.00021695,0.00012993,0.00192836,-0.00182894,0.00344651,0.10903906,-
 0.07942841,0.25972592,0.00133258,-0.00215889,-0.00071738,0.00002335,0.
 00000685,-0.00007138,0.00070316,-0.00315054,-0.00623965,-0.07679983,0.
 05027337,0.06926893,-0.00003834,0.00015001,0.00006134,0.00026276,-0.00
 027163,0.00008968,-0.00017212,-0.00001582,0.00013791,-0.00003945,0.000
 63363,-0.00016922,-0.00859288,0.01854363,0.02427428,0.00448822,-0.0093
 8603,-0.01052377,0.07858147,-0.00191014,-0.00930802,-0.00237345,-0.000
 22170,0.00014744,-0.00062410,0.01282519,-0.01172760,-0.02493154,0.0493
 7901,-0.13141881,-0.11367756,0.00034148,0.00118757,-0.00057060,0.00139
 559,-0.00023054,0.00282458,0.00028203,0.00024425,-0.00006348,-0.000827
 12,0.00105452,0.00015834,-0.00113213,0.00205421,0.00432245,-0.00475633
 ,0.00617928,0.00792847,-0.05481702,0.14196407,-0.00039127,0.00179207,0
 .00119900,-0.00008467,-0.00004246,-0.00021448,-0.00253390,0.00355373,0
 .00291752,0.06918248,-0.11573357,-0.20269802,-0.00004890,0.00002353,-0
 .00023691,0.00028124,-0.00014415,-0.00007974,-0.00007629,-0.00014134,0
 .00049891,-0.00017004,-0.00063132,0.00025539,-0.00010529,0.00011787,-0
 .00145182,0.00992691,-0.01546573,-0.01890756,-0.07579793,0.12606322,0.
 21833295,0.00147577,-0.00027459,0.00034504,-0.00001703,0.00003885,-0.0
 0012533,-0.01901440,-0.00112894,0.00146120,0.00090539,-0.00069945,0.00
 072675,-0.31053592,-0.02671826,0.02556837,0.00043593,-0.00008822,0.000
 03286,0.00005612,-0.00002615,0.00005852,0.00028009,0.00128228,-0.00288
 990,0.00044273,0.00086482,-0.00022157,0.00044893,-0.00006124,-0.000039
 12,0.00001257,-0.00003133,-0.00010938,0.33865516,-0.00079119,0.0000199
 7,-0.00056675,0.00003789,-0.00000809,0.00005939,0.01317901,0.00010810,
 -0.00168755,0.00119099,0.00073801,-0.00077200,-0.02756208,-0.05067846,
 0.00319096,0.00002532,-0.00009782,-0.00013123,-0.00010149,-0.00000843,
 -0.00002540,0.00100926,-0.00016342,0.00221004,-0.00026231,-0.00007870,
 0.00039582,-0.00030219,0.00003975,-0.00008997,0.00007846,-0.00008438,-
 0.00001129,0.02799498,0.05051799,0.00101006,0.00043920,0.00282784,0.00
 003338,0.00001357,0.00012874,-0.03085890,-0.00240354,0.00114426,-0.000
 27919,-0.00154877,0.00108633,0.02782835,0.00274680,-0.04870205,-0.0004
 2680,-0.00003451,-0.00038957,0.00016054,-0.00003177,0.00004341,-0.0021
 7866,0.00194971,-0.00432714,0.00059263,0.00034575,0.00005276,0.0002202
 8,-0.00021676,0.00000512,0.00012435,0.00006080,0.00001006,-0.02592634,
 -0.00533909,0.05136344,0.00003229,-0.00048712,0.00132316,-0.00001806,0
 .00000853,0.00000467,0.00294009,0.01719202,-0.00151450,-0.00107715,0.0
 0043463,-0.00279602,-0.06190515,-0.06066568,0.00742138,-0.00007020,0.0
 0003660,0.00011608,0.00000586,-0.00000307,0.00004098,0.00051936,0.0001
 5121,0.00091400,0.00033667,0.00030062,-0.00025496,0.00066241,0.0008974
 9,-0.00041466,-0.00008814,-0.00033603,-0.00006379,-0.00563915,-0.03150
 491,0.00337289,0.06306865,-0.00028087,0.00146339,-0.00080995,0.0000491
 0,-0.00003531,0.00006785,-0.00294916,-0.01247765,-0.00014158,0.0021080
 3,0.00039365,0.00259415,-0.05916269,-0.30317056,0.03301892,0.00004258,
 0.00033519,0.00011453,-0.00001897,0.00009970,-0.00013320,0.00042794,0.
 00046658,-0.00004961,0.00003844,0.00020121,-0.00014058,-0.00031404,-0.
 00074909,0.00011678,-0.00006082,0.00032185,-0.00011709,-0.00012870,-0.
 00147215,-0.00009774,0.06374311,0.32828840,0.00049398,-0.00068553,0.00
 269714,0.00006923,-0.00001270,0.00025834,0.00763729,0.02854402,-0.0043
 1508,-0.00286080,0.00061932,-0.00486489,0.00711691,0.02985587,-0.05057
 032,-0.00034561,-0.00007103,-0.00023010,-0.00001365,-0.00002423,0.0000
 0541,0.00024264,-0.00075754,0.00100848,-0.00007346,-0.00027455,-0.0000
 1591,0.00014366,0.00178651,-0.00013553,-0.00016797,0.00010053,0.000226
 09,0.00059878,0.00304391,-0.00149556,-0.00583345,-0.03690803,0.0528925
 5,-0.00104516,0.00081865,-0.00414672,0.00001607,0.00002593,-0.00020256
 ,0.00428167,-0.00927701,-0.01039633,0.00012134,-0.00012128,0.00033156,
 -0.07199230,0.04317245,0.06685145,0.00111268,-0.00017948,-0.00067472,-
 0.00027195,-0.00002001,-0.00012200,0.00013759,-0.00050390,0.00075741,-
 0.00001477,0.00011589,0.00010468,-0.00011901,-0.00020726,-0.00000190,0
 .00026136,0.00006109,-0.00004453,-0.00759950,0.01702542,0.02596722,0.0
 0126500,-0.00347622,-0.00710554,0.07389760,0.00097766,0.00028418,0.002
 61602,-0.00002112,-0.00009045,0.00003793,-0.00533814,0.00453709,0.0084
 3275,-0.00008876,0.00000668,-0.00014401,0.04285240,-0.11867012,-0.1124
 4922,-0.00004547,0.00062828,0.00071883,0.00013485,0.00006420,0.0000213
 6,-0.00016321,0.00030389,-0.00056300,-0.00011448,-0.00000292,0.0000104
 1,-0.00008443,0.00021254,-0.00012249,0.00017077,-0.00029704,0.00055458
 ,-0.00104977,0.00115369,0.00416283,0.01022245,-0.01355271,-0.02530079,
 -0.04745475,0.12541198,-0.00426219,0.00184914,-0.00671741,-0.00010960,
 0.00009027,-0.00065533,0.01217113,-0.01595274,-0.01690727,0.00062380,-
 0.00077301,0.00077089,0.06498815,-0.10970107,-0.22278644,0.00158392,-0
 .00054650,0.00001027,-0.00028234,-0.00002929,-0.00001553,-0.00054167,-
 0.00019169,0.00077842,-0.00007213,0.00005299,-0.00006014,-0.00027053,0
 .00004750,0.00036140,-0.00021281,0.00087259,0.00013103,0.00027943,-0.0
 0025012,-0.00170788,-0.00229671,0.00250494,0.00451813,-0.07137677,0.12
 201633,0.24234801,-0.01856734,0.00145178,-0.00983944,0.00080301,-0.000
 28355,-0.00019816,0.00061121,0.00234731,0.00317933,-0.00008770,-0.0001
 0977,-0.00041879,0.00070066,-0.00025326,-0.00023835,-0.32179673,0.0139
 5705,0.03440550,-0.01130015,0.00102730,-0.00186116,0.00062589,-0.00066
 670,-0.00127212,0.00005912,0.00011481,0.00007541,-0.00012555,-0.000294
 61,0.00004358,0.00005940,-0.00020393,0.00007175,0.00010081,-0.00001930
 ,0.00033086,-0.00002710,-0.00001832,0.00007374,-0.00003908,0.00001882,
 -0.00018720,0.34894054,0.00704166,0.00384276,0.00134662,0.00008526,-0.
 00582133,0.00134911,-0.00099655,0.00018930,-0.00032818,-0.00018286,0.0
 0014222,0.00005742,-0.00004978,-0.00001560,-0.00003623,0.01290569,-0.0
 3886465,-0.00229013,-0.00177693,0.00887852,0.00177334,-0.00019593,0.00
 018459,0.00018158,0.00005354,-0.00007103,0.00007423,-0.00008157,-0.000
 29310,0.00009061,0.00003035,0.00002451,0.00008357,0.00003177,-0.000005
 43,-0.00005702,0.00002247,-0.00006746,0.00005185,0.00000877,-0.0000052
 1,0.00002207,-0.01791652,0.02386026,-0.03294585,0.00103192,-0.00683149
 ,-0.00095915,-0.00009793,0.00251271,-0.00527128,0.00253141,0.00432927,
 0.00054572,-0.00032944,-0.00037038,0.00013309,0.00000841,-0.00029054,0
 .03364648,-0.00066629,-0.06173534,0.02696095,-0.00094284,0.00434868,0.
 00142097,0.00021607,-0.00000859,0.00009552,0.00017830,0.00001785,-0.00
 003225,-0.00005771,0.00002539,-0.00002031,-0.00016945,-0.00002585,0.00
 026497,-0.00001564,0.00002856,-0.00003182,-0.00000074,0.00003733,0.000
 07972,-0.00001037,-0.00010675,-0.02573677,-0.00183736,0.06265322,0.001
 12304,-0.00023281,-0.00066775,-0.01287462,0.00026248,-0.00667827,0.000
 06972,-0.00009945,0.00022436,-0.00001111,-0.00004833,-0.00003777,0.000
 02403,0.00005046,0.00003255,-0.01183108,0.00114559,-0.00213009,-0.3341
 5731,0.01323532,0.03214055,0.00005154,-0.00006967,-0.00021743,0.000042
 72,0.00002007,0.00006931,-0.00007183,-0.00000227,0.00001533,0.00002326
 ,-0.00000277,-0.00002464,0.00001136,0.00000372,0.00002613,-0.00000966,
 0.00000488,0.00000178,0.00000721,-0.00001174,0.00000879,-0.00010580,0.
 00081934,0.00193942,0.35724517,-0.00074820,-0.00650654,0.00051190,0.00
 448502,0.00347563,0.00088090,-0.00013692,0.00009179,-0.00026575,0.0000
 2576,0.00012290,-0.00013824,0.00002112,-0.00004014,-0.00004819,-0.0007
 4616,0.00925376,0.00203040,0.01211195,-0.03829726,-0.00189721,0.000186
 79,0.00002108,0.00012149,-0.00004583,-0.00000702,-0.00010062,0.0001701
 5,-0.00005839,0.00010379,-0.00000983,-0.00009025,0.00010853,0.00000259
 ,0.00000950,0.00001223,-0.00000749,-0.00002920,0.00000682,0.00000380,0
 .00003840,-0.00001605,0.00100391,0.00838922,0.00006617,-0.01586613,0.0
 2320064,-0.00056344,-0.00027897,0.00272103,-0.03488234,0.00233733,-0.0
 0533010,0.00021525,-0.00007514,-0.00044165,0.00002799,0.00007047,0.000
 06865,-0.00005732,-0.00002154,-0.00000935,0.02762696,-0.00079553,0.004
 53720,0.03239259,-0.00081628,-0.06302917,-0.00033074,0.00002559,0.0000
 8772,-0.00006414,-0.00006856,-0.00002618,0.00002293,0.00001939,0.00000
 694,-0.00003160,0.00001392,0.00000280,-0.00003846,-0.00000052,-0.00006
 406,0.00000571,-0.00000037,-0.00000086,-0.00000854,0.00001147,0.000005
 54,0.00164473,0.00028238,-0.00478684,-0.02464543,-0.00152624,0.0632648
 7,-0.00050043,0.00114440,-0.00291437,-0.18113219,0.12689786,0.22288432
 ,-0.00029815,0.00034350,0.00059041,0.00008912,-0.00010760,-0.00005961,
 0.00004915,-0.00006044,-0.00004939,-0.00171742,-0.00022843,-0.00123305
 ,0.01037381,-0.01074253,-0.02736100,0.00002553,-0.00002474,-0.00004528
 ,-0.00003474,0.00000524,-0.00002226,-0.00000642,0.00003526,-0.00002146
 ,-0.00001739,-0.00004588,-0.00001172,-0.00001888,-0.00000157,0.0000031
 9,0.00000428,-0.00000428,0.00002248,-0.00001874,-0.00000509,-0.0000432
 5,0.00014881,0.00020127,-0.00008942,0.00046335,-0.00045051,-0.00131416
 ,0.17259032,-0.00110562,0.00234389,-0.00079422,0.11679927,-0.08527387,
 -0.16570183,0.00003817,0.00005271,0.00066884,0.00005231,-0.00012168,-0
 .00000516,-0.00001215,0.00003578,0.00005600,0.00153547,-0.00119624,0.0
 0203101,-0.00093267,-0.00177255,0.00800438,-0.00001468,-0.00002044,-0.
 00002451,-0.00003407,0.00000783,-0.00003945,0.00001622,0.00004231,-0.0
 0003046,-0.00001651,-0.00002106,-0.00001014,-0.00000863,0.00000988,-0.
 00000169,-0.00000485,-0.00001584,0.00002556,0.00000792,-0.00002248,0.0
 0000463,-0.00015502,-0.00036759,0.00009548,0.00079131,0.00042590,0.000
 82260,-0.11695646,0.08589345,0.00135664,0.00070261,0.00115058,0.174548
 48,-0.14214419,-0.31209173,0.00035746,0.00011791,-0.00075374,-0.000080
 46,0.00010987,0.00014148,0.00003108,0.00000064,-0.00003017,-0.00667491
 ,-0.00061461,-0.00284996,0.02092297,-0.01236652,-0.03558761,-0.0000331
 4,0.00000745,-0.00002112,0.00001851,-0.00002751,0.00000103,0.00001421,
 -0.00011467,-0.00001998,-0.00000448,0.00006528,0.00004063,0.00001419,-
 0.00001057,-0.00000426,0.00000704,-0.00001825,-0.00001522,-0.00001242,
 0.00000735,0.00003307,-0.00007292,-0.00076384,0.00020277,-0.00005684,0
 .00015008,0.00299344,-0.19033541,0.15489897,0.34681081\\0.00000066,0.0
 0000031,0.00000020,0.00000069,0.00000047,0.00000015,-0.00000018,-0.000
 00055,0.00000011,-0.00000125,0.00000005,0.00000049,0.00000045,-0.00000
 028,-0.00000011,0.00000039,0.00000006,-0.00000046,0.00000033,0.0000005
 5,-0.00000051,0.00000006,-0.00000137,-0.00000013,-0.00000128,0.0000008
 0,0.00000047,-0.00000144,-0.00000039,0.00000038,-0.00000169,-0.0000006
 1,0.00000041,0.00000024,0.00000061,-0.00000004,0.00000109,-0.00000043,
 -0.00000039,-0.00000018,-0.00000070,-0.00000003,0.00000061,-0.00000108
 ,-0.00000024,0.00000065,0.00000161,-0.00000007,0.00000085,0.00000097,-
 0.00000022\\\@


 Make no judgements where you have no compassion.
                               -- Anne McCaffrey
 Job cpu time:       0 days  3 hours 29 minutes 42.0 seconds.
 Elapsed time:       0 days  1 hours 44 minutes 52.8 seconds.
 File lengths (MBytes):  RWF=   1392 Int=      0 D2E=      0 Chk=     32 Scr=     32
 Normal termination of Gaussian 16 at Thu Sep 26 22:57:05 2019.
