 Entering Gaussian System, Link 0=g16
 Input=loose/species/CC(C)OC=CO/conformers/CC(C)OC=CO_44.com
 Output=loose/species/CC(C)OC=CO/conformers/CC(C)OC=CO_44.log
 Initial command:
 /shared/centos7/gaussian/g16/l1.exe "/scratch/harms.n/gauss_scrdir/Gau-38492.inp" -scrdir="/scratch/harms.n/gauss_scrdir/"
 Entering Link 1 = /shared/centos7/gaussian/g16/l1.exe PID=     38494.
  
 Copyright (c) 1988,1990,1992,1993,1995,1998,2003,2009,2016,
            Gaussian, Inc.  All Rights Reserved.
  
 This is part of the Gaussian(R) 16 program.  It is based on
 the Gaussian(R) 09 system (copyright 2009, Gaussian, Inc.),
 the Gaussian(R) 03 system (copyright 2003, Gaussian, Inc.),
 the Gaussian(R) 98 system (copyright 1998, Gaussian, Inc.),
 the Gaussian(R) 94 system (copyright 1995, Gaussian, Inc.),
 the Gaussian 92(TM) system (copyright 1992, Gaussian, Inc.),
 the Gaussian 90(TM) system (copyright 1990, Gaussian, Inc.),
 the Gaussian 88(TM) system (copyright 1988, Gaussian, Inc.),
 the Gaussian 86(TM) system (copyright 1986, Carnegie Mellon
 University), and the Gaussian 82(TM) system (copyright 1983,
 Carnegie Mellon University). Gaussian is a federally registered
 trademark of Gaussian, Inc.
  
 This software contains proprietary and confidential information,
 including trade secrets, belonging to Gaussian, Inc.
  
 This software is provided under written license and may be
 used, copied, transmitted, or stored only in accord with that
 written license.
  
 The following legend is applicable only to US Government
 contracts under FAR:
  
                    RESTRICTED RIGHTS LEGEND
  
 Use, reproduction and disclosure by the US Government is
 subject to restrictions as set forth in subparagraphs (a)
 and (c) of the Commercial Computer Software - Restricted
 Rights clause in FAR 52.227-19.
  
 Gaussian, Inc.
 340 Quinnipiac St., Bldg. 40, Wallingford CT 06492
  
  
 ---------------------------------------------------------------
 Warning -- This program may not be used in any manner that
 competes with the business of Gaussian, Inc. or will provide
 assistance to any competitor of Gaussian, Inc.  The licensee
 of this program is prohibited from giving any competitor of
 Gaussian, Inc. access to this program.  By using this program,
 the user acknowledges that Gaussian, Inc. is engaged in the
 business of creating and licensing software in the field of
 computational chemistry and represents and warrants to the
 licensee that it is not a competitor of Gaussian, Inc. and that
 it will not use this program in any manner prohibited above.
 ---------------------------------------------------------------
  

 Cite this work as:
 Gaussian 16, Revision A.03,
 M. J. Frisch, G. W. Trucks, H. B. Schlegel, G. E. Scuseria, 
 M. A. Robb, J. R. Cheeseman, G. Scalmani, V. Barone, 
 G. A. Petersson, H. Nakatsuji, X. Li, M. Caricato, A. V. Marenich, 
 J. Bloino, B. G. Janesko, R. Gomperts, B. Mennucci, H. P. Hratchian, 
 J. V. Ortiz, A. F. Izmaylov, J. L. Sonnenberg, D. Williams-Young, 
 F. Ding, F. Lipparini, F. Egidi, J. Goings, B. Peng, A. Petrone, 
 T. Henderson, D. Ranasinghe, V. G. Zakrzewski, J. Gao, N. Rega, 
 G. Zheng, W. Liang, M. Hada, M. Ehara, K. Toyota, R. Fukuda, 
 J. Hasegawa, M. Ishida, T. Nakajima, Y. Honda, O. Kitao, H. Nakai, 
 T. Vreven, K. Throssell, J. A. Montgomery, Jr., J. E. Peralta, 
 F. Ogliaro, M. J. Bearpark, J. J. Heyd, E. N. Brothers, K. N. Kudin, 
 V. N. Staroverov, T. A. Keith, R. Kobayashi, J. Normand, 
 K. Raghavachari, A. P. Rendell, J. C. Burant, S. S. Iyengar, 
 J. Tomasi, M. Cossi, J. M. Millam, M. Klene, C. Adamo, R. Cammi, 
 J. W. Ochterski, R. L. Martin, K. Morokuma, O. Farkas, 
 J. B. Foresman, and D. J. Fox, Gaussian, Inc., Wallingford CT, 2016.
 
 ******************************************
 Gaussian 16:  EM64L-G16RevA.03 25-Dec-2016
                25-Sep-2019 
 ******************************************
 %nprocshared=20
 Will use up to   20 processors via shared memory.
 %mem=5GB
 ----------------------------------------------------------------------
 #p m062x/cc-pVTZ opt=(calcfc,maxcycles=900,Tight) freq IOP(7/33=1,2/16
 =3) scf=(maxcycle=900)
 ----------------------------------------------------------------------
 1/6=900,7=10,10=4,18=20,19=15,26=3,38=1/1,3;
 2/9=110,12=2,16=3,17=6,18=5,40=1/2;
 3/5=16,6=1,11=2,25=1,30=1,71=2,74=-55,140=1/1,2,3;
 4//1;
 5/5=2,7=900,38=5/2;
 8/6=4,10=90,11=11/1;
 11/6=1,8=1,9=11,15=111,16=1/1,2,10;
 10/6=1,13=1/2;
 6/7=2,8=2,9=2,10=2,28=1/1;
 7/10=1,18=20,25=1,33=1/1,2,3,16;
 1/6=900,7=10,10=4,18=20,19=15,26=3/3(2);
 2/9=110,16=3/2;
 99//99;
 2/9=110,16=3/2;
 3/5=16,6=1,11=2,25=1,30=1,71=1,74=-55/1,2,3;
 4/5=5,16=3,69=1/1;
 5/5=2,7=900,38=5/2;
 7/33=1/1,2,3,16;
 1/6=900,7=10,18=20,19=15,26=3/3(-5);
 2/9=110,16=3/2;
 6/7=2,8=2,9=2,10=2,19=2,28=1/1;
 99/9=1/99;
 Leave Link    1 at Wed Sep 25 10:40:55 2019, MaxMem=   671088640 cpu:               4.2 elap:               2.2
 (Enter /shared/centos7/gaussian/g16/l101.exe)
 ------------------------------
 Gaussian input prepared by ASE
 ------------------------------
 Symbolic Z-matrix:
 Charge =  0 Multiplicity = 1
 O                     4.26054   0.69892   1.97398 
 O                     0.95691  -0.8615    1.70957 
 C                     4.78733   0.19695   3.1841 
 C                     5.76441   1.2216    3.76065 
 C                     5.37472  -1.15719   2.95744 
 C                     3.14812   0.03075   1.51575 
 C                     2.111    -0.29606   2.23105 
 H                     3.93189   0.10314   3.90918 
 H                     5.9066    2.06196   3.04946 
 H                     5.3799    1.66155   4.69878 
 H                     6.77595   0.78058   3.97256 
 H                     6.49551  -1.13602   2.81575 
 H                     4.93113  -1.59317   2.03809 
 H                     5.14328  -1.87484   3.79468 
 H                     3.15081  -0.08943   0.42064 
 H                     2.03247  -0.17508   3.30138 
 H                     1.06333  -0.89125   0.7148 
 
 ITRead=  0  0  0  0  0  0  0  0  0  0  0  0  0  0  0  0  0
 MicOpt= -1 -1 -1 -1 -1 -1 -1 -1 -1 -1 -1 -1 -1 -1 -1 -1 -1
 NAtoms=     17 NQM=       17 NQMF=       0 NMMI=      0 NMMIF=      0
                NMic=       0 NMicF=      0.
                    Isotopes and Nuclear Properties:
 (Nuclear quadrupole moments (NQMom) in fm**2, nuclear magnetic moments (NMagM)
  in nuclear magnetons)

  Atom         1           2           3           4           5           6           7           8           9          10
 IAtWgt=          16          16          12          12          12          12          12           1           1           1
 AtmWgt=  15.9949146  15.9949146  12.0000000  12.0000000  12.0000000  12.0000000  12.0000000   1.0078250   1.0078250   1.0078250
 NucSpn=           0           0           0           0           0           0           0           1           1           1
 AtZEff=  -0.0000000  -0.0000000  -0.0000000  -0.0000000  -0.0000000  -0.0000000  -0.0000000  -0.0000000  -0.0000000  -0.0000000
 NQMom=    0.0000000   0.0000000   0.0000000   0.0000000   0.0000000   0.0000000   0.0000000   0.0000000   0.0000000   0.0000000
 NMagM=    0.0000000   0.0000000   0.0000000   0.0000000   0.0000000   0.0000000   0.0000000   2.7928460   2.7928460   2.7928460
 AtZNuc=   8.0000000   8.0000000   6.0000000   6.0000000   6.0000000   6.0000000   6.0000000   1.0000000   1.0000000   1.0000000

  Atom        11          12          13          14          15          16          17
 IAtWgt=           1           1           1           1           1           1           1
 AtmWgt=   1.0078250   1.0078250   1.0078250   1.0078250   1.0078250   1.0078250   1.0078250
 NucSpn=           1           1           1           1           1           1           1
 AtZEff=  -0.0000000  -0.0000000  -0.0000000  -0.0000000  -0.0000000  -0.0000000  -0.0000000
 NQMom=    0.0000000   0.0000000   0.0000000   0.0000000   0.0000000   0.0000000   0.0000000
 NMagM=    2.7928460   2.7928460   2.7928460   2.7928460   2.7928460   2.7928460   2.7928460
 AtZNuc=   1.0000000   1.0000000   1.0000000   1.0000000   1.0000000   1.0000000   1.0000000
 Leave Link  101 at Wed Sep 25 10:40:56 2019, MaxMem=   671088640 cpu:               2.7 elap:               1.4
 (Enter /shared/centos7/gaussian/g16/l103.exe)

 GradGradGradGradGradGradGradGradGradGradGradGradGradGradGradGradGradGrad
 Berny optimization.
 Initialization pass.
                           ----------------------------
                           !    Initial Parameters    !
                           ! (Angstroms and Degrees)  !
 --------------------------                            --------------------------
 ! Name  Definition              Value          Derivative Info.                !
 --------------------------------------------------------------------------------
 ! R1    R(1,3)                  1.412          calculate D2E/DX2 analytically  !
 ! R2    R(1,6)                  1.3762         calculate D2E/DX2 analytically  !
 ! R3    R(2,7)                  1.3869         calculate D2E/DX2 analytically  !
 ! R4    R(2,17)                 1.0009         calculate D2E/DX2 analytically  !
 ! R5    R(3,4)                  1.5287         calculate D2E/DX2 analytically  !
 ! R6    R(3,5)                  1.4933         calculate D2E/DX2 analytically  !
 ! R7    R(3,8)                  1.1253         calculate D2E/DX2 analytically  !
 ! R8    R(4,9)                  1.1101         calculate D2E/DX2 analytically  !
 ! R9    R(4,10)                 1.1052         calculate D2E/DX2 analytically  !
 ! R10   R(4,11)                 1.1237         calculate D2E/DX2 analytically  !
 ! R11   R(5,12)                 1.1299         calculate D2E/DX2 analytically  !
 ! R12   R(5,13)                 1.11           calculate D2E/DX2 analytically  !
 ! R13   R(5,14)                 1.1267         calculate D2E/DX2 analytically  !
 ! R14   R(6,7)                  1.3016         calculate D2E/DX2 analytically  !
 ! R15   R(6,15)                 1.1017         calculate D2E/DX2 analytically  !
 ! R16   R(7,16)                 1.08           calculate D2E/DX2 analytically  !
 ! A1    A(3,1,6)              114.4765         calculate D2E/DX2 analytically  !
 ! A2    A(7,2,17)             107.2978         calculate D2E/DX2 analytically  !
 ! A3    A(1,3,4)              108.8678         calculate D2E/DX2 analytically  !
 ! A4    A(1,3,5)              109.8173         calculate D2E/DX2 analytically  !
 ! A5    A(1,3,8)              107.3512         calculate D2E/DX2 analytically  !
 ! A6    A(4,3,5)              114.433          calculate D2E/DX2 analytically  !
 ! A7    A(4,3,8)              107.3814         calculate D2E/DX2 analytically  !
 ! A8    A(5,3,8)              108.7362         calculate D2E/DX2 analytically  !
 ! A9    A(3,4,9)              110.3442         calculate D2E/DX2 analytically  !
 ! A10   A(3,4,10)             111.3816         calculate D2E/DX2 analytically  !
 ! A11   A(3,4,11)             112.5458         calculate D2E/DX2 analytically  !
 ! A12   A(9,4,10)             106.6808         calculate D2E/DX2 analytically  !
 ! A13   A(9,4,11)             107.6167         calculate D2E/DX2 analytically  !
 ! A14   A(10,4,11)            108.0199         calculate D2E/DX2 analytically  !
 ! A15   A(3,5,12)             113.0917         calculate D2E/DX2 analytically  !
 ! A16   A(3,5,13)             108.9468         calculate D2E/DX2 analytically  !
 ! A17   A(3,5,14)             112.5803         calculate D2E/DX2 analytically  !
 ! A18   A(12,5,13)            107.452          calculate D2E/DX2 analytically  !
 ! A19   A(12,5,14)            107.9906         calculate D2E/DX2 analytically  !
 ! A20   A(13,5,14)            106.4501         calculate D2E/DX2 analytically  !
 ! A21   A(1,6,7)              125.6636         calculate D2E/DX2 analytically  !
 ! A22   A(1,6,15)             112.4557         calculate D2E/DX2 analytically  !
 ! A23   A(7,6,15)             121.3885         calculate D2E/DX2 analytically  !
 ! A24   A(2,7,6)              123.9719         calculate D2E/DX2 analytically  !
 ! A25   A(2,7,16)             110.964          calculate D2E/DX2 analytically  !
 ! A26   A(6,7,16)             125.0619         calculate D2E/DX2 analytically  !
 ! D1    D(6,1,3,4)           -165.4641         calculate D2E/DX2 analytically  !
 ! D2    D(6,1,3,5)             68.5359         calculate D2E/DX2 analytically  !
 ! D3    D(6,1,3,8)            -49.5182         calculate D2E/DX2 analytically  !
 ! D4    D(3,1,6,7)             46.9758         calculate D2E/DX2 analytically  !
 ! D5    D(3,1,6,15)          -141.0279         calculate D2E/DX2 analytically  !
 ! D6    D(17,2,7,6)            -4.2626         calculate D2E/DX2 analytically  !
 ! D7    D(17,2,7,16)          176.2504         calculate D2E/DX2 analytically  !
 ! D8    D(1,3,4,9)             -5.717          calculate D2E/DX2 analytically  !
 ! D9    D(1,3,4,10)           112.5732         calculate D2E/DX2 analytically  !
 ! D10   D(1,3,4,11)          -125.9439         calculate D2E/DX2 analytically  !
 ! D11   D(5,3,4,9)            117.566          calculate D2E/DX2 analytically  !
 ! D12   D(5,3,4,10)          -124.1438         calculate D2E/DX2 analytically  !
 ! D13   D(5,3,4,11)            -2.6609         calculate D2E/DX2 analytically  !
 ! D14   D(8,3,4,9)           -121.6435         calculate D2E/DX2 analytically  !
 ! D15   D(8,3,4,10)            -3.3533         calculate D2E/DX2 analytically  !
 ! D16   D(8,3,4,11)           118.1296         calculate D2E/DX2 analytically  !
 ! D17   D(1,3,5,12)            98.1689         calculate D2E/DX2 analytically  !
 ! D18   D(1,3,5,13)           -21.2421         calculate D2E/DX2 analytically  !
 ! D19   D(1,3,5,14)          -139.083          calculate D2E/DX2 analytically  !
 ! D20   D(4,3,5,12)           -24.6014         calculate D2E/DX2 analytically  !
 ! D21   D(4,3,5,13)          -144.0124         calculate D2E/DX2 analytically  !
 ! D22   D(4,3,5,14)            98.1467         calculate D2E/DX2 analytically  !
 ! D23   D(8,3,5,12)          -144.6393         calculate D2E/DX2 analytically  !
 ! D24   D(8,3,5,13)            95.9497         calculate D2E/DX2 analytically  !
 ! D25   D(8,3,5,14)           -21.8912         calculate D2E/DX2 analytically  !
 ! D26   D(1,6,7,2)            173.9111         calculate D2E/DX2 analytically  !
 ! D27   D(1,6,7,16)            -6.6741         calculate D2E/DX2 analytically  !
 ! D28   D(15,6,7,2)             2.5809         calculate D2E/DX2 analytically  !
 ! D29   D(15,6,7,16)         -178.0043         calculate D2E/DX2 analytically  !
 --------------------------------------------------------------------------------
 Trust Radius=3.00D-01 FncErr=1.00D-07 GrdErr=1.00D-06 EigMax=2.50D+02 EigMin=1.00D-04
 Number of steps in this run=    102 maximum allowed number of steps=    102.
 GradGradGradGradGradGradGradGradGradGradGradGradGradGradGradGradGradGrad

 Leave Link  103 at Wed Sep 25 10:40:57 2019, MaxMem=   671088640 cpu:               1.7 elap:               0.8
 (Enter /shared/centos7/gaussian/g16/l202.exe)
                          Input orientation:                          
 ---------------------------------------------------------------------
 Center     Atomic      Atomic             Coordinates (Angstroms)
 Number     Number       Type             X           Y           Z
 ---------------------------------------------------------------------
      1          8           0        4.260539    0.698917    1.973977
      2          8           0        0.956913   -0.861504    1.709571
      3          6           0        4.787335    0.196946    3.184096
      4          6           0        5.764411    1.221603    3.760649
      5          6           0        5.374719   -1.157187    2.957441
      6          6           0        3.148116    0.030752    1.515755
      7          6           0        2.111005   -0.296063    2.231047
      8          1           0        3.931885    0.103137    3.909184
      9          1           0        5.906601    2.061959    3.049456
     10          1           0        5.379900    1.661549    4.698777
     11          1           0        6.775954    0.780577    3.972564
     12          1           0        6.495505   -1.136016    2.815750
     13          1           0        4.931127   -1.593174    2.038085
     14          1           0        5.143279   -1.874840    3.794680
     15          1           0        3.150805   -0.089431    0.420636
     16          1           0        2.032466   -0.175082    3.301383
     17          1           0        1.063331   -0.891253    0.714798
 ---------------------------------------------------------------------
                    Distance matrix (angstroms):
                    1          2          3          4          5
     1  O    0.000000
     2  O    3.663163   0.000000
     3  C    1.412047   4.238711   0.000000
     4  C    2.393122   5.626570   1.528729   0.000000
     5  C    2.377755   4.600176   1.493342   2.540795   0.000000
     6  C    1.376189   2.373827   2.344786   3.647283   2.906444
     7  C    2.382554   1.386935   2.883419   4.241506   3.452682
     8  H    2.051340   3.823518   1.125320   2.152017   2.139159
     9  H    2.392501   5.902655   2.179256   1.110050   3.264087
    10  H    3.099059   5.904571   2.188710   1.105209   3.313238
    11  H    3.213773   6.455912   2.217412   1.123668   2.597857
    12  H    3.011750   5.654643   2.197798   2.643047   1.129905
    13  H    2.389033   4.054335   2.130387   3.403610   1.109989
    14  H    3.273899   4.785414   2.189020   3.158310   1.126748
    15  H    2.065398   2.659062   3.224431   4.439081   3.538542
    16  H    2.736820   2.040063   2.782348   4.011118   3.500497
    17  H    3.786331   1.000891   4.598892   5.986778   4.867056
                    6          7          8          9         10
     6  C    0.000000
     7  C    1.301558   0.000000
     8  H    2.519531   2.508209   0.000000
     9  H    3.753302   4.542754   2.911291   0.000000
    10  H    4.215684   4.539561   2.269108   1.777077   0.000000
    11  H    4.445150   5.094486   2.924324   1.802732   1.803459
    12  H    3.775758   4.502360   3.050122   3.260133   3.552004
    13  H    2.467609   3.110116   2.716057   3.915919   4.227754
    14  H    3.578471   3.759278   2.322279   4.078775   3.657790
    15  H    1.101697   2.097969   3.580103   4.374195   5.131987
    16  H    2.115540   1.080011   2.013609   4.480707   4.065862
    17  H    2.416185   1.936719   4.406985   6.134276   6.404815
                   11         12         13         14         15
    11  H    0.000000
    12  H    2.256147   0.000000
    13  H    3.574954   1.805834   0.000000
    14  H    3.122261   1.825564   1.791639   0.000000
    15  H    5.149254   4.244871   2.836712   4.306021   0.000000
    16  H    4.885125   4.591073   3.465421   3.579061   3.091395
    17  H    6.785434   5.829444   4.147725   5.205679   2.255437
                   16         17
    16  H    0.000000
    17  H    2.853514   0.000000
 Stoichiometry    C5H10O2
 Framework group  C1[X(C5H10O2)]
 Deg. of freedom    45
 Full point group                 C1      NOp   1
 Largest Abelian subgroup         C1      NOp   1
 Largest concise Abelian subgroup C1      NOp   1
                         Standard orientation:                         
 ---------------------------------------------------------------------
 Center     Atomic      Atomic             Coordinates (Angstroms)
 Number     Number       Type             X           Y           Z
 ---------------------------------------------------------------------
      1          8           0        0.370435   -0.640925    0.693214
      2          8           0       -3.050312    0.096022   -0.390374
      3          6           0        1.185444    0.020504   -0.251322
      4          6           0        2.516180   -0.723567   -0.363187
      5          6           0        1.313126    1.463260    0.112303
      6          6           0       -0.954384   -0.269709    0.662424
      7          6           0       -1.687889   -0.163016   -0.407454
      8          1           0        0.672233   -0.056558   -1.249832
      9          1           0        2.567941   -1.537151    0.390215
     10          1           0        2.628983   -1.200761   -1.353665
     11          1           0        3.401080   -0.050885   -0.198626
     12          1           0        2.268547    1.697276    0.668265
     13          1           0        0.466347    1.744868    0.772405
     14          1           0        1.257525    2.142199   -0.785200
     15          1           0       -1.395009   -0.198637    1.669665
     16          1           0       -1.324441   -0.253547   -1.420436
     17          1           0       -3.339057    0.107583    0.567893
 ---------------------------------------------------------------------
 Rotational constants (GHZ):           5.9727293           1.3058175           1.2281533
 Leave Link  202 at Wed Sep 25 10:40:59 2019, MaxMem=   671088640 cpu:               4.0 elap:               2.0
 (Enter /shared/centos7/gaussian/g16/l301.exe)
 Standard basis: CC-pVTZ (5D, 7F)
 Ernie: Thresh=  0.10000D-02 Tol=  0.10000D-05 Strict=F.
 Ernie:  21 primitive shells out of 262 were deleted.
 There are   395 symmetry adapted cartesian basis functions of A   symmetry.
 There are   350 symmetry adapted basis functions of A   symmetry.
   350 basis functions,   534 primitive gaussians,   395 cartesian basis functions
    28 alpha electrons       28 beta electrons
       nuclear repulsion energy       313.0030657672 Hartrees.
 IExCor= 4336 DFT=T Ex+Corr=M062X ExCW=0 ScaHFX=  0.540000
 ScaDFX=  1.000000  1.000000  1.000000  1.000000 ScalE2=  1.000000  1.000000
 IRadAn=      5 IRanWt=     -1 IRanGd=            0 ICorTp=0 IEmpDi=  4
 NAtoms=   17 NActive=   17 NUniq=   17 SFac= 1.00D+00 NAtFMM=   60 NAOKFM=F Big=F
 Integral buffers will be    131072 words long.
 Raffenetti 2 integral format.
 Two-electron integral symmetry is turned on.
 Leave Link  301 at Wed Sep 25 10:41:00 2019, MaxMem=   671088640 cpu:               2.0 elap:               1.0
 (Enter /shared/centos7/gaussian/g16/l302.exe)
 NPDir=0 NMtPBC=     1 NCelOv=     1 NCel=       1 NClECP=     1 NCelD=      1
         NCelK=      1 NCelE2=     1 NClLst=     1 CellRange=     0.0.
 One-electron integrals computed using PRISM.
 One-electron integral symmetry used in STVInt
 NBasis=   350 RedAO= T EigKep=  2.84D-04  NBF=   350
 NBsUse=   350 1.00D-06 EigRej= -1.00D+00 NBFU=   350
 Precomputing XC quadrature grid using
 IXCGrd= 4 IRadAn=           5 IRanWt=          -1 IRanGd=           0 AccXCQ= 0.00D+00.
 Generated NRdTot=       0 NPtTot=           0 NUsed=           0 NTot=          32
 NSgBfM=   395   395   395   395   395 MxSgAt=    17 MxSgA2=    17.
 Leave Link  302 at Wed Sep 25 10:42:04 2019, MaxMem=   671088640 cpu:             126.8 elap:              63.4
 (Enter /shared/centos7/gaussian/g16/l303.exe)
 DipDrv:  MaxL=1.
 Leave Link  303 at Wed Sep 25 10:42:08 2019, MaxMem=   671088640 cpu:               8.6 elap:               4.3
 (Enter /shared/centos7/gaussian/g16/l401.exe)
 ExpMin= 1.03D-01 ExpMax= 1.53D+04 ExpMxC= 5.22D+02 IAcc=3 IRadAn=         5 AccDes= 0.00D+00
 Harris functional with IExCor= 1009 and IRadAn=       5 diagonalized for initial guess.
 HarFok:  IExCor= 1009 AccDes= 0.00D+00 IRadAn=         5 IDoV= 1 UseB2=F ITyADJ=14
 ICtDFT=  3500011 ScaDFX=  1.000000  1.000000  1.000000  1.000000
 FoFCou: FMM=F IPFlag=           0 FMFlag=      100000 FMFlg1=           0
         NFxFlg=           0 DoJE=T BraDBF=F KetDBF=T FulRan=T
         wScrn=  0.000000 ICntrl=       500 IOpCl=  0 I1Cent=   200000004 NGrid=           0
         NMat0=    1 NMatS0=      1 NMatT0=    0 NMatD0=    1 NMtDS0=    0 NMtDT0=    0
 Petite list used in FoFCou.
 Harris En= -346.802420473410    
 JPrj=0 DoOrth=F DoCkMO=F.
 Leave Link  401 at Wed Sep 25 10:42:45 2019, MaxMem=   671088640 cpu:              74.3 elap:              37.1
 (Enter /shared/centos7/gaussian/g16/l502.exe)
 Integral symmetry usage will be decided dynamically.
 Closed shell SCF:
 Using DIIS extrapolation, IDIIS=  1040.
 NGot=   671088640 LenX=   670765141 LenY=   670608675
 Requested convergence on RMS density matrix=1.00D-08 within 900 cycles.
 Requested convergence on MAX density matrix=1.00D-06.
 Requested convergence on             energy=1.00D-06.
 No special actions if energy rises.
 Fock matrices will be formed incrementally for  20 cycles.
 Integral accuracy reduced to 1.0D-05 until final iterations.

 Cycle   1  Pass 0  IDiag  1:
 FoFJK:  IHMeth= 1 ICntrl=       0 DoSepK=F KAlg= 0 I1Cent=           0 FoldK=F
 IRaf= 950000000 NMat=       1 IRICut=       1 DoRegI=T DoRafI=F ISym2E= 0 IDoP0=0 IntGTp=1.
 FoFCou: FMM=F IPFlag=           0 FMFlag=      100000 FMFlg1=           0
         NFxFlg=           0 DoJE=F BraDBF=F KetDBF=F FulRan=T
         wScrn=  0.000000 ICntrl=         0 IOpCl=  0 I1Cent=           0 NGrid=           0
         NMat0=    1 NMatS0=      1 NMatT0=    0 NMatD0=    1 NMtDS0=    0 NMtDT0=    0
 Symmetry not used in FoFCou.
 E= -346.692667710283    
 DIIS: error= 2.74D-02 at cycle   1 NSaved=   1.
 NSaved= 1 IEnMin= 1 EnMin= -346.692667710283     IErMin= 1 ErrMin= 2.74D-02
 ErrMax= 2.74D-02  0.00D+00 EMaxC= 1.00D-01 BMatC= 2.83D-01 BMatP= 2.83D-01
 IDIUse=3 WtCom= 7.26D-01 WtEn= 2.74D-01
 Coeff-Com:  0.100D+01
 Coeff-En:   0.100D+01
 Coeff:      0.100D+01
 Gap=     0.335 Goal=   None    Shift=    0.000
 GapD=    0.335 DampG=1.000 DampE=0.500 DampFc=0.5000 IDamp=-1.
 Damping current iteration by 5.00D-01
 RMSDP=1.98D-03 MaxDP=9.32D-02              OVMax= 1.50D-01

 Cycle   2  Pass 0  IDiag  1:
 RMSU=  9.92D-04    CP:  1.00D+00
 E= -346.811128179443     Delta-E=       -0.118460469160 Rises=F Damp=T
 DIIS: error= 5.69D-03 at cycle   2 NSaved=   2.
 NSaved= 2 IEnMin= 2 EnMin= -346.811128179443     IErMin= 2 ErrMin= 5.69D-03
 ErrMax= 5.69D-03  0.00D+00 EMaxC= 1.00D-01 BMatC= 2.10D-02 BMatP= 2.83D-01
 IDIUse=3 WtCom= 9.43D-01 WtEn= 5.69D-02
 Coeff-Com: -0.136D+00 0.114D+01
 Coeff-En:   0.000D+00 0.100D+01
 Coeff:     -0.128D+00 0.113D+01
 Gap=     0.337 Goal=   None    Shift=    0.000
 RMSDP=4.37D-04 MaxDP=1.47D-02 DE=-1.18D-01 OVMax= 7.19D-02

 Cycle   3  Pass 0  IDiag  1:
 RMSU=  4.35D-04    CP:  1.00D+00  9.80D-01
 E= -346.917468053369     Delta-E=       -0.106339873926 Rises=F Damp=F
 DIIS: error= 2.65D-03 at cycle   3 NSaved=   3.
 NSaved= 3 IEnMin= 3 EnMin= -346.917468053369     IErMin= 3 ErrMin= 2.65D-03
 ErrMax= 2.65D-03  0.00D+00 EMaxC= 1.00D-01 BMatC= 3.01D-03 BMatP= 2.10D-02
 IDIUse=3 WtCom= 9.73D-01 WtEn= 2.65D-02
 Coeff-Com: -0.782D-01 0.286D+00 0.792D+00
 Coeff-En:   0.000D+00 0.000D+00 0.100D+01
 Coeff:     -0.761D-01 0.279D+00 0.797D+00
 Gap=     0.337 Goal=   None    Shift=    0.000
 RMSDP=1.21D-04 MaxDP=4.33D-03 DE=-1.06D-01 OVMax= 1.07D-02

 Cycle   4  Pass 0  IDiag  1:
 RMSU=  1.00D-04    CP:  1.00D+00  1.04D+00  9.19D-01
 E= -346.919032320585     Delta-E=       -0.001564267216 Rises=F Damp=F
 DIIS: error= 1.66D-03 at cycle   4 NSaved=   4.
 NSaved= 4 IEnMin= 4 EnMin= -346.919032320585     IErMin= 4 ErrMin= 1.66D-03
 ErrMax= 1.66D-03  0.00D+00 EMaxC= 1.00D-01 BMatC= 9.32D-04 BMatP= 3.01D-03
 IDIUse=3 WtCom= 9.83D-01 WtEn= 1.66D-02
 Coeff-Com: -0.267D-01 0.694D-01 0.402D+00 0.555D+00
 Coeff-En:   0.000D+00 0.000D+00 0.199D+00 0.801D+00
 Coeff:     -0.263D-01 0.683D-01 0.399D+00 0.559D+00
 Gap=     0.334 Goal=   None    Shift=    0.000
 RMSDP=4.90D-05 MaxDP=2.00D-03 DE=-1.56D-03 OVMax= 5.85D-03

 Cycle   5  Pass 0  IDiag  1:
 RMSU=  2.58D-05    CP:  1.00D+00  1.04D+00  9.53D-01  6.13D-01
 E= -346.919726810126     Delta-E=       -0.000694489541 Rises=F Damp=F
 DIIS: error= 2.50D-04 at cycle   5 NSaved=   5.
 NSaved= 5 IEnMin= 5 EnMin= -346.919726810126     IErMin= 5 ErrMin= 2.50D-04
 ErrMax= 2.50D-04  0.00D+00 EMaxC= 1.00D-01 BMatC= 2.19D-05 BMatP= 9.32D-04
 IDIUse=3 WtCom= 9.97D-01 WtEn= 2.50D-03
 Coeff-Com: -0.439D-02 0.860D-02 0.947D-01 0.199D+00 0.702D+00
 Coeff-En:   0.000D+00 0.000D+00 0.000D+00 0.000D+00 0.100D+01
 Coeff:     -0.437D-02 0.858D-02 0.945D-01 0.199D+00 0.703D+00
 Gap=     0.333 Goal=   None    Shift=    0.000
 RMSDP=1.20D-05 MaxDP=3.12D-04 DE=-6.94D-04 OVMax= 1.42D-03

 Cycle   6  Pass 0  IDiag  1:
 RMSU=  9.22D-06    CP:  1.00D+00  1.03D+00  9.62D-01  6.47D-01  8.41D-01
 E= -346.919742274912     Delta-E=       -0.000015464786 Rises=F Damp=F
 DIIS: error= 6.94D-05 at cycle   6 NSaved=   6.
 NSaved= 6 IEnMin= 6 EnMin= -346.919742274912     IErMin= 6 ErrMin= 6.94D-05
 ErrMax= 6.94D-05  0.00D+00 EMaxC= 1.00D-01 BMatC= 2.67D-06 BMatP= 2.19D-05
 IDIUse=1 WtCom= 1.00D+00 WtEn= 0.00D+00
 Coeff-Com:  0.208D-03-0.173D-02 0.125D-01 0.519D-01 0.309D+00 0.628D+00
 Coeff:      0.208D-03-0.173D-02 0.125D-01 0.519D-01 0.309D+00 0.628D+00
 Gap=     0.333 Goal=   None    Shift=    0.000
 RMSDP=3.96D-06 MaxDP=1.52D-04 DE=-1.55D-05 OVMax= 6.37D-04

 Initial convergence to 1.0D-05 achieved.  Increase integral accuracy.
 Cycle   7  Pass 1  IDiag  1:
 E= -346.919733788804     Delta-E=        0.000008486108 Rises=F Damp=F
 DIIS: error= 3.79D-05 at cycle   1 NSaved=   1.
 NSaved= 1 IEnMin= 1 EnMin= -346.919733788804     IErMin= 1 ErrMin= 3.79D-05
 ErrMax= 3.79D-05  0.00D+00 EMaxC= 1.00D-01 BMatC= 7.02D-07 BMatP= 7.02D-07
 IDIUse=1 WtCom= 1.00D+00 WtEn= 0.00D+00
 Coeff-Com:  0.100D+01
 Coeff:      0.100D+01
 Gap=     0.333 Goal=   None    Shift=    0.000
 RMSDP=3.96D-06 MaxDP=1.52D-04 DE= 8.49D-06 OVMax= 3.49D-04

 Cycle   8  Pass 1  IDiag  1:
 RMSU=  8.45D-06    CP:  1.00D+00
 E= -346.919733957664     Delta-E=       -0.000000168860 Rises=F Damp=F
 DIIS: error= 2.15D-05 at cycle   2 NSaved=   2.
 NSaved= 2 IEnMin= 2 EnMin= -346.919733957664     IErMin= 2 ErrMin= 2.15D-05
 ErrMax= 2.15D-05  0.00D+00 EMaxC= 1.00D-01 BMatC= 3.29D-07 BMatP= 7.02D-07
 IDIUse=1 WtCom= 1.00D+00 WtEn= 0.00D+00
 Coeff-Com:  0.372D+00 0.628D+00
 Coeff:      0.372D+00 0.628D+00
 Gap=     0.333 Goal=   None    Shift=    0.000
 RMSDP=1.86D-06 MaxDP=7.52D-05 DE=-1.69D-07 OVMax= 3.21D-04

 Cycle   9  Pass 1  IDiag  1:
 RMSU=  1.85D-06    CP:  1.00D+00  9.82D-01
 E= -346.919734157193     Delta-E=       -0.000000199529 Rises=F Damp=F
 DIIS: error= 1.14D-05 at cycle   3 NSaved=   3.
 NSaved= 3 IEnMin= 3 EnMin= -346.919734157193     IErMin= 3 ErrMin= 1.14D-05
 ErrMax= 1.14D-05  0.00D+00 EMaxC= 1.00D-01 BMatC= 9.60D-08 BMatP= 3.29D-07
 IDIUse=1 WtCom= 1.00D+00 WtEn= 0.00D+00
 Coeff-Com: -0.161D-01 0.347D+00 0.669D+00
 Coeff:     -0.161D-01 0.347D+00 0.669D+00
 Gap=     0.333 Goal=   None    Shift=    0.000
 RMSDP=6.75D-07 MaxDP=2.43D-05 DE=-2.00D-07 OVMax= 1.07D-04

 Cycle  10  Pass 1  IDiag  1:
 RMSU=  2.84D-07    CP:  1.00D+00  1.02D+00  7.23D-01
 E= -346.919734235067     Delta-E=       -0.000000077874 Rises=F Damp=F
 DIIS: error= 1.36D-06 at cycle   4 NSaved=   4.
 NSaved= 4 IEnMin= 4 EnMin= -346.919734235067     IErMin= 4 ErrMin= 1.36D-06
 ErrMax= 1.36D-06  0.00D+00 EMaxC= 1.00D-01 BMatC= 9.56D-10 BMatP= 9.60D-08
 IDIUse=1 WtCom= 1.00D+00 WtEn= 0.00D+00
 Coeff-Com: -0.112D-01 0.120D+00 0.247D+00 0.644D+00
 Coeff:     -0.112D-01 0.120D+00 0.247D+00 0.644D+00
 Gap=     0.333 Goal=   None    Shift=    0.000
 RMSDP=7.13D-08 MaxDP=3.62D-06 DE=-7.79D-08 OVMax= 7.19D-06

 Cycle  11  Pass 1  IDiag  1:
 RMSU=  6.59D-08    CP:  1.00D+00  1.02D+00  7.28D-01  1.05D+00
 E= -346.919734235879     Delta-E=       -0.000000000811 Rises=F Damp=F
 DIIS: error= 4.40D-07 at cycle   5 NSaved=   5.
 NSaved= 5 IEnMin= 5 EnMin= -346.919734235879     IErMin= 5 ErrMin= 4.40D-07
 ErrMax= 4.40D-07  0.00D+00 EMaxC= 1.00D-01 BMatC= 9.37D-11 BMatP= 9.56D-10
 IDIUse=1 WtCom= 1.00D+00 WtEn= 0.00D+00
 Coeff-Com: -0.615D-03-0.243D-01-0.427D-01 0.176D+00 0.892D+00
 Coeff:     -0.615D-03-0.243D-01-0.427D-01 0.176D+00 0.892D+00
 Gap=     0.333 Goal=   None    Shift=    0.000
 RMSDP=3.69D-08 MaxDP=1.86D-06 DE=-8.11D-10 OVMax= 3.66D-06

 Cycle  12  Pass 1  IDiag  1:
 RMSU=  2.15D-08    CP:  1.00D+00  1.02D+00  7.36D-01  1.14D+00  9.94D-01
 E= -346.919734235989     Delta-E=       -0.000000000110 Rises=F Damp=F
 DIIS: error= 1.35D-07 at cycle   6 NSaved=   6.
 NSaved= 6 IEnMin= 6 EnMin= -346.919734235989     IErMin= 6 ErrMin= 1.35D-07
 ErrMax= 1.35D-07  0.00D+00 EMaxC= 1.00D-01 BMatC= 8.36D-12 BMatP= 9.37D-11
 IDIUse=1 WtCom= 1.00D+00 WtEn= 0.00D+00
 Coeff-Com:  0.660D-03-0.171D-01-0.334D-01 0.773D-02 0.301D+00 0.741D+00
 Coeff:      0.660D-03-0.171D-01-0.334D-01 0.773D-02 0.301D+00 0.741D+00
 Gap=     0.333 Goal=   None    Shift=    0.000
 RMSDP=8.41D-09 MaxDP=2.82D-07 DE=-1.10D-10 OVMax= 9.99D-07

 SCF Done:  E(RM062X) =  -346.919734236     A.U. after   12 cycles
            NFock= 12  Conv=0.84D-08     -V/T= 2.0062
 KE= 3.447842474662D+02 PE=-1.435989714862D+03 EE= 4.312826673931D+02
 Leave Link  502 at Wed Sep 25 10:55:49 2019, MaxMem=   671088640 cpu:            1566.5 elap:             783.5
 (Enter /shared/centos7/gaussian/g16/l801.exe)
 DoSCS=F DFT=T ScalE2(SS,OS)=  1.000000  1.000000
 Range of M.O.s used for correlation:     1   350
 NBasis=   350 NAE=    28 NBE=    28 NFC=     0 NFV=     0
 NROrb=    350 NOA=    28 NOB=    28 NVA=   322 NVB=   322
 Leave Link  801 at Wed Sep 25 10:55:50 2019, MaxMem=   671088640 cpu:               1.7 elap:               0.8
 (Enter /shared/centos7/gaussian/g16/l1101.exe)
 Using compressed storage, NAtomX=    17.
 Will process     18 centers per pass.
 Leave Link 1101 at Wed Sep 25 10:56:21 2019, MaxMem=   671088640 cpu:              63.6 elap:              31.8
 (Enter /shared/centos7/gaussian/g16/l1102.exe)
 Symmetrizing basis deriv contribution to polar:
 IMax=3 JMax=2 DiffMx= 0.00D+00
 Leave Link 1102 at Wed Sep 25 10:56:24 2019, MaxMem=   671088640 cpu:               6.1 elap:               3.1
 (Enter /shared/centos7/gaussian/g16/l1110.exe)
 Forming Gx(P) for the SCF density, NAtomX=    17.
 Integral derivatives from FoFJK, PRISM(SPDF).
 Do as many integral derivatives as possible in FoFJK.
 G2DrvN: MDV=     671087280.
 G2DrvN: will do    18 centers at a time, making    1 passes.
 Calling FoFCou, ICntrl=  3107 FMM=F I1Cent=   0 AccDes= 0.00D+00.
 FoFJK:  IHMeth= 1 ICntrl=    3107 DoSepK=F KAlg= 0 I1Cent=           0 FoldK=F
 IRaf=         0 NMat=       1 IRICut=       1 DoRegI=T DoRafI=F ISym2E= 0 IDoP0=0 IntGTp=1.
 FoFCou: FMM=F IPFlag=           0 FMFlag=      100000 FMFlg1=           0
         NFxFlg=           0 DoJE=F BraDBF=F KetDBF=F FulRan=T
         wScrn=  0.000000 ICntrl=      3107 IOpCl=  0 I1Cent=           0 NGrid=           0
         NMat0=    1 NMatS0=      1 NMatT0=    0 NMatD0=    1 NMtDS0=    0 NMtDT0=    0
 Symmetry not used in FoFCou.
 End of G2Drv F.D. properties file   721 does not exist.
 End of G2Drv F.D. properties file   722 does not exist.
 End of G2Drv F.D. properties file   788 does not exist.
 Leave Link 1110 at Wed Sep 25 11:20:21 2019, MaxMem=   671088640 cpu:            2872.0 elap:            1436.1
 (Enter /shared/centos7/gaussian/g16/l1002.exe)
 Minotr:  Closed shell wavefunction.
          IDoAtm=11111111111111111
          Direct CPHF calculation.
          Differentiating once with respect to nuclear coordinates.
          Requested convergence is 1.0D-08 RMS, and 1.0D-07 maximum.
          Secondary convergence is 1.0D-12 RMS, and 1.0D-12 maximum.
          NewPWx=T KeepS1=F KeepF1=F KeepIn=T MapXYZ=F SortEE=F KeepMc=T.
         5116 words used for storage of precomputed grid.
 Two-electron integrals replicated using symmetry.
          MDV=     671088640 using IRadAn=       1.
          Solving linear equations simultaneously, MaxMat=     380.
 FoF2E skips out because all densities are zero.
 CalDSu exits because no D1Ps are significant.
 FoFJK:  IHMeth= 1 ICntrl=       0 DoSepK=F KAlg= 0 I1Cent=           0 FoldK=F
 IRaf= 930000000 NMat=      51 IRICut=     127 DoRegI=T DoRafI=T ISym2E= 2 IDoP0=3 IntGTp=3.
 FoFCou: FMM=F IPFlag=           0 FMFlag=      100000 FMFlg1=           0
         NFxFlg=           0 DoJE=F BraDBF=F KetDBF=F FulRan=T
         wScrn=  0.000000 ICntrl=         0 IOpCl=  0 I1Cent=           0 NGrid=           0
         NMat0=   51 NMatS0=     51 NMatT0=    0 NMatD0=   51 NMtDS0=    0 NMtDT0=    0
 Integrals replicated using symmetry in FoFCou.
 Raff kept on since  90.08% of shell-pairs survive, threshold=   0.20 IRatSp=90.
          There are    54 degrees of freedom in the 1st order CPHF.  IDoFFX=6 NUNeed=     0.
     48 vectors produced by pass  0 Test12= 1.67D-14 1.85D-09 XBig12= 7.57D-02 5.62D-02.
 AX will form    48 AO Fock derivatives at one time.
     48 vectors produced by pass  1 Test12= 1.67D-14 1.85D-09 XBig12= 7.27D-03 3.06D-02.
     48 vectors produced by pass  2 Test12= 1.67D-14 1.85D-09 XBig12= 2.45D-04 3.01D-03.
     48 vectors produced by pass  3 Test12= 1.67D-14 1.85D-09 XBig12= 3.14D-06 2.98D-04.
     48 vectors produced by pass  4 Test12= 1.67D-14 1.85D-09 XBig12= 2.05D-08 1.79D-05.
     48 vectors produced by pass  5 Test12= 1.67D-14 1.85D-09 XBig12= 1.23D-10 1.22D-06.
     25 vectors produced by pass  6 Test12= 1.67D-14 1.85D-09 XBig12= 6.37D-13 8.73D-08.
      6 vectors produced by pass  7 Test12= 1.67D-14 1.85D-09 XBig12= 2.54D-15 5.06D-09.
 InvSVY:  IOpt=1 It=  1 EMax= 3.61D-16
 Solved reduced A of dimension   319 with    54 vectors.
 End of Minotr F.D. properties file   721 does not exist.
 End of Minotr F.D. properties file   722 does not exist.
 End of Minotr F.D. properties file   788 does not exist.
 Leave Link 1002 at Wed Sep 25 12:02:13 2019, MaxMem=   671088640 cpu:            5023.5 elap:            2511.9
 (Enter /shared/centos7/gaussian/g16/l601.exe)
 Copying SCF densities to generalized density rwf, IOpCl= 0 IROHF=0.

 **********************************************************************

            Population analysis using the SCF density.

 **********************************************************************

 Orbital symmetries:
       Occupied  (A) (A) (A) (A) (A) (A) (A) (A) (A) (A) (A) (A)
                 (A) (A) (A) (A) (A) (A) (A) (A) (A) (A) (A) (A)
                 (A) (A) (A) (A)
       Virtual   (A) (A) (A) (A) (A) (A) (A) (A) (A) (A) (A) (A)
                 (A) (A) (A) (A) (A) (A) (A) (A) (A) (A) (A) (A)
                 (A) (A) (A) (A) (A) (A) (A) (A) (A) (A) (A) (A)
                 (A) (A) (A) (A) (A) (A) (A) (A) (A) (A) (A) (A)
                 (A) (A) (A) (A) (A) (A) (A) (A) (A) (A) (A) (A)
                 (A) (A) (A) (A) (A) (A) (A) (A) (A) (A) (A) (A)
                 (A) (A) (A) (A) (A) (A) (A) (A) (A) (A) (A) (A)
                 (A) (A) (A) (A) (A) (A) (A) (A) (A) (A) (A) (A)
                 (A) (A) (A) (A) (A) (A) (A) (A) (A) (A) (A) (A)
                 (A) (A) (A) (A) (A) (A) (A) (A) (A) (A) (A) (A)
                 (A) (A) (A) (A) (A) (A) (A) (A) (A) (A) (A) (A)
                 (A) (A) (A) (A) (A) (A) (A) (A) (A) (A) (A) (A)
                 (A) (A) (A) (A) (A) (A) (A) (A) (A) (A) (A) (A)
                 (A) (A) (A) (A) (A) (A) (A) (A) (A) (A) (A) (A)
                 (A) (A) (A) (A) (A) (A) (A) (A) (A) (A) (A) (A)
                 (A) (A) (A) (A) (A) (A) (A) (A) (A) (A) (A) (A)
                 (A) (A) (A) (A) (A) (A) (A) (A) (A) (A) (A) (A)
                 (A) (A) (A) (A) (A) (A) (A) (A) (A) (A) (A) (A)
                 (A) (A) (A) (A) (A) (A) (A) (A) (A) (A) (A) (A)
                 (A) (A) (A) (A) (A) (A) (A) (A) (A) (A) (A) (A)
                 (A) (A) (A) (A) (A) (A) (A) (A) (A) (A) (A) (A)
                 (A) (A) (A) (A) (A) (A) (A) (A) (A) (A) (A) (A)
                 (A) (A) (A) (A) (A) (A) (A) (A) (A) (A) (A) (A)
                 (A) (A) (A) (A) (A) (A) (A) (A) (A) (A) (A) (A)
                 (A) (A) (A) (A) (A) (A) (A) (A) (A) (A) (A) (A)
                 (A) (A) (A) (A) (A) (A) (A) (A) (A) (A) (A) (A)
                 (A) (A) (A) (A) (A) (A) (A) (A) (A) (A)
 The electronic state is 1-A.
 Alpha  occ. eigenvalues --  -19.65092 -19.63890 -10.59631 -10.58732 -10.58073
 Alpha  occ. eigenvalues --  -10.53325 -10.53195  -1.18271  -1.16377  -0.89141
 Alpha  occ. eigenvalues --   -0.83717  -0.78134  -0.71432  -0.65926  -0.60320
 Alpha  occ. eigenvalues --   -0.58139  -0.53586  -0.52087  -0.49292  -0.47293
 Alpha  occ. eigenvalues --   -0.46732  -0.45385  -0.43828  -0.43127  -0.41767
 Alpha  occ. eigenvalues --   -0.39349  -0.36061  -0.27551
 Alpha virt. eigenvalues --    0.05771   0.06465   0.06917   0.09169   0.10865
 Alpha virt. eigenvalues --    0.11284   0.12894   0.14508   0.15686   0.16435
 Alpha virt. eigenvalues --    0.18480   0.19754   0.22222   0.24153   0.25756
 Alpha virt. eigenvalues --    0.26586   0.28500   0.30018   0.32062   0.33658
 Alpha virt. eigenvalues --    0.34063   0.36183   0.36385   0.39623   0.40568
 Alpha virt. eigenvalues --    0.41488   0.42647   0.43188   0.44634   0.45863
 Alpha virt. eigenvalues --    0.47678   0.47999   0.48633   0.49354   0.50086
 Alpha virt. eigenvalues --    0.51223   0.51531   0.52617   0.53625   0.54366
 Alpha virt. eigenvalues --    0.56233   0.57856   0.58809   0.61224   0.62297
 Alpha virt. eigenvalues --    0.64066   0.65862   0.66864   0.70312   0.71619
 Alpha virt. eigenvalues --    0.72692   0.75274   0.76871   0.79676   0.81035
 Alpha virt. eigenvalues --    0.83230   0.83609   0.86862   0.88941   0.92283
 Alpha virt. eigenvalues --    0.93545   0.94604   0.96198   0.97812   0.99528
 Alpha virt. eigenvalues --    1.01409   1.03739   1.04270   1.04716   1.06003
 Alpha virt. eigenvalues --    1.07554   1.08622   1.09550   1.10324   1.12658
 Alpha virt. eigenvalues --    1.15329   1.15927   1.17612   1.18609   1.20315
 Alpha virt. eigenvalues --    1.20981   1.21929   1.23641   1.26728   1.28428
 Alpha virt. eigenvalues --    1.30054   1.30516   1.30797   1.33173   1.34702
 Alpha virt. eigenvalues --    1.36620   1.36930   1.38238   1.39710   1.41246
 Alpha virt. eigenvalues --    1.42984   1.43717   1.45154   1.48705   1.50136
 Alpha virt. eigenvalues --    1.52984   1.53219   1.54695   1.58516   1.59335
 Alpha virt. eigenvalues --    1.61050   1.64751   1.66800   1.79436   1.82931
 Alpha virt. eigenvalues --    1.86777   1.89776   1.96130   2.02630   2.04840
 Alpha virt. eigenvalues --    2.06729   2.08884   2.16451   2.17592   2.21252
 Alpha virt. eigenvalues --    2.21462   2.26595   2.29595   2.31709   2.32696
 Alpha virt. eigenvalues --    2.34100   2.37594   2.38264   2.41843   2.44497
 Alpha virt. eigenvalues --    2.48333   2.51150   2.54143   2.55089   2.56196
 Alpha virt. eigenvalues --    2.59208   2.61413   2.63241   2.64353   2.65900
 Alpha virt. eigenvalues --    2.69862   2.71334   2.76409   2.78768   2.79403
 Alpha virt. eigenvalues --    2.80755   2.81902   2.82901   2.83601   2.85313
 Alpha virt. eigenvalues --    2.86903   2.88905   2.89121   2.91337   2.92829
 Alpha virt. eigenvalues --    2.93840   2.95114   2.96649   2.98981   3.00066
 Alpha virt. eigenvalues --    3.01160   3.02445   3.03883   3.06047   3.06657
 Alpha virt. eigenvalues --    3.07782   3.08625   3.09050   3.12478   3.13752
 Alpha virt. eigenvalues --    3.14920   3.17023   3.19891   3.23308   3.24367
 Alpha virt. eigenvalues --    3.25693   3.26835   3.27325   3.28865   3.30143
 Alpha virt. eigenvalues --    3.31821   3.32198   3.33670   3.34380   3.35963
 Alpha virt. eigenvalues --    3.36945   3.38373   3.40154   3.40608   3.44260
 Alpha virt. eigenvalues --    3.45065   3.45891   3.48412   3.50633   3.52806
 Alpha virt. eigenvalues --    3.53326   3.55280   3.57074   3.59169   3.60807
 Alpha virt. eigenvalues --    3.61729   3.63690   3.66142   3.67840   3.69510
 Alpha virt. eigenvalues --    3.71418   3.74227   3.75186   3.75715   3.77911
 Alpha virt. eigenvalues --    3.79577   3.81258   3.82102   3.83167   3.84911
 Alpha virt. eigenvalues --    3.87016   3.87389   3.89417   3.91836   3.92939
 Alpha virt. eigenvalues --    3.94407   3.95940   3.96829   3.98297   3.99890
 Alpha virt. eigenvalues --    4.01052   4.02575   4.04200   4.04945   4.07070
 Alpha virt. eigenvalues --    4.08019   4.08457   4.12250   4.14636   4.17850
 Alpha virt. eigenvalues --    4.19844   4.20778   4.21523   4.22386   4.27296
 Alpha virt. eigenvalues --    4.28973   4.30627   4.34983   4.36912   4.42633
 Alpha virt. eigenvalues --    4.44566   4.45609   4.47768   4.51670   4.56054
 Alpha virt. eigenvalues --    4.56534   4.61033   4.63888   4.65692   4.70731
 Alpha virt. eigenvalues --    4.72032   4.73380   4.75240   4.78570   4.81299
 Alpha virt. eigenvalues --    4.84082   4.86201   4.88516   4.91396   4.92897
 Alpha virt. eigenvalues --    4.93882   4.95812   4.99585   5.00919   5.03276
 Alpha virt. eigenvalues --    5.06938   5.10589   5.11120   5.13357   5.16616
 Alpha virt. eigenvalues --    5.20240   5.23169   5.24503   5.25261   5.27669
 Alpha virt. eigenvalues --    5.27790   5.29579   5.36419   5.37994   5.44247
 Alpha virt. eigenvalues --    5.49204   5.56979   5.57690   5.65232   5.70532
 Alpha virt. eigenvalues --    5.75970   5.77645   5.80346   5.82061   5.82822
 Alpha virt. eigenvalues --    5.88242   6.02832   6.14477   6.21731   6.31867
 Alpha virt. eigenvalues --    6.34309   6.47852   6.51364   6.58587   6.69548
 Alpha virt. eigenvalues --    6.75750   6.75933   6.77802   6.85623   7.02156
 Alpha virt. eigenvalues --    7.04808   7.12587   7.29685   7.32271   7.36264
 Alpha virt. eigenvalues --   10.33430  10.71178  11.71872  11.74397  13.02825
 Alpha virt. eigenvalues --   13.35474  14.20975
          Condensed to atoms (all electrons):
               1          2          3          4          5          6
     1  O    7.888590   0.003457   0.273412  -0.039088  -0.045074   0.335179
     2  O    0.003457   7.789210  -0.000753  -0.000002   0.000197  -0.070756
     3  C    0.273412  -0.000753   4.916767   0.297185   0.303369  -0.040986
     4  C   -0.039088  -0.000002   0.297185   4.988310  -0.052196   0.009469
     5  C   -0.045074   0.000197   0.303369  -0.052196   5.050642  -0.005851
     6  C    0.335179  -0.070756  -0.040986   0.009469  -0.005851   5.062475
     7  C   -0.064881   0.346512  -0.003722   0.000030  -0.011730   0.457196
     8  H   -0.047309  -0.000593   0.427462  -0.046683  -0.086050  -0.030492
     9  H    0.005183  -0.000001  -0.046874   0.393081   0.002605   0.001194
    10  H    0.001939  -0.000002  -0.035225   0.397258   0.005701  -0.000028
    11  H    0.002043   0.000000  -0.050752   0.409314  -0.004916  -0.000335
    12  H    0.001390  -0.000005  -0.037003  -0.011556   0.396228   0.001508
    13  H   -0.013203  -0.000017  -0.042224   0.007221   0.404419   0.007517
    14  H    0.005784   0.000018  -0.033750   0.002825   0.385836  -0.002336
    15  H   -0.038164  -0.002080   0.007249  -0.000446   0.001402   0.443316
    16  H   -0.002580  -0.030385   0.002102  -0.000016  -0.000299  -0.062516
    17  H    0.000241   0.327583   0.000143   0.000002   0.000007  -0.003633
               7          8          9         10         11         12
     1  O   -0.064881  -0.047309   0.005183   0.001939   0.002043   0.001390
     2  O    0.346512  -0.000593  -0.000001  -0.000002   0.000000  -0.000005
     3  C   -0.003722   0.427462  -0.046874  -0.035225  -0.050752  -0.037003
     4  C    0.000030  -0.046683   0.393081   0.397258   0.409314  -0.011556
     5  C   -0.011730  -0.086050   0.002605   0.005701  -0.004916   0.396228
     6  C    0.457196  -0.030492   0.001194  -0.000028  -0.000335   0.001508
     7  C    4.993355   0.009600   0.000126  -0.000048  -0.000062   0.000461
     8  H    0.009600   0.664477   0.007146  -0.008777   0.004177   0.007628
     9  H    0.000126   0.007146   0.564928  -0.028480  -0.028199   0.001469
    10  H   -0.000048  -0.008777  -0.028480   0.592697  -0.035770   0.000338
    11  H   -0.000062   0.004177  -0.028199  -0.035770   0.599603   0.000438
    12  H    0.000461   0.007628   0.001469   0.000338   0.000438   0.594028
    13  H   -0.001371  -0.000344  -0.000443  -0.000435   0.000927  -0.030490
    14  H   -0.000393  -0.004497  -0.000301  -0.000108  -0.000543  -0.033070
    15  H   -0.100329  -0.001620  -0.000094   0.000022   0.000041  -0.000055
    16  H    0.414942   0.000598   0.000001   0.000044   0.000009  -0.000037
    17  H   -0.053088  -0.000117  -0.000001   0.000000  -0.000000  -0.000003
              13         14         15         16         17
     1  O   -0.013203   0.005784  -0.038164  -0.002580   0.000241
     2  O   -0.000017   0.000018  -0.002080  -0.030385   0.327583
     3  C   -0.042224  -0.033750   0.007249   0.002102   0.000143
     4  C    0.007221   0.002825  -0.000446  -0.000016   0.000002
     5  C    0.404419   0.385836   0.001402  -0.000299   0.000007
     6  C    0.007517  -0.002336   0.443316  -0.062516  -0.003633
     7  C   -0.001371  -0.000393  -0.100329   0.414942  -0.053088
     8  H   -0.000344  -0.004497  -0.001620   0.000598  -0.000117
     9  H   -0.000443  -0.000301  -0.000094   0.000001  -0.000001
    10  H   -0.000435  -0.000108   0.000022   0.000044   0.000000
    11  H    0.000927  -0.000543   0.000041   0.000009  -0.000000
    12  H   -0.030490  -0.033070  -0.000055  -0.000037  -0.000003
    13  H    0.575634  -0.033268  -0.000590   0.000111   0.000018
    14  H   -0.033268   0.603805  -0.000180   0.000063  -0.000002
    15  H   -0.000590  -0.000180   0.549406   0.003116   0.005650
    16  H    0.000111   0.000063   0.003116   0.504462   0.006450
    17  H    0.000018  -0.000002   0.005650   0.006450   0.456164
 Mulliken charges:
               1
     1  O   -0.266918
     2  O   -0.362382
     3  C    0.063599
     4  C   -0.354708
     5  C   -0.344291
     6  C   -0.100920
     7  C    0.013404
     8  H    0.105396
     9  H    0.128661
    10  H    0.110871
    11  H    0.104027
    12  H    0.108731
    13  H    0.126536
    14  H    0.110117
    15  H    0.133356
    16  H    0.163934
    17  H    0.260586
 Sum of Mulliken charges =  -0.00000
 Mulliken charges with hydrogens summed into heavy atoms:
               1
     1  O   -0.266918
     2  O   -0.101796
     3  C    0.168995
     4  C   -0.011149
     5  C    0.001093
     6  C    0.032436
     7  C    0.177338
 APT charges:
               1
     1  O   -0.183337
     2  O   -0.455074
     3  C    0.029787
     4  C   -1.329441
     5  C   -1.082713
     6  C   -0.488160
     7  C   -0.269945
     8  H    0.243438
     9  H    0.346048
    10  H    0.397916
    11  H    0.469010
    12  H    0.469369
    13  H    0.220278
    14  H    0.349465
    15  H    0.421144
    16  H    0.285864
    17  H    0.576352
 Sum of APT charges =  -0.00000
 APT charges with hydrogens summed into heavy atoms:
               1
     1  O   -0.183337
     2  O    0.121278
     3  C    0.273225
     4  C   -0.116468
     5  C   -0.043601
     6  C   -0.067016
     7  C    0.015919
 Electronic spatial extent (au):  <R**2>=           1015.1915
 Charge=              0.0000 electrons
 Dipole moment (field-independent basis, Debye):
    X=              0.4018    Y=              0.6466    Z=              0.3563  Tot=              0.8405
 Quadrupole moment (field-independent basis, Debye-Ang):
   XX=            -43.3942   YY=            -46.2649   ZZ=            -41.9845
   XY=              0.4069   XZ=             -6.2925   YZ=              1.1788
 Traceless Quadrupole moment (field-independent basis, Debye-Ang):
   XX=              0.4870   YY=             -2.3837   ZZ=              1.8967
   XY=              0.4069   XZ=             -6.2925   YZ=              1.1788
 Octapole moment (field-independent basis, Debye-Ang**2):
  XXX=             -6.9794  YYY=             -1.7886  ZZZ=              0.0963  XYY=             -1.1786
  XXY=             -0.9752  XXZ=             21.3991  XZZ=             -9.1204  YZZ=             -0.9367
  YYZ=             -0.3862  XYZ=             -0.3145
 Hexadecapole moment (field-independent basis, Debye-Ang**3):
 XXXX=           -963.3734 YYYY=           -220.0774 ZZZZ=           -127.9306 XXXY=             -1.2620
 XXXZ=            -61.2771 YYYX=             -5.7797 YYYZ=             -3.4398 ZZZX=             -1.4021
 ZZZY=             -0.5801 XXYY=           -202.5163 XXZZ=           -177.1796 YYZZ=            -57.4494
 XXYZ=              3.5614 YYXZ=              0.9369 ZZXY=             -1.1338
 N-N= 3.130030657672D+02 E-N=-1.435989742119D+03  KE= 3.447842474662D+02
  Exact polarizability:   0.000   0.000   0.000   0.000   0.000   0.000
 Approx polarizability:  88.268  -1.502  66.814   6.041  -1.367  84.276
 No NMR shielding tensors so no spin-rotation constants.
 Leave Link  601 at Wed Sep 25 12:02:44 2019, MaxMem=   671088640 cpu:              62.2 elap:              31.1
 (Enter /shared/centos7/gaussian/g16/l701.exe)
 SCFChk:  SCF convergence  8.41D-09 required  1.00D-08
 ... and contract with generalized density number  0.
 Compute integral second derivatives.
 Entering OneElI...
 Calculate overlap and kinetic energy integrals
    NBasis = 395  MinDer = 2  MaxDer = 2
 Requested accuracy = 0.1000D-12
 PrmmSu-InSpLW:  IPartL=    0 NPrtUS=   20 NPrtUL=    1 DoSpLW=F IThBeg=    0 IThEnd=   19 NThAct=   20.
 PrsmSu:  NPrtUS=  20 ThrOK=T IAlg=1 NPAlg=1 LenDen=           0 ISkipM=0 DoSpLW=F IThBeg=    0 IThEnd=   19.
 Prism:   IPart=     0 DynPar=F LinDyn=F Incr=           4.
 PRISM was handed    33314145 working-precision words and  8387 shell-pairs
 PRISM was handed    33314145 working-precision words and  8387 shell-pairs
 PRISM was handed    33314145 working-precision words and  8387 shell-pairs
 PRISM was handed    33314145 working-precision words and  8387 shell-pairs
 PRISM was handed    33314145 working-precision words and  8387 shell-pairs
 PRISM was handed    33314145 working-precision words and  8387 shell-pairs
 PRISM was handed    33314145 working-precision words and  8387 shell-pairs
 PRISM was handed    33314145 working-precision words and  8387 shell-pairs
 PRISM was handed    33314145 working-precision words and  8387 shell-pairs
 PRISM was handed    33314145 working-precision words and  8387 shell-pairs
 PRISM was handed    33314145 working-precision words and  8387 shell-pairs
 PRISM was handed    33314145 working-precision words and  8387 shell-pairs
 IPart= 10 NShTot=         412 NBatch=          47 AvBLen=         8.8
 PRISM was handed    33314145 working-precision words and  8387 shell-pairs
 PRISM was handed    33314145 working-precision words and  8387 shell-pairs
 PRISM was handed    33314145 working-precision words and  8387 shell-pairs
 PRISM was handed    33314145 working-precision words and  8387 shell-pairs
 PRISM was handed    33314145 working-precision words and  8387 shell-pairs
 PRISM was handed    33314145 working-precision words and  8387 shell-pairs
 PRISM was handed    33314145 working-precision words and  8387 shell-pairs
 IPart=  8 NShTot=         417 NBatch=          50 AvBLen=         8.3
 IPart=  0 NShTot=         464 NBatch=          83 AvBLen=         5.6
 PRISM was handed    33314145 working-precision words and  8387 shell-pairs
 IPart= 19 NShTot=         392 NBatch=          36 AvBLen=        10.9
 IPart= 11 NShTot=         410 NBatch=          46 AvBLen=         8.9
 IPart=  5 NShTot=         432 NBatch=          61 AvBLen=         7.1
 IPart=  6 NShTot=         428 NBatch=          59 AvBLen=         7.3
 IPart= 14 NShTot=         399 NBatch=          40 AvBLen=        10.0
 IPart= 15 NShTot=         398 NBatch=          39 AvBLen=        10.2
 IPart=  4 NShTot=         439 NBatch=          63 AvBLen=         7.0
 IPart=  7 NShTot=         421 NBatch=          52 AvBLen=         8.1
 IPart= 18 NShTot=         396 NBatch=          38 AvBLen=        10.4
 IPart= 17 NShTot=         397 NBatch=          39 AvBLen=        10.2
 IPart= 12 NShTot=         406 NBatch=          42 AvBLen=         9.7
 IPart=  1 NShTot=         460 NBatch=          80 AvBLen=         5.8
 IPart= 13 NShTot=         404 NBatch=          41 AvBLen=         9.9
 IPart=  3 NShTot=         446 NBatch=          68 AvBLen=         6.6
 IPart=  9 NShTot=         416 NBatch=          50 AvBLen=         8.3
 IPart=  2 NShTot=         452 NBatch=          74 AvBLen=         6.1
 IPart= 16 NShTot=         398 NBatch=          39 AvBLen=        10.2
 PrSmSu:  NxtVal=             81.
 Entering OneElI...
 Calculate potential energy integrals
    NBasis = 395  MinDer = 2  MaxDer = 2
 Requested accuracy = 0.1000D-12
 PrmmSu-InSpLW:  IPartL=    0 NPrtUS=   20 NPrtUL=    1 DoSpLW=F IThBeg=    0 IThEnd=   19 NThAct=   20.
 PrsmSu:  NPrtUS=  20 ThrOK=T IAlg=1 NPAlg=1 LenDen=           0 ISkipM=0 DoSpLW=F IThBeg=    0 IThEnd=   19.
 Prism:   IPart=     0 DynPar=F LinDyn=F Incr=          64.
 PRISM was handed    33356903 working-precision words and  7624 shell-pairs
 PRISM was handed    33356903 working-precision words and  7624 shell-pairs
 PRISM was handed    33356903 working-precision words and  7624 shell-pairs
 PRISM was handed    33356903 working-precision words and  7624 shell-pairs
 PRISM was handed    33356903 working-precision words and  7624 shell-pairs
 PRISM was handed    33356903 working-precision words and  7624 shell-pairs
 PRISM was handed    33356903 working-precision words and  7624 shell-pairs
 PRISM was handed    33356903 working-precision words and  7624 shell-pairs
 PRISM was handed    33356903 working-precision words and  7624 shell-pairs
 PRISM was handed    33356903 working-precision words and  7624 shell-pairs
 PRISM was handed    33356903 working-precision words and  7624 shell-pairs
 PRISM was handed    33356903 working-precision words and  7624 shell-pairs
 PRISM was handed    33356903 working-precision words and  7624 shell-pairs
 PRISM was handed    33356903 working-precision words and  7624 shell-pairs
 PRISM was handed    33356903 working-precision words and  7624 shell-pairs
 PRISM was handed    33356903 working-precision words and  7624 shell-pairs
 PRISM was handed    33356903 working-precision words and  7624 shell-pairs
 PRISM was handed    33356903 working-precision words and  7624 shell-pairs
 PRISM was handed    33356903 working-precision words and  7624 shell-pairs
 PRISM was handed    33356903 working-precision words and  7624 shell-pairs
 IPart= 16 NShTot=        6120 NBatch=         360 AvBLen=        17.0
 IPart=  8 NShTot=        6511 NBatch=         383 AvBLen=        17.0
 IPart= 13 NShTot=        6256 NBatch=         368 AvBLen=        17.0
 IPart=  9 NShTot=        6477 NBatch=         381 AvBLen=        17.0
 IPart= 10 NShTot=        6426 NBatch=         378 AvBLen=        17.0
 IPart=  4 NShTot=        6749 NBatch=         397 AvBLen=        17.0
 IPart=  3 NShTot=        6851 NBatch=         403 AvBLen=        17.0
 IPart= 19 NShTot=        6018 NBatch=         354 AvBLen=        17.0
 IPart=  0 NShTot=        7123 NBatch=         419 AvBLen=        17.0
 IPart= 11 NShTot=        6358 NBatch=         374 AvBLen=        17.0
 IPart=  1 NShTot=        7021 NBatch=         413 AvBLen=        17.0
 IPart= 15 NShTot=        6188 NBatch=         364 AvBLen=        17.0
 IPart= 14 NShTot=        6239 NBatch=         367 AvBLen=        17.0
 IPart=  6 NShTot=        6664 NBatch=         392 AvBLen=        17.0
 IPart= 12 NShTot=        6290 NBatch=         370 AvBLen=        17.0
 IPart=  5 NShTot=        6715 NBatch=         395 AvBLen=        17.0
 IPart=  2 NShTot=        6936 NBatch=         408 AvBLen=        17.0
 IPart=  7 NShTot=        6511 NBatch=         383 AvBLen=        17.0
 IPart= 18 NShTot=        6052 NBatch=         356 AvBLen=        17.0
 IPart= 17 NShTot=        6103 NBatch=         359 AvBLen=        17.0
 PrSmSu:  NxtVal=           1281.
 Polarizability after L701:
                1             2             3 
      1  0.000000D+00
      2  0.000000D+00  0.000000D+00
      3  0.000000D+00  0.000000D+00  0.000000D+00
 Dipole Derivatives after L701:
                 1             2             3             4             5 
      1  -0.256375D+00 -0.495083D-01  0.150535D-01 -0.316239D+00 -0.255482D-01
      2  -0.131191D+00 -0.137057D+00 -0.684736D-01 -0.196767D-01 -0.391654D+00
      3   0.157192D+00 -0.811951D-01 -0.156580D+00  0.315938D+00 -0.395974D-01
                 6             7             8             9            10 
      1   0.183268D+01  0.454568D+00 -0.529663D-01  0.382840D+00 -0.197003D+01
      2  -0.622263D-01 -0.147086D+00  0.175794D+00  0.830588D-01  0.199856D+00
      3  -0.657329D+00 -0.178839D+00  0.925259D-02 -0.541000D+00  0.168035D+00
                11            12            13            14            15 
      1   0.641405D+00  0.710268D-01 -0.951259D+00 -0.731192D+00 -0.288162D+00
      2  -0.106334D+01 -0.198440D-01 -0.367275D-02 -0.144960D+01 -0.122058D+00
      3  -0.120786D+00 -0.954952D+00 -0.137229D-01  0.123776D+00 -0.847275D+00
                16            17            18            19            20 
      1  -0.627178D+00  0.395815D+00  0.917800D-01 -0.274470D+00 -0.267112D+00
      2   0.177385D+00 -0.388795D-01  0.288370D-01  0.986496D-01  0.537947D-01
      3   0.613876D-01 -0.550711D-02 -0.798423D+00 -0.789727D-01  0.145018D-01
                21            22            23            24            25 
      1  -0.444532D+00  0.583934D-01 -0.532777D-02 -0.235013D+00  0.210782D+00
      2  -0.288504D-01  0.101357D-01  0.162666D+00  0.239015D-01 -0.647401D-01
      3  -0.589160D+00  0.210469D+00  0.201978D-01  0.509254D+00  0.166500D-01
                26            27            28            29            30 
      1  -0.711647D+00  0.585408D+00  0.263755D+00 -0.440944D+00 -0.809541D+00
      2   0.581855D+00 -0.410404D+00 -0.651076D-01  0.301173D+00  0.414232D+00
      3  -0.167032D+00  0.245507D+00 -0.552766D-01  0.261395D+00  0.628819D+00
                31            32            33            34            35 
      1   0.117229D+01  0.715653D+00  0.198297D+00  0.887190D+00  0.226428D+00
      2   0.279383D-01  0.158080D+00  0.176055D-01  0.521563D+00  0.292929D+00
      3  -0.572900D-01 -0.175707D-01  0.766567D-01  0.252211D+00  0.691772D-01
                36            37            38            39            40 
      1   0.441392D+00  0.453637D-01  0.548251D-01  0.456507D-01  0.422720D-01
      2   0.298096D+00 -0.475277D+00  0.297614D+00  0.380789D+00 -0.841427D-01
      3   0.227988D+00 -0.269349D+00  0.723718D-01  0.317855D+00  0.375639D-01
                41            42            43            44            45 
      1   0.297108D+00 -0.340961D+00  0.383157D+00 -0.200999D-01 -0.534141D+00
      2   0.604660D+00 -0.628921D+00  0.268890D-01  0.671632D-01 -0.680773D-01
      3  -0.219784D+00  0.401463D+00 -0.255769D+00  0.235729D-01  0.813112D+00
                46            47            48            49            50 
      1  -0.300656D-01  0.272224D-01  0.560273D+00  0.907848D+00 -0.541105D-01
      2  -0.503141D-01  0.108970D+00  0.114554D+00 -0.212092D-01  0.275834D+00
      3  -0.208359D+00  0.524116D-01  0.778688D+00 -0.101869D+00  0.481579D-02
                51 
      1  -0.157205D+01
      2   0.477810D-01
      3   0.545375D+00
 Hessian after L701:
                1             2             3             4             5 
      1  0.436216D+01
      2 -0.192968D+00  0.152780D+02
      3  0.307205D+01  0.229522D+01  0.152734D+02
      4  0.442710D+00 -0.146885D+00  0.208860D+00  0.399265D+01
      5 -0.150718D+00 -0.178769D+00 -0.491608D-01  0.164446D+01  0.144244D+02
      6  0.246724D+00 -0.556554D-01 -0.163611D+00  0.125710D+01  0.147750D-01
      7 -0.483640D+01  0.231563D+01 -0.356740D+01  0.210083D+00  0.124405D-02
      8  0.215318D+01 -0.711250D+01 -0.244961D+01  0.571055D-02 -0.929008D-01
      9 -0.337685D+01 -0.240324D+01 -0.556080D+01  0.387967D-01  0.286849D-02
     10  0.376929D+00 -0.886643D-01 -0.260108D+00  0.678708D-01 -0.166703D-01
     11 -0.366731D-01 -0.257048D+00 -0.515988D-01 -0.741699D-02 -0.444701D-01
     12 -0.313097D+00 -0.147879D-01 -0.165757D+00  0.452861D-02 -0.824897D-03
     13 -0.156467D+00  0.316022D+00  0.123086D+00  0.145415D+00  0.776237D-01
     14  0.274524D+00  0.732337D+00  0.123849D+00  0.349008D-01 -0.701619D-01
     15  0.734665D-01 -0.964408D-02 -0.399512D+00  0.154856D-01  0.446781D-02
     16 -0.965627D-01 -0.259266D+01 -0.216854D+00 -0.507294D-01  0.185665D+00
     17 -0.229734D+01 -0.869556D+01 -0.166202D+00  0.105258D+00  0.241226D+00
     18 -0.368509D+00 -0.213293D+00 -0.980772D+01  0.164225D+00  0.162762D-01
     19 -0.126745D+00  0.415264D+00  0.514875D+00  0.442564D+00 -0.169768D+01
     20  0.255538D+00  0.120091D+00  0.282038D-01 -0.161183D+01 -0.820482D+01
     21  0.499896D+00  0.702125D-01  0.399544D+00 -0.282580D+00 -0.872927D-01
     22  0.140555D+00 -0.129118D+00  0.289813D+00  0.337836D-02 -0.590386D-02
     23 -0.959414D-01  0.140487D-01  0.293709D+00 -0.576909D-02 -0.158778D-01
     24  0.241851D+00  0.328606D+00  0.170152D+00 -0.328809D-01  0.147265D-02
     25  0.554920D-01 -0.218281D-01 -0.943857D-01  0.116952D-01 -0.486098D-02
     26 -0.847559D-01 -0.671127D-01  0.396307D-01 -0.139941D-01 -0.126169D-02
     27 -0.285578D-01  0.154248D-02 -0.711354D-01  0.994075D-02 -0.312027D-02
     28  0.306018D-01 -0.244167D-01 -0.815570D-01  0.114553D-01 -0.376651D-02
     29 -0.361860D-01 -0.350521D-01  0.395840D-01 -0.939687D-02 -0.339045D-02
     30 -0.919596D-01  0.308173D-01  0.623023D-01 -0.134266D-01  0.321495D-02
     31  0.116348D+00  0.547365D-01 -0.394823D-01  0.172531D-01  0.327169D-04
     32  0.556091D-01 -0.222568D-01 -0.126955D-01  0.527992D-02 -0.372136D-02
     33 -0.247470D-01 -0.940421D-02 -0.369258D-01  0.242111D-02  0.693513D-04
     34  0.317846D-01  0.905116D-01 -0.249625D-03  0.203097D-01  0.743585D-02
     35  0.673111D-01  0.452387D-01 -0.233623D-02  0.925063D-02 -0.335363D-02
     36  0.117293D-01  0.120960D-01 -0.424747D-01  0.960264D-02  0.233878D-02
     37 -0.237922D-03 -0.457372D-01 -0.402678D-02  0.286918D-02  0.940112D-02
     38  0.221143D-01 -0.927649D-02  0.239705D-01  0.253383D-01 -0.441883D-02
     39 -0.156252D-02  0.589129D-01  0.748203D-03  0.289431D-01  0.131305D-01
     40 -0.451506D-01  0.391788D-01 -0.314203D-01  0.128876D-01  0.105471D-01
     41  0.482454D-01  0.104675D+00 -0.122155D+00  0.219612D-01  0.728807D-03
     42 -0.339130D-01 -0.120483D+00  0.309367D-01 -0.154592D-01 -0.775232D-02
     43 -0.327431D+00  0.306148D-01  0.643877D-01 -0.240868D-01  0.110327D-02
     44  0.422035D-01  0.138007D+00  0.176292D-01 -0.393691D-02 -0.523662D-01
     45  0.587714D-01  0.361982D-01  0.257656D+00  0.785441D-01 -0.383279D-02
     46 -0.232157D-01 -0.361394D-02  0.225850D-01 -0.208517D+00  0.542918D-01
     47 -0.876528D-02 -0.399291D-01 -0.833393D-02  0.618026D-01  0.585594D-01
     48  0.771224D-01 -0.154664D-01  0.732091D-01  0.820510D-01 -0.144935D-01
     49  0.556268D-01 -0.160691D-01 -0.172553D-03 -0.509781D+01 -0.112205D+00
     50 -0.153799D-01 -0.148748D-01  0.294079D-03 -0.114740D+00 -0.604943D+01
     51 -0.424209D-01  0.836863D-02 -0.199908D-01 -0.155616D+01  0.107864D+00
                6             7             8             9            10 
      6  0.991269D+01
      7  0.327972D-01  0.170292D+02
      8  0.352358D-02 -0.134443D+01  0.192600D+02
      9 -0.102948D+00  0.268337D+01  0.142952D+01  0.194401D+02
     10  0.793324D-02 -0.250860D+01 -0.184546D+01 -0.343592D+00  0.115147D+02
     11  0.198520D-02 -0.177878D+01 -0.479836D+01  0.248133D+00  0.133912D+01
     12 -0.473800D-01 -0.333198D+00  0.239551D+00 -0.571973D+01  0.688047D+00
     13  0.497674D-01 -0.632454D+01  0.535092D+00  0.121712D+00 -0.127290D-01
     14  0.190624D-02  0.422485D+00 -0.195619D+01  0.679891D+00 -0.102044D+00
     15 -0.893565D-01  0.132194D+00  0.683471D+00 -0.620066D+01 -0.289530D-01
     16  0.275690D+00  0.263507D+00  0.197091D+00 -0.163368D+00  0.319693D+00
     17 -0.287918D-01  0.122804D+00 -0.178068D+00 -0.179004D-01 -0.117387D+00
     18  0.385491D-01 -0.173214D+00 -0.471871D-01 -0.873995D-01 -0.126884D+00
     19 -0.141148D+00  0.326511D+00  0.836652D-01  0.650345D-01  0.133550D+00
     20 -0.710092D-01  0.236861D-01 -0.211636D+00 -0.124253D-02 -0.516168D-01
     21 -0.832283D+01 -0.288828D-02 -0.101225D-01 -0.204841D+00  0.108311D-01
     22 -0.351507D-02 -0.449371D+01  0.102945D+00  0.986164D+00 -0.812664D-01
     23  0.754751D-03  0.971336D-01 -0.487930D+01  0.144812D+00  0.116691D+00
     24 -0.157498D-01  0.118823D+01  0.195077D+00 -0.211611D+01 -0.479665D-01
     25  0.499253D-02  0.510014D-01  0.849454D-01 -0.499980D-01 -0.395536D+01
     26 -0.646900D-02  0.517730D-01  0.513271D-01  0.247763D-01 -0.678505D-01
     27 -0.967553D-03 -0.144574D-01 -0.104467D-01  0.112386D+00  0.103539D+00
     28 -0.379578D-03 -0.204868D-01  0.649547D-01  0.574719D-01 -0.384521D+01
     29 -0.701613D-03  0.507570D-01  0.255653D-01 -0.131575D-01 -0.123423D+00
     30 -0.684912D-02  0.425865D-01 -0.914745D-02  0.826706D-01 -0.264263D+00
     31  0.568984D-02 -0.107230D+00  0.161253D-01 -0.985163D-02 -0.205934D+01
     32  0.246786D-02  0.469245D-01  0.144307D+00  0.294793D-02  0.109893D+01
     33 -0.359074D-02  0.185119D-01  0.699298D-02  0.108981D+00  0.292414D+00
     34  0.119253D-01  0.890603D-01 -0.388387D-01  0.472614D-02  0.828952D-02
     35  0.403416D-02 -0.726593D-01 -0.513772D-01 -0.567946D-01  0.494678D-02
     36 -0.180534D-02  0.672558D-02 -0.265273D-01  0.654198D-01  0.919539D-02
     37  0.297498D-02  0.107849D+00  0.187726D-01  0.148011D-01  0.338924D-01
     38  0.105002D-01  0.896131D-01 -0.156549D-02 -0.106408D+00 -0.937967D-01
     39 -0.280688D-02  0.273685D-01 -0.488075D-01  0.386302D-01 -0.531453D-01
     40 -0.568885D-03  0.614702D-01 -0.572178D-01  0.124106D-01 -0.181800D-01
     41  0.176515D-02 -0.449668D-01 -0.919181D-01  0.556952D-01 -0.464385D-01
     42 -0.124045D-01  0.135510D-01  0.359602D-01  0.907353D-01  0.118338D-01
     43  0.307099D-01  0.953207D-01  0.116263D-01 -0.996019D-01  0.491063D-02
     44 -0.288376D-02  0.846266D-03 -0.561948D-01 -0.440245D-03 -0.223647D-02
     45  0.898015D-01 -0.140886D+00 -0.705682D-02  0.388531D-01 -0.150759D-01
     46  0.130319D+00  0.292595D-01  0.120803D-01  0.570902D-01  0.132799D-01
     47 -0.274060D-01  0.195092D-01 -0.442603D-01  0.108867D-01 -0.258448D-02
     48  0.106543D+00  0.115954D+00  0.165064D-01  0.269268D-01  0.243295D-01
     49 -0.191101D+01  0.277108D-01 -0.245795D-03  0.168095D-02  0.758603D-02
     50  0.151205D+00 -0.157417D-02 -0.692456D-02 -0.348591D-03 -0.151130D-02
     51 -0.137728D+01 -0.292458D-01 -0.170036D-02 -0.122616D-01 -0.813576D-02
               11            12            13            14            15 
     11  0.139772D+02
     12 -0.277556D+00  0.147856D+02
     13 -0.228466D+00 -0.746164D-01  0.145660D+02
     14  0.139076D+00  0.762939D-01 -0.591690D+00  0.119794D+02
     15  0.456059D-01 -0.107899D+00  0.341172D-01 -0.115823D+00  0.158716D+02
     16 -0.978830D-01 -0.152614D+00  0.119985D+00  0.256528D+00 -0.108702D+00
     17 -0.136679D+00  0.437467D-01  0.315914D+00  0.360475D-01 -0.733780D-01
     18  0.345458D-01 -0.129254D+00 -0.572507D-01 -0.232059D-01 -0.213507D+00
     19 -0.248929D-01  0.139219D-01  0.511562D-01  0.817190D-02  0.339447D-01
     20 -0.712591D-01 -0.364279D-03  0.412621D-01 -0.849646D-01  0.258419D-01
     21 -0.340362D-02 -0.908767D-01  0.574626D-01  0.266834D-01 -0.104947D+00
     22  0.115062D+00 -0.288013D-01  0.257723D+00 -0.166913D+00 -0.902528D-01
     23  0.656196D-01  0.369063D-01 -0.177988D+00 -0.100454D+00 -0.274140D+00
     24  0.478252D-01  0.149887D+00 -0.133453D+00 -0.354918D+00  0.112239D+00
     25 -0.234235D+00  0.258053D+00 -0.204474D-01 -0.387333D-01  0.528713D-02
     26 -0.250089D+01 -0.128103D+01 -0.412025D-01  0.664682D-01 -0.209685D-01
     27 -0.119339D+01 -0.284265D+01  0.949582D-02 -0.177385D-01 -0.260601D-01
     28 -0.186565D+00 -0.390504D+00 -0.192075D-01 -0.509525D-01 -0.294794D-01
     29 -0.333722D+01  0.985259D+00 -0.491649D-01  0.619538D-01  0.646507D-01
     30  0.958674D+00 -0.201404D+01 -0.363548D-01  0.738809D-01  0.573408D-02
     31  0.126384D+01  0.359666D+00  0.450896D-01 -0.364608D-01 -0.224763D-02
     32 -0.311801D+01  0.195723D+00 -0.561782D-02 -0.192996D-01  0.877346D-03
     33  0.184101D+00 -0.376387D+01  0.100161D-02  0.573023D-04 -0.311653D-01
     34  0.148406D-01  0.112160D-01 -0.209144D+01  0.566183D+00  0.107952D+01
     35 -0.202492D-01 -0.298568D-01  0.694979D+00 -0.374567D+01  0.414406D+00
     36 -0.102545D-01 -0.137599D-01  0.107028D+01  0.330466D+00 -0.323050D+01
     37 -0.884914D-01 -0.496050D-01 -0.280042D+01 -0.526985D+00 -0.116913D+01
     38  0.489668D-01  0.527679D-01 -0.794049D+00 -0.412243D+01  0.578642D+00
     39  0.554002D-01 -0.148637D-01 -0.128289D+01  0.404833D+00 -0.331151D+01
     40 -0.479037D-01  0.108754D-01 -0.382122D+01 -0.831225D-01  0.968690D-01
     41  0.793273D-01 -0.272458D-01 -0.147446D+00 -0.288550D+01 -0.131334D+01
     42 -0.380634D-01 -0.255686D-01  0.161476D+00 -0.119840D+01 -0.229469D+01
     43 -0.696753D-04 -0.858769D-02  0.422779D-01  0.246129D-01 -0.462765D-01
     44 -0.941974D-02  0.144912D-02  0.297103D-01 -0.147863D-01 -0.207427D-01
     45 -0.176930D-02  0.419926D-02 -0.611785D-01 -0.209795D-01  0.208112D-01
     46 -0.196534D-02  0.681209D-02  0.489969D-03  0.853097D-02  0.931261D-02
     47 -0.130597D-01 -0.309221D-03  0.203040D-01 -0.102955D-01  0.107312D-01
     48  0.182029D-02 -0.237287D-02  0.376966D-01  0.989508D-02 -0.153930D-04
     49  0.479169D-03 -0.209711D-02  0.183406D-01  0.964352D-03 -0.515593D-02
     50 -0.347948D-02  0.280783D-03  0.471736D-02 -0.550008D-02 -0.659568D-03
     51 -0.205766D-02 -0.170822D-02 -0.203479D-01  0.331282D-02 -0.560607D-03
               16            17            18            19            20 
     16  0.999244D+01
     17  0.369414D+01  0.268359D+02
     18 -0.290144D+01  0.112406D+01  0.165559D+02
     19 -0.650527D+01 -0.181589D+01  0.460798D+01  0.933793D+01
     20 -0.168784D+01 -0.138571D+02 -0.989903D+00  0.303962D+01  0.265856D+02
     21  0.436127D+01 -0.103161D+01 -0.387243D+01 -0.365747D+01  0.843722D+00
     22 -0.147311D+00  0.155044D-01  0.174362D+00  0.106012D+00  0.743892D-01
     23  0.110463D-01  0.902891D-01 -0.168133D-01  0.668422D-01 -0.786368D-01
     24  0.167352D+00 -0.365842D-01  0.101503D-01 -0.265198D+00 -0.341129D-01
     25  0.353161D-01 -0.209765D-01 -0.368393D-02  0.217889D-01 -0.129839D-01
     26 -0.372401D-01 -0.475549D-02  0.476623D-03 -0.230396D-01  0.181299D-02
     27  0.766325D-02 -0.222508D-02 -0.184121D-01  0.141798D-01 -0.711308D-02
     28  0.152977D-01 -0.406783D-02 -0.113583D-01  0.182991D-01 -0.743075D-02
     29 -0.107207D-01 -0.896640D-02  0.531002D-02 -0.130428D-01 -0.394926D-02
     30 -0.242740D-01  0.411885D-02  0.223174D-02 -0.195926D-01  0.765628D-02
     31  0.206573D-01  0.384984D-02 -0.224560D-02  0.227535D-01 -0.283861D-02
     32  0.892394D-02 -0.498253D-02 -0.639159D-03  0.720511D-02 -0.629449D-02
     33 -0.140518D-02  0.698624D-03 -0.886543D-02  0.289157D-02 -0.783422D-04
     34  0.552384D-01  0.375687D-01  0.729025D-03  0.352911D-01  0.110341D-01
     35  0.392050D-01 -0.257701D-02 -0.967083D-04  0.201390D-01 -0.387079D-02
     36  0.782914D-02  0.502606D-02 -0.195730D-01  0.148851D-01  0.395490D-02
     37 -0.659193D-01  0.357260D-01  0.497517D-02 -0.220571D-01 -0.568188D-02
     38  0.875402D-01  0.768627D-01  0.170136D-01  0.152998D-01 -0.151516D-01
     39  0.314770D-01  0.510067D-01 -0.753260D-01  0.281324D-01  0.158976D-01
     40 -0.112433D-01  0.499061D-02 -0.493796D-02  0.642542D-02  0.204001D-01
     41  0.101382D-01  0.827555D-02 -0.129890D-01  0.359154D-01  0.132914D-01
     42 -0.120238D-01 -0.205493D-01  0.272349D-02 -0.192882D-01 -0.117045D-01
     43 -0.410990D+01 -0.851566D-01 -0.119292D+01  0.400418D+00 -0.567431D-02
     44 -0.726120D-01 -0.462037D+01  0.133949D+00 -0.111962D-01  0.370106D+00
     45 -0.113529D+01  0.164500D+00 -0.194768D+01 -0.151573D+00 -0.512901D-01
     46  0.249910D+00 -0.389049D-02 -0.183782D+00 -0.439337D+01 -0.709716D-01
     47 -0.841793D-02  0.230961D+00 -0.152954D-01 -0.908395D-01 -0.467576D+01
     48 -0.125388D+00 -0.227761D-01 -0.415451D+00 -0.103803D+01  0.246417D+00
     49 -0.851030D-01  0.895866D-02  0.739622D-01  0.144743D+00 -0.906398D-02
     50  0.171009D-01 -0.104991D-01 -0.122097D-01 -0.155383D-01  0.122630D+00
     51 -0.992372D-02  0.685588D-02 -0.138952D-01 -0.354241D-02 -0.487627D-02
               21            22            23            24            25 
     21  0.146740D+02
     22 -0.198738D+00  0.414264D+01
     23 -0.285508D-01 -0.391382D-01  0.494149D+01
     24  0.438509D-01 -0.126734D+01 -0.167109D+00  0.158650D+01
     25  0.344081D-02  0.241780D-01 -0.385054D-01  0.563017D-01  0.363399D+01
     26 -0.277097D-02 -0.462425D-01  0.539356D-02 -0.500753D-01  0.415527D+00
     27 -0.874249D-02  0.468020D-01 -0.329460D-01  0.222199D-01 -0.235114D+00
     28 -0.631732D-02 -0.317171D-01  0.315751D-01  0.696419D-02  0.101425D+00
     29  0.405929D-02  0.259274D-01  0.315187D-02 -0.570321D-02 -0.247386D-02
     30 -0.269418D-02 -0.492041D-03 -0.842963D-03  0.154196D-01 -0.682138D-02
     31 -0.691305D-03  0.530026D-01  0.271926D-02  0.401168D-01  0.453447D-01
     32 -0.370065D-03  0.565139D-02 -0.169305D-01  0.502671D-02 -0.119801D+00
     33 -0.705711D-02  0.235674D-01  0.121178D-02 -0.377878D-02  0.638287D-01
     34  0.109881D-01  0.162350D-01  0.436256D-01  0.616672D-01 -0.818551D-02
     35  0.387051D-02  0.441509D-01  0.131438D-01  0.593132D-01 -0.569839D-02
     36 -0.847650D-02  0.468255D-01  0.442905D-01  0.351901D-01 -0.790230D-03
     37  0.253198D-02 -0.485329D-02 -0.231282D-02 -0.876858D-02  0.326368D-03
     38  0.100473D-01  0.167682D-02  0.136089D-02  0.107583D-01  0.238757D-02
     39 -0.481798D-02  0.228590D-02  0.531134D-02  0.113001D-01 -0.886946D-03
     40 -0.501321D-02  0.660994D-02 -0.122782D-01 -0.170980D-02 -0.737734D-03
     41 -0.851030D-02 -0.413519D-02 -0.281447D-01  0.131197D-02 -0.875242D-03
     42 -0.962171D-02 -0.443212D-02 -0.935457D-02  0.449419D-02  0.941953D-03
     43 -0.933671D-01 -0.801681D-02 -0.116164D-02  0.873191D-02  0.185538D-02
     44 -0.245997D-01 -0.678382D-04  0.251772D-02  0.150463D-03 -0.750078D-03
     45 -0.541673D+00  0.159815D-01  0.133479D-02 -0.539642D-02 -0.365231D-02
     46 -0.843433D+00  0.176553D-01  0.366961D-02 -0.896013D-02  0.594988D-03
     47  0.260143D+00  0.636691D-02 -0.168659D-01 -0.132007D-02 -0.728640D-03
     48 -0.200112D+01  0.740441D-02  0.102230D-02 -0.271330D-01  0.474199D-02
     49  0.144078D+00 -0.110777D-02 -0.207992D-03 -0.494301D-02  0.171999D-02
     50 -0.215110D-01 -0.155452D-03 -0.805847D-03  0.280783D-03 -0.409640D-03
     51  0.627251D-01  0.363996D-03  0.404287D-03  0.676133D-02 -0.225532D-02
               26            27            28            29            30 
     26  0.243699D+01
     27  0.112338D+01  0.298416D+01
     28 -0.756119D-02  0.219462D-01  0.367253D+01
     29  0.110135D+00  0.720401D-01  0.284698D+00  0.320817D+01
     30  0.618514D-01 -0.216375D+00  0.546264D+00 -0.998362D+00  0.209002D+01
     31 -0.139481D+00  0.591937D-01  0.658994D-01 -0.112379D+00 -0.124213D+00
     32 -0.131198D+00  0.790401D-01 -0.905152D-01 -0.336166D-01 -0.151490D+00
     33  0.101955D+00  0.767368D-01 -0.110804D+00 -0.164138D+00 -0.257388D-01
     34  0.673239D-02 -0.281384D-02 -0.448285D-02  0.477183D-02  0.556812D-02
     35  0.311396D-01 -0.127327D-02 -0.241838D-02  0.917010D-02  0.106963D-01
     36  0.784566D-02 -0.876618D-02 -0.199857D-02  0.113710D-01  0.650871D-02
     37 -0.389514D-02  0.291467D-02  0.156383D-04 -0.780592D-03 -0.316329D-02
     38 -0.849208D-03 -0.292349D-02  0.222094D-02 -0.217883D-02  0.488459D-03
     39  0.296986D-02 -0.241881D-02  0.287407D-03  0.846687D-03  0.250774D-02
     40 -0.152330D-02  0.816641D-03 -0.726764D-03 -0.376547D-02 -0.211474D-02
     41  0.385077D-02 -0.353381D-02 -0.374009D-02  0.863748D-02  0.697163D-02
[...]
   yx         0.383648D+01      0.568507D+00      0.632550D+00
   yy         0.634533D+02      0.940281D+01      0.104620D+02
   zx        -0.217555D+01     -0.322383D+00     -0.358700D+00
   zy        -0.201932D+01     -0.299233D+00     -0.332941D+00
   zz         0.831153D+02      0.123164D+02      0.137039D+02

 ----------------------------------------------------------------------

 Test job not archived.
 1\1\GINC-C0294\Freq\RM062X\CC-pVTZ\C5H10O2\HARMS.N\25-Sep-2019\0\\#P G
 eom=AllCheck Guess=TCheck SCRF=Check Test GenChk RM062X/CC-pVTZ Freq\\
 Gaussian input prepared by ASE\\0,1\O,4.2630438209,0.7308491463,2.0021
 613839\O,1.0476843631,-0.9950048344,1.567217343\C,4.7503901492,0.20822
 33612,3.234522606\C,5.7818128911,1.1997390564,3.7323631185\C,5.3462743
 461,-1.1767953338,3.034526029\C,3.0698000662,0.2719493201,1.5401821175
 \C,2.2532897043,-0.6154236986,2.0980999679\H,3.9175401009,0.1653804927
 ,3.9448315036\H,6.5853260497,1.2912847055,3.0013343361\H,5.3318679276,
 2.1799905899,3.8776361846\H,6.2069954814,0.8620635276,4.6768755174\H,6
 .2121204818,-1.1063849424,2.3756464578\H,4.6305054812,-1.8630542481,2.
 586452254\H,5.6705612828,-1.5894451896,3.9897409322\H,2.8108435225,0.7
 427976565,0.5985911175\H,2.4573191263,-1.1322035555,3.022694829\H,0.87
 85163649,-0.4930756983,0.7649762672\\Version=EM64L-G16RevA.03\State=1-
 A\HF=-346.9414773\RMSD=2.333e-09\RMSF=8.981e-07\ZeroPoint=0.147428\The
 rmal=0.1558829\Dipole=0.2219528,0.1005468,0.0532224\DipoleDeriv=-1.330
 5085,-0.3384065,-0.4025091,-0.1749582,-0.5081181,0.0883171,-0.7776254,
 -0.0767822,-0.7737139,-1.2452806,-0.3742147,-0.2156711,-0.2082131,-0.3
 939591,-0.1092595,-0.4963573,-0.267185,-0.3967065,0.5481666,-0.038584,
 0.2126403,-0.2039555,0.4278418,-0.0917224,0.504295,0.075882,0.6349272,
 -0.0060386,-0.03813,-0.0587092,-0.0475897,-0.0148349,-0.0565826,-0.067
 0953,-0.0317606,0.0657834,-0.011945,0.0204205,-0.0295324,0.0773556,-0.
 131055,0.0039705,-0.0725377,-0.0972531,0.0352173,0.8964896,0.393578,0.
 2899204,0.3287737,0.0820331,-0.0643552,0.4932972,0.0336411,0.2262169,0
 .8422126,0.4479363,0.2007814,0.2550792,0.0497572,-0.0453825,0.5297013,
 0.1222895,0.106139,-0.109338,0.0055029,0.1049926,0.0327438,-0.0170307,
 0.0165536,0.0014146,-0.0122321,-0.0537131,-0.0282947,-0.0250241,0.0505
 939,-0.0024956,0.0509101,-0.0304207,0.1137184,0.0129278,-0.0193203,0.0
 234059,0.0688374,0.0086549,0.0290402,-0.0976409,-0.043719,0.0076803,-0
 .0170691,0.0676642,0.0166528,-0.0062056,-0.0547663,0.0177671,0.0335972
 ,0.0730334,-0.0812127,0.0334479,-0.0665191,-0.0477474,0.0238685,0.0671
 367,-0.0391537,0.0433817,0.0306762,0.0931175,0.0002317,0.0053745,0.009
 4456,-0.0815887,-0.0329399,-0.0694452,-0.0214568,-0.053059,-0.0242245,
 -0.0580231,0.038208,0.0320294,0.0313484,-0.0404601,0.0509861,0.0512155
 ,0.0392429,-0.0598679,0.0689733,-0.0826134,0.0024314,-0.0252209,-0.107
 7193,-0.0199794,0.1065564,0.0697815,-0.1159939,0.0656844,-0.0332646,0.
 0759324,-0.0255208,-0.0523879,-0.0027729,0.1071285,0.075599,-0.092687,
 0.0570983,0.0134315,0.3323865,-0.0385966,0.0599751,-0.0231823,0.231673
 8,0.0973264,0.0443774,0.0901293,0.2328889\Polar=77.0636408,8.2535702,6
 3.1472545,8.9013574,-1.8776937,62.4288909\Quadrupole=-1.1338132,-2.148
 3764,3.2821896,-2.3678712,3.5415977,-1.0409231\PG=C01 [X(C5H10O2)]\NIm
 ag=0\\0.41837345,0.10301589,0.19714554,0.17427918,-0.07958864,0.354503
 99,-0.01716486,-0.01224741,-0.01156471,0.35856759,-0.01212029,0.003485
 33,0.00222651,0.07410825,0.24382639,-0.01121951,0.00329370,-0.00290656
 ,0.18490301,-0.22498518,0.47843062,-0.09037893,-0.00494323,-0.01651465
 ,0.00338525,0.00089549,0.00108961,0.58349720,0.00990614,-0.09643075,0.
 06206946,-0.00345494,-0.00198254,-0.00118212,0.02660185,0.50039880,-0.
 03752959,0.05056173,-0.17444439,0.00931806,0.00492397,0.00230666,-0.06
 288712,0.01266656,0.51391275,-0.01618848,-0.00747031,-0.01570421,-0.00
 031948,-0.00017687,-0.00028587,-0.14070496,-0.05981931,-0.02304733,0.5
 3950685,0.01160859,0.00975473,0.00690408,0.00078330,0.00030297,0.00014
 877,-0.06506185,-0.14010574,-0.03113886,-0.04726892,0.55474480,-0.0394
 8130,-0.02006183,-0.02718684,-0.00101145,-0.00046587,0.00034995,-0.013
 45258,-0.02029708,-0.08393478,-0.01554204,-0.02048019,0.58023253,-0.00
 691034,0.01538302,-0.00727712,-0.00029584,-0.00022209,-0.00016458,-0.1
 0188491,0.04183885,0.01140245,0.01073950,-0.02245270,-0.00257457,0.564
 25809,0.01044904,-0.01619107,0.01100348,0.00066285,-0.00000901,-0.0000
 4218,0.03836974,-0.17335785,-0.02314238,0.00608906,-0.02886928,-0.0085
 1386,0.04368894,0.50444510,-0.02492643,0.03847100,-0.01149840,-0.00116
 973,-0.00085597,-0.00047715,0.01449682,-0.03143291,-0.08066860,0.00583
 823,-0.01288244,-0.00045448,0.01050598,-0.00932401,0.58592980,-0.25965
 430,-0.08510409,-0.09036501,-0.02691105,-0.02752506,0.01500516,-0.0238
 4432,0.00151146,-0.02244517,0.00018147,0.00002768,0.00167801,0.0014194
 2,0.00135453,0.00461203,0.60855367,-0.10106126,-0.09420980,-0.00507609
 ,-0.00759950,-0.00424803,0.00218470,0.01145351,0.00388894,-0.00304201,
 -0.00017408,-0.00077292,0.00159530,0.00212648,0.00037503,0.00474500,0.
 27506775,0.47584541,-0.06313905,0.01131427,-0.10781200,-0.01374668,-0.
 01534986,0.01299321,-0.03611020,-0.01107856,-0.02541621,-0.00163477,0.
 00256792,-0.00443068,0.00043161,-0.00052903,0.00270964,0.05744014,-0.2
 7987829,0.58339308,-0.01950682,-0.02275572,0.01494259,-0.25943723,-0.0
 6532349,-0.10751400,-0.00165138,-0.00153287,-0.00095679,-0.00007998,-0
 .00012018,0.00049536,-0.00000806,0.00046243,0.00080793,-0.25603416,-0.
 19420063,0.09502842,0.60192064,-0.01296543,-0.00551730,0.00006107,-0.0
 9314050,-0.08471475,-0.00726990,0.00160320,0.00073534,-0.00350567,0.00
 003103,-0.00007996,0.00077901,0.00030022,-0.00115752,-0.00012512,-0.18
 552143,-0.27599294,0.16198224,0.26379520,0.48291170,-0.00211435,-0.011
 99638,0.01700849,-0.07127525,0.01622912,-0.11592984,-0.00187132,-0.002
 27683,0.00320591,-0.00019135,0.00011212,-0.00037236,0.00023308,0.00059
 748,0.00017704,0.08295789,0.15473846,-0.20174400,0.05580723,-0.3001288
 6,0.59013504,0.00979731,0.00070398,-0.01169836,0.00047060,0.00094285,-
 0.00021906,-0.20168657,-0.00549081,0.12469690,-0.01753148,-0.00176991,
 0.01325096,-0.00978312,-0.00012610,0.00785127,0.00397385,0.00121208,-0
 .00099511,-0.00156597,-0.00301079,0.00141708,0.21772339,-0.00745680,-0
 .00134708,0.01651762,0.00016256,0.00011991,0.00028046,-0.00363651,-0.0
 5130917,0.00266001,-0.01871681,-0.00181401,0.01333618,0.02502726,0.000
 15167,-0.01980742,-0.00167618,-0.00036664,-0.00094240,0.00000666,-0.00
 015385,-0.00134633,0.00851813,0.06001146,0.01215894,0.00910141,-0.0411
 0608,-0.00108836,-0.00041237,0.00012625,0.11823837,0.00201205,-0.14488
 262,-0.00895257,-0.00093364,0.00923797,0.00450509,-0.00087601,-0.00105
 611,0.00680863,0.00256419,0.00305870,-0.00005842,-0.00035858,0.0001639
 6,-0.12936754,-0.00824990,0.17259129,0.00235403,0.00081931,0.00068050,
 0.00013651,0.00010199,-0.00012376,-0.02107041,-0.00322379,0.01728941,-
 0.19038696,-0.01441453,0.13306088,0.00075636,0.00166227,-0.00001201,-0
 .00018623,0.00003176,-0.00033848,0.00007435,-0.00012857,0.00014813,-0.
 00189436,-0.00322308,-0.00242082,0.20769644,0.00208420,0.00068202,0.00
 048662,-0.00000144,0.00005040,-0.00011872,-0.01805990,-0.00350124,0.01
 674061,-0.01375925,-0.04925024,0.01275307,-0.00070961,0.00137634,0.001
 42697,0.00004379,-0.00007406,-0.00001978,-0.00004435,-0.00021714,0.000
 16372,-0.00279425,-0.00231145,-0.00197003,0.01944666,0.05162665,0.0011
 0033,0.00010608,0.00180946,0.00019554,0.00006151,-0.00001072,-0.008910
 91,-0.00142206,0.00643421,0.13498512,0.01446818,-0.17035802,-0.0005452
 5,0.00065533,0.00049436,-0.00043078,-0.00014800,0.00002796,-0.00027204
 ,-0.00006575,-0.00005461,-0.00186342,-0.00142492,0.00004533,-0.1466055
 2,-0.01419129,0.18135069,0.00146557,0.00076310,0.00181674,0.00014713,0
 .00006730,0.00005968,0.01016559,-0.02322639,-0.00371553,-0.09742171,0.
 10609887,0.01616707,-0.00328336,-0.00230106,-0.00197948,-0.00026687,-0
 .00005480,0.00001995,-0.00003343,-0.00004724,0.00002430,0.00123203,0.0
 0059757,0.00053255,-0.00958458,0.02103098,0.00138891,0.10268708,0.0007
 1325,0.00207646,0.00109623,0.00007558,0.00006096,-0.00000591,0.0109351
 6,-0.02066994,-0.00193845,0.10281742,-0.26676384,-0.03294207,-0.004665
 53,-0.00185719,-0.00175840,-0.00033993,0.00021445,-0.00010425,-0.00000
 149,0.00002019,0.00013121,-0.00009124,0.00071443,0.00046134,-0.0017553
 8,0.00370554,0.00037123,-0.11124678,0.29055714,0.00103219,0.00040742,0
 .00096121,0.00020037,0.00007110,0.00002822,0.00481814,-0.00949815,-0.0
 0327737,0.01574706,-0.03148475,-0.05219871,-0.00172092,-0.00101103,-0.
 00054777,-0.00047188,-0.00010266,-0.00018230,-0.00002119,-0.00000515,-
 0.00000557,-0.00008112,0.00066432,0.00016880,0.00830844,-0.02042586,-0
 .00269030,-0.01640038,0.03623126,0.05154274,-0.00529054,-0.00367459,-0
 .00324297,-0.00049086,-0.00013622,-0.00006942,-0.00651242,0.01070291,-
 0.01774179,-0.08733763,0.03115695,-0.09054432,0.00059765,0.00082246,0.
 00012852,0.00124170,0.00035766,-0.00094040,0.00018378,0.00008596,0.000
 02644,0.00013317,0.00056219,0.00073702,0.01114202,-0.00783377,0.020817
 56,-0.00583226,0.00286475,-0.01128879,0.09225324,-0.00493756,-0.002221
 49,-0.00292304,-0.00013793,-0.00010647,-0.00000369,-0.00454247,0.00752
 195,-0.01806283,0.03291211,-0.07510724,0.07520258,0.00031157,0.0003703
 5,0.00015840,0.00001566,0.00060400,-0.00105589,0.00008907,0.00006860,-
 0.00003927,0.00038358,0.00068065,0.00062769,0.00087357,-0.00192967,0.0
 0114924,0.00980282,-0.00727959,0.02585653,-0.03434509,0.07786709,-0.00
 333110,-0.00173434,-0.00042774,-0.00038102,-0.00016934,-0.00010349,-0.
 00057784,0.00526283,-0.00904183,-0.09169628,0.07260881,-0.25100066,0.0
 0038810,0.00069762,0.00007568,0.00077469,0.00024055,0.00013305,0.00005
 858,0.00004099,-0.00003545,-0.00025847,-0.00025994,0.00035218,-0.00927
 250,0.00608993,-0.01717305,0.00270190,-0.00135040,0.00535940,0.1016469
 5,-0.08070240,0.27125750,0.00139768,-0.00087573,-0.00040755,0.00001890
 ,0.00011878,-0.00011959,-0.01277497,0.00024806,0.00968081,0.00082617,-
 0.00108850,-0.00086909,-0.21612886,-0.01704971,0.12874180,-0.00087128,
 -0.00028062,-0.00045387,0.00001009,0.00009091,0.00019403,0.00009918,0.
 00241201,-0.00017399,0.00077336,0.00035244,0.00015712,0.00011607,-0.00
 006503,-0.00031513,0.00000458,0.00015337,-0.00009918,0.23308581,-0.002
 21623,0.00242930,-0.00036366,-0.00012347,0.00000853,-0.00006825,0.0268
 5741,-0.00046836,-0.02143300,0.00134972,0.00196702,-0.00022090,-0.0183
 0056,-0.04767995,0.01387252,-0.00013382,0.00005450,0.00018540,-0.00016
 177,0.00012948,-0.00002610,0.00232324,-0.00559932,-0.00052269,-0.00058
 133,-0.00041029,0.00034156,-0.00014920,0.00024561,0.00029912,-0.000139
 56,0.00001554,-0.00003435,0.01629271,0.05294522,-0.00004700,-0.0000563
 1,0.00185282,0.00008280,0.00007671,0.00005467,0.00416035,0.00049256,-0
 .00517880,0.00002211,0.00050786,0.00009873,0.12866690,0.01172487,-0.14
 509856,-0.00072277,-0.00046104,-0.00041211,-0.00020239,0.00018710,-0.0
 0017871,-0.00005762,-0.00108152,0.00107974,-0.00022073,-0.00055896,0.0
 0008126,-0.00033376,0.00007008,0.00018080,0.00011998,-0.00004915,-0.00
 011043,-0.14278947,-0.01169927,0.15409245,0.00000950,-0.00204859,0.000
 10522,-0.00007666,0.00017396,0.00015719,0.01136613,0.00851051,0.007157
 43,-0.00082293,0.00232546,0.00000006,-0.16888426,-0.11463249,-0.074682
 36,-0.00014835,0.00055228,-0.00009651,-0.00210278,0.00074592,-0.000335
 27,0.00053646,-0.00085298,-0.00008528,0.00016685,0.00031370,-0.0001414
 8,0.00068619,0.00071617,0.00005357,-0.00015885,0.00002169,0.00011890,-
 0.01604713,-0.01470380,-0.01142851,0.18317649,0.00005714,0.00279963,0.
 00071244,-0.00031413,0.00007163,-0.00025519,-0.02269086,-0.01812381,-0
 .01300496,0.00438318,-0.00511750,-0.00028850,-0.11260411,-0.15369274,-
 0.06937289,-0.00068181,-0.00054017,0.00017333,0.00056493,0.00039487,0.
 00048498,0.00011941,0.00095534,0.00023015,0.00016131,0.00020106,0.0000
 9127,-0.00137079,-0.00126633,-0.00069467,0.00007071,0.00028445,-0.0000
 9652,-0.00081882,-0.00164931,-0.00035325,0.12313230,0.16670338,0.00080
 189,0.00002658,0.00059467,0.00013706,0.00027334,-0.00007739,-0.0031778
 1,-0.00134232,-0.00368810,0.00082648,-0.00047311,0.00030693,-0.0736717
 4,-0.07137008,-0.09351444,-0.00086431,0.00041273,-0.00047499,-0.000841
 71,-0.00006351,0.00025621,-0.00011875,0.00000935,-0.00011674,-0.000294
 00,-0.00024273,0.00008346,-0.00036959,-0.00023085,0.00044518,0.0003012
 8,0.00013503,0.00032627,0.01331847,0.01347701,0.00930495,0.08163157,0.
 07816015,0.09729243,-0.00157047,0.00365291,-0.00094575,-0.00032351,-0.
 00006929,-0.00008038,-0.00482112,0.00208084,-0.01223655,-0.00003302,-0
 .00051716,-0.00012368,-0.06990478,0.03063828,-0.06960227,0.00115991,0.
 00055861,0.00048910,0.00012706,-0.00000978,0.00024550,-0.00006586,-0.0
 0055327,0.00022139,0.00005728,-0.00002905,0.00011456,-0.00014741,-0.00
 001776,0.00012321,0.00035162,-0.00026131,0.00003537,0.00933997,-0.0104
 3472,0.02272789,-0.00625606,0.00945812,-0.01816933,0.07222501,0.005782
 10,-0.00728605,0.00213965,0.00048776,0.00026307,0.00024527,0.00529046,
 -0.00659449,0.02705128,-0.00034101,0.00099632,0.00040404,0.03016198,-0
 .08462880,0.08729707,-0.00244458,-0.00123524,-0.00069479,-0.00019027,0
 .00036188,-0.00020840,0.00014357,0.00126371,-0.00051562,0.00005705,-0.
 00009041,-0.00004936,0.00006911,0.00032666,-0.00029815,-0.00035491,-0.
 00069603,-0.00056468,0.00032946,-0.00183532,0.00122353,-0.00478628,0.0
 0888244,-0.01862547,-0.03442411,0.09026907,0.00003556,-0.00144312,0.00
 197613,-0.00024396,-0.00004915,-0.00009029,0.00170918,-0.00241048,0.00
 314228,-0.00015900,-0.00010563,-0.00031315,-0.07024897,0.08962162,-0.2
 5633729,0.00038963,-0.00004244,0.00026574,0.00016523,0.00012671,0.0001
 4979,-0.00024560,0.00071583,0.00040556,-0.00011901,-0.00001658,0.00002
 656,0.00011790,0.00009898,0.00026075,0.00013986,-0.00023467,0.00041451
 ,-0.00670972,0.00632529,-0.01563243,-0.00235939,0.00470209,-0.01058613
 ,0.07750194,-0.09734875,0.27651039,-0.01726547,0.01170255,-0.03457678,
 0.00157897,0.00244686,0.00335119,-0.00169216,-0.00391891,0.00148595,-0
 .00026191,0.00075256,-0.00132840,0.00002638,-0.00016649,-0.00033653,-0
 .05996045,0.01892431,-0.04963116,0.00738075,-0.00956064,0.01367797,-0.
 00007167,0.00009421,-0.00048867,-0.00002929,0.00001658,0.00008454,0.00
 004416,-0.00002651,0.00001574,-0.00036374,-0.00035669,-0.00013653,-0.0
 0004138,0.00000711,0.00001984,0.00004957,0.00014191,0.00010473,-0.0000
 3429,0.00020056,0.00004685,0.07159482,-0.00469384,0.00726348,-0.013159
 49,0.00360099,-0.00203265,-0.00288693,-0.00254897,0.00048698,0.0002526
 7,-0.00018652,0.00017983,-0.00028175,-0.00023574,0.00036065,-0.0004485
 7,0.02147828,-0.10293413,0.11909254,0.00477160,-0.00323048,0.02036918,
 0.00023673,-0.00017333,0.00016725,-0.00000642,0.00001871,-0.00000785,0
 .00000845,-0.00003512,-0.00002533,-0.00009255,-0.00006629,-0.00004999,
 0.00006307,0.00003621,0.00002662,-0.00021095,-0.00000379,-0.00000282,-
 0.00013958,0.00007809,-0.00001516,-0.01538740,0.09772691,-0.01047641,0
 .00289028,-0.01272162,0.00168031,-0.00367085,0.00078149,-0.00043380,-0
 .00155171,0.00388470,-0.00019997,0.00042078,-0.00043588,-0.00012700,0.
 00019077,-0.00039915,-0.05356390,0.11658233,-0.25974370,-0.00739579,0.
 00691606,-0.00920644,0.00024702,0.00002890,0.00005167,-0.00000894,-0.0
 0000598,0.00001374,0.00001611,-0.00003795,-0.00000316,-0.00015063,-0.0
 0013136,-0.00008469,-0.00000244,-0.00000043,0.00002970,-0.00003975,-0.
 00002970,-0.00000918,-0.00011524,0.00013603,-0.00000858,0.06949709,-0.
 12675472,0.27562133,-0.00018695,0.00293083,-0.00103112,-0.01246798,0.0
 1379483,-0.03170191,-0.00132993,-0.00108523,0.00066988,-0.00021197,0.0
 0004775,0.00005229,-0.00069445,0.00014182,-0.00046290,0.01045103,-0.00
 824783,0.01546245,-0.05684164,0.01628869,-0.04083858,-0.00113474,-0.00
 120699,-0.00069803,0.00002128,-0.00004286,-0.00004238,0.00003997,0.000
 08224,0.00002093,0.00000965,-0.00002027,-0.00002400,0.00021518,0.00011
 596,0.00003042,-0.00144191,0.00035325,0.00047379,-0.00015478,0.0000622
 4,-0.00006464,-0.00059334,-0.00539130,-0.00039884,0.06851682,0.0018832
 7,-0.00098482,-0.00194969,-0.00276250,0.00707526,-0.00994090,-0.000223
 01,-0.00055806,0.00018506,0.00037327,-0.00005911,-0.00057782,0.0002520
 5,0.00039819,0.00007238,0.00619391,-0.00217019,0.01766482,0.01800857,-
 0.11882150,0.13432517,-0.00142951,-0.00087231,-0.00139007,0.00019083,0
 .00012861,0.00008530,-0.00003837,-0.00003869,0.00002718,-0.00004658,-0
 .00001085,0.00001685,0.00009524,-0.00019861,-0.00005966,0.00072127,0.0
 0010218,-0.00017572,0.00006800,-0.00006988,0.00009237,-0.00518634,0.00
 261117,0.00387091,-0.01527955,0.11201956,0.00021907,-0.00177932,-0.000
 83684,-0.00802109,0.00472874,-0.01186830,-0.00026053,-0.00047406,-0.00
 142699,-0.00000238,-0.00014752,0.00031102,0.00009332,0.00036593,0.0005
 5098,-0.00341483,0.00613384,-0.00620084,-0.04445143,0.13135783,-0.2636
 4865,-0.00247439,-0.00114586,-0.00023370,-0.00005684,-0.00009460,-0.00
 004968,-0.00002101,-0.00007055,-0.00001838,0.00001087,0.00005349,0.000
 01694,-0.00015606,-0.00015260,-0.00016047,-0.00002514,-0.00046249,-0.0
 0011829,-0.00020183,-0.00013604,-0.00019661,-0.00090574,0.00387642,0.0
 0230819,0.06136292,-0.14122994,0.28015752,0.00071963,0.00014807,0.0015
 0397,-0.04681746,0.01292300,-0.05306777,-0.00006209,0.00035162,-0.0011
 4102,0.00004653,-0.00010739,0.00022280,-0.00001941,-0.00006557,0.00018
 913,0.00089596,0.00133429,-0.00178545,-0.01243522,0.02144326,-0.038105
 52,-0.00023222,-0.00005797,0.00013170,-0.00002663,-0.00001387,-0.00003
 190,-0.00001417,0.00000509,-0.00002025,0.00006888,0.00003788,0.0000524
 4,-0.00002336,-0.00000170,-0.00002804,-0.00005226,0.00003828,-0.000088
 04,0.00005047,-0.00004313,0.00004412,-0.00036097,-0.00126585,0.0014721
 9,-0.00419621,-0.00282058,-0.00169488,0.06245853,-0.00004822,-0.001448
 14,-0.00015654,0.03990054,-0.16217099,0.24060608,-0.00030003,0.0000699
 4,0.00022627,-0.00004269,-0.00000583,0.00005970,0.00009999,-0.00003393
 ,-0.00003562,-0.00226615,0.00156177,-0.00332767,-0.00336768,0.00526336
 ,-0.01112929,0.00012904,0.00004999,0.00006483,-0.00001164,-0.00000483,
 -0.00002048,-0.00000357,-0.00001076,-0.00001116,-0.00000033,0.00000499
 ,0.00000439,0.00002237,0.00000975,0.00000984,0.00002181,-0.00000134,0.
 00003241,-0.00000072,-0.00000501,-0.00001692,0.00031632,-0.00028623,0.
 00114664,-0.00254359,0.00144906,-0.00082329,-0.03190543,0.15555820,0.0
 0263759,0.00048745,0.00023369,-0.08801492,0.21736760,-0.36360735,-0.00
 031571,0.00046282,-0.00092681,-0.00000323,-0.00009239,0.00014841,0.000
 10363,-0.00004851,0.00011443,0.00261246,-0.00044657,0.00383545,-0.0055
 9157,0.01007152,-0.01992081,-0.00008379,0.00004561,0.00011380,-0.00001
 475,-0.00001639,-0.00003063,-0.00002537,-0.00002151,-0.00002355,0.0000
 4983,0.00001934,0.00004183,0.00000386,0.00002034,-0.00000364,-0.000030
 27,0.00000377,-0.00002484,0.00001609,-0.00005559,0.00001277,-0.0008800
 8,-0.00015207,-0.00007842,-0.00281027,-0.00101623,0.00141410,0.0923465
 1,-0.22662918,0.37870158\\-0.00000006,0.00000212,-0.00000034,-0.000000
 24,0.00000063,0.00000108,-0.00000139,-0.00000042,-0.00000075,0.0000006
 6,0.00000033,-0.00000109,0.00000087,-0.00000170,0.00000069,-0.00000092
 ,-0.00000021,0.00000051,-0.00000076,-0.00000061,0.00000093,0.00000093,
 0.00000095,-0.00000002,0.00000019,-0.00000028,-0.00000153,0.00000064,0
 .00000017,-0.00000173,0.00000068,0.00000078,-0.00000173,-0.00000039,-0
 .00000048,0.00000009,0.00000076,-0.00000032,0.00000100,0.00000020,0.00
 000069,-0.00000053,-0.00000051,-0.00000094,0.00000024,-0.00000011,0.00
 000038,0.00000091,-0.00000054,-0.00000109,0.00000227\\\@


 TIME GOES, YOU SAY?  AH NO!
 ALAS, TIME STAYS, WE GO.
    -- A. DOBSON (1840-1921)
 Job cpu time:       0 days  3 hours  5 minutes 35.5 seconds.
 Elapsed time:       0 days  1 hours 32 minutes 48.3 seconds.
 File lengths (MBytes):  RWF=   1392 Int=      0 D2E=      0 Chk=     32 Scr=     32
 Normal termination of Gaussian 16 at Wed Sep 25 18:40:08 2019.
