 Entering Gaussian System, Link 0=g16
 Input=loose/species/CC(C)OC=CO/conformers/CC(C)OC=CO_134.com
 Output=loose/species/CC(C)OC=CO/conformers/CC(C)OC=CO_134.log
 Initial command:
 /shared/centos7/gaussian/g16/l1.exe "/scratch/harms.n/gauss_scrdir/Gau-17405.inp" -scrdir="/scratch/harms.n/gauss_scrdir/"
 Entering Link 1 = /shared/centos7/gaussian/g16/l1.exe PID=     17406.
  
 Copyright (c) 1988,1990,1992,1993,1995,1998,2003,2009,2016,
            Gaussian, Inc.  All Rights Reserved.
  
 This is part of the Gaussian(R) 16 program.  It is based on
 the Gaussian(R) 09 system (copyright 2009, Gaussian, Inc.),
 the Gaussian(R) 03 system (copyright 2003, Gaussian, Inc.),
 the Gaussian(R) 98 system (copyright 1998, Gaussian, Inc.),
 the Gaussian(R) 94 system (copyright 1995, Gaussian, Inc.),
 the Gaussian 92(TM) system (copyright 1992, Gaussian, Inc.),
 the Gaussian 90(TM) system (copyright 1990, Gaussian, Inc.),
 the Gaussian 88(TM) system (copyright 1988, Gaussian, Inc.),
 the Gaussian 86(TM) system (copyright 1986, Carnegie Mellon
 University), and the Gaussian 82(TM) system (copyright 1983,
 Carnegie Mellon University). Gaussian is a federally registered
 trademark of Gaussian, Inc.
  
 This software contains proprietary and confidential information,
 including trade secrets, belonging to Gaussian, Inc.
  
 This software is provided under written license and may be
 used, copied, transmitted, or stored only in accord with that
 written license.
  
 The following legend is applicable only to US Government
 contracts under FAR:
  
                    RESTRICTED RIGHTS LEGEND
  
 Use, reproduction and disclosure by the US Government is
 subject to restrictions as set forth in subparagraphs (a)
 and (c) of the Commercial Computer Software - Restricted
 Rights clause in FAR 52.227-19.
  
 Gaussian, Inc.
 340 Quinnipiac St., Bldg. 40, Wallingford CT 06492
  
  
 ---------------------------------------------------------------
 Warning -- This program may not be used in any manner that
 competes with the business of Gaussian, Inc. or will provide
 assistance to any competitor of Gaussian, Inc.  The licensee
 of this program is prohibited from giving any competitor of
 Gaussian, Inc. access to this program.  By using this program,
 the user acknowledges that Gaussian, Inc. is engaged in the
 business of creating and licensing software in the field of
 computational chemistry and represents and warrants to the
 licensee that it is not a competitor of Gaussian, Inc. and that
 it will not use this program in any manner prohibited above.
 ---------------------------------------------------------------
  

 Cite this work as:
 Gaussian 16, Revision A.03,
 M. J. Frisch, G. W. Trucks, H. B. Schlegel, G. E. Scuseria, 
 M. A. Robb, J. R. Cheeseman, G. Scalmani, V. Barone, 
 G. A. Petersson, H. Nakatsuji, X. Li, M. Caricato, A. V. Marenich, 
 J. Bloino, B. G. Janesko, R. Gomperts, B. Mennucci, H. P. Hratchian, 
 J. V. Ortiz, A. F. Izmaylov, J. L. Sonnenberg, D. Williams-Young, 
 F. Ding, F. Lipparini, F. Egidi, J. Goings, B. Peng, A. Petrone, 
 T. Henderson, D. Ranasinghe, V. G. Zakrzewski, J. Gao, N. Rega, 
 G. Zheng, W. Liang, M. Hada, M. Ehara, K. Toyota, R. Fukuda, 
 J. Hasegawa, M. Ishida, T. Nakajima, Y. Honda, O. Kitao, H. Nakai, 
 T. Vreven, K. Throssell, J. A. Montgomery, Jr., J. E. Peralta, 
 F. Ogliaro, M. J. Bearpark, J. J. Heyd, E. N. Brothers, K. N. Kudin, 
 V. N. Staroverov, T. A. Keith, R. Kobayashi, J. Normand, 
 K. Raghavachari, A. P. Rendell, J. C. Burant, S. S. Iyengar, 
 J. Tomasi, M. Cossi, J. M. Millam, M. Klene, C. Adamo, R. Cammi, 
 J. W. Ochterski, R. L. Martin, K. Morokuma, O. Farkas, 
 J. B. Foresman, and D. J. Fox, Gaussian, Inc., Wallingford CT, 2016.
 
 ******************************************
 Gaussian 16:  EM64L-G16RevA.03 25-Dec-2016
                26-Sep-2019 
 ******************************************
 %nprocshared=20
 Will use up to   20 processors via shared memory.
 %mem=5GB
 ----------------------------------------------------------------------
 #p m062x/cc-pVTZ opt=(calcfc,maxcycles=900,Tight) freq IOP(7/33=1,2/16
 =3) scf=(maxcycle=900)
 ----------------------------------------------------------------------
 1/6=900,7=10,10=4,18=20,19=15,26=3,38=1/1,3;
 2/9=110,12=2,16=3,17=6,18=5,40=1/2;
 3/5=16,6=1,11=2,25=1,30=1,71=2,74=-55,140=1/1,2,3;
 4//1;
 5/5=2,7=900,38=5/2;
 8/6=4,10=90,11=11/1;
 11/6=1,8=1,9=11,15=111,16=1/1,2,10;
 10/6=1,13=1/2;
 6/7=2,8=2,9=2,10=2,28=1/1;
 7/10=1,18=20,25=1,33=1/1,2,3,16;
 1/6=900,7=10,10=4,18=20,19=15,26=3/3(2);
 2/9=110,16=3/2;
 99//99;
 2/9=110,16=3/2;
 3/5=16,6=1,11=2,25=1,30=1,71=1,74=-55/1,2,3;
 4/5=5,16=3,69=1/1;
 5/5=2,7=900,38=5/2;
 7/33=1/1,2,3,16;
 1/6=900,7=10,18=20,19=15,26=3/3(-5);
 2/9=110,16=3/2;
 6/7=2,8=2,9=2,10=2,19=2,28=1/1;
 99/9=1/99;
 Leave Link    1 at Thu Sep 26 04:15:13 2019, MaxMem=   671088640 cpu:               4.2 elap:               2.1
 (Enter /shared/centos7/gaussian/g16/l101.exe)
 ------------------------------
 Gaussian input prepared by ASE
 ------------------------------
 Symbolic Z-matrix:
 Charge =  0 Multiplicity = 1
 O                     0.34262   0.7895    2.31661 
 O                     0.28003  -0.1187   -0.45212 
 C                     0.25063   2.18379   2.11323 
 C                    -0.58769   2.7598    3.25448 
 C                    -0.31495   2.54972   0.78045 
 C                     1.37391   0.16796   1.65026 
 C                     1.34189  -0.27402   0.42646 
 H                     1.29237   2.60383   2.18168 
 H                    -0.9921    1.94774   3.89417 
 H                     0.0102    3.44442   3.88322 
 H                    -1.47627   3.31981   2.85517 
 H                    -1.33591   3.02387   0.87798 
 H                    -0.44965   1.65215   0.14147 
 H                     0.34748   3.27641   0.23031 
 H                     2.23729  -0.07382   2.29047 
 H                     2.15359  -0.87039   0.03671 
 H                     0.45835   0.70156  -0.99725 
 
 ITRead=  0  0  0  0  0  0  0  0  0  0  0  0  0  0  0  0  0
 MicOpt= -1 -1 -1 -1 -1 -1 -1 -1 -1 -1 -1 -1 -1 -1 -1 -1 -1
 NAtoms=     17 NQM=       17 NQMF=       0 NMMI=      0 NMMIF=      0
                NMic=       0 NMicF=      0.
                    Isotopes and Nuclear Properties:
 (Nuclear quadrupole moments (NQMom) in fm**2, nuclear magnetic moments (NMagM)
  in nuclear magnetons)

  Atom         1           2           3           4           5           6           7           8           9          10
 IAtWgt=          16          16          12          12          12          12          12           1           1           1
 AtmWgt=  15.9949146  15.9949146  12.0000000  12.0000000  12.0000000  12.0000000  12.0000000   1.0078250   1.0078250   1.0078250
 NucSpn=           0           0           0           0           0           0           0           1           1           1
 AtZEff=  -0.0000000  -0.0000000  -0.0000000  -0.0000000  -0.0000000  -0.0000000  -0.0000000  -0.0000000  -0.0000000  -0.0000000
 NQMom=    0.0000000   0.0000000   0.0000000   0.0000000   0.0000000   0.0000000   0.0000000   0.0000000   0.0000000   0.0000000
 NMagM=    0.0000000   0.0000000   0.0000000   0.0000000   0.0000000   0.0000000   0.0000000   2.7928460   2.7928460   2.7928460
 AtZNuc=   8.0000000   8.0000000   6.0000000   6.0000000   6.0000000   6.0000000   6.0000000   1.0000000   1.0000000   1.0000000

  Atom        11          12          13          14          15          16          17
 IAtWgt=           1           1           1           1           1           1           1
 AtmWgt=   1.0078250   1.0078250   1.0078250   1.0078250   1.0078250   1.0078250   1.0078250
 NucSpn=           1           1           1           1           1           1           1
 AtZEff=  -0.0000000  -0.0000000  -0.0000000  -0.0000000  -0.0000000  -0.0000000  -0.0000000
 NQMom=    0.0000000   0.0000000   0.0000000   0.0000000   0.0000000   0.0000000   0.0000000
 NMagM=    2.7928460   2.7928460   2.7928460   2.7928460   2.7928460   2.7928460   2.7928460
 AtZNuc=   1.0000000   1.0000000   1.0000000   1.0000000   1.0000000   1.0000000   1.0000000
 Leave Link  101 at Thu Sep 26 04:15:14 2019, MaxMem=   671088640 cpu:               2.2 elap:               1.1
 (Enter /shared/centos7/gaussian/g16/l103.exe)

 GradGradGradGradGradGradGradGradGradGradGradGradGradGradGradGradGradGrad
 Berny optimization.
 Initialization pass.
                           ----------------------------
                           !    Initial Parameters    !
                           ! (Angstroms and Degrees)  !
 --------------------------                            --------------------------
 ! Name  Definition              Value          Derivative Info.                !
 --------------------------------------------------------------------------------
 ! R1    R(1,3)                  1.412          calculate D2E/DX2 analytically  !
 ! R2    R(1,6)                  1.3762         calculate D2E/DX2 analytically  !
 ! R3    R(2,7)                  1.3869         calculate D2E/DX2 analytically  !
 ! R4    R(2,17)                 1.0009         calculate D2E/DX2 analytically  !
 ! R5    R(3,4)                  1.5287         calculate D2E/DX2 analytically  !
 ! R6    R(3,5)                  1.4933         calculate D2E/DX2 analytically  !
 ! R7    R(3,8)                  1.1253         calculate D2E/DX2 analytically  !
 ! R8    R(4,9)                  1.1101         calculate D2E/DX2 analytically  !
 ! R9    R(4,10)                 1.1052         calculate D2E/DX2 analytically  !
 ! R10   R(4,11)                 1.1237         calculate D2E/DX2 analytically  !
 ! R11   R(5,12)                 1.1299         calculate D2E/DX2 analytically  !
 ! R12   R(5,13)                 1.11           calculate D2E/DX2 analytically  !
 ! R13   R(5,14)                 1.1267         calculate D2E/DX2 analytically  !
 ! R14   R(6,7)                  1.3016         calculate D2E/DX2 analytically  !
 ! R15   R(6,15)                 1.1017         calculate D2E/DX2 analytically  !
 ! R16   R(7,16)                 1.08           calculate D2E/DX2 analytically  !
 ! A1    A(3,1,6)              115.1533         calculate D2E/DX2 analytically  !
 ! A2    A(7,2,17)             107.4807         calculate D2E/DX2 analytically  !
 ! A3    A(1,3,4)              107.4727         calculate D2E/DX2 analytically  !
 ! A4    A(1,3,5)              113.2769         calculate D2E/DX2 analytically  !
 ! A5    A(1,3,8)              107.4275         calculate D2E/DX2 analytically  !
 ! A6    A(4,3,5)              111.4845         calculate D2E/DX2 analytically  !
 ! A7    A(4,3,8)              108.7596         calculate D2E/DX2 analytically  !
 ! A8    A(5,3,8)              108.266          calculate D2E/DX2 analytically  !
 ! A9    A(3,4,9)              110.7536         calculate D2E/DX2 analytically  !
 ! A10   A(3,4,10)             111.1885         calculate D2E/DX2 analytically  !
 ! A11   A(3,4,11)             110.8634         calculate D2E/DX2 analytically  !
 ! A12   A(9,4,10)             108.8089         calculate D2E/DX2 analytically  !
 ! A13   A(9,4,11)             106.3366         calculate D2E/DX2 analytically  !
 ! A14   A(10,4,11)            108.7378         calculate D2E/DX2 analytically  !
 ! A15   A(3,5,12)             111.5927         calculate D2E/DX2 analytically  !
 ! A16   A(3,5,13)             111.1976         calculate D2E/DX2 analytically  !
 ! A17   A(3,5,14)             111.7854         calculate D2E/DX2 analytically  !
 ! A18   A(12,5,13)            106.223          calculate D2E/DX2 analytically  !
 ! A19   A(12,5,14)            107.6214         calculate D2E/DX2 analytically  !
 ! A20   A(13,5,14)            108.1673         calculate D2E/DX2 analytically  !
 ! A21   A(1,6,7)              126.1715         calculate D2E/DX2 analytically  !
 ! A22   A(1,6,15)             113.8924         calculate D2E/DX2 analytically  !
 ! A23   A(7,6,15)             119.4158         calculate D2E/DX2 analytically  !
 ! A24   A(2,7,6)              125.2002         calculate D2E/DX2 analytically  !
 ! A25   A(2,7,16)             114.1191         calculate D2E/DX2 analytically  !
 ! A26   A(6,7,16)             120.5537         calculate D2E/DX2 analytically  !
 ! D1    D(6,1,3,4)           -160.7163         calculate D2E/DX2 analytically  !
 ! D2    D(6,1,3,5)             75.683          calculate D2E/DX2 analytically  !
 ! D3    D(6,1,3,8)            -43.8324         calculate D2E/DX2 analytically  !
 ! D4    D(3,1,6,7)            -85.8729         calculate D2E/DX2 analytically  !
 ! D5    D(3,1,6,15)           102.5125         calculate D2E/DX2 analytically  !
 ! D6    D(17,2,7,6)            94.1404         calculate D2E/DX2 analytically  !
 ! D7    D(17,2,7,16)          -89.9569         calculate D2E/DX2 analytically  !
 ! D8    D(1,3,4,9)             -5.3905         calculate D2E/DX2 analytically  !
 ! D9    D(1,3,4,10)           115.719          calculate D2E/DX2 analytically  !
 ! D10   D(1,3,4,11)          -123.1867         calculate D2E/DX2 analytically  !
 ! D11   D(5,3,4,9)            119.2985         calculate D2E/DX2 analytically  !
 ! D12   D(5,3,4,10)          -119.5919         calculate D2E/DX2 analytically  !
 ! D13   D(5,3,4,11)             1.5023         calculate D2E/DX2 analytically  !
 ! D14   D(8,3,4,9)           -121.3994         calculate D2E/DX2 analytically  !
 ! D15   D(8,3,4,10)            -0.2899         calculate D2E/DX2 analytically  !
 ! D16   D(8,3,4,11)           120.8043         calculate D2E/DX2 analytically  !
 ! D17   D(1,3,5,12)           111.668          calculate D2E/DX2 analytically  !
 ! D18   D(1,3,5,13)            -6.741          calculate D2E/DX2 analytically  !
 ! D19   D(1,3,5,14)          -127.7482         calculate D2E/DX2 analytically  !
 ! D20   D(4,3,5,12)            -9.7036         calculate D2E/DX2 analytically  !
 ! D21   D(4,3,5,13)          -128.1125         calculate D2E/DX2 analytically  !
 ! D22   D(4,3,5,14)           110.8803         calculate D2E/DX2 analytically  !
 ! D23   D(8,3,5,12)          -129.2983         calculate D2E/DX2 analytically  !
 ! D24   D(8,3,5,13)           112.2928         calculate D2E/DX2 analytically  !
 ! D25   D(8,3,5,14)            -8.7145         calculate D2E/DX2 analytically  !
 ! D26   D(1,6,7,2)              4.2804         calculate D2E/DX2 analytically  !
 ! D27   D(1,6,7,16)          -171.3766         calculate D2E/DX2 analytically  !
 ! D28   D(15,6,7,2)           175.4756         calculate D2E/DX2 analytically  !
 ! D29   D(15,6,7,16)           -0.1814         calculate D2E/DX2 analytically  !
 --------------------------------------------------------------------------------
 Trust Radius=3.00D-01 FncErr=1.00D-07 GrdErr=1.00D-06 EigMax=2.50D+02 EigMin=1.00D-04
 Number of steps in this run=    102 maximum allowed number of steps=    102.
 GradGradGradGradGradGradGradGradGradGradGradGradGradGradGradGradGradGrad

 Leave Link  103 at Thu Sep 26 04:15:15 2019, MaxMem=   671088640 cpu:               1.4 elap:               0.7
 (Enter /shared/centos7/gaussian/g16/l202.exe)
                          Input orientation:                          
 ---------------------------------------------------------------------
 Center     Atomic      Atomic             Coordinates (Angstroms)
 Number     Number       Type             X           Y           Z
 ---------------------------------------------------------------------
      1          8           0        0.342619    0.789501    2.316612
      2          8           0        0.280034   -0.118703   -0.452125
      3          6           0        0.250628    2.183793    2.113230
      4          6           0       -0.587691    2.759803    3.254478
      5          6           0       -0.314951    2.549716    0.780454
      6          6           0        1.373909    0.167958    1.650264
      7          6           0        1.341894   -0.274016    0.426464
      8          1           0        1.292370    2.603832    2.181680
      9          1           0       -0.992105    1.947736    3.894172
     10          1           0        0.010199    3.444420    3.883218
     11          1           0       -1.476270    3.319814    2.855170
     12          1           0       -1.335906    3.023872    0.877984
     13          1           0       -0.449647    1.652146    0.141471
     14          1           0        0.347484    3.276409    0.230310
     15          1           0        2.237286   -0.073821    2.290467
     16          1           0        2.153589   -0.870394    0.036709
     17          1           0        0.458354    0.701557   -0.997247
 ---------------------------------------------------------------------
                    Distance matrix (angstroms):
                    1          2          3          4          5
     1  O    0.000000
     2  O    2.914559   0.000000
     3  C    1.412047   3.447231   0.000000
     4  C    2.372164   4.772593   1.528729   0.000000
     5  C    2.427042   2.998953   1.493342   2.497862   0.000000
     6  C    1.376189   2.387211   2.353655   3.624782   3.046570
     7  C    2.387945   1.386935   3.174409   4.574388   3.293009
     8  H    2.052324   3.920963   1.125320   2.170220   2.133036
     9  H    2.368901   4.977832   2.184459   1.110050   3.242862
    10  H    3.100540   5.618171   2.186285   1.105209   3.245514
    11  H    3.162417   5.083915   2.196176   1.123668   2.499231
    12  H    3.143169   3.775742   2.179141   2.505450   1.129905
    13  H    2.470441   2.005167   2.158904   3.307079   1.109989
    14  H    3.246134   3.463676   2.179123   3.207339   1.126748
    15  H    2.082252   3.369668   3.012482   4.115731   3.959419
    16  H    3.351540   2.077066   4.154667   5.571982   4.282989
    17  H    3.317045   1.000891   3.451846   4.838156   2.678416
                    6          7          8          9         10
     6  C    0.000000
     7  C    1.301558   0.000000
     8  H    2.494501   3.371239   0.000000
     9  H    3.714937   4.733787   2.929491   0.000000
    10  H    4.192969   5.248745   2.290367   1.801331   0.000000
    11  H    4.416957   5.172647   2.937956   1.787887   1.811629
    12  H    4.011952   4.272067   2.963764   3.220816   3.319682
    13  H    2.793676   2.645930   2.846539   3.803209   4.174251
    14  H    3.568233   3.692269   2.270025   4.121135   3.672291
    15  H    1.101697   2.077573   2.841571   4.133706   4.458115
    16  H    2.071143   1.080011   4.172870   5.719901   6.165011
    17  H    2.851716   1.938902   3.797342   5.251931   5.616322
                   11         12         13         14         15
    11  H    0.000000
    12  H    2.004132   0.000000
    13  H    3.346525   1.791518   0.000000
    14  H    3.196537   1.821280   1.811503   0.000000
    15  H    5.062227   4.935434   3.849254   4.363443   0.000000
    16  H    6.219118   5.296190   3.626433   4.527192   2.391853
    17  H    5.043724   3.482672   1.739185   2.854654   3.817705
                   16         17
    16  H    0.000000
    17  H    2.532571   0.000000
 Stoichiometry    C5H10O2
 Framework group  C1[X(C5H10O2)]
 Deg. of freedom    45
 Full point group                 C1      NOp   1
 Largest Abelian subgroup         C1      NOp   1
 Largest concise Abelian subgroup C1      NOp   1
                         Standard orientation:                         
 ---------------------------------------------------------------------
 Center     Atomic      Atomic             Coordinates (Angstroms)
 Number     Number       Type             X           Y           Z
 ---------------------------------------------------------------------
      1          8           0       -0.259440   -0.875836   -0.395703
      2          8           0        2.099953    0.833435   -0.475128
      3          6           0       -1.138591   -0.036912    0.323448
      4          6           0       -2.542358   -0.249553   -0.243328
      5          6           0       -0.744981    1.403070    0.283541
      6          6           0        0.941779   -1.133256    0.224540
      7          6           0        2.011577   -0.394413    0.163751
      8          1           0       -1.126221   -0.376340    1.396286
      9          1           0       -2.512437   -0.921787   -1.126175
     10          1           0       -3.217242   -0.686858    0.514815
     11          1           0       -2.981190    0.721403   -0.600119
     12          1           0       -1.481145    2.018994   -0.312602
     13          1           0        0.240951    1.536158   -0.208699
     14          1           0       -0.684934    1.848952    1.316568
     15          1           0        0.997527   -2.128583    0.693530
     16          1           0        2.947207   -0.748501    0.570743
     17          1           0        1.928826    1.542156    0.210593
 ---------------------------------------------------------------------
 Rotational constants (GHZ):           5.0097156           1.7420642           1.4116244
 Leave Link  202 at Thu Sep 26 04:15:17 2019, MaxMem=   671088640 cpu:               3.6 elap:               1.8
 (Enter /shared/centos7/gaussian/g16/l301.exe)
 Standard basis: CC-pVTZ (5D, 7F)
 Ernie: Thresh=  0.10000D-02 Tol=  0.10000D-05 Strict=F.
 Ernie:  21 primitive shells out of 262 were deleted.
 There are   395 symmetry adapted cartesian basis functions of A   symmetry.
 There are   350 symmetry adapted basis functions of A   symmetry.
   350 basis functions,   534 primitive gaussians,   395 cartesian basis functions
    28 alpha electrons       28 beta electrons
       nuclear repulsion energy       320.8725933093 Hartrees.
 IExCor= 4336 DFT=T Ex+Corr=M062X ExCW=0 ScaHFX=  0.540000
 ScaDFX=  1.000000  1.000000  1.000000  1.000000 ScalE2=  1.000000  1.000000
 IRadAn=      5 IRanWt=     -1 IRanGd=            0 ICorTp=0 IEmpDi=  4
 NAtoms=   17 NActive=   17 NUniq=   17 SFac= 1.00D+00 NAtFMM=   60 NAOKFM=F Big=F
 Integral buffers will be    131072 words long.
 Raffenetti 2 integral format.
 Two-electron integral symmetry is turned on.
 Leave Link  301 at Thu Sep 26 04:15:17 2019, MaxMem=   671088640 cpu:               1.6 elap:               0.8
 (Enter /shared/centos7/gaussian/g16/l302.exe)
 NPDir=0 NMtPBC=     1 NCelOv=     1 NCel=       1 NClECP=     1 NCelD=      1
         NCelK=      1 NCelE2=     1 NClLst=     1 CellRange=     0.0.
 One-electron integrals computed using PRISM.
 One-electron integral symmetry used in STVInt
 NBasis=   350 RedAO= T EigKep=  2.91D-04  NBF=   350
 NBsUse=   350 1.00D-06 EigRej= -1.00D+00 NBFU=   350
 Precomputing XC quadrature grid using
 IXCGrd= 4 IRadAn=           5 IRanWt=          -1 IRanGd=           0 AccXCQ= 0.00D+00.
 Generated NRdTot=       0 NPtTot=           0 NUsed=           0 NTot=          32
 NSgBfM=   395   395   395   395   395 MxSgAt=    17 MxSgA2=    17.
 Leave Link  302 at Thu Sep 26 04:16:20 2019, MaxMem=   671088640 cpu:             125.5 elap:              62.9
 (Enter /shared/centos7/gaussian/g16/l303.exe)
 DipDrv:  MaxL=1.
 Leave Link  303 at Thu Sep 26 04:16:24 2019, MaxMem=   671088640 cpu:               7.5 elap:               3.8
 (Enter /shared/centos7/gaussian/g16/l401.exe)
 ExpMin= 1.03D-01 ExpMax= 1.53D+04 ExpMxC= 5.22D+02 IAcc=3 IRadAn=         5 AccDes= 0.00D+00
 Harris functional with IExCor= 1009 and IRadAn=       5 diagonalized for initial guess.
 HarFok:  IExCor= 1009 AccDes= 0.00D+00 IRadAn=         5 IDoV= 1 UseB2=F ITyADJ=14
 ICtDFT=  3500011 ScaDFX=  1.000000  1.000000  1.000000  1.000000
 FoFCou: FMM=F IPFlag=           0 FMFlag=      100000 FMFlg1=           0
         NFxFlg=           0 DoJE=T BraDBF=F KetDBF=T FulRan=T
         wScrn=  0.000000 ICntrl=       500 IOpCl=  0 I1Cent=   200000004 NGrid=           0
         NMat0=    1 NMatS0=      1 NMatT0=    0 NMatD0=    1 NMtDS0=    0 NMtDT0=    0
 Petite list used in FoFCou.
 Harris En= -346.792665903142    
 JPrj=0 DoOrth=F DoCkMO=F.
 Leave Link  401 at Thu Sep 26 04:16:53 2019, MaxMem=   671088640 cpu:              57.8 elap:              28.9
 (Enter /shared/centos7/gaussian/g16/l502.exe)
 Integral symmetry usage will be decided dynamically.
 Closed shell SCF:
 Using DIIS extrapolation, IDIIS=  1040.
 NGot=   671088640 LenX=   670765141 LenY=   670608675
 Requested convergence on RMS density matrix=1.00D-08 within 900 cycles.
 Requested convergence on MAX density matrix=1.00D-06.
 Requested convergence on             energy=1.00D-06.
 No special actions if energy rises.
 Fock matrices will be formed incrementally for  20 cycles.
 Integral accuracy reduced to 1.0D-05 until final iterations.

 Cycle   1  Pass 0  IDiag  1:
 FoFJK:  IHMeth= 1 ICntrl=       0 DoSepK=F KAlg= 0 I1Cent=           0 FoldK=F
 IRaf= 960000000 NMat=       1 IRICut=       1 DoRegI=T DoRafI=F ISym2E= 0 IDoP0=0 IntGTp=1.
 FoFCou: FMM=F IPFlag=           0 FMFlag=      100000 FMFlg1=           0
         NFxFlg=           0 DoJE=F BraDBF=F KetDBF=F FulRan=T
         wScrn=  0.000000 ICntrl=         0 IOpCl=  0 I1Cent=           0 NGrid=           0
         NMat0=    1 NMatS0=      1 NMatT0=    0 NMatD0=    1 NMtDS0=    0 NMtDT0=    0
 Symmetry not used in FoFCou.
 E= -346.678176362653    
 DIIS: error= 1.67D-02 at cycle   1 NSaved=   1.
 NSaved= 1 IEnMin= 1 EnMin= -346.678176362653     IErMin= 1 ErrMin= 1.67D-02
 ErrMax= 1.67D-02  0.00D+00 EMaxC= 1.00D-01 BMatC= 2.89D-01 BMatP= 2.89D-01
 IDIUse=3 WtCom= 8.33D-01 WtEn= 1.67D-01
 Coeff-Com:  0.100D+01
 Coeff-En:   0.100D+01
 Coeff:      0.100D+01
 Gap=     0.367 Goal=   None    Shift=    0.000
 GapD=    0.367 DampG=1.000 DampE=0.500 DampFc=0.5000 IDamp=-1.
 Damping current iteration by 5.00D-01
 RMSDP=2.39D-03 MaxDP=1.57D-01              OVMax= 1.46D-01

 Cycle   2  Pass 0  IDiag  1:
 RMSU=  1.19D-03    CP:  1.00D+00
 E= -346.797155111284     Delta-E=       -0.118978748631 Rises=F Damp=T
 DIIS: error= 3.82D-03 at cycle   2 NSaved=   2.
 NSaved= 2 IEnMin= 2 EnMin= -346.797155111284     IErMin= 2 ErrMin= 3.82D-03
 ErrMax= 3.82D-03  0.00D+00 EMaxC= 1.00D-01 BMatC= 2.13D-02 BMatP= 2.89D-01
 IDIUse=3 WtCom= 9.62D-01 WtEn= 3.82D-02
 Coeff-Com: -0.122D+00 0.112D+01
 Coeff-En:   0.000D+00 0.100D+01
 Coeff:     -0.117D+00 0.112D+01
 Gap=     0.377 Goal=   None    Shift=    0.000
 RMSDP=5.35D-04 MaxDP=2.64D-02 DE=-1.19D-01 OVMax= 7.40D-02

 Cycle   3  Pass 0  IDiag  1:
 RMSU=  5.00D-04    CP:  1.01D+00  8.41D-01
 E= -346.905620412679     Delta-E=       -0.108465301396 Rises=F Damp=F
 DIIS: error= 2.44D-03 at cycle   3 NSaved=   3.
 NSaved= 3 IEnMin= 3 EnMin= -346.905620412679     IErMin= 3 ErrMin= 2.44D-03
 ErrMax= 2.44D-03  0.00D+00 EMaxC= 1.00D-01 BMatC= 4.02D-03 BMatP= 2.13D-02
 IDIUse=3 WtCom= 9.76D-01 WtEn= 2.44D-02
 Coeff-Com: -0.837D-01 0.320D+00 0.764D+00
 Coeff-En:   0.000D+00 0.000D+00 0.100D+01
 Coeff:     -0.817D-01 0.312D+00 0.770D+00
 Gap=     0.364 Goal=   None    Shift=    0.000
 RMSDP=1.98D-04 MaxDP=1.34D-02 DE=-1.08D-01 OVMax= 1.26D-02

 Cycle   4  Pass 0  IDiag  1:
 RMSU=  1.21D-04    CP:  1.01D+00  9.59D-01  8.62D-01
 E= -346.907871675889     Delta-E=       -0.002251263209 Rises=F Damp=F
 DIIS: error= 9.95D-04 at cycle   4 NSaved=   4.
 NSaved= 4 IEnMin= 4 EnMin= -346.907871675889     IErMin= 4 ErrMin= 9.95D-04
 ErrMax= 9.95D-04  0.00D+00 EMaxC= 1.00D-01 BMatC= 1.03D-03 BMatP= 4.02D-03
 IDIUse=3 WtCom= 9.90D-01 WtEn= 9.95D-03
 Coeff-Com: -0.286D-01 0.754D-01 0.381D+00 0.572D+00
 Coeff-En:   0.000D+00 0.000D+00 0.148D+00 0.852D+00
 Coeff:     -0.283D-01 0.746D-01 0.379D+00 0.575D+00
 Gap=     0.361 Goal=   None    Shift=    0.000
 RMSDP=7.11D-05 MaxDP=4.66D-03 DE=-2.25D-03 OVMax= 4.82D-03

 Cycle   5  Pass 0  IDiag  1:
 RMSU=  2.91D-05    CP:  1.01D+00  9.31D-01  9.23D-01  6.24D-01
 E= -346.908615341969     Delta-E=       -0.000743666080 Rises=F Damp=F
 DIIS: error= 2.01D-04 at cycle   5 NSaved=   5.
 NSaved= 5 IEnMin= 5 EnMin= -346.908615341969     IErMin= 5 ErrMin= 2.01D-04
 ErrMax= 2.01D-04  0.00D+00 EMaxC= 1.00D-01 BMatC= 2.65D-05 BMatP= 1.03D-03
 IDIUse=3 WtCom= 9.98D-01 WtEn= 2.01D-03
 Coeff-Com: -0.519D-02 0.984D-02 0.957D-01 0.211D+00 0.689D+00
 Coeff-En:   0.000D+00 0.000D+00 0.000D+00 0.000D+00 0.100D+01
 Coeff:     -0.518D-02 0.982D-02 0.955D-01 0.210D+00 0.689D+00
 Gap=     0.360 Goal=   None    Shift=    0.000
 RMSDP=1.00D-05 MaxDP=2.58D-04 DE=-7.44D-04 OVMax= 8.14D-04

 Cycle   6  Pass 0  IDiag  1:
 RMSU=  8.01D-06    CP:  1.01D+00  9.28D-01  9.28D-01  6.50D-01  8.80D-01
 E= -346.908633898560     Delta-E=       -0.000018556591 Rises=F Damp=F
 DIIS: error= 5.39D-05 at cycle   6 NSaved=   6.
 NSaved= 6 IEnMin= 6 EnMin= -346.908633898560     IErMin= 6 ErrMin= 5.39D-05
 ErrMax= 5.39D-05  0.00D+00 EMaxC= 1.00D-01 BMatC= 1.53D-06 BMatP= 2.65D-05
 IDIUse=1 WtCom= 1.00D+00 WtEn= 0.00D+00
 Coeff-Com: -0.393D-04-0.101D-02 0.117D-01 0.459D-01 0.235D+00 0.708D+00
 Coeff:     -0.393D-04-0.101D-02 0.117D-01 0.459D-01 0.235D+00 0.708D+00
 Gap=     0.361 Goal=   None    Shift=    0.000
 RMSDP=3.25D-06 MaxDP=1.64D-04 DE=-1.86D-05 OVMax= 2.70D-04

 Initial convergence to 1.0D-05 achieved.  Increase integral accuracy.
 Cycle   7  Pass 1  IDiag  1:
 E= -346.908620301984     Delta-E=        0.000013596576 Rises=F Damp=F
 DIIS: error= 3.31D-05 at cycle   1 NSaved=   1.
 NSaved= 1 IEnMin= 1 EnMin= -346.908620301984     IErMin= 1 ErrMin= 3.31D-05
 ErrMax= 3.31D-05  0.00D+00 EMaxC= 1.00D-01 BMatC= 6.49D-07 BMatP= 6.49D-07
 IDIUse=1 WtCom= 1.00D+00 WtEn= 0.00D+00
 Coeff-Com:  0.100D+01
 Coeff:      0.100D+01
 Gap=     0.361 Goal=   None    Shift=    0.000
 RMSDP=3.25D-06 MaxDP=1.64D-04 DE= 1.36D-05 OVMax= 1.51D-04

 Cycle   8  Pass 1  IDiag  1:
 RMSU=  6.77D-06    CP:  1.00D+00
 E= -346.908620524721     Delta-E=       -0.000000222737 Rises=F Damp=F
 DIIS: error= 1.35D-05 at cycle   2 NSaved=   2.
 NSaved= 2 IEnMin= 2 EnMin= -346.908620524721     IErMin= 2 ErrMin= 1.35D-05
 ErrMax= 1.35D-05  0.00D+00 EMaxC= 1.00D-01 BMatC= 2.16D-07 BMatP= 6.49D-07
 IDIUse=1 WtCom= 1.00D+00 WtEn= 0.00D+00
 Coeff-Com:  0.321D+00 0.679D+00
 Coeff:      0.321D+00 0.679D+00
 Gap=     0.361 Goal=   None    Shift=    0.000
 RMSDP=1.11D-06 MaxDP=5.26D-05 DE=-2.23D-07 OVMax= 9.46D-05

 Cycle   9  Pass 1  IDiag  1:
 RMSU=  1.11D-06    CP:  1.00D+00  9.87D-01
 E= -346.908620651209     Delta-E=       -0.000000126488 Rises=F Damp=F
 DIIS: error= 6.41D-06 at cycle   3 NSaved=   3.
 NSaved= 3 IEnMin= 3 EnMin= -346.908620651209     IErMin= 3 ErrMin= 6.41D-06
 ErrMax= 6.41D-06  0.00D+00 EMaxC= 1.00D-01 BMatC= 5.18D-08 BMatP= 2.16D-07
 IDIUse=1 WtCom= 1.00D+00 WtEn= 0.00D+00
 Coeff-Com: -0.958D-02 0.323D+00 0.687D+00
 Coeff:     -0.958D-02 0.323D+00 0.687D+00
 Gap=     0.361 Goal=   None    Shift=    0.000
 RMSDP=4.74D-07 MaxDP=1.90D-05 DE=-1.26D-07 OVMax= 3.87D-05

 Cycle  10  Pass 1  IDiag  1:
 RMSU=  2.80D-07    CP:  1.00D+00  1.02D+00  7.11D-01
 E= -346.908620686261     Delta-E=       -0.000000035052 Rises=F Damp=F
 DIIS: error= 1.28D-06 at cycle   4 NSaved=   4.
 NSaved= 4 IEnMin= 4 EnMin= -346.908620686261     IErMin= 4 ErrMin= 1.28D-06
 ErrMax= 1.28D-06  0.00D+00 EMaxC= 1.00D-01 BMatC= 1.45D-09 BMatP= 5.18D-08
 IDIUse=1 WtCom= 1.00D+00 WtEn= 0.00D+00
 Coeff-Com: -0.113D-01 0.130D+00 0.306D+00 0.575D+00
 Coeff:     -0.113D-01 0.130D+00 0.306D+00 0.575D+00
 Gap=     0.361 Goal=   None    Shift=    0.000
 RMSDP=9.12D-08 MaxDP=3.70D-06 DE=-3.51D-08 OVMax= 1.03D-05

 Cycle  11  Pass 1  IDiag  1:
 RMSU=  8.33D-08    CP:  1.00D+00  1.02D+00  7.33D-01  9.05D-01
 E= -346.908620687417     Delta-E=       -0.000000001156 Rises=F Damp=F
 DIIS: error= 3.43D-07 at cycle   5 NSaved=   5.
 NSaved= 5 IEnMin= 5 EnMin= -346.908620687417     IErMin= 5 ErrMin= 3.43D-07
 ErrMax= 3.43D-07  0.00D+00 EMaxC= 1.00D-01 BMatC= 8.39D-11 BMatP= 1.45D-09
 IDIUse=1 WtCom= 1.00D+00 WtEn= 0.00D+00
 Coeff-Com: -0.119D-02-0.140D-01-0.268D-01 0.145D+00 0.897D+00
 Coeff:     -0.119D-02-0.140D-01-0.268D-01 0.145D+00 0.897D+00
 Gap=     0.361 Goal=   None    Shift=    0.000
 RMSDP=4.58D-08 MaxDP=1.62D-06 DE=-1.16D-09 OVMax= 4.54D-06

 Cycle  12  Pass 1  IDiag  1:
 RMSU=  2.14D-08    CP:  1.00D+00  1.02D+00  7.28D-01  1.04D+00  9.59D-01
 E= -346.908620687522     Delta-E=       -0.000000000104 Rises=F Damp=F
 DIIS: error= 1.34D-07 at cycle   6 NSaved=   6.
 NSaved= 6 IEnMin= 6 EnMin= -346.908620687522     IErMin= 6 ErrMin= 1.34D-07
 ErrMax= 1.34D-07  0.00D+00 EMaxC= 1.00D-01 BMatC= 1.14D-11 BMatP= 8.39D-11
 IDIUse=1 WtCom= 1.00D+00 WtEn= 0.00D+00
 Coeff-Com:  0.631D-03-0.179D-01-0.398D-01 0.221D-02 0.355D+00 0.699D+00
 Coeff:      0.631D-03-0.179D-01-0.398D-01 0.221D-02 0.355D+00 0.699D+00
 Gap=     0.361 Goal=   None    Shift=    0.000
 RMSDP=1.13D-08 MaxDP=3.54D-07 DE=-1.04D-10 OVMax= 1.88D-06

 Cycle  13  Pass 1  IDiag  1:
 RMSU=  7.22D-09    CP:  1.00D+00  1.02D+00  7.31D-01  1.06D+00  1.04D+00
                    CP:  9.29D-01
 E= -346.908620687544     Delta-E=       -0.000000000023 Rises=F Damp=F
 DIIS: error= 3.94D-08 at cycle   7 NSaved=   7.
 NSaved= 7 IEnMin= 7 EnMin= -346.908620687544     IErMin= 7 ErrMin= 3.94D-08
 ErrMax= 3.94D-08  0.00D+00 EMaxC= 1.00D-01 BMatC= 1.03D-12 BMatP= 1.14D-11
 IDIUse=1 WtCom= 1.00D+00 WtEn= 0.00D+00
 Coeff-Com:  0.342D-03-0.605D-02-0.138D-01-0.101D-01 0.727D-01 0.277D+00
 Coeff-Com:  0.680D+00
 Coeff:      0.342D-03-0.605D-02-0.138D-01-0.101D-01 0.727D-01 0.277D+00
 Coeff:      0.680D+00
 Gap=     0.361 Goal=   None    Shift=    0.000
 RMSDP=3.17D-09 MaxDP=1.28D-07 DE=-2.27D-11 OVMax= 5.19D-07

 SCF Done:  E(RM062X) =  -346.908620688     A.U. after   13 cycles
            NFock= 13  Conv=0.32D-08     -V/T= 2.0060
 KE= 3.448362251148D+02 PE=-1.451835895421D+03 EE= 4.392184563090D+02
 Leave Link  502 at Thu Sep 26 04:27:07 2019, MaxMem=   671088640 cpu:            1228.6 elap:             614.4
 (Enter /shared/centos7/gaussian/g16/l801.exe)
 DoSCS=F DFT=T ScalE2(SS,OS)=  1.000000  1.000000
 Range of M.O.s used for correlation:     1   350
 NBasis=   350 NAE=    28 NBE=    28 NFC=     0 NFV=     0
 NROrb=    350 NOA=    28 NOB=    28 NVA=   322 NVB=   322

 **** Warning!!: The largest alpha MO coefficient is  0.10431674D+02

 Leave Link  801 at Thu Sep 26 04:27:08 2019, MaxMem=   671088640 cpu:               1.5 elap:               0.8
 (Enter /shared/centos7/gaussian/g16/l1101.exe)
 Using compressed storage, NAtomX=    17.
 Will process     18 centers per pass.
 Leave Link 1101 at Thu Sep 26 04:27:34 2019, MaxMem=   671088640 cpu:              51.7 elap:              25.8
 (Enter /shared/centos7/gaussian/g16/l1102.exe)
 Symmetrizing basis deriv contribution to polar:
 IMax=3 JMax=2 DiffMx= 0.00D+00
 Leave Link 1102 at Thu Sep 26 04:27:37 2019, MaxMem=   671088640 cpu:               5.1 elap:               2.5
 (Enter /shared/centos7/gaussian/g16/l1110.exe)
 Forming Gx(P) for the SCF density, NAtomX=    17.
 Integral derivatives from FoFJK, PRISM(SPDF).
 Do as many integral derivatives as possible in FoFJK.
 G2DrvN: MDV=     671087280.
 G2DrvN: will do    18 centers at a time, making    1 passes.
 Calling FoFCou, ICntrl=  3107 FMM=F I1Cent=   0 AccDes= 0.00D+00.
 FoFJK:  IHMeth= 1 ICntrl=    3107 DoSepK=F KAlg= 0 I1Cent=           0 FoldK=F
 IRaf=         0 NMat=       1 IRICut=       1 DoRegI=T DoRafI=F ISym2E= 0 IDoP0=0 IntGTp=1.
 FoFCou: FMM=F IPFlag=           0 FMFlag=      100000 FMFlg1=           0
         NFxFlg=           0 DoJE=F BraDBF=F KetDBF=F FulRan=T
         wScrn=  0.000000 ICntrl=      3107 IOpCl=  0 I1Cent=           0 NGrid=           0
         NMat0=    1 NMatS0=      1 NMatT0=    0 NMatD0=    1 NMtDS0=    0 NMtDT0=    0
 Symmetry not used in FoFCou.
 End of G2Drv F.D. properties file   721 does not exist.
 End of G2Drv F.D. properties file   722 does not exist.
 End of G2Drv F.D. properties file   788 does not exist.
 Leave Link 1110 at Thu Sep 26 04:45:23 2019, MaxMem=   671088640 cpu:            2132.3 elap:            1066.3
 (Enter /shared/centos7/gaussian/g16/l1002.exe)
 Minotr:  Closed shell wavefunction.
          IDoAtm=11111111111111111
          Direct CPHF calculation.
          Differentiating once with respect to nuclear coordinates.
          Requested convergence is 1.0D-08 RMS, and 1.0D-07 maximum.
          Secondary convergence is 1.0D-12 RMS, and 1.0D-12 maximum.
          NewPWx=T KeepS1=F KeepF1=F KeepIn=T MapXYZ=F SortEE=F KeepMc=T.
         5095 words used for storage of precomputed grid.
 Two-electron integrals replicated using symmetry.
          MDV=     671088640 using IRadAn=       1.
          Solving linear equations simultaneously, MaxMat=     380.
 FoF2E skips out because all densities are zero.
 CalDSu exits because no D1Ps are significant.
 FoFJK:  IHMeth= 1 ICntrl=       0 DoSepK=F KAlg= 0 I1Cent=           0 FoldK=F
 IRaf= 950000000 NMat=      51 IRICut=     127 DoRegI=T DoRafI=T ISym2E= 2 IDoP0=3 IntGTp=3.
 FoFCou: FMM=F IPFlag=           0 FMFlag=      100000 FMFlg1=           0
         NFxFlg=           0 DoJE=F BraDBF=F KetDBF=F FulRan=T
         wScrn=  0.000000 ICntrl=         0 IOpCl=  0 I1Cent=           0 NGrid=           0
         NMat0=   51 NMatS0=     51 NMatT0=    0 NMatD0=   51 NMtDS0=    0 NMtDT0=    0
 Integrals replicated using symmetry in FoFCou.
 Raff kept on since  91.97% of shell-pairs survive, threshold=   0.20 IRatSp=92.
          There are    54 degrees of freedom in the 1st order CPHF.  IDoFFX=6 NUNeed=     0.
     48 vectors produced by pass  0 Test12= 1.67D-14 1.85D-09 XBig12= 7.48D-02 7.28D-02.
 AX will form    48 AO Fock derivatives at one time.
     48 vectors produced by pass  1 Test12= 1.67D-14 1.85D-09 XBig12= 5.57D-03 2.44D-02.
     48 vectors produced by pass  2 Test12= 1.67D-14 1.85D-09 XBig12= 1.51D-04 2.12D-03.
     48 vectors produced by pass  3 Test12= 1.67D-14 1.85D-09 XBig12= 1.56D-06 2.05D-04.
     48 vectors produced by pass  4 Test12= 1.67D-14 1.85D-09 XBig12= 1.12D-08 2.33D-05.
     48 vectors produced by pass  5 Test12= 1.67D-14 1.85D-09 XBig12= 6.16D-11 1.22D-06.
     24 vectors produced by pass  6 Test12= 1.67D-14 1.85D-09 XBig12= 2.64D-13 4.45D-08.
      4 vectors produced by pass  7 Test12= 1.67D-14 1.85D-09 XBig12= 8.71D-16 2.46D-09.
 InvSVY:  IOpt=1 It=  1 EMax= 5.55D-16
 Solved reduced A of dimension   316 with    54 vectors.
 End of Minotr F.D. properties file   721 does not exist.
 End of Minotr F.D. properties file   722 does not exist.
 End of Minotr F.D. properties file   788 does not exist.
 Leave Link 1002 at Thu Sep 26 05:15:26 2019, MaxMem=   671088640 cpu:            3599.8 elap:            1800.1
 (Enter /shared/centos7/gaussian/g16/l601.exe)
 Copying SCF densities to generalized density rwf, IOpCl= 0 IROHF=0.

 **********************************************************************

            Population analysis using the SCF density.

 **********************************************************************

 Orbital symmetries:
       Occupied  (A) (A) (A) (A) (A) (A) (A) (A) (A) (A) (A) (A)
                 (A) (A) (A) (A) (A) (A) (A) (A) (A) (A) (A) (A)
                 (A) (A) (A) (A)
       Virtual   (A) (A) (A) (A) (A) (A) (A) (A) (A) (A) (A) (A)
                 (A) (A) (A) (A) (A) (A) (A) (A) (A) (A) (A) (A)
                 (A) (A) (A) (A) (A) (A) (A) (A) (A) (A) (A) (A)
                 (A) (A) (A) (A) (A) (A) (A) (A) (A) (A) (A) (A)
                 (A) (A) (A) (A) (A) (A) (A) (A) (A) (A) (A) (A)
                 (A) (A) (A) (A) (A) (A) (A) (A) (A) (A) (A) (A)
                 (A) (A) (A) (A) (A) (A) (A) (A) (A) (A) (A) (A)
                 (A) (A) (A) (A) (A) (A) (A) (A) (A) (A) (A) (A)
                 (A) (A) (A) (A) (A) (A) (A) (A) (A) (A) (A) (A)
                 (A) (A) (A) (A) (A) (A) (A) (A) (A) (A) (A) (A)
                 (A) (A) (A) (A) (A) (A) (A) (A) (A) (A) (A) (A)
                 (A) (A) (A) (A) (A) (A) (A) (A) (A) (A) (A) (A)
                 (A) (A) (A) (A) (A) (A) (A) (A) (A) (A) (A) (A)
                 (A) (A) (A) (A) (A) (A) (A) (A) (A) (A) (A) (A)
                 (A) (A) (A) (A) (A) (A) (A) (A) (A) (A) (A) (A)
                 (A) (A) (A) (A) (A) (A) (A) (A) (A) (A) (A) (A)
                 (A) (A) (A) (A) (A) (A) (A) (A) (A) (A) (A) (A)
                 (A) (A) (A) (A) (A) (A) (A) (A) (A) (A) (A) (A)
                 (A) (A) (A) (A) (A) (A) (A) (A) (A) (A) (A) (A)
                 (A) (A) (A) (A) (A) (A) (A) (A) (A) (A) (A) (A)
                 (A) (A) (A) (A) (A) (A) (A) (A) (A) (A) (A) (A)
                 (A) (A) (A) (A) (A) (A) (A) (A) (A) (A) (A) (A)
                 (A) (A) (A) (A) (A) (A) (A) (A) (A) (A) (A) (A)
                 (A) (A) (A) (A) (A) (A) (A) (A) (A) (A) (A) (A)
                 (A) (A) (A) (A) (A) (A) (A) (A) (A) (A) (A) (A)
                 (A) (A) (A) (A) (A) (A) (A) (A) (A) (A) (A) (A)
                 (A) (A) (A) (A) (A) (A) (A) (A) (A) (A)
 The electronic state is 1-A.
 Alpha  occ. eigenvalues --  -19.64594 -19.63568 -10.59584 -10.58720 -10.58561
 Alpha  occ. eigenvalues --  -10.52972 -10.52822  -1.18279  -1.15914  -0.89584
 Alpha  occ. eigenvalues --   -0.84093  -0.77842  -0.69948  -0.64951  -0.60733
 Alpha  occ. eigenvalues --   -0.58797  -0.54347  -0.52703  -0.50266  -0.49095
 Alpha  occ. eigenvalues --   -0.45982  -0.45670  -0.43390  -0.42045  -0.38354
 Alpha  occ. eigenvalues --   -0.37044  -0.34257  -0.31312
 Alpha virt. eigenvalues --    0.04744   0.06695   0.08149   0.09348   0.10097
 Alpha virt. eigenvalues --    0.11482   0.13323   0.13528   0.16424   0.17481
 Alpha virt. eigenvalues --    0.17877   0.18597   0.21947   0.23675   0.25700
 Alpha virt. eigenvalues --    0.27608   0.28977   0.31217   0.32294   0.33299
 Alpha virt. eigenvalues --    0.34478   0.36354   0.37977   0.38239   0.38838
 Alpha virt. eigenvalues --    0.40354   0.42059   0.44154   0.44799   0.46283
 Alpha virt. eigenvalues --    0.47113   0.47976   0.48533   0.49129   0.50360
 Alpha virt. eigenvalues --    0.50700   0.52474   0.52714   0.53526   0.53821
 Alpha virt. eigenvalues --    0.55842   0.56435   0.56998   0.58770   0.60963
 Alpha virt. eigenvalues --    0.63626   0.65266   0.70899   0.71588   0.74176
 Alpha virt. eigenvalues --    0.75594   0.76852   0.79075   0.80450   0.82563
 Alpha virt. eigenvalues --    0.84991   0.86984   0.89068   0.92493   0.92696
 Alpha virt. eigenvalues --    0.95298   0.97694   0.99585   1.00655   1.00783
 Alpha virt. eigenvalues --    1.01541   1.03304   1.03773   1.06474   1.06933
 Alpha virt. eigenvalues --    1.07222   1.08662   1.10160   1.11551   1.13272
 Alpha virt. eigenvalues --    1.13835   1.16256   1.17746   1.20085   1.21087
 Alpha virt. eigenvalues --    1.21530   1.23505   1.24225   1.25533   1.27429
 Alpha virt. eigenvalues --    1.28517   1.29909   1.31124   1.34188   1.35152
 Alpha virt. eigenvalues --    1.36663   1.37697   1.38609   1.39896   1.41291
 Alpha virt. eigenvalues --    1.42756   1.44307   1.45429   1.47966   1.50786
 Alpha virt. eigenvalues --    1.51073   1.53616   1.55759   1.56132   1.58779
 Alpha virt. eigenvalues --    1.59518   1.64104   1.71472   1.73486   1.90847
 Alpha virt. eigenvalues --    1.94962   1.98356   2.02788   2.05373   2.06243
 Alpha virt. eigenvalues --    2.08329   2.10897   2.13466   2.14980   2.18931
 Alpha virt. eigenvalues --    2.20515   2.21978   2.28228   2.30229   2.32227
 Alpha virt. eigenvalues --    2.33882   2.37258   2.39349   2.41725   2.43487
 Alpha virt. eigenvalues --    2.46795   2.50503   2.51312   2.56458   2.58371
 Alpha virt. eigenvalues --    2.59788   2.61881   2.64653   2.65587   2.70635
 Alpha virt. eigenvalues --    2.72908   2.74542   2.76473   2.78057   2.80170
 Alpha virt. eigenvalues --    2.81141   2.81780   2.83723   2.84169   2.85540
 Alpha virt. eigenvalues --    2.87334   2.89345   2.92080   2.92986   2.94339
 Alpha virt. eigenvalues --    2.94947   2.96381   2.98956   3.00064   3.01218
 Alpha virt. eigenvalues --    3.03020   3.03581   3.04868   3.06039   3.06941
 Alpha virt. eigenvalues --    3.08059   3.09642   3.12474   3.13773   3.14612
 Alpha virt. eigenvalues --    3.15261   3.16471   3.19748   3.21010   3.23163
 Alpha virt. eigenvalues --    3.24197   3.27273   3.27864   3.29187   3.29933
 Alpha virt. eigenvalues --    3.30398   3.33855   3.35374   3.36102   3.37576
 Alpha virt. eigenvalues --    3.38418   3.39930   3.40133   3.41745   3.43133
 Alpha virt. eigenvalues --    3.47157   3.48336   3.49781   3.51380   3.52908
 Alpha virt. eigenvalues --    3.56644   3.57563   3.60080   3.61554   3.62931
 Alpha virt. eigenvalues --    3.64846   3.65954   3.66556   3.71491   3.71927
 Alpha virt. eigenvalues --    3.72759   3.75533   3.75717   3.77257   3.78559
 Alpha virt. eigenvalues --    3.79491   3.81362   3.83736   3.84247   3.85821
 Alpha virt. eigenvalues --    3.87368   3.88085   3.91708   3.92483   3.93982
 Alpha virt. eigenvalues --    3.96007   3.98779   4.00541   4.01382   4.03413
 Alpha virt. eigenvalues --    4.03467   4.05560   4.07405   4.09628   4.10210
 Alpha virt. eigenvalues --    4.13895   4.14116   4.17172   4.18945   4.19815
 Alpha virt. eigenvalues --    4.21305   4.22290   4.23090   4.25001   4.28799
 Alpha virt. eigenvalues --    4.30298   4.30949   4.34836   4.36391   4.39626
 Alpha virt. eigenvalues --    4.42170   4.46595   4.48368   4.50405   4.54691
 Alpha virt. eigenvalues --    4.56537   4.58017   4.62763   4.66825   4.67749
 Alpha virt. eigenvalues --    4.68394   4.69836   4.72701   4.76969   4.79231
 Alpha virt. eigenvalues --    4.81355   4.86355   4.88074   4.90564   4.92880
 Alpha virt. eigenvalues --    4.94941   4.96934   4.99519   5.01065   5.04441
 Alpha virt. eigenvalues --    5.04971   5.05364   5.08790   5.13243   5.15317
 Alpha virt. eigenvalues --    5.19535   5.22486   5.24933   5.25623   5.26791
 Alpha virt. eigenvalues --    5.29446   5.31808   5.36832   5.44099   5.49018
 Alpha virt. eigenvalues --    5.51952   5.54176   5.64065   5.65814   5.67936
 Alpha virt. eigenvalues --    5.75123   5.78408   5.78663   5.81130   5.83843
 Alpha virt. eigenvalues --    5.94789   5.99118   6.24819   6.26639   6.29408
 Alpha virt. eigenvalues --    6.36601   6.47575   6.51413   6.66585   6.72205
 Alpha virt. eigenvalues --    6.75215   6.76994   6.81054   6.94117   7.03374
 Alpha virt. eigenvalues --    7.04735   7.12713   7.28345   7.31353   7.39376
 Alpha virt. eigenvalues --    9.96668  10.52143  11.69199  12.24471  13.15610
 Alpha virt. eigenvalues --   13.43267  14.18155
          Condensed to atoms (all electrons):
               1          2          3          4          5          6
     1  O    7.882072   0.004852   0.286580  -0.046221  -0.050046   0.341786
     2  O    0.004852   7.812712   0.004131  -0.000181  -0.034555  -0.087710
     3  C    0.286580   0.004131   4.879673   0.331316   0.266933  -0.046706
     4  C   -0.046221  -0.000181   0.331316   4.976507  -0.063304   0.006206
     5  C   -0.050046  -0.034555   0.266933  -0.063304   5.243469  -0.002494
     6  C    0.341786  -0.087710  -0.046706   0.006206  -0.002494   5.046776
     7  C   -0.067356   0.334901  -0.005484   0.000375   0.005306   0.413697
     8  H   -0.057665  -0.000279   0.409454  -0.043868  -0.082983   0.009488
     9  H    0.005040   0.000002  -0.045406   0.390705   0.004735   0.001367
    10  H    0.002237   0.000003  -0.037043   0.396460   0.006901  -0.000394
    11  H    0.002728  -0.000011  -0.050357   0.407823  -0.009378  -0.000194
    12  H    0.003300   0.000745  -0.035760  -0.017686   0.392540  -0.000021
    13  H    0.002258   0.029827  -0.041958   0.004251   0.357774   0.001006
    14  H    0.004284   0.000033  -0.046081   0.005407   0.384564   0.001151
    15  H   -0.048552   0.003947   0.001856  -0.001015  -0.002204   0.428478
    16  H    0.004681  -0.046285  -0.000019   0.000026  -0.001711  -0.086321
    17  H   -0.000071   0.323786  -0.000856   0.000019   0.015469  -0.003889
               7          8          9         10         11         12
     1  O   -0.067356  -0.057665   0.005040   0.002237   0.002728   0.003300
     2  O    0.334901  -0.000279   0.000002   0.000003  -0.000011   0.000745
     3  C   -0.005484   0.409454  -0.045406  -0.037043  -0.050357  -0.035760
     4  C    0.000375  -0.043868   0.390705   0.396460   0.407823  -0.017686
     5  C    0.005306  -0.082983   0.004735   0.006901  -0.009378   0.392540
     6  C    0.413697   0.009488   0.001367  -0.000394  -0.000194  -0.000021
     7  C    5.075032  -0.009020  -0.000077   0.000022  -0.000003  -0.000377
     8  H   -0.009020   0.663717   0.006812  -0.009655   0.004314   0.007857
     9  H   -0.000077   0.006812   0.562206  -0.025266  -0.030068   0.001658
    10  H    0.000022  -0.009655  -0.025266   0.593144  -0.036022   0.000844
    11  H   -0.000003   0.004314  -0.030068  -0.036022   0.613836  -0.001108
    12  H   -0.000377   0.007857   0.001658   0.000844  -0.001108   0.580424
    13  H   -0.003814   0.009154   0.000024  -0.000386   0.000973  -0.021305
    14  H   -0.001315  -0.008265  -0.000398  -0.000308  -0.000371  -0.025074
    15  H   -0.092202   0.008842   0.000162   0.000097  -0.000014   0.000083
    16  H    0.432892  -0.000006  -0.000003  -0.000002  -0.000004   0.000003
    17  H   -0.038575  -0.000682  -0.000027  -0.000001   0.000026   0.000072
              13         14         15         16         17
     1  O    0.002258   0.004284  -0.048552   0.004681  -0.000071
     2  O    0.029827   0.000033   0.003947  -0.046285   0.323786
     3  C   -0.041958  -0.046081   0.001856  -0.000019  -0.000856
     4  C    0.004251   0.005407  -0.001015   0.000026   0.000019
     5  C    0.357774   0.384564  -0.002204  -0.001711   0.015469
     6  C    0.001006   0.001151   0.428478  -0.086321  -0.003889
     7  C   -0.003814  -0.001315  -0.092202   0.432892  -0.038575
     8  H    0.009154  -0.008265   0.008842  -0.000006  -0.000682
     9  H    0.000024  -0.000398   0.000162  -0.000003  -0.000027
    10  H   -0.000386  -0.000308   0.000097  -0.000002  -0.000001
    11  H    0.000973  -0.000371  -0.000014  -0.000004   0.000026
    12  H   -0.021305  -0.025074   0.000083   0.000003   0.000072
    13  H    0.577354  -0.028748   0.000805   0.002925  -0.021822
    14  H   -0.028748   0.594916   0.000239   0.000065  -0.000486
    15  H    0.000805   0.000239   0.573354  -0.003222  -0.000853
    16  H    0.002925   0.000065  -0.003222   0.563507  -0.004953
    17  H   -0.021822  -0.000486  -0.000853  -0.004953   0.465708
 Mulliken charges:
               1
     1  O   -0.269905
     2  O   -0.345919
     3  C    0.129728
     4  C   -0.346819
     5  C   -0.431016
     6  C   -0.022226
     7  C   -0.044000
     8  H    0.092786
     9  H    0.128535
    10  H    0.109368
    11  H    0.097829
    12  H    0.113806
    13  H    0.131682
    14  H    0.120388
    15  H    0.130200
    16  H    0.138428
    17  H    0.267134
 Sum of Mulliken charges =  -0.00000
 Mulliken charges with hydrogens summed into heavy atoms:
               1
     1  O   -0.269905
     2  O   -0.078785
     3  C    0.222514
     4  C   -0.011087
     5  C   -0.065139
     6  C    0.107974
     7  C    0.094427
 APT charges:
               1
     1  O   -0.195346
     2  O   -0.461261
     3  C   -0.032624
     4  C   -1.263591
     5  C   -1.016175
     6  C   -0.487542
     7  C   -0.390925
     8  H    0.294505
     9  H    0.329265
    10  H    0.460207
    11  H    0.368481
    12  H    0.406648
    13  H    0.205444
    14  H    0.355980
    15  H    0.447524
    16  H    0.560582
    17  H    0.418828
 Sum of APT charges =  -0.00000
 APT charges with hydrogens summed into heavy atoms:
               1
     1  O   -0.195346
     2  O   -0.042433
     3  C    0.261881
     4  C   -0.105638
     5  C   -0.048103
     6  C   -0.040018
     7  C    0.169657
 Electronic spatial extent (au):  <R**2>=            887.9797
 Charge=             -0.0000 electrons
 Dipole moment (field-independent basis, Debye):
    X=             -0.2247    Y=              0.6561    Z=              2.3264  Tot=              2.4276
 Quadrupole moment (field-independent basis, Debye-Ang):
   XX=            -42.5259   YY=            -41.6622   ZZ=            -45.6014
   XY=             -0.6908   XZ=              3.3042   YZ=             -0.0377
 Traceless Quadrupole moment (field-independent basis, Debye-Ang):
   XX=              0.7372   YY=              1.6010   ZZ=             -2.3382
   XY=             -0.6908   XZ=              3.3042   YZ=             -0.0377
 Octapole moment (field-independent basis, Debye-Ang**2):
  XXX=              8.3949  YYY=              2.3486  ZZZ=             -2.8723  XYY=              8.0718
  XXY=             -2.2806  XXZ=              6.8486  XZZ=             -0.5437  YZZ=             -0.1005
  YYZ=              2.8604  XYZ=              3.1947
 Hexadecapole moment (field-independent basis, Debye-Ang**3):
 XXXX=           -796.0393 YYYY=           -276.0290 ZZZZ=            -99.9804 XXXY=              0.5374
 XXXZ=             17.3816 YYYX=             15.5618 YYYZ=             -4.0904 ZZZX=             -4.2216
 ZZZY=              2.4295 XXYY=           -172.4772 XXZZ=           -151.1575 YYZZ=            -63.2886
 XXYZ=              1.7183 YYXZ=              7.4267 ZZXY=              3.6801
 N-N= 3.208725933093D+02 E-N=-1.451835892280D+03  KE= 3.448362251148D+02
  Exact polarizability:   0.000   0.000   0.000   0.000   0.000   0.000
 Approx polarizability:  86.439   4.435  80.415   0.771  -1.979  71.376
 No NMR shielding tensors so no spin-rotation constants.
 Leave Link  601 at Thu Sep 26 05:15:56 2019, MaxMem=   671088640 cpu:              60.6 elap:              30.3
 (Enter /shared/centos7/gaussian/g16/l701.exe)
 SCFChk:  SCF convergence  3.17D-09 required  1.00D-08
 ... and contract with generalized density number  0.
 Compute integral second derivatives.
 Entering OneElI...
 Calculate overlap and kinetic energy integrals
    NBasis = 395  MinDer = 2  MaxDer = 2
 Requested accuracy = 0.1000D-12
 PrmmSu-InSpLW:  IPartL=    0 NPrtUS=   20 NPrtUL=    1 DoSpLW=F IThBeg=    0 IThEnd=   19 NThAct=   20.
 PrsmSu:  NPrtUS=  20 ThrOK=T IAlg=1 NPAlg=1 LenDen=           0 ISkipM=0 DoSpLW=F IThBeg=    0 IThEnd=   19.
 Prism:   IPart=     0 DynPar=F LinDyn=F Incr=           4.
 PRISM was handed    33311441 working-precision words and  8453 shell-pairs
 PRISM was handed    33311441 working-precision words and  8453 shell-pairs
 PRISM was handed    33311441 working-precision words and  8453 shell-pairs
 PRISM was handed    33311441 working-precision words and  8453 shell-pairs
 PRISM was handed    33311441 working-precision words and  8453 shell-pairs
 PRISM was handed    33311441 working-precision words and  8453 shell-pairs
 PRISM was handed    33311441 working-precision words and  8453 shell-pairs
 PRISM was handed    33311441 working-precision words and  8453 shell-pairs
 PRISM was handed    33311441 working-precision words and  8453 shell-pairs
 PRISM was handed    33311441 working-precision words and  8453 shell-pairs
 PRISM was handed    33311441 working-precision words and  8453 shell-pairs
 PRISM was handed    33311441 working-precision words and  8453 shell-pairs
 PRISM was handed    33311441 working-precision words and  8453 shell-pairs
 PRISM was handed    33311441 working-precision words and  8453 shell-pairs
 PRISM was handed    33311441 working-precision words and  8453 shell-pairs
 PRISM was handed    33311441 working-precision words and  8453 shell-pairs
 PRISM was handed    33311441 working-precision words and  8453 shell-pairs
 PRISM was handed    33311441 working-precision words and  8453 shell-pairs
 PRISM was handed    33311441 working-precision words and  8453 shell-pairs
 PRISM was handed    33311441 working-precision words and  8453 shell-pairs
 IPart= 12 NShTot=         408 NBatch=          42 AvBLen=         9.7
 IPart=  0 NShTot=         465 NBatch=          83 AvBLen=         5.6
 IPart= 14 NShTot=         405 NBatch=          41 AvBLen=         9.9
 IPart= 18 NShTot=         396 NBatch=          39 AvBLen=        10.2
 IPart= 10 NShTot=         415 NBatch=          47 AvBLen=         8.8
 IPart=  2 NShTot=         454 NBatch=          74 AvBLen=         6.1
 IPart=  5 NShTot=         439 NBatch=          61 AvBLen=         7.2
 IPart=  1 NShTot=         460 NBatch=          79 AvBLen=         5.8
 IPart=  8 NShTot=         420 NBatch=          50 AvBLen=         8.4
 IPart= 19 NShTot=         394 NBatch=          37 AvBLen=        10.6
 IPart= 13 NShTot=         406 NBatch=          41 AvBLen=         9.9
 IPart=  6 NShTot=         436 NBatch=          60 AvBLen=         7.3
 IPart= 11 NShTot=         413 NBatch=          45 AvBLen=         9.2
 IPart= 17 NShTot=         398 NBatch=          40 AvBLen=         9.9
 IPart=  9 NShTot=         420 NBatch=          50 AvBLen=         8.4
 IPart= 15 NShTot=         402 NBatch=          40 AvBLen=        10.1
 IPart= 16 NShTot=         401 NBatch=          40 AvBLen=        10.0
 IPart=  4 NShTot=         442 NBatch=          64 AvBLen=         6.9
 IPart=  3 NShTot=         451 NBatch=          71 AvBLen=         6.4
 IPart=  7 NShTot=         428 NBatch=          53 AvBLen=         8.1
 PrSmSu:  NxtVal=             81.
 Entering OneElI...
 Calculate potential energy integrals
    NBasis = 395  MinDer = 2  MaxDer = 2
 Requested accuracy = 0.1000D-12
 PrmmSu-InSpLW:  IPartL=    0 NPrtUS=   20 NPrtUL=    1 DoSpLW=F IThBeg=    0 IThEnd=   19 NThAct=   20.
 PrsmSu:  NPrtUS=  20 ThrOK=T IAlg=1 NPAlg=1 LenDen=           0 ISkipM=0 DoSpLW=F IThBeg=    0 IThEnd=   19.
 Prism:   IPart=     0 DynPar=F LinDyn=F Incr=          66.
 PRISM was handed    33354622 working-precision words and  7788 shell-pairs
 PRISM was handed    33354622 working-precision words and  7788 shell-pairs
 PRISM was handed    33354622 working-precision words and  7788 shell-pairs
 PRISM was handed    33354622 working-precision words and  7788 shell-pairs
 PRISM was handed    33354622 working-precision words and  7788 shell-pairs
 PRISM was handed    33354622 working-precision words and  7788 shell-pairs
 PRISM was handed    33354622 working-precision words and  7788 shell-pairs
 PRISM was handed    33354622 working-precision words and  7788 shell-pairs
 PRISM was handed    33354622 working-precision words and  7788 shell-pairs
 PRISM was handed    33354622 working-precision words and  7788 shell-pairs
 PRISM was handed    33354622 working-precision words and  7788 shell-pairs
 PRISM was handed    33354622 working-precision words and  7788 shell-pairs
 PRISM was handed    33354622 working-precision words and  7788 shell-pairs
 PRISM was handed    33354622 working-precision words and  7788 shell-pairs
 PRISM was handed    33354622 working-precision words and  7788 shell-pairs
 PRISM was handed    33354622 working-precision words and  7788 shell-pairs
 PRISM was handed    33354622 working-precision words and  7788 shell-pairs
 PRISM was handed    33354622 working-precision words and  7788 shell-pairs
 PRISM was handed    33354622 working-precision words and  7788 shell-pairs
 PRISM was handed    33354622 working-precision words and  7788 shell-pairs
 IPart= 18 NShTot=        6239 NBatch=         367 AvBLen=        17.0
 IPart=  1 NShTot=        7140 NBatch=         420 AvBLen=        17.0
 IPart=  2 NShTot=        7021 NBatch=         413 AvBLen=        17.0
 IPart= 11 NShTot=        6494 NBatch=         382 AvBLen=        17.0
 IPart= 12 NShTot=        6460 NBatch=         380 AvBLen=        17.0
 IPart= 17 NShTot=        6290 NBatch=         370 AvBLen=        17.0
 IPart= 14 NShTot=        6426 NBatch=         378 AvBLen=        17.0
 IPart=  6 NShTot=        6783 NBatch=         399 AvBLen=        17.0
 IPart= 10 NShTot=        6528 NBatch=         384 AvBLen=        17.0
 IPart=  8 NShTot=        6596 NBatch=         388 AvBLen=        17.0
 IPart=  9 NShTot=        6545 NBatch=         385 AvBLen=        17.0
 IPart= 16 NShTot=        6392 NBatch=         376 AvBLen=        17.0
 IPart=  4 NShTot=        6851 NBatch=         403 AvBLen=        17.0
 IPart= 19 NShTot=        6171 NBatch=         363 AvBLen=        17.0
 IPart=  3 NShTot=        6902 NBatch=         406 AvBLen=        17.0
 IPart=  7 NShTot=        6647 NBatch=         391 AvBLen=        17.0
 IPart= 15 NShTot=        6426 NBatch=         378 AvBLen=        17.0
 IPart=  5 NShTot=        6783 NBatch=         399 AvBLen=        17.0
 IPart= 13 NShTot=        6426 NBatch=         378 AvBLen=        17.0
 IPart=  0 NShTot=        7276 NBatch=         428 AvBLen=        17.0
 PrSmSu:  NxtVal=           1321.
 Polarizability after L701:
                1             2             3 
      1  0.000000D+00
      2  0.000000D+00  0.000000D+00
      3  0.000000D+00  0.000000D+00  0.000000D+00
 Dipole Derivatives after L701:
                 1             2             3             4             5 
      1  -0.228711D+00  0.186855D-01  0.991651D-02 -0.638708D-01 -0.516439D+00
      2   0.187148D+00 -0.233824D+00  0.729969D-01  0.125573D+00 -0.930068D+00
      3   0.774141D-01  0.212875D-01 -0.123504D+00 -0.202994D-01 -0.257434D+00
                 6             7             8             9            10 
      1  -0.759861D+00  0.211507D+00 -0.171317D+00  0.604900D+00 -0.193843D+01
      2  -0.607083D+00  0.170366D+00  0.200040D+00  0.145481D+00 -0.694535D-01
      3  -0.389846D+00  0.214494D+00  0.221773D+00 -0.509420D+00  0.652223D-02
                11            12            13            14            15 
      1  -0.136986D+00 -0.472597D+00 -0.624816D+00  0.576168D+00 -0.102488D+00
      2  -0.896271D+00 -0.846937D-03 -0.177919D+00 -0.150115D+01 -0.222610D-01
      3   0.403964D-01 -0.956078D+00 -0.170812D+00 -0.283511D+00 -0.922564D+00
                16            17            18            19            20 
      1  -0.618948D+00 -0.924317D-01 -0.279638D+00 -0.689808D+00  0.538408D+00
      2   0.266777D-01 -0.637175D+00  0.374534D+00 -0.102919D-01 -0.387669D+00
      3  -0.216982D+00  0.321625D+00 -0.206502D+00 -0.189097D+00  0.301450D+00
                21            22            23            24            25 
      1  -0.318420D+00  0.134064D+00  0.918061D-01 -0.382865D+00  0.152014D+00
      2   0.205425D+00  0.130540D-01  0.181358D+00 -0.122609D+00  0.108789D-01
      3  -0.952967D-01 -0.373622D-01 -0.106432D+00  0.568094D+00  0.159475D-01
                26            27            28            29            30 
      1   0.513222D+00  0.752454D+00  0.879171D+00  0.463983D+00 -0.805895D+00
      2   0.338731D+00  0.335039D+00  0.176069D+00  0.201357D+00 -0.211954D+00
      3   0.290329D+00  0.497050D+00 -0.150330D+00 -0.117231D+00  0.300092D+00
                31            32            33            34            35 
      1   0.525776D+00 -0.934427D+00  0.399526D+00  0.527417D+00 -0.298480D+00
      2  -0.107701D+00  0.419248D+00 -0.111062D+00 -0.525848D+00  0.525253D+00
      3   0.915462D-01 -0.204218D+00  0.160419D+00  0.117321D+00 -0.707216D-01
                36            37            38            39            40 
      1   0.356255D+00  0.275193D+00  0.198271D-01 -0.154405D-01  0.455484D-01
      2  -0.444687D+00  0.548453D+00  0.229095D+00 -0.164678D+00  0.105262D+00
      3   0.167274D+00 -0.516745D-01 -0.330220D-01  0.112044D+00  0.532808D-01
                41            42            43            44            45 
      1  -0.106387D+00 -0.235946D+00  0.205312D+00 -0.343377D+00  0.190277D+00
      2   0.392999D+00  0.592908D+00 -0.352017D-01  0.943498D+00 -0.385658D+00
      3   0.207200D+00  0.629394D+00  0.434934D-01 -0.293359D+00  0.193763D+00
                46            47            48            49            50 
      1   0.123353D+01 -0.404469D+00  0.446922D+00 -0.249535D-01  0.782213D+00
      2  -0.239624D+00  0.271288D+00 -0.130461D+00 -0.197443D+00  0.883284D+00
      3   0.226453D+00 -0.108226D+00  0.176928D+00 -0.991562D-02  0.700941D-01
                51 
      1   0.612902D+00
      2   0.474917D+00
      3   0.398153D+00
 Hessian after L701:
                1             2             3             4             5 
      1  0.549689D+01
      2  0.422551D+01  0.142159D+02
      3 -0.113615D+01 -0.168943D+01  0.158067D+02
      4  0.442246D+00  0.633071D+00 -0.187677D-01  0.135808D+02
      5  0.635434D+00  0.238953D-01 -0.594027D-01 -0.669423D+00  0.509182D+01
      6 -0.417322D-01 -0.740596D-01 -0.459650D+00  0.158329D+01  0.525126D+00
      7 -0.476265D+01 -0.358546D+01 -0.245417D+01  0.348726D+00  0.174164D+00
      8 -0.346006D+01 -0.591326D+01  0.240670D+01  0.138255D+00 -0.161232D+00
      9 -0.231084D+01  0.233978D+01 -0.714590D+01 -0.123887D+00 -0.555840D-01
     10  0.454274D+00 -0.900502D-01  0.963042D-01  0.101389D+00  0.362176D-01
     11 -0.143558D+00 -0.252553D+00  0.236034D-01  0.428307D-01 -0.677176D-01
     12  0.189350D-01  0.317017D-01 -0.228918D+00 -0.237006D-01 -0.578759D-02
     13 -0.249712D+00  0.972825D-01  0.810555D-01  0.223356D+00 -0.147960D+00
     14  0.178012D+00  0.739946D+00 -0.721108D-01  0.724393D-01 -0.154277D+00
     15  0.839717D-01  0.366078D-01 -0.246185D+00 -0.135521D-02  0.102799D-01
     16 -0.188408D+01 -0.207878D+01  0.393649D+01  0.684673D+00  0.481934D+00
     17 -0.232696D+01 -0.946100D+01 -0.719935D+00  0.374127D+00 -0.197598D+00
     18  0.374555D+01 -0.609149D+00 -0.776256D+01 -0.908585D-01  0.320991D+00
     19  0.308596D+00  0.524193D+00 -0.462156D+00 -0.933429D+01  0.110896D+00
     20  0.604279D+00  0.165005D+00  0.200001D+00  0.387718D+00 -0.115693D+01
     21 -0.420519D+00  0.142277D+00 -0.702246D-01 -0.342178D+00 -0.331127D+01
     22  0.857563D-01  0.205658D+00  0.176190D+00  0.188229D-01  0.946627D-02
     23  0.170809D+00  0.794419D-01 -0.312856D+00  0.158317D-01 -0.117102D-01
     24  0.165449D+00 -0.351137D+00  0.225529D+00 -0.450247D-01 -0.113801D-01
     25  0.846975D-01 -0.255058D-01 -0.299379D-01  0.163304D-01  0.919153D-02
     26  0.281632D-01 -0.878332D-01  0.914186D-02  0.190354D-01 -0.340557D-02
     27  0.531019D-01 -0.242324D-02 -0.963671D-01  0.174115D-01  0.467103D-02
     28  0.117389D+00  0.882402D-03 -0.666161D-01  0.195736D-01  0.480793D-02
     29  0.140138D-01 -0.476072D-01 -0.706641D-02  0.989184D-02 -0.482507D-02
     30 -0.726944D-01 -0.203774D-02 -0.132516D-01 -0.114669D-01 -0.216537D-02
     31  0.689439D-01 -0.977941D-01  0.109223D-01  0.240993D-01 -0.212645D-02
     32 -0.103428D+00  0.399103D-01 -0.942192D-02 -0.155198D-01 -0.549700D-02
     33  0.232123D-01 -0.178462D-01 -0.454459D-01  0.707189D-02 -0.150942D-02
     34 -0.390064D-02 -0.941822D-01 -0.429024D-02  0.678878D-01 -0.359371D-01
     35 -0.735578D-01  0.105855D+00  0.102991D-01 -0.425711D-01 -0.685094D-02
     36  0.651063D-02 -0.142988D-01 -0.500829D-01  0.158234D-01 -0.857039D-02
     37 -0.593894D-01  0.727575D-01  0.265435D-01 -0.151360D+00 -0.604408D-01
     38  0.262556D-02  0.773224D-01  0.102915D+00 -0.122099D+00 -0.182435D+00
     39  0.983070D-02  0.584108D-01 -0.632214D-01 -0.173995D+00  0.421444D-01
     40 -0.485224D-01 -0.189967D-01 -0.181377D-01  0.146421D-01 -0.198462D-01
     41 -0.275881D-01  0.755846D-01  0.107456D+00 -0.288270D-01 -0.123515D-01
     42 -0.224762D-01  0.114587D+00  0.465083D-01 -0.519268D-01  0.268400D-01
     43 -0.222682D+00  0.205284D+00 -0.207100D+00 -0.317158D-01  0.407722D-01
     44  0.226996D+00  0.243199D+00  0.488932D-02  0.664682D-01  0.137345D+00
     45 -0.207186D+00  0.420438D-02  0.134264D+00 -0.327985D-01 -0.769023D-01
     46  0.173783D+00 -0.202275D-02  0.714314D-01  0.266125D+00  0.620503D-01
     47 -0.248686D-01 -0.486782D-01 -0.210512D-02  0.344592D-01 -0.216371D+00
     48  0.757158D-01  0.585912D-02 -0.171018D-01  0.231771D-01  0.168800D+00
     49 -0.163965D-02  0.281476D-01 -0.161064D-02 -0.629131D+01 -0.629199D+00
     50  0.741771D-01  0.448917D-01  0.732668D-02 -0.915688D+00 -0.307185D+01
     51  0.293176D-01  0.269514D-01 -0.140617D-01 -0.730818D+00  0.243372D+01
                6             7             8             9            10 
      6  0.118900D+02
      7 -0.163033D+00  0.167755D+02
      8 -0.411263D-01  0.250735D+01  0.186792D+02
      9 -0.177697D+00  0.138479D+01 -0.184163D+01  0.205100D+02
     10 -0.149923D-01 -0.221090D+01  0.606600D+00  0.144192D+01  0.114145D+02
     11 -0.725042D-02  0.575624D+00 -0.587624D+01  0.175940D+00 -0.326357D+00
     12 -0.716199D-01  0.141187D+01  0.184605D+00 -0.541697D+01 -0.913105D+00
     13 -0.334503D-01 -0.612138D+01  0.746270D+00  0.821385D-01  0.145839D+00
     14 -0.686992D-01  0.812432D+00 -0.211655D+01  0.464487D-01  0.936266D-01
     15 -0.165527D+00  0.853011D-01  0.658619D-01 -0.619180D+01  0.461380D-01
     16 -0.195895D+00  0.183452D+00 -0.245034D+00 -0.100804D+00  0.313836D+00
     17  0.267501D+00 -0.164221D+00 -0.503256D-01  0.267204D-01 -0.100187D+00
     18  0.104408D+00 -0.551828D-01  0.150001D-01 -0.792081D-01  0.912794D-01
     19 -0.246217D+00  0.187405D+00 -0.170821D+00 -0.114382D-01  0.112503D+00
     20 -0.341475D+01 -0.823809D-01 -0.121389D+00  0.269037D-01  0.124763D-01
     21 -0.680871D+01 -0.522513D-01  0.691941D-02 -0.130353D+00  0.131815D-01
     22 -0.261050D-01 -0.470429D+01  0.406739D-01 -0.268288D+00 -0.617438D-01
     23 -0.133254D-01  0.124701D-01 -0.453462D+01 -0.671935D+00 -0.135989D-01
     24  0.150124D-01 -0.143323D+00 -0.703952D+00 -0.185882D+01 -0.163624D+00
     25  0.141801D-02  0.437736D-01 -0.621781D-01 -0.102542D+00 -0.402785D+01
     26  0.165735D-03 -0.292171D-01  0.994031D-01 -0.239057D-01 -0.243847D-01
     27 -0.975743D-02 -0.457924D-01 -0.127913D-01  0.520494D-01 -0.579612D-01
     28 -0.869898D-02 -0.556678D-01 -0.247577D-01  0.192965D-02 -0.287913D+01
     29 -0.432122D-02 -0.153455D-01  0.649376D-01 -0.119595D-01  0.584209D+00
     30 -0.907657D-03 -0.195850D-01 -0.203828D-01  0.955561D-01 -0.973294D+00
     31 -0.225263D-02 -0.753013D-01  0.854481D-01 -0.963489D-01 -0.347009D+01
     32  0.258880D-02  0.363481D-01  0.134946D+00  0.194551D-01 -0.864978D+00
     33 -0.101807D-01 -0.675436D-01  0.266571D-01  0.751685D-01  0.359042D+00
     34 -0.645591D-02  0.113540D+00 -0.199273D-01  0.286864D-01 -0.302494D-03
     35  0.345132D-02 -0.807501D-03 -0.115817D+00  0.186281D-01 -0.461651D-01
     36 -0.273100D-01  0.300903D-01 -0.168953D-01  0.998128D-01  0.835274D-02
     37 -0.209967D+00  0.694856D-01 -0.881529D-01  0.426689D-01  0.858677D-01
     38  0.107176D+00 -0.163302D+00 -0.276047D-01  0.858765D-01  0.721246D-01
     39 -0.182392D+00  0.362898D-01  0.546304D-01  0.925651D-01 -0.801664D-02
     40 -0.364567D-01  0.134777D+00  0.145934D-01  0.496473D-02  0.743276D-02
     41  0.246676D-01 -0.140933D-01 -0.123819D+00 -0.902674D-01  0.639451D-01
     42  0.239508D-01 -0.362222D-02 -0.904405D-01  0.124571D+00  0.555855D-01
     43 -0.204896D-01  0.266821D-01 -0.614833D-01  0.237332D-01 -0.327809D-02
     44 -0.797164D-01 -0.897486D-01  0.637518D-01 -0.402992D-01 -0.135544D-01
     45 -0.351114D-02  0.347531D-01 -0.329106D-01 -0.313238D-01  0.641426D-02
     46  0.298794D-01  0.376497D-01 -0.164933D-01  0.125217D-01  0.132211D-01
     47  0.152558D+00 -0.153457D-01 -0.611773D-02 -0.477450D-02 -0.410245D-02
     48  0.818805D-01  0.815338D-02 -0.307913D-02 -0.937125D-02  0.416198D-02
     49 -0.608844D+00  0.923482D-02  0.971195D-02 -0.919818D-02  0.443382D-02
     50  0.262002D+01  0.415268D-01  0.478210D-02  0.592315D-03  0.141777D-01
     51 -0.419797D+01  0.132581D-01  0.283303D-02 -0.823406D-02  0.861639D-02
               11            12            13            14            15 
     11  0.149172D+02
     12 -0.447934D-01  0.146556D+02
     13  0.223130D+00  0.209885D-01  0.144571D+02
     14  0.556383D-01 -0.526716D-02 -0.250047D+00  0.125644D+02
     15  0.587306D-01 -0.752681D-01 -0.212841D+00 -0.382833D+00  0.161157D+02
     16 -0.113639D+00  0.649243D-01 -0.165533D+00 -0.188272D+00 -0.168096D-02
     17 -0.129619D+00 -0.128172D-01 -0.243192D+00  0.277466D+00  0.156955D-01
     18 -0.219917D-01 -0.142437D+00 -0.747951D-02  0.208880D-01 -0.200205D+00
     19 -0.725071D-02  0.553776D-02  0.339975D+00 -0.276370D+00 -0.505743D-01
     20 -0.687490D-01  0.181691D-02 -0.312383D+00 -0.665869D-01  0.481488D-01
     21  0.191282D-02 -0.607967D-01 -0.441855D-01  0.409610D-01 -0.188769D+00
     22 -0.180449D-01 -0.137724D+00  0.263963D+00 -0.138107D+00  0.693290D-01
     23  0.119258D+00 -0.328977D-01 -0.104580D+00 -0.225547D+00  0.251173D+00
     24 -0.426993D-01  0.288517D-01  0.718766D-01  0.334566D+00  0.160726D+00
     25  0.122338D+00  0.148373D+00 -0.976067D-02  0.535670D-01  0.328898D-01
     26 -0.308609D+01  0.118829D+01  0.503427D-01  0.359472D-01  0.554130D-01
     27  0.119667D+01 -0.227437D+01  0.352006D-01  0.533184D-01 -0.148949D-02
     28  0.635097D+00 -0.108760D+01  0.594118D-01  0.926436D-01 -0.169636D-01
     29 -0.346234D+01 -0.614055D+00  0.885644D-01  0.275866D-01 -0.151756D-01
     30 -0.597002D+00 -0.281895D+01 -0.268961D-01 -0.194380D-01 -0.412118D-01
     31 -0.106952D+01  0.430601D+00  0.252339D-01 -0.129511D-01  0.120953D-01
     32 -0.212831D+01 -0.762354D+00 -0.363206D-01 -0.208819D-01 -0.172269D-01
     33 -0.803777D+00 -0.356741D+01  0.205258D-01 -0.609600D-02 -0.962661D-02
     34 -0.502241D-01  0.142699D-01 -0.307649D+01 -0.889940D+00  0.844944D+00
     35 -0.488009D-01  0.189953D-01 -0.973206D+00 -0.316150D+01 -0.882943D+00
     36 -0.156687D-02  0.191642D-01  0.819194D+00 -0.776605D+00 -0.326868D+01
     37  0.726356D-01 -0.894269D-02 -0.212166D+01  0.339674D+00 -0.109446D+01
     38 -0.283635D-02 -0.351148D-02  0.648332D+00 -0.440280D+01 -0.307713D+00
     39 -0.528362D-02 -0.401366D-01 -0.113358D+01 -0.166299D+00 -0.387851D+01
     40  0.611365D-01  0.498385D-01 -0.390872D+01  0.899356D-01  0.205345D+00
     41  0.284159D-01  0.604867D-01  0.142967D+00 -0.345517D+01  0.106945D+01
     42  0.696314D-01  0.144221D-01  0.267548D+00  0.986435D+00 -0.190944D+01
     43 -0.611192D-02  0.294734D-02 -0.646338D-02  0.970976D-02  0.920787D-03
     44  0.531833D-02 -0.358959D-02 -0.636432D-02 -0.122411D-01 -0.269823D-02
     45 -0.633056D-02 -0.927094D-02  0.278280D-02  0.585074D-04 -0.660152D-02
     46 -0.301334D-02  0.999679D-03  0.804956D-02  0.118291D-01 -0.571463D-03
     47 -0.351860D-02  0.182956D-03 -0.471597D-02 -0.109312D-01  0.303391D-03
     48 -0.651699D-03 -0.529196D-02  0.276085D-02  0.255173D-02 -0.656456D-02
     49  0.492718D-02  0.178693D-02  0.136807D+00  0.181760D-02 -0.248521D-02
     50  0.917431D-03 -0.100743D-02  0.818800D-01 -0.744893D-01 -0.307363D-02
     51  0.486043D-02 -0.657676D-02  0.543622D-01  0.121208D-01 -0.865255D-01
               16            17            18            19            20 
     16  0.919622D+01
     17 -0.247570D+01  0.185662D+02
     18 -0.428389D+01  0.337841D+01  0.245171D+02
     19 -0.351664D+01  0.543268D+01  0.641873D+00  0.139752D+02
     20  0.494549D+01 -0.739218D+01 -0.183315D+01 -0.436139D+01  0.129401D+02
     21  0.741897D+00 -0.172994D+01 -0.127799D+02 -0.104809D+01  0.520608D+01
     22  0.117026D+00 -0.101567D-01 -0.647379D-01 -0.746464D-01  0.251418D-01
     23  0.545455D-02 -0.952598D-01 -0.140993D-01  0.238484D-01  0.131234D-01
     24 -0.132143D+00  0.356347D-02 -0.206302D-01  0.467496D-01 -0.151029D-01
     25  0.429541D-01  0.116780D-02  0.260884D-01  0.133226D-01  0.491194D-02
     26  0.132218D-01 -0.199401D-01  0.605602D-02  0.106919D-01 -0.431940D-02
     27  0.430598D-01  0.203077D-02 -0.234783D-02  0.191073D-01  0.634315D-02
     28  0.226397D-01 -0.221502D-02 -0.266401D-02  0.201097D-01  0.537919D-02
     29  0.236198D-02 -0.985094D-02 -0.832445D-03  0.530403D-02 -0.441032D-02
     30 -0.130996D-01  0.188222D-03 -0.669422D-02 -0.916170D-02 -0.294376D-02
     31  0.115832D-01 -0.982076D-02  0.484876D-02  0.153974D-01 -0.177355D-02
     32 -0.185647D-01  0.123359D-02 -0.336711D-02 -0.145287D-01 -0.519535D-02
     33  0.705833D-02 -0.306322D-02 -0.738820D-02  0.702158D-02  0.108318D-03
     34  0.957529D-02 -0.263333D-01  0.538327D-02  0.159940D-01 -0.134083D-01
     35 -0.245760D-01  0.137650D-01 -0.596695D-02 -0.180170D-01 -0.123322D-02
     36  0.845299D-02 -0.102986D-01 -0.104012D-01  0.101812D-01 -0.320308D-02
     37 -0.528938D-01  0.344878D-01  0.671398D-02 -0.249316D-01  0.360454D-01
     38 -0.138193D-01  0.821579D-01 -0.585408D-01 -0.300942D-02 -0.416200D-01
     39  0.128690D-01 -0.589851D-01 -0.296524D-01  0.369130D-01 -0.245922D-01
     40 -0.255113D-02 -0.322202D-01 -0.948746D-02 -0.813085D-03 -0.381807D-02
     41 -0.393823D-01  0.384331D-01  0.171075D-01 -0.137020D-01 -0.858030D-02
     42 -0.198198D-01  0.323671D-01 -0.815374D-02 -0.180374D-01  0.888226D-02
     43 -0.443198D+01 -0.275891D+00  0.126898D+00  0.192779D+00 -0.301649D+00
     44 -0.171440D+00 -0.198866D+01 -0.124879D+01 -0.381738D+00 -0.296465D+00
     45  0.773076D-01 -0.122252D+01 -0.383611D+01  0.136419D+00  0.192763D+00
     46 -0.501112D+00 -0.143977D+00 -0.164229D+00 -0.226683D+01 -0.909869D+00
     47 -0.955064D-01  0.319450D+00 -0.413904D-01 -0.896044D+00 -0.399295D+01
     48 -0.174668D+00 -0.521958D-01  0.265884D+00  0.943615D+00 -0.401130D+00
     49 -0.271593D-01 -0.315769D-01  0.298928D-01  0.368839D-01 -0.347725D-01
     50  0.162576D-01  0.457776D-01  0.788217D-01  0.352613D-01  0.424305D-01
     51  0.299437D-01  0.832763D-01 -0.171312D-02 -0.174903D-02  0.382386D-02
               21            22            23            24            25 
     21  0.237277D+02
     22  0.538261D-01  0.435373D+01
     23 -0.678826D-02 -0.455119D-01  0.460354D+01
     24 -0.131792D-01  0.196510D+00  0.909441D+00  0.132133D+01
     25  0.745483D-02 -0.376856D-02  0.866761D-02  0.565244D-01  0.369432D+01
     26  0.356849D-02  0.115882D-01 -0.226630D-01  0.291294D-01 -0.217896D+00
     27 -0.164447D-02  0.419140D-01  0.142929D-01  0.767011D-01 -0.282806D+00
     28 -0.249631D-02 -0.438607D-01 -0.997004D-02 -0.212708D-01  0.521802D-01
     29 -0.715531D-03 -0.814279D-02  0.202658D-01 -0.120122D-02  0.288335D-01
     30 -0.405740D-02 -0.262707D-01 -0.344353D-02  0.908085D-02  0.101940D+00
     31  0.243661D-02  0.113685D-01 -0.221653D-01  0.438672D-01  0.908271D-01
     32 -0.156613D-02 -0.196877D-01 -0.244837D-02 -0.326385D-01  0.646666D-01
     33 -0.505866D-02  0.297332D-01 -0.227487D-01  0.264655D-01  0.306656D-01
     34  0.560008D-02 -0.292617D-01 -0.217490D-01  0.208371D-01 -0.592579D-02
     35 -0.257997D-02 -0.120073D-01  0.638382D-01 -0.823224D-01  0.144044D-01
     36 -0.744495D-02  0.789431D-02 -0.646378D-01  0.276881D-01  0.242253D-02
     37  0.308117D-01  0.186475D-02  0.508530D-01 -0.554769D-01  0.333939D-02
     38 -0.342291D-01  0.520974D-01  0.307070D-01 -0.700414D-01  0.205647D-02
     39 -0.510686D-02 -0.398494D-01 -0.520702D-01  0.188822D-01 -0.883481D-04
     40 -0.487568D-02  0.188373D-01 -0.114741D-01 -0.185092D-02 -0.829227D-03
     41  0.653105D-02 -0.163043D-01 -0.578384D-01 -0.193274D-02 -0.773375D-03
     42 -0.132350D-02  0.347714D-03  0.277905D-02  0.179085D-01  0.446540D-04
     43  0.108279D+00  0.455514D-01 -0.570559D-01 -0.340774D-01  0.392209D-02
     44  0.192931D+00 -0.751051D-01  0.202081D-01  0.394523D-01 -0.527443D-02
     45  0.256282D+00 -0.168048D-01  0.137314D-01 -0.276092D-01  0.449947D-02
     46  0.954941D+00  0.582713D-02  0.120101D-02 -0.752460D-02  0.272620D-02
     47 -0.399570D+00 -0.209367D-02 -0.170544D-02  0.257360D-02 -0.628347D-03
     48 -0.398802D+01  0.705272D-04  0.224422D-03 -0.296628D-02  0.121134D-02
     49 -0.383705D-02 -0.517198D-02 -0.302995D-02  0.250144D-02 -0.257778D-03
     50 -0.114525D+00  0.535187D-03  0.140870D-02 -0.631771D-02  0.245133D-02
     51  0.806179D-01  0.396533D-02  0.315951D-02 -0.497481D-02  0.184258D-02
               26            27            28            29            30 
     26  0.314414D+01
     27 -0.114172D+01  0.233208D+01
     28  0.242124D-01  0.121553D+00  0.253490D+01
     29  0.104500D+00 -0.442279D-01 -0.684289D+00  0.340594D+01
     30 -0.279021D-01 -0.171689D+00  0.104683D+01  0.503558D+00  0.298504D+01
[...]
   yy         0.831931D+02      0.123279D+02      0.137167D+02
   zx        -0.133684D+01     -0.198099D+00     -0.220415D+00
   zy         0.103739D+02      0.153725D+01      0.171042D+01
   zz         0.645044D+02      0.955856D+01      0.106353D+02

 ----------------------------------------------------------------------

 Test job not archived.
 1\1\GINC-C0222\Freq\RM062X\CC-pVTZ\C5H10O2\HARMS.N\26-Sep-2019\0\\#P G
 eom=AllCheck Guess=TCheck SCRF=Check Test GenChk RM062X/CC-pVTZ Freq\\
 Gaussian input prepared by ASE\\0,1\O,0.294383608,0.9742617785,1.95640
 24352\O,-0.0017349599,-1.0980811154,0.1102465334\C,0.3008660174,2.3837
 650805,2.1758165955\C,-0.7023624383,2.6504089878,3.2768852618\C,-0.035
 1834624,3.121815505,0.8917590282\C,1.3270889526,0.5117005621,1.2042604
 635\C,1.1971176098,-0.4901468399,0.3464415357\H,1.304805869,2.67279428
 83,2.5129169544\H,-1.6936662234,2.3330116145,2.9531021834\H,-0.4386490
 869,2.0959639882,4.1756376705\H,-0.7354143618,3.7134757804,3.512770487
 \H,-1.028429251,2.8278765986,0.5510645085\H,0.6817229006,2.881483633,0
 .1070277312\H,-0.0228389559,4.199407749,1.0548291721\H,2.2980763187,0.
 969812978,1.3601069352\H,2.0671464767,-0.8640509471,-0.1758099926\H,0.
 1188669887,-1.7998758842,-0.530145317\\Version=EM64L-G16RevA.03\State=
 1-A\HF=-346.9414281\RMSD=4.724e-09\RMSF=3.203e-07\ZeroPoint=0.1467832\
 Thermal=0.1556428\Dipole=0.5605154,0.1089855,-0.4731117\DipoleDeriv=-0
 .6838399,0.6036582,0.4735435,0.2655472,-1.1568233,-0.4192979,0.2663337
 ,-0.6460669,-0.791836,-0.7487425,-0.8079287,-0.5192784,-0.2677739,-0.7
 734827,-0.2584227,-0.1233259,-0.1739696,-0.4318687,0.3685716,-0.052330
 8,0.0114618,-0.2133225,1.03067,0.2441738,-0.0417453,0.1402074,0.542619
 ,0.009376,0.0433685,0.0681431,0.0252168,0.0311962,-0.0029637,0.0741931
 ,-0.0241462,-0.035419,0.0364198,0.0197408,-0.0075155,0.0640423,-0.0596
 955,0.0035083,-0.0086875,0.1179179,-0.1198663,0.4886164,-0.6182111,-0.
 5062457,-0.1757572,0.1575676,0.2982613,-0.3487145,0.5672229,0.3443414,
 0.5719698,0.828028,0.4351935,0.3586921,0.372173,0.3218659,0.1443863,0.
 2622491,0.0535262,-0.1778356,-0.0652631,-0.0698658,0.0294183,-0.049840
 5,-0.0218463,-0.0361094,-0.0086023,-0.0346426,-0.0748548,-0.0225735,-0
 .0111972,-0.0574335,0.0596876,-0.0097158,-0.0732995,-0.0277417,0.02492
 27,0.0402584,0.0305291,-0.0305965,0.0150016,0.0348162,0.097338,-0.0059
 618,0.0616873,-0.0779512,0.0526119,-0.0034543,0.017662,0.0194038,-0.12
 49449,-0.0595652,0.0198331,-0.0235465,0.0475389,-0.0761846,-0.0171286,
 -0.0597031,-0.0677973,0.0493526,-0.0108183,-0.0178403,0.0087942,0.0335
 406,-0.0194619,0.0251737,0.0845489,0.0299868,0.0805547,-0.0263365,0.06
 56123,-0.0153711,-0.0629033,0.0674851,0.005323,-0.0087024,0.0142922,-0
 .1402266,-0.0234194,-0.0162914,-0.0430336,0.0643114,-0.0655848,-0.0092
 276,0.0246626,-0.0888825,0.0903787,-0.0366108,0.0027023,-0.1114327,0.0
 49495,-0.0596226,-0.0145052,0.0389368,0.0157018,0.0506391,-0.0850717,0
 .0515961,-0.0758337,0.0830231,0.2708179,0.0548019,0.0589525,0.0336642,
 0.347978,-0.0110791,0.0473187,-0.0083345,0.3111689\Polar=62.164642,-3.
 1488276,78.5372985,-3.2356325,15.4053105,68.1932568\Quadrupole=-1.7701
 807,2.1209596,-0.3507789,-1.6269715,-1.0675801,5.353744\PG=C01 [X(C5H1
 0O2)]\NImag=0\\0.33188648,-0.05951548,0.42277576,-0.16372994,0.1154723
 2,0.21062014,0.01487047,-0.00639497,-0.01289064,0.36742266,0.00743882,
 -0.00442132,0.00143486,0.08372696,0.42198855,0.00035963,0.00543141,-0.
 00249137,-0.01299891,0.33333351,0.30822613,-0.08339513,-0.03220322,0.0
 0530658,0.00100787,0.00048138,-0.00104979,0.61245965,-0.00993885,-0.20
 547429,-0.02252393,0.00605704,0.00332681,0.00131619,0.02029493,0.46224
 307,0.00963478,-0.00608462,-0.06620326,0.00298020,0.00154941,0.0002596
 7,0.00697063,0.00750643,0.52284583,0.00022229,0.00401323,0.00263805,-0
 .00021807,0.00007253,0.00007496,-0.14567261,0.01454404,0.06629965,0.53
 870762,0.03408120,-0.02483971,-0.03524139,-0.00071910,-0.00028942,-0.0
 0002372,0.00340750,-0.07434341,-0.00438039,0.00771510,0.59309560,0.008
 12837,-0.00927669,-0.00686543,0.00017430,0.00015008,0.00009420,0.06224
 788,-0.01408942,-0.14869617,0.04467973,-0.01320958,0.54368578,0.003858
 87,0.00176726,0.00103744,-0.00064071,0.00002144,-0.00011127,-0.0923335
 0,0.01431428,-0.02787566,0.00575342,-0.01185221,0.02142597,0.57563277,
 0.01276452,-0.04554045,0.02812643,-0.00125911,-0.00054124,-0.00013975,
 0.01163619,-0.09197913,0.03957395,-0.00342527,0.00594618,-0.00190442,0
 .01177799,0.56541188,0.00300932,-0.00230878,0.00722838,0.00007997,-0.0
 0005992,0.00024161,-0.02577470,0.04811548,-0.17534275,-0.00361744,0.01
 263074,-0.02892428,-0.02336686,0.04415962,0.51426880,-0.22593651,0.056
 19857,0.11440716,-0.02592440,-0.05256280,-0.03483216,-0.00689539,0.021
 22878,0.00526559,-0.00068343,-0.00280275,-0.00077359,0.00012550,-0.003
 51773,-0.00175712,0.62212717,0.02871020,-0.11229296,-0.04694620,-0.014
 78072,-0.01385535,-0.02132458,0.03636046,-0.02697265,-0.02895729,-0.00
 015221,-0.00587774,-0.00016440,0.00022918,-0.00111040,0.00058572,0.108
 85239,0.61332457,0.11015535,-0.06604167,-0.12876826,-0.00097010,-0.009
 24646,0.00306826,0.00870713,-0.01965254,-0.01696820,0.00044266,-0.0021
 7420,-0.00004084,-0.00094954,0.00546164,0.00335864,-0.04467954,0.38190
 812,0.46243447,-0.01386106,0.04336383,0.04463933,-0.28194552,-0.114720
 99,-0.03847241,-0.00538892,-0.00953110,-0.00063323,0.00078005,0.002906
 69,0.00016586,0.00109394,0.00189477,-0.00001398,-0.09566978,-0.0481169
 5,-0.03439292,0.63245009,0.00414881,-0.00576798,-0.01792422,-0.0792656
 9,-0.12307940,-0.05838146,-0.00020055,-0.00012293,-0.00078760,0.000059
 52,0.00005612,0.00017626,0.00006046,0.00063056,-0.00028454,-0.02718803
 ,-0.35377605,-0.25472966,0.06039290,0.59326027,0.01375869,-0.03094709,
 -0.02094549,-0.00689305,-0.05076154,-0.07393974,0.00156466,0.00577037,
 0.00099724,-0.00012052,-0.00067351,0.00015201,0.00037507,-0.00035414,-
 0.00072817,-0.01725679,-0.24589791,-0.26578432,-0.07316938,0.40372070,
 0.48302918,0.00141891,-0.00652380,-0.00015543,-0.00003237,-0.00006640,
 0.00030550,-0.25774711,-0.05215179,-0.06894772,-0.02041807,-0.00446916
 ,-0.00558703,-0.00673614,-0.00125395,-0.00236253,0.00187864,0.00225109
 ,0.00189967,0.00057711,-0.00007986,-0.00046391,0.27922618,-0.02952456,
 -0.03381052,-0.01714004,-0.00012913,0.00002411,-0.00012551,-0.04719389
 ,-0.05927685,-0.01656828,0.00579721,0.00307150,0.00259731,0.01515094,0
 .00581085,0.00586375,-0.00758884,0.00226999,0.00363644,0.00098288,-0.0
 0025849,-0.00039443,0.06050925,0.08151602,-0.00240245,-0.00768440,-0.0
 0041522,0.00009502,0.00009680,0.00010837,-0.06824423,-0.01650540,-0.07
 507294,0.02424492,0.00631369,0.00700692,-0.02796056,-0.00489535,-0.010
 46886,-0.00304855,-0.00020614,0.00082775,0.00040115,-0.00002669,-0.000
 25698,0.07441418,0.02121524,0.08244217,0.00191458,-0.00028102,-0.00064
 223,0.00020895,0.00011047,0.00004921,-0.02502811,-0.00783124,-0.006932
 32,-0.26738551,-0.07126926,-0.07473363,0.00108341,0.00033375,-0.001320
 58,0.00019004,0.00021499,0.00008342,-0.00010317,-0.00006910,-0.0000667
 0,-0.00156660,0.00128278,0.00393839,0.29281113,-0.00019270,0.00125894,
 0.00070529,0.00001495,0.00000915,0.00003764,0.00603189,0.00047375,0.00
 137742,-0.07259487,-0.07013394,-0.02338733,-0.00030940,-0.00033552,0.0
 0017666,0.00050908,-0.00016368,-0.00013604,-0.00013100,0.00002603,0.00
 006741,0.00093830,0.00043534,-0.00083810,0.07891594,0.07089418,-0.0017
 1504,0.00139621,0.00109334,-0.00000354,0.00000679,-0.00004860,0.024816
 88,0.00820409,0.00684926,-0.07676526,-0.02425545,-0.07316829,0.0008114
 2,0.00015975,0.00203195,0.00042063,0.00006356,-0.00012837,-0.00019581,
 -0.00003294,0.00006189,0.00338472,-0.00121187,-0.00321482,0.07935110,0
 .02632072,0.07743636,0.00083058,-0.00096708,-0.00178711,-0.00009242,-0
 .00006057,-0.00001417,0.00585704,-0.01334130,0.02073249,-0.06556012,0.
 03614874,-0.05842506,-0.00300452,0.00172258,0.00287197,-0.00017109,-0.
 00009028,-0.00005323,0.00015370,-0.00000659,-0.00004767,0.00100396,-0.
 00057810,-0.00078723,-0.00628071,0.01625442,-0.02355407,0.06817978,-0.
 00049170,0.00104048,0.00009447,0.00013216,0.00006173,0.00005121,-0.001
 73550,0.00140006,-0.00608216,0.03482201,-0.11875612,0.11621986,0.00035
 254,-0.00001464,-0.00083397,0.00020068,0.00007163,-0.00018388,-0.00021
 559,0.00000254,-0.00000447,-0.00039892,-0.00000002,0.00037570,-0.00205
 191,0.00513834,-0.00923780,-0.03866029,0.12432945,-0.00107565,0.000299
 84,0.00238563,0.00006953,-0.00001407,0.00005284,-0.00759585,0.01340883
 ,-0.02104119,-0.05627992,0.11375057,-0.23129034,0.00461395,-0.00210048
 ,-0.00255452,0.00036233,-0.00031479,0.00009789,-0.00016350,0.00006570,
 0.00014065,0.00010128,-0.00014483,0.00107236,-0.00163115,0.00439191,-0
 .00741447,0.05941062,-0.12623917,0.25148641,-0.00408994,0.00232349,0.0
 0458985,0.00027862,0.00010301,0.00002289,0.00112728,0.02137483,0.00113
 864,-0.04738215,0.00540426,0.00236436,0.00046670,-0.00002436,-0.000589
 92,0.00127277,0.00104989,0.00043857,-0.00078698,-0.00000037,0.00015262
 ,0.00021013,-0.00030524,-0.00101592,0.00286026,-0.02913359,-0.00559183
 ,-0.00152023,0.00770093,0.00247249,0.04760292,0.00218249,0.00036489,-0
 .00155781,-0.00021942,-0.00011577,-0.00009161,-0.00182132,-0.00588780,
 0.00131678,0.00743293,-0.30596006,-0.05758856,-0.00037215,-0.00021090,
 0.00051305,-0.00091934,0.00036242,0.00026516,0.00041829,0.00000118,-0.
 00010104,0.00049491,0.00024562,-0.00014730,0.00078152,-0.00761145,-0.0
 0106894,-0.00015849,-0.01400656,-0.00415174,-0.00813117,0.33196971,0.0
 0506477,-0.00229287,-0.00386135,-0.00025608,-0.00015627,-0.00001383,-0
 .00438083,-0.02212715,-0.00323610,0.00260897,-0.05493920,-0.06018156,-
 0.00055224,-0.00012049,0.00063550,-0.00067641,-0.00107027,0.00016010,0
 .00067986,0.00003618,-0.00014074,0.00000124,0.00043779,0.00077809,0.00
 111383,-0.00903744,-0.00320936,0.00004786,0.02608817,0.00779831,-0.004
 07485,0.06263776,0.06190312,0.00108581,0.00059290,0.00131548,0.0004846
 3,0.00014154,0.00017530,-0.00929092,-0.00265731,-0.00366403,0.00102113
 ,0.00012555,0.00092857,-0.27122158,-0.06735924,-0.07414062,-0.00027894
 ,0.00017813,-0.00011268,-0.00052391,-0.00015536,-0.00024865,0.00103447
 ,0.00097345,-0.00117713,0.00056787,-0.00019863,-0.00040966,0.00019644,
 0.00013060,0.00012158,-0.00000686,0.00013450,-0.00002598,0.29323291,-0
 .00070758,0.00217342,-0.00075072,-0.00017251,0.00002940,-0.00004240,0.
 01616978,0.00330613,0.00647288,0.00043524,0.00013623,-0.00088852,-0.06
 830940,-0.06705080,-0.02381021,0.00040855,-0.00015805,-0.00050952,0.00
 010357,0.00008209,0.00010564,0.00090309,-0.00106902,0.00310411,-0.0003
 4964,0.00017532,-0.00018196,0.00011849,-0.00007738,-0.00012770,-0.0001
 5554,-0.00000642,-0.00004681,0.07373249,0.06781005,0.00209661,-0.00108
 378,0.00221913,-0.00022376,-0.00009431,-0.00008385,-0.02907788,-0.0092
 5514,-0.01172705,-0.00133032,-0.00073498,0.00159202,-0.07274375,-0.022
 23130,-0.07115403,-0.00009935,0.00011736,-0.00002993,0.00014988,0.0000
 6475,-0.00000193,-0.00088835,0.00339354,-0.00446998,0.00086507,0.00028
 970,-0.00036311,0.00036645,0.00009751,0.00039829,0.00002676,-0.0000227
 8,-0.00006706,0.08317196,0.02279475,0.07832688,-0.00003863,-0.00115766
 ,0.00060496,-0.00005458,-0.00017231,0.00000895,0.00572749,-0.00274763,
 -0.00686138,0.00031106,0.00090701,-0.00095465,-0.16730278,0.03985208,0
 .12826678,0.00003256,0.00105939,0.00003213,-0.00023387,0.00009818,-0.0
 0035093,0.00065416,-0.00069373,0.00052274,0.00041104,0.00020159,-0.000
 29304,0.00056465,0.00021758,-0.00027778,-0.00017444,0.00011910,-0.0000
 1554,-0.01809209,0.00754387,0.02113930,0.17802549,-0.00006273,0.001381
 61,-0.00135578,0.00030789,0.00031786,0.00011209,-0.01261096,0.00293608
 ,0.01197959,0.00118250,-0.00179811,0.00250128,0.04064320,-0.06035444,-
 0.04449514,0.00010547,-0.00061736,0.00081325,-0.00015435,-0.00068283,-
 0.00044400,0.00009113,0.00026167,-0.00090651,0.00025968,-0.00003913,-0
 .00015159,-0.00046149,0.00046273,0.00093324,-0.00002631,0.00033033,0.0
 0018757,-0.00606002,0.00144684,0.00747818,-0.04505870,0.06213626,-0.00
 056265,-0.00120824,0.00189659,-0.00055129,-0.00028690,-0.00029703,0.02
 082504,-0.00821566,-0.02096528,-0.00303913,0.00377599,-0.00400318,0.12
 704558,-0.04252008,-0.18421842,0.00043524,-0.00007903,0.00006057,0.000
 22757,0.00044477,0.00064026,-0.00027163,-0.00038810,0.00100602,0.00000
 093,0.00007061,0.00012412,0.00140199,-0.00018303,-0.00127036,-0.000227
 82,-0.00003094,0.00029997,-0.00705841,0.00312635,0.00799950,-0.1396246
 9,0.04591669,0.20189056,0.00054589,0.00208255,-0.00111693,0.00026693,0
 .00005788,0.00011232,-0.00172520,0.00684824,0.00277103,-0.00002483,-0.
 00013595,0.00023128,-0.04659222,-0.00363827,-0.00142868,0.00046452,0.0
 0016876,-0.00039624,-0.00035263,-0.00024570,-0.00021737,-0.00012928,-0
 .00036370,0.00035443,0.00001870,-0.00012943,-0.00004369,-0.00015636,0.
 00005685,-0.00002322,0.00021487,-0.00009046,0.00032706,0.00160855,-0.0
 2951129,-0.00353402,0.00034094,0.02166825,0.00173411,0.04545114,0.0024
 6540,-0.00296874,0.00313725,-0.00036835,-0.00028484,-0.00007754,-0.001
 65659,-0.01395238,-0.00660916,-0.00005570,0.00007213,-0.00096600,-0.00
 335721,-0.31056805,-0.04040120,-0.00164512,0.00083070,0.00123168,0.000
 45614,0.00016501,-0.00016488,0.00049810,0.00048068,0.00026991,0.000096
 94,-0.00001494,0.00007990,0.00012142,0.00035856,0.00011183,-0.00019619
 ,0.00060397,0.00042744,0.00052733,-0.00683517,-0.00080664,-0.00026173,
 -0.00558425,-0.00063646,0.00320825,0.33768460,-0.00242207,0.00723453,-
 0.00420577,0.00029990,0.00017625,-0.00003389,0.00248207,0.02507313,0.0
 0777915,0.00020846,-0.00032275,0.00082352,-0.00136083,-0.04270985,-0.0
 5406775,0.00153901,-0.00096314,-0.00141297,-0.00046113,0.00010259,0.00
 064789,-0.00037120,-0.00098766,0.00089391,0.00006930,0.00000811,-0.000
 05851,-0.00020617,-0.00019720,0.00024312,0.00023516,0.00006180,-0.0007
 0363,0.00113747,-0.00927795,-0.00253374,-0.00208834,-0.02273270,-0.003
 04040,0.00114828,0.04451512,0.05562663,-0.03037292,-0.00223262,0.00492
 718,0.00192809,-0.00036426,0.00142914,0.00072017,-0.00575785,-0.000810
 43,0.00054586,0.00059826,0.00015126,-0.00013285,0.00047063,0.00022448,
 -0.26803353,-0.11248387,-0.03772862,-0.00033535,0.00055923,0.00042558,
 0.00059414,0.00150492,0.00060902,0.00027787,-0.00014794,-0.00020070,-0
 .00000096,-0.00005152,-0.00008837,-0.00008457,0.00013611,0.00015522,0.
 00014708,-0.00015300,0.00006190,-0.00014956,0.00016564,-0.00035886,0.0
 0005982,0.00014335,-0.00021942,0.29444655,0.01121980,0.00507486,-0.000
 45638,0.00217274,0.00085549,-0.00631322,0.00384075,0.00318230,0.001072
 07,0.00018266,-0.00001946,-0.00012280,-0.00016188,-0.00023470,-0.00002
 886,-0.11034940,-0.10055926,-0.03364364,-0.02275387,-0.00468972,0.0007
 5365,-0.00084269,0.00057007,-0.00011775,-0.00011975,-0.00014112,-0.000
 09951,-0.00001878,-0.00000392,0.00005647,-0.00006390,-0.00003166,0.000
 00081,-0.00010707,0.00004878,-0.00001757,0.00009008,-0.00007935,0.0001
 7645,-0.00000104,-0.00001569,0.00001686,0.11740101,0.09795606,0.023282
 87,0.00401084,0.00174347,0.00138990,-0.00709466,0.00186494,0.00186130,
 0.00348307,0.00146558,0.00000505,-0.00006515,-0.00015749,-0.00043766,-
 0.00053486,-0.00000712,-0.03784230,-0.03379053,-0.05017743,-0.01791695
 ,-0.00480486,-0.00063599,-0.00098424,-0.00018506,-0.00021237,-0.000144
 14,-0.00003797,-0.00000745,0.00004315,0.00003474,-0.00004797,-0.000023
 02,-0.00006333,-0.00004001,0.00001458,0.00004817,-0.00016066,-0.000089
 32,0.00014934,-0.00024092,0.00010680,-0.00012219,0.00001959,0.03190200
 ,0.03795085,0.04834413,0.00095960,-0.00237255,-0.00005607,-0.02834460,
 0.00263464,0.00913615,0.00043864,-0.00012052,0.00004194,-0.00003582,-0
 .00010727,-0.00002862,-0.00005926,-0.00004243,-0.00007166,0.00466500,-
 0.00168865,-0.00280708,-0.23259195,0.07893552,0.11542178,-0.00002068,0
 .00002411,0.00001330,0.00001124,-0.00000892,0.00000405,-0.00000051,0.0
 0000153,-0.00000843,0.00002879,-0.00000747,-0.00003721,0.00002597,-0.0
 0002269,0.00000408,-0.00001216,0.00002961,0.00002280,0.00001151,-0.000
 01032,0.00002355,0.00036973,0.00074997,-0.00058486,0.25411536,-0.00153
 447,-0.00019581,-0.00685489,-0.01949970,0.00531467,0.00694574,-0.00061
 011,0.00179542,-0.00107192,-0.00005512,-0.00044882,-0.00004345,0.00000
 070,0.00000401,0.00018401,0.02076964,-0.00214360,-0.00731214,0.0800049
 9,-0.08721530,-0.06802833,0.00006133,-0.00032139,-0.00007703,-0.000017
 70,0.00003780,0.00002420,-0.00003092,0.00001529,0.00006388,0.00011105,
 -0.00008023,-0.00005160,-0.00000540,0.00001340,0.00002131,0.00005243,-
 0.00006043,-0.00000441,0.00003964,-0.00003119,-0.00000598,0.00036214,-
 0.00221473,0.00232276,-0.07940476,0.08295326,-0.00203608,-0.00795015,0
 .00558733,-0.00882663,0.00189560,0.00651744,0.00145309,0.00016083,-0.0
 0068797,-0.00006052,-0.00051931,-0.00001984,0.00001887,-0.00008118,-0.
 00026939,0.01786884,-0.00323400,-0.00693475,0.11536730,-0.06566570,-0.
 11498296,-0.00014936,0.00000936,-0.00000382,0.00000485,0.00000732,0.00
 001746,-0.00000438,0.00001453,-0.00003083,0.00010082,-0.00000109,-0.00
 014655,0.00000385,0.00000201,0.00001841,-0.00004856,0.00006325,0.00006
 987,-0.00000867,-0.00003458,0.00005814,-0.00100100,0.00185598,-0.00286
 651,-0.12240270,0.07216751,0.11193001,0.00010072,0.00130657,0.00091232
 ,-0.04921554,0.07315863,0.07580464,0.00013872,-0.00058456,-0.00011018,
 0.00003918,0.00006140,0.00000500,0.00000894,0.00006785,-0.00000842,-0.
 00716313,-0.00176180,0.00033101,-0.00326174,-0.03704337,-0.03286343,0.
 00005254,0.00015164,0.00004290,0.00000899,-0.00001971,-0.00001614,0.00
 000078,-0.00000948,-0.00000792,-0.00001718,0.00001998,0.00002033,0.000
 00942,-0.00003342,0.00001541,-0.00000928,-0.00001881,0.00000123,-0.000
 00236,0.00003429,-0.00001405,0.00002041,-0.00123862,-0.00058317,0.0004
 3914,-0.00024375,-0.00027972,0.05885038,-0.00104319,0.00124181,0.00178
 074,0.03039696,-0.28934041,-0.26070800,-0.00019073,-0.00065419,-0.0003
 0712,0.00002619,0.00008903,-0.00000364,0.00004426,0.00013679,-0.000006
 40,-0.00169916,0.00066779,0.00031345,0.00509979,-0.01863110,-0.0126464
 3,0.00003935,0.00005044,0.00002922,-0.00000646,-0.00000908,-0.00001516
 ,0.00000824,-0.00002217,0.00001051,-0.00003078,0.00003273,0.00002637,0
 .00000655,-0.00002481,-0.00001060,-0.00004955,-0.00005747,0.00004201,-
 0.00001456,0.00005962,0.00000883,-0.00015025,0.00030206,-0.00130116,0.
 00141019,0.00257765,0.00130963,-0.03384685,0.30358132,-0.00154651,0.00
 103313,0.00098214,0.03852517,-0.27092918,-0.24352516,-0.00011200,-0.00
 066918,-0.00025582,0.00001066,0.00006863,-0.00000702,0.00003010,0.0001
 1051,-0.00002959,0.00066702,0.00027352,0.00023738,0.00378837,-0.001973
 29,-0.00825280,0.00007480,-0.00000764,-0.00002059,-0.00000536,-0.00001
 590,-0.00000141,0.00000455,-0.00001451,-0.00002581,-0.00001881,0.00003
 057,0.00002510,-0.00003162,-0.00001812,0.00003711,0.00002936,-0.000048
 78,0.00004812,-0.00001650,0.00004552,-0.00003528,0.00052161,-0.0010834
 0,0.00111619,0.00132898,0.00172035,0.00174396,-0.04324983,0.27147777,0
 .24796348\\0.00000028,-0.00000004,-0.00000026,0.00000038,0.00000046,-0
 .00000030,-0.00000022,-0.00000023,0.00000002,-0.00000003,-0.00000039,0
 .00000032,-0.00000024,-0.00000014,0.00000030,0.00000003,0.00000029,0.0
 0000022,0.00000005,0.00000015,-0.00000053,-0.00000015,0.00000010,0.000
 00004,-0.00000003,-0.00000054,0.00000021,0.00000002,-0.00000055,0.0000
 0006,-0.00000028,-0.00000056,0.00000044,-0.00000017,0.00000009,0.00000
 022,-0.00000024,0.00000029,0.00000027,-0.00000037,0.00000003,0.0000005
 1,0.00000009,0.00000033,-0.00000028,0.00000035,0.00000053,-0.00000046,
 0.00000052,0.00000019,-0.00000076\\\@


 MISERY NO LONGER LOVES COMPANY.  NOWADAYS IT INSISTS ON IT.

                                              -- BAKER'S LAW
 Job cpu time:       0 days  2 hours 32 minutes 28.0 seconds.
 Elapsed time:       0 days  1 hours 16 minutes 14.9 seconds.
 File lengths (MBytes):  RWF=   1392 Int=      0 D2E=      0 Chk=     32 Scr=     32
 Normal termination of Gaussian 16 at Thu Sep 26 13:25:49 2019.
