 Entering Gaussian System, Link 0=g16
 Input=loose/species/CC(C)OC=CO/conformers/CC(C)OC=CO_62.com
 Output=loose/species/CC(C)OC=CO/conformers/CC(C)OC=CO_62.log
 Initial command:
 /shared/centos7/gaussian/g16/l1.exe "/scratch/harms.n/gauss_scrdir/Gau-40027.inp" -scrdir="/scratch/harms.n/gauss_scrdir/"
 Entering Link 1 = /shared/centos7/gaussian/g16/l1.exe PID=     40029.
  
 Copyright (c) 1988,1990,1992,1993,1995,1998,2003,2009,2016,
            Gaussian, Inc.  All Rights Reserved.
  
 This is part of the Gaussian(R) 16 program.  It is based on
 the Gaussian(R) 09 system (copyright 2009, Gaussian, Inc.),
 the Gaussian(R) 03 system (copyright 2003, Gaussian, Inc.),
 the Gaussian(R) 98 system (copyright 1998, Gaussian, Inc.),
 the Gaussian(R) 94 system (copyright 1995, Gaussian, Inc.),
 the Gaussian 92(TM) system (copyright 1992, Gaussian, Inc.),
 the Gaussian 90(TM) system (copyright 1990, Gaussian, Inc.),
 the Gaussian 88(TM) system (copyright 1988, Gaussian, Inc.),
 the Gaussian 86(TM) system (copyright 1986, Carnegie Mellon
 University), and the Gaussian 82(TM) system (copyright 1983,
 Carnegie Mellon University). Gaussian is a federally registered
 trademark of Gaussian, Inc.
  
 This software contains proprietary and confidential information,
 including trade secrets, belonging to Gaussian, Inc.
  
 This software is provided under written license and may be
 used, copied, transmitted, or stored only in accord with that
 written license.
  
 The following legend is applicable only to US Government
 contracts under FAR:
  
                    RESTRICTED RIGHTS LEGEND
  
 Use, reproduction and disclosure by the US Government is
 subject to restrictions as set forth in subparagraphs (a)
 and (c) of the Commercial Computer Software - Restricted
 Rights clause in FAR 52.227-19.
  
 Gaussian, Inc.
 340 Quinnipiac St., Bldg. 40, Wallingford CT 06492
  
  
 ---------------------------------------------------------------
 Warning -- This program may not be used in any manner that
 competes with the business of Gaussian, Inc. or will provide
 assistance to any competitor of Gaussian, Inc.  The licensee
 of this program is prohibited from giving any competitor of
 Gaussian, Inc. access to this program.  By using this program,
 the user acknowledges that Gaussian, Inc. is engaged in the
 business of creating and licensing software in the field of
 computational chemistry and represents and warrants to the
 licensee that it is not a competitor of Gaussian, Inc. and that
 it will not use this program in any manner prohibited above.
 ---------------------------------------------------------------
  

 Cite this work as:
 Gaussian 16, Revision A.03,
 M. J. Frisch, G. W. Trucks, H. B. Schlegel, G. E. Scuseria, 
 M. A. Robb, J. R. Cheeseman, G. Scalmani, V. Barone, 
 G. A. Petersson, H. Nakatsuji, X. Li, M. Caricato, A. V. Marenich, 
 J. Bloino, B. G. Janesko, R. Gomperts, B. Mennucci, H. P. Hratchian, 
 J. V. Ortiz, A. F. Izmaylov, J. L. Sonnenberg, D. Williams-Young, 
 F. Ding, F. Lipparini, F. Egidi, J. Goings, B. Peng, A. Petrone, 
 T. Henderson, D. Ranasinghe, V. G. Zakrzewski, J. Gao, N. Rega, 
 G. Zheng, W. Liang, M. Hada, M. Ehara, K. Toyota, R. Fukuda, 
 J. Hasegawa, M. Ishida, T. Nakajima, Y. Honda, O. Kitao, H. Nakai, 
 T. Vreven, K. Throssell, J. A. Montgomery, Jr., J. E. Peralta, 
 F. Ogliaro, M. J. Bearpark, J. J. Heyd, E. N. Brothers, K. N. Kudin, 
 V. N. Staroverov, T. A. Keith, R. Kobayashi, J. Normand, 
 K. Raghavachari, A. P. Rendell, J. C. Burant, S. S. Iyengar, 
 J. Tomasi, M. Cossi, J. M. Millam, M. Klene, C. Adamo, R. Cammi, 
 J. W. Ochterski, R. L. Martin, K. Morokuma, O. Farkas, 
 J. B. Foresman, and D. J. Fox, Gaussian, Inc., Wallingford CT, 2016.
 
 ******************************************
 Gaussian 16:  EM64L-G16RevA.03 25-Dec-2016
                28-Sep-2019 
 ******************************************
 %nprocshared=20
 Will use up to   20 processors via shared memory.
 %mem=5GB
 ----------------------------------------------------------------------
 #p m062x/cc-pVTZ opt=(calcfc,maxcycles=900,Tight) freq IOP(7/33=1,2/16
 =3) scf=(maxcycle=900)
 ----------------------------------------------------------------------
 1/6=900,7=10,10=4,18=20,19=15,26=3,38=1/1,3;
 2/9=110,12=2,16=3,17=6,18=5,40=1/2;
 3/5=16,6=1,11=2,25=1,30=1,71=2,74=-55,140=1/1,2,3;
 4//1;
 5/5=2,7=900,38=5/2;
 8/6=4,10=90,11=11/1;
 11/6=1,8=1,9=11,15=111,16=1/1,2,10;
 10/6=1,13=1/2;
 6/7=2,8=2,9=2,10=2,28=1/1;
 7/10=1,18=20,25=1,33=1/1,2,3,16;
 1/6=900,7=10,10=4,18=20,19=15,26=3/3(2);
 2/9=110,16=3/2;
 99//99;
 2/9=110,16=3/2;
 3/5=16,6=1,11=2,25=1,30=1,71=1,74=-55/1,2,3;
 4/5=5,16=3,69=1/1;
 5/5=2,7=900,38=5/2;
 7/33=1/1,2,3,16;
 1/6=900,7=10,18=20,19=15,26=3/3(-5);
 2/9=110,16=3/2;
 6/7=2,8=2,9=2,10=2,19=2,28=1/1;
 99/9=1/99;
 Leave Link    1 at Sat Sep 28 20:18:42 2019, MaxMem=   671088640 cpu:               4.1 elap:               2.1
 (Enter /shared/centos7/gaussian/g16/l101.exe)
 ------------------------------
 Gaussian input prepared by ASE
 ------------------------------
 Symbolic Z-matrix:
 Charge =  0 Multiplicity = 1
 O                     3.40226   0.39812   3.13765 
 O                     1.6358   -1.57417   0.65814 
 C                     4.6913    0.95164   2.9768 
 C                     5.67233   0.15453   3.83658 
 C                     4.70898   2.42403   3.22541 
 C                     2.85181  -0.01238   1.94501 
 C                     2.20991  -1.14009   1.8437 
 H                     5.01445   0.8032    1.90915 
 H                     5.11718  -0.50786   4.53317 
 H                     6.30871  -0.4977    3.2112 
 H                     6.35608   0.79955   4.45226 
 H                     5.12605   2.70803   4.23639 
 H                     3.68698   2.8521    3.1595 
 H                     5.32719   2.94336   2.43949 
 H                     2.99076   0.67208   1.09298 
 H                     2.13687  -1.81715   2.68196 
 H                     1.05297  -2.35313   0.89335 
 
 ITRead=  0  0  0  0  0  0  0  0  0  0  0  0  0  0  0  0  0
 MicOpt= -1 -1 -1 -1 -1 -1 -1 -1 -1 -1 -1 -1 -1 -1 -1 -1 -1
 NAtoms=     17 NQM=       17 NQMF=       0 NMMI=      0 NMMIF=      0
                NMic=       0 NMicF=      0.
                    Isotopes and Nuclear Properties:
 (Nuclear quadrupole moments (NQMom) in fm**2, nuclear magnetic moments (NMagM)
  in nuclear magnetons)

  Atom         1           2           3           4           5           6           7           8           9          10
 IAtWgt=          16          16          12          12          12          12          12           1           1           1
 AtmWgt=  15.9949146  15.9949146  12.0000000  12.0000000  12.0000000  12.0000000  12.0000000   1.0078250   1.0078250   1.0078250
 NucSpn=           0           0           0           0           0           0           0           1           1           1
 AtZEff=  -0.0000000  -0.0000000  -0.0000000  -0.0000000  -0.0000000  -0.0000000  -0.0000000  -0.0000000  -0.0000000  -0.0000000
 NQMom=    0.0000000   0.0000000   0.0000000   0.0000000   0.0000000   0.0000000   0.0000000   0.0000000   0.0000000   0.0000000
 NMagM=    0.0000000   0.0000000   0.0000000   0.0000000   0.0000000   0.0000000   0.0000000   2.7928460   2.7928460   2.7928460
 AtZNuc=   8.0000000   8.0000000   6.0000000   6.0000000   6.0000000   6.0000000   6.0000000   1.0000000   1.0000000   1.0000000

  Atom        11          12          13          14          15          16          17
 IAtWgt=           1           1           1           1           1           1           1
 AtmWgt=   1.0078250   1.0078250   1.0078250   1.0078250   1.0078250   1.0078250   1.0078250
 NucSpn=           1           1           1           1           1           1           1
 AtZEff=  -0.0000000  -0.0000000  -0.0000000  -0.0000000  -0.0000000  -0.0000000  -0.0000000
 NQMom=    0.0000000   0.0000000   0.0000000   0.0000000   0.0000000   0.0000000   0.0000000
 NMagM=    2.7928460   2.7928460   2.7928460   2.7928460   2.7928460   2.7928460   2.7928460
 AtZNuc=   1.0000000   1.0000000   1.0000000   1.0000000   1.0000000   1.0000000   1.0000000
 Leave Link  101 at Sat Sep 28 20:18:43 2019, MaxMem=   671088640 cpu:               2.5 elap:               1.3
 (Enter /shared/centos7/gaussian/g16/l103.exe)

 GradGradGradGradGradGradGradGradGradGradGradGradGradGradGradGradGradGrad
 Berny optimization.
 Initialization pass.
                           ----------------------------
                           !    Initial Parameters    !
                           ! (Angstroms and Degrees)  !
 --------------------------                            --------------------------
 ! Name  Definition              Value          Derivative Info.                !
 --------------------------------------------------------------------------------
 ! R1    R(1,3)                  1.412          calculate D2E/DX2 analytically  !
 ! R2    R(1,6)                  1.3762         calculate D2E/DX2 analytically  !
 ! R3    R(2,7)                  1.3869         calculate D2E/DX2 analytically  !
 ! R4    R(2,17)                 1.0009         calculate D2E/DX2 analytically  !
 ! R5    R(3,4)                  1.5287         calculate D2E/DX2 analytically  !
 ! R6    R(3,5)                  1.4933         calculate D2E/DX2 analytically  !
 ! R7    R(3,8)                  1.1253         calculate D2E/DX2 analytically  !
 ! R8    R(4,9)                  1.1101         calculate D2E/DX2 analytically  !
 ! R9    R(4,10)                 1.1052         calculate D2E/DX2 analytically  !
 ! R10   R(4,11)                 1.1237         calculate D2E/DX2 analytically  !
 ! R11   R(5,12)                 1.1299         calculate D2E/DX2 analytically  !
 ! R12   R(5,13)                 1.11           calculate D2E/DX2 analytically  !
 ! R13   R(5,14)                 1.1267         calculate D2E/DX2 analytically  !
 ! R14   R(6,7)                  1.3016         calculate D2E/DX2 analytically  !
 ! R15   R(6,15)                 1.1017         calculate D2E/DX2 analytically  !
 ! R16   R(7,16)                 1.08           calculate D2E/DX2 analytically  !
 ! A1    A(3,1,6)              112.5406         calculate D2E/DX2 analytically  !
 ! A2    A(7,2,17)             106.4835         calculate D2E/DX2 analytically  !
 ! A3    A(1,3,4)              108.5039         calculate D2E/DX2 analytically  !
 ! A4    A(1,3,5)              112.2312         calculate D2E/DX2 analytically  !
 ! A5    A(1,3,8)              108.5733         calculate D2E/DX2 analytically  !
 ! A6    A(4,3,5)              114.3855         calculate D2E/DX2 analytically  !
 ! A7    A(4,3,8)              106.292          calculate D2E/DX2 analytically  !
 ! A8    A(5,3,8)              106.535          calculate D2E/DX2 analytically  !
 ! A9    A(3,4,9)              110.0679         calculate D2E/DX2 analytically  !
 ! A10   A(3,4,10)             111.0381         calculate D2E/DX2 analytically  !
 ! A11   A(3,4,11)             113.5372         calculate D2E/DX2 analytically  !
 ! A12   A(9,4,10)             106.9118         calculate D2E/DX2 analytically  !
 ! A13   A(9,4,11)             107.639          calculate D2E/DX2 analytically  !
 ! A14   A(10,4,11)            107.3627         calculate D2E/DX2 analytically  !
 ! A15   A(3,5,12)             113.6498         calculate D2E/DX2 analytically  !
 ! A16   A(3,5,13)             111.0669         calculate D2E/DX2 analytically  !
 ! A17   A(3,5,14)             110.1708         calculate D2E/DX2 analytically  !
 ! A18   A(12,5,13)            107.2209         calculate D2E/DX2 analytically  !
 ! A19   A(12,5,14)            107.8017         calculate D2E/DX2 analytically  !
 ! A20   A(13,5,14)            106.6194         calculate D2E/DX2 analytically  !
 ! A21   A(1,6,7)              121.5445         calculate D2E/DX2 analytically  !
 ! A22   A(1,6,15)             115.7519         calculate D2E/DX2 analytically  !
 ! A23   A(7,6,15)             122.7036         calculate D2E/DX2 analytically  !
 ! A24   A(2,7,6)              122.8104         calculate D2E/DX2 analytically  !
 ! A25   A(2,7,16)             116.0571         calculate D2E/DX2 analytically  !
 ! A26   A(6,7,16)             121.0716         calculate D2E/DX2 analytically  !
 ! D1    D(6,1,3,4)           -122.2129         calculate D2E/DX2 analytically  !
 ! D2    D(6,1,3,5)            110.4045         calculate D2E/DX2 analytically  !
 ! D3    D(6,1,3,8)             -7.0916         calculate D2E/DX2 analytically  !
 ! D4    D(3,1,6,7)            137.5119         calculate D2E/DX2 analytically  !
 ! D5    D(3,1,6,15)           -42.5005         calculate D2E/DX2 analytically  !
 ! D6    D(17,2,7,6)          -168.3975         calculate D2E/DX2 analytically  !
 ! D7    D(17,2,7,16)           14.4163         calculate D2E/DX2 analytically  !
 ! D8    D(1,3,4,9)            -12.1271         calculate D2E/DX2 analytically  !
 ! D9    D(1,3,4,10)           106.0585         calculate D2E/DX2 analytically  !
 ! D10   D(1,3,4,11)          -132.858          calculate D2E/DX2 analytically  !
 ! D11   D(5,3,4,9)            114.0129         calculate D2E/DX2 analytically  !
 ! D12   D(5,3,4,10)          -127.8015         calculate D2E/DX2 analytically  !
 ! D13   D(5,3,4,11)            -6.718          calculate D2E/DX2 analytically  !
 ! D14   D(8,3,4,9)           -128.7264         calculate D2E/DX2 analytically  !
 ! D15   D(8,3,4,10)           -10.5408         calculate D2E/DX2 analytically  !
 ! D16   D(8,3,4,11)           110.5427         calculate D2E/DX2 analytically  !
 ! D17   D(1,3,5,12)           102.3805         calculate D2E/DX2 analytically  !
 ! D18   D(1,3,5,13)           -18.6197         calculate D2E/DX2 analytically  !
 ! D19   D(1,3,5,14)          -136.5262         calculate D2E/DX2 analytically  !
 ! D20   D(4,3,5,12)           -21.7943         calculate D2E/DX2 analytically  !
 ! D21   D(4,3,5,13)          -142.7945         calculate D2E/DX2 analytically  !
 ! D22   D(4,3,5,14)            99.299          calculate D2E/DX2 analytically  !
 ! D23   D(8,3,5,12)          -138.9157         calculate D2E/DX2 analytically  !
 ! D24   D(8,3,5,13)           100.0841         calculate D2E/DX2 analytically  !
 ! D25   D(8,3,5,14)           -17.8224         calculate D2E/DX2 analytically  !
 ! D26   D(1,6,7,2)            179.4641         calculate D2E/DX2 analytically  !
 ! D27   D(1,6,7,16)            -3.4873         calculate D2E/DX2 analytically  !
 ! D28   D(15,6,7,2)            -0.5227         calculate D2E/DX2 analytically  !
 ! D29   D(15,6,7,16)          176.526          calculate D2E/DX2 analytically  !
 --------------------------------------------------------------------------------
 Trust Radius=3.00D-01 FncErr=1.00D-07 GrdErr=1.00D-06 EigMax=2.50D+02 EigMin=1.00D-04
 Number of steps in this run=    102 maximum allowed number of steps=    102.
 GradGradGradGradGradGradGradGradGradGradGradGradGradGradGradGradGradGrad

 Leave Link  103 at Sat Sep 28 20:18:44 2019, MaxMem=   671088640 cpu:               1.7 elap:               0.9
 (Enter /shared/centos7/gaussian/g16/l202.exe)
                          Input orientation:                          
 ---------------------------------------------------------------------
 Center     Atomic      Atomic             Coordinates (Angstroms)
 Number     Number       Type             X           Y           Z
 ---------------------------------------------------------------------
      1          8           0        3.402258    0.398117    3.137654
      2          8           0        1.635798   -1.574173    0.658135
      3          6           0        4.691297    0.951635    2.976802
      4          6           0        5.672331    0.154533    3.836577
      5          6           0        4.708979    2.424032    3.225410
      6          6           0        2.851815   -0.012375    1.945008
      7          6           0        2.209914   -1.140095    1.843697
      8          1           0        5.014448    0.803201    1.909147
      9          1           0        5.117175   -0.507861    4.533173
     10          1           0        6.308715   -0.497703    3.211205
     11          1           0        6.356084    0.799551    4.452258
     12          1           0        5.126052    2.708026    4.236392
     13          1           0        3.686978    2.852103    3.159504
     14          1           0        5.327195    2.943359    2.439490
     15          1           0        2.990764    0.672076    1.092977
     16          1           0        2.136867   -1.817150    2.681959
     17          1           0        1.052970   -2.353127    0.893348
 ---------------------------------------------------------------------
                    Distance matrix (angstroms):
                    1          2          3          4          5
     1  O    0.000000
     2  O    3.627440   0.000000
     3  C    1.412047   4.592602   0.000000
     4  C    2.387689   5.420748   1.528729   0.000000
     5  C    2.412375   5.658708   1.493342   2.540117   0.000000
     6  C    1.376189   2.360921   2.318967   3.400176   3.320326
     7  C    2.337115   1.386935   3.437517   4.199520   4.566996
     8  H    2.066997   4.316504   1.125320   2.137420   2.110202
     9  H    2.389396   5.317229   2.175729   1.110050   3.236181
    10  H    3.042268   5.432596   2.184392   1.105209   3.331049
    11  H    3.257979   6.504693   2.229713   1.123668   2.618597
    12  H    3.084537   6.582022   2.204651   2.641704   1.129905
    13  H    2.470544   5.482344   2.157269   3.417153   1.109989
    14  H    3.266661   6.099814   2.158711   3.138235   1.126748
    15  H    2.103588   2.659070   2.553186   3.871174   3.250982
    16  H    2.591578   2.099040   3.778652   4.209535   4.989862
    17  H    4.257394   1.000891   5.338507   6.024072   6.451834
                    6          7          8          9         10
     6  C    0.000000
     7  C    1.301558   0.000000
     8  H    2.311586   3.412637   0.000000
     9  H    3.475048   4.010632   2.935124   0.000000
    10  H    3.713348   4.368400   2.250074   1.779739   0.000000
    11  H    4.384681   5.268543   2.875312   1.802990   1.795919
    12  H    4.221750   5.388588   3.009466   3.229565   3.567408
    13  H    3.221448   4.455413   2.742912   3.901511   4.254101
    14  H    3.886951   5.171751   2.226960   4.042096   3.660578
    15  H    1.101697   2.111224   2.186006   4.212935   4.106588
    16  H    2.076405   1.080011   3.967864   3.744792   4.407420
    17  H    3.133839   1.926948   5.166000   5.759435   6.036382
                   11         12         13         14         15
    11  H    0.000000
    12  H    2.280758   0.000000
    13  H    3.606703   1.803158   0.000000
    14  H    3.115407   1.823374   1.793616   0.000000
    15  H    4.756721   4.311102   3.083466   3.525725   0.000000
    16  H    5.270947   5.641694   4.942956   5.735802   3.074125
    17  H    7.122376   7.306244   6.258424   6.979421   3.598159
                   16         17
    16  H    0.000000
    17  H    2.158989   0.000000
 Stoichiometry    C5H10O2
 Framework group  C1[X(C5H10O2)]
 Deg. of freedom    45
 Full point group                 C1      NOp   1
 Largest Abelian subgroup         C1      NOp   1
 Largest concise Abelian subgroup C1      NOp   1
                         Standard orientation:                         
 ---------------------------------------------------------------------
 Center     Atomic      Atomic             Coordinates (Angstroms)
 Number     Number       Type             X           Y           Z
 ---------------------------------------------------------------------
      1          8           0        0.241594   -0.057937   -0.637496
      2          8           0       -3.243625   -0.105076    0.367166
      3          6           0        1.346412   -0.017796    0.240936
      4          6           0        1.966850    1.377892    0.176718
      5          6           0        2.308298   -1.132258   -0.009704
      6          6           0       -0.929168   -0.395211    0.002393
      7          6           0       -2.046961    0.220356   -0.253863
      8          1           0        0.971968   -0.148668    1.294031
      9          1           0        1.550287    1.940639   -0.684678
     10          1           0        1.729596    1.959771    1.085901
     11          1           0        3.085170    1.367247    0.067736
     12          1           0        3.231218   -0.814977   -0.579122
     13          1           0        1.829862   -1.949654   -0.588528
     14          1           0        2.644025   -1.582758    0.966973
     15          1           0       -0.854684   -1.212613    0.737270
     16          1           0       -2.079406    1.054999   -0.938510
     17          1           0       -3.964376    0.372213   -0.137309
 ---------------------------------------------------------------------
 Rotational constants (GHZ):           6.5580703           1.1588466           1.0540800
 Leave Link  202 at Sat Sep 28 20:18:46 2019, MaxMem=   671088640 cpu:               3.7 elap:               1.9
 (Enter /shared/centos7/gaussian/g16/l301.exe)
 Standard basis: CC-pVTZ (5D, 7F)
 Ernie: Thresh=  0.10000D-02 Tol=  0.10000D-05 Strict=F.
 Ernie:  21 primitive shells out of 262 were deleted.
 There are   395 symmetry adapted cartesian basis functions of A   symmetry.
 There are   350 symmetry adapted basis functions of A   symmetry.
   350 basis functions,   534 primitive gaussians,   395 cartesian basis functions
    28 alpha electrons       28 beta electrons
       nuclear repulsion energy       306.4607861808 Hartrees.
 IExCor= 4336 DFT=T Ex+Corr=M062X ExCW=0 ScaHFX=  0.540000
 ScaDFX=  1.000000  1.000000  1.000000  1.000000 ScalE2=  1.000000  1.000000
 IRadAn=      5 IRanWt=     -1 IRanGd=            0 ICorTp=0 IEmpDi=  4
 NAtoms=   17 NActive=   17 NUniq=   17 SFac= 1.00D+00 NAtFMM=   60 NAOKFM=F Big=F
 Integral buffers will be    131072 words long.
 Raffenetti 2 integral format.
 Two-electron integral symmetry is turned on.
 Leave Link  301 at Sat Sep 28 20:18:47 2019, MaxMem=   671088640 cpu:               1.5 elap:               0.7
 (Enter /shared/centos7/gaussian/g16/l302.exe)
 NPDir=0 NMtPBC=     1 NCelOv=     1 NCel=       1 NClECP=     1 NCelD=      1
         NCelK=      1 NCelE2=     1 NClLst=     1 CellRange=     0.0.
 One-electron integrals computed using PRISM.
 One-electron integral symmetry used in STVInt
 NBasis=   350 RedAO= T EigKep=  2.54D-04  NBF=   350
 NBsUse=   350 1.00D-06 EigRej= -1.00D+00 NBFU=   350
 Precomputing XC quadrature grid using
 IXCGrd= 4 IRadAn=           5 IRanWt=          -1 IRanGd=           0 AccXCQ= 0.00D+00.
 Generated NRdTot=       0 NPtTot=           0 NUsed=           0 NTot=          32
 NSgBfM=   395   395   395   395   395 MxSgAt=    17 MxSgA2=    17.
 Leave Link  302 at Sat Sep 28 20:19:42 2019, MaxMem=   671088640 cpu:             110.2 elap:              55.1
 (Enter /shared/centos7/gaussian/g16/l303.exe)
 DipDrv:  MaxL=1.
 Leave Link  303 at Sat Sep 28 20:19:46 2019, MaxMem=   671088640 cpu:               8.7 elap:               4.4
 (Enter /shared/centos7/gaussian/g16/l401.exe)
 ExpMin= 1.03D-01 ExpMax= 1.53D+04 ExpMxC= 5.22D+02 IAcc=3 IRadAn=         5 AccDes= 0.00D+00
 Harris functional with IExCor= 1009 and IRadAn=       5 diagonalized for initial guess.
 HarFok:  IExCor= 1009 AccDes= 0.00D+00 IRadAn=         5 IDoV= 1 UseB2=F ITyADJ=14
 ICtDFT=  3500011 ScaDFX=  1.000000  1.000000  1.000000  1.000000
 FoFCou: FMM=F IPFlag=           0 FMFlag=      100000 FMFlg1=           0
         NFxFlg=           0 DoJE=T BraDBF=F KetDBF=T FulRan=T
         wScrn=  0.000000 ICntrl=       500 IOpCl=  0 I1Cent=   200000004 NGrid=           0
         NMat0=    1 NMatS0=      1 NMatT0=    0 NMatD0=    1 NMtDS0=    0 NMtDT0=    0
 Petite list used in FoFCou.
 Harris En= -346.805628395878    
 JPrj=0 DoOrth=F DoCkMO=F.
 Leave Link  401 at Sat Sep 28 20:20:16 2019, MaxMem=   671088640 cpu:              59.6 elap:              29.8
 (Enter /shared/centos7/gaussian/g16/l502.exe)
 Integral symmetry usage will be decided dynamically.
 Closed shell SCF:
 Using DIIS extrapolation, IDIIS=  1040.
 NGot=   671088640 LenX=   670765141 LenY=   670608675
 Requested convergence on RMS density matrix=1.00D-08 within 900 cycles.
 Requested convergence on MAX density matrix=1.00D-06.
 Requested convergence on             energy=1.00D-06.
 No special actions if energy rises.
 Fock matrices will be formed incrementally for  20 cycles.
 Integral accuracy reduced to 1.0D-05 until final iterations.

 Cycle   1  Pass 0  IDiag  1:
 FoFJK:  IHMeth= 1 ICntrl=       0 DoSepK=F KAlg= 0 I1Cent=           0 FoldK=F
 IRaf= 920000000 NMat=       1 IRICut=       1 DoRegI=T DoRafI=F ISym2E= 0 IDoP0=0 IntGTp=1.
 FoFCou: FMM=F IPFlag=           0 FMFlag=      100000 FMFlg1=           0
         NFxFlg=           0 DoJE=F BraDBF=F KetDBF=F FulRan=T
         wScrn=  0.000000 ICntrl=         0 IOpCl=  0 I1Cent=           0 NGrid=           0
         NMat0=    1 NMatS0=      1 NMatT0=    0 NMatD0=    1 NMtDS0=    0 NMtDT0=    0
 Symmetry not used in FoFCou.
 E= -346.685135514770    
 DIIS: error= 2.55D-02 at cycle   1 NSaved=   1.
 NSaved= 1 IEnMin= 1 EnMin= -346.685135514770     IErMin= 1 ErrMin= 2.55D-02
 ErrMax= 2.55D-02  0.00D+00 EMaxC= 1.00D-01 BMatC= 2.89D-01 BMatP= 2.89D-01
 IDIUse=3 WtCom= 7.45D-01 WtEn= 2.55D-01
 Coeff-Com:  0.100D+01
 Coeff-En:   0.100D+01
 Coeff:      0.100D+01
 Gap=     0.344 Goal=   None    Shift=    0.000
 GapD=    0.344 DampG=1.000 DampE=0.500 DampFc=0.5000 IDamp=-1.
 Damping current iteration by 5.00D-01
 RMSDP=2.05D-03 MaxDP=1.09D-01              OVMax= 1.38D-01

 Cycle   2  Pass 0  IDiag  1:
 RMSU=  1.02D-03    CP:  9.98D-01
 E= -346.806404055167     Delta-E=       -0.121268540397 Rises=F Damp=T
 DIIS: error= 5.74D-03 at cycle   2 NSaved=   2.
 NSaved= 2 IEnMin= 2 EnMin= -346.806404055167     IErMin= 2 ErrMin= 5.74D-03
 ErrMax= 5.74D-03  0.00D+00 EMaxC= 1.00D-01 BMatC= 2.07D-02 BMatP= 2.89D-01
 IDIUse=3 WtCom= 9.43D-01 WtEn= 5.74D-02
 Coeff-Com: -0.130D+00 0.113D+01
 Coeff-En:   0.000D+00 0.100D+01
 Coeff:     -0.123D+00 0.112D+01
 Gap=     0.325 Goal=   None    Shift=    0.000
 RMSDP=4.38D-04 MaxDP=1.41D-02 DE=-1.21D-01 OVMax= 7.33D-02

 Cycle   3  Pass 0  IDiag  1:
 RMSU=  4.35D-04    CP:  1.00D+00  9.70D-01
 E= -346.915754188264     Delta-E=       -0.109350133097 Rises=F Damp=F
 DIIS: error= 2.10D-03 at cycle   3 NSaved=   3.
 NSaved= 3 IEnMin= 3 EnMin= -346.915754188264     IErMin= 3 ErrMin= 2.10D-03
 ErrMax= 2.10D-03  0.00D+00 EMaxC= 1.00D-01 BMatC= 2.98D-03 BMatP= 2.07D-02
 IDIUse=3 WtCom= 9.79D-01 WtEn= 2.10D-02
 Coeff-Com: -0.757D-01 0.281D+00 0.794D+00
 Coeff-En:   0.000D+00 0.000D+00 0.100D+01
 Coeff:     -0.742D-01 0.275D+00 0.799D+00
 Gap=     0.325 Goal=   None    Shift=    0.000
 RMSDP=1.39D-04 MaxDP=7.19D-03 DE=-1.09D-01 OVMax= 1.12D-02

 Cycle   4  Pass 0  IDiag  1:
 RMSU=  1.11D-04    CP:  1.00D+00  1.05D+00  9.33D-01
 E= -346.917221717738     Delta-E=       -0.001467529474 Rises=F Damp=F
 DIIS: error= 1.17D-03 at cycle   4 NSaved=   4.
 NSaved= 4 IEnMin= 4 EnMin= -346.917221717738     IErMin= 4 ErrMin= 1.17D-03
 ErrMax= 1.17D-03  0.00D+00 EMaxC= 1.00D-01 BMatC= 9.49D-04 BMatP= 2.98D-03
 IDIUse=3 WtCom= 9.88D-01 WtEn= 1.17D-02
 Coeff-Com: -0.263D-01 0.670D-01 0.405D+00 0.555D+00
 Coeff-En:   0.000D+00 0.000D+00 0.205D+00 0.795D+00
 Coeff:     -0.260D-01 0.663D-01 0.402D+00 0.557D+00
 Gap=     0.321 Goal=   None    Shift=    0.000
 RMSDP=5.75D-05 MaxDP=3.26D-03 DE=-1.47D-03 OVMax= 4.62D-03

 Cycle   5  Pass 0  IDiag  1:
 RMSU=  2.54D-05    CP:  1.00D+00  1.03D+00  9.72D-01  5.86D-01
 E= -346.917908091248     Delta-E=       -0.000686373510 Rises=F Damp=F
 DIIS: error= 1.77D-04 at cycle   5 NSaved=   5.
 NSaved= 5 IEnMin= 5 EnMin= -346.917908091248     IErMin= 5 ErrMin= 1.77D-04
 ErrMax= 1.77D-04  0.00D+00 EMaxC= 1.00D-01 BMatC= 1.38D-05 BMatP= 9.49D-04
 IDIUse=3 WtCom= 9.98D-01 WtEn= 1.77D-03
 Coeff-Com: -0.292D-02 0.499D-02 0.738D-01 0.163D+00 0.761D+00
 Coeff-En:   0.000D+00 0.000D+00 0.000D+00 0.000D+00 0.100D+01
 Coeff:     -0.292D-02 0.498D-02 0.737D-01 0.162D+00 0.762D+00
 Gap=     0.321 Goal=   None    Shift=    0.000
 RMSDP=9.73D-06 MaxDP=3.03D-04 DE=-6.86D-04 OVMax= 8.54D-04

 Initial convergence to 1.0D-05 achieved.  Increase integral accuracy.
 Cycle   6  Pass 1  IDiag  1:
 E= -346.917913971846     Delta-E=       -0.000005880598 Rises=F Damp=F
 DIIS: error= 5.70D-05 at cycle   1 NSaved=   1.
 NSaved= 1 IEnMin= 1 EnMin= -346.917913971846     IErMin= 1 ErrMin= 5.70D-05
 ErrMax= 5.70D-05  0.00D+00 EMaxC= 1.00D-01 BMatC= 2.00D-06 BMatP= 2.00D-06
 IDIUse=1 WtCom= 1.00D+00 WtEn= 0.00D+00
 Coeff-Com:  0.100D+01
 Coeff:      0.100D+01
 Gap=     0.321 Goal=   None    Shift=    0.000
 RMSDP=9.73D-06 MaxDP=3.03D-04 DE=-5.88D-06 OVMax= 7.17D-04

 Cycle   7  Pass 1  IDiag  1:
 RMSU=  1.05D-05    CP:  1.00D+00
 E= -346.917914132284     Delta-E=       -0.000000160438 Rises=F Damp=F
 DIIS: error= 6.59D-05 at cycle   2 NSaved=   2.
 NSaved= 2 IEnMin= 2 EnMin= -346.917914132284     IErMin= 1 ErrMin= 5.70D-05
 ErrMax= 6.59D-05  0.00D+00 EMaxC= 1.00D-01 BMatC= 1.81D-06 BMatP= 2.00D-06
 IDIUse=1 WtCom= 1.00D+00 WtEn= 0.00D+00
 Coeff-Com:  0.487D+00 0.513D+00
 Coeff:      0.487D+00 0.513D+00
 Gap=     0.321 Goal=   None    Shift=    0.000
 RMSDP=3.00D-06 MaxDP=1.27D-04 DE=-1.60D-07 OVMax= 4.59D-04

 Cycle   8  Pass 1  IDiag  1:
 RMSU=  2.55D-06    CP:  1.00D+00  8.50D-01
 E= -346.917915734322     Delta-E=       -0.000001602038 Rises=F Damp=F
 DIIS: error= 1.15D-05 at cycle   3 NSaved=   3.
 NSaved= 3 IEnMin= 3 EnMin= -346.917915734322     IErMin= 3 ErrMin= 1.15D-05
 ErrMax= 1.15D-05  0.00D+00 EMaxC= 1.00D-01 BMatC= 4.11D-08 BMatP= 1.81D-06
 IDIUse=1 WtCom= 1.00D+00 WtEn= 0.00D+00
 Coeff-Com:  0.336D-01 0.127D+00 0.839D+00
 Coeff:      0.336D-01 0.127D+00 0.839D+00
 Gap=     0.321 Goal=   None    Shift=    0.000
 RMSDP=7.10D-07 MaxDP=3.54D-05 DE=-1.60D-06 OVMax= 1.10D-04

 Cycle   9  Pass 1  IDiag  1:
 RMSU=  5.15D-07    CP:  1.00D+00  8.94D-01  9.34D-01
 E= -346.917915761926     Delta-E=       -0.000000027604 Rises=F Damp=F
 DIIS: error= 4.67D-06 at cycle   4 NSaved=   4.
 NSaved= 4 IEnMin= 4 EnMin= -346.917915761926     IErMin= 4 ErrMin= 4.67D-06
 ErrMax= 4.67D-06  0.00D+00 EMaxC= 1.00D-01 BMatC= 1.59D-08 BMatP= 4.11D-08
 IDIUse=1 WtCom= 1.00D+00 WtEn= 0.00D+00
 Coeff-Com: -0.262D-01 0.231D-01 0.461D+00 0.542D+00
 Coeff:     -0.262D-01 0.231D-01 0.461D+00 0.542D+00
 Gap=     0.321 Goal=   None    Shift=    0.000
 RMSDP=2.48D-07 MaxDP=8.84D-06 DE=-2.76D-08 OVMax= 3.70D-05

 Cycle  10  Pass 1  IDiag  1:
 RMSU=  1.91D-07    CP:  1.00D+00  8.95D-01  9.80D-01  8.02D-01
 E= -346.917915775056     Delta-E=       -0.000000013130 Rises=F Damp=F
 DIIS: error= 5.70D-07 at cycle   5 NSaved=   5.
 NSaved= 5 IEnMin= 5 EnMin= -346.917915775056     IErMin= 5 ErrMin= 5.70D-07
 ErrMax= 5.70D-07  0.00D+00 EMaxC= 1.00D-01 BMatC= 2.16D-10 BMatP= 1.59D-08
 IDIUse=1 WtCom= 1.00D+00 WtEn= 0.00D+00
 Coeff-Com: -0.670D-02-0.524D-02 0.179D-01 0.778D-01 0.916D+00
 Coeff:     -0.670D-02-0.524D-02 0.179D-01 0.778D-01 0.916D+00
 Gap=     0.321 Goal=   None    Shift=    0.000
 RMSDP=6.92D-08 MaxDP=1.81D-06 DE=-1.31D-08 OVMax= 6.24D-06

 Cycle  11  Pass 1  IDiag  1:
 RMSU=  4.15D-08    CP:  1.00D+00  8.96D-01  9.88D-01  8.72D-01  1.17D+00
 E= -346.917915775312     Delta-E=       -0.000000000256 Rises=F Damp=F
 DIIS: error= 2.60D-07 at cycle   6 NSaved=   6.
 NSaved= 6 IEnMin= 6 EnMin= -346.917915775312     IErMin= 6 ErrMin= 2.60D-07
 ErrMax= 2.60D-07  0.00D+00 EMaxC= 1.00D-01 BMatC= 6.53D-11 BMatP= 2.16D-10
 IDIUse=1 WtCom= 1.00D+00 WtEn= 0.00D+00
 Coeff-Com:  0.849D-03-0.489D-02-0.521D-01-0.386D-01 0.396D+00 0.699D+00
 Coeff:      0.849D-03-0.489D-02-0.521D-01-0.386D-01 0.396D+00 0.699D+00
 Gap=     0.321 Goal=   None    Shift=    0.000
 RMSDP=2.18D-08 MaxDP=8.01D-07 DE=-2.56D-10 OVMax= 2.95D-06

 Cycle  12  Pass 1  IDiag  1:
 RMSU=  1.42D-08    CP:  1.00D+00  8.96D-01  9.90D-01  8.90D-01  1.23D+00
                    CP:  8.38D-01
 E= -346.917915775390     Delta-E=       -0.000000000078 Rises=F Damp=F
 DIIS: error= 7.69D-08 at cycle   7 NSaved=   7.
 NSaved= 7 IEnMin= 7 EnMin= -346.917915775390     IErMin= 7 ErrMin= 7.69D-08
 ErrMax= 7.69D-08  0.00D+00 EMaxC= 1.00D-01 BMatC= 3.87D-12 BMatP= 6.53D-11
 IDIUse=1 WtCom= 1.00D+00 WtEn= 0.00D+00
 Coeff-Com:  0.650D-03-0.194D-02-0.232D-01-0.210D-01 0.118D+00 0.293D+00
 Coeff-Com:  0.634D+00
 Coeff:      0.650D-03-0.194D-02-0.232D-01-0.210D-01 0.118D+00 0.293D+00
 Coeff:      0.634D+00
 Gap=     0.321 Goal=   None    Shift=    0.000
 RMSDP=4.72D-09 MaxDP=1.83D-07 DE=-7.83D-11 OVMax= 4.19D-07

 SCF Done:  E(RM062X) =  -346.917915775     A.U. after   12 cycles
            NFock= 12  Conv=0.47D-08     -V/T= 2.0062
 KE= 3.447712536893D+02 PE=-1.423102686254D+03 EE= 4.249527306087D+02
 Leave Link  502 at Sat Sep 28 20:29:58 2019, MaxMem=   671088640 cpu:            1162.4 elap:             581.3
 (Enter /shared/centos7/gaussian/g16/l801.exe)
 DoSCS=F DFT=T ScalE2(SS,OS)=  1.000000  1.000000
 Range of M.O.s used for correlation:     1   350
 NBasis=   350 NAE=    28 NBE=    28 NFC=     0 NFV=     0
 NROrb=    350 NOA=    28 NOB=    28 NVA=   322 NVB=   322

 **** Warning!!: The largest alpha MO coefficient is  0.11934596D+02

 Leave Link  801 at Sat Sep 28 20:29:58 2019, MaxMem=   671088640 cpu:               1.6 elap:               0.8
 (Enter /shared/centos7/gaussian/g16/l1101.exe)
 Using compressed storage, NAtomX=    17.
 Will process     18 centers per pass.
 Leave Link 1101 at Sat Sep 28 20:30:27 2019, MaxMem=   671088640 cpu:              56.4 elap:              28.2
 (Enter /shared/centos7/gaussian/g16/l1102.exe)
 Symmetrizing basis deriv contribution to polar:
 IMax=3 JMax=2 DiffMx= 0.00D+00
 Leave Link 1102 at Sat Sep 28 20:30:29 2019, MaxMem=   671088640 cpu:               5.1 elap:               2.6
 (Enter /shared/centos7/gaussian/g16/l1110.exe)
 Forming Gx(P) for the SCF density, NAtomX=    17.
 Integral derivatives from FoFJK, PRISM(SPDF).
 Do as many integral derivatives as possible in FoFJK.
 G2DrvN: MDV=     671087280.
 G2DrvN: will do    18 centers at a time, making    1 passes.
 Calling FoFCou, ICntrl=  3107 FMM=F I1Cent=   0 AccDes= 0.00D+00.
 FoFJK:  IHMeth= 1 ICntrl=    3107 DoSepK=F KAlg= 0 I1Cent=           0 FoldK=F
 IRaf=         0 NMat=       1 IRICut=       1 DoRegI=T DoRafI=F ISym2E= 0 IDoP0=0 IntGTp=1.
 FoFCou: FMM=F IPFlag=           0 FMFlag=      100000 FMFlg1=           0
         NFxFlg=           0 DoJE=F BraDBF=F KetDBF=F FulRan=T
         wScrn=  0.000000 ICntrl=      3107 IOpCl=  0 I1Cent=           0 NGrid=           0
         NMat0=    1 NMatS0=      1 NMatT0=    0 NMatD0=    1 NMtDS0=    0 NMtDT0=    0
 Symmetry not used in FoFCou.
 End of G2Drv F.D. properties file   721 does not exist.
 End of G2Drv F.D. properties file   722 does not exist.
 End of G2Drv F.D. properties file   788 does not exist.
 Leave Link 1110 at Sat Sep 28 20:47:05 2019, MaxMem=   671088640 cpu:            1990.4 elap:             995.3
 (Enter /shared/centos7/gaussian/g16/l1002.exe)
 Minotr:  Closed shell wavefunction.
          IDoAtm=11111111111111111
          Direct CPHF calculation.
          Differentiating once with respect to nuclear coordinates.
          Requested convergence is 1.0D-08 RMS, and 1.0D-07 maximum.
          Secondary convergence is 1.0D-12 RMS, and 1.0D-12 maximum.
          NewPWx=T KeepS1=F KeepF1=F KeepIn=T MapXYZ=F SortEE=F KeepMc=T.
         5137 words used for storage of precomputed grid.
 Two-electron integrals replicated using symmetry.
          MDV=     671088640 using IRadAn=       1.
          Solving linear equations simultaneously, MaxMat=     380.
 FoF2E skips out because all densities are zero.
 CalDSu exits because no D1Ps are significant.
 FoFJK:  IHMeth= 1 ICntrl=       0 DoSepK=F KAlg= 0 I1Cent=           0 FoldK=F
 IRaf= 910000000 NMat=      51 IRICut=     127 DoRegI=T DoRafI=T ISym2E= 2 IDoP0=3 IntGTp=3.
 FoFCou: FMM=F IPFlag=           0 FMFlag=      100000 FMFlg1=           0
         NFxFlg=           0 DoJE=F BraDBF=F KetDBF=F FulRan=T
         wScrn=  0.000000 ICntrl=         0 IOpCl=  0 I1Cent=           0 NGrid=           0
         NMat0=   51 NMatS0=     51 NMatT0=    0 NMatD0=   51 NMtDS0=    0 NMtDT0=    0
 Integrals replicated using symmetry in FoFCou.
 Raff kept on since  87.69% of shell-pairs survive, threshold=   0.20 IRatSp=88.
          There are    54 degrees of freedom in the 1st order CPHF.  IDoFFX=6 NUNeed=     0.
     48 vectors produced by pass  0 Test12= 1.67D-14 1.85D-09 XBig12= 7.11D-02 5.88D-02.
 AX will form    48 AO Fock derivatives at one time.
     48 vectors produced by pass  1 Test12= 1.67D-14 1.85D-09 XBig12= 5.11D-03 1.79D-02.
     48 vectors produced by pass  2 Test12= 1.67D-14 1.85D-09 XBig12= 1.53D-04 2.12D-03.
     48 vectors produced by pass  3 Test12= 1.67D-14 1.85D-09 XBig12= 2.54D-06 1.98D-04.
     48 vectors produced by pass  4 Test12= 1.67D-14 1.85D-09 XBig12= 2.34D-08 1.60D-05.
     48 vectors produced by pass  5 Test12= 1.67D-14 1.85D-09 XBig12= 1.23D-10 1.13D-06.
     26 vectors produced by pass  6 Test12= 1.67D-14 1.85D-09 XBig12= 5.11D-13 6.74D-08.
      3 vectors produced by pass  7 Test12= 1.67D-14 1.85D-09 XBig12= 2.06D-15 3.49D-09.
 InvSVY:  IOpt=1 It=  1 EMax= 2.78D-16
 Solved reduced A of dimension   317 with    54 vectors.
 End of Minotr F.D. properties file   721 does not exist.
 End of Minotr F.D. properties file   722 does not exist.
 End of Minotr F.D. properties file   788 does not exist.
 Leave Link 1002 at Sat Sep 28 21:17:19 2019, MaxMem=   671088640 cpu:            3627.5 elap:            1813.9
 (Enter /shared/centos7/gaussian/g16/l601.exe)
 Copying SCF densities to generalized density rwf, IOpCl= 0 IROHF=0.

 **********************************************************************

            Population analysis using the SCF density.

 **********************************************************************

 Orbital symmetries:
       Occupied  (A) (A) (A) (A) (A) (A) (A) (A) (A) (A) (A) (A)
                 (A) (A) (A) (A) (A) (A) (A) (A) (A) (A) (A) (A)
                 (A) (A) (A) (A)
       Virtual   (A) (A) (A) (A) (A) (A) (A) (A) (A) (A) (A) (A)
                 (A) (A) (A) (A) (A) (A) (A) (A) (A) (A) (A) (A)
                 (A) (A) (A) (A) (A) (A) (A) (A) (A) (A) (A) (A)
                 (A) (A) (A) (A) (A) (A) (A) (A) (A) (A) (A) (A)
                 (A) (A) (A) (A) (A) (A) (A) (A) (A) (A) (A) (A)
                 (A) (A) (A) (A) (A) (A) (A) (A) (A) (A) (A) (A)
                 (A) (A) (A) (A) (A) (A) (A) (A) (A) (A) (A) (A)
                 (A) (A) (A) (A) (A) (A) (A) (A) (A) (A) (A) (A)
                 (A) (A) (A) (A) (A) (A) (A) (A) (A) (A) (A) (A)
                 (A) (A) (A) (A) (A) (A) (A) (A) (A) (A) (A) (A)
                 (A) (A) (A) (A) (A) (A) (A) (A) (A) (A) (A) (A)
                 (A) (A) (A) (A) (A) (A) (A) (A) (A) (A) (A) (A)
                 (A) (A) (A) (A) (A) (A) (A) (A) (A) (A) (A) (A)
                 (A) (A) (A) (A) (A) (A) (A) (A) (A) (A) (A) (A)
                 (A) (A) (A) (A) (A) (A) (A) (A) (A) (A) (A) (A)
                 (A) (A) (A) (A) (A) (A) (A) (A) (A) (A) (A) (A)
                 (A) (A) (A) (A) (A) (A) (A) (A) (A) (A) (A) (A)
                 (A) (A) (A) (A) (A) (A) (A) (A) (A) (A) (A) (A)
                 (A) (A) (A) (A) (A) (A) (A) (A) (A) (A) (A) (A)
                 (A) (A) (A) (A) (A) (A) (A) (A) (A) (A) (A) (A)
                 (A) (A) (A) (A) (A) (A) (A) (A) (A) (A) (A) (A)
                 (A) (A) (A) (A) (A) (A) (A) (A) (A) (A) (A) (A)
                 (A) (A) (A) (A) (A) (A) (A) (A) (A) (A) (A) (A)
                 (A) (A) (A) (A) (A) (A) (A) (A) (A) (A) (A) (A)
                 (A) (A) (A) (A) (A) (A) (A) (A) (A) (A) (A) (A)
                 (A) (A) (A) (A) (A) (A) (A) (A) (A) (A) (A) (A)
                 (A) (A) (A) (A) (A) (A) (A) (A) (A) (A)
 The electronic state is 1-A.
 Alpha  occ. eigenvalues --  -19.64772 -19.63579 -10.59337 -10.57962 -10.57411
 Alpha  occ. eigenvalues --  -10.53200 -10.52965  -1.17871  -1.16017  -0.89390
 Alpha  occ. eigenvalues --   -0.83130  -0.77959  -0.67959  -0.66052  -0.61604
 Alpha  occ. eigenvalues --   -0.56375  -0.54627  -0.52528  -0.49539  -0.47495
 Alpha  occ. eigenvalues --   -0.45358  -0.44859  -0.44221  -0.42746  -0.40780
 Alpha  occ. eigenvalues --   -0.37668  -0.36659  -0.27003
 Alpha virt. eigenvalues --    0.05107   0.06899   0.07721   0.09748   0.10987
 Alpha virt. eigenvalues --    0.12102   0.13361   0.13524   0.15816   0.16275
 Alpha virt. eigenvalues --    0.17640   0.18348   0.22052   0.22990   0.25570
 Alpha virt. eigenvalues --    0.28418   0.28805   0.29344   0.32982   0.33194
 Alpha virt. eigenvalues --    0.35635   0.36156   0.36472   0.40095   0.40496
 Alpha virt. eigenvalues --    0.41027   0.42217   0.43298   0.45527   0.46477
 Alpha virt. eigenvalues --    0.47849   0.48736   0.49299   0.49484   0.50529
 Alpha virt. eigenvalues --    0.51654   0.52230   0.52749   0.54001   0.55009
 Alpha virt. eigenvalues --    0.55121   0.55919   0.57946   0.60107   0.60927
 Alpha virt. eigenvalues --    0.62376   0.65271   0.65854   0.69592   0.72535
 Alpha virt. eigenvalues --    0.74048   0.74868   0.77369   0.80403   0.82173
 Alpha virt. eigenvalues --    0.83467   0.85703   0.87352   0.88299   0.91092
 Alpha virt. eigenvalues --    0.92332   0.93468   0.96286   0.98376   0.99089
 Alpha virt. eigenvalues --    1.01477   1.02093   1.04656   1.05750   1.06001
 Alpha virt. eigenvalues --    1.06652   1.08021   1.08553   1.10151   1.11815
 Alpha virt. eigenvalues --    1.13362   1.14024   1.15851   1.17529   1.20005
 Alpha virt. eigenvalues --    1.21180   1.22648   1.24500   1.26286   1.27560
 Alpha virt. eigenvalues --    1.28442   1.29628   1.30727   1.34676   1.34787
 Alpha virt. eigenvalues --    1.35682   1.36653   1.37105   1.39087   1.40285
 Alpha virt. eigenvalues --    1.41732   1.43206   1.44665   1.48567   1.51310
 Alpha virt. eigenvalues --    1.52124   1.53926   1.55508   1.57136   1.58291
 Alpha virt. eigenvalues --    1.59659   1.63598   1.67698   1.77335   1.84354
 Alpha virt. eigenvalues --    1.87907   1.90023   1.99015   2.00314   2.01946
 Alpha virt. eigenvalues --    2.04926   2.07106   2.12384   2.15930   2.17911
 Alpha virt. eigenvalues --    2.21148   2.21901   2.27506   2.31771   2.33108
 Alpha virt. eigenvalues --    2.34832   2.36095   2.37332   2.39941   2.45995
 Alpha virt. eigenvalues --    2.46571   2.48286   2.50935   2.53400   2.55474
 Alpha virt. eigenvalues --    2.60071   2.61590   2.63568   2.66468   2.67203
 Alpha virt. eigenvalues --    2.71671   2.74483   2.75311   2.79048   2.80843
 Alpha virt. eigenvalues --    2.82128   2.83061   2.83652   2.84288   2.86271
 Alpha virt. eigenvalues --    2.86962   2.88099   2.90491   2.91473   2.92308
 Alpha virt. eigenvalues --    2.95148   2.96931   2.97326   2.99589   3.00895
 Alpha virt. eigenvalues --    3.01160   3.01760   3.02953   3.04406   3.05279
 Alpha virt. eigenvalues --    3.07419   3.08244   3.09399   3.11772   3.12992
 Alpha virt. eigenvalues --    3.13720   3.17659   3.20076   3.20662   3.23169
 Alpha virt. eigenvalues --    3.24435   3.26062   3.27575   3.28331   3.30380
 Alpha virt. eigenvalues --    3.30736   3.31783   3.33894   3.34341   3.36789
 Alpha virt. eigenvalues --    3.37016   3.39756   3.41297   3.42258   3.43234
 Alpha virt. eigenvalues --    3.44846   3.45353   3.46373   3.47403   3.48927
 Alpha virt. eigenvalues --    3.51045   3.54993   3.56164   3.57315   3.60425
 Alpha virt. eigenvalues --    3.60919   3.62751   3.65967   3.68341   3.69132
 Alpha virt. eigenvalues --    3.71911   3.72172   3.74577   3.75202   3.77676
 Alpha virt. eigenvalues --    3.78654   3.80309   3.82537   3.83788   3.85640
 Alpha virt. eigenvalues --    3.86237   3.88789   3.90307   3.91063   3.92272
 Alpha virt. eigenvalues --    3.93176   3.94382   3.97371   3.99131   4.01717
 Alpha virt. eigenvalues --    4.02307   4.02897   4.02993   4.04538   4.06211
 Alpha virt. eigenvalues --    4.06708   4.09211   4.09963   4.12886   4.14571
 Alpha virt. eigenvalues --    4.19163   4.19573   4.23025   4.23879   4.25926
 Alpha virt. eigenvalues --    4.26877   4.30231   4.32605   4.36995   4.39855
 Alpha virt. eigenvalues --    4.43372   4.44168   4.47184   4.48884   4.50833
 Alpha virt. eigenvalues --    4.54460   4.59103   4.64820   4.65747   4.68211
 Alpha virt. eigenvalues --    4.70805   4.73442   4.74291   4.77479   4.79682
 Alpha virt. eigenvalues --    4.86222   4.87004   4.89636   4.91271   4.92995
 Alpha virt. eigenvalues --    4.94399   4.95706   5.00189   5.03094   5.07372
 Alpha virt. eigenvalues --    5.08116   5.09341   5.10794   5.13141   5.19872
 Alpha virt. eigenvalues --    5.20569   5.22759   5.24904   5.25571   5.27222
 Alpha virt. eigenvalues --    5.28574   5.30966   5.35176   5.39303   5.43401
 Alpha virt. eigenvalues --    5.53574   5.57225   5.58336   5.66616   5.71262
 Alpha virt. eigenvalues --    5.75017   5.76617   5.79728   5.81662   5.82158
 Alpha virt. eigenvalues --    5.94249   5.99538   6.10545   6.16608   6.18527
 Alpha virt. eigenvalues --    6.32752   6.42992   6.57533   6.58573   6.70464
 Alpha virt. eigenvalues --    6.73115   6.76435   6.77286   6.79672   7.01009
 Alpha virt. eigenvalues --    7.06057   7.20985   7.26162   7.31975   7.36244
 Alpha virt. eigenvalues --   10.42306  10.70951  11.59919  11.69057  12.93490
 Alpha virt. eigenvalues --   13.35511  14.34676
          Condensed to atoms (all electrons):
               1          2          3          4          5          6
     1  O    7.908959   0.001379   0.258535  -0.043952  -0.043268   0.333029
     2  O    0.001379   7.785506  -0.000117   0.000015   0.000009  -0.081439
     3  C    0.258535  -0.000117   4.939282   0.310358   0.323052  -0.073491
     4  C   -0.043952   0.000015   0.310358   4.980818  -0.051331   0.007430
     5  C   -0.043268   0.000009   0.323052  -0.051331   5.001321  -0.001998
     6  C    0.333029  -0.081439  -0.073491   0.007430  -0.001998   4.971137
     7  C   -0.066663   0.356956  -0.001920  -0.000001  -0.000031   0.587025
     8  H   -0.049998  -0.000135   0.412248  -0.046112  -0.073717  -0.006712
     9  H    0.003123  -0.000001  -0.044181   0.387856   0.001914   0.000973
    10  H    0.002390  -0.000003  -0.037483   0.401901   0.007239  -0.000332
    11  H    0.003847   0.000000  -0.046052   0.405428  -0.006829  -0.000481
    12  H    0.002033  -0.000000  -0.041210  -0.012188   0.400829  -0.000290
    13  H    0.003120   0.000002  -0.041660   0.007592   0.387128   0.001803
    14  H    0.004454  -0.000001  -0.044231   0.003932   0.396529   0.000789
    15  H   -0.047345   0.005169   0.005198  -0.000396   0.000046   0.362913
    16  H    0.007585  -0.048589   0.000528  -0.000571  -0.000001  -0.093684
    17  H   -0.000312   0.329665  -0.000017  -0.000000  -0.000001   0.012477
               7          8          9         10         11         12
     1  O   -0.066663  -0.049998   0.003123   0.002390   0.003847   0.002033
     2  O    0.356956  -0.000135  -0.000001  -0.000003   0.000000  -0.000000
     3  C   -0.001920   0.412248  -0.044181  -0.037483  -0.046052  -0.041210
     4  C   -0.000001  -0.046112   0.387856   0.401901   0.405428  -0.012188
     5  C   -0.000031  -0.073717   0.001914   0.007239  -0.006829   0.400829
     6  C    0.587025  -0.006712   0.000973  -0.000332  -0.000481  -0.000290
     7  C    4.809713   0.000934  -0.000574   0.000193  -0.000118   0.000016
     8  H    0.000934   0.661072   0.008933  -0.013797   0.003837   0.007927
     9  H   -0.000574   0.008933   0.575357  -0.030329  -0.028266   0.001419
    10  H    0.000193  -0.013797  -0.030329   0.592675  -0.035541   0.000264
    11  H   -0.000118   0.003837  -0.028266  -0.035541   0.600429  -0.000247
    12  H    0.000016   0.007927   0.001419   0.000264  -0.000247   0.596842
    13  H    0.000091   0.004087  -0.000299  -0.000466   0.000431  -0.027589
    14  H    0.000038  -0.009955  -0.000240  -0.000308  -0.000731  -0.034480
    15  H   -0.049393   0.002170   0.000395   0.000061   0.000112  -0.000162
    16  H    0.426565   0.000409   0.000657   0.000017   0.000011  -0.000003
    17  H   -0.041757   0.000023  -0.000002   0.000001  -0.000000   0.000000
              13         14         15         16         17
     1  O    0.003120   0.004454  -0.047345   0.007585  -0.000312
     2  O    0.000002  -0.000001   0.005169  -0.048589   0.329665
     3  C   -0.041660  -0.044231   0.005198   0.000528  -0.000017
     4  C    0.007592   0.003932  -0.000396  -0.000571  -0.000000
     5  C    0.387128   0.396529   0.000046  -0.000001  -0.000001
     6  C    0.001803   0.000789   0.362913  -0.093684   0.012477
     7  C    0.000091   0.000038  -0.049393   0.426565  -0.041757
     8  H    0.004087  -0.009955   0.002170   0.000409   0.000023
     9  H   -0.000299  -0.000240   0.000395   0.000657  -0.000002
    10  H   -0.000466  -0.000308   0.000061   0.000017   0.000001
    11  H    0.000431  -0.000731   0.000112   0.000011  -0.000000
    12  H   -0.027589  -0.034480  -0.000162  -0.000003   0.000000
    13  H    0.567124  -0.027350  -0.000619   0.000004   0.000001
    14  H   -0.027350   0.605517  -0.000329  -0.000001   0.000000
    15  H   -0.000619  -0.000329   0.594063   0.009925  -0.000923
    16  H    0.000004  -0.000001   0.009925   0.599397  -0.013498
    17  H    0.000001   0.000000  -0.000923  -0.013498   0.448193
 Mulliken charges:
               1
     1  O   -0.276915
     2  O   -0.348415
     3  C    0.081160
     4  C   -0.350779
     5  C   -0.340890
     6  C   -0.019149
     7  C   -0.021072
     8  H    0.098786
     9  H    0.123264
    10  H    0.113517
    11  H    0.104172
    12  H    0.106839
    13  H    0.126601
    14  H    0.106366
    15  H    0.119113
    16  H    0.111249
    17  H    0.266152
 Sum of Mulliken charges =  -0.00000
 Mulliken charges with hydrogens summed into heavy atoms:
               1
     1  O   -0.276915
     2  O   -0.082263
     3  C    0.179946
     4  C   -0.009826
     5  C   -0.001084
     6  C    0.099965
     7  C    0.090176
 APT charges:
               1
     1  O   -0.181997
     2  O   -0.786902
     3  C    0.043370
     4  C   -1.220191
     5  C   -1.263800
     6  C   -0.381058
     7  C   -0.190771
     8  H    0.256890
     9  H    0.263575
    10  H    0.343638
    11  H    0.517083
    12  H    0.484606
    13  H    0.275911
    14  H    0.400189
    15  H    0.275524
    16  H    0.302492
    17  H    0.861441
 Sum of APT charges =  -0.00000
 APT charges with hydrogens summed into heavy atoms:
               1
     1  O   -0.181997
     2  O    0.074539
     3  C    0.300260
     4  C   -0.095895
     5  C   -0.103094
     6  C   -0.105534
     7  C    0.111721
 Electronic spatial extent (au):  <R**2>=           1127.7233
 Charge=              0.0000 electrons
 Dipole moment (field-independent basis, Debye):
    X=             -0.1001    Y=              0.9006    Z=              0.0342  Tot=              0.9068
 Quadrupole moment (field-independent basis, Debye-Ang):
   XX=            -36.7258   YY=            -43.2976   ZZ=            -45.4024
   XY=             -4.5087   XZ=              4.9475   YZ=             -1.6145
 Traceless Quadrupole moment (field-independent basis, Debye-Ang):
   XX=              5.0828   YY=             -1.4890   ZZ=             -3.5938
   XY=             -4.5087   XZ=              4.9475   YZ=             -1.6145
 Octapole moment (field-independent basis, Debye-Ang**2):
  XXX=            -46.2838  YYY=             -0.2145  ZZZ=              0.6174  XYY=             -5.8550
  XXY=             17.2648  XXZ=            -17.3531  XZZ=             -2.6888  YZZ=              0.4108
  YYZ=             -0.7458  XYZ=              2.2422
 Hexadecapole moment (field-independent basis, Debye-Ang**3):
 XXXX=           -939.5978 YYYY=           -243.2715 ZZZZ=            -97.9005 XXXY=            -61.9977
 XXXZ=             47.2391 YYYX=             -3.7422 YYYZ=             -2.1118 ZZZX=             -0.3583
 ZZZY=             -2.5101 XXYY=           -231.0342 XXZZ=           -211.2571 YYZZ=            -53.0409
 XXYZ=             -7.4279 YYXZ=              0.1490 ZZXY=             -2.3537
 N-N= 3.064607861808D+02 E-N=-1.423102671657D+03  KE= 3.447712536893D+02
  Exact polarizability:   0.000   0.000   0.000   0.000   0.000   0.000
 Approx polarizability:  93.965  -6.059  72.301   1.365  -5.137  71.931
 No NMR shielding tensors so no spin-rotation constants.
 Leave Link  601 at Sat Sep 28 21:17:46 2019, MaxMem=   671088640 cpu:              55.1 elap:              27.6
 (Enter /shared/centos7/gaussian/g16/l701.exe)
 SCFChk:  SCF convergence  4.72D-09 required  1.00D-08
 ... and contract with generalized density number  0.
 Compute integral second derivatives.
 Entering OneElI...
 Calculate overlap and kinetic energy integrals
    NBasis = 395  MinDer = 2  MaxDer = 2
 Requested accuracy = 0.1000D-12
 PrmmSu-InSpLW:  IPartL=    0 NPrtUS=   20 NPrtUL=    1 DoSpLW=F IThBeg=    0 IThEnd=   19 NThAct=   20.
 PrsmSu:  NPrtUS=  20 ThrOK=T IAlg=1 NPAlg=1 LenDen=           0 ISkipM=0 DoSpLW=F IThBeg=    0 IThEnd=   19.
 Prism:   IPart=     0 DynPar=F LinDyn=F Incr=           4.
 PRISM was handed    33317500 working-precision words and  8314 shell-pairs
 PRISM was handed    33317500 working-precision words and  8314 shell-pairs
 PRISM was handed    33317500 working-precision words and  8314 shell-pairs
 PRISM was handed    33317500 working-precision words and  8314 shell-pairs
 PRISM was handed    33317500 working-precision words and  8314 shell-pairs
 PRISM was handed    33317500 working-precision words and  8314 shell-pairs
 PRISM was handed    33317500 working-precision words and  8314 shell-pairs
 PRISM was handed    33317500 working-precision words and  8314 shell-pairs
 PRISM was handed    33317500 working-precision words and  8314 shell-pairs
 PRISM was handed    33317500 working-precision words and  8314 shell-pairs
 PRISM was handed    33317500 working-precision words and  8314 shell-pairs
 PRISM was handed    33317500 working-precision words and  8314 shell-pairs
 PRISM was handed    33317500 working-precision words and  8314 shell-pairs
 PRISM was handed    33317500 working-precision words and  8314 shell-pairs
 PRISM was handed    33317500 working-precision words and  8314 shell-pairs
 IPart=  0 NShTot=         460 NBatch=          81 AvBLen=         5.7
 PRISM was handed    33317500 working-precision words and  8314 shell-pairs
 IPart=  8 NShTot=         409 NBatch=          47 AvBLen=         8.7
 PRISM was handed    33317500 working-precision words and  8314 shell-pairs
 PRISM was handed    33317500 working-precision words and  8314 shell-pairs
 PRISM was handed    33317500 working-precision words and  8314 shell-pairs
 IPart= 11 NShTot=         405 NBatch=          44 AvBLen=         9.2
 IPart= 12 NShTot=         401 NBatch=          40 AvBLen=        10.0
 PRISM was handed    33317500 working-precision words and  8314 shell-pairs
 IPart=  4 NShTot=         440 NBatch=          65 AvBLen=         6.8
 IPart= 13 NShTot=         400 NBatch=          39 AvBLen=        10.3
 IPart=  5 NShTot=         433 NBatch=          63 AvBLen=         6.9
 IPart= 14 NShTot=         398 NBatch=          39 AvBLen=        10.2
 IPart=  1 NShTot=         455 NBatch=          78 AvBLen=         5.8
 IPart= 17 NShTot=         393 NBatch=          37 AvBLen=        10.6
 IPart= 10 NShTot=         407 NBatch=          46 AvBLen=         8.8
 IPart= 16 NShTot=         394 NBatch=          38 AvBLen=        10.4
 IPart=  6 NShTot=         428 NBatch=          58 AvBLen=         7.4
 IPart= 19 NShTot=         389 NBatch=          35 AvBLen=        11.1
 IPart= 15 NShTot=         395 NBatch=          39 AvBLen=        10.1
 IPart=  9 NShTot=         409 NBatch=          47 AvBLen=         8.7
 IPart=  3 NShTot=         445 NBatch=          69 AvBLen=         6.4
 IPart=  7 NShTot=         415 NBatch=          50 AvBLen=         8.3
 IPart= 18 NShTot=         391 NBatch=          36 AvBLen=        10.9
 IPart=  2 NShTot=         447 NBatch=          71 AvBLen=         6.3
 PrSmSu:  NxtVal=             81.
 Entering OneElI...
 Calculate potential energy integrals
    NBasis = 395  MinDer = 2  MaxDer = 2
 Requested accuracy = 0.1000D-12
 PrmmSu-InSpLW:  IPartL=    0 NPrtUS=   20 NPrtUL=    1 DoSpLW=F IThBeg=    0 IThEnd=   19 NThAct=   20.
 PrsmSu:  NPrtUS=  20 ThrOK=T IAlg=1 NPAlg=1 LenDen=           0 ISkipM=0 DoSpLW=F IThBeg=    0 IThEnd=   19.
 Prism:   IPart=     0 DynPar=F LinDyn=F Incr=          62.
 PRISM was handed    33362884 working-precision words and  7394 shell-pairs
 PRISM was handed    33362884 working-precision words and  7394 shell-pairs
 PRISM was handed    33362884 working-precision words and  7394 shell-pairs
 PRISM was handed    33362884 working-precision words and  7394 shell-pairs
 PRISM was handed    33362884 working-precision words and  7394 shell-pairs
 PRISM was handed    33362884 working-precision words and  7394 shell-pairs
 PRISM was handed    33362884 working-precision words and  7394 shell-pairs
 PRISM was handed    33362884 working-precision words and  7394 shell-pairs
 PRISM was handed    33362884 working-precision words and  7394 shell-pairs
 PRISM was handed    33362884 working-precision words and  7394 shell-pairs
 PRISM was handed    33362884 working-precision words and  7394 shell-pairs
 PRISM was handed    33362884 working-precision words and  7394 shell-pairs
 PRISM was handed    33362884 working-precision words and  7394 shell-pairs
 PRISM was handed    33362884 working-precision words and  7394 shell-pairs
 PRISM was handed    33362884 working-precision words and  7394 shell-pairs
 PRISM was handed    33362884 working-precision words and  7394 shell-pairs
 PRISM was handed    33362884 working-precision words and  7394 shell-pairs
 PRISM was handed    33362884 working-precision words and  7394 shell-pairs
 PRISM was handed    33362884 working-precision words and  7394 shell-pairs
 PRISM was handed    33362884 working-precision words and  7394 shell-pairs
 IPart=  5 NShTot=        6494 NBatch=         382 AvBLen=        17.0
 IPart=  8 NShTot=        6256 NBatch=         368 AvBLen=        17.0
 IPart= 17 NShTot=        5950 NBatch=         350 AvBLen=        17.0
 IPart= 10 NShTot=        6120 NBatch=         360 AvBLen=        17.0
 IPart= 14 NShTot=        6018 NBatch=         354 AvBLen=        17.0
 IPart= 13 NShTot=        6035 NBatch=         355 AvBLen=        17.0
 IPart=  4 NShTot=        6562 NBatch=         386 AvBLen=        17.0
 IPart=  1 NShTot=        6868 NBatch=         404 AvBLen=        17.0
 IPart= 16 NShTot=        6018 NBatch=         354 AvBLen=        17.0
 IPart=  0 NShTot=        6970 NBatch=         410 AvBLen=        17.0
 IPart= 18 NShTot=        5933 NBatch=         349 AvBLen=        17.0
 IPart=  2 NShTot=        6783 NBatch=         399 AvBLen=        17.0
 IPart= 15 NShTot=        6018 NBatch=         354 AvBLen=        17.0
 IPart= 19 NShTot=        5916 NBatch=         348 AvBLen=        17.0
 IPart=  3 NShTot=        6647 NBatch=         391 AvBLen=        17.0
 IPart= 12 NShTot=        6035 NBatch=         355 AvBLen=        17.0
 IPart= 11 NShTot=        6103 NBatch=         359 AvBLen=        17.0
 IPart=  9 NShTot=        6188 NBatch=         364 AvBLen=        17.0
 IPart=  7 NShTot=        6307 NBatch=         371 AvBLen=        17.0
 IPart=  6 NShTot=        6477 NBatch=         381 AvBLen=        17.0
 PrSmSu:  NxtVal=           1241.
 Polarizability after L701:
                1             2             3 
      1  0.000000D+00
      2  0.000000D+00  0.000000D+00
      3  0.000000D+00  0.000000D+00  0.000000D+00
 Dipole Derivatives after L701:
                 1             2             3             4             5 
      1  -0.236238D+00 -0.325144D-01 -0.319745D-02 -0.157492D+01  0.128830D+01
      2  -0.654771D-01 -0.211843D+00 -0.179528D-01  0.213410D+00 -0.431232D+00
      3  -0.860092D-01 -0.594661D-01 -0.979095D-01 -0.170678D+00 -0.231745D-01
                 6             7             8             9            10 
      1  -0.132810D+01  0.365244D+00  0.531343D-01 -0.578293D+00 -0.133358D+01
      2   0.376845D-01 -0.349719D-01  0.318261D+00  0.753347D-01 -0.209517D+00
      3  -0.354551D+00  0.421296D-01  0.794378D-01 -0.553396D+00 -0.304157D-01
                11            12            13            14            15 
      1  -0.101681D+01  0.665081D-01 -0.164927D+01  0.911909D+00  0.211652D+00
      2  -0.140191D+01  0.174315D-02  0.260082D+00 -0.125104D+01 -0.175890D-01
      3  -0.161711D+00 -0.925086D+00 -0.714341D-01  0.119693D+00 -0.891090D+00
                16            17            18            19            20 
      1  -0.601797D+00  0.343848D+00  0.117932D+00  0.188048D+00 -0.127166D+00
      2   0.163430D+00 -0.298587D+00  0.307463D+00 -0.606099D-01 -0.441754D+00
      3   0.138558D+00  0.291857D+00 -0.242789D+00  0.186039D+00  0.382950D+00
                21            22            23            24            25 
      1   0.852797D-01  0.780484D-01 -0.558174D-01  0.319074D+00 -0.780017D-01
      2   0.447760D+00  0.853783D-02  0.153431D+00 -0.376877D-01 -0.261424D+00
      3  -0.318605D+00 -0.978962D-01 -0.543950D-01  0.539190D+00  0.122689D+00
                26            27            28            29            30 
      1   0.307690D+00 -0.360918D+00  0.555231D-02  0.353156D+00  0.452740D+00
      2   0.518645D+00 -0.544015D+00 -0.124409D+00  0.515992D+00  0.588903D+00
      3  -0.185241D+00  0.350080D+00 -0.113756D+00  0.242706D+00  0.509370D+00
                31            32            33            34            35 
      1   0.132031D+01  0.505611D-01 -0.137158D+00  0.117125D+01  0.319407D+00
      2   0.470354D+00  0.150484D+00 -0.464960D-01 -0.237242D+00  0.659995D-01
      3   0.165765D-01  0.133052D-01  0.804522D-01 -0.223683D+00 -0.798132D-01
                36            37            38            39            40 
      1  -0.577722D+00 -0.109268D+00 -0.485424D+00 -0.303004D+00  0.359221D+00
      2   0.108920D+00  0.303987D+00  0.697978D+00  0.399500D+00 -0.165399D+00
      3   0.216570D+00  0.107416D+00  0.211694D+00  0.239024D+00  0.105295D+00
                41            42            43            44            45 
      1  -0.444792D+00  0.819145D+00  0.812355D-01  0.199569D+00 -0.264389D+00
      2   0.347104D+00 -0.504568D+00 -0.722105D-01  0.454211D+00 -0.384063D+00
      3  -0.178507D+00  0.494241D+00  0.134437D-01 -0.230912D+00  0.291125D+00
                46            47            48            49            50 
      1   0.147287D+00 -0.656080D+00  0.546978D+00  0.186688D+01 -0.100898D+01
      2  -0.491505D-01  0.436265D+00 -0.314327D+00 -0.139392D+00  0.377996D+00
      3   0.159494D-01 -0.322590D+00  0.323923D+00  0.457760D-01 -0.458323D-01
                51 
      1   0.933467D+00
      2  -0.100610D+00
      3   0.339451D+00
 Hessian after L701:
                1             2             3             4             5 
      1  0.332444D+01
      2 -0.187032D+01  0.170467D+02
      3 -0.659693D+00  0.458716D+00  0.142194D+02
      4  0.392631D+00  0.276459D-01 -0.195538D+00  0.313060D+01
      5  0.373086D-01 -0.213391D+00 -0.778376D-02  0.225054D+00  0.128584D+02
      6 -0.223197D+00 -0.712085D-02 -0.145573D+00  0.171755D+01  0.183564D+01
      7 -0.260371D+01  0.239348D+00  0.386475D+01  0.153531D+00  0.153861D-01
      8  0.250165D+00 -0.844996D+01  0.400842D-01  0.595540D-02 -0.729959D-01
      9  0.367571D+01  0.322726D-01 -0.599394D+01 -0.274951D-01 -0.456679D-02
     10 -0.827823D-01  0.382121D+00  0.898274D-01  0.742001D-01  0.466639D-01
     11  0.326155D+00  0.185311D+00  0.877080D-01  0.210969D-01 -0.484396D-01
     12  0.131463D+00  0.158300D+00 -0.161130D+00 -0.632196D-02 -0.122528D-02
     13  0.261087D+00 -0.423777D+00 -0.311100D-02  0.651371D-01 -0.168180D-01
     14 -0.354141D+00  0.541233D-01  0.107060D-01 -0.572816D-02 -0.413770D-01
     15  0.771469D-01 -0.669892D-01 -0.263690D+00 -0.576476D-02  0.189898D-02
     16 -0.174381D+01  0.199115D+01 -0.360176D+01 -0.182813D+00 -0.360556D+00
     17  0.205602D+01 -0.917479D+01 -0.858110D+00 -0.410136D+00  0.137711D+00
     18 -0.345264D+01 -0.790494D+00 -0.748419D+01  0.264703D+00  0.212531D+00
     19  0.102296D+00 -0.191066D+00  0.217886D+00 -0.119301D+01  0.203947D+01
     20 -0.199084D+00  0.768485D-01  0.123598D+00  0.204531D+01 -0.803827D+01
     21  0.209347D+00  0.151637D+00 -0.192145D-01 -0.354314D+01 -0.922719D+00
     22  0.561206D-01  0.313851D-01 -0.271968D+00  0.164207D-01  0.207343D-02
     23  0.254639D-01  0.208060D+00  0.186713D-01 -0.313054D-02 -0.138104D-01
     24 -0.264174D+00  0.369118D-01  0.148695D+00  0.263848D-01  0.438682D-02
     25 -0.400692D-01  0.380660D-01  0.583574D-01  0.599745D-02  0.577903D-02
     26  0.884184D-01  0.278579D-01  0.826227D-01  0.147493D-01  0.201894D-02
     27  0.164969D-01  0.152951D-01 -0.758728D-01 -0.123740D-01 -0.909114D-02
     28 -0.171700D-01  0.464634D-01  0.394025D-01  0.753284D-02  0.696872D-02
     29  0.575839D-01  0.380662D-01  0.784832D-01  0.133493D-01  0.169056D-02
     30  0.512845D-01  0.815177D-01  0.325115D-01  0.115476D-01  0.876073D-02
     31  0.141433D+00  0.610580D-01  0.431428D-01  0.138327D-01  0.779044D-02
     32  0.604274D-01 -0.295088D-01  0.145817D-01  0.313388D-02 -0.254813D-02
     33  0.281862D-01  0.784264D-02 -0.424554D-01 -0.169736D-02 -0.606036D-03
     34  0.132934D+00 -0.338479D-01  0.232933D-02  0.136063D-01  0.135078D-02
     35 -0.180025D-01 -0.398756D-01 -0.119601D-02  0.740876D-03 -0.321272D-02
     36 -0.166329D-01  0.317673D-02 -0.451741D-01 -0.508954D-02 -0.844494D-03
     37 -0.119588D-01 -0.390950D-01  0.381720D-01  0.589944D-02 -0.387237D-02
     38 -0.104366D+00  0.151534D-01 -0.417169D-01 -0.156806D-01 -0.325610D-02
     39  0.868381D-02 -0.121847D-02 -0.734939D-01 -0.922275D-02  0.227483D-02
     40  0.502273D-01 -0.585588D-01  0.880901D-01  0.101266D-01 -0.259406D-02
     41 -0.684379D-01 -0.104639D-01 -0.596889D-01 -0.706791D-02 -0.431131D-02
     42  0.936008D-01 -0.574804D-01  0.346352D-01  0.901484D-02 -0.445553D-03
     43 -0.107677D+00 -0.131682D+00  0.317317D+00  0.144370D+00 -0.738485D-01
     44 -0.150017D+00  0.322766D+00  0.496643D-01 -0.105194D+00 -0.395173D-01
     45  0.276585D+00 -0.319850D-02 -0.289161D-01  0.279622D-01 -0.125305D-01
     46  0.103222D+00 -0.653765D-01 -0.199010D-01 -0.362720D-01 -0.113061D+00
     47 -0.113552D+00 -0.490130D-01 -0.566486D-03 -0.152523D+00  0.193244D+00
     48  0.338716D-01 -0.180604D-01 -0.920002D-01  0.209050D+00  0.365228D-01
     49  0.427929D-01 -0.351943D-02 -0.730747D-02 -0.262179D+01 -0.181710D+01
     50 -0.236247D-01 -0.790989D-02  0.422573D-02 -0.165757D+01 -0.471196D+01
     51  0.139565D-01 -0.110725D-02 -0.957347D-02  0.154043D+01 -0.114220D+01
                6             7             8             9            10 
      6  0.116254D+02
      7 -0.244605D-01  0.154432D+02
      8  0.163857D-02 -0.958256D-01  0.194954D+02
      9 -0.780492D-01 -0.292568D+01 -0.357020D-01  0.195466D+02
     10 -0.116638D-01 -0.513949D+01  0.170198D+01 -0.408229D-01  0.136975D+02
     11  0.163177D-02  0.161007D+01 -0.227674D+01  0.447666D-01 -0.156369D+01
     12 -0.524291D-01 -0.529628D-01  0.201855D-01 -0.581040D+01 -0.196286D+00
     13 -0.147961D-01 -0.430684D+01 -0.223062D+01 -0.309327D+00 -0.119946D+00
     14 -0.145418D-02 -0.218736D+01 -0.379045D+01  0.247462D+00 -0.103069D+00
     15 -0.457348D-01 -0.348957D+00  0.275134D+00 -0.612375D+01 -0.117541D-02
     16  0.216460D+00  0.324936D+00  0.209669D+00  0.124700D+00  0.199454D+00
     17  0.227178D+00  0.218315D+00 -0.438454D-01  0.578060D-01  0.271158D+00
     18  0.257806D-01  0.150457D+00  0.542574D-01  0.817187D-02 -0.903348D-02
     19 -0.350692D+01  0.319499D+00  0.491077D-01  0.745063D-01  0.148777D+00
     20 -0.950650D+00  0.164495D-01 -0.136565D+00  0.187183D-01  0.521276D-01
     21 -0.653569D+01  0.122432D+00  0.707118D-02 -0.113663D+00  0.162765D-01
     22  0.669220D-02 -0.455210D+01  0.577084D-01 -0.537747D+00  0.902251D-01
     23  0.118521D-03  0.769228D-01 -0.469584D+01 -0.294668D+00 -0.100388D+00
     24 -0.108578D-01 -0.693470D+00 -0.283261D+00 -0.191112D+01  0.357830D-01
     25 -0.297134D-02  0.111332D+00 -0.339377D-01  0.294395D-01 -0.367960D+01
     26 -0.642572D-02  0.990281D-02 -0.190152D-01  0.711411D-01 -0.612493D+00
     27 -0.130696D-02  0.103721D-01  0.239889D-01  0.991941D-01  0.724448D+00
     28  0.104364D-02  0.680710D-01 -0.502009D-01 -0.308826D-01 -0.387826D+01
     29  0.111899D-04 -0.184149D-01 -0.610847D-01 -0.206957D-01 -0.339587D+00
     30 -0.700677D-02 -0.167401D-01 -0.118783D-01  0.103510D+00 -0.398986D+00
     31 -0.441674D-02 -0.199360D-02 -0.920416D-01  0.302259D-02 -0.126166D+01
     32 -0.303029D-03 -0.126079D+00  0.415628D-01  0.150945D-03  0.248200D+00
     33 -0.363364D-02 -0.139110D-01 -0.917774D-02  0.920216D-01 -0.247410D+00
     34 -0.636858D-02  0.935983D-02  0.640475D-01  0.320624D-01  0.374822D-02
     35 -0.878914D-03  0.100096D+00  0.569408D-01 -0.503454D-01  0.214319D-01
     36 -0.166794D-02  0.122175D-01 -0.300465D-01  0.744203D-01  0.195546D-02
     37 -0.226983D-02  0.111605D+00  0.630526D-01  0.334328D-01 -0.495624D-01
     38  0.666327D-02  0.628855D-02 -0.272699D-01 -0.708183D-01  0.215577D-01
     39 -0.298477D-02  0.731146D-02 -0.379560D-01  0.598846D-01  0.568448D-02
     40  0.409371D-04 -0.511340D-01  0.103323D+00 -0.610098D-01 -0.303501D-01
     41  0.511109D-03  0.103227D+00  0.389567D-01  0.458180D-01 -0.379740D-01
     42 -0.555799D-02 -0.496874D-01  0.242379D-01  0.102824D+00  0.182674D-01
     43 -0.229474D-01  0.629298D-01  0.129402D-01 -0.463199D-01  0.375900D-02
     44  0.598155D-02  0.728035D-01 -0.490064D-01 -0.392264D-01  0.261385D-01
     45 -0.873530D-01 -0.812514D-01 -0.293233D-01 -0.350110D-01 -0.106435D-01
     46  0.173565D+00  0.280932D-01 -0.145306D-01  0.112267D-01  0.967823D-02
     47  0.479569D-01 -0.313922D-01 -0.645894D-02 -0.504464D-02 -0.102429D-01
     48  0.446873D-01  0.299566D-01 -0.896501D-02 -0.137305D-01  0.181497D-01
     49  0.170466D+01  0.227188D-01 -0.787794D-03 -0.482203D-02  0.143208D-01
     50 -0.116050D+01 -0.973525D-02 -0.367742D-02  0.293128D-02 -0.394063D-02
     51 -0.471804D+01  0.962118D-02 -0.287635D-03 -0.693155D-02  0.562952D-02
               11            12            13            14            15 
     11  0.120757D+02
     12 -0.320668D+00  0.150520D+02
     13  0.144835D-01 -0.113402D-02  0.128296D+02
     14  0.255383D+00  0.624208D-01  0.166490D+01  0.129316D+02
     15  0.136639D-01 -0.122996D+00  0.376433D-01  0.903317D-01  0.151287D+02
     16  0.247816D+00  0.168492D-01  0.233738D+00 -0.867408D-01  0.173123D-01
     17 -0.166441D-01  0.115881D-01 -0.128458D+00 -0.126631D+00  0.112929D-01
     18 -0.100861D-02 -0.189480D+00 -0.134266D-01  0.120425D-01 -0.154159D+00
     19  0.325729D-01  0.236023D-01  0.102469D+00 -0.309214D-01  0.180311D-01
     20 -0.775508D-01  0.106524D-01 -0.551769D-01 -0.547181D-01 -0.307802D-02
     21  0.738462D-02 -0.829908D-01  0.835577D-02  0.236203D-02 -0.607678D-01
     22 -0.935985D-01  0.294558D-01  0.132989D-01  0.206306D+00  0.172565D+00
     23 -0.100108D+00  0.105191D+00  0.209180D+00  0.771100D-01 -0.172837D+00
     24  0.124975D+00  0.103038D+00  0.229546D+00 -0.221058D+00  0.922762D-01
     25 -0.447126D+00  0.597511D+00 -0.255112D-01 -0.293012D-01  0.112412D-01
     26 -0.322642D+01 -0.115680D+01 -0.259700D-01  0.583492D-01 -0.270643D-01
     27 -0.100716D+01 -0.251922D+01  0.599820D-02 -0.285077D-01 -0.190188D-01
     28 -0.245707D+00 -0.297835D+00 -0.423906D-01 -0.294318D-01 -0.135483D-01
     29 -0.313719D+01  0.117432D+01 -0.345834D-01  0.119014D+00  0.650302D-01
     30  0.109453D+01 -0.237395D+01 -0.149566D-01  0.786734D-01 -0.133718D-01
     31  0.107328D+00 -0.281032D+00  0.610479D-02  0.411417D-01 -0.956606D-03
     32 -0.384452D+01 -0.359848D-01  0.144394D-01  0.144475D-01  0.529463D-03
     33 -0.175455D-01 -0.376185D+01 -0.886058D-03 -0.998170D-03 -0.237698D-01
     34  0.112151D-01  0.108545D-01 -0.194859D+01  0.563745D+00 -0.109744D+01
     35 -0.229551D-01 -0.326346D-01  0.424669D+00 -0.371161D+01 -0.226433D+00
     36 -0.179336D-01 -0.936893D-02 -0.104229D+01 -0.291648D+00 -0.315809D+01
     37  0.139719D-01  0.506971D-02 -0.359882D+01  0.672202D+00  0.446536D+00
     38  0.148977D+00  0.531032D-01  0.880850D+00 -0.249086D+01  0.102551D+01
     39  0.556415D-01 -0.315347D-01  0.549350D+00  0.946377D+00 -0.325798D+01
     40 -0.369873D-01  0.111190D-01 -0.351704D+01 -0.325151D+00  0.698947D+00
     41  0.876767D-01 -0.405317D-01 -0.294681D+00 -0.326867D+01 -0.974917D+00
     42 -0.524948D-01 -0.196900D-01  0.594493D+00 -0.896693D+00 -0.195657D+01
     43  0.968952D-02  0.000000D+00  0.312924D-01  0.796065D-02 -0.178574D-01
     44  0.331882D-02 -0.276026D-02  0.198366D-01 -0.181655D-01 -0.531656D-02
     45 -0.548909D-02 -0.125606D-01 -0.367636D-01 -0.945657D-02 -0.160924D-01
     46 -0.343013D-02  0.813971D-02  0.714842D-02 -0.619479D-02  0.431771D-02
     47 -0.508486D-02 -0.456577D-02 -0.131010D-01 -0.352333D-02 -0.553644D-02
     48 -0.554331D-02 -0.484544D-02  0.807957D-02 -0.190242D-02 -0.337255D-02
     49 -0.386386D-02  0.150770D-02  0.924304D-02  0.178161D-02  0.196140D-02
     50 -0.708319D-03 -0.594770D-03 -0.517139D-02 -0.399021D-02 -0.122228D-02
     51 -0.246293D-02 -0.255655D-02  0.323045D-02  0.134210D-02 -0.159858D-02
               16            17            18            19            20 
     16  0.806430D+01
     17  0.220137D+01  0.223945D+02
     18  0.266738D+01  0.449778D+01  0.228987D+02
     19 -0.293688D+01 -0.450920D+01  0.655076D+00  0.792461D+01
     20 -0.438229D+01 -0.992079D+01 -0.267871D+01  0.206968D+01  0.211646D+02
     21  0.653757D+00 -0.272783D+01 -0.122538D+02  0.275674D+01  0.479182D+01
     22 -0.417509D-01 -0.674249D-01 -0.391680D-01  0.322982D-01 -0.116585D-01
     23 -0.593891D-01 -0.359731D-01 -0.340683D-01 -0.165216D-01 -0.206927D-01
     24  0.801784D-02 -0.427950D-01 -0.220638D-01  0.454999D-01 -0.936891D-02
     25  0.433140D-02  0.236544D-01 -0.850778D-02  0.548590D-02  0.723213D-02
     26  0.380967D-01  0.178953D-01 -0.140941D-01  0.246846D-01 -0.292201D-02
     27 -0.196407D-01 -0.239331D-01 -0.137643D-01 -0.212771D-01 -0.725767D-02
     28  0.450449D-02  0.172020D-01  0.288577D-02  0.149530D-01  0.100503D-01
     29  0.249435D-01  0.885109D-02  0.709299D-02  0.245201D-01 -0.273262D-02
     30  0.165331D-01  0.184875D-01 -0.730364D-02  0.262788D-01  0.957217D-02
     31  0.196465D-01  0.108865D-01  0.115092D-03  0.232266D-01  0.313837D-02
     32  0.714458D-02 -0.541535D-02 -0.333155D-03  0.519013D-02 -0.451581D-02
     33  0.137196D-03  0.878276D-04 -0.894917D-02 -0.536378D-03  0.665256D-03
     34  0.266048D-01 -0.887513D-04 -0.508026D-02  0.261213D-01 -0.619651D-02
     35  0.273226D-02 -0.943530D-02 -0.177105D-03  0.963351D-04 -0.496438D-02
     36 -0.731086D-02 -0.460149D-04 -0.878165D-02 -0.758628D-02  0.156092D-02
     37  0.153097D-01 -0.318788D-01 -0.117346D-01  0.898961D-02 -0.107252D-01
     38 -0.580541D-01  0.982341D-02  0.163072D-01 -0.309491D-01  0.713555D-02
     39 -0.261637D-01  0.197268D-01 -0.236306D-01 -0.129573D-01  0.778918D-02
     40  0.339754D-01 -0.165502D-01  0.119952D-01  0.149134D-01 -0.883008D-02
     41 -0.219159D-01 -0.942159D-02 -0.495193D-02 -0.133655D-01 -0.994019D-03
     42  0.252856D-01 -0.849447D-02 -0.659738D-02  0.165836D-01 -0.627479D-02
     43 -0.446334D+01  0.813460D-01 -0.248532D-01  0.428017D-01  0.288235D+00
     44  0.137261D-01 -0.300652D+01 -0.155806D+01  0.302933D+00 -0.222648D+00
     45  0.460955D-01 -0.146735D+01 -0.287196D+01 -0.131828D+00  0.196506D+00
     46  0.159715D+00  0.379311D+00 -0.222366D+00 -0.450455D+01  0.258744D-01
     47  0.331015D+00 -0.181209D+00  0.290458D+00  0.197575D+00 -0.280778D+01
     48 -0.192100D+00  0.298129D+00  0.175261D+00 -0.178263D+00 -0.149788D+01
     49  0.282088D+00 -0.955278D-01  0.342022D-01 -0.131997D+00  0.155869D+00
     50 -0.987172D-01 -0.380697D-01 -0.857287D-02  0.461919D-01  0.465198D-01
     51  0.544487D-01 -0.135213D-01 -0.633048D-01  0.251662D-01 -0.765469D-02
               21            22            23            24            25 
     21  0.221423D+02
     22  0.103531D-01  0.433186D+01
     23 -0.415145D-02 -0.156780D+00  0.464763D+01
     24 -0.121137D-01  0.724836D+00  0.428217D+00  0.146249D+01
     25 -0.427853D-02 -0.294323D-01  0.180591D-01 -0.210282D-01  0.364556D+01
     26 -0.412746D-02  0.211276D-01  0.435947D-01 -0.903530D-01  0.348422D+00
     27 -0.824524D-02 -0.204077D-01 -0.700888D-01  0.486594D-01 -0.507997D+00
     28  0.748978D-02  0.216733D-01 -0.461581D-01  0.579202D-02  0.114838D+00
     29  0.748730D-02 -0.404942D-01 -0.767727D-01  0.994001D-02 -0.956907D-02
     30 -0.250687D-02  0.261744D-02  0.877750D-02  0.342161D-01 -0.173034D-01
     31  0.867847D-03  0.295590D-01  0.316361D-01 -0.394037D-01 -0.129375D+00
     32  0.714364D-03  0.289243D-01  0.286403D-02 -0.216189D-01  0.898454D-01
     33 -0.552344D-02 -0.226362D-01 -0.147989D-01  0.446176D-03 -0.134072D+00
     34 -0.196807D-02  0.529038D-01 -0.190159D-01 -0.840464D-01  0.630748D-02
     35  0.391137D-05 -0.194320D-01 -0.250963D-01  0.187638D-01 -0.129329D-01
     36 -0.486291D-02 -0.616514D-01  0.142644D-01  0.343885D-01 -0.199786D-02
     37 -0.278796D-02 -0.121896D-01 -0.119883D-01 -0.137749D-01 -0.123721D-02
     38  0.381129D-02 -0.141635D-01  0.105658D-01  0.438742D-01 -0.253643D-02
     39 -0.886898D-02 -0.131656D-01  0.264229D-01  0.220903D-01 -0.675108D-03
     40  0.506941D-02 -0.259114D-01  0.438727D-01  0.673488D-02 -0.439405D-03
     41 -0.277948D-02  0.409117D-01 -0.127529D-01 -0.435228D-02 -0.220577D-02
     42 -0.169854D-02  0.103597D-01 -0.710935D-02  0.196303D-01  0.246313D-02
     43 -0.137646D+00  0.986243D-02  0.133318D-01  0.179063D-01  0.124449D-02
     44  0.198241D+00  0.201578D-01 -0.840211D-02  0.174597D-01  0.536141D-02
     45  0.124196D+00  0.199505D-02  0.584957D-03 -0.195308D-01 -0.275295D-02
     46 -0.251428D-01  0.454903D-02 -0.374529D-02  0.894638D-02  0.979741D-02
     47 -0.151181D+01 -0.422422D-02 -0.196019D-03 -0.863525D-02  0.114857D-02
     48 -0.323853D+01  0.660614D-02 -0.388130D-02  0.732432D-02  0.246117D-02
     49 -0.757310D-01  0.261498D-02 -0.134964D-02  0.645070D-02  0.768923D-03
     50  0.288463D-02 -0.818148D-03 -0.176231D-03 -0.308695D-02  0.415544D-04
     51  0.819187D-01  0.126390D-02 -0.645585D-03  0.243022D-02  0.110798D-03
               26            27            28            29            30 
     26  0.287258D+01
     27  0.109661D+01  0.269661D+01
     28 -0.914873D-02 -0.522911D-01  0.378559D+01
     29  0.129977D+00 -0.678304D-02  0.212865D+00  0.288598D+01
     30  0.531774D-02 -0.248524D+00  0.166910D+00 -0.125000D+01  0.247267D+01
     31  0.108726D+00 -0.121585D+00 -0.841181D-01  0.111709D+00  0.173102D+00
     32  0.693578D-01  0.323741D-01  0.914605D-01  0.841235D-01 -0.564434D-01
     33  0.468773D-01  0.551695D-01  0.172236D+00 -0.712125D-01  0.763436D-02
     34 -0.242546D-01  0.645995D-02  0.189417D-02 -0.113698D-01 -0.919406D-02
     35  0.166432D-01 -0.272522D-02 -0.367361D-02  0.444411D-02  0.472842D-02
     36  0.262406D-02 -0.895440D-02 -0.453622D-02  0.933286D-02  0.384364D-02
     37  0.265011D-02 -0.771310D-03  0.412914D-04  0.232418D-02  0.145289D-02
     38  0.425815D-02 -0.470142D-02 -0.838938D-03 -0.202491D-02  0.279763D-02
     39  0.241399D-02 -0.265422D-02 -0.749664D-03  0.621439D-03  0.188636D-02
[...]
   yy         0.617442D+02      0.914954D+01      0.101802D+02
   zx        -0.110673D+01     -0.164001D+00     -0.182475D+00
   zy        -0.181504D+01     -0.268961D+00     -0.299260D+00
   zz         0.590204D+02      0.874592D+01      0.973114D+01

 ----------------------------------------------------------------------

 Test job not archived.
 1\1\GINC-C0320\Freq\RM062X\CC-pVTZ\C5H10O2\HARMS.N\29-Sep-2019\0\\#P G
 eom=AllCheck Guess=TCheck SCRF=Check Test GenChk RM062X/CC-pVTZ Freq\\
 Gaussian input prepared by ASE\\0,1\O,4.1475127018,-0.3956435688,2.822
 1455923\O,1.2029751535,-0.8616304655,0.8014797673\C,5.0013073144,0.747
 8646122,2.8803263654\C,6.0643478314,0.4349602514,3.9108516953\C,4.2054
 637325,1.9942682276,3.2249317267\C,3.2969992992,-0.4134774933,1.756591
 0991\C,2.044425688,-0.8212699424,1.8825494086\H,5.4677900697,0.8728657
 035,1.8950472679\H,5.5984832994,0.2828473639,4.8847457288\H,6.60327902
 82,-0.4710240357,3.6398630845\H,6.7728804007,1.2587208903,3.9888791354
 \H,3.7362847965,1.8720121955,4.2020519831\H,3.4234374556,2.1738744315,
 2.4878426011\H,4.8582398255,2.8664134212,3.2570365037\H,3.7016538479,-
 0.1112802644,0.7944087251\H,1.6470936087,-1.1121764626,2.8474451388\H,
 0.5174663524,-1.5131746331,0.9565404752\\Version=EM64L-G16RevA.03\Stat
 e=1-A\HF=-346.940684\RMSD=5.704e-09\RMSF=6.872e-07\ZeroPoint=0.1464583
 \Thermal=0.1553569\Dipole=-0.1097597,0.0530128,0.1980382\DipoleDeriv=-
 1.2567266,-0.4753404,-0.3961772,-0.2934818,-0.6386169,-0.1255483,-0.70
 6665,-0.289091,-0.7524701,-1.1033837,-0.2163378,-0.3566789,0.0196643,-
 0.2957627,-0.0850908,-0.7675338,-0.2965259,-0.7654676,0.7893275,0.2327
 217,0.1740424,0.3391235,0.7416748,0.1973764,0.0363104,0.0677174,0.3659
 639,-0.0281361,0.0112197,-0.08298,0.0290664,0.0276332,0.0097653,-0.082
 1316,-0.0068178,0.0122908,-0.0593174,0.1146319,-0.0286177,0.0017661,-0
 .1224736,-0.0665534,-0.014019,-0.018606,0.0405075,0.6061003,0.2651321,
 0.2218662,-0.0389548,-0.1619225,-0.0922111,0.7178625,0.2707963,0.58779
 01,0.6990731,0.2295084,0.3104443,0.0542715,-0.1278232,-0.0213788,0.733
 6727,0.160632,0.5590868,-0.0484104,-0.0076569,0.0210802,-0.020411,-0.0
 298391,-0.0398084,0.0919353,0.0284257,-0.1672213,0.0104799,-0.0089425,
 0.0988859,0.0119583,0.0652921,0.021599,0.0251095,0.0198612,-0.075739,0
 .0140811,0.0736669,-0.0008748,0.1098575,-0.0557796,-0.0129187,0.014393
 ,-0.0416569,0.0384463,-0.0222928,-0.0750997,-0.0319902,-0.1104948,-0.0
 504107,-0.0140883,-0.0190965,0.0067666,0.0499483,0.0286345,0.0143191,0
 .0574698,-0.0086572,0.0440842,0.0567691,0.067369,-0.0080077,-0.0791974
 ,-0.0389714,0.0542521,-0.0684337,0.0468983,0.0660602,0.0118486,-0.0788
 536,0.0169339,-0.0200129,-0.0069446,-0.1115204,0.0019659,-0.092764,-0.
 0616259,-0.0286215,0.0004619,-0.0173059,0.0656261,0.001602,-0.0594325,
 0.0412143,0.0170796,0.1621243,0.0847841,-0.0124735,0.020264,-0.0577974
 ,0.0204554,-0.0502598,-0.0009349,0.0007706,0.1660133,0.0548253,-0.0038
 181,0.0367139,-0.0682054,0.3944293,0.0091381,0.0397185,-0.0656924,0.27
 13721,0.0492515,-0.0025232,0.0499001,0.2664513\Polar=83.716688,11.4624
 156,62.0690487,9.3521326,3.3897793,63.1687126\Quadrupole=3.5272205,-0.
 4343439,-3.0928766,4.9559131,-0.8930778,0.7691449\PG=C01 [X(C5H10O2)]\
 NImag=0\\0.34625729,0.14203468,0.27768638,0.17395558,-0.02256109,0.337
 28650,-0.01555424,-0.00884708,-0.00784168,0.48272123,-0.00718061,0.006
 45249,0.00016217,0.29500189,0.29262380,-0.00947364,-0.00145588,-0.0069
 5247,0.10135726,-0.08026275,0.31211094,-0.10908399,-0.05637810,-0.0061
 5296,0.00469141,0.00023857,0.00502862,0.51649351,-0.07278025,-0.162448
 60,0.00911953,0.00523532,0.00185276,0.00327927,-0.02152837,0.46909717,
 0.00775773,0.02704309,-0.08293756,-0.00192608,0.00092524,-0.00070689,-
 0.02057392,-0.02031387,0.61151275,-0.02829878,-0.00587256,-0.02439748,
 -0.00057223,-0.00014736,-0.00009939,-0.13586876,0.02177682,-0.05561166
 ,0.54595561,-0.03172479,-0.00143823,-0.02735102,-0.00130752,-0.0001726
 3,-0.00058734,0.03143390,-0.08450193,0.02916701,0.01362554,0.59219831,
 -0.00604231,-0.00242541,-0.00166987,0.00016155,0.00001922,0.00005017,-
 0.06426527,0.02096428,-0.14840714,-0.04209500,0.01649300,0.53659958,0.
 00719815,-0.02962606,-0.00915369,-0.00086573,0.00029149,-0.00067128,-0
 .12198919,0.06334127,0.01781364,-0.01640479,0.02399602,0.00485010,0.56
 130632,0.00128227,-0.04388439,-0.01119340,-0.00107879,-0.00009295,-0.0
 0095727,0.05497716,-0.14562978,-0.02189428,0.01050848,-0.00687155,0.00
 123678,0.04523902,0.51811536,-0.00162773,-0.00328139,0.00318528,0.0001
 6668,0.00003903,0.00001522,0.01844476,-0.02530629,-0.09267683,-0.01376
 561,0.02107574,0.00606312,0.01652653,-0.02136494,0.57505402,-0.1636932
 3,-0.02981122,-0.10480297,-0.02626439,-0.00773254,-0.00852426,-0.03706
 687,-0.01216046,-0.02634815,-0.00239789,-0.00410638,-0.00051129,0.0043
 8878,0.00200170,0.00095009,0.83714769,-0.01023019,-0.06462326,0.031002
 90,-0.00185038,0.00576373,-0.00370984,-0.02077301,-0.00255250,-0.02792
 111,-0.00210074,-0.00369660,0.00013263,-0.00257172,-0.00267835,-0.0008
 6534,0.24370230,0.23398468,-0.12349245,0.00900008,-0.22940394,-0.03795
 657,-0.01591459,0.01122146,-0.01646930,-0.01683108,-0.00899738,0.00190
 603,0.00186564,-0.00057700,0.00311787,0.00243624,0.00026629,-0.0137981
 9,-0.10021470,0.61559052,-0.02936295,-0.00593592,-0.01189822,-0.176073
 47,-0.04184026,-0.09904586,0.00061718,0.00272350,0.00115078,0.00025497
 ,0.00002446,-0.00002320,0.00005335,0.00069764,-0.00035181,-0.50665538,
 -0.15882514,0.06454078,0.84390455,0.00117064,0.00446392,-0.00204948,-0
 .02109362,-0.05388413,0.02591719,-0.00094107,-0.00174807,-0.00039536,0
 .00018767,0.00015019,-0.00011313,0.00010388,0.00030461,0.00029355,-0.1
 5830821,-0.11057073,0.03383625,0.24221889,0.21859192,-0.03491075,-0.01
 466959,0.00806016,-0.13195136,-0.00007090,-0.23943372,-0.00482161,0.00
 202926,-0.00259914,-0.00121771,-0.00121471,0.00044349,0.00035927,0.000
 38798,0.00041440,0.06136789,0.03422540,-0.12893814,-0.01869746,-0.1019
 9078,0.63187828,-0.01859520,-0.01686986,0.01501635,-0.00030068,-0.0002
 1355,-0.00031385,-0.09125544,-0.00567454,0.08848790,0.01031412,0.00332
 448,-0.02302538,-0.00722122,0.00123413,0.01758661,0.00240666,-0.000404
 92,0.00609625,-0.00033758,0.00018864,-0.00062897,0.10648441,-0.0263256
 3,-0.01715913,0.02374015,-0.00036126,-0.00020458,-0.00030106,-0.005708
 04,-0.04990556,0.01546935,-0.00146158,-0.00001100,0.00686755,0.0132604
 5,0.00243888,-0.02584777,0.00327971,0.00040949,0.00516573,-0.00032021,
 0.00005317,-0.00039128,0.01495290,0.06565570,0.00150438,0.00439741,0.0
 0288376,0.00034407,-0.00008047,0.00014578,0.09160400,0.01965190,-0.252
 35350,0.00797011,0.00201067,-0.02063683,0.00302682,0.00024708,-0.00676
 141,-0.00234692,-0.00120464,0.00219164,-0.00004694,-0.00003740,0.00053
 738,-0.10001775,-0.02407402,0.27258474,0.00193567,0.00099220,0.0016321
 0,0.00011281,0.00003338,0.00007160,0.00978597,0.00390211,-0.02344953,-
 0.09850639,-0.01591714,0.10655279,0.00162021,-0.00085806,-0.00062869,-
 0.00012045,0.00005333,-0.00060157,-0.00002012,-0.00004145,0.00015430,-
 0.00292642,0.00081887,-0.00338226,0.10459614,0.00031961,0.00038259,-0.
 00065014,0.00009187,0.00000951,0.00008610,-0.00393558,-0.00239948,0.00
 691828,-0.01497026,-0.05258792,0.03266481,-0.00093846,0.00006852,0.000
 61898,-0.00012373,-0.00010286,-0.00026098,0.00000241,-0.00000343,-0.00
 006979,0.00123103,0.00043405,0.00086428,0.01580253,0.05224009,0.000659
 91,-0.00008128,0.00200528,-0.00006857,0.00002111,-0.00001870,0.0109283
 2,0.00435888,-0.02514857,0.10429311,0.03254558,-0.25882195,0.00098197,
 -0.00098993,0.00104103,-0.00015876,-0.00018294,0.00017184,0.00003956,-
 0.00003760,0.00011464,-0.00407036,0.00079462,-0.00171809,-0.11255337,-
 0.03778268,0.28370024,0.00212409,-0.00038458,0.00121472,0.00016836,0.0
 0004169,0.00012377,-0.01284015,0.02022459,0.00744756,-0.11255166,0.110
 49888,0.03470676,-0.00296938,-0.00026821,-0.00421022,-0.00009357,-0.00
 018438,-0.00039749,0.00005031,-0.00003879,0.00000018,0.00086246,-0.000
 63906,0.00006033,-0.00717477,0.01139562,0.00264826,0.12023054,-0.00065
 829,0.00116457,-0.00011858,0.00010756,-0.00001537,0.00010793,0.0020668
 2,-0.00725304,-0.00238010,0.11283635,-0.23659689,-0.05825749,0.0009321
 5,0.00057797,0.00202097,-0.00006110,0.00028589,0.00000277,-0.00013905,
 0.00005241,-0.00006112,-0.00015393,0.00012822,0.00036442,-0.00336836,0
 .00504643,0.00127079,-0.12406646,0.25468119,0.00202429,0.00000490,0.00
 090417,0.00009049,0.00002513,0.00005199,-0.01247452,0.02182085,0.00624
 050,0.03604935,-0.06051372,-0.06649743,-0.00329459,-0.00008263,-0.0031
 5701,0.00007727,0.00008659,-0.00015742,0.00002478,0.00000563,0.0000082
 4,0.00091286,0.00010690,0.00100371,0.01294493,-0.02476831,-0.00647851,
 -0.03585015,0.06319136,0.06933785,-0.00409581,0.00054061,-0.00538762,-
 0.00047445,-0.00002585,-0.00027457,-0.01235826,-0.01810260,0.00374118,
 -0.16149814,-0.13177743,-0.01302050,0.00059267,-0.00056015,0.00067014,
 -0.00014459,-0.00081769,0.00092168,0.00009610,0.00001002,-0.00018895,0
 .00074888,0.00016562,-0.00021547,-0.00899501,-0.00931236,-0.00194173,0
 .01223430,0.01229548,0.00079717,0.17383205,0.00117891,0.00096230,0.000
 63118,-0.00004758,-0.00007739,-0.00009058,0.00522093,0.00388904,-0.000
 21233,-0.13438390,-0.20366436,-0.01393970,0.00003809,-0.00017546,0.000
 03550,0.00052679,0.00064244,0.00048663,-0.00001632,0.00004196,0.000121
 05,-0.00043253,0.00025992,-0.00044493,-0.00111725,-0.00301634,-0.00034
 795,-0.01797623,-0.01814057,-0.00085272,0.14654872,0.21891511,-0.00507
 757,0.00028050,-0.00434491,-0.00038546,-0.00006182,-0.00017786,-0.0113
 9622,-0.01882224,0.00038078,-0.01192178,-0.01217176,-0.04828587,0.0005
 3424,-0.00028959,0.00048165,-0.00090637,-0.00076679,0.00125340,0.00001
 365,0.00001854,-0.00036134,0.00102097,-0.00021057,0.00021115,0.0183548
 9,0.02260710,0.00385764,-0.00586186,-0.00567094,-0.00186327,0.01541102
 ,0.01463961,0.04890982,0.00156896,-0.00057355,-0.00160095,-0.00001520,
 0.00005129,0.00000211,-0.01031337,-0.00297230,0.01795559,0.00059041,-0
 .00100430,0.00095015,-0.09506583,-0.01350177,0.10088950,-0.00013819,0.
 00022415,-0.00001359,-0.00005799,0.00004655,0.00013786,-0.00103706,0.0
 0341580,0.00037314,-0.00017722,0.00049566,-0.00061923,0.00029112,-0.00
 007482,-0.00038320,-0.00007687,0.00001904,0.00004317,0.10134975,-0.000
 42397,0.00290739,0.00175360,0.00013014,0.00000627,0.00014382,0.0140520
 3,0.00188452,-0.02722930,-0.00107608,0.00116852,-0.00105516,-0.0149243
 8,-0.05025986,0.03053311,-0.00042580,0.00010303,-0.00041610,-0.0000513
 7,0.00003216,-0.00010210,0.00309824,-0.00443814,-0.00124603,-0.0000478
 1,0.00000036,0.00070142,-0.00031347,0.00003972,0.00005731,-0.00000909,
 0.00000632,0.00014975,0.01192723,0.05258960,-0.00142674,0.00006431,0.0
 0104015,-0.00022286,0.00003755,-0.00007482,0.00484477,0.00088803,-0.00
 933706,-0.00092476,0.00028113,0.00098925,0.10177592,0.02942702,-0.2627
 7512,0.00001327,-0.00017059,-0.00020813,0.00024718,-0.00002735,0.00006
 589,0.00059600,-0.00148113,0.00100566,0.00043640,-0.00002393,0.0005936
 6,-0.00017047,-0.00007468,0.00019114,-0.00005324,-0.00012602,-0.000007
 27,-0.11348660,-0.03120858,0.28420852,0.00055400,-0.00088031,0.0003984
 0,-0.00013954,-0.00000408,-0.00015542,-0.01378066,0.00130709,-0.012819
 08,-0.00099082,0.00325283,0.00214666,-0.18478412,0.03162179,-0.1311242
 9,0.00030476,-0.00060100,-0.00027237,0.00028006,-0.00021620,0.00031273
 ,0.00029471,-0.00042517,0.00015654,0.00005309,0.00003792,-0.00014542,-
 0.00052510,0.00040363,-0.00103466,0.00036565,-0.00005854,0.00022574,0.
 01133937,-0.00242514,0.01006417,0.20012399,-0.00109669,0.00252773,-0.0
 0016864,0.00042426,-0.00007768,0.00038169,0.02023046,-0.00431467,0.021
 37253,0.00208764,-0.00482622,-0.00258512,0.02983269,-0.05344517,0.0284
 6325,0.00035739,-0.00081273,-0.00008081,-0.00105377,-0.00019864,-0.000
 55652,-0.00090964,0.00093948,-0.00022050,-0.00019402,0.00003923,-0.000
 23314,0.00144354,-0.00026789,0.00108793,0.00017064,0.00026203,-0.00006
 680,0.00281647,-0.00167511,0.00252863,-0.03602060,0.05685410,-0.000066
 72,0.00134490,-0.00000359,0.00000742,-0.00006028,-0.00007109,0.0074010
 9,-0.00090342,0.00628534,0.00045362,-0.00134416,0.00023900,-0.13171692
 ,0.02977608,-0.17453532,-0.00061834,-0.00106130,0.00000847,0.00036247,
 -0.00033285,-0.00025211,-0.00016903,0.00084285,0.00065124,0.00013648,-
 0.00032341,0.00040149,0.00015950,-0.00034736,0.00057079,-0.00002451,-0
 .00009856,-0.00017275,-0.02114465,0.00378742,-0.01831368,0.14413038,-0
 .03094951,0.18583306,0.00018504,0.00555993,0.00113915,0.00006125,-0.00
 007124,-0.00000715,0.01081286,0.01221922,-0.00065470,0.00013568,-0.000
 36893,-0.00018859,-0.14578169,-0.13112166,-0.00397533,-0.00081889,-0.0
 0017828,-0.00063157,0.00047196,-0.00005457,0.00003974,0.00052062,-0.00
 100591,0.00009320,-0.00001309,-0.00000208,-0.00010389,0.00023360,-0.00
 013473,0.00013724,-0.00021183,0.00050762,-0.00011465,-0.00820950,-0.00
 954535,-0.00171801,-0.01302059,-0.01811121,0.00107107,0.15566895,0.001
 65164,-0.00739669,-0.00344579,-0.00052561,0.00000038,-0.00043808,-0.01
 963097,-0.01691256,0.00155752,-0.00099959,0.00080059,0.00017490,-0.128
 90028,-0.21859807,-0.00645513,0.00196831,0.00023179,0.00217999,-0.0001
 1394,0.00013762,0.00029540,0.00026303,0.00088916,-0.00059159,0.0000818
 2,-0.00007119,-0.00005375,0.00017833,0.00038362,-0.00019274,0.00085871
 ,0.00008314,0.00030786,-0.00082170,-0.00227729,-0.00005052,0.00383068,
 0.00524641,-0.00048954,0.14213193,0.23748328,0.00003354,-0.00243452,0.
 00043521,-0.00017609,-0.00004347,-0.00010534,-0.00581161,-0.00471478,-
 0.00200727,-0.00015728,0.00023071,-0.00002392,-0.00370480,-0.00629114,
 -0.04653608,0.00024739,-0.00031989,0.00053954,0.00033670,0.00007416,-0
 .00003852,-0.00013025,0.00045592,-0.00013935,0.00010196,0.00009617,0.0
 0002252,0.00001122,-0.00005111,-0.00015741,-0.00023619,0.00024920,0.00
 022403,0.01687839,0.02397548,0.00249634,-0.01209534,-0.01871453,-0.000
 46591,0.00478655,0.00745373,0.04572551,0.00549884,0.00369290,-0.025013
 88,0.00142270,0.00250197,-0.00017658,0.00362205,0.00308499,-0.00299340
 ,-0.00015306,0.00006181,-0.00013718,-0.00027656,-0.00046194,0.00042030
 ,-0.10201712,-0.03715300,0.09596705,-0.00428922,-0.00861513,0.02710540
 ,-0.00016903,0.00018367,0.00120283,-0.00011578,-0.00006236,0.00015500,
 -0.00000641,0.00002906,-0.00002479,-0.00005900,-0.00004074,0.00005770,
 -0.00009104,0.00011762,0.00004763,-0.00007483,0.00011628,0.00004110,-0
 .00001987,-0.00009749,-0.00007962,0.10022003,-0.00038063,0.00341852,0.
 00250730,0.00362701,-0.00453163,-0.00012692,0.00083627,0.00090229,-0.0
 0217520,-0.00001758,0.00005392,-0.00016386,0.00001852,0.00007826,0.000
 01431,-0.03834079,-0.06241962,0.06778079,-0.00220074,0.00665833,0.0092
 1354,0.00024605,0.00044986,0.00025497,-0.00012602,-0.00005193,0.000030
 45,0.00005209,-0.00004866,0.00002701,0.00001951,-0.00001038,0.00004510
 ,0.00004607,-0.00003830,0.00007614,0.00016709,-0.00018228,-0.00004707,
 0.00004063,0.00003206,0.00003306,0.04064526,0.04953618,-0.00171022,0.0
 0487303,-0.03047336,0.00093830,-0.00067497,0.00060331,0.00348011,0.004
 44360,0.00060544,-0.00044209,-0.00045039,0.00049363,-0.00042683,-0.000
 35553,-0.00011758,0.09606499,0.06948294,-0.25795879,-0.00020968,0.0015
 5234,-0.00044202,-0.00121463,-0.00102082,0.00052106,0.00022201,0.00001
 949,0.00029166,0.00009636,0.00000779,-0.00000215,-0.00018952,-0.000042
 37,-0.00008168,-0.00000919,0.00015765,0.00013529,0.00019991,-0.0002600
 0,-0.00013615,0.00012185,-0.00022717,0.00004588,-0.09587073,-0.0788042
 7,0.28569656,0.00178211,0.00259616,0.00053029,0.00625966,0.00595000,-0
 .02719578,-0.00038593,-0.00020597,0.00005057,0.00002540,-0.00000839,-0
 .00006402,0.00008597,0.00006353,0.00006601,-0.00426621,-0.00868530,0.0
 2756461,-0.10347937,-0.03802471,0.09862812,0.00020376,0.00014210,-0.00
 029906,-0.00004783,-0.00001483,-0.00006187,-0.00000897,0.00000393,0.00
 000924,0.00000955,0.00000577,-0.00000745,0.00002732,-0.00005327,-0.000
 06316,-0.00003688,0.00002845,-0.00001870,-0.00002510,0.00004010,-0.000
 03483,-0.00387267,-0.00410356,-0.00099618,0.10111484,0.00352752,-0.005
 20817,-0.00112089,0.00023748,0.00431904,-0.00151679,-0.00036913,-0.000
 01019,-0.00022389,-0.00003113,-0.00006527,-0.00002585,-0.00015014,0.00
 010129,0.00000738,-0.00241332,0.00683599,0.01054077,-0.03858360,-0.061
 98972,0.06940142,0.00012477,0.00007126,0.00014298,-0.00000907,0.000006
 77,-0.00001261,0.00001553,-0.00002464,-0.00000396,-0.00002712,0.000035
 13,-0.00000174,-0.00007183,-0.00004380,-0.00010956,0.00004353,-0.00005
 845,0.00019808,0.00012942,-0.00004259,0.00001108,-0.00440084,0.0066257
 5,0.00147885,0.04100063,0.04858640,0.00045927,-0.00094951,0.00076351,0
 .00017595,0.00427820,-0.02530782,0.00000960,-0.00012634,0.00011594,0.0
 0000726,0.00003779,0.00001441,-0.00001955,-0.00001277,-0.00000681,-0.0
 0036535,0.00173037,-0.00060984,0.09786766,0.07066737,-0.27001487,-0.00
 010432,-0.00007969,-0.00011466,0.00000128,0.00000511,-0.00000213,0.000
 00374,0.00000348,-0.00000610,0.00000728,-0.00000116,0.00000647,0.00003
 830,0.00000243,0.00002601,0.00003749,0.00001499,-0.00002793,-0.0000105
 1,-0.00001077,0.00000350,-0.00071456,0.00147883,0.00074353,-0.09803009
 ,-0.07835737,0.29400956,0.00158005,-0.00023722,0.00236285,-0.27517750,
 -0.24689479,0.03935442,-0.00108037,-0.00039042,-0.00002842,-0.00003367
 ,-0.00000305,0.00000473,0.00011305,0.00022488,-0.00003695,-0.00057110,
 0.00039599,-0.00648117,-0.02545240,-0.01659254,0.00431132,0.00000701,0
 .00002774,-0.00002703,-0.00000681,-0.00001698,0.00001707,-0.00002476,-
 0.00001825,-0.00000571,0.00003474,0.00002722,0.00000997,0.00001534,-0.
 00002952,0.00004050,0.00003692,-0.00012189,-0.00000427,0.00001060,0.00
 008503,0.00003027,0.00038097,-0.00052917,-0.00005446,0.00261437,0.0009
 7730,0.00063654,0.29755356,-0.00036421,0.00219257,-0.00025782,-0.26974
 370,-0.25197163,0.05953050,0.00020816,0.00005060,0.00029243,0.00003829
 ,0.00006107,0.00001254,0.00005748,-0.00004929,0.00001904,0.00164735,-0
 .00080039,0.00042335,0.00341341,-0.00209158,0.00345273,-0.00000430,-0.
 00001075,-0.00003413,-0.00000507,0.00000561,-0.00000098,0.00002090,-0.
 00001294,0.00000048,0.00002298,-0.00001288,0.00001380,-0.00002198,-0.0
 0000539,-0.00003044,-0.00003350,-0.00001016,0.00000813,0.00000522,0.00
 001034,-0.00001007,0.00039794,-0.00047236,-0.00018017,0.00126537,0.000
 86123,0.00131903,0.26309567,0.25225595,-0.00256658,0.00085044,-0.00077
 832,0.07728695,0.09166160,-0.05135015,0.00022412,0.00046243,0.00003060
 ,-0.00004671,-0.00007417,0.00002736,0.00000130,-0.00007971,0.00004514,
 -0.00034028,-0.00024368,-0.00439250,-0.03431040,-0.02738110,0.00055738
 ,-0.00004242,-0.00003673,-0.00001229,0.00000668,-0.00000108,-0.0000120
 7,0.00001776,-0.00000811,0.00001092,-0.00001616,-0.00000685,-0.0000300
 1,-0.00001081,-0.00000473,-0.00003583,-0.00002544,-0.00001345,-0.00001
 086,0.00001560,-0.00001433,-0.00001875,0.00001374,-0.00014419,0.000075
 36,-0.00007770,-0.00040791,0.00040724,-0.04012965,-0.06455843,0.055486
 78\\-0.00000009,0.00000023,0.00000052,-0.00000035,-0.00000001,0.000000
 59,0.00000012,-0.00000011,0.00000009,-0.00000027,-0.00000052,0.0000001
 1,0.00000084,-0.00000005,-0.00000110,-0.00000067,-0.00000043,0.0000005
 1,-0.00000055,0.00000068,0.00000036,0.00000038,-0.00000150,-0.00000012
 ,-0.00000037,0.00000054,0.00000029,-0.00000062,-0.00000080,0.00000086,
 0.00000044,-0.00000048,-0.00000019,0.00000050,0.00000107,-0.00000082,0
 .00000080,0.00000015,-0.00000126,0.00000133,0.00000007,-0.00000152,-0.
 00000013,-0.00000102,0.00000022,-0.00000069,0.00000135,0.00000063,-0.0
 0000067,0.00000083,0.00000082\\\@


 There ain't no surer way to find out whether you
 like people or hate them than to travel with them.
                                     -- Mark Twain
 Job cpu time:       0 days  2 hours 31 minutes  6.5 seconds.
 Elapsed time:       0 days  1 hours 15 minutes 34.0 seconds.
 File lengths (MBytes):  RWF=   1392 Int=      0 D2E=      0 Chk=     32 Scr=     32
 Normal termination of Gaussian 16 at Sun Sep 29 08:44:46 2019.
