 Entering Gaussian System, Link 0=g16
 Input=loose/species/CC(C)OC=CO/conformers/CC(C)OC=CO_117.com
 Output=loose/species/CC(C)OC=CO/conformers/CC(C)OC=CO_117.log
 Initial command:
 /shared/centos7/gaussian/g16/l1.exe "/scratch/harms.n/gauss_scrdir/Gau-30762.inp" -scrdir="/scratch/harms.n/gauss_scrdir/"
 Entering Link 1 = /shared/centos7/gaussian/g16/l1.exe PID=     30763.
  
 Copyright (c) 1988,1990,1992,1993,1995,1998,2003,2009,2016,
            Gaussian, Inc.  All Rights Reserved.
  
 This is part of the Gaussian(R) 16 program.  It is based on
 the Gaussian(R) 09 system (copyright 2009, Gaussian, Inc.),
 the Gaussian(R) 03 system (copyright 2003, Gaussian, Inc.),
 the Gaussian(R) 98 system (copyright 1998, Gaussian, Inc.),
 the Gaussian(R) 94 system (copyright 1995, Gaussian, Inc.),
 the Gaussian 92(TM) system (copyright 1992, Gaussian, Inc.),
 the Gaussian 90(TM) system (copyright 1990, Gaussian, Inc.),
 the Gaussian 88(TM) system (copyright 1988, Gaussian, Inc.),
 the Gaussian 86(TM) system (copyright 1986, Carnegie Mellon
 University), and the Gaussian 82(TM) system (copyright 1983,
 Carnegie Mellon University). Gaussian is a federally registered
 trademark of Gaussian, Inc.
  
 This software contains proprietary and confidential information,
 including trade secrets, belonging to Gaussian, Inc.
  
 This software is provided under written license and may be
 used, copied, transmitted, or stored only in accord with that
 written license.
  
 The following legend is applicable only to US Government
 contracts under FAR:
  
                    RESTRICTED RIGHTS LEGEND
  
 Use, reproduction and disclosure by the US Government is
 subject to restrictions as set forth in subparagraphs (a)
 and (c) of the Commercial Computer Software - Restricted
 Rights clause in FAR 52.227-19.
  
 Gaussian, Inc.
 340 Quinnipiac St., Bldg. 40, Wallingford CT 06492
  
  
 ---------------------------------------------------------------
 Warning -- This program may not be used in any manner that
 competes with the business of Gaussian, Inc. or will provide
 assistance to any competitor of Gaussian, Inc.  The licensee
 of this program is prohibited from giving any competitor of
 Gaussian, Inc. access to this program.  By using this program,
 the user acknowledges that Gaussian, Inc. is engaged in the
 business of creating and licensing software in the field of
 computational chemistry and represents and warrants to the
 licensee that it is not a competitor of Gaussian, Inc. and that
 it will not use this program in any manner prohibited above.
 ---------------------------------------------------------------
  

 Cite this work as:
 Gaussian 16, Revision A.03,
 M. J. Frisch, G. W. Trucks, H. B. Schlegel, G. E. Scuseria, 
 M. A. Robb, J. R. Cheeseman, G. Scalmani, V. Barone, 
 G. A. Petersson, H. Nakatsuji, X. Li, M. Caricato, A. V. Marenich, 
 J. Bloino, B. G. Janesko, R. Gomperts, B. Mennucci, H. P. Hratchian, 
 J. V. Ortiz, A. F. Izmaylov, J. L. Sonnenberg, D. Williams-Young, 
 F. Ding, F. Lipparini, F. Egidi, J. Goings, B. Peng, A. Petrone, 
 T. Henderson, D. Ranasinghe, V. G. Zakrzewski, J. Gao, N. Rega, 
 G. Zheng, W. Liang, M. Hada, M. Ehara, K. Toyota, R. Fukuda, 
 J. Hasegawa, M. Ishida, T. Nakajima, Y. Honda, O. Kitao, H. Nakai, 
 T. Vreven, K. Throssell, J. A. Montgomery, Jr., J. E. Peralta, 
 F. Ogliaro, M. J. Bearpark, J. J. Heyd, E. N. Brothers, K. N. Kudin, 
 V. N. Staroverov, T. A. Keith, R. Kobayashi, J. Normand, 
 K. Raghavachari, A. P. Rendell, J. C. Burant, S. S. Iyengar, 
 J. Tomasi, M. Cossi, J. M. Millam, M. Klene, C. Adamo, R. Cammi, 
 J. W. Ochterski, R. L. Martin, K. Morokuma, O. Farkas, 
 J. B. Foresman, and D. J. Fox, Gaussian, Inc., Wallingford CT, 2016.
 
 ******************************************
 Gaussian 16:  EM64L-G16RevA.03 25-Dec-2016
                26-Sep-2019 
 ******************************************
 %nprocshared=20
 Will use up to   20 processors via shared memory.
 %mem=5GB
 ----------------------------------------------------------------------
 #p m062x/cc-pVTZ opt=(calcfc,maxcycles=900,Tight) freq IOP(7/33=1,2/16
 =3) scf=(maxcycle=900)
 ----------------------------------------------------------------------
 1/6=900,7=10,10=4,18=20,19=15,26=3,38=1/1,3;
 2/9=110,12=2,16=3,17=6,18=5,40=1/2;
 3/5=16,6=1,11=2,25=1,30=1,71=2,74=-55,140=1/1,2,3;
 4//1;
 5/5=2,7=900,38=5/2;
 8/6=4,10=90,11=11/1;
 11/6=1,8=1,9=11,15=111,16=1/1,2,10;
 10/6=1,13=1/2;
 6/7=2,8=2,9=2,10=2,28=1/1;
 7/10=1,18=20,25=1,33=1/1,2,3,16;
 1/6=900,7=10,10=4,18=20,19=15,26=3/3(2);
 2/9=110,16=3/2;
 99//99;
 2/9=110,16=3/2;
 3/5=16,6=1,11=2,25=1,30=1,71=1,74=-55/1,2,3;
 4/5=5,16=3,69=1/1;
 5/5=2,7=900,38=5/2;
 7/33=1/1,2,3,16;
 1/6=900,7=10,18=20,19=15,26=3/3(-5);
 2/9=110,16=3/2;
 6/7=2,8=2,9=2,10=2,19=2,28=1/1;
 99/9=1/99;
 Leave Link    1 at Thu Sep 26 07:35:45 2019, MaxMem=   671088640 cpu:               4.2 elap:               2.1
 (Enter /shared/centos7/gaussian/g16/l101.exe)
 ------------------------------
 Gaussian input prepared by ASE
 ------------------------------
 Symbolic Z-matrix:
 Charge =  0 Multiplicity = 1
 O                     1.65853  -3.03614   1.66764 
 O                     0.86179  -1.94568  -0.75217 
 C                     0.89732  -3.24272   2.83886 
 C                    -0.33261  -4.09281   2.52005 
 C                     0.49987  -1.9976    3.5612 
 C                     1.92336  -1.72683   1.33679 
 C                     1.58125  -1.22185   0.18701 
 H                     1.55958  -3.84375   3.52188 
 H                    -0.48999  -4.17714   1.42446 
 H                    -0.24254  -5.11379   2.93355 
 H                    -1.2519   -3.6192    2.95962 
 H                    -0.60563  -1.79688   3.44178 
 H                     1.03834  -1.09889   3.19454 
 H                     0.7037   -2.09142   4.66538 
 H                     2.5136   -1.14196   2.06018 
 H                     1.836    -0.21812  -0.11965 
 H                     0.70846  -1.34092  -1.53481 
 
 ITRead=  0  0  0  0  0  0  0  0  0  0  0  0  0  0  0  0  0
 MicOpt= -1 -1 -1 -1 -1 -1 -1 -1 -1 -1 -1 -1 -1 -1 -1 -1 -1
 NAtoms=     17 NQM=       17 NQMF=       0 NMMI=      0 NMMIF=      0
                NMic=       0 NMicF=      0.
                    Isotopes and Nuclear Properties:
 (Nuclear quadrupole moments (NQMom) in fm**2, nuclear magnetic moments (NMagM)
  in nuclear magnetons)

  Atom         1           2           3           4           5           6           7           8           9          10
 IAtWgt=          16          16          12          12          12          12          12           1           1           1
 AtmWgt=  15.9949146  15.9949146  12.0000000  12.0000000  12.0000000  12.0000000  12.0000000   1.0078250   1.0078250   1.0078250
 NucSpn=           0           0           0           0           0           0           0           1           1           1
 AtZEff=  -0.0000000  -0.0000000  -0.0000000  -0.0000000  -0.0000000  -0.0000000  -0.0000000  -0.0000000  -0.0000000  -0.0000000
 NQMom=    0.0000000   0.0000000   0.0000000   0.0000000   0.0000000   0.0000000   0.0000000   0.0000000   0.0000000   0.0000000
 NMagM=    0.0000000   0.0000000   0.0000000   0.0000000   0.0000000   0.0000000   0.0000000   2.7928460   2.7928460   2.7928460
 AtZNuc=   8.0000000   8.0000000   6.0000000   6.0000000   6.0000000   6.0000000   6.0000000   1.0000000   1.0000000   1.0000000

  Atom        11          12          13          14          15          16          17
 IAtWgt=           1           1           1           1           1           1           1
 AtmWgt=   1.0078250   1.0078250   1.0078250   1.0078250   1.0078250   1.0078250   1.0078250
 NucSpn=           1           1           1           1           1           1           1
 AtZEff=  -0.0000000  -0.0000000  -0.0000000  -0.0000000  -0.0000000  -0.0000000  -0.0000000
 NQMom=    0.0000000   0.0000000   0.0000000   0.0000000   0.0000000   0.0000000   0.0000000
 NMagM=    2.7928460   2.7928460   2.7928460   2.7928460   2.7928460   2.7928460   2.7928460
 AtZNuc=   1.0000000   1.0000000   1.0000000   1.0000000   1.0000000   1.0000000   1.0000000
 Leave Link  101 at Thu Sep 26 07:35:47 2019, MaxMem=   671088640 cpu:               2.9 elap:               1.4
 (Enter /shared/centos7/gaussian/g16/l103.exe)

 GradGradGradGradGradGradGradGradGradGradGradGradGradGradGradGradGradGrad
 Berny optimization.
 Initialization pass.
                           ----------------------------
                           !    Initial Parameters    !
                           ! (Angstroms and Degrees)  !
 --------------------------                            --------------------------
 ! Name  Definition              Value          Derivative Info.                !
 --------------------------------------------------------------------------------
 ! R1    R(1,3)                  1.412          calculate D2E/DX2 analytically  !
 ! R2    R(1,6)                  1.3762         calculate D2E/DX2 analytically  !
 ! R3    R(2,7)                  1.3869         calculate D2E/DX2 analytically  !
 ! R4    R(2,17)                 1.0009         calculate D2E/DX2 analytically  !
 ! R5    R(3,4)                  1.5287         calculate D2E/DX2 analytically  !
 ! R6    R(3,5)                  1.4933         calculate D2E/DX2 analytically  !
 ! R7    R(3,8)                  1.1253         calculate D2E/DX2 analytically  !
 ! R8    R(4,9)                  1.1101         calculate D2E/DX2 analytically  !
 ! R9    R(4,10)                 1.1052         calculate D2E/DX2 analytically  !
 ! R10   R(4,11)                 1.1237         calculate D2E/DX2 analytically  !
 ! R11   R(5,12)                 1.1299         calculate D2E/DX2 analytically  !
 ! R12   R(5,13)                 1.11           calculate D2E/DX2 analytically  !
 ! R13   R(5,14)                 1.1267         calculate D2E/DX2 analytically  !
 ! R14   R(6,7)                  1.3016         calculate D2E/DX2 analytically  !
 ! R15   R(6,15)                 1.1017         calculate D2E/DX2 analytically  !
 ! R16   R(7,16)                 1.08           calculate D2E/DX2 analytically  !
 ! A1    A(3,1,6)              116.2529         calculate D2E/DX2 analytically  !
 ! A2    A(7,2,17)             107.0752         calculate D2E/DX2 analytically  !
 ! A3    A(1,3,4)              110.0043         calculate D2E/DX2 analytically  !
 ! A4    A(1,3,5)              115.0055         calculate D2E/DX2 analytically  !
 ! A5    A(1,3,8)              105.3267         calculate D2E/DX2 analytically  !
 ! A6    A(4,3,5)              110.5113         calculate D2E/DX2 analytically  !
 ! A7    A(4,3,8)              107.6416         calculate D2E/DX2 analytically  !
 ! A8    A(5,3,8)              107.9605         calculate D2E/DX2 analytically  !
 ! A9    A(3,4,9)              111.2318         calculate D2E/DX2 analytically  !
 ! A10   A(3,4,10)             111.7223         calculate D2E/DX2 analytically  !
 ! A11   A(3,4,11)             110.0144         calculate D2E/DX2 analytically  !
 ! A12   A(9,4,10)             108.0975         calculate D2E/DX2 analytically  !
 ! A13   A(9,4,11)             107.5851         calculate D2E/DX2 analytically  !
 ! A14   A(10,4,11)            108.0397         calculate D2E/DX2 analytically  !
 ! A15   A(3,5,12)             110.9399         calculate D2E/DX2 analytically  !
 ! A16   A(3,5,13)             112.7173         calculate D2E/DX2 analytically  !
 ! A17   A(3,5,14)             110.8818         calculate D2E/DX2 analytically  !
 ! A18   A(12,5,13)            107.2113         calculate D2E/DX2 analytically  !
 ! A19   A(12,5,14)            107.1792         calculate D2E/DX2 analytically  !
 ! A20   A(13,5,14)            107.6605         calculate D2E/DX2 analytically  !
 ! A21   A(1,6,7)              122.0674         calculate D2E/DX2 analytically  !
 ! A22   A(1,6,15)             116.7644         calculate D2E/DX2 analytically  !
 ! A23   A(7,6,15)             120.9908         calculate D2E/DX2 analytically  !
 ! A24   A(2,7,6)              122.1449         calculate D2E/DX2 analytically  !
 ! A25   A(2,7,16)             114.527          calculate D2E/DX2 analytically  !
 ! A26   A(6,7,16)             123.3262         calculate D2E/DX2 analytically  !
 ! D1    D(6,1,3,4)            124.9208         calculate D2E/DX2 analytically  !
 ! D2    D(6,1,3,5)             -0.6186         calculate D2E/DX2 analytically  !
 ! D3    D(6,1,3,8)           -119.3454         calculate D2E/DX2 analytically  !
 ! D4    D(3,1,6,7)           -122.9118         calculate D2E/DX2 analytically  !
 ! D5    D(3,1,6,15)            61.8868         calculate D2E/DX2 analytically  !
 ! D6    D(17,2,7,6)           178.8975         calculate D2E/DX2 analytically  !
 ! D7    D(17,2,7,16)           -1.5747         calculate D2E/DX2 analytically  !
 ! D8    D(1,3,4,9)            -12.5404         calculate D2E/DX2 analytically  !
 ! D9    D(1,3,4,10)           108.3577         calculate D2E/DX2 analytically  !
 ! D10   D(1,3,4,11)          -131.6495         calculate D2E/DX2 analytically  !
 ! D11   D(5,3,4,9)            115.52           calculate D2E/DX2 analytically  !
 ! D12   D(5,3,4,10)          -123.582          calculate D2E/DX2 analytically  !
 ! D13   D(5,3,4,11)            -3.5891         calculate D2E/DX2 analytically  !
 ! D14   D(8,3,4,9)           -126.8051         calculate D2E/DX2 analytically  !
 ! D15   D(8,3,4,10)            -5.907          calculate D2E/DX2 analytically  !
 ! D16   D(8,3,4,11)           114.0858         calculate D2E/DX2 analytically  !
 ! D17   D(1,3,5,12)           108.0827         calculate D2E/DX2 analytically  !
 ! D18   D(1,3,5,13)           -12.1606         calculate D2E/DX2 analytically  !
 ! D19   D(1,3,5,14)          -132.94           calculate D2E/DX2 analytically  !
 ! D20   D(4,3,5,12)           -17.1934         calculate D2E/DX2 analytically  !
 ! D21   D(4,3,5,13)          -137.4367         calculate D2E/DX2 analytically  !
 ! D22   D(4,3,5,14)           101.7839         calculate D2E/DX2 analytically  !
 ! D23   D(8,3,5,12)          -134.6723         calculate D2E/DX2 analytically  !
 ! D24   D(8,3,5,13)           105.0844         calculate D2E/DX2 analytically  !
 ! D25   D(8,3,5,14)           -15.6949         calculate D2E/DX2 analytically  !
 ! D26   D(1,6,7,2)              3.6758         calculate D2E/DX2 analytically  !
 ! D27   D(1,6,7,16)          -175.8101         calculate D2E/DX2 analytically  !
 ! D28   D(15,6,7,2)           178.6772         calculate D2E/DX2 analytically  !
 ! D29   D(15,6,7,16)           -0.8086         calculate D2E/DX2 analytically  !
 --------------------------------------------------------------------------------
 Trust Radius=3.00D-01 FncErr=1.00D-07 GrdErr=1.00D-06 EigMax=2.50D+02 EigMin=1.00D-04
 Number of steps in this run=    102 maximum allowed number of steps=    102.
 GradGradGradGradGradGradGradGradGradGradGradGradGradGradGradGradGradGrad

 Leave Link  103 at Thu Sep 26 07:35:48 2019, MaxMem=   671088640 cpu:               1.7 elap:               0.9
 (Enter /shared/centos7/gaussian/g16/l202.exe)
                          Input orientation:                          
 ---------------------------------------------------------------------
 Center     Atomic      Atomic             Coordinates (Angstroms)
 Number     Number       Type             X           Y           Z
 ---------------------------------------------------------------------
      1          8           0        1.658532   -3.036141    1.667640
      2          8           0        0.861793   -1.945684   -0.752165
      3          6           0        0.897322   -3.242722    2.838862
      4          6           0       -0.332607   -4.092809    2.520054
      5          6           0        0.499874   -1.997599    3.561202
      6          6           0        1.923359   -1.726827    1.336794
      7          6           0        1.581246   -1.221853    0.187006
      8          1           0        1.559584   -3.843751    3.521884
      9          1           0       -0.489991   -4.177139    1.424458
     10          1           0       -0.242540   -5.113788    2.933548
     11          1           0       -1.251903   -3.619201    2.959623
     12          1           0       -0.605630   -1.796884    3.441782
     13          1           0        1.038344   -1.098888    3.194539
     14          1           0        0.703705   -2.091425    4.665381
     15          1           0        2.513602   -1.141963    2.060179
     16          1           0        1.835997   -0.218116   -0.119650
     17          1           0        0.708464   -1.340920   -1.534811
 ---------------------------------------------------------------------
                    Distance matrix (angstroms):
                    1          2          3          4          5
     1  O    0.000000
     2  O    2.771164   0.000000
     3  C    1.412047   3.818252   0.000000
     4  C    2.409936   4.091963   1.528729   0.000000
     5  C    2.450844   4.328836   1.493342   2.483328   0.000000
     6  C    1.376189   2.353417   2.367889   3.476688   2.654735
     7  C    2.343051   1.386935   3.403528   4.165133   3.627168
     8  H    2.024906   4.728326   1.125320   2.155476   2.129039
     9  H    2.444824   3.397706   2.190505   1.110050   3.208722
    10  H    3.087591   4.984066   2.192975   1.105209   3.264316
    11  H    3.237254   4.587564   2.185289   1.123668   2.461749
    12  H    3.132055   4.445747   2.170904   2.489055   1.129905
    13  H    2.543424   4.040385   2.177709   3.361250   1.109989
    14  H    3.284910   5.421812   2.167751   3.111576   1.126748
    15  H    2.114980   3.359125   2.762588   4.125516   2.653353
    16  H    3.341730   2.081739   4.333837   5.165668   4.301216
    17  H    3.745944   1.000891   4.773000   5.009856   5.142381
                    6          7          8          9         10
     6  C    0.000000
     7  C    1.301558   0.000000
     8  H    3.064036   4.242196   0.000000
     9  H    3.440345   3.815105   2.951457   0.000000
    10  H    4.325765   5.100671   2.281838   1.793291   0.000000
    11  H    4.036947   4.632647   2.875938   1.802369   1.803686
    12  H    3.291150   3.963162   2.980643   3.122272   3.375202
    13  H    2.151459   3.058613   2.813027   3.865828   4.222345
    14  H    3.563703   4.645651   2.260699   4.034686   3.609612
    15  H    1.101697   2.093906   3.216580   4.317175   4.912686
    16  H    2.098826   1.080011   5.146105   4.844414   6.132694
    17  H    3.141816   1.934058   5.706026   4.270563   5.924961
                   11         12         13         14         15
    11  H    0.000000
    12  H    1.992733   0.000000
    13  H    3.413560   1.803047   0.000000
    14  H    3.011330   1.816124   1.805683   0.000000
    15  H    4.596165   3.473810   1.861455   3.311236   0.000000
    16  H    5.530319   4.597591   3.520775   5.261929   2.462579
    17  H    5.406804   5.167322   4.747015   6.245451   4.027661
                   16         17
    16  H    0.000000
    17  H    2.129483   0.000000
 Stoichiometry    C5H10O2
 Framework group  C1[X(C5H10O2)]
 Deg. of freedom    45
 Full point group                 C1      NOp   1
 Largest Abelian subgroup         C1      NOp   1
 Largest concise Abelian subgroup C1      NOp   1
                         Standard orientation:                         
 ---------------------------------------------------------------------
 Center     Atomic      Atomic             Coordinates (Angstroms)
 Number     Number       Type             X           Y           Z
 ---------------------------------------------------------------------
      1          8           0       -0.072344    0.046822   -0.904640
      2          8           0        2.262725    0.919468    0.305852
      3          6           0       -1.372982   -0.037345   -0.361378
      4          6           0       -1.806543    1.328335    0.171497
      5          6           0       -1.553629   -1.088329    0.684026
      6          6           0        0.857219   -0.832199   -0.397561
      7          6           0        1.970868   -0.426236    0.140057
      8          1           0       -2.041967   -0.292769   -1.229457
      9          1           0       -0.947632    2.029334    0.227033
     10          1           0       -2.584119    1.787884   -0.465430
     11          1           0       -2.224956    1.221237    1.208845
     12          1           0       -1.663377   -0.624315    1.708395
     13          1           0       -0.699182   -1.795119    0.733447
     14          1           0       -2.485420   -1.691495    0.490332
     15          1           0        0.654209   -1.905649   -0.539790
     16          1           0        2.742952   -1.098216    0.484660
     17          1           0        3.156846    0.973426    0.752416
 ---------------------------------------------------------------------
 Rotational constants (GHZ):           4.4751490           1.6598389           1.4318843
 Leave Link  202 at Thu Sep 26 07:35:50 2019, MaxMem=   671088640 cpu:               4.2 elap:               2.1
 (Enter /shared/centos7/gaussian/g16/l301.exe)
 Standard basis: CC-pVTZ (5D, 7F)
 Ernie: Thresh=  0.10000D-02 Tol=  0.10000D-05 Strict=F.
 Ernie:  21 primitive shells out of 262 were deleted.
 There are   395 symmetry adapted cartesian basis functions of A   symmetry.
 There are   350 symmetry adapted basis functions of A   symmetry.
   350 basis functions,   534 primitive gaussians,   395 cartesian basis functions
    28 alpha electrons       28 beta electrons
       nuclear repulsion energy       317.8037772523 Hartrees.
 IExCor= 4336 DFT=T Ex+Corr=M062X ExCW=0 ScaHFX=  0.540000
 ScaDFX=  1.000000  1.000000  1.000000  1.000000 ScalE2=  1.000000  1.000000
 IRadAn=      5 IRanWt=     -1 IRanGd=            0 ICorTp=0 IEmpDi=  4
 NAtoms=   17 NActive=   17 NUniq=   17 SFac= 1.00D+00 NAtFMM=   60 NAOKFM=F Big=F
 Integral buffers will be    131072 words long.
 Raffenetti 2 integral format.
 Two-electron integral symmetry is turned on.
 Leave Link  301 at Thu Sep 26 07:35:51 2019, MaxMem=   671088640 cpu:               1.8 elap:               0.9
 (Enter /shared/centos7/gaussian/g16/l302.exe)
 NPDir=0 NMtPBC=     1 NCelOv=     1 NCel=       1 NClECP=     1 NCelD=      1
         NCelK=      1 NCelE2=     1 NClLst=     1 CellRange=     0.0.
 One-electron integrals computed using PRISM.
 One-electron integral symmetry used in STVInt
 NBasis=   350 RedAO= T EigKep=  2.72D-04  NBF=   350
 NBsUse=   350 1.00D-06 EigRej= -1.00D+00 NBFU=   350
 Precomputing XC quadrature grid using
 IXCGrd= 4 IRadAn=           5 IRanWt=          -1 IRanGd=           0 AccXCQ= 0.00D+00.
 Generated NRdTot=       0 NPtTot=           0 NUsed=           0 NTot=          32
 NSgBfM=   395   395   395   395   395 MxSgAt=    17 MxSgA2=    17.
 Leave Link  302 at Thu Sep 26 07:36:52 2019, MaxMem=   671088640 cpu:             123.0 elap:              61.5
 (Enter /shared/centos7/gaussian/g16/l303.exe)
 DipDrv:  MaxL=1.
 Leave Link  303 at Thu Sep 26 07:36:57 2019, MaxMem=   671088640 cpu:               8.6 elap:               4.3
 (Enter /shared/centos7/gaussian/g16/l401.exe)
 ExpMin= 1.03D-01 ExpMax= 1.53D+04 ExpMxC= 5.22D+02 IAcc=3 IRadAn=         5 AccDes= 0.00D+00
 Harris functional with IExCor= 1009 and IRadAn=       5 diagonalized for initial guess.
 HarFok:  IExCor= 1009 AccDes= 0.00D+00 IRadAn=         5 IDoV= 1 UseB2=F ITyADJ=14
 ICtDFT=  3500011 ScaDFX=  1.000000  1.000000  1.000000  1.000000
 FoFCou: FMM=F IPFlag=           0 FMFlag=      100000 FMFlg1=           0
         NFxFlg=           0 DoJE=T BraDBF=F KetDBF=T FulRan=T
         wScrn=  0.000000 ICntrl=       500 IOpCl=  0 I1Cent=   200000004 NGrid=           0
         NMat0=    1 NMatS0=      1 NMatT0=    0 NMatD0=    1 NMtDS0=    0 NMtDT0=    0
 Petite list used in FoFCou.
 Harris En= -346.798195384296    
 JPrj=0 DoOrth=F DoCkMO=F.
 Leave Link  401 at Thu Sep 26 07:37:29 2019, MaxMem=   671088640 cpu:              64.8 elap:              32.4
 (Enter /shared/centos7/gaussian/g16/l502.exe)
 Integral symmetry usage will be decided dynamically.
 Closed shell SCF:
 Using DIIS extrapolation, IDIIS=  1040.
 NGot=   671088640 LenX=   670765141 LenY=   670608675
 Requested convergence on RMS density matrix=1.00D-08 within 900 cycles.
 Requested convergence on MAX density matrix=1.00D-06.
 Requested convergence on             energy=1.00D-06.
 No special actions if energy rises.
 Fock matrices will be formed incrementally for  20 cycles.
 Integral accuracy reduced to 1.0D-05 until final iterations.

 Cycle   1  Pass 0  IDiag  1:
 FoFJK:  IHMeth= 1 ICntrl=       0 DoSepK=F KAlg= 0 I1Cent=           0 FoldK=F
 IRaf= 950000000 NMat=       1 IRICut=       1 DoRegI=T DoRafI=F ISym2E= 0 IDoP0=0 IntGTp=1.
 FoFCou: FMM=F IPFlag=           0 FMFlag=      100000 FMFlg1=           0
         NFxFlg=           0 DoJE=F BraDBF=F KetDBF=F FulRan=T
         wScrn=  0.000000 ICntrl=         0 IOpCl=  0 I1Cent=           0 NGrid=           0
         NMat0=    1 NMatS0=      1 NMatT0=    0 NMatD0=    1 NMtDS0=    0 NMtDT0=    0
 Symmetry not used in FoFCou.
 E= -346.674129025111    
 DIIS: error= 1.79D-02 at cycle   1 NSaved=   1.
 NSaved= 1 IEnMin= 1 EnMin= -346.674129025111     IErMin= 1 ErrMin= 1.79D-02
 ErrMax= 1.79D-02  0.00D+00 EMaxC= 1.00D-01 BMatC= 2.91D-01 BMatP= 2.91D-01
 IDIUse=3 WtCom= 8.21D-01 WtEn= 1.79D-01
 Coeff-Com:  0.100D+01
 Coeff-En:   0.100D+01
 Coeff:      0.100D+01
 Gap=     0.350 Goal=   None    Shift=    0.000
 GapD=    0.350 DampG=1.000 DampE=0.500 DampFc=0.5000 IDamp=-1.
 Damping current iteration by 5.00D-01
 RMSDP=2.44D-03 MaxDP=1.49D-01              OVMax= 1.40D-01

 Cycle   2  Pass 0  IDiag  1:
 RMSU=  1.22D-03    CP:  1.00D+00
 E= -346.794194043055     Delta-E=       -0.120065017944 Rises=F Damp=T
 DIIS: error= 4.90D-03 at cycle   2 NSaved=   2.
 NSaved= 2 IEnMin= 2 EnMin= -346.794194043055     IErMin= 2 ErrMin= 4.90D-03
 ErrMax= 4.90D-03  0.00D+00 EMaxC= 1.00D-01 BMatC= 2.15D-02 BMatP= 2.91D-01
 IDIUse=3 WtCom= 9.51D-01 WtEn= 4.90D-02
 Coeff-Com: -0.112D+00 0.111D+01
 Coeff-En:   0.000D+00 0.100D+01
 Coeff:     -0.106D+00 0.111D+01
 Gap=     0.329 Goal=   None    Shift=    0.000
 RMSDP=4.84D-04 MaxDP=1.61D-02 DE=-1.20D-01 OVMax= 7.27D-02

 Cycle   3  Pass 0  IDiag  1:
 RMSU=  4.57D-04    CP:  1.01D+00  8.72D-01
 E= -346.904992037354     Delta-E=       -0.110797994299 Rises=F Damp=F
 DIIS: error= 2.49D-03 at cycle   3 NSaved=   3.
 NSaved= 3 IEnMin= 3 EnMin= -346.904992037354     IErMin= 3 ErrMin= 2.49D-03
 ErrMax= 2.49D-03  0.00D+00 EMaxC= 1.00D-01 BMatC= 4.48D-03 BMatP= 2.15D-02
 IDIUse=3 WtCom= 9.75D-01 WtEn= 2.49D-02
 Coeff-Com: -0.831D-01 0.330D+00 0.753D+00
 Coeff-En:   0.000D+00 0.000D+00 0.100D+01
 Coeff:     -0.810D-01 0.322D+00 0.759D+00
 Gap=     0.327 Goal=   None    Shift=    0.000
 RMSDP=2.06D-04 MaxDP=1.27D-02 DE=-1.11D-01 OVMax= 1.30D-02

 Cycle   4  Pass 0  IDiag  1:
 RMSU=  1.32D-04    CP:  1.01D+00  9.92D-01  8.65D-01
 E= -346.907532268232     Delta-E=       -0.002540230878 Rises=F Damp=F
 DIIS: error= 1.17D-03 at cycle   4 NSaved=   4.
 NSaved= 4 IEnMin= 4 EnMin= -346.907532268232     IErMin= 4 ErrMin= 1.17D-03
 ErrMax= 1.17D-03  0.00D+00 EMaxC= 1.00D-01 BMatC= 1.11D-03 BMatP= 4.48D-03
 IDIUse=3 WtCom= 9.88D-01 WtEn= 1.17D-02
 Coeff-Com: -0.287D-01 0.775D-01 0.376D+00 0.575D+00
 Coeff-En:   0.000D+00 0.000D+00 0.142D+00 0.858D+00
 Coeff:     -0.284D-01 0.766D-01 0.373D+00 0.578D+00
 Gap=     0.325 Goal=   None    Shift=    0.000
 RMSDP=7.30D-05 MaxDP=4.69D-03 DE=-2.54D-03 OVMax= 6.03D-03

 Cycle   5  Pass 0  IDiag  1:
 RMSU=  3.03D-05    CP:  1.01D+00  9.62D-01  9.22D-01  6.30D-01
 E= -346.908331509663     Delta-E=       -0.000799241431 Rises=F Damp=F
 DIIS: error= 2.38D-04 at cycle   5 NSaved=   5.
 NSaved= 5 IEnMin= 5 EnMin= -346.908331509663     IErMin= 5 ErrMin= 2.38D-04
 ErrMax= 2.38D-04  0.00D+00 EMaxC= 1.00D-01 BMatC= 3.31D-05 BMatP= 1.11D-03
 IDIUse=3 WtCom= 9.98D-01 WtEn= 2.38D-03
 Coeff-Com: -0.554D-02 0.102D-01 0.981D-01 0.221D+00 0.676D+00
 Coeff-En:   0.000D+00 0.000D+00 0.000D+00 0.000D+00 0.100D+01
 Coeff:     -0.553D-02 0.102D-01 0.979D-01 0.221D+00 0.677D+00
 Gap=     0.325 Goal=   None    Shift=    0.000
 RMSDP=1.12D-05 MaxDP=3.29D-04 DE=-7.99D-04 OVMax= 8.78D-04

 Cycle   6  Pass 0  IDiag  1:
 RMSU=  8.12D-06    CP:  1.01D+00  9.62D-01  9.28D-01  6.60D-01  7.97D-01
 E= -346.908354950465     Delta-E=       -0.000023440802 Rises=F Damp=F
 DIIS: error= 4.69D-05 at cycle   6 NSaved=   6.
 NSaved= 6 IEnMin= 6 EnMin= -346.908354950465     IErMin= 6 ErrMin= 4.69D-05
 ErrMax= 4.69D-05  0.00D+00 EMaxC= 1.00D-01 BMatC= 1.52D-06 BMatP= 3.31D-05
 IDIUse=1 WtCom= 1.00D+00 WtEn= 0.00D+00
 Coeff-Com: -0.151D-03-0.876D-03 0.122D-01 0.470D-01 0.214D+00 0.728D+00
 Coeff:     -0.151D-03-0.876D-03 0.122D-01 0.470D-01 0.214D+00 0.728D+00
 Gap=     0.325 Goal=   None    Shift=    0.000
 RMSDP=3.68D-06 MaxDP=1.47D-04 DE=-2.34D-05 OVMax= 3.37D-04

 Initial convergence to 1.0D-05 achieved.  Increase integral accuracy.
 Cycle   7  Pass 1  IDiag  1:
 E= -346.908341951212     Delta-E=        0.000012999252 Rises=F Damp=F
 DIIS: error= 2.08D-05 at cycle   1 NSaved=   1.
 NSaved= 1 IEnMin= 1 EnMin= -346.908341951212     IErMin= 1 ErrMin= 2.08D-05
 ErrMax= 2.08D-05  0.00D+00 EMaxC= 1.00D-01 BMatC= 7.23D-07 BMatP= 7.23D-07
 IDIUse=1 WtCom= 1.00D+00 WtEn= 0.00D+00
 Coeff-Com:  0.100D+01
 Coeff:      0.100D+01
 Gap=     0.325 Goal=   None    Shift=    0.000
 RMSDP=3.68D-06 MaxDP=1.47D-04 DE= 1.30D-05 OVMax= 1.69D-04

 Cycle   8  Pass 1  IDiag  1:
 RMSU=  6.80D-06    CP:  1.00D+00
 E= -346.908342118617     Delta-E=       -0.000000167404 Rises=F Damp=F
 DIIS: error= 1.75D-05 at cycle   2 NSaved=   2.
 NSaved= 2 IEnMin= 2 EnMin= -346.908342118617     IErMin= 2 ErrMin= 1.75D-05
 ErrMax= 1.75D-05  0.00D+00 EMaxC= 1.00D-01 BMatC= 3.89D-07 BMatP= 7.23D-07
 IDIUse=1 WtCom= 1.00D+00 WtEn= 0.00D+00
 Coeff-Com:  0.403D+00 0.597D+00
 Coeff:      0.403D+00 0.597D+00
 Gap=     0.325 Goal=   None    Shift=    0.000
 RMSDP=1.35D-06 MaxDP=5.62D-05 DE=-1.67D-07 OVMax= 1.20D-04

 Cycle   9  Pass 1  IDiag  1:
 RMSU=  1.32D-06    CP:  1.00D+00  9.62D-01
 E= -346.908342367657     Delta-E=       -0.000000249040 Rises=F Damp=F
 DIIS: error= 6.80D-06 at cycle   3 NSaved=   3.
 NSaved= 3 IEnMin= 3 EnMin= -346.908342367657     IErMin= 3 ErrMin= 6.80D-06
 ErrMax= 6.80D-06  0.00D+00 EMaxC= 1.00D-01 BMatC= 4.55D-08 BMatP= 3.89D-07
 IDIUse=1 WtCom= 1.00D+00 WtEn= 0.00D+00
 Coeff-Com: -0.113D-01 0.246D+00 0.765D+00
 Coeff:     -0.113D-01 0.246D+00 0.765D+00
 Gap=     0.325 Goal=   None    Shift=    0.000
 RMSDP=4.47D-07 MaxDP=2.73D-05 DE=-2.49D-07 OVMax= 3.09D-05

 Cycle  10  Pass 1  IDiag  1:
 RMSU=  2.44D-07    CP:  1.00D+00  1.00D+00  8.20D-01
 E= -346.908342397767     Delta-E=       -0.000000030110 Rises=F Damp=F
 DIIS: error= 1.36D-06 at cycle   4 NSaved=   4.
 NSaved= 4 IEnMin= 4 EnMin= -346.908342397767     IErMin= 4 ErrMin= 1.36D-06
 ErrMax= 1.36D-06  0.00D+00 EMaxC= 1.00D-01 BMatC= 1.39D-09 BMatP= 4.55D-08
 IDIUse=1 WtCom= 1.00D+00 WtEn= 0.00D+00
 Coeff-Com: -0.127D-01 0.947D-01 0.320D+00 0.598D+00
 Coeff:     -0.127D-01 0.947D-01 0.320D+00 0.598D+00
 Gap=     0.325 Goal=   None    Shift=    0.000
 RMSDP=8.85D-08 MaxDP=3.40D-06 DE=-3.01D-08 OVMax= 8.41D-06

 Cycle  11  Pass 1  IDiag  1:
 RMSU=  8.33D-08    CP:  1.00D+00  1.00D+00  8.41D-01  9.69D-01
 E= -346.908342398899     Delta-E=       -0.000000001132 Rises=F Damp=F
 DIIS: error= 3.26D-07 at cycle   5 NSaved=   5.
 NSaved= 5 IEnMin= 5 EnMin= -346.908342398899     IErMin= 5 ErrMin= 3.26D-07
 ErrMax= 3.26D-07  0.00D+00 EMaxC= 1.00D-01 BMatC= 1.16D-10 BMatP= 1.39D-09
 IDIUse=1 WtCom= 1.00D+00 WtEn= 0.00D+00
 Coeff-Com: -0.133D-02-0.126D-01-0.421D-01 0.165D+00 0.891D+00
 Coeff:     -0.133D-02-0.126D-01-0.421D-01 0.165D+00 0.891D+00
 Gap=     0.325 Goal=   None    Shift=    0.000
 RMSDP=4.66D-08 MaxDP=2.61D-06 DE=-1.13D-09 OVMax= 5.46D-06

 Cycle  12  Pass 1  IDiag  1:
 RMSU=  2.61D-08    CP:  1.00D+00  1.01D+00  8.42D-01  1.12D+00  1.01D+00
 E= -346.908342399019     Delta-E=       -0.000000000121 Rises=F Damp=F
 DIIS: error= 2.24D-07 at cycle   6 NSaved=   6.
 NSaved= 6 IEnMin= 6 EnMin= -346.908342399019     IErMin= 6 ErrMin= 2.24D-07
 ErrMax= 2.24D-07  0.00D+00 EMaxC= 1.00D-01 BMatC= 1.57D-11 BMatP= 1.16D-10
 IDIUse=1 WtCom= 1.00D+00 WtEn= 0.00D+00
 Coeff-Com:  0.782D-03-0.147D-01-0.503D-01 0.372D-02 0.364D+00 0.696D+00
 Coeff:      0.782D-03-0.147D-01-0.503D-01 0.372D-02 0.364D+00 0.696D+00
 Gap=     0.325 Goal=   None    Shift=    0.000
 RMSDP=1.24D-08 MaxDP=4.27D-07 DE=-1.21D-10 OVMax= 1.31D-06

 Cycle  13  Pass 1  IDiag  1:
 RMSU=  7.34D-09    CP:  1.00D+00  1.01D+00  8.45D-01  1.14D+00  1.09D+00
                    CP:  9.28D-01
 E= -346.908342399040     Delta-E=       -0.000000000021 Rises=F Damp=F
 DIIS: error= 4.05D-08 at cycle   7 NSaved=   7.
 NSaved= 7 IEnMin= 7 EnMin= -346.908342399040     IErMin= 7 ErrMin= 4.05D-08
 ErrMax= 4.05D-08  0.00D+00 EMaxC= 1.00D-01 BMatC= 1.19D-12 BMatP= 1.57D-11
 IDIUse=1 WtCom= 1.00D+00 WtEn= 0.00D+00
 Coeff-Com:  0.407D-03-0.452D-02-0.158D-01-0.131D-01 0.698D-01 0.263D+00
 Coeff-Com:  0.700D+00
 Coeff:      0.407D-03-0.452D-02-0.158D-01-0.131D-01 0.698D-01 0.263D+00
 Coeff:      0.700D+00
 Gap=     0.325 Goal=   None    Shift=    0.000
 RMSDP=3.45D-09 MaxDP=2.06D-07 DE=-2.07D-11 OVMax= 5.90D-07

 SCF Done:  E(RM062X) =  -346.908342399     A.U. after   13 cycles
            NFock= 13  Conv=0.35D-08     -V/T= 2.0061
 KE= 3.448068907743D+02 PE=-1.445966290847D+03 EE= 4.364472804209D+02
 Leave Link  502 at Thu Sep 26 07:48:29 2019, MaxMem=   671088640 cpu:            1320.4 elap:             660.3
 (Enter /shared/centos7/gaussian/g16/l801.exe)
 DoSCS=F DFT=T ScalE2(SS,OS)=  1.000000  1.000000
 Range of M.O.s used for correlation:     1   350
 NBasis=   350 NAE=    28 NBE=    28 NFC=     0 NFV=     0
 NROrb=    350 NOA=    28 NOB=    28 NVA=   322 NVB=   322

 **** Warning!!: The largest alpha MO coefficient is  0.10582615D+02

 Leave Link  801 at Thu Sep 26 07:48:30 2019, MaxMem=   671088640 cpu:               1.7 elap:               0.9
 (Enter /shared/centos7/gaussian/g16/l1101.exe)
 Using compressed storage, NAtomX=    17.
 Will process     18 centers per pass.
 Leave Link 1101 at Thu Sep 26 07:49:01 2019, MaxMem=   671088640 cpu:              60.8 elap:              30.4
 (Enter /shared/centos7/gaussian/g16/l1102.exe)
 Symmetrizing basis deriv contribution to polar:
 IMax=3 JMax=2 DiffMx= 0.00D+00
 Leave Link 1102 at Thu Sep 26 07:49:03 2019, MaxMem=   671088640 cpu:               5.4 elap:               2.7
 (Enter /shared/centos7/gaussian/g16/l1110.exe)
 Forming Gx(P) for the SCF density, NAtomX=    17.
 Integral derivatives from FoFJK, PRISM(SPDF).
 Do as many integral derivatives as possible in FoFJK.
 G2DrvN: MDV=     671087280.
 G2DrvN: will do    18 centers at a time, making    1 passes.
 Calling FoFCou, ICntrl=  3107 FMM=F I1Cent=   0 AccDes= 0.00D+00.
 FoFJK:  IHMeth= 1 ICntrl=    3107 DoSepK=F KAlg= 0 I1Cent=           0 FoldK=F
 IRaf=         0 NMat=       1 IRICut=       1 DoRegI=T DoRafI=F ISym2E= 0 IDoP0=0 IntGTp=1.
 FoFCou: FMM=F IPFlag=           0 FMFlag=      100000 FMFlg1=           0
         NFxFlg=           0 DoJE=F BraDBF=F KetDBF=F FulRan=T
         wScrn=  0.000000 ICntrl=      3107 IOpCl=  0 I1Cent=           0 NGrid=           0
         NMat0=    1 NMatS0=      1 NMatT0=    0 NMatD0=    1 NMtDS0=    0 NMtDT0=    0
 Symmetry not used in FoFCou.
 End of G2Drv F.D. properties file   721 does not exist.
 End of G2Drv F.D. properties file   722 does not exist.
 End of G2Drv F.D. properties file   788 does not exist.
 Leave Link 1110 at Thu Sep 26 08:08:24 2019, MaxMem=   671088640 cpu:            2320.4 elap:            1160.4
 (Enter /shared/centos7/gaussian/g16/l1002.exe)
 Minotr:  Closed shell wavefunction.
          IDoAtm=11111111111111111
          Direct CPHF calculation.
          Differentiating once with respect to nuclear coordinates.
          Requested convergence is 1.0D-08 RMS, and 1.0D-07 maximum.
          Secondary convergence is 1.0D-12 RMS, and 1.0D-12 maximum.
          NewPWx=T KeepS1=F KeepF1=F KeepIn=T MapXYZ=F SortEE=F KeepMc=T.
         5123 words used for storage of precomputed grid.
 Two-electron integrals replicated using symmetry.
          MDV=     671088640 using IRadAn=       1.
          Solving linear equations simultaneously, MaxMat=     380.
 FoF2E skips out because all densities are zero.
 CalDSu exits because no D1Ps are significant.
 FoFJK:  IHMeth= 1 ICntrl=       0 DoSepK=F KAlg= 0 I1Cent=           0 FoldK=F
 IRaf= 940000000 NMat=      51 IRICut=     127 DoRegI=T DoRafI=T ISym2E= 2 IDoP0=3 IntGTp=3.
 FoFCou: FMM=F IPFlag=           0 FMFlag=      100000 FMFlg1=           0
         NFxFlg=           0 DoJE=F BraDBF=F KetDBF=F FulRan=T
         wScrn=  0.000000 ICntrl=         0 IOpCl=  0 I1Cent=           0 NGrid=           0
         NMat0=   51 NMatS0=     51 NMatT0=    0 NMatD0=   51 NMtDS0=    0 NMtDT0=    0
 Integrals replicated using symmetry in FoFCou.
 Raff kept on since  90.95% of shell-pairs survive, threshold=   0.20 IRatSp=91.
          There are    54 degrees of freedom in the 1st order CPHF.  IDoFFX=6 NUNeed=     0.
     48 vectors produced by pass  0 Test12= 1.67D-14 1.85D-09 XBig12= 7.48D-02 5.93D-02.
 AX will form    48 AO Fock derivatives at one time.
     48 vectors produced by pass  1 Test12= 1.67D-14 1.85D-09 XBig12= 7.35D-03 2.53D-02.
     48 vectors produced by pass  2 Test12= 1.67D-14 1.85D-09 XBig12= 1.80D-04 2.62D-03.
     48 vectors produced by pass  3 Test12= 1.67D-14 1.85D-09 XBig12= 1.80D-06 1.81D-04.
     48 vectors produced by pass  4 Test12= 1.67D-14 1.85D-09 XBig12= 1.47D-08 1.60D-05.
     48 vectors produced by pass  5 Test12= 1.67D-14 1.85D-09 XBig12= 7.00D-11 8.82D-07.
     25 vectors produced by pass  6 Test12= 1.67D-14 1.85D-09 XBig12= 2.86D-13 5.82D-08.
      5 vectors produced by pass  7 Test12= 1.67D-14 1.85D-09 XBig12= 1.07D-15 3.98D-09.
 InvSVY:  IOpt=1 It=  1 EMax= 4.16D-16
 Solved reduced A of dimension   318 with    54 vectors.
 End of Minotr F.D. properties file   721 does not exist.
 End of Minotr F.D. properties file   722 does not exist.
 End of Minotr F.D. properties file   788 does not exist.
 Leave Link 1002 at Thu Sep 26 08:40:39 2019, MaxMem=   671088640 cpu:            3869.7 elap:            1935.2
 (Enter /shared/centos7/gaussian/g16/l601.exe)
 Copying SCF densities to generalized density rwf, IOpCl= 0 IROHF=0.

 **********************************************************************

            Population analysis using the SCF density.

 **********************************************************************

 Orbital symmetries:
       Occupied  (A) (A) (A) (A) (A) (A) (A) (A) (A) (A) (A) (A)
                 (A) (A) (A) (A) (A) (A) (A) (A) (A) (A) (A) (A)
                 (A) (A) (A) (A)
       Virtual   (A) (A) (A) (A) (A) (A) (A) (A) (A) (A) (A) (A)
                 (A) (A) (A) (A) (A) (A) (A) (A) (A) (A) (A) (A)
                 (A) (A) (A) (A) (A) (A) (A) (A) (A) (A) (A) (A)
                 (A) (A) (A) (A) (A) (A) (A) (A) (A) (A) (A) (A)
                 (A) (A) (A) (A) (A) (A) (A) (A) (A) (A) (A) (A)
                 (A) (A) (A) (A) (A) (A) (A) (A) (A) (A) (A) (A)
                 (A) (A) (A) (A) (A) (A) (A) (A) (A) (A) (A) (A)
                 (A) (A) (A) (A) (A) (A) (A) (A) (A) (A) (A) (A)
                 (A) (A) (A) (A) (A) (A) (A) (A) (A) (A) (A) (A)
                 (A) (A) (A) (A) (A) (A) (A) (A) (A) (A) (A) (A)
                 (A) (A) (A) (A) (A) (A) (A) (A) (A) (A) (A) (A)
                 (A) (A) (A) (A) (A) (A) (A) (A) (A) (A) (A) (A)
                 (A) (A) (A) (A) (A) (A) (A) (A) (A) (A) (A) (A)
                 (A) (A) (A) (A) (A) (A) (A) (A) (A) (A) (A) (A)
                 (A) (A) (A) (A) (A) (A) (A) (A) (A) (A) (A) (A)
                 (A) (A) (A) (A) (A) (A) (A) (A) (A) (A) (A) (A)
                 (A) (A) (A) (A) (A) (A) (A) (A) (A) (A) (A) (A)
                 (A) (A) (A) (A) (A) (A) (A) (A) (A) (A) (A) (A)
                 (A) (A) (A) (A) (A) (A) (A) (A) (A) (A) (A) (A)
                 (A) (A) (A) (A) (A) (A) (A) (A) (A) (A) (A) (A)
                 (A) (A) (A) (A) (A) (A) (A) (A) (A) (A) (A) (A)
                 (A) (A) (A) (A) (A) (A) (A) (A) (A) (A) (A) (A)
                 (A) (A) (A) (A) (A) (A) (A) (A) (A) (A) (A) (A)
                 (A) (A) (A) (A) (A) (A) (A) (A) (A) (A) (A) (A)
                 (A) (A) (A) (A) (A) (A) (A) (A) (A) (A) (A) (A)
                 (A) (A) (A) (A) (A) (A) (A) (A) (A) (A) (A) (A)
                 (A) (A) (A) (A) (A) (A) (A) (A) (A) (A)
 The electronic state is 1-A.
 Alpha  occ. eigenvalues --  -19.64690 -19.62867 -10.58784 -10.58324 -10.57332
 Alpha  occ. eigenvalues --  -10.52961 -10.52158  -1.17558  -1.15390  -0.88823
 Alpha  occ. eigenvalues --   -0.83978  -0.77359  -0.69369  -0.64034  -0.60436
 Alpha  occ. eigenvalues --   -0.56374  -0.54954  -0.54101  -0.48801  -0.46053
 Alpha  occ. eigenvalues --   -0.45835  -0.44561  -0.43368  -0.42014  -0.40846
 Alpha  occ. eigenvalues --   -0.38205  -0.33886  -0.27554
 Alpha virt. eigenvalues --    0.04925   0.07606   0.08041   0.09529   0.10397
 Alpha virt. eigenvalues --    0.12272   0.12685   0.13701   0.16534   0.17566
 Alpha virt. eigenvalues --    0.18011   0.19794   0.22526   0.23661   0.25355
 Alpha virt. eigenvalues --    0.28123   0.29232   0.30962   0.32403   0.34209
 Alpha virt. eigenvalues --    0.34322   0.36124   0.36867   0.38707   0.40670
 Alpha virt. eigenvalues --    0.41739   0.43093   0.44373   0.44962   0.46413
 Alpha virt. eigenvalues --    0.47517   0.47977   0.48267   0.49702   0.50130
 Alpha virt. eigenvalues --    0.51432   0.52557   0.53204   0.53927   0.55390
 Alpha virt. eigenvalues --    0.56152   0.58247   0.58711   0.61391   0.61779
 Alpha virt. eigenvalues --    0.65464   0.66814   0.67401   0.69847   0.72188
 Alpha virt. eigenvalues --    0.73245   0.75200   0.78010   0.79746   0.82416
 Alpha virt. eigenvalues --    0.84777   0.85789   0.89073   0.89445   0.91693
 Alpha virt. eigenvalues --    0.93780   0.96414   0.97900   0.99163   1.01085
 Alpha virt. eigenvalues --    1.01608   1.03063   1.04626   1.05408   1.05852
 Alpha virt. eigenvalues --    1.06892   1.08632   1.09550   1.10962   1.13000
 Alpha virt. eigenvalues --    1.14980   1.16182   1.17451   1.19369   1.19714
 Alpha virt. eigenvalues --    1.22381   1.23671   1.24941   1.26940   1.28776
 Alpha virt. eigenvalues --    1.30276   1.30648   1.32673   1.34346   1.34887
 Alpha virt. eigenvalues --    1.36278   1.37129   1.38495   1.40386   1.40735
 Alpha virt. eigenvalues --    1.43268   1.45189   1.45725   1.48533   1.50553
 Alpha virt. eigenvalues --    1.54665   1.54984   1.55638   1.57194   1.58666
 Alpha virt. eigenvalues --    1.61846   1.67841   1.69438   1.74471   1.86457
 Alpha virt. eigenvalues --    1.87995   1.92899   2.00834   2.03130   2.04899
 Alpha virt. eigenvalues --    2.09142   2.10946   2.13942   2.15931   2.17265
 Alpha virt. eigenvalues --    2.21279   2.23305   2.25922   2.31574   2.33474
 Alpha virt. eigenvalues --    2.35364   2.38694   2.42065   2.44284   2.45732
 Alpha virt. eigenvalues --    2.46765   2.49867   2.50400   2.55967   2.58535
 Alpha virt. eigenvalues --    2.59757   2.62512   2.64113   2.65283   2.67398
 Alpha virt. eigenvalues --    2.70287   2.75219   2.77061   2.77695   2.81123
 Alpha virt. eigenvalues --    2.82888   2.84209   2.85627   2.87194   2.87979
 Alpha virt. eigenvalues --    2.88705   2.91120   2.91844   2.93197   2.94511
 Alpha virt. eigenvalues --    2.95959   2.97822   2.98602   2.99397   2.99471
 Alpha virt. eigenvalues --    3.02508   3.02905   3.03372   3.04193   3.06516
 Alpha virt. eigenvalues --    3.07411   3.08959   3.11087   3.12498   3.13879
 Alpha virt. eigenvalues --    3.15823   3.17086   3.18794   3.21355   3.22323
 Alpha virt. eigenvalues --    3.25372   3.26449   3.28740   3.28965   3.30715
 Alpha virt. eigenvalues --    3.31440   3.32409   3.33656   3.34882   3.38204
 Alpha virt. eigenvalues --    3.38543   3.40256   3.40807   3.43260   3.43926
 Alpha virt. eigenvalues --    3.45539   3.48363   3.49940   3.51961   3.52137
 Alpha virt. eigenvalues --    3.53310   3.55142   3.55952   3.59770   3.61123
 Alpha virt. eigenvalues --    3.62143   3.65010   3.66681   3.70248   3.72514
 Alpha virt. eigenvalues --    3.73646   3.74768   3.75834   3.77548   3.78736
 Alpha virt. eigenvalues --    3.79500   3.82444   3.83179   3.86986   3.87783
 Alpha virt. eigenvalues --    3.87977   3.89250   3.91675   3.92406   3.94886
 Alpha virt. eigenvalues --    3.96291   3.97047   3.97483   4.01078   4.01847
 Alpha virt. eigenvalues --    4.04353   4.06193   4.06546   4.07570   4.10483
 Alpha virt. eigenvalues --    4.11533   4.13011   4.14753   4.15574   4.17813
 Alpha virt. eigenvalues --    4.18408   4.21160   4.25039   4.27144   4.28230
 Alpha virt. eigenvalues --    4.29315   4.33132   4.33973   4.38923   4.44844
 Alpha virt. eigenvalues --    4.45905   4.46695   4.50099   4.50785   4.52969
 Alpha virt. eigenvalues --    4.58434   4.59364   4.64077   4.65544   4.67756
 Alpha virt. eigenvalues --    4.69276   4.70199   4.72510   4.78938   4.81662
 Alpha virt. eigenvalues --    4.85010   4.89150   4.91312   4.92201   4.93482
 Alpha virt. eigenvalues --    4.96094   4.98081   4.99709   5.02956   5.05659
 Alpha virt. eigenvalues --    5.06432   5.08688   5.09636   5.12677   5.15332
 Alpha virt. eigenvalues --    5.20255   5.22810   5.24090   5.25294   5.27467
 Alpha virt. eigenvalues --    5.29130   5.29772   5.33826   5.40898   5.43743
 Alpha virt. eigenvalues --    5.50313   5.56288   5.64617   5.68886   5.76242
 Alpha virt. eigenvalues --    5.77517   5.78776   5.80404   5.81738   5.83235
 Alpha virt. eigenvalues --    5.93553   6.01748   6.06090   6.18110   6.30687
 Alpha virt. eigenvalues --    6.33181   6.49546   6.55887   6.57487   6.68918
 Alpha virt. eigenvalues --    6.72780   6.76160   6.78324   6.81969   7.03075
 Alpha virt. eigenvalues --    7.12235   7.19212   7.26835   7.31376   7.42644
 Alpha virt. eigenvalues --   10.10474  10.94383  11.54215  11.87544  12.99945
 Alpha virt. eigenvalues --   13.41921  14.39286
          Condensed to atoms (all electrons):
               1          2          3          4          5          6
     1  O    7.857859   0.004306   0.307098  -0.053184  -0.042778   0.329047
     2  O    0.004306   7.770825   0.003557  -0.001939   0.000252  -0.096267
     3  C    0.307098   0.003557   4.864905   0.308086   0.307904  -0.080064
     4  C   -0.053184  -0.001939   0.308086   5.033083  -0.057388   0.007317
     5  C   -0.042778   0.000252   0.307904  -0.057388   5.096590  -0.049594
     6  C    0.329047  -0.096267  -0.080064   0.007317  -0.049594   5.117454
     7  C   -0.068211   0.368947   0.004135   0.001996  -0.004153   0.460754
     8  H   -0.040684   0.000032   0.429557  -0.059874  -0.064198  -0.001553
     9  H    0.004165   0.004142  -0.033816   0.378266   0.004086  -0.001864
    10  H    0.003187   0.000025  -0.036856   0.393086   0.005994  -0.000589
    11  H    0.004314  -0.000003  -0.046064   0.399412  -0.014454  -0.000328
    12  H    0.003852   0.000059  -0.037563  -0.020350   0.396313   0.000718
    13  H   -0.013545  -0.000450  -0.046290   0.007803   0.401156   0.012112
    14  H    0.003561   0.000001  -0.036841   0.005728   0.398222   0.002705
    15  H   -0.040982   0.002903   0.004985  -0.001860  -0.008749   0.442901
    16  H    0.004888  -0.050894   0.000206  -0.000083  -0.000162  -0.089430
    17  H   -0.000159   0.323907  -0.000172   0.000080   0.000049   0.017021
               7          8          9         10         11         12
     1  O   -0.068211  -0.040684   0.004165   0.003187   0.004314   0.003852
     2  O    0.368947   0.000032   0.004142   0.000025  -0.000003   0.000059
     3  C    0.004135   0.429557  -0.033816  -0.036856  -0.046064  -0.037563
     4  C    0.001996  -0.059874   0.378266   0.393086   0.399412  -0.020350
     5  C   -0.004153  -0.064198   0.004086   0.005994  -0.014454   0.396313
     6  C    0.460754  -0.001553  -0.001864  -0.000589  -0.000328   0.000718
     7  C    4.935551  -0.001967   0.000392  -0.000090  -0.000519  -0.001034
     8  H   -0.001967   0.622212   0.006099  -0.009754   0.006860   0.008966
     9  H    0.000392   0.006099   0.556637  -0.023894  -0.029431   0.002046
    10  H   -0.000090  -0.009754  -0.023894   0.597437  -0.036978   0.001065
    11  H   -0.000519   0.006860  -0.029431  -0.036978   0.625526  -0.000735
    12  H   -0.001034   0.008966   0.002046   0.001065  -0.000735   0.606868
    13  H    0.006505  -0.000237  -0.000511  -0.000629   0.001219  -0.038063
    14  H    0.000170  -0.015001  -0.000377  -0.000304  -0.000368  -0.032189
    15  H   -0.102402   0.003301   0.000317   0.000069   0.000179   0.001079
    16  H    0.437616   0.000080   0.000195   0.000000  -0.000003   0.000067
    17  H   -0.042132  -0.000001  -0.000195  -0.000001   0.000003  -0.000005
              13         14         15         16         17
     1  O   -0.013545   0.003561  -0.040982   0.004888  -0.000159
     2  O   -0.000450   0.000001   0.002903  -0.050894   0.323907
     3  C   -0.046290  -0.036841   0.004985   0.000206  -0.000172
     4  C    0.007803   0.005728  -0.001860  -0.000083   0.000080
     5  C    0.401156   0.398222  -0.008749  -0.000162   0.000049
     6  C    0.012112   0.002705   0.442901  -0.089430   0.017021
     7  C    0.006505   0.000170  -0.102402   0.437616  -0.042132
     8  H   -0.000237  -0.015001   0.003301   0.000080  -0.000001
     9  H   -0.000511  -0.000377   0.000317   0.000195  -0.000195
    10  H   -0.000629  -0.000304   0.000069   0.000000  -0.000001
    11  H    0.001219  -0.000368   0.000179  -0.000003   0.000003
    12  H   -0.038063  -0.032189   0.001079   0.000067  -0.000005
    13  H    0.597055  -0.029524  -0.012024   0.000097   0.000004
    14  H   -0.029524   0.588216  -0.000057  -0.000004  -0.000001
    15  H   -0.012024  -0.000057   0.588361  -0.002957  -0.000358
    16  H    0.000097  -0.000004  -0.002957   0.610474  -0.014472
    17  H    0.000004  -0.000001  -0.000358  -0.014472   0.455835
 Mulliken charges:
               1
     1  O   -0.262734
     2  O   -0.329400
     3  C    0.087232
     4  C   -0.340178
     5  C   -0.369088
     6  C   -0.070343
     7  C    0.004444
     8  H    0.116161
     9  H    0.133744
    10  H    0.108233
    11  H    0.091371
    12  H    0.108904
    13  H    0.115322
    14  H    0.116062
    15  H    0.125293
    16  H    0.104383
    17  H    0.260596
 Sum of Mulliken charges =  -0.00000
 Mulliken charges with hydrogens summed into heavy atoms:
               1
     1  O   -0.262734
     2  O   -0.068804
     3  C    0.203393
     4  C   -0.006831
     5  C   -0.028800
     6  C    0.054950
     7  C    0.108827
 APT charges:
               1
     1  O   -0.203699
     2  O   -0.884103
     3  C   -0.241617
     4  C   -1.106295
     5  C   -1.076682
     6  C   -0.422520
     7  C   -0.305889
     8  H    0.440748
     9  H    0.225854
    10  H    0.483087
    11  H    0.336141
    12  H    0.310362
    13  H    0.230795
    14  H    0.495626
    15  H    0.368191
    16  H    0.489248
    17  H    0.860754
 Sum of APT charges =  -0.00000
 APT charges with hydrogens summed into heavy atoms:
               1
     1  O   -0.203699
     2  O   -0.023349
     3  C    0.199131
     4  C   -0.061213
     5  C   -0.039899
     6  C   -0.054329
     7  C    0.183358
 Electronic spatial extent (au):  <R**2>=            909.3828
 Charge=             -0.0000 electrons
 Dipole moment (field-independent basis, Debye):
    X=              0.8860    Y=             -1.4426    Z=              1.6244  Tot=              2.3462
 Quadrupole moment (field-independent basis, Debye-Ang):
   XX=            -33.2889   YY=            -43.3536   ZZ=            -45.7353
   XY=             -0.4995   XZ=              4.4338   YZ=              1.1089
 Traceless Quadrupole moment (field-independent basis, Debye-Ang):
   XX=              7.5037   YY=             -2.5610   ZZ=             -4.9427
   XY=             -0.4995   XZ=              4.4338   YZ=              1.1089
 Octapole moment (field-independent basis, Debye-Ang**2):
  XXX=             47.4317  YYY=              0.7868  ZZZ=              0.6453  XYY=              5.1995
  XXY=              4.4672  XXZ=             11.1195  XZZ=              3.5790  YZZ=              2.9028
  YYZ=             -1.1581  XYZ=              1.8784
 Hexadecapole moment (field-independent basis, Debye-Ang**3):
 XXXX=           -632.6024 YYYY=           -286.1423 ZZZZ=           -139.0730 XXXY=             36.0438
 XXXZ=             60.4934 YYYX=              9.6165 YYYZ=              3.2830 ZZZX=              8.8817
 ZZZY=              3.3568 XXYY=           -169.8303 XXZZ=           -143.5006 YYZZ=            -73.3240
 XXYZ=              7.0194 YYXZ=              8.8375 ZZXY=              5.4982
 N-N= 3.178037772523D+02 E-N=-1.445966284397D+03  KE= 3.448068907743D+02
  Exact polarizability:   0.000   0.000   0.000   0.000   0.000   0.000
 Approx polarizability:  91.197   4.428  77.417   8.470   2.313  71.626
 No NMR shielding tensors so no spin-rotation constants.
 Leave Link  601 at Thu Sep 26 08:41:06 2019, MaxMem=   671088640 cpu:              52.9 elap:              26.5
 (Enter /shared/centos7/gaussian/g16/l701.exe)
 SCFChk:  SCF convergence  3.45D-09 required  1.00D-08
 ... and contract with generalized density number  0.
 Compute integral second derivatives.
 Entering OneElI...
 Calculate overlap and kinetic energy integrals
    NBasis = 395  MinDer = 2  MaxDer = 2
 Requested accuracy = 0.1000D-12
 PrmmSu-InSpLW:  IPartL=    0 NPrtUS=   20 NPrtUL=    1 DoSpLW=F IThBeg=    0 IThEnd=   19 NThAct=   20.
 PrsmSu:  NPrtUS=  20 ThrOK=T IAlg=1 NPAlg=1 LenDen=           0 ISkipM=0 DoSpLW=F IThBeg=    0 IThEnd=   19.
 Prism:   IPart=     0 DynPar=F LinDyn=F Incr=           4.
 PRISM was handed    33312417 working-precision words and  8445 shell-pairs
 PRISM was handed    33312417 working-precision words and  8445 shell-pairs
 PRISM was handed    33312417 working-precision words and  8445 shell-pairs
 PRISM was handed    33312417 working-precision words and  8445 shell-pairs
 PRISM was handed    33312417 working-precision words and  8445 shell-pairs
 PRISM was handed    33312417 working-precision words and  8445 shell-pairs
 PRISM was handed    33312417 working-precision words and  8445 shell-pairs
 PRISM was handed    33312417 working-precision words and  8445 shell-pairs
 PRISM was handed    33312417 working-precision words and  8445 shell-pairs
 PRISM was handed    33312417 working-precision words and  8445 shell-pairs
 IPart=  0 NShTot=         465 NBatch=          84 AvBLen=         5.5
 IPart=  2 NShTot=         454 NBatch=          75 AvBLen=         6.1
 PRISM was handed    33312417 working-precision words and  8445 shell-pairs
 PRISM was handed    33312417 working-precision words and  8445 shell-pairs
 PRISM was handed    33312417 working-precision words and  8445 shell-pairs
 IPart=  1 NShTot=         460 NBatch=          80 AvBLen=         5.8
 PRISM was handed    33312417 working-precision words and  8445 shell-pairs
 PRISM was handed    33312417 working-precision words and  8445 shell-pairs
 PRISM was handed    33312417 working-precision words and  8445 shell-pairs
 PRISM was handed    33312417 working-precision words and  8445 shell-pairs
 IPart=  4 NShTot=         444 NBatch=          67 AvBLen=         6.6
 PRISM was handed    33312417 working-precision words and  8445 shell-pairs
 PRISM was handed    33312417 working-precision words and  8445 shell-pairs
 IPart=  3 NShTot=         448 NBatch=          70 AvBLen=         6.4
 PRISM was handed    33312417 working-precision words and  8445 shell-pairs
 IPart= 15 NShTot=         402 NBatch=          40 AvBLen=        10.1
 IPart= 17 NShTot=         400 NBatch=          39 AvBLen=        10.3
 IPart=  6 NShTot=         435 NBatch=          62 AvBLen=         7.0
 IPart= 18 NShTot=         393 NBatch=          36 AvBLen=        10.9
 IPart= 10 NShTot=         416 NBatch=          49 AvBLen=         8.5
 IPart= 11 NShTot=         413 NBatch=          48 AvBLen=         8.6
 IPart= 19 NShTot=         392 NBatch=          35 AvBLen=        11.2
 IPart=  5 NShTot=         438 NBatch=          63 AvBLen=         7.0
 IPart=  7 NShTot=         425 NBatch=          53 AvBLen=         8.0
 IPart= 12 NShTot=         409 NBatch=          44 AvBLen=         9.3
 IPart=  9 NShTot=         416 NBatch=          49 AvBLen=         8.5
 IPart= 16 NShTot=         402 NBatch=          40 AvBLen=        10.1
 IPart= 13 NShTot=         409 NBatch=          44 AvBLen=         9.3
 IPart= 14 NShTot=         406 NBatch=          43 AvBLen=         9.4
 IPart=  8 NShTot=         418 NBatch=          50 AvBLen=         8.4
 PrSmSu:  NxtVal=             81.
 Entering OneElI...
 Calculate potential energy integrals
    NBasis = 395  MinDer = 2  MaxDer = 2
 Requested accuracy = 0.1000D-12
 PrmmSu-InSpLW:  IPartL=    0 NPrtUS=   20 NPrtUL=    1 DoSpLW=F IThBeg=    0 IThEnd=   19 NThAct=   20.
 PrsmSu:  NPrtUS=  20 ThrOK=T IAlg=1 NPAlg=1 LenDen=           0 ISkipM=0 DoSpLW=F IThBeg=    0 IThEnd=   19.
 Prism:   IPart=     0 DynPar=F LinDyn=F Incr=          65.
 PRISM was handed    33356854 working-precision words and  7692 shell-pairs
 PRISM was handed    33356854 working-precision words and  7692 shell-pairs
 PRISM was handed    33356854 working-precision words and  7692 shell-pairs
 PRISM was handed    33356854 working-precision words and  7692 shell-pairs
 PRISM was handed    33356854 working-precision words and  7692 shell-pairs
 PRISM was handed    33356854 working-precision words and  7692 shell-pairs
 PRISM was handed    33356854 working-precision words and  7692 shell-pairs
 PRISM was handed    33356854 working-precision words and  7692 shell-pairs
 PRISM was handed    33356854 working-precision words and  7692 shell-pairs
 PRISM was handed    33356854 working-precision words and  7692 shell-pairs
 PRISM was handed    33356854 working-precision words and  7692 shell-pairs
 PRISM was handed    33356854 working-precision words and  7692 shell-pairs
 PRISM was handed    33356854 working-precision words and  7692 shell-pairs
 PRISM was handed    33356854 working-precision words and  7692 shell-pairs
 PRISM was handed    33356854 working-precision words and  7692 shell-pairs
 PRISM was handed    33356854 working-precision words and  7692 shell-pairs
 PRISM was handed    33356854 working-precision words and  7692 shell-pairs
 PRISM was handed    33356854 working-precision words and  7692 shell-pairs
 PRISM was handed    33356854 working-precision words and  7692 shell-pairs
 PRISM was handed    33356854 working-precision words and  7692 shell-pairs
 IPart=  4 NShTot=        6800 NBatch=         400 AvBLen=        17.0
 IPart=  0 NShTot=        7208 NBatch=         424 AvBLen=        17.0
 IPart= 16 NShTot=        6222 NBatch=         366 AvBLen=        17.0
 IPart= 17 NShTot=        6205 NBatch=         365 AvBLen=        17.0
 IPart=  6 NShTot=        6698 NBatch=         394 AvBLen=        17.0
 IPart= 15 NShTot=        6256 NBatch=         368 AvBLen=        17.0
 IPart=  3 NShTot=        6885 NBatch=         405 AvBLen=        17.0
 IPart= 14 NShTot=        6273 NBatch=         369 AvBLen=        17.0
 IPart= 18 NShTot=        6188 NBatch=         364 AvBLen=        17.0
 IPart= 19 NShTot=        6171 NBatch=         363 AvBLen=        17.0
 IPart= 12 NShTot=        6324 NBatch=         372 AvBLen=        17.0
 IPart= 13 NShTot=        6290 NBatch=         370 AvBLen=        17.0
 IPart=  9 NShTot=        6460 NBatch=         380 AvBLen=        17.0
 IPart= 11 NShTot=        6392 NBatch=         376 AvBLen=        17.0
 IPart=  7 NShTot=        6562 NBatch=         386 AvBLen=        17.0
 IPart=  8 NShTot=        6528 NBatch=         384 AvBLen=        17.0
 IPart=  1 NShTot=        7123 NBatch=         419 AvBLen=        17.0
 IPart=  5 NShTot=        6749 NBatch=         397 AvBLen=        17.0
 IPart= 10 NShTot=        6443 NBatch=         379 AvBLen=        17.0
 IPart=  2 NShTot=        6987 NBatch=         411 AvBLen=        17.0
 PrSmSu:  NxtVal=           1301.
 Polarizability after L701:
                1             2             3 
      1  0.000000D+00
      2  0.000000D+00  0.000000D+00
      3  0.000000D+00  0.000000D+00  0.000000D+00
 Dipole Derivatives after L701:
                 1             2             3             4             5 
      1  -0.255516D+00  0.183479D-01  0.427045D-01 -0.188420D+01  0.108305D+00
      2   0.206082D-01 -0.226961D+00 -0.421894D-01 -0.452448D+00 -0.214507D+00
      3   0.139635D+00 -0.129312D+00 -0.128619D+00 -0.357832D+00 -0.220527D-01
                 6             7             8             9            10 
      1  -0.712940D+00 -0.547003D+00 -0.244283D+00 -0.870914D+00 -0.115937D+01
      2  -0.201988D+00 -0.150353D+00  0.200075D+00 -0.139813D+00  0.152039D+00
      3  -0.553599D+00 -0.206276D+00 -0.122728D+00 -0.377921D+00 -0.146822D-01
                11            12            13            14            15 
      1   0.893253D+00  0.330062D+00 -0.102042D+01 -0.707531D+00  0.723587D+00
      2  -0.124317D+01 -0.147198D+00 -0.203298D+00 -0.120435D+01  0.320459D+00
      3   0.265916D-01 -0.916346D+00  0.779735D-01  0.720789D-01 -0.100528D+01
                16            17            18            19            20 
      1  -0.537828D+00  0.123361D+00 -0.451382D+00 -0.164604D+00  0.488669D+00
      2   0.182931D+00 -0.692975D+00  0.108616D+00  0.111429D+00 -0.682048D+00
      3  -0.294447D+00 -0.722160D-01 -0.367550D-01 -0.255463D+00  0.521055D-01
                21            22            23            24            25 
      1  -0.119357D+00  0.652266D+00  0.160390D+00  0.547965D+00 -0.831716D-01
      2   0.255601D-02  0.615120D-01  0.171029D+00  0.741461D-01  0.573320D+00
      3  -0.710151D-01  0.267395D+00  0.924283D-01  0.498948D+00  0.562762D-01
                26            27            28            29            30 
      1  -0.190848D+00 -0.407717D-01  0.811406D+00 -0.421613D+00  0.555825D+00
      2   0.656052D+00  0.727870D-01 -0.490591D+00  0.383632D+00 -0.354583D+00
      3   0.531911D-01  0.104681D+00  0.176636D+00 -0.781687D-01  0.254223D+00
                31            32            33            34            35 
      1   0.362411D+00  0.693932D-01 -0.782600D+00  0.171283D+00 -0.276266D+00
      2  -0.150138D+00  0.787354D-01  0.367482D+00  0.260181D-01  0.572097D-01
      3  -0.187126D+00 -0.815648D-01  0.567277D+00 -0.927754D-01  0.307058D+00
                36            37            38            39            40 
      1  -0.534314D+00 -0.239306D-01  0.128682D+00 -0.739688D-01  0.909514D+00
      2  -0.168274D+00 -0.566892D+00  0.568276D+00 -0.435487D-01  0.541431D+00
      3   0.702594D+00  0.156888D+00 -0.179255D+00  0.148038D+00 -0.114547D+00
                41            42            43            44            45 
      1   0.561307D+00  0.183606D+00  0.768864D-01 -0.268487D+00  0.674118D-01
      2   0.464471D+00  0.103511D+00  0.215335D+00  0.909305D+00 -0.161540D-01
      3  -0.102627D+00  0.112894D+00  0.107463D+00  0.249663D+00  0.118381D+00
                46            47            48            49            50 
      1   0.936204D+00 -0.673512D+00  0.421626D+00  0.175607D+01  0.230830D+00
      2  -0.307731D+00  0.398303D+00 -0.142495D+00  0.436828D+00  0.376921D+00
      3   0.183699D+00 -0.111620D+00  0.133236D+00  0.357184D+00  0.464276D-01
                51 
      1   0.713462D+00
      2   0.206687D+00
      3   0.449267D+00
 Hessian after L701:
                1             2             3             4             5 
      1  0.512191D+01
      2  0.369720D+01  0.148973D+02
      3  0.678107D+00  0.189046D+01  0.156270D+02
      4  0.453048D+00  0.395308D+00  0.585326D+00  0.860663D+01
      5  0.439800D+00 -0.289963D+00  0.255724D+00 -0.351689D+01  0.669666D+01
      6  0.594577D+00  0.234377D+00 -0.205897D+00 -0.290149D+01 -0.168925D+01
      7 -0.130273D+01  0.378181D-02 -0.301004D+01  0.272401D+00  0.148557D+00
      8 -0.465334D-01 -0.879561D+01 -0.136111D+00  0.128520D+00 -0.986448D-01
      9 -0.292123D+01 -0.201287D+00 -0.774928D+01  0.587027D-01  0.167299D-01
     10 -0.203403D+00 -0.274604D+00 -0.196873D+00  0.156245D+00 -0.305331D-01
     11 -0.168831D+00  0.220069D+00  0.270530D+00  0.782265D-02 -0.110911D+00
     12 -0.167269D+00  0.306484D+00  0.399752D-01  0.176354D-01 -0.742192D-03
     13 -0.113719D+00  0.257499D+00 -0.324685D+00  0.108319D+00  0.123815D+00
     14  0.199958D+00  0.102175D+00 -0.335656D+00  0.100941D+00 -0.436845D-01
     15 -0.258767D+00 -0.352417D+00  0.314281D+00  0.355403D-03  0.391678D-02
     16 -0.438345D+01 -0.473714D+01  0.220265D+01  0.426403D+00 -0.466530D-01
     17 -0.469524D+01 -0.592818D+01 -0.248359D+01 -0.273598D+00 -0.848668D+00
     18  0.197741D+01 -0.233064D+01 -0.875815D+01 -0.101525D+00 -0.104021D+00
     19  0.307502D+00  0.473054D+00  0.783464D-01 -0.851994D+01  0.218419D+01
     20  0.496285D+00 -0.369260D+00  0.220720D+00  0.239388D+01  0.476144D+00
     21  0.101988D+00  0.195046D+00  0.302040D+00  0.281182D+00  0.120095D+01
     22 -0.250516D+00  0.885709D-01  0.253719D+00  0.248660D-01  0.127287D-01
     23  0.718082D-01  0.165202D+00  0.664477D-01  0.111309D-01 -0.604022D-02
     24  0.254811D+00  0.821698D-01  0.257320D+00  0.202773D-01  0.877078D-02
     25 -0.490862D-01 -0.138704D-01 -0.247615D-01  0.784378D-01 -0.248528D-01
     26 -0.866620D-01  0.526045D-03  0.798079D-01 -0.677259D-01 -0.266399D-01
     27 -0.540328D-01  0.521897D-01 -0.354585D-01 -0.112524D-02 -0.621359D-03
     28  0.104708D+00 -0.974370D-01 -0.980475D-02  0.239530D-01 -0.506037D-02
     29 -0.998597D-01  0.101343D-01  0.835320D-02 -0.970732D-02 -0.729515D-02
     30  0.100234D-01 -0.566732D-02 -0.518942D-01  0.939802D-02 -0.126414D-02
     31  0.460607D-01 -0.360394D-01 -0.981972D-01  0.253566D-01 -0.112089D-02
     32 -0.386640D-01 -0.363753D-01  0.346791D-01 -0.101167D-02 -0.108130D-01
     33 -0.105432D+00  0.372971D-01  0.563806D-01 -0.207609D-01 -0.697919D-03
     34  0.142272D-02  0.236205D-01 -0.868464D-01  0.186018D-01  0.147995D-01
     35  0.118038D-01 -0.447792D-01 -0.132823D-01  0.465125D-02 -0.108654D-01
     36 -0.937129D-01 -0.402591D-01  0.980088D-01 -0.242961D-01 -0.127974D-01
     37  0.503978D-02 -0.486931D-01  0.187676D-01 -0.611961D-02  0.382507D-02
     38  0.136837D-02 -0.606165D-02 -0.342300D-01  0.294043D-01  0.195571D-01
     39 -0.139486D-01  0.444487D-02  0.530435D-01 -0.648251D-02 -0.528027D-02
     40  0.729035D-01  0.865378D-01 -0.631908D-01  0.134353D-01  0.145428D-01
     41  0.843483D-01  0.120505D-01 -0.456822D-01  0.129475D-01  0.314456D-02
     42 -0.420798D-01 -0.304877D-01 -0.200875D-01  0.353118D-03  0.650967D-03
     43  0.855623D-02  0.250451D+00 -0.119189D+00 -0.113912D-01  0.687449D-01
     44  0.209491D+00  0.852381D-01  0.257093D+00  0.722672D-01  0.109775D+00
     45 -0.768399D-01  0.192777D+00  0.760310D-01  0.139659D-01  0.311776D-01
     46  0.122315D+00 -0.811442D-01  0.770369D-01  0.250880D+00 -0.659993D-03
     47 -0.964483D-01 -0.101907D-01 -0.449320D-01 -0.445982D-01 -0.222426D+00
     48  0.778717D-01 -0.400359D-01 -0.543301D-02  0.333442D-01 -0.126416D-01
     49  0.594313D-01  0.128987D-01  0.396389D-01 -0.192113D+01  0.614764D+00
     50  0.201770D-01 -0.122386D-01  0.966761D-02  0.756657D+00 -0.562933D+01
     51  0.385198D-01  0.555520D-02  0.213799D-02  0.203514D+01  0.309394D+00
                6             7             8             9            10 
      6  0.140433D+02
      7  0.892040D-01  0.150558D+02
      8  0.244299D-01  0.345037D+00  0.199884D+02
      9 -0.136572D+00  0.251054D+01  0.358050D+00  0.203714D+02
     10 -0.240773D-02 -0.543495D+01 -0.133309D+01 -0.511243D+00  0.140692D+02
     11 -0.814834D-03 -0.128605D+01 -0.253644D+01  0.136960D+01  0.131100D+01
     12 -0.115102D+00 -0.465267D+00  0.135510D+01 -0.535785D+01  0.537298D+00
     13 -0.268406D-01 -0.623390D+01  0.685948D+00 -0.611907D+00 -0.840216D-01
     14 -0.102395D-01  0.650761D+00 -0.409388D+01 -0.220053D+01 -0.176047D-01
     15 -0.105571D+00 -0.568751D+00 -0.219411D+01 -0.421254D+01 -0.141227D-01
     16 -0.123906D+00  0.252515D+00 -0.668458D-01 -0.156667D+00  0.707530D-01
     17 -0.193902D+00 -0.100023D+00  0.583972D-01  0.460280D-01 -0.251341D+00
     18  0.335117D+00 -0.663909D-01  0.134351D-01  0.704586D-01 -0.776293D-01
     19  0.282640D+00  0.266026D+00 -0.836585D-01 -0.325266D-01  0.160815D+00
     20  0.123219D+01 -0.626916D-01 -0.138986D+00 -0.766052D-03 -0.114267D+00
     21 -0.878983D+01  0.227860D-01 -0.138373D-01 -0.150005D+00  0.115708D-01
     22  0.117498D-01 -0.339495D+01  0.394869D+00  0.145555D+01  0.196385D+00
     23  0.416496D-02  0.385018D+00 -0.449201D+01  0.450372D+00  0.790533D-02
     24 -0.247087D-02  0.136766D+01  0.437350D+00 -0.294774D+01  0.280811D-01
     25  0.541318D-02  0.972681D-01  0.228926D-01 -0.630118D-02 -0.266314D+01
     26 -0.654863D-03 -0.492107D-01 -0.248067D-01 -0.468654D-01  0.145650D+01
     27 -0.436551D-01 -0.198260D-01 -0.365466D-01  0.576539D-01  0.190011D+00
     28  0.565415D-02  0.612115D-01  0.416188D-01  0.330779D-01 -0.267703D+01
     29 -0.128229D-02  0.453728D-01 -0.313018D-01 -0.190835D-01 -0.766535D+00
     30 -0.713802D-02  0.391436D-01 -0.309503D-01  0.942919D-01  0.877325D+00
     31 -0.106527D-01  0.497585D-01  0.701148D-01  0.837536D-01 -0.360046D+01
     32 -0.759666D-03  0.758712D-01  0.336699D-01 -0.129293D+00  0.267940D-01
     33 -0.328652D-02  0.480355D-01 -0.804762D-01  0.256668D-01 -0.842712D+00
     34 -0.135472D-01  0.769468D-01 -0.283234D-01  0.677912D-01  0.248105D-01
     35  0.124375D-03 -0.291258D-01  0.621704D-01  0.155541D+00  0.291377D-01
     36  0.300239D-03  0.447751D-01  0.109175D+00 -0.644925D-01 -0.293983D-01
     37 -0.597374D-02  0.128995D+00 -0.462113D-02 -0.332370D-01 -0.164766D-01
     38 -0.107129D-01  0.782977D-01 -0.764402D-02  0.972389D-01 -0.809960D-01
     39 -0.130311D-01 -0.799433D-01  0.103920D+00  0.520682D-01  0.158026D-01
     40 -0.257730D-02  0.274656D-01 -0.498856D-01  0.798087D-01 -0.252773D-01
     41 -0.144410D-02 -0.664678D-01  0.285690D-01  0.706657D-01  0.520303D-01
     42 -0.675831D-02  0.847150D-01  0.762565D-01  0.173453D-01 -0.488546D-03
     43  0.227305D-01  0.308020D-01 -0.683913D-01 -0.135356D-01 -0.141183D-01
     44  0.534718D-01 -0.126010D+00  0.563131D-01  0.334965D-01 -0.261715D-02
     45 -0.218268D-01 -0.136561D-01  0.150108D-01 -0.513008D-01  0.210813D-02
     46  0.304036D-01  0.289374D-01 -0.121434D-01 -0.113876D-02  0.129924D-01
     47 -0.203005D-01 -0.174355D-01 -0.418403D-02  0.308219D-03 -0.132128D-01
     48  0.187566D+00  0.822158D-02 -0.225701D-02 -0.127973D-01  0.348776D-02
     49  0.204502D+01  0.183499D-01  0.449352D-02 -0.143627D-02  0.276585D-01
     50  0.380604D+00  0.432188D-02 -0.400721D-02 -0.204464D-03  0.143709D-02
     51 -0.511512D+01  0.880154D-02  0.156015D-02 -0.631401D-02  0.919010D-02
               11            12            13            14            15 
     11  0.124080D+02
     12 -0.854180D+00  0.147341D+02
     13 -0.725052D-01  0.141255D-01  0.147336D+02
     14  0.213294D+00 -0.139405D+00 -0.505388D+00  0.135728D+02
     15 -0.162683D-03 -0.763160D-01  0.787193D+00  0.156103D+01  0.144397D+02
     16 -0.228444D+00 -0.823889D-01  0.150649D+00 -0.985256D-01 -0.779963D-01
     17  0.565853D-01  0.659572D-01  0.493630D-01 -0.116746D+00 -0.503232D-01
     18  0.644384D-01 -0.149721D+00 -0.146680D+00  0.247254D-03 -0.315310D-01
     19 -0.978809D-01  0.116352D-01  0.201936D+00 -0.258658D-02 -0.325010D-01
     20 -0.524376D-01 -0.796632D-02  0.442947D-01 -0.120138D+00 -0.590250D-02
     21 -0.816065D-02 -0.882855D-01 -0.505068D-01 -0.144411D-01 -0.944682D-01
     22 -0.208344D-01  0.241555D-02  0.225705D+00  0.342561D-01 -0.516555D-01
     23 -0.947778D-01 -0.195696D+00  0.176599D-01  0.140351D+00  0.161910D+00
     24 -0.218922D+00  0.350136D-01  0.115552D-02  0.185117D+00 -0.194358D+00
     25  0.118105D+01  0.132869D+00 -0.291220D-01  0.390348D-01  0.147302D-02
     26 -0.291620D+01  0.102070D+00  0.375578D-01  0.999159D-01 -0.122183D-01
     27  0.125871D+00 -0.403123D+01 -0.421682D-02 -0.138609D-01 -0.399938D-01
     28 -0.740136D+00  0.944856D+00 -0.159116D-01 -0.654979D-01  0.279227D-01
     29 -0.337841D+01 -0.640594D+00 -0.538106D-01  0.869492D-01 -0.578891D-01
     30 -0.576636D+00 -0.317815D+01  0.296086D-01 -0.636021D-01 -0.170977D-01
     31  0.975013D-01 -0.957110D+00  0.395981D-03  0.756507D-03 -0.114065D-01
     32 -0.401200D+01 -0.618866D-02  0.522264D-02 -0.292778D-01  0.642350D-02
     33 -0.179442D+00 -0.169424D+01 -0.168719D-01  0.311858D-01  0.207941D-01
     34  0.146563D-01 -0.124854D-01 -0.398012D+01 -0.169004D+00 -0.311182D+00
     35 -0.362909D-01  0.725194D-01 -0.110854D+00 -0.369878D+01  0.847168D+00
     36  0.564946D-01 -0.117092D-01 -0.231999D+00  0.103277D+01 -0.177557D+01
     37 -0.784576D-01  0.158351D-01 -0.281934D+01 -0.129131D+01  0.187034D+00
     38  0.132582D+00 -0.312183D-01 -0.160218D+01 -0.310230D+01 -0.135031D+00
     39 -0.364168D-01 -0.463932D-01  0.337079D+00 -0.218429D+00 -0.435149D+01
     40  0.659174D-01 -0.847681D-02 -0.217876D+01  0.114275D+01  0.275425D+00
     41  0.123515D+00 -0.212133D-01  0.116972D+01 -0.302874D+01  0.225535D+00
     42 -0.126837D-01 -0.454636D-01  0.221322D+00  0.179734D+00 -0.383599D+01
     43  0.124514D-01  0.358249D-02 -0.156076D-01 -0.168927D-01  0.306646D-01
     44 -0.780685D-02 -0.254558D-02 -0.454053D-01  0.275490D-01  0.413247D-02
     45 -0.236591D-02 -0.598768D-02  0.141585D-01  0.784916D-02 -0.286087D-01
     46 -0.384557D-02  0.449106D-02  0.272066D-01 -0.706078D-02  0.699966D-02
     47 -0.385472D-02 -0.294855D-02 -0.992535D-02 -0.653938D-02 -0.403255D-02
     48 -0.464384D-05 -0.537097D-02  0.236354D-02 -0.185288D-02 -0.933930D-02
     49  0.659183D-02  0.825452D-02  0.226503D-01  0.541488D-02  0.931466D-02
     50 -0.494450D-02  0.570817D-03  0.899345D-02 -0.295301D-02  0.197045D-02
     51  0.285621D-02 -0.322516D-02  0.669961D-02  0.905222D-04 -0.191331D-02
               16            17            18            19            20 
     16  0.118402D+02
     17  0.169731D+01  0.170230D+02
     18 -0.684538D+01  0.710266D+00  0.246007D+02
     19 -0.371728D+01  0.271112D+01  0.546722D+01  0.143223D+02
     20  0.229005D+01 -0.895660D+01  0.135733D+01 -0.331303D+01  0.123141D+02
     21  0.528294D+01  0.152232D+01 -0.113592D+02 -0.602142D+01 -0.190219D+01
     22  0.104095D+00 -0.937300D-02  0.455454D-01 -0.872986D-02  0.842278D-02
     23  0.576548D-02 -0.310960D-01 -0.814052D-03  0.698819D-02 -0.424431D-02
     24  0.661721D-01 -0.266613D-02  0.237785D-02  0.555052D-02  0.251991D-02
     25 -0.158620D-01 -0.103231D-02 -0.410341D-03 -0.389959D-02 -0.102358D-01
     26 -0.218574D-01  0.357093D-01  0.138527D-01 -0.336433D-01  0.930863D-02
     27 -0.595616D-02  0.112267D-01 -0.123586D-01 -0.211286D-02  0.107583D-02
     28  0.108315D-01 -0.128787D-01  0.110248D-02  0.155708D-01 -0.840039D-02
     29 -0.113317D-01 -0.486792D-03 -0.769503D-03 -0.114526D-01 -0.261414D-02
     30  0.541991D-02 -0.305533D-02 -0.732233D-02  0.703689D-02 -0.262584D-02
     31  0.148512D-01 -0.157309D-01 -0.119483D-01  0.954924D-02 -0.436719D-02
     32 -0.106669D-01 -0.441641D-02  0.171284D-02 -0.189982D-02 -0.699946D-02
     33 -0.214282D-01  0.111779D-01  0.316436D-04 -0.166061D-01  0.356001D-02
     34  0.292155D-01 -0.830345D-02 -0.490317D-01  0.135574D-01  0.416617D-02
     35 -0.129084D-01 -0.260357D-01  0.150468D-01 -0.714983D-02 -0.104956D-01
     36 -0.587907D-01  0.931069D-02  0.274599D-01 -0.265156D-01 -0.423051D-02
     37 -0.108025D+00  0.642678D-01  0.429474D-02  0.370709D-01  0.339051D-01
     38  0.120506D+00 -0.231034D-01 -0.795755D-01  0.826747D-01 -0.110889D-01
     39 -0.388225D-01 -0.686306D-01 -0.115508D+00 -0.100375D-01 -0.314375D-02
     40  0.829491D-01  0.319771D-01 -0.225604D-01  0.304000D-01  0.137693D-01
     41  0.390611D-01 -0.178881D-01 -0.817395D-02  0.163567D-01 -0.364089D-02
     42 -0.225615D-01 -0.334535D-02 -0.224699D-01 -0.770548D-04  0.551988D-04
     43 -0.457625D+01  0.471228D+00  0.103061D-01  0.111599D+00 -0.341808D+00
     44  0.723920D+00 -0.158145D+01  0.164613D+00 -0.438011D+00 -0.719173D-01
     45  0.530001D-01  0.259670D+00 -0.471500D+01 -0.254750D+00 -0.278193D+00
     46 -0.366858D+00  0.150956D+00 -0.325827D+00 -0.306319D+01 -0.133945D+01
     47  0.183201D+00  0.323896D+00  0.911439D-01 -0.127634D+01 -0.309663D+01
     48 -0.309895D+00  0.729732D-01  0.147415D+00  0.643672D+00 -0.587855D+00
     49  0.185297D+00  0.191302D+00  0.141502D+00 -0.163290D+00 -0.905193D-01
     50  0.174556D+00  0.370607D-01  0.919124D-01 -0.208737D+00  0.454515D-01
     51  0.133613D+00  0.965803D-01 -0.122425D-01 -0.995486D-01 -0.245831D-01
               21            22            23            24            25 
     21  0.241973D+02
     22 -0.365312D-02  0.305728D+01
     23  0.250758D-02 -0.503047D+00  0.438214D+01
     24 -0.154648D-03 -0.184011D+01 -0.602061D+00  0.267678D+01
     25  0.284146D-03 -0.218252D-02  0.326336D-01  0.262966D-01  0.282497D+01
     26 -0.313591D-02  0.462858D-01  0.442697D-01  0.531142D-01 -0.109831D+01
     27 -0.150969D-01  0.253801D-01  0.377397D-01  0.530618D-02 -0.161904D+00
     28  0.473518D-02  0.165792D-01  0.215350D-01  0.554936D-02 -0.161850D+00
     29 -0.262123D-02  0.233718D-01 -0.569396D-01 -0.278836D-01 -0.392386D-01
     30 -0.327674D-02  0.612227D-02 -0.304505D-01  0.130352D-01 -0.968980D-01
     31 -0.368956D-02 -0.279666D-01 -0.764615D-02 -0.142830D-01 -0.669612D-01
     32 -0.554115D-04  0.178863D-02  0.361094D-02  0.530633D-01 -0.101196D+00
     33 -0.357379D-02  0.814599D-02  0.519034D-01  0.699719D-01  0.136613D+00
     34 -0.841440D-02 -0.307840D-01 -0.400831D-03  0.119223D-01 -0.601833D-02
     35  0.231165D-02 -0.140119D-02 -0.326337D-01 -0.122434D-01  0.722983D-02
     36 -0.124515D-02  0.387092D-01 -0.850376D-02  0.133440D+00 -0.108363D-01
     37  0.330903D-02  0.864678D-02 -0.590545D-02  0.154063D-01 -0.271776D-02
     38 -0.433098D-03 -0.140179D-01  0.154117D-02 -0.165443D-01  0.498448D-02
     39 -0.501791D-01  0.114567D-01 -0.760560D-02  0.854540D-02 -0.116637D-02
     40  0.219564D-02  0.359423D-01 -0.229200D-01  0.252662D-01  0.327521D-02
     41  0.275788D-03 -0.185828D-01 -0.202631D-01  0.782797D-01  0.348101D-02
     42 -0.768237D-02  0.200429D-01  0.739415D-01 -0.508571D-01  0.759446D-03
     43 -0.207613D+00  0.319928D-01 -0.226693D-01  0.147135D-01 -0.582829D-03
     44 -0.303689D+00 -0.403400D-01  0.244494D-02 -0.181588D-01 -0.211401D-03
     45  0.191437D+00  0.103583D-01 -0.493197D-02 -0.956302D-02 -0.594039D-03
     46  0.680171D+00  0.729326D-02  0.155741D-03  0.597502D-02  0.132144D-02
     47 -0.593635D+00 -0.423618D-02 -0.146553D-02 -0.301437D-02 -0.242124D-02
     48 -0.415943D+01  0.317718D-02  0.187872D-03  0.134053D-02 -0.114987D-05
     49 -0.958600D-01  0.633977D-02  0.198861D-02  0.556343D-02 -0.385361D-02
     50 -0.812191D-01  0.153969D-02 -0.832196D-04  0.110855D-02  0.612031D-04
     51  0.317475D-01  0.305086D-02  0.888921D-03  0.200982D-02 -0.834989D-03
               26            27            28            29            30 
     26  0.259065D+01
     27 -0.236986D+00  0.405380D+01
     28 -0.421245D-01 -0.121500D+00  0.248054D+01
     29  0.100668D+00 -0.287863D-01  0.912301D+00  0.317269D+01
     30 -0.266663D-01  0.469062D-01 -0.818714D+00  0.654049D+00  0.332137D+01
[...]
   zx         0.121180D+02      0.179570D+01      0.199799D+01
   zy         0.530430D+01      0.786015D+00      0.874560D+00
   zz         0.614746D+02      0.910959D+01      0.101358D+02

 ----------------------------------------------------------------------

 Test job not archived.
 1\1\GINC-C0228\Freq\RM062X\CC-pVTZ\C5H10O2\HARMS.N\26-Sep-2019\0\\#P G
 eom=AllCheck Guess=TCheck SCRF=Check Test GenChk RM062X/CC-pVTZ Freq\\
 Gaussian input prepared by ASE\\0,1\O,1.9681691362,-2.676244238,2.0055
 495528\O,1.1531369477,-2.6952054348,-0.6646231563\C,0.9830374437,-3.14
 08879646,2.9391735876\C,-0.2568141532,-3.6270928976,2.2097498174\C,0.6
 633979406,-2.0911038429,3.990787956\C,1.6586606789,-1.5357929735,1.322
 500304\C,1.3127465524,-1.5419592288,0.0427709883\H,1.4770809772,-3.986
 5194566,3.4180088733\H,-0.749528332,-2.7945494497,1.7052303971\H,0.013
 4524706,-4.3688770543,1.4607547819\H,-0.961847586,-4.0679917181,2.9149
 200214\H,0.1107152214,-1.257498159,3.5552811688\H,1.5785952918,-1.7090
 466834,4.4423150372\H,0.0457334227,-2.5279334205,4.7750567487\H,1.7613
 401019,-0.591526889,1.8445288255\H,1.1487858827,-0.6072354067,-0.47788
 30966\H,0.9524901439,-2.4862437764,-1.5777948568\\Version=EM64L-G16Rev
 A.03\State=1-A\HF=-346.9391847\RMSD=2.755e-09\RMSF=5.731e-07\ZeroPoint
 =0.1471514\Thermal=0.1557552\Dipole=-0.6072242,0.5033772,-0.3551109\Di
 poleDeriv=-0.50815,-0.0620852,0.0469588,-0.1297837,-0.8372147,0.618907
 4,0.131921,0.3112489,-1.0481135,-0.3557119,-0.047165,-0.1208041,-0.130
 0662,-0.6559571,-0.8698558,-0.0637938,-0.2731305,-0.9163392,0.5647448,
 0.2407428,-0.3271953,0.1630066,0.4502521,-0.0792271,-0.1766827,-0.1064
 585,0.8070733,-0.0910158,-0.0690097,0.0087122,-0.0616365,-0.0056799,-0
 .0393755,-0.1000488,-0.0473022,-0.050449,0.0198812,-0.0286093,0.066535
 3,0.0286522,-0.0368467,-0.1067242,0.0603713,-0.0652341,-0.0968567,-0.1
 785079,-0.1616989,0.2615339,0.0275671,0.5979093,-0.5571898,0.0894045,-
 0.2888093,0.3031112,-0.0529357,0.0545288,0.2024054,0.076425,0.5038184,
 0.796739,0.1522282,0.3288078,0.684502,-0.0287334,0.0588293,-0.0248446,
 0.0478728,-0.0883909,0.0722932,-0.0228284,0.050391,-0.0487097,0.034963
 1,0.0344669,-0.0513267,0.075392,-0.0530359,0.0546565,-0.0554297,0.0240
 204,0.0254614,0.0370087,0.0373722,0.0090551,0.0107232,-0.0009397,-0.07
 9277,-0.012284,-0.0997669,-0.0148412,-0.0174751,-0.0672286,0.0816963,-
 0.0589042,0.0377701,0.0513438,0.1020979,0.0667439,-0.0255155,0.0192965
 ,0.0687096,-0.0504797,0.0575758,-0.0459052,0.0226072,-0.0599358,0.0713
 015,0.0242192,-0.0635661,-0.0622247,-0.0860117,-0.0433473,0.0146338,-0
 .0569784,-0.0454885,-0.0459801,0.0305167,0.0096576,-0.0423447,0.096655
 ,-0.0543674,0.0327721,0.0682585,0.0715468,0.0386658,-0.0464507,0.13604
 7,0.0221242,-0.0764383,-0.0208158,-0.0966897,0.0145801,-0.0325937,-0.0
 558116,0.0274964,0.1431996,0.0140226,-0.0390944,0.0065993,-0.0685602,0
 .0142441,-0.0255773,0.0416791,0.0049585,0.3312976,0.0095695,0.0026427,
 0.0051071,0.2520641,0.0749981,-0.012907,0.0496347,0.3399368\Polar=55.2
 374406,4.1173244,63.7523502,1.0387568,-2.542289,84.3348327\Quadrupole=
 -4.8279837,-0.8739665,5.7019501,0.6548532,0.7709221,-2.7241446\PG=C01 
 [X(C5H10O2)]\NImag=0\\0.25036614,-0.02787197,0.37368386,-0.07543739,-0
 .18697286,0.29346886,-0.00747845,0.00048121,0.00315562,0.05052533,-0.0
 0174380,0.01432996,-0.00765889,0.00538621,0.37381435,0.00297195,0.0054
 3170,-0.00040022,0.14741315,0.02535240,0.68014834,-0.13914352,-0.01962
 607,0.06573956,-0.00044648,-0.00403193,-0.00267574,0.49784889,-0.00551
 447,-0.08226592,0.02225142,-0.00170827,-0.00204419,-0.00115946,-0.0679
 9807,0.58312325,0.05393012,0.02728080,-0.10906731,0.00115418,0.0040277
 4,0.00307678,0.05526858,-0.04084097,0.49958800,-0.03341143,-0.01739992
 ,0.00268451,0.00019314,0.00077664,0.00085956,-0.15211927,-0.02529470,-
 0.05487538,0.51569714,-0.01979845,-0.00592340,0.00038138,-0.00014687,-
 0.00052406,0.00100799,-0.02132584,-0.09282461,-0.01701251,-0.02540216,
 0.57216267,0.02981329,0.01505635,0.00414827,0.00031055,-0.00061721,-0.
 00078186,-0.06132581,-0.02103906,-0.11546418,-0.04552441,-0.00917521,0
 .56848204,-0.01273083,0.01101684,0.02871946,0.00068732,0.00127603,0.00
 080524,-0.08246259,0.01704225,0.00900055,0.00740667,-0.02094388,-0.022
 11893,0.58422600,-0.00685367,0.00992680,0.01304085,-0.00004805,0.00022
 616,0.00006963,0.02042880,-0.15100298,-0.06063769,0.00104414,-0.010514
 18,-0.01081874,0.02045672,0.53505101,0.01795715,-0.01109090,-0.0290227
 9,-0.00010234,-0.00016638,-0.00030068,0.00912251,-0.05320139,-0.127820
 19,-0.00158419,-0.01752156,-0.01354862,0.01484174,-0.04647810,0.532087
 68,-0.08416728,0.06335983,-0.02946647,0.01046086,-0.00147281,-0.007857
 00,0.01168146,-0.01828151,0.00450894,-0.00167115,-0.00299013,0.0034505
 9,-0.00140764,-0.00068919,0.00192568,0.19113886,0.04504447,-0.24130680
 ,0.09364108,-0.01387107,-0.01733226,-0.06047890,-0.01263616,-0.0268395
 8,0.02645649,0.00132505,0.00075567,-0.00357974,0.00158066,0.00595355,-
 0.00325476,-0.00687818,0.63352677,-0.01392041,0.09107597,-0.12694056,-
 0.01227561,-0.01558975,-0.02857160,-0.00036707,0.03129571,-0.03304080,
 -0.00012612,-0.00241481,0.00416616,0.00007070,0.00024058,-0.00084221,0
 .17286536,0.03276212,0.85298589,0.00643218,0.00963530,-0.01647442,-0.0
 4195235,-0.01460664,-0.03063852,-0.00274325,-0.00110559,0.00279251,-0.
 00047850,0.00030163,0.00013752,-0.00063851,0.00025791,0.00015832,-0.08
 782582,0.00153370,-0.12202636,0.17733866,0.01257110,-0.02511001,0.0556
 9080,-0.02514536,-0.27433841,-0.12160695,0.00937094,0.00171067,-0.0037
 7030,-0.00159693,0.00073977,0.00110157,-0.00142444,-0.00099853,0.00035
 262,-0.00219668,-0.09502188,-0.01053783,-0.02235872,0.65303079,-0.0109
 6624,0.01569962,-0.02398511,-0.02974119,-0.07284158,-0.16673285,-0.001
 56825,-0.00183345,0.00184694,-0.00086491,0.00022130,0.00009697,-0.0008
 5718,0.00014075,0.00011398,-0.12426720,0.01088031,-0.53132969,0.201218
 32,-0.02614463,0.88482439,0.00536159,-0.02565418,0.01931210,-0.0000064
 7,0.00052306,0.00028624,-0.10715754,0.10251340,-0.05999237,-0.01396557
 ,0.02058491,-0.01314059,-0.00239699,0.00507916,-0.00240272,-0.00195316
 ,-0.00098347,0.00333543,0.00019739,-0.00155811,-0.00016004,0.12074193,
 -0.00030854,-0.01316792,0.01218129,-0.00001580,0.00064335,0.00047027,0
 .09463097,-0.20673112,0.08587326,-0.00579059,0.00985313,-0.00618006,0.
 01225608,-0.01896841,0.00750934,-0.00204921,0.00220127,0.00079102,0.00
 002471,-0.00118169,-0.00028278,-0.09802005,0.22710025,-0.00157671,0.02
 620322,-0.01869628,0.00020059,-0.00061523,-0.00042232,-0.05339918,0.08
 175247,-0.09480132,-0.00995539,0.01184200,-0.00691085,0.01161440,-0.02
 032928,0.00978678,0.00295553,-0.00099863,-0.00194381,-0.00021872,0.001
 44681,0.00036838,0.05228018,-0.09628431,0.11423980,0.00220940,-0.00054
 409,0.00126776,0.00002101,-0.00010606,-0.00030918,-0.01433984,0.023987
 26,-0.01531671,-0.09884362,0.09108517,-0.05361870,0.00069709,0.0007639
 7,0.00156143,-0.00053579,0.00013197,-0.00054540,-0.00018766,-0.0006745
 2,0.00110658,-0.00394649,-0.00266349,-0.00259493,0.10785653,0.00145778
 ,0.00055084,0.00022364,-0.00020491,-0.00076682,-0.00071070,-0.00406350
 ,0.00861115,-0.00586015,0.09251299,-0.20538160,0.09362458,-0.00028912,
 0.00155329,-0.00001215,-0.00072203,-0.00089311,0.00074664,-0.00078924,
 0.00015497,0.00089483,-0.00238279,0.00020047,-0.00120843,-0.09967270,0
 .22147573,0.00073030,-0.00037130,0.00030979,-0.00056339,-0.00045741,0.
 00004648,-0.00780866,0.01409033,-0.00985038,-0.05475223,0.09288352,-0.
 10269156,0.00020158,0.00136935,0.00047673,0.00067652,0.00014189,0.0000
 1218,0.00099957,0.00084704,0.00018199,-0.00252151,-0.00169144,-0.00073
 196,0.06277168,-0.10323117,0.11019242,0.00237675,0.00178029,0.00018165
 ,-0.00026106,-0.00026606,-0.00003011,0.00726518,-0.02109938,-0.0204495
 9,-0.06556618,0.05040729,0.05001826,-0.00502937,-0.00159610,-0.0018433
 9,0.00001085,-0.00043283,0.00019758,0.00008060,0.00010181,0.00004799,0
 .00118839,0.00053892,0.00058012,-0.00424281,0.00851717,0.01017227,0.06
 917892,0.00087361,0.00059764,0.00095378,0.00060178,0.00113141,0.000174
 24,0.00294299,-0.00803113,-0.00676778,0.04825811,-0.17546286,-0.127397
 43,-0.00255943,0.00019786,-0.00071983,-0.00022606,-0.00016813,0.000497
 93,-0.00056370,-0.00151118,-0.00103302,-0.00040779,0.00060386,0.000390
 01,0.00567424,-0.01594107,-0.01733016,-0.05211381,0.18688972,0.0006705
 7,0.00137175,0.00156901,-0.00022481,-0.00029354,-0.00063011,0.00585841
 ,-0.01079775,-0.01278875,0.04723382,-0.12857455,-0.17494354,-0.0036929
 4,-0.00033732,-0.00060720,-0.00011197,-0.00026146,-0.00013161,0.000055
 55,0.00035110,0.00058713,0.00028821,0.00038941,0.00011025,-0.00401394,
 0.01083751,0.01152978,-0.05005283,0.14154079,0.18846896,-0.00706168,-0
 .00458143,-0.00104490,0.00010879,0.00053615,0.00049279,-0.01332290,-0.
 00912765,0.02076581,-0.15759326,-0.07065863,0.11133668,0.00080858,0.00
 035133,0.00056642,-0.00038059,0.00234999,-0.00189196,0.00034508,-0.000
 51767,-0.00003752,0.00052263,0.00094872,0.00002605,0.01064245,0.005461
 31,-0.01007851,-0.00533489,-0.00295353,0.00366961,0.17087905,-0.002460
 84,-0.00062164,0.00004354,0.00005244,0.00038012,0.00001052,-0.00322631
 ,-0.00539950,0.00771272,-0.07059049,-0.09066379,0.06967112,0.00035383,
 0.00018323,0.00019764,-0.00051352,0.00095689,-0.00021912,-0.00004656,-
 0.00036878,-0.00050943,0.00002028,0.00029650,-0.00021725,-0.01706648,-
 0.00962601,0.01489844,0.01501981,0.01080051,-0.01339550,0.07844171,0.0
 9416402,-0.00448386,-0.00225875,0.00123965,0.00027973,0.00069689,-0.00
 005326,-0.00817723,-0.00662055,0.01008778,0.11314857,0.07087577,-0.161
 43891,0.00030380,0.00004187,-0.00013839,-0.00048076,0.00061205,-0.0006
 8062,0.00003207,-0.00086192,-0.00020431,0.00071280,0.00057736,0.000543
 58,0.00931031,0.00430769,-0.00947486,0.01249477,0.01038234,-0.01292430
 ,-0.12302895,-0.07753465,0.17285068,0.00026945,-0.00080904,0.00035672,
 -0.00024972,-0.00058783,-0.00051993,-0.00474796,0.00614299,-0.00328762
 ,0.00039467,-0.00122112,0.00029448,-0.11611895,0.10216973,-0.05604953,
 -0.00012455,0.00131408,-0.00028630,0.00028302,0.00009878,0.00061816,0.
 00071888,0.00058848,0.00112310,0.00056520,0.00007267,-0.00000346,-0.00
 009118,-0.00007704,0.00007482,-0.00005144,-0.00008667,0.00013604,0.122
 03053,-0.00032450,0.00146596,-0.00038805,0.00016906,0.00023744,0.00019
 531,0.01162801,-0.02121973,0.01140024,0.00054758,0.00105996,0.00135428
 ,0.10205427,-0.20054755,0.08193109,-0.00028587,-0.00050630,0.00082506,
 -0.00037429,0.00009358,-0.00038267,0.00066668,-0.00200663,-0.00418866,
 -0.00067166,0.00003253,-0.00076826,-0.00013368,0.00048815,-0.00008645,
 -0.00000310,-0.00011883,-0.00003990,-0.11343374,0.22017665,-0.00128326
 ,0.00142530,0.00121667,-0.00009014,0.00020231,0.00019546,0.01201550,-0
 .01986234,0.01130650,0.00100234,0.00028977,0.00152007,-0.05657973,0.08
 298007,-0.09163567,0.00086067,0.00115637,-0.00059547,-0.00001936,-0.00
 025214,-0.00041471,0.00103934,-0.00362685,-0.00294404,-0.00026649,0.00
 034735,-0.00018545,0.00010394,0.00022361,0.00008602,-0.00008213,0.0001
 0436,-0.00001017,0.06026257,-0.08944364,0.09815616,0.00118842,0.000486
 08,-0.00104816,-0.00000214,-0.00007334,-0.00001046,0.00631967,0.002760
 12,0.00438091,0.00041544,0.00047910,0.00110864,-0.24087906,-0.07864672
 ,-0.09485833,0.00011918,-0.00049277,-0.00007925,0.00005965,0.00022822,
 0.00008234,0.00046722,-0.00060740,-0.00045887,0.00008706,0.00004013,0.
 00027196,0.00036726,0.00017666,0.00019563,0.00009093,0.00022493,0.0000
 2016,-0.01254319,-0.00585842,-0.00487488,0.25839121,0.00067036,0.00141
 447,0.00230840,0.00005603,0.00014645,0.00000663,-0.02252659,-0.0087410
 3,-0.00841805,0.00251447,-0.00297216,-0.00315531,-0.07688199,-0.079719
 64,-0.03745443,0.00013634,0.00071386,-0.00028670,-0.00004248,-0.000296
 71,-0.00006461,-0.00020511,0.00039336,0.00076802,-0.00013719,0.0001105
 8,-0.00025777,-0.00125580,-0.00011842,-0.00102092,0.00038264,0.0001459
 8,0.00019140,0.02141602,0.01001952,0.00967715,0.08590954,0.08428370,-0
 .00004677,0.00124465,0.00264497,0.00014330,0.00032569,0.00025965,-0.02
 115974,-0.00756913,-0.01083906,0.00261525,-0.00360393,-0.00303578,-0.0
 9332102,-0.03693314,-0.09161512,-0.00026058,0.00015028,-0.00070421,-0.
 00000258,-0.00015440,-0.00014268,0.00047570,0.00044475,0.00073065,0.00
 031604,0.00008851,0.00029857,-0.00131335,-0.00075487,-0.00046607,-0.00
 015902,-0.00005789,0.00027512,-0.01036907,-0.00518083,-0.00592611,0.10
 305250,0.04382842,0.09761413,0.00029929,0.00129963,0.00282816,-0.00001
 479,0.00011387,0.00008083,-0.00579058,-0.00416879,0.00342884,-0.000100
 38,-0.00021887,-0.00027484,-0.13242154,-0.06275848,0.11057704,0.000000
 25,0.00129172,-0.00096175,0.00011698,-0.00030258,0.00010793,-0.0000527
 8,0.00011600,-0.00022527,0.00000758,0.00006296,-0.00008760,-0.00000096
 ,0.00020169,-0.00004804,0.00031581,-0.00020090,-0.00034894,0.01026703,
 0.00635342,-0.01294143,-0.01402878,-0.00999103,0.02018806,0.14147388,0
 .00322574,-0.00183610,-0.00640375,0.00013062,0.00014631,0.00025850,0.0
 1239268,0.01109772,-0.01470605,-0.00039292,0.00021444,0.00053978,-0.06
 385087,-0.09133828,0.07975009,-0.00002103,-0.00225329,0.00084790,-0.00
 024718,0.00043856,-0.00038440,0.00015101,0.00083420,0.00099513,-0.0000
 7157,-0.00002896,0.00001563,0.00022328,0.00007105,0.00022296,-0.000244
 05,-0.00013255,-0.00045079,-0.01499179,-0.00970719,0.01676679,-0.00476
 227,-0.00520505,0.00792256,0.06838246,0.09709454,0.00221139,-0.0025417
 0,-0.00477423,-0.00014078,-0.00046202,-0.00032149,0.01108738,0.0133925
 6,-0.01421081,-0.00008000,0.00069177,0.00053387,0.10975869,0.07821520,
 -0.18650848,0.00038877,-0.00199331,0.00111758,0.00003698,0.00061957,0.
 00022162,0.00005862,-0.00011418,0.00098943,0.00010854,-0.00005922,-0.0
 0004660,-0.00009867,-0.00017505,0.00035824,-0.00063647,-0.00067402,-0.
 00013929,0.00709769,0.00437091,-0.00944756,-0.00759811,-0.00590899,0.0
 1121820,-0.12200561,-0.08546112,0.20085522,0.00369464,0.01017917,0.001
 24644,0.00729475,0.00026265,-0.00409687,-0.00013000,0.00007887,0.00073
 942,0.00002719,0.00012881,-0.00028311,0.00036628,-0.00004762,0.0001135
 2,-0.03583526,-0.02589569,-0.02122634,-0.00055306,-0.00671576,-0.00208
 851,0.00004232,0.00014658,0.00000574,-0.00003581,-0.00008072,-0.000136
 20,-0.00003497,0.00012147,-0.00002393,0.00012797,0.00005501,0.00004141
 ,-0.00067675,-0.00028974,0.00079972,-0.00004203,-0.00002530,-0.0001015
 3,-0.00009336,0.00015107,-0.00022474,0.02829935,0.00085457,-0.03352736
 ,0.00034337,0.00062869,0.00187442,0.00138375,0.00382506,0.00031741,-0.
 00430423,-0.00040414,-0.00023545,0.00072326,-0.00006354,0.00005998,0.0
 0009134,-0.02618029,-0.25490987,-0.12638675,0.00020236,0.00165676,0.00
 127130,-0.00035777,-0.00009372,0.00045238,-0.00010358,0.00000926,-0.00
 008994,0.00015469,0.00010135,0.00009545,-0.00035249,-0.00005218,-0.000
 09041,-0.00057533,0.00052125,0.00000834,0.00011442,-0.00018762,0.00025
 043,-0.00016274,0.00056808,0.00007672,0.02244521,0.28337053,0.00184765
 ,0.02060012,0.01169192,-0.00308894,0.00300745,-0.00417954,-0.00125719,
 0.00051223,0.00192569,0.00016677,0.00008750,-0.00027912,0.00116062,-0.
 00071515,-0.00027024,-0.02234966,-0.12099794,-0.12931053,-0.00177539,-
 0.02838476,-0.00798023,0.00015821,-0.00007404,-0.00019647,0.00005155,-
 0.00002045,0.00000951,-0.00006578,-0.00002047,-0.00005460,0.00010360,-
 0.00000032,0.00001633,0.00048188,0.00047289,-0.00126581,-0.00019728,-0
 .00023254,-0.00034750,-0.00034708,0.00017424,0.00016762,0.02481020,0.1
 2642716,0.13114480,0.01202565,-0.00049274,-0.00272162,0.00410237,-0.00
 551086,0.00101502,-0.00105765,0.00151618,-0.00164996,-0.00025401,-0.00
 001699,-0.00017727,-0.00007169,0.00008704,0.00001271,-0.00005748,0.006
 32850,-0.00239796,-0.04381924,0.03844877,-0.02850564,0.00029123,0.0002
 2763,-0.00036183,-0.00003840,-0.00009226,0.00008112,0.00001043,0.00003
 179,0.00003852,-0.00001845,0.00000169,0.00000054,0.00006469,-0.0000680
 7,0.00008748,-0.00000175,0.00000738,-0.00003528,0.00003632,-0.00008676
 ,0.00001284,-0.00433118,-0.00015181,0.00098642,0.03263271,-0.00012723,
 0.00128039,-0.00114165,0.00196427,-0.02826538,0.00443367,-0.00006943,0
 .00008307,-0.00003004,0.00002747,-0.00012450,-0.00007117,0.00003213,-0
 .00001716,0.00002855,-0.00078862,0.00250652,-0.00202016,0.03878325,-0.
 26009918,0.12143577,0.00003257,0.00003618,-0.00004068,0.00001689,-0.00
 004085,-0.00000383,0.00003528,0.00014293,-0.00005165,-0.00001332,0.000
 03032,0.00005795,-0.00000144,0.00000136,0.00001122,0.00000361,0.000018
 94,0.00000290,0.00000327,0.00000404,-0.00000397,-0.00006299,0.00051536
 ,0.00042726,-0.04010218,0.28366733,-0.00299196,-0.00057119,-0.00520407
 ,0.00175337,-0.02412703,0.00809852,-0.00178593,-0.00055105,0.00066163,
 0.00018888,-0.00011543,0.00004155,0.00021384,0.00016377,-0.00020296,-0
 .00290446,0.02786338,-0.00521198,-0.02972348,0.12302294,-0.13293398,0.
 00029452,0.00009137,-0.00021947,0.00006608,0.00003694,0.00001285,-0.00
 000018,0.00003803,-0.00004314,0.00005795,0.00004728,0.00002885,0.00001
 141,-0.00003720,-0.00002615,-0.00001112,0.00001361,0.00004757,0.000048
 70,-0.00006646,-0.00007561,0.00106172,-0.00046125,-0.00059981,0.032900
 36,-0.12467164,0.13199410,-0.00023034,-0.00125890,0.00070100,-0.022982
 09,0.01952471,-0.10778696,0.00034639,0.00025734,-0.00039823,-0.0001308
 6,-0.00026398,-0.00000635,-0.00003478,0.00000104,0.00000397,0.00054726
 ,0.00029005,-0.00036453,-0.00665517,0.00167114,-0.00412465,-0.00005258
 ,-0.00002301,0.00000519,0.00008411,0.00017226,0.00004656,0.00008303,0.
 00001902,0.00008331,-0.00007806,0.00002208,0.00003954,0.00001029,0.000
 02406,-0.00003414,-0.00000909,-0.00002728,-0.00002192,-0.00001397,0.00
 001158,0.00002347,0.00187991,0.00012669,-0.00068556,0.00048645,0.00026
 648,0.00082030,0.02674949,0.00030586,0.00050923,0.00150566,0.03167002,
 -0.06965886,0.14516139,0.00028444,0.00015655,-0.00040347,-0.00013458,-
 0.00015902,-0.00003700,-0.00005552,-0.00004516,0.00003885,-0.00020105,
 -0.00738332,-0.00162781,-0.01060446,0.00110126,-0.04706732,-0.00000179
 ,-0.00001309,0.00003243,0.00005182,-0.00002037,-0.00004492,0.00011911,
 0.00020832,0.00001016,-0.00001999,0.00002573,0.00011366,-0.00001873,0.
 00000984,-0.00000765,0.00001810,-0.00000622,-0.00000402,-0.00002162,0.
 00003247,0.00002686,-0.00045103,0.00001182,-0.00126320,-0.00012732,0.0
 0026064,-0.00067606,-0.02081326,0.07497017,0.00057419,-0.00158277,0.00
 180144,-0.10818330,0.08921658,-0.48943132,0.00043288,0.00018043,-0.000
 61052,-0.00013709,0.00013699,0.00010550,-0.00012082,-0.00001264,0.0000
 4738,0.00006605,-0.00209923,0.00102126,-0.00455200,0.00828047,-0.02451
 784,-0.00002413,-0.00007443,0.00009766,0.00010537,-0.00000541,-0.00008
 948,0.00005733,-0.00000214,-0.00012007,-0.00005946,-0.00007744,0.00002
 209,0.00005905,-0.00003411,-0.00002974,0.00002433,0.00000572,-0.000012
 33,-0.00001900,-0.00002100,0.00006228,-0.00063695,0.00020907,-0.000472
 01,0.00071455,0.00163747,0.00363210,0.11169899,-0.09575756,0.50849360\
 \-0.00000009,-0.00000078,0.00000004,0.00000009,0.00000034,-0.00000006,
 -0.00000046,-0.00000045,-0.00000005,-0.00000076,0.00000058,-0.00000034
 ,0.00000017,-0.00000028,0.00000007,0.00000057,-0.00000039,0.00000036,0
 .00000064,0.00000003,0.00000009,-0.00000112,-0.00000068,-0.00000035,-0
 .00000017,0.00000102,-0.00000012,-0.00000121,0.00000062,-0.00000043,-0
 .00000106,0.00000093,-0.00000042,0.00000064,0.00000006,0.00000020,0.00
 000027,-0.00000107,0.00000017,-0.00000024,-0.00000015,-0.00000006,0.00
 000120,-0.00000066,0.00000043,0.00000131,0.00000026,0.00000043,0.00000
 023,0.00000063,0.00000002\\\@


 A MUSTACHE HAIR ACROSS A CHIP IS LIKE A REDWOOD
 TREE FALLING THROUGH A HOUSING PROJECT.
 - AN IBM MANAGER IN EAST FISHKILL, NEW YORK
   AS QUOTED IN "FROM SANDS TO CIRCUITS", IBM INNOVATION JANUARY 1985.
 Job cpu time:       0 days  2 hours 58 minutes 35.9 seconds.
 Elapsed time:       0 days  1 hours 29 minutes 19.1 seconds.
 File lengths (MBytes):  RWF=   1392 Int=      0 D2E=      0 Chk=     32 Scr=     32
 Normal termination of Gaussian 16 at Thu Sep 26 16:15:01 2019.
