 Entering Gaussian System, Link 0=g16
 Input=loose/species/CC(C)OC=CO/conformers/CC(C)OC=CO_127.com
 Output=loose/species/CC(C)OC=CO/conformers/CC(C)OC=CO_127.log
 Initial command:
 /shared/centos7/gaussian/g16/l1.exe "/scratch/harms.n/gauss_scrdir/Gau-40028.inp" -scrdir="/scratch/harms.n/gauss_scrdir/"
 Entering Link 1 = /shared/centos7/gaussian/g16/l1.exe PID=     40037.
  
 Copyright (c) 1988,1990,1992,1993,1995,1998,2003,2009,2016,
            Gaussian, Inc.  All Rights Reserved.
  
 This is part of the Gaussian(R) 16 program.  It is based on
 the Gaussian(R) 09 system (copyright 2009, Gaussian, Inc.),
 the Gaussian(R) 03 system (copyright 2003, Gaussian, Inc.),
 the Gaussian(R) 98 system (copyright 1998, Gaussian, Inc.),
 the Gaussian(R) 94 system (copyright 1995, Gaussian, Inc.),
 the Gaussian 92(TM) system (copyright 1992, Gaussian, Inc.),
 the Gaussian 90(TM) system (copyright 1990, Gaussian, Inc.),
 the Gaussian 88(TM) system (copyright 1988, Gaussian, Inc.),
 the Gaussian 86(TM) system (copyright 1986, Carnegie Mellon
 University), and the Gaussian 82(TM) system (copyright 1983,
 Carnegie Mellon University). Gaussian is a federally registered
 trademark of Gaussian, Inc.
  
 This software contains proprietary and confidential information,
 including trade secrets, belonging to Gaussian, Inc.
  
 This software is provided under written license and may be
 used, copied, transmitted, or stored only in accord with that
 written license.
  
 The following legend is applicable only to US Government
 contracts under FAR:
  
                    RESTRICTED RIGHTS LEGEND
  
 Use, reproduction and disclosure by the US Government is
 subject to restrictions as set forth in subparagraphs (a)
 and (c) of the Commercial Computer Software - Restricted
 Rights clause in FAR 52.227-19.
  
 Gaussian, Inc.
 340 Quinnipiac St., Bldg. 40, Wallingford CT 06492
  
  
 ---------------------------------------------------------------
 Warning -- This program may not be used in any manner that
 competes with the business of Gaussian, Inc. or will provide
 assistance to any competitor of Gaussian, Inc.  The licensee
 of this program is prohibited from giving any competitor of
 Gaussian, Inc. access to this program.  By using this program,
 the user acknowledges that Gaussian, Inc. is engaged in the
 business of creating and licensing software in the field of
 computational chemistry and represents and warrants to the
 licensee that it is not a competitor of Gaussian, Inc. and that
 it will not use this program in any manner prohibited above.
 ---------------------------------------------------------------
  

 Cite this work as:
 Gaussian 16, Revision A.03,
 M. J. Frisch, G. W. Trucks, H. B. Schlegel, G. E. Scuseria, 
 M. A. Robb, J. R. Cheeseman, G. Scalmani, V. Barone, 
 G. A. Petersson, H. Nakatsuji, X. Li, M. Caricato, A. V. Marenich, 
 J. Bloino, B. G. Janesko, R. Gomperts, B. Mennucci, H. P. Hratchian, 
 J. V. Ortiz, A. F. Izmaylov, J. L. Sonnenberg, D. Williams-Young, 
 F. Ding, F. Lipparini, F. Egidi, J. Goings, B. Peng, A. Petrone, 
 T. Henderson, D. Ranasinghe, V. G. Zakrzewski, J. Gao, N. Rega, 
 G. Zheng, W. Liang, M. Hada, M. Ehara, K. Toyota, R. Fukuda, 
 J. Hasegawa, M. Ishida, T. Nakajima, Y. Honda, O. Kitao, H. Nakai, 
 T. Vreven, K. Throssell, J. A. Montgomery, Jr., J. E. Peralta, 
 F. Ogliaro, M. J. Bearpark, J. J. Heyd, E. N. Brothers, K. N. Kudin, 
 V. N. Staroverov, T. A. Keith, R. Kobayashi, J. Normand, 
 K. Raghavachari, A. P. Rendell, J. C. Burant, S. S. Iyengar, 
 J. Tomasi, M. Cossi, J. M. Millam, M. Klene, C. Adamo, R. Cammi, 
 J. W. Ochterski, R. L. Martin, K. Morokuma, O. Farkas, 
 J. B. Foresman, and D. J. Fox, Gaussian, Inc., Wallingford CT, 2016.
 
 ******************************************
 Gaussian 16:  EM64L-G16RevA.03 25-Dec-2016
                25-Sep-2019 
 ******************************************
 %nprocshared=20
 Will use up to   20 processors via shared memory.
 %mem=5GB
 ----------------------------------------------------------------------
 #p m062x/cc-pVTZ opt=(calcfc,maxcycles=900,Tight) freq IOP(7/33=1,2/16
 =3) scf=(maxcycle=900)
 ----------------------------------------------------------------------
 1/6=900,7=10,10=4,18=20,19=15,26=3,38=1/1,3;
 2/9=110,12=2,16=3,17=6,18=5,40=1/2;
 3/5=16,6=1,11=2,25=1,30=1,71=2,74=-55,140=1/1,2,3;
 4//1;
 5/5=2,7=900,38=5/2;
 8/6=4,10=90,11=11/1;
 11/6=1,8=1,9=11,15=111,16=1/1,2,10;
 10/6=1,13=1/2;
 6/7=2,8=2,9=2,10=2,28=1/1;
 7/10=1,18=20,25=1,33=1/1,2,3,16;
 1/6=900,7=10,10=4,18=20,19=15,26=3/3(2);
 2/9=110,16=3/2;
 99//99;
 2/9=110,16=3/2;
 3/5=16,6=1,11=2,25=1,30=1,71=1,74=-55/1,2,3;
 4/5=5,16=3,69=1/1;
 5/5=2,7=900,38=5/2;
 7/33=1/1,2,3,16;
 1/6=900,7=10,18=20,19=15,26=3/3(-5);
 2/9=110,16=3/2;
 6/7=2,8=2,9=2,10=2,19=2,28=1/1;
 99/9=1/99;
 Leave Link    1 at Wed Sep 25 20:36:12 2019, MaxMem=   671088640 cpu:               4.0 elap:               2.0
 (Enter /shared/centos7/gaussian/g16/l101.exe)
 ------------------------------
 Gaussian input prepared by ASE
 ------------------------------
 Symbolic Z-matrix:
 Charge =  0 Multiplicity = 1
 O                     0.69973  -2.32489  -0.21048 
 O                     0.5677    0.62004  -0.56167 
 C                    -0.6296   -2.53732   0.21571 
 C                    -1.56932  -1.41819  -0.23315 
 C                    -0.75788  -2.84198   1.67201 
 C                     1.39445  -1.37209   0.49904 
 C                     1.37521  -0.08306   0.3199 
 H                    -0.92962  -3.46378  -0.34822 
 H                    -1.00065  -0.55677  -0.64156 
 H                    -2.24137  -1.78002  -1.03247 
 H                    -2.19891  -1.04537   0.61964 
 H                    -1.13988  -1.95527   2.25896 
 H                     0.20006  -3.16072   2.13334 
 H                    -1.5038   -3.67478   1.81205 
 H                     2.12943  -1.78139   1.21038 
 H                     2.05927   0.55094   0.86444 
 H                     0.40019   1.51626  -0.14873 
 
 ITRead=  0  0  0  0  0  0  0  0  0  0  0  0  0  0  0  0  0
 MicOpt= -1 -1 -1 -1 -1 -1 -1 -1 -1 -1 -1 -1 -1 -1 -1 -1 -1
 NAtoms=     17 NQM=       17 NQMF=       0 NMMI=      0 NMMIF=      0
                NMic=       0 NMicF=      0.
                    Isotopes and Nuclear Properties:
 (Nuclear quadrupole moments (NQMom) in fm**2, nuclear magnetic moments (NMagM)
  in nuclear magnetons)

  Atom         1           2           3           4           5           6           7           8           9          10
 IAtWgt=          16          16          12          12          12          12          12           1           1           1
 AtmWgt=  15.9949146  15.9949146  12.0000000  12.0000000  12.0000000  12.0000000  12.0000000   1.0078250   1.0078250   1.0078250
 NucSpn=           0           0           0           0           0           0           0           1           1           1
 AtZEff=  -0.0000000  -0.0000000  -0.0000000  -0.0000000  -0.0000000  -0.0000000  -0.0000000  -0.0000000  -0.0000000  -0.0000000
 NQMom=    0.0000000   0.0000000   0.0000000   0.0000000   0.0000000   0.0000000   0.0000000   0.0000000   0.0000000   0.0000000
 NMagM=    0.0000000   0.0000000   0.0000000   0.0000000   0.0000000   0.0000000   0.0000000   2.7928460   2.7928460   2.7928460
 AtZNuc=   8.0000000   8.0000000   6.0000000   6.0000000   6.0000000   6.0000000   6.0000000   1.0000000   1.0000000   1.0000000

  Atom        11          12          13          14          15          16          17
 IAtWgt=           1           1           1           1           1           1           1
 AtmWgt=   1.0078250   1.0078250   1.0078250   1.0078250   1.0078250   1.0078250   1.0078250
 NucSpn=           1           1           1           1           1           1           1
 AtZEff=  -0.0000000  -0.0000000  -0.0000000  -0.0000000  -0.0000000  -0.0000000  -0.0000000
 NQMom=    0.0000000   0.0000000   0.0000000   0.0000000   0.0000000   0.0000000   0.0000000
 NMagM=    2.7928460   2.7928460   2.7928460   2.7928460   2.7928460   2.7928460   2.7928460
 AtZNuc=   1.0000000   1.0000000   1.0000000   1.0000000   1.0000000   1.0000000   1.0000000
 Leave Link  101 at Wed Sep 25 20:36:13 2019, MaxMem=   671088640 cpu:               3.1 elap:               1.5
 (Enter /shared/centos7/gaussian/g16/l103.exe)

 GradGradGradGradGradGradGradGradGradGradGradGradGradGradGradGradGradGrad
 Berny optimization.
 Initialization pass.
                           ----------------------------
                           !    Initial Parameters    !
                           ! (Angstroms and Degrees)  !
 --------------------------                            --------------------------
 ! Name  Definition              Value          Derivative Info.                !
 --------------------------------------------------------------------------------
 ! R1    R(1,3)                  1.412          calculate D2E/DX2 analytically  !
 ! R2    R(1,6)                  1.3762         calculate D2E/DX2 analytically  !
 ! R3    R(2,7)                  1.3869         calculate D2E/DX2 analytically  !
 ! R4    R(2,17)                 1.0009         calculate D2E/DX2 analytically  !
 ! R5    R(3,4)                  1.5287         calculate D2E/DX2 analytically  !
 ! R6    R(3,5)                  1.4933         calculate D2E/DX2 analytically  !
 ! R7    R(3,8)                  1.1253         calculate D2E/DX2 analytically  !
 ! R8    R(4,9)                  1.1101         calculate D2E/DX2 analytically  !
 ! R9    R(4,10)                 1.1052         calculate D2E/DX2 analytically  !
 ! R10   R(4,11)                 1.1237         calculate D2E/DX2 analytically  !
 ! R11   R(5,12)                 1.1299         calculate D2E/DX2 analytically  !
 ! R12   R(5,13)                 1.11           calculate D2E/DX2 analytically  !
 ! R13   R(5,14)                 1.1267         calculate D2E/DX2 analytically  !
 ! R14   R(6,7)                  1.3016         calculate D2E/DX2 analytically  !
 ! R15   R(6,15)                 1.1017         calculate D2E/DX2 analytically  !
 ! R16   R(7,16)                 1.08           calculate D2E/DX2 analytically  !
 ! A1    A(3,1,6)              115.0742         calculate D2E/DX2 analytically  !
 ! A2    A(7,2,17)             106.806          calculate D2E/DX2 analytically  !
 ! A3    A(1,3,4)              112.3297         calculate D2E/DX2 analytically  !
 ! A4    A(1,3,5)              113.9474         calculate D2E/DX2 analytically  !
 ! A5    A(1,3,8)              102.9202         calculate D2E/DX2 analytically  !
 ! A6    A(4,3,5)              112.5123         calculate D2E/DX2 analytically  !
 ! A7    A(4,3,8)              106.9584         calculate D2E/DX2 analytically  !
 ! A8    A(5,3,8)              107.3276         calculate D2E/DX2 analytically  !
 ! A9    A(3,4,9)              111.1749         calculate D2E/DX2 analytically  !
 ! A10   A(3,4,10)             110.2713         calculate D2E/DX2 analytically  !
 ! A11   A(3,4,11)             111.3751         calculate D2E/DX2 analytically  !
 ! A12   A(9,4,10)             107.4269         calculate D2E/DX2 analytically  !
 ! A13   A(9,4,11)             107.9864         calculate D2E/DX2 analytically  !
 ! A14   A(10,4,11)            108.4693         calculate D2E/DX2 analytically  !
 ! A15   A(3,5,12)             112.0567         calculate D2E/DX2 analytically  !
 ! A16   A(3,5,13)             112.9394         calculate D2E/DX2 analytically  !
 ! A17   A(3,5,14)             109.1997         calculate D2E/DX2 analytically  !
 ! A18   A(12,5,13)            107.5311         calculate D2E/DX2 analytically  !
 ! A19   A(12,5,14)            106.9567         calculate D2E/DX2 analytically  !
 ! A20   A(13,5,14)            107.9043         calculate D2E/DX2 analytically  !
 ! A21   A(1,6,7)              127.3913         calculate D2E/DX2 analytically  !
 ! A22   A(1,6,15)             114.359          calculate D2E/DX2 analytically  !
 ! A23   A(7,6,15)             117.819          calculate D2E/DX2 analytically  !
 ! A24   A(2,7,6)              126.7383         calculate D2E/DX2 analytically  !
 ! A25   A(2,7,16)             113.0577         calculate D2E/DX2 analytically  !
 ! A26   A(6,7,16)             120.1735         calculate D2E/DX2 analytically  !
 ! D1    D(6,1,3,4)             75.7552         calculate D2E/DX2 analytically  !
 ! D2    D(6,1,3,5)            -53.689          calculate D2E/DX2 analytically  !
 ! D3    D(6,1,3,8)           -169.553          calculate D2E/DX2 analytically  !
 ! D4    D(3,1,6,7)            -83.5592         calculate D2E/DX2 analytically  !
 ! D5    D(3,1,6,15)           104.2053         calculate D2E/DX2 analytically  !
 ! D6    D(17,2,7,6)           149.2859         calculate D2E/DX2 analytically  !
 ! D7    D(17,2,7,16)          -32.7379         calculate D2E/DX2 analytically  !
 ! D8    D(1,3,4,9)            -10.7887         calculate D2E/DX2 analytically  !
 ! D9    D(1,3,4,10)           108.2534         calculate D2E/DX2 analytically  !
 ! D10   D(1,3,4,11)          -131.2679         calculate D2E/DX2 analytically  !
 ! D11   D(5,3,4,9)            119.3945         calculate D2E/DX2 analytically  !
 ! D12   D(5,3,4,10)          -121.5634         calculate D2E/DX2 analytically  !
 ! D13   D(5,3,4,11)            -1.0847         calculate D2E/DX2 analytically  !
 ! D14   D(8,3,4,9)           -122.9958         calculate D2E/DX2 analytically  !
 ! D15   D(8,3,4,10)            -3.9538         calculate D2E/DX2 analytically  !
 ! D16   D(8,3,4,11)           116.525          calculate D2E/DX2 analytically  !
 ! D17   D(1,3,5,12)           103.9766         calculate D2E/DX2 analytically  !
 ! D18   D(1,3,5,13)           -17.6515         calculate D2E/DX2 analytically  !
 ! D19   D(1,3,5,14)          -137.7091         calculate D2E/DX2 analytically  !
 ! D20   D(4,3,5,12)           -25.3759         calculate D2E/DX2 analytically  !
 ! D21   D(4,3,5,13)          -147.004          calculate D2E/DX2 analytically  !
 ! D22   D(4,3,5,14)            92.9384         calculate D2E/DX2 analytically  !
 ! D23   D(8,3,5,12)          -142.7668         calculate D2E/DX2 analytically  !
 ! D24   D(8,3,5,13)            95.6051         calculate D2E/DX2 analytically  !
 ! D25   D(8,3,5,14)           -24.4525         calculate D2E/DX2 analytically  !
 ! D26   D(1,6,7,2)              5.393          calculate D2E/DX2 analytically  !
 ! D27   D(1,6,7,16)          -172.4529         calculate D2E/DX2 analytically  !
 ! D28   D(15,6,7,2)           177.3939         calculate D2E/DX2 analytically  !
 ! D29   D(15,6,7,16)           -0.452          calculate D2E/DX2 analytically  !
 --------------------------------------------------------------------------------
 Trust Radius=3.00D-01 FncErr=1.00D-07 GrdErr=1.00D-06 EigMax=2.50D+02 EigMin=1.00D-04
 Number of steps in this run=    102 maximum allowed number of steps=    102.
 GradGradGradGradGradGradGradGradGradGradGradGradGradGradGradGradGradGrad

 Leave Link  103 at Wed Sep 25 20:36:14 2019, MaxMem=   671088640 cpu:               1.3 elap:               0.6
 (Enter /shared/centos7/gaussian/g16/l202.exe)
                          Input orientation:                          
 ---------------------------------------------------------------------
 Center     Atomic      Atomic             Coordinates (Angstroms)
 Number     Number       Type             X           Y           Z
 ---------------------------------------------------------------------
      1          8           0        0.699726   -2.324885   -0.210481
      2          8           0        0.567703    0.620044   -0.561672
      3          6           0       -0.629601   -2.537321    0.215711
      4          6           0       -1.569318   -1.418186   -0.233152
      5          6           0       -0.757877   -2.841977    1.672007
      6          6           0        1.394450   -1.372086    0.499044
      7          6           0        1.375210   -0.083059    0.319898
      8          1           0       -0.929616   -3.463779   -0.348215
      9          1           0       -1.000651   -0.556771   -0.641557
     10          1           0       -2.241371   -1.780024   -1.032467
     11          1           0       -2.198912   -1.045371    0.619638
     12          1           0       -1.139881   -1.955271    2.258957
     13          1           0        0.200065   -3.160718    2.133337
     14          1           0       -1.503797   -3.674775    1.812053
     15          1           0        2.129433   -1.781393    1.210384
     16          1           0        2.059268    0.550943    0.864442
     17          1           0        0.400192    1.516260   -0.148733
 ---------------------------------------------------------------------
                    Distance matrix (angstroms):
                    1          2          3          4          5
     1  O    0.000000
     2  O    2.968732   0.000000
     3  C    1.412047   3.465085   0.000000
     4  C    2.443599   2.971391   1.528729   0.000000
     5  C    2.436340   4.328057   1.493342   2.513016   0.000000
     6  C    1.376189   2.403583   2.352623   3.053221   2.858136
     7  C    2.400701   1.386935   3.170729   3.280042   3.740306
     8  H    1.992688   4.354898   1.125320   2.146372   2.120715
     9  H    2.490650   1.962399   2.189787   1.110050   3.260933
    10  H    3.102029   3.724630   2.174684   1.105209   3.262312
    11  H    3.275417   3.438496   2.202683   1.123668   2.532165
    12  H    3.101434   4.183782   2.184954   2.585244   1.129905
    13  H    2.538063   4.657509   2.180426   3.430366   1.109989
    14  H    3.281518   5.326458   2.146236   3.046203   1.126748
    15  H    2.087656   3.368394   3.028708   3.987039   3.110386
    16  H    3.357708   2.064787   4.145871   4.271864   4.483345
    17  H    3.853301   1.000891   4.198192   3.535120   4.863173
                    6          7          8          9         10
     6  C    0.000000
     7  C    1.301558   0.000000
     8  H    3.239493   4.145825   0.000000
     9  H    2.775287   2.606437   2.922635   0.000000
    10  H    3.966250   4.217611   2.241414   1.785650   0.000000
    11  H    3.610199   3.713521   2.897681   1.806978   1.808582
    12  H    3.140101   3.686572   3.019463   3.223068   3.475265
    13  H    2.701237   3.760520   2.743379   3.990275   4.229568
    14  H    3.927622   4.838970   2.245209   3.999413   3.496483
    15  H    1.101697   2.060620   3.823276   3.837553   4.912669
    16  H    2.067254   1.080011   5.149948   3.585829   5.246634
    17  H    3.122612   1.930828   5.158389   2.550038   4.315592
                   11         12         13         14         15
    11  H    0.000000
    12  H    2.153331   0.000000
    13  H    3.538513   1.806748   0.000000
    14  H    2.969647   1.813520   1.808487   0.000000
    15  H    4.430043   3.437754   2.544964   4.140926   0.000000
    16  H    4.554146   4.296549   4.340871   5.608039   2.358896
    17  H    3.729302   4.496701   5.207881   5.866575   3.963835
                   16         17
    16  H    0.000000
    17  H    2.170459   0.000000
 Stoichiometry    C5H10O2
 Framework group  C1[X(C5H10O2)]
 Deg. of freedom    45
 Full point group                 C1      NOp   1
 Largest Abelian subgroup         C1      NOp   1
 Largest concise Abelian subgroup C1      NOp   1
                         Standard orientation:                         
 ---------------------------------------------------------------------
 Center     Atomic      Atomic             Coordinates (Angstroms)
 Number     Number       Type             X           Y           Z
 ---------------------------------------------------------------------
      1          8           0       -0.289590   -0.648763   -0.979758
      2          8           0        2.103396    0.770026    0.056595
      3          6           0       -1.279509    0.157836   -0.376985
      4          6           0       -0.761139    1.554499   -0.034000
      5          6           0       -1.973638   -0.493017    0.773947
      6          6           0        0.662024   -1.145430   -0.118569
      7          6           0        1.736618   -0.544529    0.303589
      8          1           0       -2.037886    0.281921   -1.199065
      9          1           0        0.341907    1.611208   -0.144844
     10          1           0       -1.201337    2.304501   -0.716061
     11          1           0       -1.018829    1.839073    1.022051
     12          1           0       -1.616268   -0.090747    1.767502
     13          1           0       -1.841026   -1.594905    0.792140
     14          1           0       -3.077854   -0.278018    0.710359
     15          1           0        0.537716   -2.211470    0.130114
     16          1           0        2.468944   -1.086096    0.883956
     17          1           0        2.628048    1.078277    0.851267
 ---------------------------------------------------------------------
 Rotational constants (GHZ):           4.0967890           1.9687818           1.6216070
 Leave Link  202 at Wed Sep 25 20:36:16 2019, MaxMem=   671088640 cpu:               3.7 elap:               1.9
 (Enter /shared/centos7/gaussian/g16/l301.exe)
 Standard basis: CC-pVTZ (5D, 7F)
 Ernie: Thresh=  0.10000D-02 Tol=  0.10000D-05 Strict=F.
 Ernie:  21 primitive shells out of 262 were deleted.
 There are   395 symmetry adapted cartesian basis functions of A   symmetry.
 There are   350 symmetry adapted basis functions of A   symmetry.
   350 basis functions,   534 primitive gaussians,   395 cartesian basis functions
    28 alpha electrons       28 beta electrons
       nuclear repulsion energy       323.5366610832 Hartrees.
 IExCor= 4336 DFT=T Ex+Corr=M062X ExCW=0 ScaHFX=  0.540000
 ScaDFX=  1.000000  1.000000  1.000000  1.000000 ScalE2=  1.000000  1.000000
 IRadAn=      5 IRanWt=     -1 IRanGd=            0 ICorTp=0 IEmpDi=  4
 NAtoms=   17 NActive=   17 NUniq=   17 SFac= 1.00D+00 NAtFMM=   60 NAOKFM=F Big=F
 Integral buffers will be    131072 words long.
 Raffenetti 2 integral format.
 Two-electron integral symmetry is turned on.
 Leave Link  301 at Wed Sep 25 20:36:17 2019, MaxMem=   671088640 cpu:               3.5 elap:               1.8
 (Enter /shared/centos7/gaussian/g16/l302.exe)
 NPDir=0 NMtPBC=     1 NCelOv=     1 NCel=       1 NClECP=     1 NCelD=      1
         NCelK=      1 NCelE2=     1 NClLst=     1 CellRange=     0.0.
 One-electron integrals computed using PRISM.
 One-electron integral symmetry used in STVInt
 NBasis=   350 RedAO= T EigKep=  3.19D-04  NBF=   350
 NBsUse=   350 1.00D-06 EigRej= -1.00D+00 NBFU=   350
 Precomputing XC quadrature grid using
 IXCGrd= 4 IRadAn=           5 IRanWt=          -1 IRanGd=           0 AccXCQ= 0.00D+00.
 Generated NRdTot=       0 NPtTot=           0 NUsed=           0 NTot=          32
 NSgBfM=   395   395   395   395   395 MxSgAt=    17 MxSgA2=    17.
 Leave Link  302 at Wed Sep 25 20:37:21 2019, MaxMem=   671088640 cpu:             126.2 elap:              63.1
 (Enter /shared/centos7/gaussian/g16/l303.exe)
 DipDrv:  MaxL=1.
 Leave Link  303 at Wed Sep 25 20:37:26 2019, MaxMem=   671088640 cpu:              10.1 elap:               5.1
 (Enter /shared/centos7/gaussian/g16/l401.exe)
 ExpMin= 1.03D-01 ExpMax= 1.53D+04 ExpMxC= 5.22D+02 IAcc=3 IRadAn=         5 AccDes= 0.00D+00
 Harris functional with IExCor= 1009 and IRadAn=       5 diagonalized for initial guess.
 HarFok:  IExCor= 1009 AccDes= 0.00D+00 IRadAn=         5 IDoV= 1 UseB2=F ITyADJ=14
 ICtDFT=  3500011 ScaDFX=  1.000000  1.000000  1.000000  1.000000
 FoFCou: FMM=F IPFlag=           0 FMFlag=      100000 FMFlg1=           0
         NFxFlg=           0 DoJE=T BraDBF=F KetDBF=T FulRan=T
         wScrn=  0.000000 ICntrl=       500 IOpCl=  0 I1Cent=   200000004 NGrid=           0
         NMat0=    1 NMatS0=      1 NMatT0=    0 NMatD0=    1 NMtDS0=    0 NMtDT0=    0
 Petite list used in FoFCou.
 Harris En= -346.801620888634    
 JPrj=0 DoOrth=F DoCkMO=F.
 Leave Link  401 at Wed Sep 25 20:38:05 2019, MaxMem=   671088640 cpu:              78.6 elap:              39.3
 (Enter /shared/centos7/gaussian/g16/l502.exe)
 Integral symmetry usage will be decided dynamically.
 Closed shell SCF:
 Using DIIS extrapolation, IDIIS=  1040.
 NGot=   671088640 LenX=   670765141 LenY=   670608675
 Requested convergence on RMS density matrix=1.00D-08 within 900 cycles.
 Requested convergence on MAX density matrix=1.00D-06.
 Requested convergence on             energy=1.00D-06.
 No special actions if energy rises.
 Fock matrices will be formed incrementally for  20 cycles.
 Integral accuracy reduced to 1.0D-05 until final iterations.

 Cycle   1  Pass 0  IDiag  1:
 FoFJK:  IHMeth= 1 ICntrl=       0 DoSepK=F KAlg= 0 I1Cent=           0 FoldK=F
 IRaf= 970000000 NMat=       1 IRICut=       1 DoRegI=T DoRafI=F ISym2E= 0 IDoP0=0 IntGTp=1.
 FoFCou: FMM=F IPFlag=           0 FMFlag=      100000 FMFlg1=           0
         NFxFlg=           0 DoJE=F BraDBF=F KetDBF=F FulRan=T
         wScrn=  0.000000 ICntrl=         0 IOpCl=  0 I1Cent=           0 NGrid=           0
         NMat0=    1 NMatS0=      1 NMatT0=    0 NMatD0=    1 NMtDS0=    0 NMtDT0=    0
 Symmetry not used in FoFCou.
 E= -346.679118536530    
 DIIS: error= 1.90D-02 at cycle   1 NSaved=   1.
 NSaved= 1 IEnMin= 1 EnMin= -346.679118536530     IErMin= 1 ErrMin= 1.90D-02
 ErrMax= 1.90D-02  0.00D+00 EMaxC= 1.00D-01 BMatC= 2.90D-01 BMatP= 2.90D-01
 IDIUse=3 WtCom= 8.10D-01 WtEn= 1.90D-01
 Coeff-Com:  0.100D+01
 Coeff-En:   0.100D+01
 Coeff:      0.100D+01
 Gap=     0.359 Goal=   None    Shift=    0.000
 GapD=    0.359 DampG=1.000 DampE=0.500 DampFc=0.5000 IDamp=-1.
 Damping current iteration by 5.00D-01
 RMSDP=2.50D-03 MaxDP=1.57D-01              OVMax= 1.41D-01

 Cycle   2  Pass 0  IDiag  1:
 RMSU=  1.25D-03    CP:  1.00D+00
 E= -346.800195407183     Delta-E=       -0.121076870653 Rises=F Damp=T
 DIIS: error= 3.58D-03 at cycle   2 NSaved=   2.
 NSaved= 2 IEnMin= 2 EnMin= -346.800195407183     IErMin= 2 ErrMin= 3.58D-03
 ErrMax= 3.58D-03  0.00D+00 EMaxC= 1.00D-01 BMatC= 2.15D-02 BMatP= 2.90D-01
 IDIUse=3 WtCom= 9.64D-01 WtEn= 3.58D-02
 Coeff-Com: -0.125D+00 0.112D+01
 Coeff-En:   0.000D+00 0.100D+01
 Coeff:     -0.121D+00 0.112D+01
 Gap=     0.351 Goal=   None    Shift=    0.000
 RMSDP=5.28D-04 MaxDP=2.16D-02 DE=-1.21D-01 OVMax= 7.31D-02

 Cycle   3  Pass 0  IDiag  1:
 RMSU=  4.85D-04    CP:  1.01D+00  8.34D-01
 E= -346.910681458147     Delta-E=       -0.110486050964 Rises=F Damp=F
 DIIS: error= 2.34D-03 at cycle   3 NSaved=   3.
 NSaved= 3 IEnMin= 3 EnMin= -346.910681458147     IErMin= 3 ErrMin= 2.34D-03
 ErrMax= 2.34D-03  0.00D+00 EMaxC= 1.00D-01 BMatC= 3.78D-03 BMatP= 2.15D-02
 IDIUse=3 WtCom= 9.77D-01 WtEn= 2.34D-02
 Coeff-Com: -0.828D-01 0.314D+00 0.769D+00
 Coeff-En:   0.000D+00 0.000D+00 0.100D+01
 Coeff:     -0.809D-01 0.306D+00 0.775D+00
 Gap=     0.340 Goal=   None    Shift=    0.000
 RMSDP=1.92D-04 MaxDP=1.11D-02 DE=-1.10D-01 OVMax= 1.30D-02

 Cycle   4  Pass 0  IDiag  1:
 RMSU=  1.16D-04    CP:  1.01D+00  9.46D-01  8.79D-01
 E= -346.913040924081     Delta-E=       -0.002359465934 Rises=F Damp=F
 DIIS: error= 1.04D-03 at cycle   4 NSaved=   4.
 NSaved= 4 IEnMin= 4 EnMin= -346.913040924081     IErMin= 4 ErrMin= 1.04D-03
 ErrMax= 1.04D-03  0.00D+00 EMaxC= 1.00D-01 BMatC= 8.13D-04 BMatP= 3.78D-03
 IDIUse=3 WtCom= 9.90D-01 WtEn= 1.04D-02
 Coeff-Com: -0.271D-01 0.725D-01 0.363D+00 0.592D+00
 Coeff-En:   0.000D+00 0.000D+00 0.878D-01 0.912D+00
 Coeff:     -0.269D-01 0.718D-01 0.360D+00 0.595D+00
 Gap=     0.338 Goal=   None    Shift=    0.000
 RMSDP=6.65D-05 MaxDP=4.36D-03 DE=-2.36D-03 OVMax= 4.69D-03

 Cycle   5  Pass 0  IDiag  1:
 RMSU=  2.86D-05    CP:  1.01D+00  9.18D-01  9.31D-01  6.48D-01
 E= -346.913631522785     Delta-E=       -0.000590598704 Rises=F Damp=F
 DIIS: error= 1.90D-04 at cycle   5 NSaved=   5.
 NSaved= 5 IEnMin= 5 EnMin= -346.913631522785     IErMin= 5 ErrMin= 1.90D-04
 ErrMax= 1.90D-04  0.00D+00 EMaxC= 1.00D-01 BMatC= 3.82D-05 BMatP= 8.13D-04
 IDIUse=3 WtCom= 9.98D-01 WtEn= 1.90D-03
 Coeff-Com: -0.580D-02 0.108D-01 0.103D+00 0.251D+00 0.641D+00
 Coeff-En:   0.000D+00 0.000D+00 0.000D+00 0.000D+00 0.100D+01
 Coeff:     -0.579D-02 0.108D-01 0.103D+00 0.251D+00 0.642D+00
 Gap=     0.338 Goal=   None    Shift=    0.000
 RMSDP=1.16D-05 MaxDP=5.04D-04 DE=-5.91D-04 OVMax= 8.31D-04

 Cycle   6  Pass 0  IDiag  1:
 RMSU=  8.28D-06    CP:  1.01D+00  9.18D-01  9.36D-01  6.79D-01  7.59D-01
 E= -346.913658422877     Delta-E=       -0.000026900092 Rises=F Damp=F
 DIIS: error= 4.85D-05 at cycle   6 NSaved=   6.
 NSaved= 6 IEnMin= 6 EnMin= -346.913658422877     IErMin= 6 ErrMin= 4.85D-05
 ErrMax= 4.85D-05  0.00D+00 EMaxC= 1.00D-01 BMatC= 1.46D-06 BMatP= 3.82D-05
 IDIUse=1 WtCom= 1.00D+00 WtEn= 0.00D+00
 Coeff-Com: -0.973D-04-0.940D-03 0.121D-01 0.512D-01 0.200D+00 0.737D+00
 Coeff:     -0.973D-04-0.940D-03 0.121D-01 0.512D-01 0.200D+00 0.737D+00
 Gap=     0.339 Goal=   None    Shift=    0.000
 RMSDP=3.95D-06 MaxDP=2.52D-04 DE=-2.69D-05 OVMax= 2.78D-04

 Initial convergence to 1.0D-05 achieved.  Increase integral accuracy.
 Cycle   7  Pass 1  IDiag  1:
 E= -346.913663888857     Delta-E=       -0.000005465980 Rises=F Damp=F
 DIIS: error= 2.87D-05 at cycle   1 NSaved=   1.
 NSaved= 1 IEnMin= 1 EnMin= -346.913663888857     IErMin= 1 ErrMin= 2.87D-05
 ErrMax= 2.87D-05  0.00D+00 EMaxC= 1.00D-01 BMatC= 7.87D-07 BMatP= 7.87D-07
 IDIUse=1 WtCom= 1.00D+00 WtEn= 0.00D+00
 Coeff-Com:  0.100D+01
 Coeff:      0.100D+01
 Gap=     0.339 Goal=   None    Shift=    0.000
 RMSDP=3.95D-06 MaxDP=2.52D-04 DE=-5.47D-06 OVMax= 1.82D-04

 Cycle   8  Pass 1  IDiag  1:
 RMSU=  7.35D-06    CP:  1.00D+00
 E= -346.913664095845     Delta-E=       -0.000000206988 Rises=F Damp=F
 DIIS: error= 1.86D-05 at cycle   2 NSaved=   2.
 NSaved= 2 IEnMin= 2 EnMin= -346.913664095845     IErMin= 2 ErrMin= 1.86D-05
 ErrMax= 1.86D-05  0.00D+00 EMaxC= 1.00D-01 BMatC= 3.67D-07 BMatP= 7.87D-07
 IDIUse=1 WtCom= 1.00D+00 WtEn= 0.00D+00
 Coeff-Com:  0.378D+00 0.622D+00
 Coeff:      0.378D+00 0.622D+00
 Gap=     0.339 Goal=   None    Shift=    0.000
 RMSDP=1.51D-06 MaxDP=8.59D-05 DE=-2.07D-07 OVMax= 1.13D-04

 Cycle   9  Pass 1  IDiag  1:
 RMSU=  1.50D-06    CP:  1.00D+00  1.00D+00
 E= -346.913664313334     Delta-E=       -0.000000217489 Rises=F Damp=F
 DIIS: error= 7.10D-06 at cycle   3 NSaved=   3.
 NSaved= 3 IEnMin= 3 EnMin= -346.913664313334     IErMin= 3 ErrMin= 7.10D-06
 ErrMax= 7.10D-06  0.00D+00 EMaxC= 1.00D-01 BMatC= 5.70D-08 BMatP= 3.67D-07
 IDIUse=1 WtCom= 1.00D+00 WtEn= 0.00D+00
 Coeff-Com: -0.115D-01 0.275D+00 0.736D+00
 Coeff:     -0.115D-01 0.275D+00 0.736D+00
 Gap=     0.339 Goal=   None    Shift=    0.000
 RMSDP=5.07D-07 MaxDP=2.47D-05 DE=-2.17D-07 OVMax= 3.96D-05

 Cycle  10  Pass 1  IDiag  1:
 RMSU=  3.14D-07    CP:  1.00D+00  1.03D+00  7.84D-01
 E= -346.913664350228     Delta-E=       -0.000000036894 Rises=F Damp=F
 DIIS: error= 1.72D-06 at cycle   4 NSaved=   4.
 NSaved= 4 IEnMin= 4 EnMin= -346.913664350228     IErMin= 4 ErrMin= 1.72D-06
 ErrMax= 1.72D-06  0.00D+00 EMaxC= 1.00D-01 BMatC= 1.65D-09 BMatP= 5.70D-08
 IDIUse=1 WtCom= 1.00D+00 WtEn= 0.00D+00
 Coeff-Com: -0.120D-01 0.111D+00 0.324D+00 0.577D+00
 Coeff:     -0.120D-01 0.111D+00 0.324D+00 0.577D+00
 Gap=     0.339 Goal=   None    Shift=    0.000
 RMSDP=1.16D-07 MaxDP=5.66D-06 DE=-3.69D-08 OVMax= 7.90D-06

 Cycle  11  Pass 1  IDiag  1:
 RMSU=  9.59D-08    CP:  1.00D+00  1.04D+00  8.24D-01  9.76D-01
 E= -346.913664351612     Delta-E=       -0.000000001384 Rises=F Damp=F
 DIIS: error= 3.47D-07 at cycle   5 NSaved=   5.
 NSaved= 5 IEnMin= 5 EnMin= -346.913664351612     IErMin= 5 ErrMin= 3.47D-07
 ErrMax= 3.47D-07  0.00D+00 EMaxC= 1.00D-01 BMatC= 8.55D-11 BMatP= 1.65D-09
 IDIUse=1 WtCom= 1.00D+00 WtEn= 0.00D+00
 Coeff-Com: -0.124D-02-0.122D-01-0.306D-01 0.128D+00 0.916D+00
 Coeff:     -0.124D-02-0.122D-01-0.306D-01 0.128D+00 0.916D+00
 Gap=     0.339 Goal=   None    Shift=    0.000
 RMSDP=4.68D-08 MaxDP=2.11D-06 DE=-1.38D-09 OVMax= 6.82D-06

 Cycle  12  Pass 1  IDiag  1:
 RMSU=  2.17D-08    CP:  1.00D+00  1.04D+00  8.27D-01  1.10D+00  1.03D+00
 E= -346.913664351716     Delta-E=       -0.000000000104 Rises=F Damp=F
 DIIS: error= 2.10D-07 at cycle   6 NSaved=   6.
 NSaved= 6 IEnMin= 6 EnMin= -346.913664351716     IErMin= 6 ErrMin= 2.10D-07
 ErrMax= 2.10D-07  0.00D+00 EMaxC= 1.00D-01 BMatC= 1.72D-11 BMatP= 8.55D-11
 IDIUse=1 WtCom= 1.00D+00 WtEn= 0.00D+00
 Coeff-Com:  0.753D-03-0.165D-01-0.467D-01-0.962D-02 0.386D+00 0.686D+00
 Coeff:      0.753D-03-0.165D-01-0.467D-01-0.962D-02 0.386D+00 0.686D+00
 Gap=     0.339 Goal=   None    Shift=    0.000
 RMSDP=1.51D-08 MaxDP=9.85D-07 DE=-1.04D-10 OVMax= 1.09D-06

 Cycle  13  Pass 1  IDiag  1:
 RMSU=  7.87D-09    CP:  1.00D+00  1.04D+00  8.31D-01  1.12D+00  1.12D+00
                    CP:  9.44D-01
 E= -346.913664351740     Delta-E=       -0.000000000024 Rises=F Damp=F
 DIIS: error= 6.47D-08 at cycle   7 NSaved=   7.
 NSaved= 7 IEnMin= 7 EnMin= -346.913664351740     IErMin= 7 ErrMin= 6.47D-08
 ErrMax= 6.47D-08  0.00D+00 EMaxC= 1.00D-01 BMatC= 1.27D-12 BMatP= 1.72D-11
 IDIUse=1 WtCom= 1.00D+00 WtEn= 0.00D+00
 Coeff-Com:  0.396D-03-0.520D-02-0.153D-01-0.143D-01 0.815D-01 0.266D+00
 Coeff-Com:  0.687D+00
 Coeff:      0.396D-03-0.520D-02-0.153D-01-0.143D-01 0.815D-01 0.266D+00
 Coeff:      0.687D+00
 Gap=     0.339 Goal=   None    Shift=    0.000
 RMSDP=3.59D-09 MaxDP=1.54D-07 DE=-2.42D-11 OVMax= 7.74D-07

 SCF Done:  E(RM062X) =  -346.913664352     A.U. after   13 cycles
            NFock= 13  Conv=0.36D-08     -V/T= 2.0061
 KE= 3.448122263720D+02 PE=-1.457355346831D+03 EE= 4.420927950235D+02
 Leave Link  502 at Wed Sep 25 20:52:29 2019, MaxMem=   671088640 cpu:            1725.9 elap:             863.6
 (Enter /shared/centos7/gaussian/g16/l801.exe)
 DoSCS=F DFT=T ScalE2(SS,OS)=  1.000000  1.000000
 Range of M.O.s used for correlation:     1   350
 NBasis=   350 NAE=    28 NBE=    28 NFC=     0 NFV=     0
 NROrb=    350 NOA=    28 NOB=    28 NVA=   322 NVB=   322

 **** Warning!!: The largest alpha MO coefficient is  0.10435885D+02

 Leave Link  801 at Wed Sep 25 20:52:29 2019, MaxMem=   671088640 cpu:               1.6 elap:               0.8
 (Enter /shared/centos7/gaussian/g16/l1101.exe)
 Using compressed storage, NAtomX=    17.
 Will process     18 centers per pass.
 Leave Link 1101 at Wed Sep 25 20:52:59 2019, MaxMem=   671088640 cpu:              60.1 elap:              30.1
 (Enter /shared/centos7/gaussian/g16/l1102.exe)
 Symmetrizing basis deriv contribution to polar:
 IMax=3 JMax=2 DiffMx= 0.00D+00
 Leave Link 1102 at Wed Sep 25 20:53:03 2019, MaxMem=   671088640 cpu:               6.0 elap:               3.0
 (Enter /shared/centos7/gaussian/g16/l1110.exe)
 Forming Gx(P) for the SCF density, NAtomX=    17.
 Integral derivatives from FoFJK, PRISM(SPDF).
 Do as many integral derivatives as possible in FoFJK.
 G2DrvN: MDV=     671087280.
 G2DrvN: will do    18 centers at a time, making    1 passes.
 Calling FoFCou, ICntrl=  3107 FMM=F I1Cent=   0 AccDes= 0.00D+00.
 FoFJK:  IHMeth= 1 ICntrl=    3107 DoSepK=F KAlg= 0 I1Cent=           0 FoldK=F
 IRaf=         0 NMat=       1 IRICut=       1 DoRegI=T DoRafI=F ISym2E= 0 IDoP0=0 IntGTp=1.
 FoFCou: FMM=F IPFlag=           0 FMFlag=      100000 FMFlg1=           0
         NFxFlg=           0 DoJE=F BraDBF=F KetDBF=F FulRan=T
         wScrn=  0.000000 ICntrl=      3107 IOpCl=  0 I1Cent=           0 NGrid=           0
         NMat0=    1 NMatS0=      1 NMatT0=    0 NMatD0=    1 NMtDS0=    0 NMtDT0=    0
 Symmetry not used in FoFCou.
 End of G2Drv F.D. properties file   721 does not exist.
 End of G2Drv F.D. properties file   722 does not exist.
 End of G2Drv F.D. properties file   788 does not exist.
 Leave Link 1110 at Wed Sep 25 21:19:11 2019, MaxMem=   671088640 cpu:            3136.5 elap:            1568.4
 (Enter /shared/centos7/gaussian/g16/l1002.exe)
 Minotr:  Closed shell wavefunction.
          IDoAtm=11111111111111111
          Direct CPHF calculation.
          Differentiating once with respect to nuclear coordinates.
          Requested convergence is 1.0D-08 RMS, and 1.0D-07 maximum.
          Secondary convergence is 1.0D-12 RMS, and 1.0D-12 maximum.
          NewPWx=T KeepS1=F KeepF1=F KeepIn=T MapXYZ=F SortEE=F KeepMc=T.
         5081 words used for storage of precomputed grid.
 Two-electron integrals replicated using symmetry.
          MDV=     671088640 using IRadAn=       1.
          Solving linear equations simultaneously, MaxMat=     380.
 FoF2E skips out because all densities are zero.
 CalDSu exits because no D1Ps are significant.
 FoFJK:  IHMeth= 1 ICntrl=       0 DoSepK=F KAlg= 0 I1Cent=           0 FoldK=F
 IRaf= 960000000 NMat=      51 IRICut=     127 DoRegI=T DoRafI=T ISym2E= 2 IDoP0=3 IntGTp=3.
 FoFCou: FMM=F IPFlag=           0 FMFlag=      100000 FMFlg1=           0
         NFxFlg=           0 DoJE=F BraDBF=F KetDBF=F FulRan=T
         wScrn=  0.000000 ICntrl=         0 IOpCl=  0 I1Cent=           0 NGrid=           0
         NMat0=   51 NMatS0=     51 NMatT0=    0 NMatD0=   51 NMtDS0=    0 NMtDT0=    0
 Integrals replicated using symmetry in FoFCou.
 Raff kept on since  93.08% of shell-pairs survive, threshold=   0.20 IRatSp=93.
          There are    54 degrees of freedom in the 1st order CPHF.  IDoFFX=6 NUNeed=     0.
     48 vectors produced by pass  0 Test12= 1.67D-14 1.85D-09 XBig12= 7.00D-02 5.77D-02.
 AX will form    48 AO Fock derivatives at one time.
     48 vectors produced by pass  1 Test12= 1.67D-14 1.85D-09 XBig12= 4.22D-03 1.76D-02.
     48 vectors produced by pass  2 Test12= 1.67D-14 1.85D-09 XBig12= 1.12D-04 2.30D-03.
     48 vectors produced by pass  3 Test12= 1.67D-14 1.85D-09 XBig12= 1.31D-06 2.00D-04.
     48 vectors produced by pass  4 Test12= 1.67D-14 1.85D-09 XBig12= 8.35D-09 1.25D-05.
     48 vectors produced by pass  5 Test12= 1.67D-14 1.85D-09 XBig12= 4.03D-11 6.99D-07.
     27 vectors produced by pass  6 Test12= 1.67D-14 1.85D-09 XBig12= 1.69D-13 3.60D-08.
      2 vectors produced by pass  7 Test12= 1.67D-14 1.85D-09 XBig12= 6.34D-16 2.59D-09.
 InvSVY:  IOpt=1 It=  1 EMax= 3.05D-16
 Solved reduced A of dimension   317 with    54 vectors.
 End of Minotr F.D. properties file   721 does not exist.
 End of Minotr F.D. properties file   722 does not exist.
 End of Minotr F.D. properties file   788 does not exist.
 Leave Link 1002 at Wed Sep 25 22:00:43 2019, MaxMem=   671088640 cpu:            4983.8 elap:            2492.3
 (Enter /shared/centos7/gaussian/g16/l601.exe)
 Copying SCF densities to generalized density rwf, IOpCl= 0 IROHF=0.

 **********************************************************************

            Population analysis using the SCF density.

 **********************************************************************

 Orbital symmetries:
       Occupied  (A) (A) (A) (A) (A) (A) (A) (A) (A) (A) (A) (A)
                 (A) (A) (A) (A) (A) (A) (A) (A) (A) (A) (A) (A)
                 (A) (A) (A) (A)
       Virtual   (A) (A) (A) (A) (A) (A) (A) (A) (A) (A) (A) (A)
                 (A) (A) (A) (A) (A) (A) (A) (A) (A) (A) (A) (A)
                 (A) (A) (A) (A) (A) (A) (A) (A) (A) (A) (A) (A)
                 (A) (A) (A) (A) (A) (A) (A) (A) (A) (A) (A) (A)
                 (A) (A) (A) (A) (A) (A) (A) (A) (A) (A) (A) (A)
                 (A) (A) (A) (A) (A) (A) (A) (A) (A) (A) (A) (A)
                 (A) (A) (A) (A) (A) (A) (A) (A) (A) (A) (A) (A)
                 (A) (A) (A) (A) (A) (A) (A) (A) (A) (A) (A) (A)
                 (A) (A) (A) (A) (A) (A) (A) (A) (A) (A) (A) (A)
                 (A) (A) (A) (A) (A) (A) (A) (A) (A) (A) (A) (A)
                 (A) (A) (A) (A) (A) (A) (A) (A) (A) (A) (A) (A)
                 (A) (A) (A) (A) (A) (A) (A) (A) (A) (A) (A) (A)
                 (A) (A) (A) (A) (A) (A) (A) (A) (A) (A) (A) (A)
                 (A) (A) (A) (A) (A) (A) (A) (A) (A) (A) (A) (A)
                 (A) (A) (A) (A) (A) (A) (A) (A) (A) (A) (A) (A)
                 (A) (A) (A) (A) (A) (A) (A) (A) (A) (A) (A) (A)
                 (A) (A) (A) (A) (A) (A) (A) (A) (A) (A) (A) (A)
                 (A) (A) (A) (A) (A) (A) (A) (A) (A) (A) (A) (A)
                 (A) (A) (A) (A) (A) (A) (A) (A) (A) (A) (A) (A)
                 (A) (A) (A) (A) (A) (A) (A) (A) (A) (A) (A) (A)
                 (A) (A) (A) (A) (A) (A) (A) (A) (A) (A) (A) (A)
                 (A) (A) (A) (A) (A) (A) (A) (A) (A) (A) (A) (A)
                 (A) (A) (A) (A) (A) (A) (A) (A) (A) (A) (A) (A)
                 (A) (A) (A) (A) (A) (A) (A) (A) (A) (A) (A) (A)
                 (A) (A) (A) (A) (A) (A) (A) (A) (A) (A) (A) (A)
                 (A) (A) (A) (A) (A) (A) (A) (A) (A) (A) (A) (A)
                 (A) (A) (A) (A) (A) (A) (A) (A) (A) (A)
 The electronic state is 1-A.
 Alpha  occ. eigenvalues --  -19.65702 -19.62860 -10.59045 -10.58607 -10.57899
 Alpha  occ. eigenvalues --  -10.52964 -10.51194  -1.17977  -1.16256  -0.88540
 Alpha  occ. eigenvalues --   -0.84315  -0.77022  -0.70344  -0.64051  -0.60305
 Alpha  occ. eigenvalues --   -0.56582  -0.54954  -0.53818  -0.49447  -0.47246
 Alpha  occ. eigenvalues --   -0.46757  -0.45361  -0.42962  -0.41776  -0.39078
 Alpha  occ. eigenvalues --   -0.37023  -0.33563  -0.29533
 Alpha virt. eigenvalues --    0.04325   0.06726   0.08063   0.09407   0.10643
 Alpha virt. eigenvalues --    0.12086   0.13070   0.15268   0.16691   0.17355
 Alpha virt. eigenvalues --    0.17859   0.20841   0.22319   0.24229   0.25717
 Alpha virt. eigenvalues --    0.28704   0.29795   0.30981   0.32965   0.33667
 Alpha virt. eigenvalues --    0.35130   0.36216   0.37121   0.37776   0.39032
 Alpha virt. eigenvalues --    0.39783   0.42508   0.44104   0.45777   0.47745
 Alpha virt. eigenvalues --    0.48273   0.48825   0.48892   0.50506   0.50586
 Alpha virt. eigenvalues --    0.51655   0.52236   0.53608   0.54076   0.54934
 Alpha virt. eigenvalues --    0.55533   0.56459   0.57599   0.58809   0.63158
 Alpha virt. eigenvalues --    0.64997   0.65145   0.67104   0.71080   0.73590
 Alpha virt. eigenvalues --    0.76260   0.78918   0.80136   0.83090   0.83605
 Alpha virt. eigenvalues --    0.86016   0.87301   0.89385   0.91700   0.93490
 Alpha virt. eigenvalues --    0.95081   0.96088   0.97662   0.99204   1.01540
 Alpha virt. eigenvalues --    1.02960   1.05067   1.05631   1.07432   1.08040
 Alpha virt. eigenvalues --    1.08779   1.09802   1.10878   1.11709   1.14420
 Alpha virt. eigenvalues --    1.14858   1.17484   1.18015   1.19747   1.20810
 Alpha virt. eigenvalues --    1.21169   1.23158   1.25116   1.26469   1.26987
 Alpha virt. eigenvalues --    1.30316   1.30547   1.32026   1.33495   1.35303
 Alpha virt. eigenvalues --    1.37301   1.38759   1.39304   1.40470   1.41787
 Alpha virt. eigenvalues --    1.43526   1.45858   1.48038   1.48502   1.50530
 Alpha virt. eigenvalues --    1.51193   1.55054   1.55569   1.56559   1.58912
 Alpha virt. eigenvalues --    1.62078   1.65280   1.71319   1.74121   1.87431
 Alpha virt. eigenvalues --    1.93040   1.98865   2.00041   2.02473   2.06659
 Alpha virt. eigenvalues --    2.10067   2.12162   2.13741   2.19605   2.19995
 Alpha virt. eigenvalues --    2.21439   2.24521   2.26336   2.28081   2.34714
 Alpha virt. eigenvalues --    2.36758   2.38962   2.40007   2.40893   2.46854
 Alpha virt. eigenvalues --    2.50271   2.54808   2.56694   2.58863   2.60468
 Alpha virt. eigenvalues --    2.60876   2.63623   2.64929   2.67455   2.69879
 Alpha virt. eigenvalues --    2.70674   2.73335   2.76243   2.78311   2.80123
 Alpha virt. eigenvalues --    2.81003   2.82268   2.86169   2.86560   2.87322
 Alpha virt. eigenvalues --    2.88705   2.89553   2.91927   2.92159   2.93552
 Alpha virt. eigenvalues --    2.95627   2.97204   3.00105   3.01102   3.01318
 Alpha virt. eigenvalues --    3.03016   3.04671   3.05010   3.06946   3.08449
 Alpha virt. eigenvalues --    3.09187   3.10635   3.12764   3.13095   3.14545
 Alpha virt. eigenvalues --    3.15057   3.16735   3.18110   3.18761   3.23382
 Alpha virt. eigenvalues --    3.24775   3.26595   3.27503   3.27911   3.32210
 Alpha virt. eigenvalues --    3.32748   3.33948   3.35032   3.36474   3.39029
 Alpha virt. eigenvalues --    3.39799   3.41407   3.42209   3.43824   3.45413
 Alpha virt. eigenvalues --    3.46949   3.48029   3.49175   3.51237   3.52094
 Alpha virt. eigenvalues --    3.54492   3.57548   3.58462   3.58983   3.63240
 Alpha virt. eigenvalues --    3.64437   3.65856   3.68370   3.68917   3.72136
 Alpha virt. eigenvalues --    3.72871   3.74618   3.75721   3.77400   3.79735
 Alpha virt. eigenvalues --    3.80814   3.81157   3.82266   3.84775   3.87532
 Alpha virt. eigenvalues --    3.89313   3.91104   3.92260   3.92488   3.94035
 Alpha virt. eigenvalues --    3.96406   3.97739   3.98783   4.00822   4.03641
 Alpha virt. eigenvalues --    4.03960   4.05896   4.06473   4.07976   4.09337
 Alpha virt. eigenvalues --    4.11578   4.11824   4.14313   4.14795   4.16880
 Alpha virt. eigenvalues --    4.18461   4.23103   4.24352   4.25738   4.27595
 Alpha virt. eigenvalues --    4.29533   4.31792   4.32378   4.36452   4.38565
 Alpha virt. eigenvalues --    4.41804   4.44624   4.48414   4.50803   4.55220
 Alpha virt. eigenvalues --    4.59265   4.60532   4.64516   4.67187   4.68087
 Alpha virt. eigenvalues --    4.70050   4.73069   4.76592   4.77133   4.80055
 Alpha virt. eigenvalues --    4.81905   4.84023   4.88239   4.89875   4.92832
 Alpha virt. eigenvalues --    4.95190   4.96174   4.99892   5.01752   5.04238
 Alpha virt. eigenvalues --    5.05933   5.08344   5.11040   5.11690   5.15877
 Alpha virt. eigenvalues --    5.18739   5.22170   5.24046   5.28220   5.28855
 Alpha virt. eigenvalues --    5.30869   5.31914   5.34630   5.37660   5.47699
 Alpha virt. eigenvalues --    5.52903   5.58143   5.61961   5.67351   5.76272
 Alpha virt. eigenvalues --    5.76873   5.77584   5.80772   5.81605   5.82357
 Alpha virt. eigenvalues --    5.95483   6.03361   6.16077   6.27268   6.32284
 Alpha virt. eigenvalues --    6.37346   6.48026   6.54953   6.65000   6.69012
 Alpha virt. eigenvalues --    6.75128   6.80303   6.81491   6.83290   7.02322
 Alpha virt. eigenvalues --    7.11811   7.21173   7.27533   7.29340   7.40176
 Alpha virt. eigenvalues --    9.92047  10.75617  11.60765  12.05316  13.00158
 Alpha virt. eigenvalues --   13.48165  14.28653
          Condensed to atoms (all electrons):
               1          2          3          4          5          6
     1  O    7.864768   0.005839   0.321423  -0.059863  -0.064859   0.331934
     2  O    0.005839   7.831297   0.004309  -0.039724   0.000132  -0.088834
     3  C    0.321423   0.004309   4.853978   0.299305   0.293127  -0.067770
     4  C   -0.059863  -0.039724   0.299305   5.186377  -0.084623   0.005401
     5  C   -0.064859   0.000132   0.293127  -0.084623   5.107847  -0.004535
     6  C    0.331934  -0.088834  -0.067770   0.005401  -0.004535   5.093734
     7  C   -0.068444   0.324634   0.005787   0.002345  -0.009994   0.418542
     8  H   -0.033639  -0.000227   0.423536  -0.056520  -0.051533   0.009278
     9  H    0.000977   0.032474  -0.033083   0.377759   0.005095  -0.001935
    10  H    0.003340   0.001104  -0.033222   0.388912   0.007781  -0.001318
    11  H    0.004828   0.000260  -0.046233   0.381232  -0.004963   0.000614
    12  H    0.002587  -0.000187  -0.039284  -0.012009   0.391721   0.002403
    13  H   -0.001048  -0.000056  -0.038717   0.009080   0.390038   0.002177
    14  H    0.003524   0.000007  -0.033305   0.005319   0.396761   0.000860
    15  H   -0.047398   0.003317  -0.000254  -0.002481   0.008633   0.442977
    16  H    0.004587  -0.044841  -0.000411  -0.001598   0.000265  -0.072037
    17  H   -0.000259   0.311604  -0.000243   0.004438  -0.000068   0.006693
               7          8          9         10         11         12
     1  O   -0.068444  -0.033639   0.000977   0.003340   0.004828   0.002587
     2  O    0.324634  -0.000227   0.032474   0.001104   0.000260  -0.000187
     3  C    0.005787   0.423536  -0.033083  -0.033222  -0.046233  -0.039284
     4  C    0.002345  -0.056520   0.377759   0.388912   0.381232  -0.012009
     5  C   -0.009994  -0.051533   0.005095   0.007781  -0.004963   0.391721
     6  C    0.418542   0.009278  -0.001935  -0.001318   0.000614   0.002403
     7  C    5.052072  -0.001034  -0.010361   0.000139  -0.001360  -0.000217
     8  H   -0.001034   0.600364   0.002488  -0.015354   0.006151   0.008427
     9  H   -0.010361   0.002488   0.520008  -0.021698  -0.028623   0.000612
    10  H    0.000139  -0.015354  -0.021698   0.589658  -0.031742   0.000410
    11  H   -0.001360   0.006151  -0.028623  -0.031742   0.623369  -0.001317
    12  H   -0.000217   0.008427   0.000612   0.000410  -0.001317   0.605554
    13  H    0.002283   0.000164  -0.000491  -0.000546   0.000737  -0.037148
    14  H    0.000173  -0.016135  -0.000281  -0.000247  -0.000435  -0.031581
    15  H   -0.110396  -0.000290   0.000433   0.000039   0.000253  -0.000785
    16  H    0.423172   0.000038   0.002312   0.000006   0.000092   0.000014
    17  H   -0.031381   0.000001  -0.006017   0.000002  -0.000082   0.000019
              13         14         15         16         17
     1  O   -0.001048   0.003524  -0.047398   0.004587  -0.000259
     2  O   -0.000056   0.000007   0.003317  -0.044841   0.311604
     3  C   -0.038717  -0.033305  -0.000254  -0.000411  -0.000243
     4  C    0.009080   0.005319  -0.002481  -0.001598   0.004438
     5  C    0.390038   0.396761   0.008633   0.000265  -0.000068
     6  C    0.002177   0.000860   0.442977  -0.072037   0.006693
     7  C    0.002283   0.000173  -0.110396   0.423172  -0.031381
     8  H    0.000164  -0.016135  -0.000290   0.000038   0.000001
     9  H   -0.000491  -0.000281   0.000433   0.002312  -0.006017
    10  H   -0.000546  -0.000247   0.000039   0.000006   0.000002
    11  H    0.000737  -0.000435   0.000253   0.000092  -0.000082
    12  H   -0.037148  -0.031581  -0.000785   0.000014   0.000019
    13  H    0.577219  -0.021923  -0.003756  -0.000056   0.000003
    14  H   -0.021923   0.573224  -0.000064  -0.000001  -0.000002
    15  H   -0.003756  -0.000064   0.583453  -0.003444  -0.000600
    16  H   -0.000056  -0.000001  -0.003444   0.580157  -0.011458
    17  H    0.000003  -0.000002  -0.000600  -0.011458   0.455746
 Mulliken charges:
               1
     1  O   -0.268296
     2  O   -0.341108
     3  C    0.091055
     4  C   -0.403351
     5  C   -0.380826
     6  C   -0.078184
     7  C    0.004039
     8  H    0.124287
     9  H    0.160332
    10  H    0.112736
    11  H    0.097220
    12  H    0.110781
    13  H    0.122039
    14  H    0.124105
    15  H    0.130364
    16  H    0.123204
    17  H    0.271603
 Sum of Mulliken charges =  -0.00000
 Mulliken charges with hydrogens summed into heavy atoms:
               1
     1  O   -0.268296
     2  O   -0.069505
     3  C    0.215342
     4  C   -0.033063
     5  C   -0.023901
     6  C    0.052180
     7  C    0.127243
 APT charges:
               1
     1  O   -0.186760
     2  O   -0.737378
     3  C   -0.269526
     4  C   -0.970842
     5  C   -1.144000
     6  C   -0.493456
     7  C   -0.324530
     8  H    0.462656
     9  H    0.214489
    10  H    0.434190
    11  H    0.307945
    12  H    0.259005
    13  H    0.307363
    14  H    0.512342
    15  H    0.423249
    16  H    0.493906
    17  H    0.711347
 Sum of APT charges =  -0.00000
 APT charges with hydrogens summed into heavy atoms:
               1
     1  O   -0.186760
     2  O   -0.026031
     3  C    0.193130
     4  C   -0.014218
     5  C   -0.065290
     6  C   -0.070207
     7  C    0.169376
 Electronic spatial extent (au):  <R**2>=            828.0929
 Charge=              0.0000 electrons
 Dipole moment (field-independent basis, Debye):
    X=              0.8055    Y=              0.0611    Z=              2.5820  Tot=              2.7054
 Quadrupole moment (field-independent basis, Debye-Ang):
   XX=            -37.6730   YY=            -42.9587   ZZ=            -45.3173
   XY=              0.1070   XZ=              5.4652   YZ=             -0.1916
 Traceless Quadrupole moment (field-independent basis, Debye-Ang):
   XX=              4.3100   YY=             -0.9757   ZZ=             -3.3343
   XY=              0.1070   XZ=              5.4652   YZ=             -0.1916
 Octapole moment (field-independent basis, Debye-Ang**2):
  XXX=             21.8781  YYY=             -3.7660  ZZZ=             -0.4410  XYY=              6.8776
  XXY=              4.5771  XXZ=             11.0817  XZZ=              6.5616  YZZ=              4.8430
  YYZ=              1.8423  XYZ=              4.0775
 Hexadecapole moment (field-independent basis, Debye-Ang**3):
 XXXX=           -582.0477 YYYY=           -302.3011 ZZZZ=           -145.6742 XXXY=             21.2992
 XXXZ=             49.4970 YYYX=             13.9597 YYYZ=             -0.1787 ZZZX=             10.8074
 ZZZY=              4.5184 XXYY=           -152.1305 XXZZ=           -120.2948 YYZZ=            -75.5677
 XXYZ=              8.5375 YYXZ=              9.9637 ZZXY=              4.2435
 N-N= 3.235366610832D+02 E-N=-1.457355343510D+03  KE= 3.448122263720D+02
  Exact polarizability:   0.000   0.000   0.000   0.000   0.000   0.000
 Approx polarizability:  86.945   5.173  79.030   8.470   1.279  73.014
 No NMR shielding tensors so no spin-rotation constants.
 Leave Link  601 at Wed Sep 25 22:01:19 2019, MaxMem=   671088640 cpu:              70.7 elap:              35.4
 (Enter /shared/centos7/gaussian/g16/l701.exe)
 SCFChk:  SCF convergence  3.59D-09 required  1.00D-08
 ... and contract with generalized density number  0.
 Compute integral second derivatives.
 Entering OneElI...
 Calculate overlap and kinetic energy integrals
    NBasis = 395  MinDer = 2  MaxDer = 2
 Requested accuracy = 0.1000D-12
 PrmmSu-InSpLW:  IPartL=    0 NPrtUS=   20 NPrtUL=    1 DoSpLW=F IThBeg=    0 IThEnd=   19 NThAct=   20.
 PrsmSu:  NPrtUS=  20 ThrOK=T IAlg=1 NPAlg=1 LenDen=           0 ISkipM=0 DoSpLW=F IThBeg=    0 IThEnd=   19.
 Prism:   IPart=     0 DynPar=F LinDyn=F Incr=           4.
 PRISM was handed    33309326 working-precision words and  8491 shell-pairs
 PRISM was handed    33309326 working-precision words and  8491 shell-pairs
 PRISM was handed    33309326 working-precision words and  8491 shell-pairs
 PRISM was handed    33309326 working-precision words and  8491 shell-pairs
 PRISM was handed    33309326 working-precision words and  8491 shell-pairs
 PRISM was handed    33309326 working-precision words and  8491 shell-pairs
 PRISM was handed    33309326 working-precision words and  8491 shell-pairs
 PRISM was handed    33309326 working-precision words and  8491 shell-pairs
 PRISM was handed    33309326 working-precision words and  8491 shell-pairs
 PRISM was handed    33309326 working-precision words and  8491 shell-pairs
 PRISM was handed    33309326 working-precision words and  8491 shell-pairs
 PRISM was handed    33309326 working-precision words and  8491 shell-pairs
 PRISM was handed    33309326 working-precision words and  8491 shell-pairs
 PRISM was handed    33309326 working-precision words and  8491 shell-pairs
 PRISM was handed    33309326 working-precision words and  8491 shell-pairs
 PRISM was handed    33309326 working-precision words and  8491 shell-pairs
 PRISM was handed    33309326 working-precision words and  8491 shell-pairs
 PRISM was handed    33309326 working-precision words and  8491 shell-pairs
 IPart=  8 NShTot=         420 NBatch=          50 AvBLen=         8.4
 IPart= 19 NShTot=         398 NBatch=          39 AvBLen=        10.2
 IPart= 16 NShTot=         403 NBatch=          40 AvBLen=        10.1
 PRISM was handed    33309326 working-precision words and  8491 shell-pairs
 IPart=  0 NShTot=         470 NBatch=          83 AvBLen=         5.7
 IPart=  1 NShTot=         464 NBatch=          79 AvBLen=         5.9
 PRISM was handed    33309326 working-precision words and  8491 shell-pairs
 IPart= 10 NShTot=         416 NBatch=          46 AvBLen=         9.0
 IPart=  9 NShTot=         419 NBatch=          49 AvBLen=         8.6
 IPart= 11 NShTot=         416 NBatch=          46 AvBLen=         9.0
 IPart=  3 NShTot=         449 NBatch=          70 AvBLen=         6.4
 IPart= 12 NShTot=         413 NBatch=          43 AvBLen=         9.6
 IPart= 15 NShTot=         404 NBatch=          40 AvBLen=        10.1
 IPart=  6 NShTot=         436 NBatch=          59 AvBLen=         7.4
 IPart= 13 NShTot=         411 NBatch=          42 AvBLen=         9.8
 IPart=  7 NShTot=         426 NBatch=          51 AvBLen=         8.4
 IPart=  4 NShTot=         442 NBatch=          64 AvBLen=         6.9
 IPart=  2 NShTot=         458 NBatch=          75 AvBLen=         6.1
 IPart=  5 NShTot=         439 NBatch=          61 AvBLen=         7.2
 IPart= 17 NShTot=         400 NBatch=          39 AvBLen=        10.3
 IPart= 18 NShTot=         399 NBatch=          39 AvBLen=        10.2
 IPart= 14 NShTot=         408 NBatch=          40 AvBLen=        10.2
 PrSmSu:  NxtVal=             81.
 Entering OneElI...
 Calculate potential energy integrals
    NBasis = 395  MinDer = 2  MaxDer = 2
 Requested accuracy = 0.1000D-12
 PrmmSu-InSpLW:  IPartL=    0 NPrtUS=   20 NPrtUL=    1 DoSpLW=F IThBeg=    0 IThEnd=   19 NThAct=   20.
 PrsmSu:  NPrtUS=  20 ThrOK=T IAlg=1 NPAlg=1 LenDen=           0 ISkipM=0 DoSpLW=F IThBeg=    0 IThEnd=   19.
 Prism:   IPart=     0 DynPar=F LinDyn=F Incr=          66.
 PRISM was handed    33352629 working-precision words and  7859 shell-pairs
 PRISM was handed    33352629 working-precision words and  7859 shell-pairs
 PRISM was handed    33352629 working-precision words and  7859 shell-pairs
 PRISM was handed    33352629 working-precision words and  7859 shell-pairs
 PRISM was handed    33352629 working-precision words and  7859 shell-pairs
 PRISM was handed    33352629 working-precision words and  7859 shell-pairs
 PRISM was handed    33352629 working-precision words and  7859 shell-pairs
 PRISM was handed    33352629 working-precision words and  7859 shell-pairs
 PRISM was handed    33352629 working-precision words and  7859 shell-pairs
 PRISM was handed    33352629 working-precision words and  7859 shell-pairs
 PRISM was handed    33352629 working-precision words and  7859 shell-pairs
 PRISM was handed    33352629 working-precision words and  7859 shell-pairs
 PRISM was handed    33352629 working-precision words and  7859 shell-pairs
 PRISM was handed    33352629 working-precision words and  7859 shell-pairs
 PRISM was handed    33352629 working-precision words and  7859 shell-pairs
 PRISM was handed    33352629 working-precision words and  7859 shell-pairs
 PRISM was handed    33352629 working-precision words and  7859 shell-pairs
 PRISM was handed    33352629 working-precision words and  7859 shell-pairs
 PRISM was handed    33352629 working-precision words and  7859 shell-pairs
 PRISM was handed    33352629 working-precision words and  7859 shell-pairs
 IPart= 16 NShTot=        6392 NBatch=         376 AvBLen=        17.0
 IPart= 12 NShTot=        6494 NBatch=         382 AvBLen=        17.0
 IPart=  0 NShTot=        7378 NBatch=         434 AvBLen=        17.0
 IPart=  9 NShTot=        6613 NBatch=         389 AvBLen=        17.0
 IPart= 11 NShTot=        6528 NBatch=         384 AvBLen=        17.0
 IPart=  1 NShTot=        7259 NBatch=         427 AvBLen=        17.0
 IPart= 10 NShTot=        6579 NBatch=         387 AvBLen=        17.0
 IPart=  8 NShTot=        6664 NBatch=         392 AvBLen=        17.0
 IPart=  3 NShTot=        6987 NBatch=         411 AvBLen=        17.0
 IPart= 17 NShTot=        6392 NBatch=         376 AvBLen=        17.0
 IPart=  5 NShTot=        6817 NBatch=         401 AvBLen=        17.0
 IPart=  6 NShTot=        6800 NBatch=         400 AvBLen=        17.0
 IPart=  7 NShTot=        6681 NBatch=         393 AvBLen=        17.0
 IPart= 13 NShTot=        6460 NBatch=         380 AvBLen=        17.0
 IPart= 14 NShTot=        6426 NBatch=         378 AvBLen=        17.0
 IPart= 18 NShTot=        6358 NBatch=         374 AvBLen=        17.0
 IPart=  4 NShTot=        6936 NBatch=         408 AvBLen=        17.0
 IPart=  2 NShTot=        7123 NBatch=         419 AvBLen=        17.0
 IPart= 15 NShTot=        6409 NBatch=         377 AvBLen=        17.0
 IPart= 19 NShTot=        6307 NBatch=         371 AvBLen=        17.0
 PrSmSu:  NxtVal=           1321.
 Polarizability after L701:
                1             2             3 
      1  0.000000D+00
      2  0.000000D+00  0.000000D+00
      3  0.000000D+00  0.000000D+00  0.000000D+00
 Dipole Derivatives after L701:
                 1             2             3             4             5 
      1  -0.283700D+00  0.334283D-01  0.335924D-01 -0.100883D+01 -0.274114D+00
      2   0.115518D+00 -0.230255D+00  0.901473D-01 -0.342075D+00 -0.479942D+00
      3   0.966233D-01 -0.599260D-02 -0.463245D-01 -0.271594D+00 -0.256363D+00
                 6             7             8             9            10 
      1  -0.103651D+01 -0.569302D+00  0.146067D+00 -0.853999D+00 -0.541290D+00
      2  -0.489575D+00  0.257047D+00  0.129542D+00  0.542159D-01 -0.160023D+00
      3  -0.723367D+00 -0.231704D+00 -0.627135D-01 -0.368818D+00  0.259078D-01
                11            12            13            14            15 
      1   0.552828D+00  0.120342D+00 -0.144408D+01 -0.391963D+00  0.780782D+00
      2  -0.143910D+01 -0.942480D-01 -0.603443D-01 -0.953644D+00  0.879357D-01
      3   0.985237D-01 -0.932137D+00  0.569399D-01  0.201493D-01 -0.103428D+01
                16            17            18            19            20 
      1  -0.522976D+00 -0.162009D+00 -0.425203D+00 -0.329832D+00  0.569395D+00
      2  -0.573722D-01 -0.738773D+00  0.447676D+00  0.277586D-01 -0.517928D+00
      3  -0.242948D+00  0.220468D+00 -0.218619D+00 -0.302953D+00  0.244162D+00
                21            22            23            24            25 
      1  -0.318586D+00  0.720254D+00 -0.139072D+00  0.518324D+00  0.316124D+00
      2   0.441875D-01 -0.748535D-01  0.190187D+00 -0.640372D-01  0.588239D+00
      3  -0.125829D+00  0.307923D+00 -0.714335D-01  0.477527D+00 -0.453254D-01
                26            27            28            29            30 
      1  -0.104987D-01  0.669945D-02  0.283463D+00 -0.314331D+00  0.332668D+00
      2   0.193076D+00 -0.417061D-02 -0.330255D+00  0.703551D+00 -0.565821D+00
      3  -0.178808D-01  0.134269D+00  0.146561D+00 -0.196946D+00  0.315556D+00
                31            32            33            34            35 
      1   0.151680D+00 -0.785696D-01 -0.386138D+00 -0.533079D-01 -0.191966D+00
      2  -0.105802D+00  0.254942D+00  0.612855D+00  0.240540D-01  0.127305D+00
      3  -0.113320D+00  0.878827D-01  0.517213D+00  0.211558D+00  0.273841D+00
                36            37            38            39            40 
      1  -0.463722D+00 -0.128881D-02  0.645023D+00 -0.100567D+00  0.133211D+01
      2  -0.821860D-03 -0.109808D+00  0.779931D+00 -0.545171D-01  0.799195D-01
      3   0.703018D+00  0.441525D-01 -0.257279D+00  0.143446D+00 -0.253544D+00
                41            42            43            44            45 
      1  -0.241777D+00  0.114338D+00  0.150790D+00 -0.183116D+00  0.105666D+00
      2   0.806367D-01 -0.353801D-02  0.143401D+00  0.100855D+01 -0.221257D+00
      3   0.372376D-01  0.124278D+00  0.435369D-01 -0.550783D-01  0.110410D+00
                46            47            48            49            50 
      1   0.827673D+00 -0.500590D+00  0.550811D+00  0.972505D+00  0.541265D+00
      2  -0.271886D+00  0.372412D+00 -0.230793D+00  0.276481D+00  0.519513D+00
      3   0.292776D+00 -0.200764D+00  0.281632D+00  0.235410D+00  0.142187D+00
                51 
      1   0.102150D+01
      2   0.391762D+00
      3   0.642024D+00
 Hessian after L701:
                1             2             3             4             5 
      1  0.827813D+01
      2  0.524507D+01  0.141760D+02
      3 -0.149469D+01 -0.654448D+00  0.132316D+02
      4  0.392335D+00  0.511132D+00  0.372235D+00  0.113339D+02
      5  0.542609D+00 -0.660058D-01  0.217948D+00 -0.418102D+01  0.655292D+01
      6  0.376405D+00  0.205664D+00 -0.285609D+00 -0.206048D+01 -0.769389D+00
      7 -0.454197D+01 -0.389849D+01 -0.238981D+01  0.379081D+00  0.152460D+00
      8 -0.379372D+01 -0.626583D+01  0.207376D+01  0.114129D+00 -0.173055D+00
      9 -0.226997D+01  0.204682D+01 -0.744298D+01  0.436363D-01  0.276680D-02
     10 -0.186619D+00  0.136971D+00  0.668563D-01  0.664675D-01 -0.141579D+00
     11  0.227763D+00  0.525865D+00  0.170830D+00  0.276482D-01 -0.971695D-01
     12  0.846207D-01  0.228880D+00 -0.748607D-01  0.243358D-01 -0.123147D-01
     13  0.239527D+00  0.290410D+00 -0.412251D+00  0.136836D+00  0.779958D-01
     14  0.179858D+00 -0.115453D+00 -0.160796D+00  0.647441D-01 -0.753328D-01
     15 -0.405425D+00 -0.269287D+00  0.341471D+00 -0.232256D-01 -0.111426D-01
     16 -0.472136D+01 -0.313040D+01  0.418737D+01  0.595805D+00  0.250101D-01
     17 -0.327870D+01 -0.847121D+01 -0.231886D+01 -0.121475D+00 -0.639369D+00
     18  0.389392D+01 -0.212370D+01 -0.609226D+01 -0.762913D-01  0.119544D+00
     19  0.535328D+00  0.513069D+00 -0.150856D+00 -0.849079D+01  0.239548D+01
     20  0.561048D+00 -0.213671D-01  0.441596D+00  0.256208D+01 -0.583606D-01
     21 -0.671390D-01  0.350948D+00 -0.343964D-01 -0.233021D+00 -0.105676D+01
     22 -0.143797D-01  0.172845D+00  0.147500D+00  0.307451D-01  0.475288D-02
     23  0.173933D+00 -0.606375D-01 -0.558837D-01 -0.111773D-02 -0.105516D-01
     24  0.191543D+00 -0.775817D-01  0.159654D+00  0.210518D-01  0.319562D-02
     25 -0.473641D-01  0.697105D-01  0.399999D-01 -0.196003D-01 -0.251789D-01
     26 -0.901777D-02  0.209816D-01  0.684690D-01 -0.972138D-01 -0.226061D+00
     27  0.654702D-02  0.601067D-01 -0.241986D-01 -0.549279D-01  0.183930D-01
     28 -0.280848D-01 -0.692189D-01 -0.924884D-03  0.486509D-01 -0.366314D-01
     29 -0.623038D-01  0.139318D+00  0.964675D-02 -0.486633D-01 -0.946413D-03
     30  0.858687D-02 -0.205499D-01 -0.521694D-01  0.320247D-01 -0.177328D-01
     31 -0.353293D-01 -0.438642D-01 -0.465679D-01  0.359609D-01 -0.235467D-01
     32 -0.455986D-01  0.477178D-01  0.101873D+00 -0.275649D-01 -0.179875D-01
     33 -0.484503D-01  0.109725D+00  0.594477D-01 -0.442223D-01  0.163650D-01
     34 -0.265178D-01 -0.153528D-01 -0.500084D-01  0.939192D-02  0.589903D-02
     35 -0.193974D-01 -0.312393D-01  0.550161D-01 -0.166414D-02 -0.148833D-01
     36 -0.642493D-01  0.485015D-01  0.115888D+00 -0.297109D-01 -0.765940D-02
     37 -0.208832D-01  0.616529D-03 -0.598993D-01  0.822093D-02  0.120993D-01
     38  0.490330D-01 -0.290368D-01 -0.725874D-01  0.258052D-01  0.928668D-02
     39 -0.676932D-01 -0.170572D-01  0.412814D-01 -0.648827D-02 -0.414311D-02
     40  0.113885D+00 -0.288537D-01 -0.955012D-01  0.238058D-01  0.554616D-02
     41 -0.260505D-01 -0.419652D-01  0.144521D-01  0.214861D-02 -0.654302D-02
     42 -0.657399D-01  0.116652D-01 -0.322444D-02 -0.169492D-02 -0.751020D-03
     43 -0.747951D-01  0.263367D+00 -0.247228D+00 -0.473427D-02  0.701506D-01
     44  0.278376D+00  0.229703D+00  0.126606D+00  0.844135D-01  0.129269D+00
     45 -0.224528D+00  0.103530D+00  0.129489D-01 -0.132951D-01 -0.187193D-01
     46  0.109507D+00 -0.384204D-01  0.106557D+00  0.228929D+00 -0.358040D-01
     47 -0.554869D-01 -0.389287D-01 -0.347299D-01 -0.607687D-01 -0.193221D+00
     48  0.106840D+00 -0.220099D-01  0.358824D-01  0.533314D-01  0.107579D+00
     49  0.285883D-01  0.214128D-01  0.272205D-01 -0.477499D+01  0.115176D+01
     50  0.325879D-01  0.205101D-02  0.170993D-01  0.114739D+01 -0.511199D+01
     51  0.394208D-01  0.187942D-01  0.114861D-01  0.199674D+01  0.141282D+01
                6             7             8             9            10 
      6  0.121880D+02
      7  0.741349D-01  0.171902D+02
      8  0.872929D-02  0.251649D+01  0.187417D+02
      9 -0.190861D+00  0.218734D+01 -0.122101D+01  0.203696D+02
     10  0.197081D-02 -0.571945D+01  0.104895D+01  0.284144D+00  0.147157D+02
     11 -0.131704D-01  0.114123D+01 -0.202319D+01  0.858715D+00 -0.272428D+00
     12 -0.144679D+00  0.323134D+00  0.870582D+00 -0.580716D+01 -0.140117D+00
     13 -0.622124D-01 -0.499539D+01  0.900647D+00 -0.184087D+01  0.492864D-01
     14 -0.203547D-01  0.912000D+00 -0.568900D+01 -0.135456D+01  0.195028D-01
     15 -0.105112D+00 -0.179252D+01 -0.135069D+01 -0.366181D+01  0.103661D-01
     16 -0.169539D+00  0.281355D+00 -0.194324D+00 -0.776769D-01 -0.255186D+00
     17  0.664429D-03 -0.154536D+00  0.881688D-01  0.219231D-01 -0.185886D+00
     18  0.225038D+00  0.269879D-01 -0.473748D-01 -0.253498D-01 -0.300895D-01
     19 -0.223223D+00  0.293191D+00 -0.170338D+00 -0.607578D-02  0.257922D+00
     20 -0.106812D+01 -0.122544D+00 -0.142655D+00 -0.365758D-02 -0.333548D+00
     21 -0.836122D+01  0.381870D-01 -0.374812D-01 -0.191741D+00  0.478451D-01
     22  0.860157D-02 -0.330432D+01 -0.249607D+00  0.144006D+01  0.136147D+00
     23  0.101634D-04 -0.272748D+00 -0.459755D+01 -0.272998D+00 -0.125648D+00
     24 -0.841566D-02  0.133814D+01 -0.229554D+00 -0.315453D+01 -0.573325D-01
     25 -0.680000D-01  0.106540D-01 -0.519871D-01 -0.378188D-01 -0.154573D+01
     26  0.375622D-01 -0.148444D+00  0.709300D-02 -0.255359D-01  0.476503D+00
     27 -0.255885D+00 -0.290659D-01 -0.143802D-01  0.738374D-01 -0.230798D+00
     28  0.217125D-01  0.692057D-01 -0.282485D-01  0.210798D-01 -0.374441D+01
     29 -0.126734D-01 -0.289707D-01 -0.593769D-01 -0.180957D-01 -0.593617D+00
     30 -0.183619D-01  0.185546D-01 -0.411707D-01  0.921313D-01  0.476750D+00
     31 -0.339832D-01  0.132898D+00  0.275133D-02 -0.133685D-01 -0.394508D+01
     32  0.133273D-01 -0.161609D-01 -0.122821D+00 -0.168908D+00 -0.166766D+00
     33 -0.118095D-02 -0.232221D-01 -0.123110D+00  0.783843D-01 -0.434447D+00
     34 -0.124494D-01  0.856609D-01 -0.179913D-02  0.133933D+00  0.199849D-01
     35  0.237699D-02  0.501680D-03  0.104441D+00  0.726253D-01  0.165363D-01
     36  0.654533D-02  0.773474D-01  0.475685D-01 -0.116935D+00 -0.256208D-01
     37 -0.491740D-02  0.816053D-01 -0.692239D-01  0.263751D-01 -0.368428D-01
     38 -0.102296D-01 -0.138887D-02 -0.663865D-02  0.827347D-01  0.553437D-01
     39 -0.893722D-02 -0.461065D-02  0.100701D+00  0.437475D-01 -0.138337D-01
     40 -0.875516D-02  0.156306D-01  0.142640D-01  0.887528D-01  0.800138D-01
     41 -0.157052D-03 -0.189110D-01  0.667314D-01  0.264419D-02  0.690365D-01
     42 -0.708940D-02  0.103837D+00 -0.631007D-02 -0.218864D-01 -0.295935D-01
     43 -0.101764D-01 -0.148186D-01 -0.320281D-01  0.128410D-01 -0.774117D-02
     44 -0.121988D-01 -0.569046D-01  0.789534D-01 -0.205434D-01  0.429748D-03
     45 -0.360522D-01  0.222531D-01 -0.290087D-01 -0.274778D-01  0.173341D-02
     46  0.514107D-01  0.174777D-01 -0.133088D-01  0.399342D-02  0.456739D-02
     47  0.911006D-01 -0.160031D-01 -0.250051D-02 -0.337040D-02 -0.733032D-02
     48  0.129930D+00  0.106038D-01 -0.585136D-02 -0.103555D-01  0.556956D-02
     49  0.211950D+01  0.190311D-01  0.735375D-02  0.362276D-02  0.110950D+00
     50  0.154685D+01  0.124138D-01 -0.445776D-02  0.451612D-03  0.353197D-02
     51 -0.312611D+01  0.187045D-01  0.459544D-02 -0.657774D-02  0.665965D-01
               11            12            13            14            15 
     11  0.123273D+02
     12 -0.463715D+00  0.156454D+02
     13 -0.514870D-01 -0.454821D-01  0.132896D+02
     14  0.315796D-01 -0.582293D-01 -0.586719D+00  0.147691D+02
     15  0.914961D-01  0.424253D-01  0.149469D+01  0.886529D+00  0.137555D+02
     16 -0.143163D+00 -0.192513D-01  0.301762D+00 -0.130334D+00 -0.121592D+00
     17  0.377586D+00  0.218789D-01 -0.694571D-01 -0.233838D+00 -0.197543D-03
     18  0.392971D-01 -0.215196D+00 -0.155211D+00  0.328792D-01 -0.183221D+00
     19 -0.303883D+00  0.481559D-01  0.241968D-01 -0.989452D-03  0.391543D-01
     20 -0.111303D-01 -0.324914D-01  0.488871D-01 -0.844104D-01 -0.327145D-02
     21 -0.317966D-01 -0.164854D+00  0.556691D-02 -0.497586D-02 -0.729860D-01
     22 -0.151536D+00 -0.726965D-01  0.177227D+00 -0.259939D-01  0.719063D-01
     23 -0.287892D-01 -0.149676D+00 -0.287783D-01  0.125327D+00  0.844689D-01
     24 -0.173646D+00  0.810760D-01  0.105555D+00  0.777941D-01 -0.162759D+00
     25  0.111357D+00 -0.225349D+00  0.543415D-01  0.761292D-01 -0.214084D-01
     26 -0.450034D+01 -0.539385D-01  0.724776D-01  0.170747D-01 -0.230086D-01
     27 -0.257434D-01 -0.442448D+01 -0.249265D-01 -0.196743D-01 -0.360866D-01
     28 -0.592603D+00  0.509266D+00 -0.460572D-01  0.207556D-01 -0.121567D-01
     29 -0.282088D+01 -0.110684D+01  0.363293D-01  0.115663D+00 -0.913974D-01
     30 -0.101821D+01 -0.311289D+01 -0.187819D-01 -0.981270D-01  0.350751D-03
     31 -0.148628D+00 -0.475990D+00 -0.306431D-01  0.797861D-02  0.798582D-03
     32 -0.385992D+01  0.804738D+00  0.110084D-01  0.347323D-01  0.213028D-01
     33  0.621231D+00 -0.172664D+01  0.120796D-01  0.500319D-01 -0.106266D-01
     34  0.408832D-02  0.248379D-02 -0.383063D+01  0.204172D+00  0.605697D+00
     35 -0.276440D-01  0.330938D-01  0.250398D+00 -0.368707D+01  0.779361D+00
     36  0.242306D-01 -0.143918D-02  0.818075D+00  0.902607D+00 -0.189167D+01
     37  0.623288D-01 -0.117333D-01 -0.408622D+01 -0.173069D+00  0.397851D-01
     38  0.156957D+00 -0.502718D-01 -0.409701D+00 -0.153192D+01 -0.132207D+00
     39 -0.573112D-01 -0.416836D-01  0.790908D-01 -0.256484D+00 -0.410086D+01
     40  0.860805D-01 -0.474850D-01 -0.140192D+01 -0.461628D+00  0.110663D+00
     41  0.289470D-02 -0.255758D-01 -0.391590D+00 -0.372732D+01  0.256201D-02
     42 -0.237635D-01 -0.354167D-01  0.361608D-01  0.130515D-01 -0.385070D+01
     43  0.132865D-01  0.130340D-02  0.696560D-01 -0.103590D+00 -0.135005D-01
     44 -0.160456D-01 -0.380066D-02 -0.148992D+00  0.606093D-01  0.166397D-01
     45  0.479537D-03 -0.452674D-02 -0.102980D-01  0.114903D-01 -0.578817D-01
     46  0.627222D-02  0.467372D-02  0.322196D-01 -0.873282D-02  0.995269D-02
     47 -0.996657D-02 -0.285672D-02 -0.129133D-01 -0.645553D-02 -0.502298D-02
     48  0.273681D-02 -0.462584D-02  0.726813D-02 -0.307848D-02 -0.698696D-02
     49 -0.163277D-01  0.401308D-01  0.161835D-01  0.591446D-02  0.681187D-02
     50 -0.271056D-01  0.535120D-03  0.114831D-01 -0.323700D-02  0.386621D-02
     51 -0.165726D-02 -0.105033D-01  0.115457D-01  0.189881D-02  0.960774D-03
               16            17            18            19            20 
     16  0.128354D+02
     17 -0.112867D+01  0.180946D+02
     18 -0.794221D+01  0.220825D+01  0.221095D+02
     19 -0.440165D+01  0.469604D+01  0.460854D+01  0.148425D+02
     20  0.426028D+01 -0.797007D+01  0.540283D+00 -0.555421D+01  0.122113D+02
     21  0.451605D+01  0.766697D+00 -0.114232D+02 -0.523365D+01  0.964407D+00
     22  0.163899D+00 -0.106170D+00  0.106744D+00  0.938454D-02  0.801281D-02
     23 -0.933635D-01 -0.180829D-01 -0.462720D-01 -0.145066D-02 -0.115551D-01
     24  0.120045D+00 -0.558743D-01 -0.787100D-02  0.160150D-01  0.244270D-02
     25 -0.408050D-01  0.418981D-01  0.346404D-02 -0.257981D-01  0.556883D-01
     26 -0.100974D-01  0.112358D+00  0.623962D-02  0.285164D-01 -0.425813D-01
     27 -0.623343D-03  0.516197D-02 -0.377359D-01  0.519789D-02 -0.925768D-03
     28 -0.302484D-02 -0.971032D-02  0.959752D-03  0.945779D-02 -0.196027D-01
     29 -0.947379D-02  0.502830D-02 -0.186385D-02 -0.255874D-01  0.902428D-02
     30  0.406915D-02 -0.773286D-02 -0.724196D-02  0.120822D-01 -0.902815D-02
     31  0.185491D-02 -0.358946D-01 -0.139280D-01  0.704084D-02 -0.826904D-02
     32 -0.343441D-01  0.321320D-01  0.159694D-01 -0.117366D-01 -0.100402D-01
     33 -0.210683D-01  0.318100D-01 -0.547458D-02 -0.173180D-01  0.798266D-02
     34  0.102287D-01 -0.200575D-01 -0.379850D-01  0.159905D-01 -0.666402D-03
     35 -0.323995D-01 -0.209483D-01  0.297325D-01 -0.147338D-01 -0.158091D-01
     36 -0.636828D-01  0.280547D-01  0.228085D-01 -0.363552D-01 -0.154170D-02
     37  0.304966D-01  0.143321D-01 -0.516172D-01  0.532677D-01  0.205292D-01
     38  0.577953D-01 -0.357457D-01 -0.292490D-01  0.472260D-01 -0.256251D-02
     39 -0.562148D-01 -0.767550D-02 -0.217733D-01 -0.164049D-01 -0.449802D-02
     40  0.539323D-01 -0.176539D-01 -0.121179D-01  0.319484D-01  0.332808D-02
     41 -0.166496D-01 -0.138563D-01  0.370289D-02 -0.404112D-02 -0.863210D-02
     42 -0.107633D-01  0.371197D-02 -0.160089D-01 -0.135780D-02  0.236464D-03
     43 -0.456727D+01  0.262762D+00 -0.767003D-01  0.129216D+00 -0.410984D+00
     44  0.435872D+00 -0.167391D+01 -0.830569D+00 -0.526259D+00 -0.271381D+00
     45 -0.109102D+00 -0.781345D+00 -0.440127D+01  0.901843D-03 -0.435805D-01
     46 -0.332562D+00  0.389975D-02 -0.315912D+00 -0.325236D+01 -0.102717D+01
     47  0.332869D-01  0.292894D+00  0.708819D-03 -0.988847D+00 -0.355663D+01
     48 -0.318629D+00 -0.981457D-02  0.719927D-01  0.958840D+00 -0.805064D+00
     49  0.471247D-01  0.109271D+00  0.714559D-01 -0.388863D-01 -0.428541D-01
     50  0.110974D+00  0.742425D-01  0.824220D-01 -0.782508D-01 -0.130993D-01
     51  0.828273D-01  0.933437D-01  0.718559D-02 -0.364665D-02  0.152250D-01
               21            22            23            24            25 
     21  0.235717D+02
     22  0.978141D-02  0.276056D+01
     23 -0.600672D-03  0.392721D+00  0.467316D+01
     24  0.277851D-02 -0.188838D+01  0.419301D+00  0.294536D+01
     25 -0.199404D-02  0.432540D-01  0.216380D-01  0.299519D-01  0.182882D+01
     26 -0.559929D-02  0.291868D-01 -0.273854D-02  0.137196D-01 -0.465537D+00
     27  0.140109D-01  0.198622D-01  0.746189D-02 -0.440587D-02  0.194993D+00
     28  0.847444D-02  0.217820D-01 -0.519819D-01 -0.144656D-01 -0.125884D+00
     29 -0.990872D-02 -0.607816D-01 -0.946843D-01 -0.355345D-01  0.103377D+00
     30 -0.489671D-02 -0.162342D-01 -0.304488D-01  0.357446D-01 -0.742642D-01
     31 -0.433620D-02 -0.110783D-01  0.163501D-01  0.281672D-01 -0.983092D-01
     32  0.162793D-02  0.293612D-01  0.567140D-02  0.549122D-01  0.548580D-01
     33 -0.602421D-02  0.444422D-01  0.420316D-01  0.552349D-01  0.205607D+00
     34 -0.119525D-01 -0.260997D-01 -0.305845D-02  0.192644D-01  0.350450D-02
     35  0.533510D-02 -0.273619D-02 -0.307705D-01 -0.113270D-01  0.569492D-02
     36 -0.147554D-02  0.430972D-01 -0.206755D-01  0.127642D+00 -0.191482D-01
     37 -0.659597D-02 -0.485249D-02 -0.146890D-02  0.186492D-02 -0.991129D-03
     38 -0.282628D-02 -0.114408D-01  0.123681D-01 -0.236630D-01  0.613709D-02
     39 -0.213599D-01  0.601792D-02 -0.148222D-01  0.114019D-01 -0.112011D-02
     40 -0.474650D-03  0.686281D-02 -0.233387D-01  0.779427D-01  0.858630D-02
     41 -0.593892D-03 -0.197969D-01  0.372203D-01  0.432824D-01 -0.166943D-03
     42 -0.637040D-02  0.671542D-01  0.398779D-01 -0.880287D-01  0.331077D-03
     43 -0.501298D-02 -0.115980D-02  0.643494D-03  0.997300D-03 -0.302937D-02
     44 -0.561609D-01 -0.775548D-02  0.217223D-02 -0.701843D-02  0.859543D-02
     45  0.393732D+00  0.203804D-02 -0.326045D-03  0.991435D-03 -0.177962D-02
     46  0.982254D+00  0.648885D-02 -0.194848D-02  0.530015D-02  0.304085D-02
     47 -0.796187D+00 -0.438439D-02  0.501598D-03 -0.281587D-02 -0.163221D-01
     48 -0.372454D+01  0.401854D-02 -0.840889D-03  0.228462D-02  0.650440D-02
     49 -0.439810D-01  0.554043D-02 -0.383275D-03  0.433748D-02 -0.446891D-01
     50 -0.861267D-01  0.332140D-02 -0.106068D-02  0.236777D-02  0.410883D-02
     51  0.308404D-01  0.609045D-02 -0.606620D-03  0.383833D-02 -0.299697D-01
               26            27            28            29            30 
     26  0.438971D+01
     27 -0.932463D-02  0.467379D+01
     28  0.103232D+00 -0.101012D+00  0.367857D+01
     29  0.525310D-01  0.329677D-01  0.696294D+00  0.253446D+01
     30  0.211788D-01  0.643138D-01 -0.406826D+00  0.115799D+01  0.320648D+01
[...]
   zz         0.614749D+02      0.910964D+01      0.101358D+02

 ----------------------------------------------------------------------

 Test job not archived.
 1\1\GINC-C0178\Freq\RM062X\CC-pVTZ\C5H10O2\HARMS.N\26-Sep-2019\0\\#P G
 eom=AllCheck Guess=TCheck SCRF=Check Test GenChk RM062X/CC-pVTZ Freq\\
 Gaussian input prepared by ASE\\0,1\O,0.6277253629,-2.1431587571,-0.15
 94331051\O,0.8335201769,0.5089434944,-1.007055816\C,-0.6857282723,-2.5
 418649287,0.2575860153\C,-1.6805052322,-1.4157194427,0.0387215484\C,-0
 .6922172216,-3.0518038312,1.6893782252\C,1.2291628604,-1.1751101287,0.
 5916565756\C,1.3640106772,0.0744920647,0.1700976385\H,-0.9180690757,-3
 .3669843769,-0.4159501363\H,-1.446150767,-0.5723188933,0.6900196862\H,
 -1.6396552495,-1.0723306761,-0.9931199615\H,-2.691577047,-1.7549729826
 ,0.2653706405\H,-0.525612577,-2.2368117563,2.3951073845\H,0.082332859,
 -3.8048824942,1.8321212611\H,-1.6585084925,-3.5001084957,1.9189672288\
 H,1.6599771035,-1.468744733,1.5418530465\H,1.9139917407,0.7905410071,0
 .7671463634\H,1.0823250296,1.4224658723,-1.1532737148\\Version=EM64L-G
 16RevA.03\State=1-A\HF=-346.9391847\RMSD=6.271e-09\RMSF=5.859e-07\Zero
 Point=0.1471514\Thermal=0.1557552\Dipole=-0.0819258,0.7049549,0.494507
 4\DipoleDeriv=-0.9480234,-0.4739421,0.0160806,-0.450337,-0.9771102,0.0
 54061,-0.1752057,-0.2091986,-0.4683416,-0.3333642,0.3319889,-0.2418498
 ,0.0138616,-0.6249004,0.2958681,-0.0051899,0.753025,-0.9697418,0.88205
 21,0.2765456,-0.0914365,0.131751,0.5133866,-0.1411796,-0.138987,-0.219
 9978,0.4266276,-0.0792369,0.0260857,-0.0044646,0.1205306,-0.0676321,0.
 0258996,-0.0249218,0.0769639,-0.0002753,-0.0101675,-0.0305255,-0.01193
 42,-0.0171826,0.0175125,0.0829553,0.0555929,0.1002873,-0.1211682,0.106
 5696,0.3040148,0.2120255,0.4191489,0.5081505,0.1393705,0.4682682,0.381
 3615,0.1077847,-0.0389662,-0.248927,0.3544083,-0.0136749,0.4321745,-0.
 3479936,0.1312985,-0.6898035,0.7421814,-0.0129911,-0.039685,-0.0042066
 ,-0.0373916,-0.0981502,-0.0605611,-0.0238479,-0.0751476,-0.0546922,0.0
 667661,-0.0294181,-0.0498159,0.0037246,-0.0454122,-0.0505155,-0.031264
 6,-0.0849772,-0.0139652,0.0726993,0.0203369,0.0197784,0.0342082,0.0237
 263,0.0516562,-0.017299,0.0559284,-0.0751979,-0.1208715,-0.0563402,0.0
 313577,-0.0753625,0.048001,0.019732,0.0502591,0.0178463,0.0676504,0.06
 46011,-0.0021677,-0.0363672,-0.0185857,-0.0557192,-0.101057,-0.0236955
 ,-0.0546425,-0.0112709,-0.0252113,0.1142537,-0.0440544,0.0852334,-0.01
 88324,0.036877,-0.0142089,0.0172183,0.0256282,-0.0899661,-0.0906019,0.
 0507282,-0.0637503,0.0319193,0.0288297,0.0207116,0.023476,0.0540265,0.
 0898682,-0.0047112,-0.0818372,-0.0309551,0.0102341,0.0379436,-0.143662
 1,-0.0269406,-0.0332489,0.0807296,-0.0486079,-0.0912383,-0.0736254,-0.
 0035144,-0.0190189,-0.0811254,-0.0028206,0.0023832,0.295512,-0.048299,
 -0.0271739,-0.0275931,0.3061664,-0.0528673,-0.0467224,-0.0625784,0.321
 6201\Polar=64.5829859,9.1498879,77.2494026,2.005516,-9.5308632,61.4921
 823\Quadrupole=-1.4597837,4.3154336,-2.85565,4.2588649,0.988282,-1.779
 8832\PG=C01 [X(C5H10O2)]\NImag=0\\0.37006964,0.16497972,0.29541116,0.0
 0640949,0.12049567,0.25203788,-0.00188321,0.00652568,0.00760199,0.1341
 3808,0.00053321,0.00159682,-0.00302205,0.11845184,0.62597788,0.0121504
 1,0.00792096,0.00673769,0.12656780,-0.17487577,0.34437140,-0.16773473,
 -0.03372132,0.03702127,-0.00312847,0.00276657,-0.00541291,0.45296036,-
 0.02004021,-0.07150166,-0.00569449,-0.00138392,0.00144562,-0.00170441,
 0.01172583,0.57738413,0.04894288,0.00018725,-0.09124047,-0.00008839,-0
 .00052192,0.00226885,0.03592968,0.07754765,0.55021528,-0.04782687,0.01
 748278,0.00127130,-0.00020838,-0.00111551,0.00105886,-0.11525780,0.053
 78713,-0.01467233,0.54195844,-0.01134067,0.00920967,-0.00132468,-0.000
 42707,-0.00017920,0.00036901,0.06232276,-0.16030283,0.01265520,0.05082
 338,0.52631431,0.01217287,-0.00405223,0.00343069,-0.00063804,-0.000295
 82,-0.00072515,-0.01466148,0.01180934,-0.08484731,-0.01340510,0.002544
 95,0.58806878,-0.01762335,-0.01937140,0.03849238,0.00081430,-0.0006610
 3,0.00105804,-0.07636446,0.00433598,-0.01442942,0.00223707,0.00902669,
 -0.02410171,0.59043619,-0.00883256,-0.00466279,0.01457512,-0.00040491,
 0.00014649,-0.00031029,0.00275973,-0.09398244,0.02843383,0.00454941,-0
 .01112048,0.02809973,-0.00462459,0.56949779,0.00923982,0.00745171,-0.0
 0954062,-0.00036598,0.00042399,-0.00034796,-0.00787326,0.03305056,-0.1
 9093892,-0.00455625,0.00469031,-0.00777263,0.00152470,0.03017077,0.491
 43034,-0.11104544,-0.06361182,-0.04669900,0.00985721,0.02206434,-0.019
 37415,-0.02852406,-0.03324516,-0.02000126,-0.00083732,0.00053812,-0.00
 097457,0.00126657,0.00069638,0.00223416,0.28820871,-0.08311332,-0.1834
 4201,-0.09227938,0.00252331,-0.01192654,0.01403558,-0.02876766,-0.0271
 4195,-0.00194007,0.00484125,0.00520983,-0.00008398,0.00179808,0.000590
 07,0.00034017,0.12549151,0.81590145,-0.06016932,-0.09696459,-0.1579273
 3,-0.00859460,0.05514781,-0.03337390,-0.01386759,0.00268511,0.00746713
 ,0.00249395,0.00140687,-0.00112179,0.00548774,0.00334196,0.00184705,0.
 18150530,-0.16184443,0.57354151,-0.00233012,-0.03132434,-0.00423989,-0
 .09240396,0.02077225,-0.11373180,0.00323044,-0.00117997,-0.00106053,-0
 .00065561,0.00002529,0.00113787,-0.00107917,0.00017714,0.00020009,-0.0
 7446305,-0.05433563,-0.00264943,0.28239471,-0.01869592,-0.04296056,-0.
 00498205,-0.00380569,-0.12772045,0.04947197,0.00611745,0.00136726,-0.0
 0146114,0.00036470,-0.00041820,-0.00036161,0.00035622,-0.00037616,-0.0
 0070529,-0.06260685,-0.50669519,0.13638977,0.16025117,0.88371713,-0.02
 035869,-0.03989546,0.00262779,-0.09835496,0.09008546,-0.26289850,0.007
 82518,-0.00089848,-0.00378323,-0.00110896,0.00010802,0.00143200,-0.001
 53700,0.00022046,-0.00006777,0.00431047,0.15538490,-0.13301953,0.19790
 815,-0.12701670,0.54908184,-0.02464645,-0.03287771,-0.01853005,0.00026
 703,-0.00027991,0.00106744,-0.05344236,-0.03134008,-0.02952466,0.00484
 653,0.01861734,0.01360822,0.00117553,0.00014454,-0.00083240,-0.0035023
 7,-0.00114256,0.00360026,-0.00095792,-0.00026658,-0.00213805,0.0766208
 1,-0.01053971,-0.00929169,-0.00553764,-0.00001409,-0.00009812,0.000523
 12,-0.03846056,-0.19997344,-0.12340008,-0.00249940,-0.02005288,-0.0154
 6713,0.00290472,0.00986754,0.00866770,-0.00058759,0.00120776,0.0022933
 6,-0.00021883,0.00005378,-0.00072868,0.04597023,0.21863640,0.00541327,
 0.00871314,0.00743558,0.00005864,-0.00009955,0.00004567,-0.03683219,-0
 .12769920,-0.15527390,0.00091494,0.00511364,0.00418305,-0.00558935,-0.
 02283987,-0.02262170,0.00173747,0.00145375,0.00059891,0.00003970,0.000
 14046,0.00028823,0.03383231,0.13116490,0.16682442,0.00144305,-0.001973
 85,-0.00046749,0.00007292,0.00042727,-0.00060000,0.00568945,0.01937680
 ,0.01437437,-0.05910375,-0.04645561,-0.03616361,0.00046385,-0.00083307
 ,0.00114517,-0.00102440,0.00043044,0.00004807,-0.00148839,-0.00079393,
 0.00033912,-0.00275818,0.00352001,-0.00079332,0.06265819,-0.00043730,0
 .00154807,0.00075625,0.00049026,-0.00012056,0.00004287,-0.00672982,-0.
 02328855,-0.01650938,-0.04462656,-0.20335012,-0.12264191,-0.00073324,0
 .00102361,-0.00125974,-0.00068962,-0.00020246,0.00005932,-0.00073795,0
 .00081208,-0.00014235,0.00377299,-0.00257365,0.00155267,0.04780708,0.2
 2390670,0.00081571,-0.00004544,0.00007889,-0.00061161,0.00040954,-0.00
 065172,0.00212446,0.00372966,0.00202012,-0.03556181,-0.12304822,-0.144
 46294,0.00065401,0.00088861,0.00123965,-0.00071555,-0.00080691,-0.0001
 8985,0.00019631,-0.00008438,0.00082558,-0.00077959,0.00104939,0.000853
 87,0.04013285,0.13535290,0.15295973,0.00227384,-0.00091327,0.00026753,
 0.00034474,-0.00022176,0.00044946,-0.00039874,0.00678736,-0.02284642,-
 0.04711960,-0.00464565,0.01300973,-0.00323503,0.00319757,0.00010020,-0
 .00039857,-0.00042707,-0.00004521,-0.00044827,0.00055347,-0.00090140,0
 .00061146,-0.00069814,0.00053776,-0.00053003,0.00274052,-0.00722566,0.
 04770631,-0.00186685,0.00139347,-0.00145820,0.00049640,-0.00058290,0.0
 0057535,-0.00253663,-0.00879086,0.02601828,-0.00285335,-0.07273432,0.0
 7859336,0.00412819,-0.00334164,-0.00055073,0.00021358,-0.00003645,0.00
 035783,-0.00028807,0.00058304,-0.00077420,-0.00087080,0.00060550,-0.00
 014615,0.00186143,0.00872609,-0.02411083,0.00114651,0.07834667,-0.0001
 8891,-0.00111450,0.00087610,0.00091015,0.00004437,0.00047821,0.0009613
 5,0.00086600,-0.00436515,0.01003169,0.07988822,-0.29611866,-0.00091107
 ,0.00106371,0.00113797,-0.00031054,-0.00012635,0.00014612,-0.00077792,
 0.00050462,-0.00097819,-0.00032264,0.00031361,0.00068554,0.00131614,0.
 00636884,-0.01685017,-0.01149014,-0.08840392,0.31848483,-0.00553764,0.
 00299405,-0.00094565,0.00011060,-0.00026894,0.00049106,-0.01711079,-0.
 01140570,0.00472949,-0.27737354,-0.07765553,0.05093347,0.00056929,-0.0
 0078065,0.00026018,0.00128332,0.00181432,0.00131687,0.00007618,0.00002
 192,-0.00046349,0.00062363,0.00028470,0.00038598,-0.00552533,-0.001335
 29,0.00110648,0.00040369,0.00033654,0.00004921,0.30198887,0.00760826,-
 0.00205155,0.00037391,-0.00057706,0.00014143,-0.00060113,0.02026732,0.
 01003060,-0.00522096,-0.07957068,-0.07406256,0.01871627,-0.00050516,0.
 00035416,0.00003941,-0.00089620,-0.00178389,-0.00075627,0.00030873,0.0
 0022079,0.00085243,-0.00098760,0.00067181,-0.00060933,-0.02259687,-0.0
 0708856,0.00679702,-0.00844828,-0.00401153,0.00052056,0.08533946,0.077
 54263,-0.00101277,-0.00019903,0.00114555,0.00037717,0.00020047,0.00018
 363,-0.00342689,-0.00234712,-0.00155439,0.05196515,0.01863551,-0.05825
 984,0.00013040,0.00006177,-0.00007003,-0.00039398,0.00002340,0.0003962
 6,-0.00022540,0.00039190,-0.00052499,0.00013857,-0.00007539,0.00006726
 ,-0.01907812,-0.00486986,0.00415551,0.02880828,0.00839781,-0.00385085,
 -0.05713970,-0.02041670,0.05836213,0.00029039,-0.00000220,-0.00053651,
 -0.00015559,0.00025605,-0.00044161,-0.00120929,0.00034717,0.00003927,-
 0.00018239,-0.00064870,-0.00027347,-0.05335815,-0.02975522,-0.02662280
 ,-0.00033584,-0.00001561,0.00069184,0.00000234,-0.00030482,0.00033356,
 0.00089164,0.00022699,-0.00003413,0.00021549,0.00022370,-0.00024800,-0
 .00005678,0.00012999,0.00017342,-0.00012998,-0.00010015,-0.00009029,0.
 05433121,0.00081868,0.00054433,-0.00130662,0.00023237,-0.00019251,0.00
 010163,0.00268837,0.00926146,0.00725405,-0.00003620,0.00154514,0.00034
 157,-0.02979057,-0.19956761,-0.12883526,-0.00176790,-0.00069364,-0.000
 76252,-0.00004451,0.00016794,0.00021329,0.00010640,0.00014264,0.002792
 06,-0.00032644,0.00003094,-0.00018513,-0.00004077,0.00013247,-0.000066
 53,0.00005569,-0.00000463,-0.00012300,0.03446546,0.21461468,0.00042466
 ,0.00084159,0.00211737,0.00029062,-0.00036843,0.00053127,-0.00756738,-
 0.02707195,-0.02271333,0.00084172,-0.00143147,0.00161195,-0.02631317,-
 0.12769613,-0.15537633,-0.00025477,-0.00062623,-0.00019680,-0.00013469
 ,0.00081351,-0.00020839,0.00029178,0.00324813,-0.00526606,-0.00038032,
 0.00105891,0.00016585,0.00028484,0.00017559,0.00040729,0.00000581,0.00
 008162,-0.00004582,0.02977803,0.14045871,0.17141722,0.00154487,-0.0001
 5807,-0.00007019,-0.00002896,0.00006470,-0.00009584,-0.00140132,-0.001
 57005,0.00104847,0.00058087,-0.00053205,-0.00039395,-0.18431775,0.1336
 0754,-0.02453894,0.00017061,-0.00013563,-0.00012769,0.00002966,-0.0000
 6067,0.00007373,-0.00008765,0.00000911,-0.00043202,-0.00004082,0.00008
 796,0.00008326,0.00026345,0.00027752,0.00013475,0.00039446,-0.00013404
 ,0.00010437,0.00444519,-0.00494830,0.00147508,0.19698591,-0.00046889,0
 .00103221,-0.00117718,-0.00013017,0.00018929,-0.00021767,0.00785256,-0
 .00868801,0.00088242,-0.00069507,0.00024549,0.00310038,0.13291889,-0.1
 7671213,0.02165424,0.00011045,-0.00052195,0.00038845,-0.00007339,-0.00
 004736,0.00000690,-0.00044624,0.00052839,0.00017359,-0.00016144,0.0005
 2377,-0.00011432,0.00077540,-0.00028819,0.00019855,0.00017796,0.000080
 27,-0.00018007,0.01717621,-0.01559752,0.00397975,-0.14667130,0.1888994
 2,-0.00023038,-0.00260758,0.00267077,0.00020310,-0.00009585,0.00024363
 ,-0.02521978,0.02354634,-0.00317110,0.00141767,0.00128233,-0.00641885,
 -0.02247033,0.02065628,-0.05118368,0.00058112,0.00062646,0.00048018,-0
 .00021686,0.00006977,-0.00036205,-0.00005652,-0.00071603,0.00115051,0.
 00011384,0.00018596,0.00001326,-0.00125868,0.00168522,-0.00019249,0.00
 007686,-0.00032505,0.00003730,0.01600628,-0.01317214,0.00270258,0.0266
 7864,-0.02594063,0.05440339,0.00138256,-0.00063898,0.00022776,0.000156
 34,-0.00024417,0.00034608,-0.00142910,0.00105603,-0.00103778,-0.000328
 27,0.00014842,-0.00015175,-0.26080778,-0.09979319,0.04967973,0.0003157
 7,0.00068611,0.00010201,-0.00008562,0.00015439,-0.00021754,0.00031910,
 0.00006293,0.00048737,-0.00001004,0.00008183,0.00004945,0.00026467,0.0
 0000132,0.00013015,0.00038452,0.00024151,-0.00033979,-0.00360285,-0.00
 095329,0.00048174,-0.01853947,-0.01021124,0.00441384,0.28177870,-0.000
 83425,-0.00019511,0.00199515,0.00022769,-0.00024050,0.00035795,-0.0091
 0354,-0.00561602,-0.00094023,-0.00014485,0.00006297,-0.00045017,-0.098
 99530,-0.09212956,0.02387454,0.00014824,0.00052955,0.00046990,-0.00016
 138,0.00028129,-0.00031128,0.00028692,0.00047575,-0.00005303,-0.000105
 65,-0.00001530,0.00009117,0.00020913,0.00014451,-0.00010089,0.00054413
 ,-0.00019401,0.00047276,-0.02151614,-0.00992760,0.00616971,0.02003508,
 0.01075795,-0.00541667,0.10918929,0.09617987,0.00363154,0.00471211,-0.
 00749846,-0.00004201,-0.00008397,-0.00010582,0.02841933,0.01136934,-0.
 00185853,-0.00018279,-0.00038392,0.00091324,0.04782847,0.02348068,-0.0
 5733100,-0.00212635,-0.00205294,-0.00198077,0.00031019,0.00048738,0.00
 058149,0.00002850,-0.00107854,0.00097599,-0.00006000,-0.00003148,-0.00
 004264,-0.00005879,-0.00038821,0.00001915,-0.00054664,0.00047101,-0.00
 014653,-0.01946019,-0.00762619,0.00464276,-0.00382020,-0.00257417,-0.0
 0023411,-0.05417498,-0.02620205,0.06146504,-0.00637735,-0.00275689,-0.
 01597240,0.00589551,-0.00246722,-0.00300634,0.00265200,0.00085491,-0.0
 0192357,-0.00031136,-0.00011082,0.00016876,-0.00004144,-0.00008311,0.0
 0032456,-0.07930163,0.02954567,-0.10365173,0.00225981,-0.00049439,0.00
 441847,-0.00021804,-0.00014211,0.00028980,-0.00005589,0.00017222,-0.00
 006960,0.00013000,-0.00004919,0.00011745,-0.00008324,0.00008464,0.0000
 5182,-0.00114221,-0.00039424,0.00076374,-0.00000833,-0.00019836,-0.000
 00301,0.00022313,0.00025963,0.00024215,0.07801658,-0.01529049,0.004209
 35,-0.02707995,-0.00376801,-0.00497876,0.00102368,0.00218714,0.0014043
 7,-0.00234031,-0.00045429,-0.00036576,0.00017096,-0.00061931,0.0005522
 2,0.00106526,0.02820083,-0.08109199,0.07786147,0.01397637,-0.00189383,
 0.02513403,-0.00027550,-0.00011040,0.00017823,-0.00001727,0.00000172,0
 .00008412,0.00004495,-0.00012216,-0.00002535,-0.00017761,0.00014778,0.
 00003515,-0.00044402,-0.00050526,0.00024923,0.00013072,-0.00040291,0.0
 0022494,0.00018447,-0.00015995,-0.00021014,-0.02479658,0.08410341,-0.0
 1371252,-0.00876492,-0.01597259,-0.00168464,0.00161299,0.00407291,0.00
 319878,0.00129357,-0.00194331,-0.00050085,-0.00039850,0.00018972,0.000
 13203,-0.00012742,-0.00035476,-0.10146593,0.08273951,-0.25966173,-0.00
 432270,-0.00019615,-0.00724239,-0.00036392,-0.00015282,0.00008057,-0.0
 0001528,0.00004240,0.00003714,0.00007948,-0.00010273,0.00000395,-0.000
 23459,0.00020018,0.00002759,0.00068558,0.00087357,0.00022618,-0.000143
 64,-0.00014096,-0.00016590,-0.00000015,0.00003193,0.00057916,0.1170999
 1,-0.07713929,0.28069410,0.00850886,-0.00401582,-0.00409392,-0.0039591
 3,-0.00489800,-0.01097620,0.00101582,0.00170458,0.00059419,-0.00015142
 ,0.00026981,-0.00002254,-0.00010711,-0.00002235,0.00008560,-0.00064613
 ,0.00034715,-0.00282371,-0.11303504,-0.10321345,-0.08414051,0.00028141
 ,0.00015744,-0.00002461,-0.00010784,-0.00004942,-0.00004461,0.00006613
 ,-0.00000741,0.00006930,-0.00003666,0.00000094,0.00002811,-0.00001269,
 -0.00010032,-0.00001507,0.00002261,0.00003487,-0.00000976,-0.00002291,
 -0.00004314,-0.00002754,-0.00309128,0.00090205,0.00223951,0.11102505,-
 0.00386445,-0.00273260,0.00454323,0.00903596,0.01053020,0.01236285,0.0
 0133518,-0.00126200,-0.00090480,0.00000988,-0.00000108,0.00009203,-0.0
 0026255,-0.00011467,-0.00002105,-0.01414316,-0.01096483,-0.01984471,-0
 .10271000,-0.19221185,-0.09972094,-0.00051096,-0.00014762,0.00015881,-
 0.00000616,0.00006129,-0.00000448,-0.00001002,-0.00001047,-0.00001259,
 -0.00004784,0.00002437,-0.00001641,0.00000928,0.00005020,0.00006135,0.
 00000943,0.00001090,-0.00002296,-0.00000853,0.00000190,0.00012843,0.00
 123099,-0.00057912,0.00002399,0.10925928,0.19417269,-0.00356038,0.0050
 1699,0.00232569,-0.01861732,-0.01252890,-0.02263570,-0.00102980,-0.000
 73067,-0.00006680,0.00006976,-0.00015680,-0.00018444,0.00014814,-0.000
 00903,-0.00007002,0.00582157,0.00583085,0.00884812,-0.08332940,-0.0979
 3136,-0.13160565,0.00001336,-0.00003637,-0.00002584,0.00006451,0.00000
 070,-0.00001985,0.00010844,0.00007694,0.00005457,0.00002219,-0.0000513
 5,0.00005300,0.00000132,0.00004436,0.00000238,-0.00000260,-0.00002671,
 0.00003126,0.00002509,0.00003184,-0.00001424,0.00189144,-0.00073343,-0
 .00074526,0.09892742,0.10360294,0.14309660,-0.00050806,-0.00061656,0.0
 0026338,-0.04988904,-0.15517969,0.01044972,0.00045306,0.00018932,-0.00
 007397,-0.00026659,0.00004431,-0.00024470,-0.00002856,-0.00000264,-0.0
 0000459,-0.00102336,0.00045962,-0.00331677,-0.00104599,0.02242299,-0.0
 0598808,-0.00002418,0.00002430,0.00000838,0.00010172,-0.00003735,0.000
 09391,0.00012272,-0.00011919,0.00010762,-0.00003739,-0.00003483,0.0001
 0307,0.00000952,0.00003555,0.00002738,-0.00001333,0.00000976,-0.000026
 03,0.00000126,0.00000413,0.00003932,0.00145375,0.00021656,-0.00099107,
 0.00025034,0.00067367,-0.00055373,0.05044414,0.00138474,0.00189293,0.0
 0112292,-0.12747259,-0.49398818,0.09092429,-0.00070337,-0.00034570,0.0
 0026020,0.00013739,0.00000002,-0.00011572,0.00009437,-0.00002441,-0.00
 005660,0.00008484,0.00106225,-0.00022933,-0.00443688,-0.01487971,-0.00
 251742,0.00009951,0.00005825,0.00000588,-0.00015272,0.00000494,-0.0000
 0271,-0.00004996,-0.00001322,0.00008164,0.00010279,-0.00001709,0.00000
 882,-0.00004798,-0.00000103,0.00005610,-0.00001194,-0.00000962,0.00001
 962,0.00004312,0.00004425,-0.00001736,-0.00065516,-0.00020870,0.000204
 66,-0.00032621,0.00317269,-0.00239998,0.13191005,0.50325232,0.00003231
 ,-0.00169567,0.00069545,-0.00701193,0.04396762,-0.03819450,0.00041122,
 0.00024875,-0.00021493,-0.00007694,0.00004953,0.00008219,-0.00010387,-
 0.00001019,0.00002041,-0.00387399,-0.00067432,-0.00585358,0.01089633,0
 .04446932,-0.01414623,-0.00003262,-0.00006754,-0.00000209,0.00002407,0
 .00003391,-0.00013241,0.00018059,0.00005457,0.00006178,-0.00004753,-0.
 00007162,0.00002423,-0.00000229,-0.00000183,-0.00001810,0.00002677,-0.
 00001256,-0.00000469,-0.00002123,-0.00002063,0.00003528,-0.00074143,0.
 00150139,0.00017465,0.00023437,-0.00042570,0.00095618,0.00010617,-0.08
 734503,0.05651635\\-0.00000045,0.00000007,-0.00000040,-0.00000007,0.00
 000009,-0.00000005,-0.00000045,0.00000032,-0.00000017,-0.00000017,0.00
 000076,0.00000072,-0.00000010,-0.00000014,-0.00000027,0.00000006,-0.00
 000080,-0.00000060,0.00000069,-0.00000088,0.00000037,-0.00000116,0.000
 00060,-0.00000031,0.00000044,0.00000044,0.00000081,-0.00000045,0.00000
 109,0.00000072,-0.00000021,0.00000111,0.00000097,0.00000048,-0.0000005
 3,-0.00000014,-0.00000040,-0.00000054,-0.00000089,-0.00000023,0.000000
 13,-0.00000004,0.00000042,-0.00000103,-0.00000090,0.00000107,-0.000000
 86,-0.00000015,0.00000054,0.00000018,0.00000033\\\@


 SCIENCE IS A VERY HUMAN FORM OF KNOWLEDGE.
 WE ARE ALWAYS AT THE BRINK OF THE KNOWN,
 WE ALWAYS FEEL FORWARD FOR WHAT IS HOPED.
 EVERY JUDGEMENT IN SCIENCE STANDS ON THE EDGE OF ERROR, AND IS PERSONAL.
 SCIENCE IS A TRIBUTE TO WHAT WE CAN KNOW ALTHOUGH WE ARE FALLIBLE.

                     -- J. BRONOWSKI
 Job cpu time:       0 days  3 hours 42 minutes 26.4 seconds.
 Elapsed time:       0 days  1 hours 51 minutes 15.8 seconds.
 File lengths (MBytes):  RWF=   1392 Int=      0 D2E=      0 Chk=     32 Scr=     32
 Normal termination of Gaussian 16 at Thu Sep 26 09:39:57 2019.
