 Entering Gaussian System, Link 0=g16
 Input=loose/species/CC(C)OC=CO/conformers/CC(C)OC=CO_58.com
 Output=loose/species/CC(C)OC=CO/conformers/CC(C)OC=CO_58.log
 Initial command:
 /shared/centos7/gaussian/g16/l1.exe "/scratch/harms.n/gauss_scrdir/Gau-48089.inp" -scrdir="/scratch/harms.n/gauss_scrdir/"
 Entering Link 1 = /shared/centos7/gaussian/g16/l1.exe PID=     48090.
  
 Copyright (c) 1988,1990,1992,1993,1995,1998,2003,2009,2016,
            Gaussian, Inc.  All Rights Reserved.
  
 This is part of the Gaussian(R) 16 program.  It is based on
 the Gaussian(R) 09 system (copyright 2009, Gaussian, Inc.),
 the Gaussian(R) 03 system (copyright 2003, Gaussian, Inc.),
 the Gaussian(R) 98 system (copyright 1998, Gaussian, Inc.),
 the Gaussian(R) 94 system (copyright 1995, Gaussian, Inc.),
 the Gaussian 92(TM) system (copyright 1992, Gaussian, Inc.),
 the Gaussian 90(TM) system (copyright 1990, Gaussian, Inc.),
 the Gaussian 88(TM) system (copyright 1988, Gaussian, Inc.),
 the Gaussian 86(TM) system (copyright 1986, Carnegie Mellon
 University), and the Gaussian 82(TM) system (copyright 1983,
 Carnegie Mellon University). Gaussian is a federally registered
 trademark of Gaussian, Inc.
  
 This software contains proprietary and confidential information,
 including trade secrets, belonging to Gaussian, Inc.
  
 This software is provided under written license and may be
 used, copied, transmitted, or stored only in accord with that
 written license.
  
 The following legend is applicable only to US Government
 contracts under FAR:
  
                    RESTRICTED RIGHTS LEGEND
  
 Use, reproduction and disclosure by the US Government is
 subject to restrictions as set forth in subparagraphs (a)
 and (c) of the Commercial Computer Software - Restricted
 Rights clause in FAR 52.227-19.
  
 Gaussian, Inc.
 340 Quinnipiac St., Bldg. 40, Wallingford CT 06492
  
  
 ---------------------------------------------------------------
 Warning -- This program may not be used in any manner that
 competes with the business of Gaussian, Inc. or will provide
 assistance to any competitor of Gaussian, Inc.  The licensee
 of this program is prohibited from giving any competitor of
 Gaussian, Inc. access to this program.  By using this program,
 the user acknowledges that Gaussian, Inc. is engaged in the
 business of creating and licensing software in the field of
 computational chemistry and represents and warrants to the
 licensee that it is not a competitor of Gaussian, Inc. and that
 it will not use this program in any manner prohibited above.
 ---------------------------------------------------------------
  

 Cite this work as:
 Gaussian 16, Revision A.03,
 M. J. Frisch, G. W. Trucks, H. B. Schlegel, G. E. Scuseria, 
 M. A. Robb, J. R. Cheeseman, G. Scalmani, V. Barone, 
 G. A. Petersson, H. Nakatsuji, X. Li, M. Caricato, A. V. Marenich, 
 J. Bloino, B. G. Janesko, R. Gomperts, B. Mennucci, H. P. Hratchian, 
 J. V. Ortiz, A. F. Izmaylov, J. L. Sonnenberg, D. Williams-Young, 
 F. Ding, F. Lipparini, F. Egidi, J. Goings, B. Peng, A. Petrone, 
 T. Henderson, D. Ranasinghe, V. G. Zakrzewski, J. Gao, N. Rega, 
 G. Zheng, W. Liang, M. Hada, M. Ehara, K. Toyota, R. Fukuda, 
 J. Hasegawa, M. Ishida, T. Nakajima, Y. Honda, O. Kitao, H. Nakai, 
 T. Vreven, K. Throssell, J. A. Montgomery, Jr., J. E. Peralta, 
 F. Ogliaro, M. J. Bearpark, J. J. Heyd, E. N. Brothers, K. N. Kudin, 
 V. N. Staroverov, T. A. Keith, R. Kobayashi, J. Normand, 
 K. Raghavachari, A. P. Rendell, J. C. Burant, S. S. Iyengar, 
 J. Tomasi, M. Cossi, J. M. Millam, M. Klene, C. Adamo, R. Cammi, 
 J. W. Ochterski, R. L. Martin, K. Morokuma, O. Farkas, 
 J. B. Foresman, and D. J. Fox, Gaussian, Inc., Wallingford CT, 2016.
 
 ******************************************
 Gaussian 16:  EM64L-G16RevA.03 25-Dec-2016
                28-Sep-2019 
 ******************************************
 %nprocshared=20
 Will use up to   20 processors via shared memory.
 %mem=5GB
 ----------------------------------------------------------------------
 #p m062x/cc-pVTZ opt=(calcfc,maxcycles=900,Tight) freq IOP(7/33=1,2/16
 =3) scf=(maxcycle=900)
 ----------------------------------------------------------------------
 1/6=900,7=10,10=4,18=20,19=15,26=3,38=1/1,3;
 2/9=110,12=2,16=3,17=6,18=5,40=1/2;
 3/5=16,6=1,11=2,25=1,30=1,71=2,74=-55,140=1/1,2,3;
 4//1;
 5/5=2,7=900,38=5/2;
 8/6=4,10=90,11=11/1;
 11/6=1,8=1,9=11,15=111,16=1/1,2,10;
 10/6=1,13=1/2;
 6/7=2,8=2,9=2,10=2,28=1/1;
 7/10=1,18=20,25=1,33=1/1,2,3,16;
 1/6=900,7=10,10=4,18=20,19=15,26=3/3(2);
 2/9=110,16=3/2;
 99//99;
 2/9=110,16=3/2;
 3/5=16,6=1,11=2,25=1,30=1,71=1,74=-55/1,2,3;
 4/5=5,16=3,69=1/1;
 5/5=2,7=900,38=5/2;
 7/33=1/1,2,3,16;
 1/6=900,7=10,18=20,19=15,26=3/3(-5);
 2/9=110,16=3/2;
 6/7=2,8=2,9=2,10=2,19=2,28=1/1;
 99/9=1/99;
 Leave Link    1 at Sat Sep 28 20:13:06 2019, MaxMem=   671088640 cpu:               4.3 elap:               2.2
 (Enter /shared/centos7/gaussian/g16/l101.exe)
 ------------------------------
 Gaussian input prepared by ASE
 ------------------------------
 Symbolic Z-matrix:
 Charge =  0 Multiplicity = 1
 O                     4.23471   0.7167    2.06824 
 O                     1.88834  -0.28122   3.56177 
 C                     4.7885    0.18832   3.25483 
 C                     4.47853   1.0944    4.44645 
 C                     6.24436  -0.05031   3.0233 
 C                     3.13707   0.06732   1.55114 
 C                     2.08879  -0.36247   2.1918 
 H                     4.31497  -0.80777   3.47827 
 H                     4.04445   2.06053   4.11423 
 H                     3.75814   0.62517   5.14096 
 H                     5.40365   1.34023   5.03497 
 H                     6.89513   0.73882   3.50336 
 H                     6.4712   -0.03487   1.93685 
 H                     6.56758  -1.05181   3.42591 
 H                     3.18899   0.00658   0.45235 
 H                     1.26895  -0.8551    1.6902 
 H                     2.65116   0.24609   3.93838 
 
 ITRead=  0  0  0  0  0  0  0  0  0  0  0  0  0  0  0  0  0
 MicOpt= -1 -1 -1 -1 -1 -1 -1 -1 -1 -1 -1 -1 -1 -1 -1 -1 -1
 NAtoms=     17 NQM=       17 NQMF=       0 NMMI=      0 NMMIF=      0
                NMic=       0 NMicF=      0.
                    Isotopes and Nuclear Properties:
 (Nuclear quadrupole moments (NQMom) in fm**2, nuclear magnetic moments (NMagM)
  in nuclear magnetons)

  Atom         1           2           3           4           5           6           7           8           9          10
 IAtWgt=          16          16          12          12          12          12          12           1           1           1
 AtmWgt=  15.9949146  15.9949146  12.0000000  12.0000000  12.0000000  12.0000000  12.0000000   1.0078250   1.0078250   1.0078250
 NucSpn=           0           0           0           0           0           0           0           1           1           1
 AtZEff=  -0.0000000  -0.0000000  -0.0000000  -0.0000000  -0.0000000  -0.0000000  -0.0000000  -0.0000000  -0.0000000  -0.0000000
 NQMom=    0.0000000   0.0000000   0.0000000   0.0000000   0.0000000   0.0000000   0.0000000   0.0000000   0.0000000   0.0000000
 NMagM=    0.0000000   0.0000000   0.0000000   0.0000000   0.0000000   0.0000000   0.0000000   2.7928460   2.7928460   2.7928460
 AtZNuc=   8.0000000   8.0000000   6.0000000   6.0000000   6.0000000   6.0000000   6.0000000   1.0000000   1.0000000   1.0000000

  Atom        11          12          13          14          15          16          17
 IAtWgt=           1           1           1           1           1           1           1
 AtmWgt=   1.0078250   1.0078250   1.0078250   1.0078250   1.0078250   1.0078250   1.0078250
 NucSpn=           1           1           1           1           1           1           1
 AtZEff=  -0.0000000  -0.0000000  -0.0000000  -0.0000000  -0.0000000  -0.0000000  -0.0000000
 NQMom=    0.0000000   0.0000000   0.0000000   0.0000000   0.0000000   0.0000000   0.0000000
 NMagM=    2.7928460   2.7928460   2.7928460   2.7928460   2.7928460   2.7928460   2.7928460
 AtZNuc=   1.0000000   1.0000000   1.0000000   1.0000000   1.0000000   1.0000000   1.0000000
 Leave Link  101 at Sat Sep 28 20:13:07 2019, MaxMem=   671088640 cpu:               2.6 elap:               1.3
 (Enter /shared/centos7/gaussian/g16/l103.exe)

 GradGradGradGradGradGradGradGradGradGradGradGradGradGradGradGradGradGrad
 Berny optimization.
 Initialization pass.
                           ----------------------------
                           !    Initial Parameters    !
                           ! (Angstroms and Degrees)  !
 --------------------------                            --------------------------
 ! Name  Definition              Value          Derivative Info.                !
 --------------------------------------------------------------------------------
 ! R1    R(1,3)                  1.412          calculate D2E/DX2 analytically  !
 ! R2    R(1,6)                  1.3762         calculate D2E/DX2 analytically  !
 ! R3    R(2,7)                  1.3869         calculate D2E/DX2 analytically  !
 ! R4    R(2,17)                 1.0009         calculate D2E/DX2 analytically  !
 ! R5    R(3,4)                  1.5287         calculate D2E/DX2 analytically  !
 ! R6    R(3,5)                  1.4933         calculate D2E/DX2 analytically  !
 ! R7    R(3,8)                  1.1253         calculate D2E/DX2 analytically  !
 ! R8    R(4,9)                  1.1101         calculate D2E/DX2 analytically  !
 ! R9    R(4,10)                 1.1052         calculate D2E/DX2 analytically  !
 ! R10   R(4,11)                 1.1237         calculate D2E/DX2 analytically  !
 ! R11   R(5,12)                 1.1299         calculate D2E/DX2 analytically  !
 ! R12   R(5,13)                 1.11           calculate D2E/DX2 analytically  !
 ! R13   R(5,14)                 1.1267         calculate D2E/DX2 analytically  !
 ! R14   R(6,7)                  1.3016         calculate D2E/DX2 analytically  !
 ! R15   R(6,15)                 1.1017         calculate D2E/DX2 analytically  !
 ! R16   R(7,16)                 1.08           calculate D2E/DX2 analytically  !
 ! A1    A(3,1,6)              116.8715         calculate D2E/DX2 analytically  !
 ! A2    A(7,2,17)             107.0005         calculate D2E/DX2 analytically  !
 ! A3    A(1,3,4)              110.7152         calculate D2E/DX2 analytically  !
 ! A4    A(1,3,5)              108.1713         calculate D2E/DX2 analytically  !
 ! A5    A(1,3,8)              109.4534         calculate D2E/DX2 analytically  !
 ! A6    A(4,3,5)              114.4081         calculate D2E/DX2 analytically  !
 ! A7    A(4,3,8)              106.5313         calculate D2E/DX2 analytically  !
 ! A8    A(5,3,8)              107.4321         calculate D2E/DX2 analytically  !
 ! A9    A(3,4,9)              111.2147         calculate D2E/DX2 analytically  !
 ! A10   A(3,4,10)             111.7375         calculate D2E/DX2 analytically  !
 ! A11   A(3,4,11)             111.7768         calculate D2E/DX2 analytically  !
 ! A12   A(9,4,10)             107.6191         calculate D2E/DX2 analytically  !
 ! A13   A(9,4,11)             106.7553         calculate D2E/DX2 analytically  !
 ! A14   A(10,4,11)            107.4817         calculate D2E/DX2 analytically  !
 ! A15   A(3,5,12)             112.5829         calculate D2E/DX2 analytically  !
 ! A16   A(3,5,13)             110.4117         calculate D2E/DX2 analytically  !
 ! A17   A(3,5,14)             111.4877         calculate D2E/DX2 analytically  !
 ! A18   A(12,5,13)            106.7645         calculate D2E/DX2 analytically  !
 ! A19   A(12,5,14)            107.6825         calculate D2E/DX2 analytically  !
 ! A20   A(13,5,14)            107.6663         calculate D2E/DX2 analytically  !
 ! A21   A(1,6,7)              127.8249         calculate D2E/DX2 analytically  !
 ! A22   A(1,6,15)             111.2952         calculate D2E/DX2 analytically  !
 ! A23   A(7,6,15)             120.7097         calculate D2E/DX2 analytically  !
 ! A24   A(2,7,6)              125.6804         calculate D2E/DX2 analytically  !
 ! A25   A(2,7,16)             112.0719         calculate D2E/DX2 analytically  !
 ! A26   A(6,7,16)             122.2349         calculate D2E/DX2 analytically  !
 ! D1    D(6,1,3,4)           -107.5049         calculate D2E/DX2 analytically  !
 ! D2    D(6,1,3,5)            126.4012         calculate D2E/DX2 analytically  !
 ! D3    D(6,1,3,8)              9.637          calculate D2E/DX2 analytically  !
 ! D4    D(3,1,6,7)             44.9675         calculate D2E/DX2 analytically  !
 ! D5    D(3,1,6,15)          -139.8057         calculate D2E/DX2 analytically  !
 ! D6    D(17,2,7,6)             5.5678         calculate D2E/DX2 analytically  !
 ! D7    D(17,2,7,16)         -175.7155         calculate D2E/DX2 analytically  !
 ! D8    D(1,3,4,9)            -10.066          calculate D2E/DX2 analytically  !
 ! D9    D(1,3,4,10)           110.2198         calculate D2E/DX2 analytically  !
 ! D10   D(1,3,4,11)          -129.2804         calculate D2E/DX2 analytically  !
 ! D11   D(5,3,4,9)            112.4645         calculate D2E/DX2 analytically  !
 ! D12   D(5,3,4,10)          -127.2497         calculate D2E/DX2 analytically  !
 ! D13   D(5,3,4,11)            -6.75           calculate D2E/DX2 analytically  !
 ! D14   D(8,3,4,9)           -128.9904         calculate D2E/DX2 analytically  !
 ! D15   D(8,3,4,10)            -8.7046         calculate D2E/DX2 analytically  !
 ! D16   D(8,3,4,11)           111.7951         calculate D2E/DX2 analytically  !
 ! D17   D(1,3,5,12)           103.2997         calculate D2E/DX2 analytically  !
 ! D18   D(1,3,5,13)           -15.9156         calculate D2E/DX2 analytically  !
 ! D19   D(1,3,5,14)          -135.5513         calculate D2E/DX2 analytically  !
 ! D20   D(4,3,5,12)           -20.6024         calculate D2E/DX2 analytically  !
 ! D21   D(4,3,5,13)          -139.8177         calculate D2E/DX2 analytically  !
 ! D22   D(4,3,5,14)           100.5466         calculate D2E/DX2 analytically  !
 ! D23   D(8,3,5,12)          -138.6364         calculate D2E/DX2 analytically  !
 ! D24   D(8,3,5,13)           102.1483         calculate D2E/DX2 analytically  !
 ! D25   D(8,3,5,14)           -17.4874         calculate D2E/DX2 analytically  !
 ! D26   D(1,6,7,2)             -2.0554         calculate D2E/DX2 analytically  !
 ! D27   D(1,6,7,16)           179.3505         calculate D2E/DX2 analytically  !
 ! D28   D(15,6,7,2)          -176.8816         calculate D2E/DX2 analytically  !
 ! D29   D(15,6,7,16)            4.5243         calculate D2E/DX2 analytically  !
 --------------------------------------------------------------------------------
 Trust Radius=3.00D-01 FncErr=1.00D-07 GrdErr=1.00D-06 EigMax=2.50D+02 EigMin=1.00D-04
 Number of steps in this run=    102 maximum allowed number of steps=    102.
 GradGradGradGradGradGradGradGradGradGradGradGradGradGradGradGradGradGrad

 Leave Link  103 at Sat Sep 28 20:13:08 2019, MaxMem=   671088640 cpu:               1.4 elap:               0.7
 (Enter /shared/centos7/gaussian/g16/l202.exe)
                          Input orientation:                          
 ---------------------------------------------------------------------
 Center     Atomic      Atomic             Coordinates (Angstroms)
 Number     Number       Type             X           Y           Z
 ---------------------------------------------------------------------
      1          8           0        4.234706    0.716699    2.068236
      2          8           0        1.888337   -0.281220    3.561769
      3          6           0        4.788501    0.188320    3.254829
      4          6           0        4.478535    1.094397    4.446449
      5          6           0        6.244358   -0.050311    3.023303
      6          6           0        3.137066    0.067318    1.551142
      7          6           0        2.088789   -0.362472    2.191803
      8          1           0        4.314967   -0.807765    3.478269
      9          1           0        4.044451    2.060532    4.114235
     10          1           0        3.758140    0.625173    5.140960
     11          1           0        5.403650    1.340230    5.034971
     12          1           0        6.895127    0.738823    3.503360
     13          1           0        6.471200   -0.034875    1.936851
     14          1           0        6.567583   -1.051809    3.425905
     15          1           0        3.188994    0.006584    0.452346
     16          1           0        1.268950   -0.855099    1.690200
     17          1           0        2.651159    0.246087    3.938375
 ---------------------------------------------------------------------
                    Distance matrix (angstroms):
                    1          2          3          4          5
     1  O    0.000000
     2  O    2.954984   0.000000
     3  C    1.412047   2.953918   0.000000
     4  C    2.420332   3.063349   1.528729   0.000000
     5  C    2.353542   4.395246   1.493342   2.540440   0.000000
     6  C    1.376189   2.392368   2.375801   3.352199   3.440401
     7  C    2.405169   1.386935   2.953276   3.593992   4.249423
     8  H    2.078131   2.484503   1.125320   2.140642   2.122094
     9  H    2.455238   3.230766   2.190289   1.110050   3.238114
    10  H    3.110808   2.609896   2.193165   1.105209   3.334971
    11  H    3.249114   4.142083   2.207761   1.123668   2.585962
    12  H    3.022897   5.109975   2.191505   2.618352   1.129905
    13  H    2.363056   4.868643   2.149037   3.397654   1.109989
    14  H    3.226950   4.744219   2.175390   3.164148   1.126748
    15  H    2.051554   3.382758   3.231928   4.335794   3.993533
    16  H    3.377746   2.053228   3.990492   4.658205   5.213399
    17  H    2.495299   1.000891   2.244728   2.077757   3.719716
                    6          7          8          9         10
     6  C    0.000000
     7  C    1.301558   0.000000
     8  H    2.422197   2.609435   0.000000
     9  H    3.371304   3.659413   2.950383   0.000000
    10  H    3.685612   3.529830   2.264489   1.787846   0.000000
    11  H    4.346812   4.687334   2.867479   1.792767   1.797288
    12  H    4.287784   5.102344   3.008287   3.201005   3.540528
    13  H    3.357926   4.402028   2.760919   3.875673   4.250021
    14  H    4.066402   4.696572   2.266402   4.065300   3.694138
    15  H    1.101697   2.091020   3.329743   4.284849   4.763369
    16  H    2.088073   1.080011   3.532372   4.698962   4.504999
    17  H    2.442734   1.933162   2.022513   2.294428   1.677893
                   11         12         13         14         15
    11  H    0.000000
    12  H    2.220816   0.000000
    13  H    3.553720   1.797852   0.000000
    14  H    3.108968   1.821990   1.805749   0.000000
    15  H    5.261536   4.855953   3.602548   4.623539   0.000000
    16  H    5.753495   6.122254   5.272287   5.579147   2.441587
    17  H    3.158462   4.294565   4.321777   4.157588   3.535396
                   16         17
    16  H    0.000000
    17  H    2.859616   0.000000
 Stoichiometry    C5H10O2
 Framework group  C1[X(C5H10O2)]
 Deg. of freedom    45
 Full point group                 C1      NOp   1
 Largest Abelian subgroup         C1      NOp   1
 Largest concise Abelian subgroup C1      NOp   1
                         Standard orientation:                         
 ---------------------------------------------------------------------
 Center     Atomic      Atomic             Coordinates (Angstroms)
 Number     Number       Type             X           Y           Z
 ---------------------------------------------------------------------
      1          8           0        0.202187   -0.818165   -0.654361
      2          8           0       -1.845421    1.041930    0.384523
      3          6           0        0.930640    0.052186    0.185712
      4          6           0        1.073861    1.431225   -0.458301
      5          6           0        2.226368   -0.606776    0.527656
      6          6           0       -1.080403   -1.129821   -0.264838
      7          6           0       -1.998967   -0.320888    0.177791
      8          1           0        0.366030    0.204838    1.147096
      9          1           0        0.739617    1.416935   -1.516738
     10          1           0        0.475157    2.194480    0.071304
     11          1           0        2.141553    1.781451   -0.460462
     12          1           0        3.096160   -0.182410   -0.055492
     13          1           0        2.182791   -1.691016    0.293990
     14          1           0        2.465789   -0.502558    1.623730
     15          1           0       -1.306856   -2.192471   -0.447127
     16          1           0       -2.986141   -0.663999    0.450159
     17          1           0       -0.937218    1.289062    0.044117
 ---------------------------------------------------------------------
 Rotational constants (GHZ):           4.3027730           1.9300535           1.5214234
 Leave Link  202 at Sat Sep 28 20:13:09 2019, MaxMem=   671088640 cpu:               3.5 elap:               1.7
 (Enter /shared/centos7/gaussian/g16/l301.exe)
 Standard basis: CC-pVTZ (5D, 7F)
 Ernie: Thresh=  0.10000D-02 Tol=  0.10000D-05 Strict=F.
 Ernie:  21 primitive shells out of 262 were deleted.
 There are   395 symmetry adapted cartesian basis functions of A   symmetry.
 There are   350 symmetry adapted basis functions of A   symmetry.
   350 basis functions,   534 primitive gaussians,   395 cartesian basis functions
    28 alpha electrons       28 beta electrons
       nuclear repulsion energy       323.8705856685 Hartrees.
 IExCor= 4336 DFT=T Ex+Corr=M062X ExCW=0 ScaHFX=  0.540000
 ScaDFX=  1.000000  1.000000  1.000000  1.000000 ScalE2=  1.000000  1.000000
 IRadAn=      5 IRanWt=     -1 IRanGd=            0 ICorTp=0 IEmpDi=  4
 NAtoms=   17 NActive=   17 NUniq=   17 SFac= 1.00D+00 NAtFMM=   60 NAOKFM=F Big=F
 Integral buffers will be    131072 words long.
 Raffenetti 2 integral format.
 Two-electron integral symmetry is turned on.
 Leave Link  301 at Sat Sep 28 20:13:10 2019, MaxMem=   671088640 cpu:               1.6 elap:               0.8
 (Enter /shared/centos7/gaussian/g16/l302.exe)
 NPDir=0 NMtPBC=     1 NCelOv=     1 NCel=       1 NClECP=     1 NCelD=      1
         NCelK=      1 NCelE2=     1 NClLst=     1 CellRange=     0.0.
 One-electron integrals computed using PRISM.
 One-electron integral symmetry used in STVInt
 NBasis=   350 RedAO= T EigKep=  3.12D-04  NBF=   350
 NBsUse=   350 1.00D-06 EigRej= -1.00D+00 NBFU=   350
 Precomputing XC quadrature grid using
 IXCGrd= 4 IRadAn=           5 IRanWt=          -1 IRanGd=           0 AccXCQ= 0.00D+00.
 Generated NRdTot=       0 NPtTot=           0 NUsed=           0 NTot=          32
 NSgBfM=   395   395   395   395   395 MxSgAt=    17 MxSgA2=    17.
 Leave Link  302 at Sat Sep 28 20:14:08 2019, MaxMem=   671088640 cpu:             114.8 elap:              57.4
 (Enter /shared/centos7/gaussian/g16/l303.exe)
 DipDrv:  MaxL=1.
 Leave Link  303 at Sat Sep 28 20:14:13 2019, MaxMem=   671088640 cpu:              10.3 elap:               5.1
 (Enter /shared/centos7/gaussian/g16/l401.exe)
 ExpMin= 1.03D-01 ExpMax= 1.53D+04 ExpMxC= 5.22D+02 IAcc=3 IRadAn=         5 AccDes= 0.00D+00
 Harris functional with IExCor= 1009 and IRadAn=       5 diagonalized for initial guess.
 HarFok:  IExCor= 1009 AccDes= 0.00D+00 IRadAn=         5 IDoV= 1 UseB2=F ITyADJ=14
 ICtDFT=  3500011 ScaDFX=  1.000000  1.000000  1.000000  1.000000
 FoFCou: FMM=F IPFlag=           0 FMFlag=      100000 FMFlg1=           0
         NFxFlg=           0 DoJE=T BraDBF=F KetDBF=T FulRan=T
         wScrn=  0.000000 ICntrl=       500 IOpCl=  0 I1Cent=   200000004 NGrid=           0
         NMat0=    1 NMatS0=      1 NMatT0=    0 NMatD0=    1 NMtDS0=    0 NMtDT0=    0
 Petite list used in FoFCou.
 Harris En= -346.794286598448    
 JPrj=0 DoOrth=F DoCkMO=F.
 Leave Link  401 at Sat Sep 28 20:14:43 2019, MaxMem=   671088640 cpu:              60.5 elap:              30.3
 (Enter /shared/centos7/gaussian/g16/l502.exe)
 Integral symmetry usage will be decided dynamically.
 Closed shell SCF:
 Using DIIS extrapolation, IDIIS=  1040.
 NGot=   671088640 LenX=   670765141 LenY=   670608675
 Requested convergence on RMS density matrix=1.00D-08 within 900 cycles.
 Requested convergence on MAX density matrix=1.00D-06.
 Requested convergence on             energy=1.00D-06.
 No special actions if energy rises.
 Fock matrices will be formed incrementally for  20 cycles.
 Integral accuracy reduced to 1.0D-05 until final iterations.

 Cycle   1  Pass 0  IDiag  1:
 FoFJK:  IHMeth= 1 ICntrl=       0 DoSepK=F KAlg= 0 I1Cent=           0 FoldK=F
 IRaf= 970000000 NMat=       1 IRICut=       1 DoRegI=T DoRafI=F ISym2E= 0 IDoP0=0 IntGTp=1.
 FoFCou: FMM=F IPFlag=           0 FMFlag=      100000 FMFlg1=           0
         NFxFlg=           0 DoJE=F BraDBF=F KetDBF=F FulRan=T
         wScrn=  0.000000 ICntrl=         0 IOpCl=  0 I1Cent=           0 NGrid=           0
         NMat0=    1 NMatS0=      1 NMatT0=    0 NMatD0=    1 NMtDS0=    0 NMtDT0=    0
 Symmetry not used in FoFCou.
 E= -346.702378838013    
 DIIS: error= 2.46D-02 at cycle   1 NSaved=   1.
 NSaved= 1 IEnMin= 1 EnMin= -346.702378838013     IErMin= 1 ErrMin= 2.46D-02
 ErrMax= 2.46D-02  0.00D+00 EMaxC= 1.00D-01 BMatC= 2.76D-01 BMatP= 2.76D-01
 IDIUse=3 WtCom= 7.54D-01 WtEn= 2.46D-01
 Coeff-Com:  0.100D+01
 Coeff-En:   0.100D+01
 Coeff:      0.100D+01
 Gap=     0.360 Goal=   None    Shift=    0.000
 GapD=    0.360 DampG=1.000 DampE=0.500 DampFc=0.5000 IDamp=-1.
 Damping current iteration by 5.00D-01
 RMSDP=1.87D-03 MaxDP=8.27D-02              OVMax= 1.33D-01

 Cycle   2  Pass 0  IDiag  1:
 RMSU=  9.34D-04    CP:  9.99D-01
 E= -346.816707630936     Delta-E=       -0.114328792923 Rises=F Damp=T
 DIIS: error= 3.37D-03 at cycle   2 NSaved=   2.
 NSaved= 2 IEnMin= 2 EnMin= -346.816707630936     IErMin= 2 ErrMin= 3.37D-03
 ErrMax= 3.37D-03  0.00D+00 EMaxC= 1.00D-01 BMatC= 2.11D-02 BMatP= 2.76D-01
 IDIUse=3 WtCom= 9.66D-01 WtEn= 3.37D-02
 Coeff-Com: -0.154D+00 0.115D+01
 Coeff-En:   0.000D+00 0.100D+01
 Coeff:     -0.149D+00 0.115D+01
 Gap=     0.339 Goal=   None    Shift=    0.000
 RMSDP=4.31D-04 MaxDP=1.64D-02 DE=-1.14D-01 OVMax= 7.29D-02

 Cycle   3  Pass 0  IDiag  1:
 RMSU=  4.29D-04    CP:  1.00D+00  1.03D+00
 E= -346.917411161486     Delta-E=       -0.100703530550 Rises=F Damp=F
 DIIS: error= 2.28D-03 at cycle   3 NSaved=   3.
 NSaved= 3 IEnMin= 3 EnMin= -346.917411161486     IErMin= 3 ErrMin= 2.28D-03
 ErrMax= 2.28D-03  0.00D+00 EMaxC= 1.00D-01 BMatC= 3.12D-03 BMatP= 2.11D-02
 IDIUse=3 WtCom= 9.77D-01 WtEn= 2.28D-02
 Coeff-Com: -0.853D-01 0.303D+00 0.782D+00
 Coeff-En:   0.000D+00 0.000D+00 0.100D+01
 Coeff:     -0.833D-01 0.296D+00 0.787D+00
 Gap=     0.339 Goal=   None    Shift=    0.000
 RMSDP=1.39D-04 MaxDP=5.39D-03 DE=-1.01D-01 OVMax= 1.28D-02

 Cycle   4  Pass 0  IDiag  1:
 RMSU=  1.06D-04    CP:  1.00D+00  1.12D+00  8.91D-01
 E= -346.919081811223     Delta-E=       -0.001670649738 Rises=F Damp=F
 DIIS: error= 1.58D-03 at cycle   4 NSaved=   4.
 NSaved= 4 IEnMin= 4 EnMin= -346.919081811223     IErMin= 4 ErrMin= 1.58D-03
 ErrMax= 1.58D-03  0.00D+00 EMaxC= 1.00D-01 BMatC= 9.43D-04 BMatP= 3.12D-03
 IDIUse=3 WtCom= 9.84D-01 WtEn= 1.58D-02
 Coeff-Com: -0.285D-01 0.740D-01 0.400D+00 0.555D+00
 Coeff-En:   0.000D+00 0.000D+00 0.191D+00 0.809D+00
 Coeff:     -0.281D-01 0.728D-01 0.396D+00 0.559D+00
 Gap=     0.335 Goal=   None    Shift=    0.000
 RMSDP=5.32D-05 MaxDP=2.08D-03 DE=-1.67D-03 OVMax= 6.55D-03

 Cycle   5  Pass 0  IDiag  1:
 RMSU=  2.75D-05    CP:  1.00D+00  1.11D+00  9.34D-01  6.18D-01
 E= -346.919778467653     Delta-E=       -0.000696656430 Rises=F Damp=F
 DIIS: error= 1.91D-04 at cycle   5 NSaved=   5.
 NSaved= 5 IEnMin= 5 EnMin= -346.919778467653     IErMin= 5 ErrMin= 1.91D-04
 ErrMax= 1.91D-04  0.00D+00 EMaxC= 1.00D-01 BMatC= 2.80D-05 BMatP= 9.43D-04
 IDIUse=3 WtCom= 9.98D-01 WtEn= 1.91D-03
 Coeff-Com: -0.532D-02 0.105D-01 0.106D+00 0.220D+00 0.669D+00
 Coeff-En:   0.000D+00 0.000D+00 0.000D+00 0.000D+00 0.100D+01
 Coeff:     -0.531D-02 0.105D-01 0.106D+00 0.219D+00 0.670D+00
 Gap=     0.335 Goal=   None    Shift=    0.000
 RMSDP=1.18D-05 MaxDP=3.25D-04 DE=-6.97D-04 OVMax= 1.45D-03

 Cycle   6  Pass 0  IDiag  1:
 RMSU=  8.57D-06    CP:  1.00D+00  1.10D+00  9.42D-01  6.57D-01  7.90D-01
 E= -346.919798801472     Delta-E=       -0.000020333819 Rises=F Damp=F
 DIIS: error= 5.04D-05 at cycle   6 NSaved=   6.
 NSaved= 6 IEnMin= 6 EnMin= -346.919798801472     IErMin= 6 ErrMin= 5.04D-05
 ErrMax= 5.04D-05  0.00D+00 EMaxC= 1.00D-01 BMatC= 1.97D-06 BMatP= 2.80D-05
 IDIUse=1 WtCom= 1.00D+00 WtEn= 0.00D+00
 Coeff-Com: -0.148D-03-0.842D-03 0.171D-01 0.578D-01 0.259D+00 0.667D+00
 Coeff:     -0.148D-03-0.842D-03 0.171D-01 0.578D-01 0.259D+00 0.667D+00
 Gap=     0.335 Goal=   None    Shift=    0.000
 RMSDP=3.63D-06 MaxDP=1.26D-04 DE=-2.03D-05 OVMax= 5.08D-04

 Initial convergence to 1.0D-05 achieved.  Increase integral accuracy.
 Cycle   7  Pass 1  IDiag  1:
 E= -346.919764325347     Delta-E=        0.000034476125 Rises=F Damp=F
 DIIS: error= 5.21D-05 at cycle   1 NSaved=   1.
 NSaved= 1 IEnMin= 1 EnMin= -346.919764325347     IErMin= 1 ErrMin= 5.21D-05
 ErrMax= 5.21D-05  0.00D+00 EMaxC= 1.00D-01 BMatC= 7.81D-07 BMatP= 7.81D-07
 IDIUse=1 WtCom= 1.00D+00 WtEn= 0.00D+00
 Coeff-Com:  0.100D+01
 Coeff:      0.100D+01
 Gap=     0.335 Goal=   None    Shift=    0.000
 RMSDP=3.63D-06 MaxDP=1.26D-04 DE= 3.45D-05 OVMax= 3.89D-04

 Cycle   8  Pass 1  IDiag  1:
 RMSU=  8.35D-06    CP:  1.00D+00
 E= -346.919764437653     Delta-E=       -0.000000112306 Rises=F Damp=F
 DIIS: error= 2.36D-05 at cycle   2 NSaved=   2.
 NSaved= 2 IEnMin= 2 EnMin= -346.919764437653     IErMin= 2 ErrMin= 2.36D-05
 ErrMax= 2.36D-05  0.00D+00 EMaxC= 1.00D-01 BMatC= 4.34D-07 BMatP= 7.81D-07
 IDIUse=1 WtCom= 1.00D+00 WtEn= 0.00D+00
 Coeff-Com:  0.403D+00 0.597D+00
 Coeff:      0.403D+00 0.597D+00
 Gap=     0.335 Goal=   None    Shift=    0.000
 RMSDP=1.93D-06 MaxDP=7.25D-05 DE=-1.12D-07 OVMax= 3.29D-04

 Cycle   9  Pass 1  IDiag  1:
 RMSU=  1.93D-06    CP:  1.00D+00  9.80D-01
 E= -346.919764726920     Delta-E=       -0.000000289267 Rises=F Damp=F
 DIIS: error= 1.14D-05 at cycle   3 NSaved=   3.
 NSaved= 3 IEnMin= 3 EnMin= -346.919764726920     IErMin= 3 ErrMin= 1.14D-05
 ErrMax= 1.14D-05  0.00D+00 EMaxC= 1.00D-01 BMatC= 8.77D-08 BMatP= 4.34D-07
 IDIUse=1 WtCom= 1.00D+00 WtEn= 0.00D+00
 Coeff-Com: -0.588D-02 0.306D+00 0.700D+00
 Coeff:     -0.588D-02 0.306D+00 0.700D+00
 Gap=     0.335 Goal=   None    Shift=    0.000
 RMSDP=6.05D-07 MaxDP=2.27D-05 DE=-2.89D-07 OVMax= 1.05D-04

 Cycle  10  Pass 1  IDiag  1:
 RMSU=  2.50D-07    CP:  1.00D+00  1.01D+00  7.37D-01
 E= -346.919764796307     Delta-E=       -0.000000069387 Rises=F Damp=F
 DIIS: error= 1.72D-06 at cycle   4 NSaved=   4.
 NSaved= 4 IEnMin= 4 EnMin= -346.919764796307     IErMin= 4 ErrMin= 1.72D-06
 ErrMax= 1.72D-06  0.00D+00 EMaxC= 1.00D-01 BMatC= 1.99D-09 BMatP= 8.77D-08
 IDIUse=1 WtCom= 1.00D+00 WtEn= 0.00D+00
 Coeff-Com: -0.112D-01 0.119D+00 0.300D+00 0.592D+00
 Coeff:     -0.112D-01 0.119D+00 0.300D+00 0.592D+00
 Gap=     0.335 Goal=   None    Shift=    0.000
 RMSDP=8.43D-08 MaxDP=5.00D-06 DE=-6.94D-08 OVMax= 8.58D-06

 Cycle  11  Pass 1  IDiag  1:
 RMSU=  8.21D-08    CP:  1.00D+00  1.01D+00  7.42D-01  9.65D-01
 E= -346.919764797970     Delta-E=       -0.000000001663 Rises=F Damp=F
 DIIS: error= 4.24D-07 at cycle   5 NSaved=   5.
 NSaved= 5 IEnMin= 5 EnMin= -346.919764797970     IErMin= 5 ErrMin= 4.24D-07
 ErrMax= 4.24D-07  0.00D+00 EMaxC= 1.00D-01 BMatC= 8.69D-11 BMatP= 1.99D-09
 IDIUse=1 WtCom= 1.00D+00 WtEn= 0.00D+00
 Coeff-Com: -0.158D-02-0.117D-01-0.203D-01 0.119D+00 0.914D+00
 Coeff:     -0.158D-02-0.117D-01-0.203D-01 0.119D+00 0.914D+00
 Gap=     0.335 Goal=   None    Shift=    0.000
 RMSDP=3.49D-08 MaxDP=9.69D-07 DE=-1.66D-09 OVMax= 3.63D-06

 Cycle  12  Pass 1  IDiag  1:
 RMSU=  1.98D-08    CP:  1.00D+00  1.01D+00  7.47D-01  1.07D+00  1.06D+00
 E= -346.919764798078     Delta-E=       -0.000000000109 Rises=F Damp=F
 DIIS: error= 1.26D-07 at cycle   6 NSaved=   6.
 NSaved= 6 IEnMin= 6 EnMin= -346.919764798078     IErMin= 6 ErrMin= 1.26D-07
 ErrMax= 1.26D-07  0.00D+00 EMaxC= 1.00D-01 BMatC= 8.19D-12 BMatP= 8.69D-11
 IDIUse=1 WtCom= 1.00D+00 WtEn= 0.00D+00
 Coeff-Com:  0.667D-03-0.144D-01-0.344D-01-0.245D-01 0.254D+00 0.819D+00
 Coeff:      0.667D-03-0.144D-01-0.344D-01-0.245D-01 0.254D+00 0.819D+00
 Gap=     0.335 Goal=   None    Shift=    0.000
 RMSDP=1.17D-08 MaxDP=3.04D-07 DE=-1.09D-10 OVMax= 1.34D-06

 Cycle  13  Pass 1  IDiag  1:
 RMSU=  7.82D-09    CP:  1.00D+00  1.01D+00  7.47D-01  1.10D+00  1.12D+00
                    CP:  9.66D-01
 E= -346.919764798084     Delta-E=       -0.000000000006 Rises=F Damp=F
 DIIS: error= 3.53D-08 at cycle   7 NSaved=   7.
 NSaved= 7 IEnMin= 7 EnMin= -346.919764798084     IErMin= 7 ErrMin= 3.53D-08
 ErrMax= 3.53D-08  0.00D+00 EMaxC= 1.00D-01 BMatC= 7.08D-13 BMatP= 8.19D-12
 IDIUse=1 WtCom= 1.00D+00 WtEn= 0.00D+00
 Coeff-Com:  0.322D-03-0.469D-02-0.115D-01-0.152D-01 0.467D-01 0.286D+00
 Coeff-Com:  0.698D+00
 Coeff:      0.322D-03-0.469D-02-0.115D-01-0.152D-01 0.467D-01 0.286D+00
 Coeff:      0.698D+00
 Gap=     0.335 Goal=   None    Shift=    0.000
 RMSDP=2.35D-09 MaxDP=8.01D-08 DE=-5.68D-12 OVMax= 2.57D-07

 SCF Done:  E(RM062X) =  -346.919764798     A.U. after   13 cycles
            NFock= 13  Conv=0.24D-08     -V/T= 2.0061
 KE= 3.448213887469D+02 PE=-1.457503537919D+03 EE= 4.418917987055D+02
 Leave Link  502 at Sat Sep 28 20:25:18 2019, MaxMem=   671088640 cpu:            1270.3 elap:             635.2
 (Enter /shared/centos7/gaussian/g16/l801.exe)
 DoSCS=F DFT=T ScalE2(SS,OS)=  1.000000  1.000000
 Range of M.O.s used for correlation:     1   350
 NBasis=   350 NAE=    28 NBE=    28 NFC=     0 NFV=     0
 NROrb=    350 NOA=    28 NOB=    28 NVA=   322 NVB=   322

 **** Warning!!: The largest alpha MO coefficient is  0.10407175D+02

 Leave Link  801 at Sat Sep 28 20:25:19 2019, MaxMem=   671088640 cpu:               1.4 elap:               0.7
 (Enter /shared/centos7/gaussian/g16/l1101.exe)
 Using compressed storage, NAtomX=    17.
 Will process     18 centers per pass.
 Leave Link 1101 at Sat Sep 28 20:25:49 2019, MaxMem=   671088640 cpu:              59.8 elap:              29.9
 (Enter /shared/centos7/gaussian/g16/l1102.exe)
 Symmetrizing basis deriv contribution to polar:
 IMax=3 JMax=2 DiffMx= 0.00D+00
 Leave Link 1102 at Sat Sep 28 20:25:52 2019, MaxMem=   671088640 cpu:               5.1 elap:               2.6
 (Enter /shared/centos7/gaussian/g16/l1110.exe)
 Forming Gx(P) for the SCF density, NAtomX=    17.
 Integral derivatives from FoFJK, PRISM(SPDF).
 Do as many integral derivatives as possible in FoFJK.
 G2DrvN: MDV=     671087280.
 G2DrvN: will do    18 centers at a time, making    1 passes.
 Calling FoFCou, ICntrl=  3107 FMM=F I1Cent=   0 AccDes= 0.00D+00.
 FoFJK:  IHMeth= 1 ICntrl=    3107 DoSepK=F KAlg= 0 I1Cent=           0 FoldK=F
 IRaf=         0 NMat=       1 IRICut=       1 DoRegI=T DoRafI=F ISym2E= 0 IDoP0=0 IntGTp=1.
 FoFCou: FMM=F IPFlag=           0 FMFlag=      100000 FMFlg1=           0
         NFxFlg=           0 DoJE=F BraDBF=F KetDBF=F FulRan=T
         wScrn=  0.000000 ICntrl=      3107 IOpCl=  0 I1Cent=           0 NGrid=           0
         NMat0=    1 NMatS0=      1 NMatT0=    0 NMatD0=    1 NMtDS0=    0 NMtDT0=    0
 Symmetry not used in FoFCou.
 End of G2Drv F.D. properties file   721 does not exist.
 End of G2Drv F.D. properties file   722 does not exist.
 End of G2Drv F.D. properties file   788 does not exist.
 Leave Link 1110 at Sat Sep 28 20:44:17 2019, MaxMem=   671088640 cpu:            2211.1 elap:            1105.7
 (Enter /shared/centos7/gaussian/g16/l1002.exe)
 Minotr:  Closed shell wavefunction.
          IDoAtm=11111111111111111
          Direct CPHF calculation.
          Differentiating once with respect to nuclear coordinates.
          Requested convergence is 1.0D-08 RMS, and 1.0D-07 maximum.
          Secondary convergence is 1.0D-12 RMS, and 1.0D-12 maximum.
          NewPWx=T KeepS1=F KeepF1=F KeepIn=T MapXYZ=F SortEE=F KeepMc=T.
         5095 words used for storage of precomputed grid.
 Two-electron integrals replicated using symmetry.
          MDV=     671088640 using IRadAn=       1.
          Solving linear equations simultaneously, MaxMat=     380.
 FoF2E skips out because all densities are zero.
 CalDSu exits because no D1Ps are significant.
 FoFJK:  IHMeth= 1 ICntrl=       0 DoSepK=F KAlg= 0 I1Cent=           0 FoldK=F
 IRaf= 950000000 NMat=      51 IRICut=     127 DoRegI=T DoRafI=T ISym2E= 2 IDoP0=3 IntGTp=3.
 FoFCou: FMM=F IPFlag=           0 FMFlag=      100000 FMFlg1=           0
         NFxFlg=           0 DoJE=F BraDBF=F KetDBF=F FulRan=T
         wScrn=  0.000000 ICntrl=         0 IOpCl=  0 I1Cent=           0 NGrid=           0
         NMat0=   51 NMatS0=     51 NMatT0=    0 NMatD0=   51 NMtDS0=    0 NMtDT0=    0
 Integrals replicated using symmetry in FoFCou.
 Raff kept on since  93.00% of shell-pairs survive, threshold=   0.20 IRatSp=93.
          There are    54 degrees of freedom in the 1st order CPHF.  IDoFFX=6 NUNeed=     0.
     48 vectors produced by pass  0 Test12= 1.67D-14 1.85D-09 XBig12= 6.98D-02 6.19D-02.
 AX will form    48 AO Fock derivatives at one time.
     48 vectors produced by pass  1 Test12= 1.67D-14 1.85D-09 XBig12= 8.27D-03 2.80D-02.
     48 vectors produced by pass  2 Test12= 1.67D-14 1.85D-09 XBig12= 3.00D-04 2.13D-03.
     48 vectors produced by pass  3 Test12= 1.67D-14 1.85D-09 XBig12= 4.23D-06 2.15D-04.
     48 vectors produced by pass  4 Test12= 1.67D-14 1.85D-09 XBig12= 2.58D-08 1.43D-05.
     48 vectors produced by pass  5 Test12= 1.67D-14 1.85D-09 XBig12= 1.48D-10 1.28D-06.
     27 vectors produced by pass  6 Test12= 1.67D-14 1.85D-09 XBig12= 6.22D-13 6.57D-08.
      5 vectors produced by pass  7 Test12= 1.67D-14 1.85D-09 XBig12= 2.54D-15 4.62D-09.
 InvSVY:  IOpt=1 It=  1 EMax= 2.50D-16
 Solved reduced A of dimension   320 with    54 vectors.
 End of Minotr F.D. properties file   721 does not exist.
 End of Minotr F.D. properties file   722 does not exist.
 End of Minotr F.D. properties file   788 does not exist.
 Leave Link 1002 at Sat Sep 28 21:16:32 2019, MaxMem=   671088640 cpu:            3868.9 elap:            1934.7
 (Enter /shared/centos7/gaussian/g16/l601.exe)
 Copying SCF densities to generalized density rwf, IOpCl= 0 IROHF=0.

 **********************************************************************

            Population analysis using the SCF density.

 **********************************************************************

 Orbital symmetries:
       Occupied  (A) (A) (A) (A) (A) (A) (A) (A) (A) (A) (A) (A)
                 (A) (A) (A) (A) (A) (A) (A) (A) (A) (A) (A) (A)
                 (A) (A) (A) (A)
       Virtual   (A) (A) (A) (A) (A) (A) (A) (A) (A) (A) (A) (A)
                 (A) (A) (A) (A) (A) (A) (A) (A) (A) (A) (A) (A)
                 (A) (A) (A) (A) (A) (A) (A) (A) (A) (A) (A) (A)
                 (A) (A) (A) (A) (A) (A) (A) (A) (A) (A) (A) (A)
                 (A) (A) (A) (A) (A) (A) (A) (A) (A) (A) (A) (A)
                 (A) (A) (A) (A) (A) (A) (A) (A) (A) (A) (A) (A)
                 (A) (A) (A) (A) (A) (A) (A) (A) (A) (A) (A) (A)
                 (A) (A) (A) (A) (A) (A) (A) (A) (A) (A) (A) (A)
                 (A) (A) (A) (A) (A) (A) (A) (A) (A) (A) (A) (A)
                 (A) (A) (A) (A) (A) (A) (A) (A) (A) (A) (A) (A)
                 (A) (A) (A) (A) (A) (A) (A) (A) (A) (A) (A) (A)
                 (A) (A) (A) (A) (A) (A) (A) (A) (A) (A) (A) (A)
                 (A) (A) (A) (A) (A) (A) (A) (A) (A) (A) (A) (A)
                 (A) (A) (A) (A) (A) (A) (A) (A) (A) (A) (A) (A)
                 (A) (A) (A) (A) (A) (A) (A) (A) (A) (A) (A) (A)
                 (A) (A) (A) (A) (A) (A) (A) (A) (A) (A) (A) (A)
                 (A) (A) (A) (A) (A) (A) (A) (A) (A) (A) (A) (A)
                 (A) (A) (A) (A) (A) (A) (A) (A) (A) (A) (A) (A)
                 (A) (A) (A) (A) (A) (A) (A) (A) (A) (A) (A) (A)
                 (A) (A) (A) (A) (A) (A) (A) (A) (A) (A) (A) (A)
                 (A) (A) (A) (A) (A) (A) (A) (A) (A) (A) (A) (A)
                 (A) (A) (A) (A) (A) (A) (A) (A) (A) (A) (A) (A)
                 (A) (A) (A) (A) (A) (A) (A) (A) (A) (A) (A) (A)
                 (A) (A) (A) (A) (A) (A) (A) (A) (A) (A) (A) (A)
                 (A) (A) (A) (A) (A) (A) (A) (A) (A) (A) (A) (A)
                 (A) (A) (A) (A) (A) (A) (A) (A) (A) (A) (A) (A)
                 (A) (A) (A) (A) (A) (A) (A) (A) (A) (A)
 The electronic state is 1-A.
 Alpha  occ. eigenvalues --  -19.64468 -19.64462 -10.60580 -10.58242 -10.57764
 Alpha  occ. eigenvalues --  -10.54975 -10.53899  -1.19065  -1.15561  -0.90586
 Alpha  occ. eigenvalues --   -0.83597  -0.79732  -0.71117  -0.66933  -0.60518
 Alpha  occ. eigenvalues --   -0.58353  -0.54479  -0.52255  -0.49215  -0.48452
 Alpha  occ. eigenvalues --   -0.47254  -0.45699  -0.44978  -0.43965  -0.42117
 Alpha  occ. eigenvalues --   -0.38779  -0.37249  -0.27620
 Alpha virt. eigenvalues --    0.05895   0.08306   0.08956   0.09361   0.10281
 Alpha virt. eigenvalues --    0.10943   0.12950   0.14339   0.15117   0.15436
 Alpha virt. eigenvalues --    0.16251   0.18926   0.21415   0.22905   0.23928
 Alpha virt. eigenvalues --    0.27555   0.29605   0.32144   0.33033   0.33880
 Alpha virt. eigenvalues --    0.34836   0.35500   0.36927   0.38310   0.39228
 Alpha virt. eigenvalues --    0.40495   0.41362   0.43429   0.44778   0.46712
 Alpha virt. eigenvalues --    0.47264   0.47657   0.48428   0.48853   0.49629
 Alpha virt. eigenvalues --    0.50826   0.52052   0.52145   0.52844   0.53441
 Alpha virt. eigenvalues --    0.55230   0.56313   0.56993   0.60648   0.63247
 Alpha virt. eigenvalues --    0.65115   0.68556   0.69685   0.71064   0.72716
 Alpha virt. eigenvalues --    0.75650   0.78842   0.79449   0.81826   0.83116
 Alpha virt. eigenvalues --    0.85341   0.87219   0.88130   0.88576   0.89481
 Alpha virt. eigenvalues --    0.93874   0.96453   0.97398   0.99261   1.00560
 Alpha virt. eigenvalues --    1.01596   1.02413   1.03227   1.05471   1.06201
 Alpha virt. eigenvalues --    1.06814   1.08750   1.09760   1.12286   1.13036
 Alpha virt. eigenvalues --    1.14054   1.15576   1.18019   1.20712   1.21395
 Alpha virt. eigenvalues --    1.22677   1.24388   1.24925   1.26635   1.27988
 Alpha virt. eigenvalues --    1.28251   1.29182   1.30568   1.32461   1.35372
 Alpha virt. eigenvalues --    1.36188   1.37359   1.38118   1.39680   1.42502
 Alpha virt. eigenvalues --    1.43400   1.45550   1.50155   1.50655   1.51677
 Alpha virt. eigenvalues --    1.53099   1.53608   1.56882   1.57902   1.60397
 Alpha virt. eigenvalues --    1.63778   1.64919   1.72079   1.85075   1.87312
 Alpha virt. eigenvalues --    1.92695   1.97487   2.00697   2.01694   2.05637
 Alpha virt. eigenvalues --    2.08098   2.09767   2.13046   2.15485   2.21147
 Alpha virt. eigenvalues --    2.25631   2.28134   2.29040   2.32463   2.34942
 Alpha virt. eigenvalues --    2.36854   2.38599   2.39111   2.42130   2.45568
 Alpha virt. eigenvalues --    2.48652   2.49641   2.54235   2.55638   2.56900
 Alpha virt. eigenvalues --    2.58672   2.60823   2.63691   2.66080   2.69989
 Alpha virt. eigenvalues --    2.72260   2.74139   2.75065   2.76507   2.78748
 Alpha virt. eigenvalues --    2.82010   2.82088   2.83929   2.85492   2.86692
 Alpha virt. eigenvalues --    2.88600   2.88985   2.91302   2.93147   2.95456
 Alpha virt. eigenvalues --    2.96494   2.96849   2.98660   2.98883   3.00374
 Alpha virt. eigenvalues --    3.01486   3.03855   3.04949   3.06955   3.07820
 Alpha virt. eigenvalues --    3.08859   3.10113   3.10483   3.12570   3.13689
 Alpha virt. eigenvalues --    3.15428   3.15691   3.18141   3.19122   3.21180
 Alpha virt. eigenvalues --    3.22082   3.25045   3.26423   3.27675   3.29839
 Alpha virt. eigenvalues --    3.30255   3.31317   3.33556   3.34877   3.36164
 Alpha virt. eigenvalues --    3.38832   3.39794   3.41580   3.43102   3.44057
 Alpha virt. eigenvalues --    3.45775   3.46991   3.49688   3.52335   3.53373
 Alpha virt. eigenvalues --    3.54284   3.55152   3.58602   3.60860   3.63353
 Alpha virt. eigenvalues --    3.63964   3.65444   3.68058   3.69171   3.70980
 Alpha virt. eigenvalues --    3.71328   3.73383   3.74641   3.75689   3.77567
 Alpha virt. eigenvalues --    3.78917   3.82211   3.82807   3.84401   3.85998
 Alpha virt. eigenvalues --    3.87779   3.90575   3.91739   3.91846   3.92488
 Alpha virt. eigenvalues --    3.96157   3.97736   3.99495   4.02983   4.03415
 Alpha virt. eigenvalues --    4.04557   4.06816   4.09028   4.09625   4.10150
 Alpha virt. eigenvalues --    4.11950   4.13121   4.14603   4.16526   4.17642
 Alpha virt. eigenvalues --    4.20557   4.22646   4.25559   4.26132   4.28739
 Alpha virt. eigenvalues --    4.34588   4.36662   4.38749   4.39671   4.42935
 Alpha virt. eigenvalues --    4.45882   4.48850   4.49345   4.50298   4.56995
 Alpha virt. eigenvalues --    4.60962   4.63344   4.66525   4.69165   4.71496
 Alpha virt. eigenvalues --    4.72512   4.74040   4.74978   4.79068   4.81436
 Alpha virt. eigenvalues --    4.85737   4.86905   4.90970   4.91824   4.93426
 Alpha virt. eigenvalues --    4.95382   4.97670   4.98111   5.01459   5.03656
 Alpha virt. eigenvalues --    5.05278   5.06208   5.09994   5.10263   5.14036
 Alpha virt. eigenvalues --    5.18781   5.21410   5.23330   5.25148   5.28119
 Alpha virt. eigenvalues --    5.31248   5.32868   5.39403   5.40715   5.45076
 Alpha virt. eigenvalues --    5.48936   5.52753   5.56811   5.68259   5.72381
 Alpha virt. eigenvalues --    5.74297   5.77659   5.79817   5.80351   5.85152
 Alpha virt. eigenvalues --    5.90776   6.03965   6.15282   6.22927   6.35549
 Alpha virt. eigenvalues --    6.39972   6.43770   6.60243   6.64271   6.71565
 Alpha virt. eigenvalues --    6.74995   6.78659   6.82480   6.85333   7.02525
 Alpha virt. eigenvalues --    7.09994   7.18186   7.26303   7.35112   7.41133
 Alpha virt. eigenvalues --   10.05739  10.84910  11.78468  12.14158  13.09945
 Alpha virt. eigenvalues --   13.44333  14.25948
          Condensed to atoms (all electrons):
               1          2          3          4          5          6
     1  O    7.906563   0.000719   0.252876  -0.048571  -0.050408   0.345092
     2  O    0.000719   7.794809   0.004122  -0.008565   0.001246  -0.077112
     3  C    0.252876   0.004122   5.024415   0.286069   0.284671  -0.069718
     4  C   -0.048571  -0.008565   0.286069   5.083682  -0.056428  -0.001356
     5  C   -0.050408   0.001246   0.284671  -0.056428   5.014464  -0.000427
     6  C    0.345092  -0.077112  -0.069718  -0.001356  -0.000427   5.006377
     7  C   -0.072487   0.327238  -0.009102   0.006950  -0.000668   0.522683
     8  H   -0.043676   0.003519   0.416774  -0.064879  -0.034329  -0.009696
     9  H    0.004847  -0.000046  -0.043876   0.391105   0.003636   0.001928
    10  H    0.001600  -0.003210  -0.039606   0.398067   0.005827   0.000312
    11  H    0.003643   0.000467  -0.035982   0.387039  -0.008261  -0.000005
    12  H    0.002355  -0.000022  -0.051001  -0.010818   0.409072  -0.000464
    13  H    0.004926  -0.000042  -0.045412   0.007063   0.393684   0.000805
    14  H    0.004201  -0.000013  -0.043539   0.004146   0.400018   0.000144
    15  H   -0.045200   0.004334   0.004204  -0.000786   0.000587   0.419134
    16  H    0.003982  -0.036709  -0.000289   0.000166   0.000073  -0.064579
    17  H    0.005883   0.347355  -0.003772   0.008194   0.000931  -0.005499
               7          8          9         10         11         12
     1  O   -0.072487  -0.043676   0.004847   0.001600   0.003643   0.002355
     2  O    0.327238   0.003519  -0.000046  -0.003210   0.000467  -0.000022
     3  C   -0.009102   0.416774  -0.043876  -0.039606  -0.035982  -0.051001
     4  C    0.006950  -0.064879   0.391105   0.398067   0.387039  -0.010818
     5  C   -0.000668  -0.034329   0.003636   0.005827  -0.008261   0.409072
     6  C    0.522683  -0.009696   0.001928   0.000312  -0.000005  -0.000464
     7  C    4.958304   0.002141  -0.001423  -0.000235  -0.000317   0.000009
     8  H    0.002141   0.595192   0.007483  -0.009063   0.004250   0.006703
     9  H   -0.001423   0.007483   0.545984  -0.035823  -0.022740   0.001274
    10  H   -0.000235  -0.009063  -0.035823   0.614028  -0.034005   0.000482
    11  H   -0.000317   0.004250  -0.022740  -0.034005   0.585406   0.000220
    12  H    0.000009   0.006703   0.001274   0.000482   0.000220   0.604572
    13  H    0.000561   0.003077  -0.000244  -0.000430   0.000306  -0.028675
    14  H    0.000132  -0.009068  -0.000195  -0.000261  -0.000284  -0.034712
    15  H   -0.076269   0.001229   0.000179  -0.000032   0.000073   0.000002
    16  H    0.410403  -0.001104  -0.000052  -0.000122   0.000010  -0.000002
    17  H   -0.043312  -0.006000  -0.000228  -0.001806   0.001709  -0.000060
              13         14         15         16         17
     1  O    0.004926   0.004201  -0.045200   0.003982   0.005883
     2  O   -0.000042  -0.000013   0.004334  -0.036709   0.347355
     3  C   -0.045412  -0.043539   0.004204  -0.000289  -0.003772
     4  C    0.007063   0.004146  -0.000786   0.000166   0.008194
     5  C    0.393684   0.400018   0.000587   0.000073   0.000931
     6  C    0.000805   0.000144   0.419134  -0.064579  -0.005499
     7  C    0.000561   0.000132  -0.076269   0.410403  -0.043312
     8  H    0.003077  -0.009068   0.001229  -0.001104  -0.006000
     9  H   -0.000244  -0.000195   0.000179  -0.000052  -0.000228
    10  H   -0.000430  -0.000261  -0.000032  -0.000122  -0.001806
    11  H    0.000306  -0.000284   0.000073   0.000010   0.001709
    12  H   -0.028675  -0.034712   0.000002  -0.000002  -0.000060
    13  H    0.559672  -0.024245  -0.000893  -0.000018  -0.000064
    14  H   -0.024245   0.593505  -0.000012  -0.000010  -0.000090
    15  H   -0.000893  -0.000012   0.566779  -0.004652  -0.000073
    16  H   -0.000018  -0.000010  -0.004652   0.532242   0.006372
    17  H   -0.000064  -0.000090  -0.000073   0.006372   0.423546
 Mulliken charges:
               1
     1  O   -0.276345
     2  O   -0.358091
     3  C    0.069167
     4  C   -0.381078
     5  C   -0.363690
     6  C   -0.067620
     7  C   -0.024608
     8  H    0.137447
     9  H    0.148192
    10  H    0.104278
    11  H    0.118472
    12  H    0.101066
    13  H    0.129929
    14  H    0.110281
    15  H    0.131397
    16  H    0.154288
    17  H    0.266914
 Sum of Mulliken charges =  -0.00000
 Mulliken charges with hydrogens summed into heavy atoms:
               1
     1  O   -0.276345
     2  O   -0.091176
     3  C    0.206614
     4  C   -0.010136
     5  C   -0.022414
     6  C    0.063777
     7  C    0.129680
 APT charges:
               1
     1  O   -0.190519
     2  O   -0.218312
     3  C    0.084445
     4  C   -1.111168
     5  C   -1.341107
     6  C   -0.548383
     7  C   -0.396110
     8  H    0.264993
     9  H    0.311710
    10  H    0.293545
    11  H    0.460289
    12  H    0.427534
    13  H    0.347451
    14  H    0.396842
    15  H    0.484716
    16  H    0.592702
    17  H    0.141374
 Sum of APT charges =  -0.00000
 APT charges with hydrogens summed into heavy atoms:
               1
     1  O   -0.190519
     2  O   -0.076939
     3  C    0.349438
     4  C   -0.045623
     5  C   -0.169280
     6  C   -0.063667
     7  C    0.196591
 Electronic spatial extent (au):  <R**2>=            848.8423
 Charge=             -0.0000 electrons
 Dipole moment (field-independent basis, Debye):
    X=              1.4376    Y=              0.0548    Z=              0.4390  Tot=              1.5041
 Quadrupole moment (field-independent basis, Debye-Ang):
   XX=            -43.6502   YY=            -43.1407   ZZ=            -45.8705
   XY=              4.5823   XZ=              0.7724   YZ=             -1.4919
 Traceless Quadrupole moment (field-independent basis, Debye-Ang):
   XX=              0.5703   YY=              1.0797   ZZ=             -1.6500
   XY=              4.5823   XZ=              0.7724   YZ=             -1.4919
 Octapole moment (field-independent basis, Debye-Ang**2):
  XXX=             -5.3707  YYY=             -2.2283  ZZZ=             -0.0087  XYY=             -0.4028
  XXY=             -8.6892  XXZ=              0.2189  XZZ=              0.8001  YZZ=              2.2436
  YYZ=             -2.4061  XYZ=              0.4697
 Hexadecapole moment (field-independent basis, Debye-Ang**3):
 XXXX=           -679.5213 YYYY=           -296.9793 ZZZZ=           -113.3332 XXXY=             20.5093
 XXXZ=            -14.9504 YYYX=             -0.1233 YYYZ=              7.7523 ZZZX=             -0.3097
 ZZZY=              1.2352 XXYY=           -174.0540 XXZZ=           -141.0861 YYZZ=            -74.4359
 XXYZ=             -4.5246 YYXZ=              2.0759 ZZXY=             -2.3235
 N-N= 3.238705856685D+02 E-N=-1.457503524446D+03  KE= 3.448213887469D+02
  Exact polarizability:   0.000   0.000   0.000   0.000   0.000   0.000
 Approx polarizability:  86.880  -3.719  81.511  -6.062   4.728  69.663
 No NMR shielding tensors so no spin-rotation constants.
 Leave Link  601 at Sat Sep 28 21:17:01 2019, MaxMem=   671088640 cpu:              58.8 elap:              29.4
 (Enter /shared/centos7/gaussian/g16/l701.exe)
 SCFChk:  SCF convergence  2.35D-09 required  1.00D-08
 ... and contract with generalized density number  0.
 Compute integral second derivatives.
 Entering OneElI...
 Calculate overlap and kinetic energy integrals
    NBasis = 395  MinDer = 2  MaxDer = 2
 Requested accuracy = 0.1000D-12
 PrmmSu-InSpLW:  IPartL=    0 NPrtUS=   20 NPrtUL=    1 DoSpLW=F IThBeg=    0 IThEnd=   19 NThAct=   20.
 PrsmSu:  NPrtUS=  20 ThrOK=T IAlg=1 NPAlg=1 LenDen=           0 ISkipM=0 DoSpLW=F IThBeg=    0 IThEnd=   19.
 Prism:   IPart=     0 DynPar=F LinDyn=F Incr=           4.
 PRISM was handed    33310081 working-precision words and  8479 shell-pairs
 PRISM was handed    33310081 working-precision words and  8479 shell-pairs
 PRISM was handed    33310081 working-precision words and  8479 shell-pairs
 PRISM was handed    33310081 working-precision words and  8479 shell-pairs
 PRISM was handed    33310081 working-precision words and  8479 shell-pairs
 PRISM was handed    33310081 working-precision words and  8479 shell-pairs
 PRISM was handed    33310081 working-precision words and  8479 shell-pairs
 PRISM was handed    33310081 working-precision words and  8479 shell-pairs
 PRISM was handed    33310081 working-precision words and  8479 shell-pairs
 PRISM was handed    33310081 working-precision words and  8479 shell-pairs
 IPart=  8 NShTot=         419 NBatch=          49 AvBLen=         8.6
 IPart=  0 NShTot=         469 NBatch=          82 AvBLen=         5.7
 PRISM was handed    33310081 working-precision words and  8479 shell-pairs
 PRISM was handed    33310081 working-precision words and  8479 shell-pairs
 PRISM was handed    33310081 working-precision words and  8479 shell-pairs
 PRISM was handed    33310081 working-precision words and  8479 shell-pairs
 PRISM was handed    33310081 working-precision words and  8479 shell-pairs
 PRISM was handed    33310081 working-precision words and  8479 shell-pairs
 PRISM was handed    33310081 working-precision words and  8479 shell-pairs
 PRISM was handed    33310081 working-precision words and  8479 shell-pairs
 IPart= 11 NShTot=         415 NBatch=          48 AvBLen=         8.6
 PRISM was handed    33310081 working-precision words and  8479 shell-pairs
 IPart=  5 NShTot=         439 NBatch=          61 AvBLen=         7.2
 PRISM was handed    33310081 working-precision words and  8479 shell-pairs
 IPart= 16 NShTot=         403 NBatch=          40 AvBLen=        10.1
 IPart=  1 NShTot=         464 NBatch=          78 AvBLen=         5.9
 IPart= 12 NShTot=         410 NBatch=          43 AvBLen=         9.5
 IPart=  3 NShTot=         448 NBatch=          69 AvBLen=         6.5
 IPart=  2 NShTot=         455 NBatch=          74 AvBLen=         6.1
 IPart=  9 NShTot=         418 NBatch=          49 AvBLen=         8.5
 IPart= 19 NShTot=         397 NBatch=          38 AvBLen=        10.4
 IPart=  7 NShTot=         426 NBatch=          50 AvBLen=         8.5
 IPart= 10 NShTot=         416 NBatch=          49 AvBLen=         8.5
 IPart= 17 NShTot=         403 NBatch=          40 AvBLen=        10.1
 IPart= 14 NShTot=         405 NBatch=          40 AvBLen=        10.1
 IPart= 15 NShTot=         404 NBatch=          40 AvBLen=        10.1
 IPart=  4 NShTot=         443 NBatch=          64 AvBLen=         6.9
 IPart=  6 NShTot=         436 NBatch=          60 AvBLen=         7.3
 IPart= 13 NShTot=         408 NBatch=          42 AvBLen=         9.7
 IPart= 18 NShTot=         401 NBatch=          40 AvBLen=        10.0
 PrSmSu:  NxtVal=             81.
 Entering OneElI...
 Calculate potential energy integrals
    NBasis = 395  MinDer = 2  MaxDer = 2
 Requested accuracy = 0.1000D-12
 PrmmSu-InSpLW:  IPartL=    0 NPrtUS=   20 NPrtUL=    1 DoSpLW=F IThBeg=    0 IThEnd=   19 NThAct=   20.
 PrsmSu:  NPrtUS=  20 ThrOK=T IAlg=1 NPAlg=1 LenDen=           0 ISkipM=0 DoSpLW=F IThBeg=    0 IThEnd=   19.
 Prism:   IPart=     0 DynPar=F LinDyn=F Incr=          66.
 PRISM was handed    33351914 working-precision words and  7861 shell-pairs
 PRISM was handed    33351914 working-precision words and  7861 shell-pairs
 PRISM was handed    33351914 working-precision words and  7861 shell-pairs
 PRISM was handed    33351914 working-precision words and  7861 shell-pairs
 PRISM was handed    33351914 working-precision words and  7861 shell-pairs
 PRISM was handed    33351914 working-precision words and  7861 shell-pairs
 PRISM was handed    33351914 working-precision words and  7861 shell-pairs
 PRISM was handed    33351914 working-precision words and  7861 shell-pairs
 PRISM was handed    33351914 working-precision words and  7861 shell-pairs
 PRISM was handed    33351914 working-precision words and  7861 shell-pairs
 PRISM was handed    33351914 working-precision words and  7861 shell-pairs
 PRISM was handed    33351914 working-precision words and  7861 shell-pairs
 PRISM was handed    33351914 working-precision words and  7861 shell-pairs
 PRISM was handed    33351914 working-precision words and  7861 shell-pairs
 PRISM was handed    33351914 working-precision words and  7861 shell-pairs
 PRISM was handed    33351914 working-precision words and  7861 shell-pairs
 PRISM was handed    33351914 working-precision words and  7861 shell-pairs
 PRISM was handed    33351914 working-precision words and  7861 shell-pairs
 PRISM was handed    33351914 working-precision words and  7861 shell-pairs
 PRISM was handed    33351914 working-precision words and  7861 shell-pairs
 IPart=  0 NShTot=        7344 NBatch=         432 AvBLen=        17.0
 IPart=  3 NShTot=        7004 NBatch=         412 AvBLen=        17.0
 IPart= 16 NShTot=        6375 NBatch=         375 AvBLen=        17.0
 IPart= 12 NShTot=        6494 NBatch=         382 AvBLen=        17.0
 IPart= 19 NShTot=        6290 NBatch=         370 AvBLen=        17.0
 IPart=  9 NShTot=        6630 NBatch=         390 AvBLen=        17.0
 IPart= 11 NShTot=        6562 NBatch=         386 AvBLen=        17.0
 IPart=  7 NShTot=        6732 NBatch=         396 AvBLen=        17.0
 IPart=  2 NShTot=        7140 NBatch=         420 AvBLen=        17.0
 IPart=  8 NShTot=        6698 NBatch=         394 AvBLen=        17.0
 IPart=  4 NShTot=        6902 NBatch=         406 AvBLen=        17.0
 IPart=  1 NShTot=        7242 NBatch=         426 AvBLen=        17.0
 IPart= 13 NShTot=        6460 NBatch=         380 AvBLen=        17.0
 IPart= 10 NShTot=        6596 NBatch=         388 AvBLen=        17.0
 IPart= 18 NShTot=        6324 NBatch=         372 AvBLen=        17.0
 IPart= 15 NShTot=        6392 NBatch=         376 AvBLen=        17.0
 IPart=  5 NShTot=        6851 NBatch=         403 AvBLen=        17.0
 IPart= 17 NShTot=        6341 NBatch=         373 AvBLen=        17.0
 IPart= 14 NShTot=        6409 NBatch=         377 AvBLen=        17.0
 IPart=  6 NShTot=        6851 NBatch=         403 AvBLen=        17.0
 PrSmSu:  NxtVal=           1321.
 Polarizability after L701:
                1             2             3 
      1  0.000000D+00
      2  0.000000D+00  0.000000D+00
      3  0.000000D+00  0.000000D+00  0.000000D+00
 Dipole Derivatives after L701:
                 1             2             3             4             5 
      1  -0.238393D+00  0.141661D-01 -0.151166D-01  0.135909D+00 -0.257587D+00
      2  -0.183183D+00 -0.194026D+00  0.540149D-01 -0.663611D+00 -0.396745D+00
      3  -0.153185D+00  0.226170D-01 -0.139139D+00 -0.136598D-01  0.117518D+00
                 6             7             8             9            10 
      1  -0.155433D+00  0.426568D+00 -0.119454D+00 -0.205513D+00 -0.950510D+00
      2   0.234227D+00 -0.970982D-01  0.226262D+00 -0.278463D+00 -0.195964D-02
      3  -0.394101D+00  0.184277D+00 -0.217326D+00 -0.399497D+00  0.138577D-01
                11            12            13            14            15 
      1  -0.522746D+00  0.334110D+00 -0.193954D+01  0.518682D+00 -0.230982D+00
      2  -0.143409D+01  0.334811D+00  0.216587D+00 -0.100363D+01  0.521831D-01
      3   0.713324D-01 -0.948903D+00 -0.226956D+00  0.126671D+00 -0.108015D+01
                16            17            18            19            20 
      1  -0.666253D+00 -0.194122D+00  0.387921D+00 -0.760940D+00 -0.404413D+00
      2  -0.202802D+00 -0.890672D+00 -0.273436D-01 -0.187927D-01 -0.407380D+00
      3   0.225156D+00 -0.909427D-01 -0.882244D-01  0.179842D+00 -0.110565D+00
                21            22            23            24            25 
      1   0.273925D-01  0.110843D+00  0.321297D-01  0.136678D+00  0.344452D-01
      2  -0.205860D+00 -0.301326D-01  0.175930D+00  0.400185D-01 -0.157066D+00
      3  -0.200111D-01 -0.150813D+00  0.659593D-01  0.508206D+00  0.194619D+00
                26            27            28            29            30 
      1   0.361422D-01 -0.231945D+00  0.377254D-01  0.100179D+00  0.129428D-01
      2   0.159203D+00 -0.469248D+00 -0.474718D+00  0.677673D+00  0.327541D+00
      3  -0.382042D-01  0.741483D+00 -0.585756D-01  0.569759D-01  0.165237D+00
                31            32            33            34            35 
      1   0.942163D+00  0.263220D+00 -0.282014D-01  0.104113D+01  0.435744D+00
      2   0.630912D+00  0.335639D+00 -0.427456D-01 -0.378516D-01  0.986519D-01
      3  -0.143843D+00 -0.593130D-01  0.103066D+00 -0.495726D-01 -0.518050D-01
                36            37            38            39            40 
      1  -0.551465D+00  0.148538D+00 -0.774619D+00 -0.171085D+00  0.329302D+00
      2  -0.143773D-01 -0.939993D-02  0.817390D+00  0.153243D+00 -0.471605D-01
      3   0.142817D+00  0.401373D-02 -0.863515D-01  0.764257D-01  0.138127D+00
                41            42            43            44            45 
      1   0.311466D-01  0.879042D+00  0.296701D+00  0.511661D+00  0.106159D+00
      2   0.818609D-01 -0.153909D+00  0.180874D+00  0.105019D+01  0.216728D+00
      3   0.493412D-01  0.779363D+00  0.232579D-01  0.186486D+00  0.107260D+00
                46            47            48            49            50 
      1   0.134137D+01  0.428645D+00 -0.394676D+00 -0.289063D+00 -0.987760D-01
      2   0.248051D+00  0.279548D+00 -0.629927D-01  0.647352D+00  0.424200D+00
      3  -0.192582D+00 -0.473061D-01  0.157187D+00  0.260351D-01  0.491342D-02
                51 
      1   0.100172D+00
      2  -0.157827D+00
      3   0.288984D+00
 Hessian after L701:
                1             2             3             4             5 
      1  0.597425D+01
      2 -0.411871D+01  0.138358D+02
      3 -0.180255D+00 -0.240347D+01  0.154865D+02
      4  0.258989D+00 -0.572839D+00 -0.325818D+00  0.897561D+01
      5 -0.493924D+00  0.802705D-01  0.254572D+00 -0.152683D+01  0.690633D+01
      6 -0.322545D+00  0.300559D+00 -0.256781D+00  0.216838D+01 -0.101539D+01
      7 -0.553507D+01  0.301154D+01  0.255632D+01  0.374425D+00 -0.252163D+00
      8  0.287039D+01 -0.555648D+01  0.286211D+01 -0.300597D+00 -0.223673D+00
      9  0.238567D+01  0.279330D+01 -0.652257D+01 -0.269260D+00  0.911629D-01
     10 -0.223820D+00  0.165017D+00 -0.112518D+00  0.403745D+00  0.136619D+00
     11  0.147024D+00  0.493051D+00 -0.260460D+00  0.144630D-02 -0.241753D+00
     12 -0.609766D-01 -0.112148D+00 -0.170608D+00 -0.762033D-01 -0.377633D-01
     13  0.230177D+00 -0.138540D+00  0.299871D+00  0.165072D+00 -0.101787D+00
     14 -0.432375D-01 -0.175372D+00 -0.420468D-02 -0.107130D+00 -0.608578D-01
     15  0.339337D+00 -0.627040D-01 -0.937014D-02  0.865036D-03  0.303125D-02
     16 -0.933990D+00  0.230973D+01 -0.243961D+01  0.262414D+00 -0.421403D+00
     17  0.249926D+01 -0.924198D+01 -0.465731D+00 -0.283682D+00 -0.497089D-01
     18 -0.218060D+01 -0.433774D+00 -0.870858D+01  0.122246D+00 -0.843561D-01
     19  0.134532D+00 -0.455109D+00  0.245446D+00 -0.865104D+01  0.148169D+01
     20 -0.549016D+00  0.181094D+00  0.428681D-01  0.110463D+01  0.867203D-01
     21  0.102882D+00  0.573596D-02  0.148982D+00  0.350891D-01  0.120384D+01
     22  0.191838D+00 -0.131930D+00 -0.218677D+00  0.425750D-01 -0.353460D-01
     23 -0.103280D+00  0.270261D-01 -0.176133D+00 -0.326884D-01 -0.645413D-01
     24 -0.188303D+00 -0.194496D+00  0.110887D+00  0.940156D-01 -0.223090D-01
     25 -0.852147D-01  0.100480D-02  0.245422D-01  0.307712D-01  0.462541D-02
     26  0.206375D-01  0.873743D-01  0.361232D-01  0.110813D-01 -0.312696D-01
     27  0.602555D-03 -0.491049D-01 -0.919944D-01 -0.844850D-01 -0.774890D-02
     28 -0.423154D-01 -0.137308D-01 -0.669272D-02 -0.225705D-01  0.129285D-01
     29  0.492830D-03  0.131031D+00  0.407533D-01  0.856685D-01  0.539324D-03
     30 -0.383750D-02  0.427570D-01 -0.295888D-01 -0.183172D-01 -0.455493D-02
     31  0.552647D-01  0.116626D+00  0.187038D-01  0.723533D-01  0.139497D-01
     32  0.963273D-01  0.572718D-01  0.179727D-01  0.257777D-01 -0.115970D-01
     33  0.922176D-02  0.748053D-02 -0.471829D-01 -0.140524D-01 -0.174854D-02
     34  0.127756D+00  0.561481D-01  0.295776D-01  0.361184D-01 -0.848444D-02
     35  0.560903D-01 -0.301430D-01  0.771621D-02  0.184751D-02 -0.806331D-02
     36  0.730184D-02  0.163514D-02 -0.469888D-01 -0.124833D-01  0.168916D-02
     37  0.686501D-02  0.146726D-01  0.821859D-01  0.124465D-01 -0.138314D-01
     38 -0.647140D-01 -0.779755D-01 -0.461436D-01 -0.351986D-01  0.112730D-01
     39  0.591359D-01  0.335162D-02 -0.448278D-01 -0.471479D-02  0.280534D-02
     40  0.338075D-01  0.226555D-01  0.106714D+00  0.235712D-01 -0.102165D-01
     41  0.156584D-01 -0.470408D-01  0.212659D-01 -0.101425D-01 -0.787830D-02
     42  0.110430D+00  0.297698D-01  0.921129D-01  0.327820D-01 -0.868278D-02
     43 -0.269089D+00 -0.233499D+00  0.273146D-02 -0.465620D-01 -0.130424D-01
     44 -0.237696D+00  0.177314D+00 -0.719233D-02 -0.525771D-01  0.178296D+00
     45  0.181167D-01  0.195923D-01  0.171713D+00 -0.657187D-02  0.483245D-01
     46  0.166952D+00 -0.369144D-02 -0.658134D-01  0.133675D+00 -0.139938D+00
     47  0.199037D-01 -0.470856D-01 -0.797968D-02 -0.153472D+00 -0.265983D+00
     48 -0.690208D-01 -0.209882D-03 -0.146810D-01 -0.283068D-01 -0.538181D-02
     49 -0.909347D-01 -0.293412D-01 -0.167025D-01 -0.207159D+01  0.136715D+01
     50 -0.115210D+00  0.105874D+00  0.879340D-01  0.184471D+01 -0.629810D+01
     51 -0.271551D-01  0.517264D-01 -0.670471D-01 -0.161316D+01 -0.417483D+00
                6             7             8             9            10 
      6  0.158385D+02
      7 -0.199687D+00  0.174795D+02
      8  0.655097D-01 -0.154334D+01  0.184153D+02
      9 -0.275778D+00 -0.211419D+01 -0.179901D+01  0.202148D+02
     10 -0.120961D+00 -0.586014D+01  0.392682D+00 -0.239064D+00  0.143797D+02
     11  0.698521D-02  0.269240D+00 -0.221460D+01 -0.141401D+01 -0.455620D+00
     12 -0.231764D+00 -0.228155D+00 -0.144887D+01 -0.547965D+01  0.296633D+00
     13 -0.287162D-02 -0.298745D+01 -0.166504D+01  0.103384D+01 -0.929539D-02
     14  0.194639D-02 -0.162378D+01 -0.546491D+01 -0.541197D+00 -0.162374D+00
     15 -0.103959D+00  0.985526D+00 -0.535777D+00 -0.579887D+01  0.115511D+00
     16  0.115276D+00  0.540284D+00  0.134027D+00  0.185749D+00 -0.626960D-01
     17 -0.176156D+00  0.108006D+00 -0.616170D-01  0.686134D-01  0.199849D+00
     18  0.284023D+00  0.179501D+00  0.105258D+00  0.682245D-01 -0.134989D-01
     19  0.742231D-01  0.239405D+00  0.103363D+00  0.540082D-01  0.253577D+00
     20  0.133325D+01  0.585424D-01 -0.132577D+00  0.461079D-02  0.203763D+00
     21 -0.860161D+01  0.114069D+00  0.206811D-05 -0.138800D+00 -0.794121D-01
     22  0.156034D-02 -0.461143D+01 -0.171289D+00 -0.957736D+00  0.223250D+00
     23  0.924347D-03 -0.212318D+00 -0.488688D+01  0.547241D+00 -0.859742D-01
     24 -0.652169D-01 -0.116876D+01  0.542703D+00 -0.241556D+01  0.101369D+00
     25 -0.285279D-01  0.119778D+00  0.566148D-03  0.729633D-02 -0.393070D+01
     26 -0.359773D-02  0.338868D-01  0.276196D-01  0.141512D+00 -0.836928D-01
     27  0.195824D-01 -0.175752D-01  0.963850D-01  0.177081D-01  0.802910D+00
     28 -0.528770D-01  0.119208D+00 -0.269295D-01 -0.242392D-01 -0.352190D+01
     29 -0.408022D-01  0.268061D-01 -0.132455D+00  0.550905D-01 -0.118707D+01
     30 -0.329133D-01 -0.276658D-01  0.496852D-01  0.109168D+00 -0.593015D+00
     31 -0.160166D-01  0.100931D+00 -0.352396D-01  0.168263D-01 -0.174071D+01
     32 -0.497764D-02 -0.714712D-01 -0.615031D-01  0.287625D-01  0.908179D+00
     33 -0.145594D-01  0.190189D-01  0.240170D-01  0.653868D-01 -0.165397D+00
     34 -0.624287D-02 -0.669534D-01  0.480180D-01  0.213306D-01  0.525140D-03
     35 -0.825352D-03  0.687049D-01  0.122858D+00 -0.229770D-01  0.234316D-01
     36 -0.623619D-02 -0.182308D-01 -0.199189D-01  0.131574D+00 -0.711977D-02
     37 -0.129910D-02  0.758077D-01  0.107502D+00  0.108193D-01 -0.334461D-01
     38  0.343560D-02  0.539353D-01  0.183175D-01 -0.129013D-01 -0.515508D-01
     39 -0.930377D-02 -0.680318D-02  0.281096D-01  0.985684D-01  0.736130D-02
     40  0.703373D-02 -0.529728D-01  0.101391D-01 -0.129314D+00 -0.596430D-02
     41 -0.159336D-02  0.163768D-01  0.105856D+00  0.284471D-01 -0.389325D-01
     42 -0.415484D-02 -0.115179D+00  0.116186D-01  0.390627D-01  0.586027D-01
     43  0.354613D-02  0.506612D-01  0.810981D-01  0.281605D-01 -0.563710D-02
     44  0.430248D-01  0.118304D+00  0.651045D-01  0.263031D-01  0.115939D-01
     45 -0.305046D-01  0.321931D-01  0.300606D-01 -0.399391D-01  0.177959D-02
     46 -0.155155D-01  0.426233D-01  0.849323D-02 -0.126887D-01  0.277275D-01
     47  0.145549D-01  0.147274D-01 -0.913585D-02 -0.570626D-02  0.166179D-01
     48  0.108106D+00 -0.691365D-02 -0.194710D-02 -0.103974D-01 -0.107361D-01
     49 -0.160347D+01 -0.286174D-01 -0.138476D-01  0.279400D-02  0.105784D+00
     50 -0.526847D+00 -0.770003D-01 -0.112222D-01  0.107638D-01  0.746430D-02
     51 -0.661746D+01  0.165423D-01 -0.993975D-02 -0.629522D-01 -0.424441D-01
               11            12            13            14            15 
     11  0.125763D+02
     12  0.944738D+00  0.158890D+02
     13 -0.347653D-01  0.488079D-01  0.123211D+02
     14  0.508713D-01 -0.935742D-01  0.119247D+01  0.147325D+02
     15 -0.113352D+00 -0.242070D-01 -0.112171D+01  0.478892D+00  0.146936D+02
     16  0.184997D+00  0.144214D-01  0.222536D+00  0.492750D-01  0.129081D+00
     17  0.157085D+00 -0.153054D-01  0.108018D-01 -0.151688D+00  0.114110D-01
     18 -0.445249D-01 -0.150243D+00  0.117987D+00  0.125707D-01 -0.118163D+00
     19  0.183739D+00 -0.570088D-01  0.997752D-01  0.687059D-02  0.282356D-02
     20 -0.793441D-01 -0.365898D-01 -0.180689D-01 -0.805874D-01 -0.479686D-02
     21 -0.456764D-01 -0.142836D+00 -0.299164D-02 -0.245398D-02 -0.740813D-01
     22 -0.736235D-01  0.767138D-01 -0.141102D+00  0.984702D-01 -0.193286D-01
     23  0.467250D-01  0.251372D+00  0.105778D+00  0.464319D-01  0.153781D-02
     24  0.292782D+00 -0.114631D+00 -0.113747D-01 -0.233973D-02  0.152607D+00
     25 -0.147915D-01  0.649543D+00 -0.127036D-01 -0.363114D-01  0.434098D-01
     26 -0.423702D+01 -0.224160D+00 -0.377368D-01  0.940593D-02 -0.524286D-01
     27 -0.153961D-01 -0.168786D+01  0.409944D-01 -0.582315D-01  0.326847D-01
     28 -0.950178D+00 -0.543714D+00  0.943908D-02 -0.834877D-01  0.806554D-02
     29 -0.288674D+01  0.892711D+00 -0.864417D-01  0.862296D-01 -0.145566D-01
     30  0.784548D+00 -0.383466D+01  0.595179D-02 -0.616089D-02 -0.403443D-01
     31  0.771413D+00 -0.135062D+00 -0.164190D-02  0.233973D-01 -0.719349D-02
     32 -0.363472D+01 -0.257651D-01  0.177290D-02  0.586592D-02 -0.716358D-02
     33 -0.276471D-01 -0.390267D+01  0.218476D-02 -0.442988D-02 -0.150548D-01
     34  0.149501D-01  0.927721D-02 -0.217421D+01  0.786640D+00 -0.111566D+01
     35 -0.244206D-01 -0.116722D-01  0.666219D+00 -0.363014D+01 -0.379321D+00
     36 -0.260585D-02  0.310734D-02 -0.980498D+00 -0.395206D+00 -0.331626D+01
     37 -0.583083D-01  0.109654D-01 -0.408164D+01 -0.166982D+00 -0.646246D-01
     38  0.133396D+00 -0.318787D-01  0.620002D-01 -0.155366D+01  0.570342D+00
     39 -0.313618D-01 -0.394691D-01 -0.107535D-01  0.466005D+00 -0.391106D+01
     40 -0.410151D-01  0.471184D-01 -0.369519D+01  0.618676D-01  0.690835D+00
     41  0.415847D-02 -0.533398D-01  0.458862D-01 -0.382042D+01  0.100016D+00
     42 -0.617480D-01  0.401923D-01  0.558094D+00  0.145669D+00 -0.143129D+01
     43  0.118337D-02  0.222808D-02  0.249030D-01  0.204219D-01  0.101087D-01
     44  0.599845D-02  0.838183D-02  0.294219D-01  0.697801D-02  0.844625D-02
     45  0.215343D-02 -0.759830D-02  0.141296D-01  0.917003D-02 -0.128481D-01
     46  0.795840D-02 -0.248113D-02  0.181708D-01  0.464207D-02 -0.199227D-02
     47 -0.450173D-02 -0.140819D-02  0.307746D-02 -0.445486D-02 -0.211392D-03
     48 -0.267409D-02 -0.907284D-02 -0.157294D-02 -0.589108D-03 -0.587496D-02
     49  0.463506D-01 -0.521076D-01  0.120698D-01 -0.207557D-01  0.495076D-02
     50 -0.144478D+00 -0.473134D-02 -0.350475D-01  0.376129D-02 -0.336548D-02
     51 -0.117458D-01 -0.136981D+00  0.991532D-02 -0.586668D-02 -0.174914D-01
               16            17            18            19            20 
     16  0.103105D+02
     17  0.591234D+00  0.175355D+02
     18  0.540317D+01 -0.275724D+01  0.252727D+02
     19 -0.580664D+01 -0.403260D+01 -0.391967D+01  0.153546D+02
     20 -0.354984D+01 -0.668078D+01  0.281057D+01  0.165557D+01  0.110594D+02
     21 -0.368616D+01  0.296556D+01 -0.124695D+02  0.415795D+01 -0.379215D+01
     22 -0.911273D-02 -0.181448D-01 -0.717957D-02  0.678774D-01  0.471384D-01
     23  0.338563D-02 -0.288924D-01 -0.294563D-03  0.575239D-01 -0.405451D-01
     24  0.340133D-01  0.787993D-02  0.244755D-01  0.744602D-01  0.175548D-01
     25 -0.129643D-01  0.225175D-01 -0.156760D-01 -0.662744D-02  0.694474D-02
     26  0.314274D-01  0.185256D-01 -0.324065D-01  0.119999D-01 -0.447060D-02
     27 -0.318536D-01 -0.472456D-01  0.350707D-02 -0.293887D-01 -0.177354D-01
     28 -0.233117D-02  0.192750D-01  0.457280D-02 -0.230419D-02  0.994003D-02
     29  0.390068D-01  0.404462D-01  0.143733D-01  0.344711D-01  0.652180D-02
     30  0.881913D-02  0.175380D-01 -0.132684D-01  0.732899D-02  0.535373D-02
     31  0.146803D-01  0.183635D-01  0.256348D-03  0.148775D-01  0.847258D-02
     32  0.179545D-01  0.351660D-02 -0.146532D-02  0.102831D-01 -0.434050D-02
     33 -0.719014D-03 -0.126125D-02 -0.985019D-02 -0.293582D-02 -0.193522D-02
     34  0.195570D-01  0.501242D-02  0.750245D-03  0.231476D-01 -0.205846D-02
     35  0.110090D-01 -0.696850D-02 -0.506762D-03  0.510642D-02 -0.707994D-02
     36 -0.430061D-02 -0.118900D-02 -0.867051D-02 -0.586469D-02  0.146633D-03
     37  0.426892D-01 -0.165764D-01  0.131280D-01  0.301252D-01 -0.130609D-01
     38 -0.414982D-01 -0.106077D-01 -0.865115D-02 -0.295683D-01  0.118439D-02
     39  0.855311D-02 -0.140129D-02 -0.232890D-01 -0.101512D-02  0.112742D-02
     40  0.190126D-01  0.570645D-02  0.146684D-01  0.196245D-01 -0.321801D-02
     41  0.694714D-02 -0.116586D-01  0.412460D-02  0.148920D-04 -0.884849D-02
     42  0.282656D-01  0.357267D-02  0.483462D-02  0.222233D-01 -0.350236D-02
     43 -0.425964D+01  0.695430D+00  0.105688D+00  0.228966D+00  0.205766D+00
     44  0.590621D+00 -0.161301D+01  0.508696D+00  0.278977D+00 -0.373916D+00
     45  0.818411D-01  0.494028D+00 -0.432899D+01  0.448924D-01 -0.148866D+00
     46 -0.344824D+00  0.181696D+00  0.171591D+00 -0.205142D+01  0.821278D+00
     47  0.138062D+00  0.230308D+00 -0.365435D-01  0.844693D+00 -0.401981D+01
     48  0.164115D+00 -0.402727D-01  0.165510D+00 -0.671225D+00 -0.232112D+00
     49  0.557328D-03 -0.615179D-02  0.307138D-02  0.514744D-01  0.132208D-01
     50 -0.949323D-01 -0.128460D+00 -0.558336D-01 -0.157033D+00  0.973227D-01
     51 -0.106601D-01 -0.628020D-01  0.730726D-02  0.374981D-02  0.222066D-01
               21            22            23            24            25 
     21  0.251426D+02
     22  0.226195D-01  0.421183D+01
     23  0.124401D-01  0.217204D+00  0.494681D+01
     24 -0.400455D-01  0.124414D+01 -0.672151D+00  0.221571D+01
     25 -0.116047D-01 -0.298878D-01  0.525441D-02 -0.142724D-01  0.386470D+01
     26 -0.135988D-01  0.821699D-02 -0.113200D-01 -0.603491D-01  0.362693D-01
     27  0.151620D-01 -0.200982D-01 -0.442684D-01  0.101340D+00 -0.598297D+00
     28  0.273782D-02  0.285681D-01 -0.836696D-02  0.853990D-02  0.153186D+00
     29 -0.179707D-02  0.157755D-02 -0.645808D-01  0.461429D-01  0.354201D-01
     30 -0.173845D-01  0.398676D-03  0.481784D-01  0.225041D-02  0.903666D-01
     31 -0.488632D-02  0.232079D-01  0.307204D-01 -0.471271D-01 -0.898360D-01
     32 -0.311071D-02  0.356959D-01  0.685024D-02 -0.369312D-01 -0.505276D-01
     33 -0.609024D-02 -0.324482D-01 -0.248710D-01  0.127061D-01 -0.169180D+00
     34 -0.377082D-02  0.770144D-01 -0.161604D-01 -0.633149D-01  0.144511D-01
     35 -0.166780D-02 -0.770153D-02 -0.253046D-01  0.446260D-02 -0.817110D-02
     36 -0.460002D-02 -0.438672D-01  0.721153D-02  0.144575D-02  0.676474D-02
     37 -0.298624D-03  0.110701D-01 -0.280731D-01 -0.186699D-01 -0.557070D-03
     38  0.185559D-02 -0.321561D-01  0.188178D-01  0.265859D-01 -0.352492D-02
     39 -0.110589D-01 -0.117275D-01  0.122611D-01 -0.606788D-02  0.232845D-03
     40  0.765936D-02 -0.503346D-01  0.235456D-01 -0.213709D-01 -0.709629D-04
     41 -0.200130D-04  0.242077D-01  0.148231D-01  0.646566D-02 -0.872075D-03
     42 -0.219936D-02 -0.137907D-01  0.421055D-02  0.141474D-01  0.363990D-02
     43  0.347059D-01  0.109182D-02  0.149049D-01  0.134916D-01 -0.515390D-03
     44 -0.139827D+00  0.118419D-01  0.169030D-01  0.246700D-01  0.210077D-02
     45  0.231035D+00  0.764088D-02  0.135659D-01  0.494881D-02 -0.757682D-03
     46 -0.702919D+00 -0.136919D-01 -0.930715D-03  0.387977D-02 -0.672905D-04
     47 -0.246908D+00 -0.378538D-02  0.137410D-02  0.213563D-02  0.517600D-03
     48 -0.413638D+01 -0.198045D-02 -0.715167D-03 -0.881861D-03 -0.494951D-03
     49  0.143268D-01 -0.227652D-01  0.294745D-01 -0.407128D-01 -0.137372D-01
     50  0.577841D-01  0.296232D-01 -0.369102D-02  0.171931D-01 -0.102221D-02
     51  0.106808D+00 -0.262412D-01  0.194912D-01  0.188741D-02  0.130157D-01
               26            27            28            29            30 
     26  0.397573D+01
     27  0.426119D+00  0.185208D+01
     28  0.138698D-01  0.607616D-01  0.349309D+01
     29  0.745410D-01 -0.212231D+00  0.935844D+00  0.261317D+01
     30 -0.173119D+00 -0.237415D+00  0.418340D+00 -0.764645D+00  0.403908D+01
     31 -0.338406D-01 -0.158722D+00 -0.208086D+00  0.100097D+00  0.106317D+00
[...]
   yx        -0.640526D+01     -0.949162D+00     -0.105609D+01
   yy         0.622605D+02      0.922606D+01      0.102654D+02
   zx         0.269986D+01      0.400079D+00      0.445147D+00
   zy         0.100785D+02      0.149348D+01      0.166172D+01
   zz         0.837448D+02      0.124097D+02      0.138076D+02

 ----------------------------------------------------------------------

 Test job not archived.
 1\1\GINC-C0144\Freq\RM062X\CC-pVTZ\C5H10O2\HARMS.N\29-Sep-2019\0\\#P G
 eom=AllCheck Guess=TCheck SCRF=Check Test GenChk RM062X/CC-pVTZ Freq\\
 Gaussian input prepared by ASE\\0,1\O,3.6944577535,0.5307042126,2.9088
 130094\O,0.9847999281,0.3188276464,2.5258423534\C,4.8730631644,0.09815
 09695,3.5938794274\C,4.971215606,0.9380655865,4.8497609139\C,6.0940747
 929,0.260019472,2.7042751708\C,3.1895894059,-0.3539690778,1.9896990439
 \C,1.8764267597,-0.4205619813,1.8183246205\H,4.743617501,-0.9555120597
 ,3.8628047573\H,5.045287649,1.9921949434,4.5810120776\H,4.0900879039,0
 .7993149072,5.4738261783\H,5.8551258462,0.6628383799,5.4238201592\H,6.
 2119754758,1.309300868,2.4327000831\H,6.0078535404,-0.324699175,1.7894
 291358\H,6.990365194,-0.0683304767,3.2301858871\H,3.8816315157,-0.9447
 789096,1.406910162\H,1.4240644714,-1.0632955244,1.0797650417\H,1.49087
 51194,0.8623420843,3.1419562589\\Version=EM64L-G16RevA.03\State=1-A\HF
 =-346.9479196\RMSD=2.022e-09\RMSF=8.081e-07\ZeroPoint=0.1475352\Therma
 l=0.1560271\Dipole=0.9003595,-0.2331438,0.2458952\DipoleDeriv=-1.30088
 55,-0.120887,-0.434908,-0.3842559,-0.5011006,-0.3004856,-0.777733,-0.2
 640373,-0.8216959,-0.9498433,0.1822717,0.0984287,0.5985076,-0.5208544,
 -0.1279852,0.568714,-0.1926987,-0.4439371,1.0384445,0.0554615,0.281583
 3,-0.1507401,0.2872111,-0.0758964,0.2450882,0.0284569,0.5968623,-0.004
 5024,-0.0070259,0.0095907,-0.0128866,0.0481492,-0.0792944,-0.0323303,-
 0.0700889,-0.0596732,-0.1205952,-0.0255418,0.0225049,0.012612,0.068374
 4,0.0082311,0.1100179,-0.0221712,-0.0526769,0.2339425,0.2419135,0.2298
 21,0.5774024,0.1584033,0.4873854,0.4985112,0.3556387,0.2834103,0.80103
 48,-0.2760488,-0.1689099,-0.5467277,0.204788,0.2218311,-0.5241931,0.31
 09119,0.1310681,-0.0422037,-0.0739028,0.0064192,0.0345092,-0.1413747,0
 .068645,0.0053575,0.0000164,-0.0194132,0.0699256,-0.0088982,0.0098738,
 -0.0207769,-0.0913431,0.0058852,0.0079219,0.0760889,0.0272157,-0.05017
 89,-0.0091661,0.1133236,-0.0265,0.050087,-0.0043468,0.072023,-0.009370
 2,-0.0115444,-0.0644347,0.029704,-0.0966683,0.0421339,0.0428395,0.0185
 46,-0.0734828,-0.0048501,0.0116402,0.0521608,0.0195706,0.0114938,-0.04
 38895,-0.0956497,0.047399,0.0199663,0.0151786,0.0529458,0.0682649,-0.0
 219693,-0.0064403,-0.0165299,0.0084221,-0.0879523,0.0123581,-0.0811539
 ,-0.0874047,-0.0812002,0.0245596,-0.061029,0.0386139,0.0533881,0.03081
 44,-0.0909635,0.0414141,0.0161569,0.0105506,0.0525004,0.0481048,-0.035
 0975,0.0606593,-0.1175342,0.0308714,-0.0790989,0.0585125,0.0439956,-0.
 0149951,-0.0319682,0.0066575,0.0710146,-0.0848509,-0.0135713,-0.096182
 2,0.045973,0.2955246,-0.0475464,-0.0312202,-0.0730325,0.296986,-0.0103
 913,-0.0585554,-0.008054,0.2725606\Polar=85.1075077,1.7561838,56.34928
 56,6.9921307,7.088465,64.5337113\Quadrupole=-2.3054315,0.6540686,1.651
 3629,-0.1983505,0.0158587,2.047977\PG=C01 [X(C5H10O2)]\NImag=0\\0.3665
 4046,-0.00834444,0.28699417,0.18875576,0.13045125,0.29536837,0.0003726
 2,-0.00273204,-0.00507350,0.42775170,0.00168382,0.00603563,0.01269182,
 0.02349296,0.31658294,0.00227876,0.01347258,0.00609892,0.05774172,0.29
 958888,0.35364535,-0.15763331,0.03934176,-0.05264118,0.00411581,-0.004
 39754,-0.00404842,0.46735394,0.06118390,-0.10444316,0.02168447,-0.0009
 4739,0.00093479,0.00102887,0.02751124,0.61955740,-0.04351958,0.0045411
 3,-0.09239448,0.00278678,0.00102391,-0.00012716,-0.01815150,-0.0004768
 9,0.50864322,-0.01531858,-0.01914321,-0.03872398,-0.00064225,0.0008987
 3,0.00083374,-0.07373192,0.00073164,0.00598365,0.59563333,0.00315335,0
 .00859407,0.01032417,-0.00008961,-0.00023003,0.00019040,-0.00666412,-0
 .13019428,-0.06778992,-0.00538844,0.54932794,-0.01412635,-0.01240627,-
 0.02543219,0.00004829,0.00008502,-0.00022126,-0.00217178,-0.05744889,-
 0.16230152,-0.00543284,-0.04409375,0.52729813,-0.04618876,0.00299784,0
 .00583709,-0.00062730,-0.00009662,-0.00019037,-0.14272212,-0.01601510,
 0.05817875,0.00256669,0.00185991,0.00544703,0.51740148,0.01628506,0.00
 310214,-0.00394990,0.00054353,-0.00020855,-0.00007401,-0.02122419,-0.0
 8678896,0.01263600,0.01606384,0.00230665,-0.01417356,-0.01429881,0.581
 47235,-0.02411755,-0.00159016,0.00896169,-0.00022558,-0.00052014,-0.00
 011058,0.06486718,0.00886671,-0.12943772,0.02658245,0.00195132,-0.0232
 5322,0.04729540,0.00939102,0.55794723,-0.12274413,-0.02425080,-0.05756
 560,-0.04176214,0.01452100,0.01297951,-0.02038668,-0.02646761,-0.02797
 223,-0.00340056,0.00063359,-0.00101758,-0.00070369,-0.00008779,-0.0001
 7332,0.92508871,-0.04463877,-0.17150719,-0.12644099,0.04271790,-0.0074
 8082,-0.01797001,-0.01161253,0.00806230,0.00131966,0.00386461,-0.00109
 406,0.00171501,0.00150033,-0.00007754,0.00345444,-0.05669174,0.3630975
 5,-0.06288420,-0.10583550,-0.15150536,0.03970120,-0.02074515,-0.002296
 11,-0.02176410,-0.00885950,-0.02820905,-0.00235183,0.00023579,-0.00110
 324,0.00326245,-0.00076815,0.00437623,0.02854709,0.25376918,0.38327804
 ,-0.02130626,-0.00811444,-0.00999616,-0.21286353,0.10288314,0.09188588
 ,-0.00053519,0.00030685,0.00201663,0.00074485,0.00057238,-0.00004236,-
 0.00011749,0.00002873,-0.00042246,-0.55002557,-0.03310585,-0.07542772,
 0.89759927,-0.04475658,-0.01290600,-0.03002545,0.06618771,-0.14156444,
 -0.09811840,0.00845351,-0.00535998,0.00034769,-0.00204162,0.00094011,-
 0.00047058,-0.00024019,0.00018206,-0.00046406,-0.00776067,-0.07281108,
 -0.02004375,0.02461725,0.39470950,-0.04616316,-0.02251085,-0.01756915,
 0.05545716,-0.09415468,-0.13900166,0.00612306,-0.00636009,-0.00027091,
 -0.00202131,0.00053074,-0.00039293,-0.00014630,0.00019248,-0.00080694,
 -0.05438487,-0.02385088,-0.08676337,0.09402268,0.29397467,0.44350611,-
 0.01135446,0.03359451,-0.01875695,-0.00003465,-0.00006256,-0.00024627,
 -0.05494868,-0.04075204,0.01083739,0.00064412,-0.00190506,0.00142666,-
 0.00345776,-0.02670385,0.00771577,0.00348026,0.00391207,0.00317138,-0.
 00103321,-0.00046786,0.00047023,0.06782477,0.00864307,-0.01047495,0.00
 797492,0.00024858,-0.00028873,-0.00053401,-0.03411601,-0.28118182,0.05
 672772,-0.00306029,-0.01688843,0.00250866,-0.00143375,-0.00208902,0.00
 037681,-0.00051507,0.00053554,-0.00308017,0.00001029,0.00126421,0.0011
 1338,0.03163094,0.30698365,-0.01054332,0.01866571,-0.00962561,0.000326
 18,-0.00020728,-0.00047483,0.01093186,0.05301268,-0.06523792,-0.003263
 50,-0.02899908,0.00646879,0.00555771,0.01999312,-0.00467356,0.00138980
 ,0.00320385,0.00248717,-0.00099776,-0.00035588,0.00000850,-0.00581175,
 -0.06326676,0.07496303,0.00049063,-0.00012678,0.00066065,-0.00001645,0
 .00010418,0.00001120,-0.00135933,-0.00267957,-0.00023449,-0.04867665,-
 0.01727555,0.00581485,-0.00011493,0.00097004,-0.00024425,-0.00028536,-
 0.00008301,-0.00015532,0.00010023,0.00002851,0.00001463,0.00065884,-0.
 00017982,-0.00043375,0.04727762,0.00017350,0.00187582,0.00053268,-0.00
 012293,0.00014653,0.00007359,-0.00103038,-0.02268116,0.00490948,-0.017
 59736,-0.29645008,0.06628294,-0.00042125,0.00092515,0.00112637,-0.0001
 5262,0.00049048,-0.00002769,0.00017900,-0.00003680,-0.00005200,-0.0001
 4298,-0.00041966,-0.00378853,0.01924119,0.32409707,0.00162504,0.001395
 12,0.00215685,-0.00004399,-0.00001699,0.00006933,-0.00179219,-0.030424
 03,0.00611507,0.00538565,0.06858497,-0.06471314,-0.00097040,-0.0005653
 6,0.00194399,-0.00011008,-0.00012673,-0.00030724,0.00012924,0.00016972
 ,0.00008031,-0.00058495,-0.00294892,-0.00452655,-0.00611790,-0.0701855
 2,0.06892059,0.00148471,-0.00009278,0.00002171,0.00008925,-0.00007624,
 -0.00002597,0.00069394,0.00056407,-0.00312081,-0.22761916,-0.02999943,
 0.12692007,0.00063549,0.00055297,-0.00021707,0.00011402,-0.00011736,-0
 .00007916,-0.00003525,0.00007945,0.00009973,0.00031402,0.00053252,0.00
 029307,-0.00094481,0.00000149,-0.00032090,0.24394955,0.00020694,0.0002
 8087,0.00171759,0.00007243,-0.00015162,-0.00007815,0.01783707,0.002042
 58,-0.01151515,-0.03177108,-0.05314622,0.02197454,-0.00112201,-0.00193
 276,-0.00316967,0.00016846,-0.00021529,0.00006585,-0.00017533,0.000115
 34,0.00010113,0.00050608,0.00063966,0.00084647,-0.02611405,-0.00268680
 ,0.01722331,0.03293425,0.05415365,0.00007034,0.00069743,0.00279220,-0.
 00008367,0.00010477,0.00031938,0.02391250,0.00500702,-0.01676868,0.124
 26188,0.02107050,-0.13414473,-0.00198942,-0.00379433,-0.00427249,-0.00
 026708,-0.00023428,-0.00008483,0.00022395,-0.00010161,-0.00013885,-0.0
 0045833,0.00016602,0.00116399,0.00576471,0.00054680,-0.00492134,-0.138
 28432,-0.02038119,0.14542427,0.00060214,-0.00115428,-0.00093116,-0.000
 11131,0.00005971,-0.00002746,-0.00312941,0.00090592,0.00079794,-0.2262
 5255,0.05685428,-0.11655930,-0.00023144,0.00032452,0.00040536,0.000691
 29,0.00058185,0.00025377,-0.00000660,-0.00008130,-0.00005211,0.0000962
 6,-0.00037554,-0.00015323,0.00280900,-0.00074612,0.00270784,-0.0191417
 5,0.00673543,-0.01435424,0.24400650,-0.00156954,-0.00194233,-0.0047714
 9,-0.00014851,0.00025329,0.00013661,-0.01537812,0.00537668,-0.00712421
 ,0.05812652,-0.06516221,0.03646470,-0.00000499,0.00028765,0.00040563,-
 0.00051671,0.00109512,-0.00048482,0.00010221,-0.00043889,-0.00034789,-
 0.00006606,0.00019372,0.00102705,0.02616254,-0.00603520,0.01590830,-0.
 00405542,-0.00002346,-0.00315599,-0.06273369,0.06655072,-0.00234867,-0
 .00493132,-0.00584154,-0.00027288,0.00031037,0.00029463,-0.02060903,0.
 01180315,-0.01047128,-0.11393254,0.03496999,-0.12224411,-0.00030307,0.
 00066914,0.00080066,-0.00064833,0.00143753,0.00007071,0.00022036,-0.00
 068332,-0.00072004,0.00015430,-0.00031235,0.00089516,-0.00548427,0.001
 21149,-0.00474013,0.01500206,-0.00562577,0.01125197,0.12738922,-0.0380
 4693,0.13106992,0.00327458,0.00089821,-0.00080034,0.00002491,0.0000253
 5,-0.00002443,-0.00516374,-0.02892948,0.00890422,0.00079450,-0.0006316
 5,-0.00148472,-0.04862263,-0.02460756,0.00531461,-0.00031254,-0.000320
 45,-0.00056547,0.00009054,0.00013776,0.00011428,-0.00412250,-0.0001605
 2,0.00340921,0.00024753,0.00071772,0.00021015,0.00000080,0.00012504,-0
 .00031133,0.00001546,0.00016119,0.00000502,0.05119938,-0.00046165,0.00
 131630,-0.00114085,-0.00016106,0.00009611,0.00008190,-0.00037478,-0.00
 580438,0.00190537,0.00042366,0.00105009,-0.00054905,-0.02606994,-0.298
 18509,0.06274295,-0.00007221,-0.00018937,-0.00008777,0.00012351,0.0000
 2995,0.00001010,-0.00049833,0.00140692,0.00027926,0.00008544,0.0004135
 5,0.00052391,-0.00000261,0.00026616,-0.00010029,-0.00015498,-0.0000112
 9,0.00000217,0.02942767,0.32237488,-0.00115232,-0.00131513,0.00123364,
 -0.00001087,-0.00001597,-0.00002272,0.00178436,0.02164614,-0.00722650,
 -0.00061361,0.00130683,0.00092760,0.00657205,0.06171564,-0.06298169,-0
 .00017049,-0.00048816,-0.00041934,-0.00012346,0.00012151,0.00005852,0.
 00356574,-0.00020612,-0.00170837,0.00031665,-0.00065402,-0.00029065,-0
 .00017415,-0.00035582,0.00023953,-0.00001770,0.00004441,-0.00007237,-0
 .01045204,-0.06962605,0.06658797,0.00265773,-0.00038666,-0.00159536,0.
 00049053,-0.00023181,-0.00034413,0.00378973,0.01686809,0.02345096,-0.0
 0482870,-0.00131882,0.00236409,-0.04922550,-0.01385369,-0.02086190,-0.
 00083640,0.00008189,0.00022967,-0.00043589,-0.00002457,-0.00004184,0.0
 0094846,-0.00016880,-0.00105390,-0.00009988,-0.00009281,-0.00016178,0.
 00014656,0.00084251,0.00154693,0.00021879,-0.00017592,0.00016889,-0.00
 146782,-0.00116957,-0.00247096,0.05245849,0.00049121,-0.00029256,-0.00
 024170,-0.00018574,0.00018930,0.00003859,0.00159091,0.00193509,0.00511
 515,-0.00048661,0.00063074,0.00026607,-0.01375671,-0.12752592,-0.12288
 479,-0.00013790,-0.00049520,-0.00030245,0.00013353,0.00001735,0.000220
 99,0.00079178,0.00039625,-0.00001727,-0.00017440,0.00048589,0.00030058
 ,-0.00021811,0.00053632,0.00001028,-0.00021062,-0.00011831,-0.00012042
 ,-0.00308441,-0.01525828,-0.02669501,0.01619653,0.13378276,-0.00029204
 ,0.00066308,0.00137202,-0.00039383,0.00024471,0.00019159,-0.00448597,-
 0.01061542,-0.01673860,0.00412087,0.00164396,-0.00122438,-0.01901282,-
 0.12252751,-0.23638538,-0.00037467,-0.00092359,-0.00063751,0.00027043,
 0.00026775,0.00035017,-0.00023504,0.00027751,0.00043325,-0.00003062,-0
 .00006738,0.00009411,0.00003319,-0.00099120,-0.00090631,0.00002074,0.0
 0015891,0.00041468,0.00076397,0.00469198,0.00797400,0.02076796,0.13501
 270,0.25684507,-0.00782148,-0.00102057,0.00215799,-0.00036578,0.000067
 97,0.00011678,-0.01709548,0.00899909,-0.01652543,0.00071508,0.00010601
 ,-0.00112243,-0.22877430,0.06669150,-0.10651665,0.00070831,0.00162653,
 0.00184105,-0.00003364,-0.00033893,-0.00041290,0.00067351,-0.00080371,
 0.00005690,-0.00003505,-0.00006451,0.00010456,0.00030283,-0.00033198,0
 .00009878,0.00037773,0.00013903,0.00075403,0.00402181,-0.00114970,0.00
 286664,-0.00169585,0.00001692,-0.00062452,0.24852884,-0.00110838,0.001
 41723,0.00008023,-0.00014189,0.00005759,-0.00001722,-0.00341838,-0.000
 83723,-0.00244590,0.00010225,-0.00007437,0.00004989,0.06721456,-0.0713
 4832,0.04065175,-0.00004002,-0.00006130,-0.00017205,0.00008372,0.00013
 321,0.00018746,0.00037311,-0.00005415,-0.00033531,0.00012670,0.0000159
 1,0.00006164,-0.00016664,-0.00007806,-0.00008835,0.00012929,0.00020053
 ,-0.00040709,0.02629441,-0.00741648,0.01445811,-0.01581308,0.00526135,
 -0.00799963,-0.07377384,0.07266358,0.00624472,-0.00033487,-0.00046763,
 -0.00013412,0.00020975,0.00014182,0.01307952,-0.00695111,0.00991261,-0
 .00036114,-0.00014928,0.00020523,-0.10884822,0.04112386,-0.11162882,-0
 .00000033,-0.00083476,-0.00092109,0.00027519,0.00013937,0.00028092,-0.
 00084869,0.00035823,0.00057486,0.00000902,-0.00009932,-0.00002440,-0.0
 0011898,0.00010923,0.00024301,0.00051000,-0.00020422,-0.00048921,-0.00
 531962,0.00107754,-0.00441246,-0.02182662,0.00931361,-0.01239588,0.117
 43364,-0.04414160,0.11881355,0.01125534,-0.01034495,-0.00922247,-0.004
 00104,-0.00079288,-0.00266019,0.00172436,0.00000808,-0.00081992,-0.000
 19249,-0.00001920,0.00002182,-0.00029189,-0.00049970,0.00020178,-0.185
 10452,0.10450834,0.09940273,-0.01095525,0.01763601,0.01925562,-0.00007
 004,-0.00010939,0.00002169,0.00003162,0.00007920,-0.00004173,0.0000076
 1,0.00002737,0.00007794,-0.00007593,0.00003003,-0.00001550,0.00007451,
 0.00003710,0.00007722,-0.00208159,-0.00092856,-0.00048838,0.00027228,0
 .00013556,0.00001577,0.18941782,0.00918103,-0.01468062,-0.01744703,-0.
 00181997,0.00765846,-0.00389402,0.00289137,-0.00035604,0.00170380,-0.0
 0050674,0.00014449,-0.00006514,-0.00000332,-0.00019462,-0.00038649,0.1
 0243264,-0.12229609,-0.09460184,-0.00169861,0.00135093,0.00213827,-0.0
 0029602,0.00031396,-0.00002105,0.00008462,0.00001479,0.00006458,-0.000
 00805,0.00004677,0.00017898,-0.00011640,-0.00005251,-0.00017012,0.0000
 1411,-0.00003455,0.00004052,-0.00078910,0.00050963,0.00022833,-0.00010
 353,0.00017758,0.00040470,-0.10857072,0.13027063,0.00727483,-0.0159173
 5,-0.01627692,-0.00224350,-0.00550941,0.00523312,0.00402193,-0.0020720
 6,0.00208389,-0.00036444,0.00046204,-0.00031338,-0.00037888,0.00008450
 ,-0.00016858,0.10034713,-0.09532450,-0.12098165,-0.00298057,0.00541922
 ,0.00491278,-0.00023989,0.00050844,-0.00075126,0.00008696,0.00018506,0
 .00014959,-0.00003536,-0.00000639,0.00015024,-0.00011501,-0.00002694,-
 0.00013213,0.00017056,0.00018668,0.00010017,-0.00032616,0.00000606,0.0
 0072022,-0.00010035,0.00010723,0.00015252,-0.10509616,0.10943783,0.127
 65297,-0.00546310,0.00233468,-0.00088482,0.01189038,0.01769352,0.01990
 031,0.00045915,-0.00157047,0.00024737,-0.00042282,0.00023396,-0.000153
 14,-0.00020006,0.00006736,-0.00022619,-0.00235363,-0.01873878,-0.02021
 470,-0.11765197,-0.08011275,-0.09313246,-0.00004435,0.00008269,-0.0000
 6593,0.00001226,0.00000769,0.00004075,0.00002300,0.00000737,0.00000087
 ,-0.00000500,-0.00006910,-0.00014321,0.00001771,-0.00000206,0.00000291
 ,-0.00000092,0.00000065,0.00003133,-0.00009182,0.00000006,0.00005984,-
 0.00017766,0.00022923,0.00040505,0.11671000,0.00160748,0.00798771,-0.0
 0203648,-0.00457498,-0.01310886,-0.01587462,-0.00030525,0.00001276,-0.
 00151163,-0.00024588,0.00012486,-0.00009128,0.00010027,-0.00001595,0.0
 0016166,-0.00027543,0.00088677,0.00001640,-0.07553804,-0.14547787,-0.1
 2705026,-0.00004301,-0.00024303,-0.00005607,0.00000148,-0.00003275,-0.
 00000016,0.00000717,-0.00000187,0.00001701,-0.00001433,-0.00007542,-0.
 00005243,-0.00003410,-0.00000969,0.00000299,-0.00003197,-0.00002194,0.
 00000447,0.00004869,-0.00003171,-0.00001984,-0.00055139,-0.00229840,0.
 00227805,0.07662360,0.15185280,-0.00016214,-0.00527599,0.00371274,-0.0
 0431931,-0.01292904,-0.01303077,0.00023778,-0.00006820,0.00165108,0.00
 029330,-0.00012713,0.00009234,-0.00012763,0.00002540,-0.00017849,0.000
 95805,-0.00023069,0.00042460,-0.09030765,-0.12833423,-0.18103721,0.000
 03676,0.00019596,0.00003491,0.00001223,0.00003416,-0.00000313,-0.00000
 250,-0.00001716,0.00001995,0.00000640,0.00008236,0.00007772,0.00003083
 ,0.00000819,-0.00001332,0.00002924,0.00002744,0.00000503,-0.00004680,0
 .00002568,0.00003409,-0.00018348,0.00241531,-0.00191973,0.09112382,0.1
 4581743,0.18977122,0.00115185,-0.00345604,-0.00124168,-0.18431075,-0.1
 5577274,-0.17818066,-0.00143107,0.00028279,-0.00285971,-0.00001288,-0.
 00012162,0.00006769,0.00067421,-0.00025197,0.00062243,-0.00216736,0.00
 651499,0.00703317,0.01646496,0.01868427,0.02079756,0.00042541,-0.00022
 519,0.00033673,-0.00009527,-0.00002883,-0.00005932,-0.00002082,0.00005
 151,-0.00020951,0.00013682,-0.00000346,0.00006360,-0.00007250,0.000019
 52,0.,-0.00003772,-0.00003848,-0.00007061,0.00031299,0.00000257,-0.000
 16998,0.00016687,-0.00092054,-0.00042616,-0.00270116,0.00322570,0.0024
 2113,0.17151642,-0.00172999,-0.00135715,0.00059674,-0.12233900,-0.1689
 2157,-0.17805098,0.00089544,-0.00027458,0.00063378,0.00002999,0.000120
 73,-0.00004831,-0.00021021,0.00009074,-0.00011335,-0.00078712,0.002060
 17,0.00092162,-0.01040834,-0.02014759,-0.02414255,0.00012929,-0.000094
 10,0.00001908,-0.00017151,-0.00012273,0.00003558,0.00006472,0.00015472
 ,0.00005724,-0.00000373,-0.00009809,-0.00005411,-0.00003330,-0.0000448
 6,0.00002012,0.00006778,-0.00003248,-0.00006866,-0.00010897,-0.0000253
 6,-0.00000128,-0.00064489,-0.00057440,0.00018153,0.00321234,0.00045260
 ,-0.00164948,0.13203750,0.18881394,-0.00094009,0.00023115,-0.00258356,
 -0.14326008,-0.18016058,-0.21070905,0.00070598,0.00022717,0.00077794,-
 0.00039635,-0.00011155,0.00035200,-0.00018337,0.00002167,-0.00013233,-
 0.00153699,0.00152491,0.00259203,-0.00874622,-0.02184265,-0.02249628,-
 0.00019635,0.00014066,-0.00003157,0.00000971,-0.00002811,-0.00000327,0
 .00000939,0.00010240,-0.00036731,0.00011894,-0.00006549,-0.00016466,0.
 00003508,-0.00000605,0.00002596,0.00012489,-0.00004986,-0.00011210,-0.
 00008130,-0.00001485,-0.00001912,-0.00054675,-0.00002663,-0.00061185,0
 .00300820,-0.00160523,0.00035897,0.15187530,0.20166304,0.23312420\\0.0
 0000018,0.00000030,0.00000018,0.00000035,-0.00000080,-0.00000049,-0.00
 000013,-0.00000018,0.00000010,-0.00000044,-0.00000119,0.00000070,0.000
 00003,0.00000102,0.00000036,0.,0.00000042,-0.00000050,0.,0.00000023,-0
 .00000084,0.00000031,-0.00000048,-0.00000093,-0.00000081,-0.00000096,0
 .00000163,-0.00000053,-0.00000208,0.00000048,-0.00000046,-0.00000139,0
 .00000059,-0.00000028,0.00000133,0.00000118,0.00000035,0.00000172,-0.0
 0000030,0.00000009,0.00000089,0.00000013,0.00000077,0.00000133,-0.0000
 0112,0.00000082,0.00000080,-0.00000133,-0.00000026,-0.00000095,0.00000
 018\\\@


 SCIENCE AND PEACE WILL TRIUMPH OVER IGNORANCE AND WAR

                          -- PASTEUR
 Job cpu time:       0 days  2 hours 37 minutes  9.5 seconds.
 Elapsed time:       0 days  1 hours 18 minutes 35.7 seconds.
 File lengths (MBytes):  RWF=   1392 Int=      0 D2E=      0 Chk=     32 Scr=     32
 Normal termination of Gaussian 16 at Sun Sep 29 06:28:07 2019.
