 Entering Gaussian System, Link 0=g16
 Input=loose/species/CC(C)OC=CO/conformers/CC(C)OC=CO_53.com
 Output=loose/species/CC(C)OC=CO/conformers/CC(C)OC=CO_53.log
 Initial command:
 /shared/centos7/gaussian/g16/l1.exe "/scratch/harms.n/gauss_scrdir/Gau-37539.inp" -scrdir="/scratch/harms.n/gauss_scrdir/"
 Entering Link 1 = /shared/centos7/gaussian/g16/l1.exe PID=     37540.
  
 Copyright (c) 1988,1990,1992,1993,1995,1998,2003,2009,2016,
            Gaussian, Inc.  All Rights Reserved.
  
 This is part of the Gaussian(R) 16 program.  It is based on
 the Gaussian(R) 09 system (copyright 2009, Gaussian, Inc.),
 the Gaussian(R) 03 system (copyright 2003, Gaussian, Inc.),
 the Gaussian(R) 98 system (copyright 1998, Gaussian, Inc.),
 the Gaussian(R) 94 system (copyright 1995, Gaussian, Inc.),
 the Gaussian 92(TM) system (copyright 1992, Gaussian, Inc.),
 the Gaussian 90(TM) system (copyright 1990, Gaussian, Inc.),
 the Gaussian 88(TM) system (copyright 1988, Gaussian, Inc.),
 the Gaussian 86(TM) system (copyright 1986, Carnegie Mellon
 University), and the Gaussian 82(TM) system (copyright 1983,
 Carnegie Mellon University). Gaussian is a federally registered
 trademark of Gaussian, Inc.
  
 This software contains proprietary and confidential information,
 including trade secrets, belonging to Gaussian, Inc.
  
 This software is provided under written license and may be
 used, copied, transmitted, or stored only in accord with that
 written license.
  
 The following legend is applicable only to US Government
 contracts under FAR:
  
                    RESTRICTED RIGHTS LEGEND
  
 Use, reproduction and disclosure by the US Government is
 subject to restrictions as set forth in subparagraphs (a)
 and (c) of the Commercial Computer Software - Restricted
 Rights clause in FAR 52.227-19.
  
 Gaussian, Inc.
 340 Quinnipiac St., Bldg. 40, Wallingford CT 06492
  
  
 ---------------------------------------------------------------
 Warning -- This program may not be used in any manner that
 competes with the business of Gaussian, Inc. or will provide
 assistance to any competitor of Gaussian, Inc.  The licensee
 of this program is prohibited from giving any competitor of
 Gaussian, Inc. access to this program.  By using this program,
 the user acknowledges that Gaussian, Inc. is engaged in the
 business of creating and licensing software in the field of
 computational chemistry and represents and warrants to the
 licensee that it is not a competitor of Gaussian, Inc. and that
 it will not use this program in any manner prohibited above.
 ---------------------------------------------------------------
  

 Cite this work as:
 Gaussian 16, Revision A.03,
 M. J. Frisch, G. W. Trucks, H. B. Schlegel, G. E. Scuseria, 
 M. A. Robb, J. R. Cheeseman, G. Scalmani, V. Barone, 
 G. A. Petersson, H. Nakatsuji, X. Li, M. Caricato, A. V. Marenich, 
 J. Bloino, B. G. Janesko, R. Gomperts, B. Mennucci, H. P. Hratchian, 
 J. V. Ortiz, A. F. Izmaylov, J. L. Sonnenberg, D. Williams-Young, 
 F. Ding, F. Lipparini, F. Egidi, J. Goings, B. Peng, A. Petrone, 
 T. Henderson, D. Ranasinghe, V. G. Zakrzewski, J. Gao, N. Rega, 
 G. Zheng, W. Liang, M. Hada, M. Ehara, K. Toyota, R. Fukuda, 
 J. Hasegawa, M. Ishida, T. Nakajima, Y. Honda, O. Kitao, H. Nakai, 
 T. Vreven, K. Throssell, J. A. Montgomery, Jr., J. E. Peralta, 
 F. Ogliaro, M. J. Bearpark, J. J. Heyd, E. N. Brothers, K. N. Kudin, 
 V. N. Staroverov, T. A. Keith, R. Kobayashi, J. Normand, 
 K. Raghavachari, A. P. Rendell, J. C. Burant, S. S. Iyengar, 
 J. Tomasi, M. Cossi, J. M. Millam, M. Klene, C. Adamo, R. Cammi, 
 J. W. Ochterski, R. L. Martin, K. Morokuma, O. Farkas, 
 J. B. Foresman, and D. J. Fox, Gaussian, Inc., Wallingford CT, 2016.
 
 ******************************************
 Gaussian 16:  EM64L-G16RevA.03 25-Dec-2016
                29-Sep-2019 
 ******************************************
 %nprocshared=20
 Will use up to   20 processors via shared memory.
 %mem=5GB
 ----------------------------------------------------------------------
 #p m062x/cc-pVTZ opt=(calcfc,maxcycles=900,Tight) freq IOP(7/33=1,2/16
 =3) scf=(maxcycle=900)
 ----------------------------------------------------------------------
 1/6=900,7=10,10=4,18=20,19=15,26=3,38=1/1,3;
 2/9=110,12=2,16=3,17=6,18=5,40=1/2;
 3/5=16,6=1,11=2,25=1,30=1,71=2,74=-55,140=1/1,2,3;
 4//1;
 5/5=2,7=900,38=5/2;
 8/6=4,10=90,11=11/1;
 11/6=1,8=1,9=11,15=111,16=1/1,2,10;
 10/6=1,13=1/2;
 6/7=2,8=2,9=2,10=2,28=1/1;
 7/10=1,18=20,25=1,33=1/1,2,3,16;
 1/6=900,7=10,10=4,18=20,19=15,26=3/3(2);
 2/9=110,16=3/2;
 99//99;
 2/9=110,16=3/2;
 3/5=16,6=1,11=2,25=1,30=1,71=1,74=-55/1,2,3;
 4/5=5,16=3,69=1/1;
 5/5=2,7=900,38=5/2;
 7/33=1/1,2,3,16;
 1/6=900,7=10,18=20,19=15,26=3/3(-5);
 2/9=110,16=3/2;
 6/7=2,8=2,9=2,10=2,19=2,28=1/1;
 99/9=1/99;
 Leave Link    1 at Sun Sep 29 06:28:13 2019, MaxMem=   671088640 cpu:               4.3 elap:               2.2
 (Enter /shared/centos7/gaussian/g16/l101.exe)
 ------------------------------
 Gaussian input prepared by ASE
 ------------------------------
 Symbolic Z-matrix:
 Charge =  0 Multiplicity = 1
 O                    -0.04324  -1.31382   1.69885 
 O                     3.36366  -1.17364   0.50245 
 C                    -1.00129  -0.44014   2.25806 
 C                    -2.32898  -0.67727   1.53832 
 C                    -0.62151   1.0028    2.31942 
 C                     1.16699  -0.79936   1.29319 
 C                     2.13603  -1.60933   0.97857 
 H                    -1.13989  -0.78138   3.3214 
 H                    -2.17048  -1.35376   0.67261 
 H                    -3.08072  -1.14213   2.20185 
 H                    -2.75756   0.28188   1.13959 
 H                    -0.96866   1.57121   1.40669 
 H                     0.47808   1.14263   2.37783 
 H                    -1.06802   1.49148   3.23122 
 H                     1.23665   0.2956    1.19347 
 H                     2.02678  -2.68118   1.0535 
 H                     4.0361   -1.86231   0.77691 
 
 ITRead=  0  0  0  0  0  0  0  0  0  0  0  0  0  0  0  0  0
 MicOpt= -1 -1 -1 -1 -1 -1 -1 -1 -1 -1 -1 -1 -1 -1 -1 -1 -1
 NAtoms=     17 NQM=       17 NQMF=       0 NMMI=      0 NMMIF=      0
                NMic=       0 NMicF=      0.
                    Isotopes and Nuclear Properties:
 (Nuclear quadrupole moments (NQMom) in fm**2, nuclear magnetic moments (NMagM)
  in nuclear magnetons)

  Atom         1           2           3           4           5           6           7           8           9          10
 IAtWgt=          16          16          12          12          12          12          12           1           1           1
 AtmWgt=  15.9949146  15.9949146  12.0000000  12.0000000  12.0000000  12.0000000  12.0000000   1.0078250   1.0078250   1.0078250
 NucSpn=           0           0           0           0           0           0           0           1           1           1
 AtZEff=  -0.0000000  -0.0000000  -0.0000000  -0.0000000  -0.0000000  -0.0000000  -0.0000000  -0.0000000  -0.0000000  -0.0000000
 NQMom=    0.0000000   0.0000000   0.0000000   0.0000000   0.0000000   0.0000000   0.0000000   0.0000000   0.0000000   0.0000000
 NMagM=    0.0000000   0.0000000   0.0000000   0.0000000   0.0000000   0.0000000   0.0000000   2.7928460   2.7928460   2.7928460
 AtZNuc=   8.0000000   8.0000000   6.0000000   6.0000000   6.0000000   6.0000000   6.0000000   1.0000000   1.0000000   1.0000000

  Atom        11          12          13          14          15          16          17
 IAtWgt=           1           1           1           1           1           1           1
 AtmWgt=   1.0078250   1.0078250   1.0078250   1.0078250   1.0078250   1.0078250   1.0078250
 NucSpn=           1           1           1           1           1           1           1
 AtZEff=  -0.0000000  -0.0000000  -0.0000000  -0.0000000  -0.0000000  -0.0000000  -0.0000000
 NQMom=    0.0000000   0.0000000   0.0000000   0.0000000   0.0000000   0.0000000   0.0000000
 NMagM=    2.7928460   2.7928460   2.7928460   2.7928460   2.7928460   2.7928460   2.7928460
 AtZNuc=   1.0000000   1.0000000   1.0000000   1.0000000   1.0000000   1.0000000   1.0000000
 Leave Link  101 at Sun Sep 29 06:28:14 2019, MaxMem=   671088640 cpu:               2.2 elap:               1.1
 (Enter /shared/centos7/gaussian/g16/l103.exe)

 GradGradGradGradGradGradGradGradGradGradGradGradGradGradGradGradGradGrad
 Berny optimization.
 Initialization pass.
                           ----------------------------
                           !    Initial Parameters    !
                           ! (Angstroms and Degrees)  !
 --------------------------                            --------------------------
 ! Name  Definition              Value          Derivative Info.                !
 --------------------------------------------------------------------------------
 ! R1    R(1,3)                  1.412          calculate D2E/DX2 analytically  !
 ! R2    R(1,6)                  1.3762         calculate D2E/DX2 analytically  !
 ! R3    R(2,7)                  1.3869         calculate D2E/DX2 analytically  !
 ! R4    R(2,17)                 1.0009         calculate D2E/DX2 analytically  !
 ! R5    R(3,4)                  1.5287         calculate D2E/DX2 analytically  !
 ! R6    R(3,5)                  1.4933         calculate D2E/DX2 analytically  !
 ! R7    R(3,8)                  1.1253         calculate D2E/DX2 analytically  !
 ! R8    R(4,9)                  1.1101         calculate D2E/DX2 analytically  !
 ! R9    R(4,10)                 1.1052         calculate D2E/DX2 analytically  !
 ! R10   R(4,11)                 1.1237         calculate D2E/DX2 analytically  !
 ! R11   R(5,12)                 1.1299         calculate D2E/DX2 analytically  !
 ! R12   R(5,13)                 1.11           calculate D2E/DX2 analytically  !
 ! R13   R(5,14)                 1.1267         calculate D2E/DX2 analytically  !
 ! R14   R(6,7)                  1.3016         calculate D2E/DX2 analytically  !
 ! R15   R(6,15)                 1.1017         calculate D2E/DX2 analytically  !
 ! R16   R(7,16)                 1.08           calculate D2E/DX2 analytically  !
 ! A1    A(3,1,6)              118.823          calculate D2E/DX2 analytically  !
 ! A2    A(7,2,17)             106.5229         calculate D2E/DX2 analytically  !
 ! A3    A(1,3,4)              107.8684         calculate D2E/DX2 analytically  !
 ! A4    A(1,3,5)              116.2042         calculate D2E/DX2 analytically  !
 ! A5    A(1,3,8)              105.6737         calculate D2E/DX2 analytically  !
 ! A6    A(4,3,5)              112.9604         calculate D2E/DX2 analytically  !
 ! A7    A(4,3,8)              106.91           calculate D2E/DX2 analytically  !
 ! A8    A(5,3,8)              106.5886         calculate D2E/DX2 analytically  !
 ! A9    A(3,4,9)              109.7369         calculate D2E/DX2 analytically  !
 ! A10   A(3,4,10)             111.9206         calculate D2E/DX2 analytically  !
 ! A11   A(3,4,11)             111.4637         calculate D2E/DX2 analytically  !
 ! A12   A(9,4,10)             107.9994         calculate D2E/DX2 analytically  !
 ! A13   A(9,4,11)             107.3322         calculate D2E/DX2 analytically  !
 ! A14   A(10,4,11)            108.2181         calculate D2E/DX2 analytically  !
 ! A15   A(3,5,12)             112.0093         calculate D2E/DX2 analytically  !
 ! A16   A(3,5,13)             112.0751         calculate D2E/DX2 analytically  !
 ! A17   A(3,5,14)             110.5816         calculate D2E/DX2 analytically  !
 ! A18   A(12,5,13)            106.4689         calculate D2E/DX2 analytically  !
 ! A19   A(12,5,14)            108.2857         calculate D2E/DX2 analytically  !
 ! A20   A(13,5,14)            107.1786         calculate D2E/DX2 analytically  !
 ! A21   A(1,6,7)              119.5614         calculate D2E/DX2 analytically  !
 ! A22   A(1,6,15)             116.9893         calculate D2E/DX2 analytically  !
 ! A23   A(7,6,15)             123.336          calculate D2E/DX2 analytically  !
 ! A24   A(2,7,6)              123.1268         calculate D2E/DX2 analytically  !
 ! A25   A(2,7,16)             115.1581         calculate D2E/DX2 analytically  !
 ! A26   A(6,7,16)             121.7035         calculate D2E/DX2 analytically  !
 ! D1    D(6,1,3,4)            129.9147         calculate D2E/DX2 analytically  !
 ! D2    D(6,1,3,5)              1.9283         calculate D2E/DX2 analytically  !
 ! D3    D(6,1,3,8)           -116.0141         calculate D2E/DX2 analytically  !
 ! D4    D(3,1,6,7)            168.9975         calculate D2E/DX2 analytically  !
 ! D5    D(3,1,6,15)           -14.7431         calculate D2E/DX2 analytically  !
 ! D6    D(17,2,7,6)           151.664          calculate D2E/DX2 analytically  !
 ! D7    D(17,2,7,16)          -29.5566         calculate D2E/DX2 analytically  !
 ! D8    D(1,3,4,9)             -8.3245         calculate D2E/DX2 analytically  !
 ! D9    D(1,3,4,10)           111.5601         calculate D2E/DX2 analytically  !
 ! D10   D(1,3,4,11)          -127.0854         calculate D2E/DX2 analytically  !
 ! D11   D(5,3,4,9)            121.5008         calculate D2E/DX2 analytically  !
 ! D12   D(5,3,4,10)          -118.6146         calculate D2E/DX2 analytically  !
 ! D13   D(5,3,4,11)             2.7399         calculate D2E/DX2 analytically  !
 ! D14   D(8,3,4,9)           -121.571          calculate D2E/DX2 analytically  !
 ! D15   D(8,3,4,10)            -1.6863         calculate D2E/DX2 analytically  !
 ! D16   D(8,3,4,11)           119.6682         calculate D2E/DX2 analytically  !
 ! D17   D(1,3,5,12)            92.3653         calculate D2E/DX2 analytically  !
 ! D18   D(1,3,5,13)           -27.2318         calculate D2E/DX2 analytically  !
 ! D19   D(1,3,5,14)          -146.7523         calculate D2E/DX2 analytically  !
 ! D20   D(4,3,5,12)           -33.0787         calculate D2E/DX2 analytically  !
 ! D21   D(4,3,5,13)          -152.6758         calculate D2E/DX2 analytically  !
 ! D22   D(4,3,5,14)            87.8037         calculate D2E/DX2 analytically  !
 ! D23   D(8,3,5,12)          -150.1966         calculate D2E/DX2 analytically  !
 ! D24   D(8,3,5,13)            90.2064         calculate D2E/DX2 analytically  !
 ! D25   D(8,3,5,14)           -29.3141         calculate D2E/DX2 analytically  !
 ! D26   D(1,6,7,2)            176.9395         calculate D2E/DX2 analytically  !
 ! D27   D(1,6,7,16)            -1.7619         calculate D2E/DX2 analytically  !
 ! D28   D(15,6,7,2)             0.9296         calculate D2E/DX2 analytically  !
 ! D29   D(15,6,7,16)         -177.7718         calculate D2E/DX2 analytically  !
 --------------------------------------------------------------------------------
 Trust Radius=3.00D-01 FncErr=1.00D-07 GrdErr=1.00D-06 EigMax=2.50D+02 EigMin=1.00D-04
 Number of steps in this run=    102 maximum allowed number of steps=    102.
 GradGradGradGradGradGradGradGradGradGradGradGradGradGradGradGradGradGrad

 Leave Link  103 at Sun Sep 29 06:28:15 2019, MaxMem=   671088640 cpu:               1.6 elap:               0.8
 (Enter /shared/centos7/gaussian/g16/l202.exe)
                          Input orientation:                          
 ---------------------------------------------------------------------
 Center     Atomic      Atomic             Coordinates (Angstroms)
 Number     Number       Type             X           Y           Z
 ---------------------------------------------------------------------
      1          8           0       -0.043239   -1.313817    1.698852
      2          8           0        3.363657   -1.173636    0.502450
      3          6           0       -1.001289   -0.440143    2.258058
      4          6           0       -2.328978   -0.677272    1.538319
      5          6           0       -0.621511    1.002796    2.319420
      6          6           0        1.166995   -0.799360    1.293186
      7          6           0        2.136027   -1.609325    0.978566
      8          1           0       -1.139893   -0.781381    3.321397
      9          1           0       -2.170482   -1.353760    0.672608
     10          1           0       -3.080724   -1.142131    2.201848
     11          1           0       -2.757555    0.281876    1.139588
     12          1           0       -0.968663    1.571211    1.406690
     13          1           0        0.478084    1.142631    2.377828
     14          1           0       -1.068021    1.491476    3.231221
     15          1           0        1.236651    0.295601    1.193469
     16          1           0        2.026783   -2.681180    1.053504
     17          1           0        4.036102   -1.862312    0.776906
 ---------------------------------------------------------------------
                    Distance matrix (angstroms):
                    1          2          3          4          5
     1  O    0.000000
     2  O    3.613581   0.000000
     3  C    1.412047   4.761609   0.000000
     4  C    2.378143   5.807365   1.528729   0.000000
     5  C    2.467023   4.890787   1.493342   2.519562   0.000000
     6  C    1.376189   2.364460   2.400305   3.506682   2.738553
     7  C    2.314160   1.386935   3.584248   4.595466   4.028037
     8  H    2.029481   5.327503   1.125320   2.145723   2.110916
     9  H    2.362189   5.539684   2.171488   1.110050   3.265679
    10  H    3.083634   6.664757   2.195449   1.105209   3.265312
    11  H    3.197894   6.324057   2.203805   1.123668   2.544487
    12  H    3.043872   5.207766   2.184362   2.631247   1.129905
    13  H    2.601331   4.148332   2.169807   3.449119   1.109989
    14  H    3.356785   5.847118   2.163944   3.026450   1.126748
    15  H    2.117488   2.675878   2.585158   3.712022   2.284875
    16  H    2.563424   2.088919   3.955049   4.819060   4.710380
    17  H    4.218039   1.000891   5.439823   6.519073   5.681685
                    6          7          8          9         10
     6  C    0.000000
     7  C    1.301558   0.000000
     8  H    3.071757   4.111691   0.000000
     9  H    3.439655   4.324920   2.899278   0.000000
    10  H    4.357323   5.378585   2.269439   1.792178   0.000000
    11  H    4.073666   5.248782   2.916786   1.799453   1.805721
    12  H    3.192730   4.465221   3.038110   3.246337   3.529207
    13  H    2.328599   3.504279   2.685144   4.019284   4.232756
    14  H    3.741551   4.995533   2.275781   3.982121   3.470802
    15  H    1.101697   2.117500   3.366887   3.821026   4.660861
    16  H    2.082769   1.080011   4.333637   4.418615   5.456555
    17  H    3.102932   1.927422   5.868030   6.228257   7.293718
                   11         12         13         14         15
    11  H    0.000000
    12  H    2.221231   0.000000
    13  H    3.569804   1.794399   0.000000
    14  H    2.948320   1.828973   1.800116   0.000000
    15  H    3.994593   2.556570   1.641824   3.300615   0.000000
    16  H    5.628232   5.213470   4.332878   5.633056   3.083038
    17  H    7.133222   6.101916   4.924644   6.582069   3.559079
                   16         17
    16  H    0.000000
    17  H    2.187331   0.000000
 Stoichiometry    C5H10O2
 Framework group  C1[X(C5H10O2)]
 Deg. of freedom    45
 Full point group                 C1      NOp   1
 Largest Abelian subgroup         C1      NOp   1
 Largest concise Abelian subgroup C1      NOp   1
                         Standard orientation:                         
 ---------------------------------------------------------------------
 Center     Atomic      Atomic             Coordinates (Angstroms)
 Number     Number       Type             X           Y           Z
 ---------------------------------------------------------------------
      1          8           0        0.244756   -0.652799   -0.310568
      2          8           0       -3.202938    0.246805    0.291169
      3          6           0        1.503332   -0.016704   -0.383006
      4          6           0        2.498044   -0.851752    0.423378
      5          6           0        1.531698    1.432089   -0.022084
      6          6           0       -0.856855    0.093932    0.039774
      7          6           0       -2.047096   -0.415049   -0.095571
      8          1           0        1.817022   -0.085318   -1.461540
      9          1           0        1.957344   -1.647861    0.976612
     10          1           0        3.250318   -1.336937   -0.224823
     11          1           0        3.040123   -0.225487    1.182702
     12          1           0        1.767352    1.591525    1.071412
     13          1           0        0.556367    1.927815   -0.209326
     14          1           0        2.305068    1.977560   -0.633576
     15          1           0       -0.668768    1.083859    0.485201
     16          1           0       -2.198694   -1.403361   -0.503836
     17          1           0       -3.935417   -0.088940   -0.302576
 ---------------------------------------------------------------------
 Rotational constants (GHZ):           6.7471928           1.1910015           1.0709144
 Leave Link  202 at Sun Sep 29 06:28:17 2019, MaxMem=   671088640 cpu:               3.9 elap:               2.0
 (Enter /shared/centos7/gaussian/g16/l301.exe)
 Standard basis: CC-pVTZ (5D, 7F)
 Ernie: Thresh=  0.10000D-02 Tol=  0.10000D-05 Strict=F.
 Ernie:  21 primitive shells out of 262 were deleted.
 There are   395 symmetry adapted cartesian basis functions of A   symmetry.
 There are   350 symmetry adapted basis functions of A   symmetry.
   350 basis functions,   534 primitive gaussians,   395 cartesian basis functions
    28 alpha electrons       28 beta electrons
       nuclear repulsion energy       308.2861828224 Hartrees.
 IExCor= 4336 DFT=T Ex+Corr=M062X ExCW=0 ScaHFX=  0.540000
 ScaDFX=  1.000000  1.000000  1.000000  1.000000 ScalE2=  1.000000  1.000000
 IRadAn=      5 IRanWt=     -1 IRanGd=            0 ICorTp=0 IEmpDi=  4
 NAtoms=   17 NActive=   17 NUniq=   17 SFac= 1.00D+00 NAtFMM=   60 NAOKFM=F Big=F
 Integral buffers will be    131072 words long.
 Raffenetti 2 integral format.
 Two-electron integral symmetry is turned on.
 Leave Link  301 at Sun Sep 29 06:28:17 2019, MaxMem=   671088640 cpu:               1.4 elap:               0.7
 (Enter /shared/centos7/gaussian/g16/l302.exe)
 NPDir=0 NMtPBC=     1 NCelOv=     1 NCel=       1 NClECP=     1 NCelD=      1
         NCelK=      1 NCelE2=     1 NClLst=     1 CellRange=     0.0.
 One-electron integrals computed using PRISM.
 One-electron integral symmetry used in STVInt
 NBasis=   350 RedAO= T EigKep=  2.46D-04  NBF=   350
 NBsUse=   350 1.00D-06 EigRej= -1.00D+00 NBFU=   350
 Precomputing XC quadrature grid using
 IXCGrd= 4 IRadAn=           5 IRanWt=          -1 IRanGd=           0 AccXCQ= 0.00D+00.
 Generated NRdTot=       0 NPtTot=           0 NUsed=           0 NTot=          32
 NSgBfM=   395   395   395   395   395 MxSgAt=    17 MxSgA2=    17.
 Leave Link  302 at Sun Sep 29 06:29:12 2019, MaxMem=   671088640 cpu:             110.0 elap:              55.0
 (Enter /shared/centos7/gaussian/g16/l303.exe)
 DipDrv:  MaxL=1.
 Leave Link  303 at Sun Sep 29 06:29:17 2019, MaxMem=   671088640 cpu:               9.2 elap:               4.6
 (Enter /shared/centos7/gaussian/g16/l401.exe)
 ExpMin= 1.03D-01 ExpMax= 1.53D+04 ExpMxC= 5.22D+02 IAcc=3 IRadAn=         5 AccDes= 0.00D+00
 Harris functional with IExCor= 1009 and IRadAn=       5 diagonalized for initial guess.
 HarFok:  IExCor= 1009 AccDes= 0.00D+00 IRadAn=         5 IDoV= 1 UseB2=F ITyADJ=14
 ICtDFT=  3500011 ScaDFX=  1.000000  1.000000  1.000000  1.000000
 FoFCou: FMM=F IPFlag=           0 FMFlag=      100000 FMFlg1=           0
         NFxFlg=           0 DoJE=T BraDBF=F KetDBF=T FulRan=T
         wScrn=  0.000000 ICntrl=       500 IOpCl=  0 I1Cent=   200000004 NGrid=           0
         NMat0=    1 NMatS0=      1 NMatT0=    0 NMatD0=    1 NMtDS0=    0 NMtDT0=    0
 Petite list used in FoFCou.
 Harris En= -346.797086803658    
 JPrj=0 DoOrth=F DoCkMO=F.
 Leave Link  401 at Sun Sep 29 06:29:46 2019, MaxMem=   671088640 cpu:              58.4 elap:              29.2
 (Enter /shared/centos7/gaussian/g16/l502.exe)
 Integral symmetry usage will be decided dynamically.
 Closed shell SCF:
 Using DIIS extrapolation, IDIIS=  1040.
 NGot=   671088640 LenX=   670765141 LenY=   670608675
 Requested convergence on RMS density matrix=1.00D-08 within 900 cycles.
 Requested convergence on MAX density matrix=1.00D-06.
 Requested convergence on             energy=1.00D-06.
 No special actions if energy rises.
 Fock matrices will be formed incrementally for  20 cycles.
 Integral accuracy reduced to 1.0D-05 until final iterations.

 Cycle   1  Pass 0  IDiag  1:
 FoFJK:  IHMeth= 1 ICntrl=       0 DoSepK=F KAlg= 0 I1Cent=           0 FoldK=F
 IRaf= 930000000 NMat=       1 IRICut=       1 DoRegI=T DoRafI=F ISym2E= 0 IDoP0=0 IntGTp=1.
 FoFCou: FMM=F IPFlag=           0 FMFlag=      100000 FMFlg1=           0
         NFxFlg=           0 DoJE=F BraDBF=F KetDBF=F FulRan=T
         wScrn=  0.000000 ICntrl=         0 IOpCl=  0 I1Cent=           0 NGrid=           0
         NMat0=    1 NMatS0=      1 NMatT0=    0 NMatD0=    1 NMtDS0=    0 NMtDT0=    0
 Symmetry not used in FoFCou.
 E= -346.681373512775    
 DIIS: error= 1.66D-02 at cycle   1 NSaved=   1.
 NSaved= 1 IEnMin= 1 EnMin= -346.681373512775     IErMin= 1 ErrMin= 1.66D-02
 ErrMax= 1.66D-02  0.00D+00 EMaxC= 1.00D-01 BMatC= 2.87D-01 BMatP= 2.87D-01
 IDIUse=3 WtCom= 8.34D-01 WtEn= 1.66D-01
 Coeff-Com:  0.100D+01
 Coeff-En:   0.100D+01
 Coeff:      0.100D+01
 Gap=     0.338 Goal=   None    Shift=    0.000
 GapD=    0.338 DampG=1.000 DampE=0.500 DampFc=0.5000 IDamp=-1.
 Damping current iteration by 5.00D-01
 RMSDP=2.53D-03 MaxDP=2.45D-01              OVMax= 1.35D-01

 Cycle   2  Pass 0  IDiag  1:
 RMSU=  1.26D-03    CP:  1.00D+00
 E= -346.800728746908     Delta-E=       -0.119355234133 Rises=F Damp=T
 DIIS: error= 5.22D-03 at cycle   2 NSaved=   2.
 NSaved= 2 IEnMin= 2 EnMin= -346.800728746908     IErMin= 2 ErrMin= 5.22D-03
 ErrMax= 5.22D-03  0.00D+00 EMaxC= 1.00D-01 BMatC= 2.11D-02 BMatP= 2.87D-01
 IDIUse=3 WtCom= 9.48D-01 WtEn= 5.22D-02
 Coeff-Com: -0.133D+00 0.113D+01
 Coeff-En:   0.000D+00 0.100D+01
 Coeff:     -0.126D+00 0.113D+01
 Gap=     0.319 Goal=   None    Shift=    0.000
 RMSDP=4.91D-04 MaxDP=4.54D-02 DE=-1.19D-01 OVMax= 6.53D-02

 Cycle   3  Pass 0  IDiag  1:
 RMSU=  4.60D-04    CP:  1.01D+00  8.63D-01
 E= -346.907937996281     Delta-E=       -0.107209249373 Rises=F Damp=F
 DIIS: error= 2.33D-03 at cycle   3 NSaved=   3.
 NSaved= 3 IEnMin= 3 EnMin= -346.907937996281     IErMin= 3 ErrMin= 2.33D-03
 ErrMax= 2.33D-03  0.00D+00 EMaxC= 1.00D-01 BMatC= 3.28D-03 BMatP= 2.11D-02
 IDIUse=3 WtCom= 9.77D-01 WtEn= 2.33D-02
 Coeff-Com: -0.789D-01 0.297D+00 0.782D+00
 Coeff-En:   0.000D+00 0.000D+00 0.100D+01
 Coeff:     -0.771D-01 0.290D+00 0.787D+00
 Gap=     0.321 Goal=   None    Shift=    0.000
 RMSDP=1.99D-04 MaxDP=2.01D-02 DE=-1.07D-01 OVMax= 1.09D-02

 Cycle   4  Pass 0  IDiag  1:
 RMSU=  1.25D-04    CP:  1.01D+00  9.74D-01  8.59D-01
 E= -346.909562601824     Delta-E=       -0.001624605543 Rises=F Damp=F
 DIIS: error= 1.29D-03 at cycle   4 NSaved=   4.
 NSaved= 4 IEnMin= 4 EnMin= -346.909562601824     IErMin= 4 ErrMin= 1.29D-03
 ErrMax= 1.29D-03  0.00D+00 EMaxC= 1.00D-01 BMatC= 9.62D-04 BMatP= 3.28D-03
 IDIUse=3 WtCom= 9.87D-01 WtEn= 1.29D-02
 Coeff-Com: -0.268D-01 0.690D-01 0.394D+00 0.563D+00
 Coeff-En:   0.000D+00 0.000D+00 0.188D+00 0.812D+00
 Coeff:     -0.264D-01 0.681D-01 0.392D+00 0.567D+00
 Gap=     0.317 Goal=   None    Shift=    0.000
 RMSDP=8.40D-05 MaxDP=8.49D-03 DE=-1.62D-03 OVMax= 5.11D-03

 Cycle   5  Pass 0  IDiag  1:
 RMSU=  2.77D-05    CP:  1.01D+00  9.39D-01  9.32D-01  5.49D-01
 E= -346.910241747146     Delta-E=       -0.000679145322 Rises=F Damp=F
 DIIS: error= 1.78D-04 at cycle   5 NSaved=   5.
 NSaved= 5 IEnMin= 5 EnMin= -346.910241747146     IErMin= 5 ErrMin= 1.78D-04
 ErrMax= 1.78D-04  0.00D+00 EMaxC= 1.00D-01 BMatC= 1.79D-05 BMatP= 9.62D-04
 IDIUse=3 WtCom= 9.98D-01 WtEn= 1.78D-03
 Coeff-Com: -0.379D-02 0.689D-02 0.843D-01 0.185D+00 0.727D+00
 Coeff-En:   0.000D+00 0.000D+00 0.000D+00 0.000D+00 0.100D+01
 Coeff:     -0.379D-02 0.688D-02 0.842D-01 0.185D+00 0.728D+00
 Gap=     0.317 Goal=   None    Shift=    0.000
 RMSDP=1.09D-05 MaxDP=5.61D-04 DE=-6.79D-04 OVMax= 1.17D-03

 Cycle   6  Pass 0  IDiag  1:
 RMSU=  7.66D-06    CP:  1.01D+00  9.40D-01  9.32D-01  6.00D-01  8.51D-01
 E= -346.910254854278     Delta-E=       -0.000013107132 Rises=F Damp=F
 DIIS: error= 4.99D-05 at cycle   6 NSaved=   6.
 NSaved= 6 IEnMin= 6 EnMin= -346.910254854278     IErMin= 6 ErrMin= 4.99D-05
 ErrMax= 4.99D-05  0.00D+00 EMaxC= 1.00D-01 BMatC= 1.66D-06 BMatP= 1.79D-05
 IDIUse=1 WtCom= 1.00D+00 WtEn= 0.00D+00
 Coeff-Com:  0.182D-03-0.153D-02 0.106D-01 0.438D-01 0.281D+00 0.666D+00
 Coeff:      0.182D-03-0.153D-02 0.106D-01 0.438D-01 0.281D+00 0.666D+00
 Gap=     0.317 Goal=   None    Shift=    0.000
 RMSDP=4.39D-06 MaxDP=3.84D-04 DE=-1.31D-05 OVMax= 5.03D-04

 Initial convergence to 1.0D-05 achieved.  Increase integral accuracy.
 Cycle   7  Pass 1  IDiag  1:
 E= -346.910236914887     Delta-E=        0.000017939390 Rises=F Damp=F
 DIIS: error= 2.95D-05 at cycle   1 NSaved=   1.
 NSaved= 1 IEnMin= 1 EnMin= -346.910236914887     IErMin= 1 ErrMin= 2.95D-05
 ErrMax= 2.95D-05  0.00D+00 EMaxC= 1.00D-01 BMatC= 7.47D-07 BMatP= 7.47D-07
 IDIUse=1 WtCom= 1.00D+00 WtEn= 0.00D+00
 Coeff-Com:  0.100D+01
 Coeff:      0.100D+01
 Gap=     0.317 Goal=   None    Shift=    0.000
 RMSDP=4.39D-06 MaxDP=3.84D-04 DE= 1.79D-05 OVMax= 4.57D-04

 Cycle   8  Pass 1  IDiag  1:
 RMSU=  7.37D-06    CP:  1.00D+00
 E= -346.910237014050     Delta-E=       -0.000000099163 Rises=F Damp=F
 DIIS: error= 2.36D-05 at cycle   2 NSaved=   2.
 NSaved= 2 IEnMin= 2 EnMin= -346.910237014050     IErMin= 2 ErrMin= 2.36D-05
 ErrMax= 2.36D-05  0.00D+00 EMaxC= 1.00D-01 BMatC= 4.32D-07 BMatP= 7.47D-07
 IDIUse=1 WtCom= 1.00D+00 WtEn= 0.00D+00
 Coeff-Com:  0.410D+00 0.590D+00
 Coeff:      0.410D+00 0.590D+00
 Gap=     0.317 Goal=   None    Shift=    0.000
 RMSDP=2.01D-06 MaxDP=1.32D-04 DE=-9.92D-08 OVMax= 3.36D-04

 Cycle   9  Pass 1  IDiag  1:
 RMSU=  1.98D-06    CP:  1.00D+00  9.61D-01
 E= -346.910237314286     Delta-E=       -0.000000300235 Rises=F Damp=F
 DIIS: error= 1.08D-05 at cycle   3 NSaved=   3.
 NSaved= 3 IEnMin= 3 EnMin= -346.910237314286     IErMin= 3 ErrMin= 1.08D-05
 ErrMax= 1.08D-05  0.00D+00 EMaxC= 1.00D-01 BMatC= 7.44D-08 BMatP= 4.32D-07
 IDIUse=1 WtCom= 1.00D+00 WtEn= 0.00D+00
 Coeff-Com: -0.103D-01 0.288D+00 0.722D+00
 Coeff:     -0.103D-01 0.288D+00 0.722D+00
 Gap=     0.317 Goal=   None    Shift=    0.000
 RMSDP=6.00D-07 MaxDP=2.29D-05 DE=-3.00D-07 OVMax= 1.10D-04

 Cycle  10  Pass 1  IDiag  1:
 RMSU=  2.74D-07    CP:  1.00D+00  1.00D+00  7.77D-01
 E= -346.910237374916     Delta-E=       -0.000000060630 Rises=F Damp=F
 DIIS: error= 1.57D-06 at cycle   4 NSaved=   4.
 NSaved= 4 IEnMin= 4 EnMin= -346.910237374916     IErMin= 4 ErrMin= 1.57D-06
 ErrMax= 1.57D-06  0.00D+00 EMaxC= 1.00D-01 BMatC= 1.70D-09 BMatP= 7.44D-08
 IDIUse=1 WtCom= 1.00D+00 WtEn= 0.00D+00
 Coeff-Com: -0.117D-01 0.117D+00 0.326D+00 0.568D+00
 Coeff:     -0.117D-01 0.117D+00 0.326D+00 0.568D+00
 Gap=     0.317 Goal=   None    Shift=    0.000
 RMSDP=8.74D-08 MaxDP=4.24D-06 DE=-6.06D-08 OVMax= 6.66D-06

 Cycle  11  Pass 1  IDiag  1:
 RMSU=  8.08D-08    CP:  1.00D+00  1.00D+00  7.91D-01  1.03D+00
 E= -346.910237376247     Delta-E=       -0.000000001331 Rises=F Damp=F
 DIIS: error= 3.75D-07 at cycle   5 NSaved=   5.
 NSaved= 5 IEnMin= 5 EnMin= -346.910237376247     IErMin= 5 ErrMin= 3.75D-07
 ErrMax= 3.75D-07  0.00D+00 EMaxC= 1.00D-01 BMatC= 7.65D-11 BMatP= 1.70D-09
 IDIUse=1 WtCom= 1.00D+00 WtEn= 0.00D+00
 Coeff-Com: -0.102D-02-0.164D-01-0.237D-01 0.109D+00 0.932D+00
 Coeff:     -0.102D-02-0.164D-01-0.237D-01 0.109D+00 0.932D+00
 Gap=     0.317 Goal=   None    Shift=    0.000
 RMSDP=3.66D-08 MaxDP=1.20D-06 DE=-1.33D-09 OVMax= 3.35D-06

 Cycle  12  Pass 1  IDiag  1:
 RMSU=  2.15D-08    CP:  1.00D+00  1.00D+00  7.97D-01  1.12D+00  1.05D+00
 E= -346.910237376323     Delta-E=       -0.000000000077 Rises=F Damp=F
 DIIS: error= 1.75D-07 at cycle   6 NSaved=   6.
 NSaved= 6 IEnMin= 6 EnMin= -346.910237376323     IErMin= 6 ErrMin= 1.75D-07
 ErrMax= 1.75D-07  0.00D+00 EMaxC= 1.00D-01 BMatC= 1.17D-11 BMatP= 7.65D-11
 IDIUse=1 WtCom= 1.00D+00 WtEn= 0.00D+00
 Coeff-Com:  0.676D-03-0.170D-01-0.370D-01-0.959D-02 0.360D+00 0.702D+00
 Coeff:      0.676D-03-0.170D-01-0.370D-01-0.959D-02 0.360D+00 0.702D+00
 Gap=     0.317 Goal=   None    Shift=    0.000
 RMSDP=1.70D-08 MaxDP=1.69D-06 DE=-7.66D-11 OVMax= 1.28D-06

 Cycle  13  Pass 1  IDiag  1:
 RMSU=  8.73D-09    CP:  1.00D+00  1.01D+00  8.01D-01  1.16D+00  1.12D+00
                    CP:  8.66D-01
 E= -346.910237376349     Delta-E=       -0.000000000026 Rises=F Damp=F
 DIIS: error= 5.78D-08 at cycle   7 NSaved=   7.
 NSaved= 7 IEnMin= 7 EnMin= -346.910237376349     IErMin= 7 ErrMin= 5.78D-08
 ErrMax= 5.78D-08  0.00D+00 EMaxC= 1.00D-01 BMatC= 9.73D-13 BMatP= 1.17D-11
 IDIUse=1 WtCom= 1.00D+00 WtEn= 0.00D+00
 Coeff-Com:  0.306D-03-0.481D-02-0.108D-01-0.126D-01 0.512D-01 0.259D+00
 Coeff-Com:  0.718D+00
 Coeff:      0.306D-03-0.481D-02-0.108D-01-0.126D-01 0.512D-01 0.259D+00
 Coeff:      0.718D+00
 Gap=     0.317 Goal=   None    Shift=    0.000
 RMSDP=2.84D-09 MaxDP=1.93D-07 DE=-2.58D-11 OVMax= 2.75D-07

 SCF Done:  E(RM062X) =  -346.910237376     A.U. after   13 cycles
            NFock= 13  Conv=0.28D-08     -V/T= 2.0061
 KE= 3.447914395219D+02 PE=-1.426734919874D+03 EE= 4.267470601535D+02
 Leave Link  502 at Sun Sep 29 06:41:04 2019, MaxMem=   671088640 cpu:            1354.7 elap:             677.5
 (Enter /shared/centos7/gaussian/g16/l801.exe)
 DoSCS=F DFT=T ScalE2(SS,OS)=  1.000000  1.000000
 Range of M.O.s used for correlation:     1   350
 NBasis=   350 NAE=    28 NBE=    28 NFC=     0 NFV=     0
 NROrb=    350 NOA=    28 NOB=    28 NVA=   322 NVB=   322

 **** Warning!!: The largest alpha MO coefficient is  0.11132698D+02

 Leave Link  801 at Sun Sep 29 06:41:05 2019, MaxMem=   671088640 cpu:               2.2 elap:               1.1
 (Enter /shared/centos7/gaussian/g16/l1101.exe)
 Using compressed storage, NAtomX=    17.
 Will process     18 centers per pass.
 Leave Link 1101 at Sun Sep 29 06:41:40 2019, MaxMem=   671088640 cpu:              69.3 elap:              34.7
 (Enter /shared/centos7/gaussian/g16/l1102.exe)
 Symmetrizing basis deriv contribution to polar:
 IMax=3 JMax=2 DiffMx= 0.00D+00
 Leave Link 1102 at Sun Sep 29 06:41:42 2019, MaxMem=   671088640 cpu:               4.6 elap:               2.3
 (Enter /shared/centos7/gaussian/g16/l1110.exe)
 Forming Gx(P) for the SCF density, NAtomX=    17.
 Integral derivatives from FoFJK, PRISM(SPDF).
 Do as many integral derivatives as possible in FoFJK.
 G2DrvN: MDV=     671087280.
 G2DrvN: will do    18 centers at a time, making    1 passes.
 Calling FoFCou, ICntrl=  3107 FMM=F I1Cent=   0 AccDes= 0.00D+00.
 FoFJK:  IHMeth= 1 ICntrl=    3107 DoSepK=F KAlg= 0 I1Cent=           0 FoldK=F
 IRaf=         0 NMat=       1 IRICut=       1 DoRegI=T DoRafI=F ISym2E= 0 IDoP0=0 IntGTp=1.
 FoFCou: FMM=F IPFlag=           0 FMFlag=      100000 FMFlg1=           0
         NFxFlg=           0 DoJE=F BraDBF=F KetDBF=F FulRan=T
         wScrn=  0.000000 ICntrl=      3107 IOpCl=  0 I1Cent=           0 NGrid=           0
         NMat0=    1 NMatS0=      1 NMatT0=    0 NMatD0=    1 NMtDS0=    0 NMtDT0=    0
 Symmetry not used in FoFCou.
 End of G2Drv F.D. properties file   721 does not exist.
 End of G2Drv F.D. properties file   722 does not exist.
 End of G2Drv F.D. properties file   788 does not exist.
 Leave Link 1110 at Sun Sep 29 07:00:13 2019, MaxMem=   671088640 cpu:            2222.7 elap:            1111.5
 (Enter /shared/centos7/gaussian/g16/l1002.exe)
 Minotr:  Closed shell wavefunction.
          IDoAtm=11111111111111111
          Direct CPHF calculation.
          Differentiating once with respect to nuclear coordinates.
          Requested convergence is 1.0D-08 RMS, and 1.0D-07 maximum.
          Secondary convergence is 1.0D-12 RMS, and 1.0D-12 maximum.
          NewPWx=T KeepS1=F KeepF1=F KeepIn=T MapXYZ=F SortEE=F KeepMc=T.
         5137 words used for storage of precomputed grid.
 Two-electron integrals replicated using symmetry.
          MDV=     671088640 using IRadAn=       1.
          Solving linear equations simultaneously, MaxMat=     380.
 FoF2E skips out because all densities are zero.
 CalDSu exits because no D1Ps are significant.
 FoFJK:  IHMeth= 1 ICntrl=       0 DoSepK=F KAlg= 0 I1Cent=           0 FoldK=F
 IRaf= 910000000 NMat=      51 IRICut=     127 DoRegI=T DoRafI=T ISym2E= 2 IDoP0=3 IntGTp=3.
 FoFCou: FMM=F IPFlag=           0 FMFlag=      100000 FMFlg1=           0
         NFxFlg=           0 DoJE=F BraDBF=F KetDBF=F FulRan=T
         wScrn=  0.000000 ICntrl=         0 IOpCl=  0 I1Cent=           0 NGrid=           0
         NMat0=   51 NMatS0=     51 NMatT0=    0 NMatD0=   51 NMtDS0=    0 NMtDT0=    0
 Integrals replicated using symmetry in FoFCou.
 Raff kept on since  88.10% of shell-pairs survive, threshold=   0.20 IRatSp=88.
          There are    54 degrees of freedom in the 1st order CPHF.  IDoFFX=6 NUNeed=     0.
     48 vectors produced by pass  0 Test12= 1.67D-14 1.85D-09 XBig12= 7.21D-02 7.96D-02.
 AX will form    48 AO Fock derivatives at one time.
     48 vectors produced by pass  1 Test12= 1.67D-14 1.85D-09 XBig12= 7.57D-03 2.50D-02.
     48 vectors produced by pass  2 Test12= 1.67D-14 1.85D-09 XBig12= 2.03D-04 2.34D-03.
     48 vectors produced by pass  3 Test12= 1.67D-14 1.85D-09 XBig12= 2.52D-06 1.86D-04.
     48 vectors produced by pass  4 Test12= 1.67D-14 1.85D-09 XBig12= 2.17D-08 1.71D-05.
     48 vectors produced by pass  5 Test12= 1.67D-14 1.85D-09 XBig12= 9.93D-11 1.10D-06.
     25 vectors produced by pass  6 Test12= 1.67D-14 1.85D-09 XBig12= 4.19D-13 6.70D-08.
      5 vectors produced by pass  7 Test12= 1.67D-14 1.85D-09 XBig12= 1.70D-15 3.89D-09.
 InvSVY:  IOpt=1 It=  1 EMax= 3.05D-16
 Solved reduced A of dimension   318 with    54 vectors.
 End of Minotr F.D. properties file   721 does not exist.
 End of Minotr F.D. properties file   722 does not exist.
 End of Minotr F.D. properties file   788 does not exist.
 Leave Link 1002 at Sun Sep 29 07:30:44 2019, MaxMem=   671088640 cpu:            3660.6 elap:            1830.5
 (Enter /shared/centos7/gaussian/g16/l601.exe)
 Copying SCF densities to generalized density rwf, IOpCl= 0 IROHF=0.

 **********************************************************************

            Population analysis using the SCF density.

 **********************************************************************

 Orbital symmetries:
       Occupied  (A) (A) (A) (A) (A) (A) (A) (A) (A) (A) (A) (A)
                 (A) (A) (A) (A) (A) (A) (A) (A) (A) (A) (A) (A)
                 (A) (A) (A) (A)
       Virtual   (A) (A) (A) (A) (A) (A) (A) (A) (A) (A) (A) (A)
                 (A) (A) (A) (A) (A) (A) (A) (A) (A) (A) (A) (A)
                 (A) (A) (A) (A) (A) (A) (A) (A) (A) (A) (A) (A)
                 (A) (A) (A) (A) (A) (A) (A) (A) (A) (A) (A) (A)
                 (A) (A) (A) (A) (A) (A) (A) (A) (A) (A) (A) (A)
                 (A) (A) (A) (A) (A) (A) (A) (A) (A) (A) (A) (A)
                 (A) (A) (A) (A) (A) (A) (A) (A) (A) (A) (A) (A)
                 (A) (A) (A) (A) (A) (A) (A) (A) (A) (A) (A) (A)
                 (A) (A) (A) (A) (A) (A) (A) (A) (A) (A) (A) (A)
                 (A) (A) (A) (A) (A) (A) (A) (A) (A) (A) (A) (A)
                 (A) (A) (A) (A) (A) (A) (A) (A) (A) (A) (A) (A)
                 (A) (A) (A) (A) (A) (A) (A) (A) (A) (A) (A) (A)
                 (A) (A) (A) (A) (A) (A) (A) (A) (A) (A) (A) (A)
                 (A) (A) (A) (A) (A) (A) (A) (A) (A) (A) (A) (A)
                 (A) (A) (A) (A) (A) (A) (A) (A) (A) (A) (A) (A)
                 (A) (A) (A) (A) (A) (A) (A) (A) (A) (A) (A) (A)
                 (A) (A) (A) (A) (A) (A) (A) (A) (A) (A) (A) (A)
                 (A) (A) (A) (A) (A) (A) (A) (A) (A) (A) (A) (A)
                 (A) (A) (A) (A) (A) (A) (A) (A) (A) (A) (A) (A)
                 (A) (A) (A) (A) (A) (A) (A) (A) (A) (A) (A) (A)
                 (A) (A) (A) (A) (A) (A) (A) (A) (A) (A) (A) (A)
                 (A) (A) (A) (A) (A) (A) (A) (A) (A) (A) (A) (A)
                 (A) (A) (A) (A) (A) (A) (A) (A) (A) (A) (A) (A)
                 (A) (A) (A) (A) (A) (A) (A) (A) (A) (A) (A) (A)
                 (A) (A) (A) (A) (A) (A) (A) (A) (A) (A) (A) (A)
                 (A) (A) (A) (A) (A) (A) (A) (A) (A) (A) (A) (A)
                 (A) (A) (A) (A) (A) (A) (A) (A) (A) (A)
 The electronic state is 1-A.
 Alpha  occ. eigenvalues --  -19.64074 -19.63812 -10.59720 -10.57382 -10.57108
 Alpha  occ. eigenvalues --  -10.54070 -10.52994  -1.17791  -1.15397  -0.89694
 Alpha  occ. eigenvalues --   -0.83532  -0.78439  -0.69427  -0.64071  -0.60790
 Alpha  occ. eigenvalues --   -0.56776  -0.54951  -0.54296  -0.49001  -0.47517
 Alpha  occ. eigenvalues --   -0.46078  -0.44657  -0.42886  -0.42572  -0.41102
 Alpha  occ. eigenvalues --   -0.38698  -0.37160  -0.25899
 Alpha virt. eigenvalues --    0.05816   0.06863   0.08074   0.09607   0.10574
 Alpha virt. eigenvalues --    0.11846   0.13270   0.13957   0.15736   0.16491
 Alpha virt. eigenvalues --    0.17420   0.18927   0.21680   0.23792   0.25803
 Alpha virt. eigenvalues --    0.27500   0.28909   0.29181   0.31950   0.33425
 Alpha virt. eigenvalues --    0.35550   0.36733   0.37292   0.38682   0.40200
 Alpha virt. eigenvalues --    0.41670   0.42842   0.44239   0.46016   0.46605
 Alpha virt. eigenvalues --    0.47026   0.48392   0.49192   0.49518   0.50646
 Alpha virt. eigenvalues --    0.51619   0.52435   0.52923   0.53210   0.54701
 Alpha virt. eigenvalues --    0.55109   0.56986   0.58553   0.59060   0.61611
 Alpha virt. eigenvalues --    0.63976   0.65558   0.66790   0.70297   0.72073
 Alpha virt. eigenvalues --    0.75095   0.77288   0.77743   0.78608   0.80123
 Alpha virt. eigenvalues --    0.84315   0.85968   0.87099   0.89205   0.90452
 Alpha virt. eigenvalues --    0.93011   0.94109   0.95679   0.96478   1.00174
 Alpha virt. eigenvalues --    1.01039   1.02473   1.03321   1.05544   1.05719
 Alpha virt. eigenvalues --    1.06437   1.08847   1.10467   1.11605   1.11719
 Alpha virt. eigenvalues --    1.12763   1.15011   1.16789   1.17370   1.18473
 Alpha virt. eigenvalues --    1.20758   1.24318   1.25786   1.26475   1.28040
 Alpha virt. eigenvalues --    1.29360   1.31764   1.32129   1.33438   1.34458
 Alpha virt. eigenvalues --    1.34995   1.38277   1.38901   1.40820   1.41645
 Alpha virt. eigenvalues --    1.43404   1.45205   1.46372   1.47565   1.48876
 Alpha virt. eigenvalues --    1.53300   1.54254   1.55150   1.57683   1.61548
 Alpha virt. eigenvalues --    1.63653   1.67297   1.73364   1.74905   1.82958
 Alpha virt. eigenvalues --    1.88737   1.91069   1.96876   1.99822   2.03423
 Alpha virt. eigenvalues --    2.06502   2.07701   2.11741   2.15763   2.17983
 Alpha virt. eigenvalues --    2.20812   2.25656   2.28960   2.31525   2.35207
 Alpha virt. eigenvalues --    2.36513   2.39430   2.41486   2.44492   2.46767
 Alpha virt. eigenvalues --    2.47171   2.49867   2.53301   2.56239   2.57932
 Alpha virt. eigenvalues --    2.61252   2.61832   2.63005   2.65339   2.67565
 Alpha virt. eigenvalues --    2.70243   2.75001   2.76972   2.79390   2.79953
 Alpha virt. eigenvalues --    2.82344   2.82606   2.83074   2.84687   2.85800
 Alpha virt. eigenvalues --    2.87381   2.88083   2.90071   2.91010   2.93037
 Alpha virt. eigenvalues --    2.94676   2.95984   2.98030   2.98812   2.99818
 Alpha virt. eigenvalues --    3.01894   3.02650   3.04725   3.05276   3.06801
 Alpha virt. eigenvalues --    3.07702   3.10671   3.11072   3.12182   3.13658
 Alpha virt. eigenvalues --    3.14486   3.14949   3.19114   3.20504   3.21317
 Alpha virt. eigenvalues --    3.23999   3.24791   3.27618   3.29021   3.30097
 Alpha virt. eigenvalues --    3.30919   3.31968   3.34378   3.35339   3.36842
 Alpha virt. eigenvalues --    3.38237   3.40111   3.41495   3.42081   3.43402
 Alpha virt. eigenvalues --    3.43823   3.46393   3.48920   3.51046   3.51133
 Alpha virt. eigenvalues --    3.53517   3.54262   3.55854   3.57605   3.59947
 Alpha virt. eigenvalues --    3.61667   3.64936   3.66176   3.68661   3.69210
 Alpha virt. eigenvalues --    3.72251   3.74460   3.74979   3.76866   3.78354
 Alpha virt. eigenvalues --    3.80868   3.82173   3.85118   3.85591   3.85768
 Alpha virt. eigenvalues --    3.87742   3.90942   3.93280   3.94527   3.95406
 Alpha virt. eigenvalues --    3.96851   3.97732   3.97884   4.01272   4.02072
 Alpha virt. eigenvalues --    4.03800   4.04449   4.04949   4.06600   4.09089
 Alpha virt. eigenvalues --    4.10028   4.12376   4.14569   4.16075   4.17883
 Alpha virt. eigenvalues --    4.19054   4.20283   4.23129   4.26662   4.29447
 Alpha virt. eigenvalues --    4.30240   4.32781   4.36852   4.38534   4.41149
 Alpha virt. eigenvalues --    4.41423   4.47022   4.49152   4.51940   4.53084
 Alpha virt. eigenvalues --    4.57567   4.60760   4.64316   4.65027   4.69510
 Alpha virt. eigenvalues --    4.73336   4.73683   4.75195   4.79646   4.81891
 Alpha virt. eigenvalues --    4.82399   4.86435   4.88310   4.92060   4.92863
 Alpha virt. eigenvalues --    4.97307   4.99469   5.01492   5.04119   5.06877
 Alpha virt. eigenvalues --    5.07679   5.10000   5.10790   5.13517   5.18580
 Alpha virt. eigenvalues --    5.20640   5.23120   5.24273   5.26274   5.28317
 Alpha virt. eigenvalues --    5.30943   5.34701   5.36328   5.39446   5.47536
 Alpha virt. eigenvalues --    5.51107   5.56332   5.62381   5.66489   5.74890
 Alpha virt. eigenvalues --    5.77207   5.78618   5.78746   5.82481   5.88212
 Alpha virt. eigenvalues --    5.95138   6.00512   6.07444   6.18740   6.23748
 Alpha virt. eigenvalues --    6.32929   6.46369   6.54989   6.60393   6.69547
 Alpha virt. eigenvalues --    6.72027   6.75627   6.79937   6.83147   7.00868
 Alpha virt. eigenvalues --    7.02533   7.20345   7.25776   7.31187   7.41929
 Alpha virt. eigenvalues --   10.38948  10.93010  11.55014  11.69071  12.94864
 Alpha virt. eigenvalues --   13.38366  14.43210
          Condensed to atoms (all electrons):
               1          2          3          4          5          6
     1  O    7.857256   0.001452   0.318207  -0.062126  -0.045151   0.316133
     2  O    0.001452   7.794274  -0.000043   0.000008  -0.000060  -0.090647
     3  C    0.318207  -0.000043   4.838879   0.314153   0.321561  -0.065402
     4  C   -0.062126   0.000008   0.314153   5.046856  -0.052222  -0.000307
     5  C   -0.045151  -0.000060   0.321561  -0.052222   5.080813  -0.033112
     6  C    0.316133  -0.090647  -0.065402  -0.000307  -0.033112   5.205834
     7  C   -0.062343   0.363618   0.002862   0.000182  -0.001769   0.437807
     8  H   -0.045022  -0.000023   0.408688  -0.069770  -0.063640   0.011624
     9  H    0.005632   0.000002  -0.038435   0.382527   0.005009   0.000743
    10  H    0.003497  -0.000000  -0.035366   0.391589   0.004716  -0.000032
    11  H    0.004014  -0.000000  -0.045327   0.393808  -0.007484  -0.000089
    12  H    0.003529  -0.000004  -0.042877  -0.014140   0.395491   0.001007
    13  H   -0.003244  -0.000145  -0.036303   0.007602   0.405924  -0.008898
    14  H    0.003350  -0.000003  -0.030607   0.002472   0.393065   0.002574
    15  H   -0.042404   0.009410  -0.005168  -0.001779  -0.007667   0.334444
    16  H    0.008891  -0.051625   0.000911  -0.000206  -0.000158  -0.126906
    17  H   -0.000123   0.329367   0.000045   0.000001   0.000017   0.011700
               7          8          9         10         11         12
     1  O   -0.062343  -0.045022   0.005632   0.003497   0.004014   0.003529
     2  O    0.363618  -0.000023   0.000002  -0.000000  -0.000000  -0.000004
     3  C    0.002862   0.408688  -0.038435  -0.035366  -0.045327  -0.042877
     4  C    0.000182  -0.069770   0.382527   0.391589   0.393808  -0.014140
     5  C   -0.001769  -0.063640   0.005009   0.004716  -0.007484   0.395491
     6  C    0.437807   0.011624   0.000743  -0.000032  -0.000089   0.001007
     7  C    4.930728   0.000863  -0.000242   0.000006  -0.000065  -0.000124
     8  H    0.000863   0.651363   0.006017  -0.008414   0.007231   0.009793
     9  H   -0.000242   0.006017   0.562677  -0.026009  -0.028087   0.001374
    10  H    0.000006  -0.008414  -0.026009   0.593459  -0.034457   0.000544
    11  H   -0.000065   0.007231  -0.028087  -0.034457   0.610891   0.001601
    12  H   -0.000124   0.009793   0.001374   0.000544   0.001601   0.591936
    13  H    0.000082  -0.000846  -0.000600  -0.000428   0.001020  -0.038197
    14  H   -0.000131  -0.013123  -0.000336   0.000022  -0.000707  -0.027505
    15  H   -0.017888  -0.001023   0.000815  -0.000063  -0.000035  -0.002383
    16  H    0.456151  -0.000072   0.000177  -0.000002   0.000001  -0.000018
    17  H   -0.050209  -0.000012  -0.000001  -0.000000  -0.000000  -0.000002
              13         14         15         16         17
     1  O   -0.003244   0.003350  -0.042404   0.008891  -0.000123
     2  O   -0.000145  -0.000003   0.009410  -0.051625   0.329367
     3  C   -0.036303  -0.030607  -0.005168   0.000911   0.000045
     4  C    0.007602   0.002472  -0.001779  -0.000206   0.000001
     5  C    0.405924   0.393065  -0.007667  -0.000158   0.000017
     6  C   -0.008898   0.002574   0.334444  -0.126906   0.011700
     7  C    0.000082  -0.000131  -0.017888   0.456151  -0.050209
     8  H   -0.000846  -0.013123  -0.001023  -0.000072  -0.000012
     9  H   -0.000600  -0.000336   0.000815   0.000177  -0.000001
    10  H   -0.000428   0.000022  -0.000063  -0.000002  -0.000000
    11  H    0.001020  -0.000707  -0.000035   0.000001  -0.000000
    12  H   -0.038197  -0.027505  -0.002383  -0.000018  -0.000002
    13  H    0.595479  -0.025762  -0.015895  -0.000307  -0.000004
    14  H   -0.025762   0.568524   0.000080  -0.000008   0.000001
    15  H   -0.015895   0.000080   0.612368   0.012046  -0.000901
    16  H   -0.000307  -0.000008   0.012046   0.603291  -0.011532
    17  H   -0.000004   0.000001  -0.000901  -0.011532   0.456489
 Mulliken charges:
               1
     1  O   -0.261546
     2  O   -0.355582
     3  C    0.094220
     4  C   -0.338648
     5  C   -0.395334
     6  C    0.003528
     7  C   -0.059526
     8  H    0.106364
     9  H    0.128737
    10  H    0.110938
    11  H    0.097686
    12  H    0.119977
    13  H    0.120521
    14  H    0.128093
    15  H    0.126041
    16  H    0.109366
    17  H    0.265164
 Sum of Mulliken charges =  -0.00000
 Mulliken charges with hydrogens summed into heavy atoms:
               1
     1  O   -0.261546
     2  O   -0.090418
     3  C    0.200584
     4  C   -0.001287
     5  C   -0.026743
     6  C    0.129569
     7  C    0.049840
 APT charges:
               1
     1  O   -0.171185
     2  O   -0.820925
     3  C   -0.174351
     4  C   -1.193582
     5  C   -1.072808
     6  C   -0.292485
     7  C   -0.277876
     8  H    0.386481
     9  H    0.243437
    10  H    0.497716
    11  H    0.387760
    12  H    0.335540
    13  H    0.182142
    14  H    0.506628
    15  H    0.258035
    16  H    0.347574
    17  H    0.857900
 Sum of APT charges =  -0.00000
 APT charges with hydrogens summed into heavy atoms:
               1
     1  O   -0.171185
     2  O    0.036975
     3  C    0.212130
     4  C   -0.064669
     5  C   -0.048498
     6  C   -0.034451
     7  C    0.069698
 Electronic spatial extent (au):  <R**2>=           1105.1406
 Charge=              0.0000 electrons
 Dipole moment (field-independent basis, Debye):
    X=              0.3923    Y=              0.2417    Z=             -0.9776  Tot=              1.0807
 Quadrupole moment (field-independent basis, Debye-Ang):
   XX=            -36.7154   YY=            -43.8799   ZZ=            -44.9475
   XY=              4.1681   XZ=              4.1045   YZ=              0.3737
 Traceless Quadrupole moment (field-independent basis, Debye-Ang):
   XX=              5.1322   YY=             -2.0323   ZZ=             -3.0999
   XY=              4.1681   XZ=              4.1045   YZ=              0.3737
 Octapole moment (field-independent basis, Debye-Ang**2):
  XXX=            -44.4575  YYY=             -1.9943  ZZZ=             -0.9980  XYY=             -4.4980
  XXY=            -13.6278  XXZ=            -20.6203  XZZ=             -0.8248  YZZ=             -0.1568
  YYZ=             -0.4165  XYZ=             -1.2321
 Hexadecapole moment (field-independent basis, Debye-Ang**3):
 XXXX=           -931.2713 YYYY=           -236.8709 ZZZZ=            -93.8248 XXXY=             40.2808
 XXXZ=             57.0417 YYYX=              0.2788 YYYZ=              0.6019 ZZZX=             -2.8521
 ZZZY=              2.7236 XXYY=           -222.9428 XXZZ=           -201.2228 YYZZ=            -54.1117
 XXYZ=              4.5787 YYXZ=             -1.3198 ZZXY=              0.8436
 N-N= 3.082861828224D+02 E-N=-1.426734915292D+03  KE= 3.447914395219D+02
  Exact polarizability:   0.000   0.000   0.000   0.000   0.000   0.000
 Approx polarizability:  97.187   5.212  73.834  -0.265   3.352  69.206
 No NMR shielding tensors so no spin-rotation constants.
 Leave Link  601 at Sun Sep 29 07:31:13 2019, MaxMem=   671088640 cpu:              58.8 elap:              29.4
 (Enter /shared/centos7/gaussian/g16/l701.exe)
 SCFChk:  SCF convergence  2.84D-09 required  1.00D-08
 ... and contract with generalized density number  0.
 Compute integral second derivatives.
 Entering OneElI...
 Calculate overlap and kinetic energy integrals
    NBasis = 395  MinDer = 2  MaxDer = 2
 Requested accuracy = 0.1000D-12
 PrmmSu-InSpLW:  IPartL=    0 NPrtUS=   20 NPrtUL=    1 DoSpLW=F IThBeg=    0 IThEnd=   19 NThAct=   20.
 PrsmSu:  NPrtUS=  20 ThrOK=T IAlg=1 NPAlg=1 LenDen=           0 ISkipM=0 DoSpLW=F IThBeg=    0 IThEnd=   19.
 Prism:   IPart=     0 DynPar=F LinDyn=F Incr=           4.
 PRISM was handed    33317089 working-precision words and  8322 shell-pairs
 PRISM was handed    33317089 working-precision words and  8322 shell-pairs
 PRISM was handed    33317089 working-precision words and  8322 shell-pairs
 PRISM was handed    33317089 working-precision words and  8322 shell-pairs
 PRISM was handed    33317089 working-precision words and  8322 shell-pairs
 PRISM was handed    33317089 working-precision words and  8322 shell-pairs
 PRISM was handed    33317089 working-precision words and  8322 shell-pairs
 PRISM was handed    33317089 working-precision words and  8322 shell-pairs
 PRISM was handed    33317089 working-precision words and  8322 shell-pairs
 PRISM was handed    33317089 working-precision words and  8322 shell-pairs
 PRISM was handed    33317089 working-precision words and  8322 shell-pairs
 PRISM was handed    33317089 working-precision words and  8322 shell-pairs
 PRISM was handed    33317089 working-precision words and  8322 shell-pairs
 PRISM was handed    33317089 working-precision words and  8322 shell-pairs
 PRISM was handed    33317089 working-precision words and  8322 shell-pairs
 IPart= 11 NShTot=         406 NBatch=          44 AvBLen=         9.2
 IPart=  9 NShTot=         410 NBatch=          48 AvBLen=         8.5
 IPart=  2 NShTot=         450 NBatch=          75 AvBLen=         6.0
 IPart=  0 NShTot=         460 NBatch=          82 AvBLen=         5.6
 PRISM was handed    33317089 working-precision words and  8322 shell-pairs
 PRISM was handed    33317089 working-precision words and  8322 shell-pairs
 IPart=  5 NShTot=         431 NBatch=          62 AvBLen=         7.0
 IPart=  6 NShTot=         429 NBatch=          60 AvBLen=         7.2
 IPart=  1 NShTot=         457 NBatch=          80 AvBLen=         5.7
 IPart= 10 NShTot=         408 NBatch=          46 AvBLen=         8.9
 PRISM was handed    33317089 working-precision words and  8322 shell-pairs
 PRISM was handed    33317089 working-precision words and  8322 shell-pairs
 IPart= 19 NShTot=         387 NBatch=          35 AvBLen=        11.1
 PRISM was handed    33317089 working-precision words and  8322 shell-pairs
 IPart= 14 NShTot=         397 NBatch=          38 AvBLen=        10.4
 IPart=  8 NShTot=         412 NBatch=          50 AvBLen=         8.2
 IPart= 15 NShTot=         397 NBatch=          38 AvBLen=        10.4
 IPart= 13 NShTot=         398 NBatch=          38 AvBLen=        10.5
 IPart= 17 NShTot=         394 NBatch=          37 AvBLen=        10.6
 IPart=  4 NShTot=         436 NBatch=          64 AvBLen=         6.8
 IPart= 12 NShTot=         401 NBatch=          41 AvBLen=         9.8
 IPart= 16 NShTot=         394 NBatch=          37 AvBLen=        10.6
 IPart=  7 NShTot=         418 NBatch=          53 AvBLen=         7.9
 IPart= 18 NShTot=         392 NBatch=          37 AvBLen=        10.6
 IPart=  3 NShTot=         445 NBatch=          70 AvBLen=         6.4
 PrSmSu:  NxtVal=             81.
 Entering OneElI...
 Calculate potential energy integrals
    NBasis = 395  MinDer = 2  MaxDer = 2
 Requested accuracy = 0.1000D-12
 PrmmSu-InSpLW:  IPartL=    0 NPrtUS=   20 NPrtUL=    1 DoSpLW=F IThBeg=    0 IThEnd=   19 NThAct=   20.
 PrsmSu:  NPrtUS=  20 ThrOK=T IAlg=1 NPAlg=1 LenDen=           0 ISkipM=0 DoSpLW=F IThBeg=    0 IThEnd=   19.
 Prism:   IPart=     0 DynPar=F LinDyn=F Incr=          63.
 PRISM was handed    33361195 working-precision words and  7442 shell-pairs
 PRISM was handed    33361195 working-precision words and  7442 shell-pairs
 PRISM was handed    33361195 working-precision words and  7442 shell-pairs
 PRISM was handed    33361195 working-precision words and  7442 shell-pairs
 PRISM was handed    33361195 working-precision words and  7442 shell-pairs
 PRISM was handed    33361195 working-precision words and  7442 shell-pairs
 PRISM was handed    33361195 working-precision words and  7442 shell-pairs
 PRISM was handed    33361195 working-precision words and  7442 shell-pairs
 PRISM was handed    33361195 working-precision words and  7442 shell-pairs
 PRISM was handed    33361195 working-precision words and  7442 shell-pairs
 PRISM was handed    33361195 working-precision words and  7442 shell-pairs
 PRISM was handed    33361195 working-precision words and  7442 shell-pairs
 PRISM was handed    33361195 working-precision words and  7442 shell-pairs
 PRISM was handed    33361195 working-precision words and  7442 shell-pairs
 PRISM was handed    33361195 working-precision words and  7442 shell-pairs
 PRISM was handed    33361195 working-precision words and  7442 shell-pairs
 PRISM was handed    33361195 working-precision words and  7442 shell-pairs
 PRISM was handed    33361195 working-precision words and  7442 shell-pairs
 PRISM was handed    33361195 working-precision words and  7442 shell-pairs
 PRISM was handed    33361195 working-precision words and  7442 shell-pairs
 IPart= 14 NShTot=        6052 NBatch=         356 AvBLen=        17.0
 IPart=  0 NShTot=        7021 NBatch=         413 AvBLen=        17.0
 IPart=  8 NShTot=        6273 NBatch=         369 AvBLen=        17.0
 IPart= 15 NShTot=        6018 NBatch=         354 AvBLen=        17.0
 IPart=  1 NShTot=        6953 NBatch=         409 AvBLen=        17.0
 IPart= 13 NShTot=        6103 NBatch=         359 AvBLen=        17.0
 IPart= 19 NShTot=        5916 NBatch=         348 AvBLen=        17.0
 IPart= 17 NShTot=        5967 NBatch=         351 AvBLen=        17.0
 IPart=  5 NShTot=        6545 NBatch=         385 AvBLen=        17.0
 IPart=  3 NShTot=        6715 NBatch=         395 AvBLen=        17.0
 IPart= 16 NShTot=        6001 NBatch=         353 AvBLen=        17.0
 IPart= 11 NShTot=        6171 NBatch=         363 AvBLen=        17.0
 IPart= 10 NShTot=        6171 NBatch=         363 AvBLen=        17.0
 IPart= 12 NShTot=        6137 NBatch=         361 AvBLen=        17.0
 IPart= 18 NShTot=        5950 NBatch=         350 AvBLen=        17.0
 IPart=  4 NShTot=        6630 NBatch=         390 AvBLen=        17.0
 IPart=  2 NShTot=        6834 NBatch=         402 AvBLen=        17.0
 IPart=  9 NShTot=        6239 NBatch=         367 AvBLen=        17.0
 IPart=  6 NShTot=        6494 NBatch=         382 AvBLen=        17.0
 IPart=  7 NShTot=        6324 NBatch=         372 AvBLen=        17.0
 PrSmSu:  NxtVal=           1261.
 Polarizability after L701:
                1             2             3 
      1  0.000000D+00
      2  0.000000D+00  0.000000D+00
      3  0.000000D+00  0.000000D+00  0.000000D+00
 Dipole Derivatives after L701:
                 1             2             3             4             5 
      1  -0.153839D+00 -0.371390D-01 -0.230307D-02 -0.168612D+01 -0.107307D+01
      2  -0.527294D-01 -0.125594D+00  0.513414D-01 -0.106920D+00 -0.316305D+00
      3   0.230432D-01  0.294021D-01 -0.234122D+00 -0.254428D+00  0.321683D-01
                 6             7             8             9            10 
      1  -0.128712D+01 -0.120379D+00 -0.118886D-01  0.104279D+01 -0.164057D+01
      2   0.209929D-01 -0.186349D+00  0.129303D+00 -0.371793D-01  0.186725D+00
      3  -0.460352D+00  0.160073D+00 -0.997932D-01 -0.531977D+00 -0.134686D-01
                11            12            13            14            15 
      1   0.699558D+00 -0.710369D+00 -0.908316D+00 -0.868183D+00 -0.328129D+00
      2  -0.102680D+01  0.120664D+00 -0.401858D-01 -0.139476D+01 -0.131795D+00
      3  -0.279832D-01 -0.913372D+00 -0.268838D-01  0.156673D+00 -0.915346D+00
                16            17            18            19            20 
      1  -0.591828D+00 -0.185533D+00  0.160565D-01  0.111134D+00  0.701247D-01
      2  -0.994903D-01 -0.276492D+00 -0.178725D+00  0.142734D+00 -0.806582D+00
      3   0.343294D-01 -0.134551D+00 -0.913633D-02  0.510051D-01 -0.397389D+00
                21            22            23            24            25 
      1  -0.627014D-01  0.390699D+00 -0.209919D-01 -0.593934D+00 -0.169211D+00
      2  -0.362763D+00  0.187933D-02  0.154801D+00  0.410165D-01  0.299339D+00
      3  -0.138181D+00 -0.156765D+00  0.414648D-01  0.613943D+00 -0.185469D+00
                26            27            28            29            30 
      1  -0.472956D+00  0.362414D+00  0.950554D+00 -0.565003D+00 -0.691794D+00
      2   0.590778D+00 -0.367021D+00 -0.362953D+00  0.322912D+00  0.295072D+00
      3  -0.293163D+00  0.308745D+00 -0.955472D-01  0.622316D-01  0.219681D+00
                31            32            33            34            35 
      1   0.639943D+00  0.576503D+00  0.794621D+00  0.248793D+00  0.777113D-01
      2  -0.208659D-01  0.116803D+00 -0.104205D-01  0.109065D+00  0.203585D+00
      3   0.237148D+00  0.265492D+00  0.406534D+00  0.112645D+00  0.485391D-01
                36            37            38            39            40 
      1   0.637214D+00  0.397179D-02  0.877216D-01  0.324678D-01  0.718745D+00
      2   0.541115D+00 -0.704750D+00  0.420463D+00 -0.835802D-02  0.511285D+00
      3   0.554241D+00  0.969122D-01 -0.586546D-01  0.121991D+00 -0.194718D+00
                41            42            43            44            45 
      1   0.472088D+00 -0.544594D+00  0.507479D-01 -0.227702D+00 -0.834276D-01
      2   0.512545D+00 -0.430040D+00  0.170866D+00  0.567750D+00  0.176437D+00
      3  -0.118281D+00  0.288593D+00  0.649807D-01  0.218141D+00  0.155606D+00
                46            47            48            49            50 
      1   0.278994D+00  0.816162D+00  0.339452D+00  0.187668D+01  0.662601D+00
      2   0.124153D+00  0.624792D+00  0.241443D+00  0.281965D-01  0.302806D+00
      3   0.366696D-01  0.209653D+00  0.138936D+00  0.110473D+00  0.660502D-01
                51 
      1   0.107935D+01
      2   0.382189D-01
      3   0.394214D+00
 Hessian after L701:
                1             2             3             4             5 
      1  0.318104D+01
      2  0.480363D+00  0.141114D+02
      3  0.171886D+01 -0.115537D+01  0.176923D+02
      4  0.377330D+00 -0.181395D+00 -0.134536D+00  0.337830D+01
      5 -0.201145D+00 -0.159087D+00  0.420568D-01  0.228125D+01  0.121206D+02
      6 -0.123293D+00  0.326752D-01 -0.194679D+00 -0.268413D+00 -0.182799D+01
      7 -0.127167D+01  0.331898D+01 -0.322266D+00  0.124560D+00 -0.286841D-01
      8  0.318810D+01 -0.736832D+01 -0.140546D-01 -0.147439D-02 -0.662378D-01
      9 -0.340066D+00  0.189914D-01 -0.900482D+01 -0.110211D-01 -0.336103D-02
     10  0.167132D+00 -0.237699D+00  0.456919D+00  0.595517D-01 -0.266806D-01
     11 -0.138356D+00 -0.919103D-01 -0.101752D+00 -0.136742D-01 -0.401789D-01
     12  0.350871D+00 -0.124152D+00  0.402933D-01 -0.929572D-02  0.406043D-02
     13 -0.129287D+00  0.320592D+00  0.136142D+00  0.116083D+00  0.423481D-01
     14  0.237526D+00  0.533858D+00  0.197457D+00  0.200559D-01 -0.613162D-01
     15  0.951624D-01  0.157494D+00 -0.124674D+00 -0.226594D-01 -0.192815D-02
     16 -0.236047D+01 -0.404685D+01 -0.206999D+01  0.387645D-01  0.750001D+00
     17 -0.392808D+01 -0.707175D+01  0.114235D+01  0.769376D+00 -0.155727D+00
     18 -0.208197D+01  0.116343D+01 -0.895756D+01  0.545383D-02 -0.191433D+00
     19 -0.262581D-01  0.549643D-01 -0.855733D-02 -0.186265D+01 -0.419033D+01
     20  0.654523D-01 -0.653864D-01 -0.140680D+00 -0.423066D+01 -0.637533D+01
     21  0.157319D-01 -0.125923D+00  0.167389D+00 -0.173816D+01  0.110980D+01
     22 -0.381386D+00 -0.161120D+00  0.473551D-02  0.126382D-01 -0.282140D-02
     23 -0.169168D+00  0.110873D+00  0.423954D-02 -0.275491D-02 -0.620350D-02
     24  0.333117D-01 -0.130407D-01  0.466444D+00 -0.174777D-01  0.453425D-02
     25  0.109897D-01  0.108410D-01  0.450163D-01  0.538719D-02 -0.391928D-02
     26 -0.623008D-01 -0.932576D-01 -0.360418D-01 -0.146345D-01  0.232515D-02
     27  0.103859D+00 -0.113909D-01 -0.347993D-01  0.838956D-02 -0.575738D-02
     28  0.154296D+00 -0.450616D-01 -0.203208D-01  0.105052D-01 -0.664038D-02
     29 -0.629379D-01 -0.405770D-01  0.438209D-02 -0.561423D-02 -0.832537D-03
     30 -0.354255D-01  0.757854D-02 -0.491384D-01 -0.463719D-02  0.279196D-02
     31  0.995652D-01  0.445664D-01  0.803493D-01  0.118393D-01 -0.336775D-02
     32  0.422713D-01 -0.344245D-01  0.252315D-01  0.335120D-02 -0.542818D-02
     33  0.896108D-01  0.276812D-01 -0.165592D-02  0.738535D-02 -0.221288D-02
     34 -0.178259D-02  0.772962D-01  0.433376D-01  0.154152D-01  0.435193D-02
     35  0.673924D-01  0.524913D-01  0.537491D-01  0.744884D-02 -0.629104D-02
     36  0.553727D-01  0.857165D-01 -0.178789D-02  0.150222D-01  0.158293D-02
     37 -0.377417D-01 -0.438205D-01 -0.452445D-02 -0.530034D-02  0.664202D-02
     38  0.314257D-01  0.868686D-01 -0.731434D-03  0.241294D-01 -0.562449D-02
     39  0.148587D-02  0.955029D-03 -0.393083D-01 -0.377938D-02 -0.214798D-02
     40  0.344999D-01  0.993878D-01 -0.145305D-01  0.137000D-01  0.431376D-02
     41  0.904022D-01  0.685999D-01 -0.151403D-01  0.880466D-02 -0.364649D-02
     42 -0.287456D-01 -0.348472D-01 -0.361299D-01 -0.784282D-02 -0.106042D-02
     43 -0.109583D-01  0.296999D+00  0.106952D+00  0.219405D+00  0.148629D-01
     44  0.254790D+00  0.536189D-01 -0.474643D-02  0.796765D-01 -0.946216D-01
     45  0.102642D+00 -0.317973D-01  0.191362D+00  0.187639D-01  0.528149D-02
     46  0.145622D+00  0.242955D-01 -0.126890D-01 -0.110548D-01  0.205277D+00
     47  0.940029D-01 -0.795811D-01 -0.233629D-03  0.252754D+00  0.120000D+00
     48  0.238212D-01  0.471637D-02 -0.102351D+00  0.139139D+00 -0.784328D-01
     49  0.490759D-01 -0.123414D-01 -0.490006D-02 -0.250447D+01  0.115454D+01
     50  0.102619D-01 -0.134558D-01 -0.713500D-03  0.100336D+01 -0.526243D+01
     51  0.187702D-01 -0.271786D-02 -0.108435D-01  0.202367D+01  0.944216D+00
                6             7             8             9            10 
      6  0.121608D+02
      7 -0.383727D-01  0.146797D+02
      8 -0.227675D-02 -0.210732D+01  0.184766D+02
      9 -0.704826D-01  0.394784D-01  0.231074D+00  0.217065D+02
     10  0.107859D-03 -0.369215D+01 -0.170471D+01  0.152336D+01  0.123194D+02
     11 -0.186944D-02 -0.167799D+01 -0.457567D+01 -0.114654D+01  0.136808D+01
     12 -0.398483D-01  0.148691D+01 -0.115585D+01 -0.468518D+01 -0.117420D+01
     13 -0.224639D-01 -0.640493D+01  0.465420D+00  0.458655D-01 -0.245320D-01
     14  0.371020D-02  0.410060D+00 -0.182714D+01  0.826865D+00 -0.108034D+00
     15 -0.687420D-01  0.438765D-01  0.838737D+00 -0.621995D+01  0.392264D-01
     16 -0.776733D-01  0.229521D+00  0.457730D-01 -0.604432D-01  0.210008D+00
     17 -0.180066D+00 -0.404851D-01 -0.263682D-01 -0.299562D-02 -0.100986D+00
     18  0.230103D+00 -0.139857D+00 -0.802957D-02  0.550602D-01  0.388995D-01
     19 -0.174158D+01  0.294211D+00  0.880237D-01 -0.371009D-01  0.117719D+00
     20  0.115663D+01  0.770687D-01 -0.127666D+00 -0.168038D-01 -0.124211D-01
     21 -0.765837D+01 -0.682208D-01 -0.207253D-01 -0.113603D+00  0.140856D-01
     22 -0.102958D-01 -0.420176D+01 -0.360609D-01 -0.951926D+00  0.143630D+00
     23  0.128493D-02 -0.216071D-01 -0.451115D+01  0.125784D+00  0.791246D-01
     24  0.301028D-02 -0.849207D+00  0.144032D+00 -0.196782D+01 -0.211973D+00
     25  0.123629D-02  0.924183D-01  0.668905D-01 -0.494039D-01 -0.347481D+01
     26 -0.134301D-04  0.102574D-01  0.250431D-01  0.651767D-01  0.945112D+00
     27 -0.704285D-02 -0.485574D-02  0.480527D-01  0.238300D-01 -0.695026D+00
     28 -0.378667D-02 -0.133400D-01  0.491560D-01 -0.448907D-01 -0.264540D+01
     29  0.183623D-02  0.474179D-01  0.272063D-01  0.288117D-01 -0.738618D+00
     30 -0.157394D-02 -0.555225D-01  0.391939D-01  0.853806D-01 -0.858831D+00
     31  0.108063D-02 -0.438242D-01  0.196769D-01 -0.126800D+00 -0.318790D+01
     32 -0.169952D-03  0.474905D-01  0.121390D+00  0.503371D-01  0.608342D+00
     33 -0.468014D-02 -0.921089D-01  0.238633D-01  0.115024D-01  0.828823D+00
     34  0.266760D-02  0.993336D-01 -0.465389D-01 -0.227582D-01 -0.343404D-02
     35  0.508298D-03 -0.374406D-01 -0.935528D-01 -0.159968D+00  0.376231D-01
     36 -0.682305D-02 -0.815249D-02 -0.111476D+00  0.732175D-01  0.178201D-01
     37  0.935611D-03  0.724906D-01  0.139258D-01  0.287426D-01  0.341311D-01
     38 -0.648147D-02  0.104599D+00 -0.270583D-01 -0.154683D-01 -0.105428D+00
     39 -0.139781D-01  0.180037D-01  0.335563D-02  0.713878D-01  0.197194D-01
     40 -0.658869D-02  0.193542D-01 -0.607979D-01 -0.295179D-01 -0.342055D-01
     41 -0.342341D-02 -0.915998D-01 -0.459358D-01 -0.191791D-01  0.347863D-02
     42 -0.197676D-02 -0.239289D-01 -0.326865D-01  0.699498D-01 -0.393058D-02
     43 -0.136923D-02 -0.386015D-01 -0.327998D-02  0.211734D-01 -0.862344D-02
     44  0.803056D-03 -0.492450D-01  0.220837D-01  0.450589D-02 -0.197616D-01
     45 -0.974627D-01 -0.319661D-02  0.108089D-01 -0.211188D-01 -0.703449D-02
     46  0.119471D+00  0.345060D-01  0.207966D-01  0.789476D-02  0.955623D-02
     47 -0.829556D-01  0.340764D-01  0.245806D-03  0.106473D-01  0.110377D-01
     48  0.107193D+00  0.956168D-02  0.490376D-02 -0.140423D-01  0.725017D-02
     49  0.216834D+01  0.201388D-01  0.242179D-02  0.740915D-02  0.990272D-02
     50  0.907799D+00  0.442783D-02 -0.343843D-02  0.212559D-02  0.153622D-02
     51 -0.433541D+01  0.786176D-02  0.107486D-02  0.154988D-03  0.478153D-02
               11            12            13            14            15 
     11  0.135053D+02
     12  0.655681D+00  0.140754D+02
     13 -0.189648D+00  0.117104D-01  0.145709D+02
     14  0.172859D+00  0.310658D-01 -0.440506D+00  0.119945D+02
     15 -0.778550D-01 -0.126616D+00 -0.233123D-01 -0.261952D+00  0.156894D+02
     16 -0.793956D-01  0.380722D-01  0.130095D+00  0.683136D-01 -0.268559D-01
     17 -0.111584D+00 -0.121269D-01  0.218179D+00 -0.380159D-01 -0.264464D-01
     18 -0.182607D-01 -0.128809D+00 -0.338661D-02 -0.151373D-01 -0.138203D+00
     19 -0.115128D-02 -0.683406D-03  0.117704D+00  0.806058D-01 -0.240281D-01
     20 -0.675289D-01 -0.409721D-02  0.115965D+00 -0.471305D-01 -0.118023D-01
     21 -0.317769D-02 -0.626684D-01 -0.806024D-02 -0.887714D-02 -0.870250D-01
     22  0.679824D-01 -0.156337D+00  0.200770D+00  0.182342D-01  0.772037D-02
     23  0.134830D+00  0.161038D+00 -0.684902D-02 -0.683108D-01 -0.234741D+00
     24  0.187450D+00 -0.118047D+00 -0.218657D-01 -0.266976D+00 -0.534096D-02
     25  0.732036D+00 -0.536452D+00 -0.415136D-01 -0.104029D-01 -0.530042D-03
     26 -0.260192D+01 -0.940266D+00 -0.892021D-02  0.963237D-01 -0.582090D-01
     27 -0.945705D+00 -0.323483D+01  0.331309D-02 -0.567270D-01 -0.181944D-01
     28 -0.756481D+00 -0.950553D+00  0.147567D-01 -0.797839D-01 -0.936192D-02
     29 -0.325893D+01  0.627955D+00 -0.738697D-01  0.677890D-01  0.133242D-01
     30  0.579423D+00 -0.309305D+01 -0.182917D-01  0.217367D-01 -0.367962D-01
     31  0.745770D+00  0.916761D+00  0.601181D-02 -0.218725D-01  0.283827D-01
     32 -0.319315D+01  0.852104D+00 -0.196286D-02 -0.192670D-01  0.173187D-02
     33  0.959209D+00 -0.256367D+01  0.359471D-01 -0.237193D-01  0.461095D-02
     34  0.211060D-01  0.138320D-01 -0.378897D+01  0.868205D-01  0.562826D+00
     35 -0.327744D-01 -0.292147D-01  0.117092D+00 -0.390226D+01  0.550133D+00
     36 -0.837985D-02  0.142638D-01  0.498495D+00  0.371140D+00 -0.148847D+01
     37 -0.102160D+00  0.211991D-01 -0.224555D+01 -0.103649D+01  0.235934D+00
     38  0.794640D-01 -0.326512D-01 -0.135246D+01 -0.370546D+01 -0.179927D+00
     39 -0.263600D-01 -0.399595D-01  0.267941D+00 -0.162503D+00 -0.424457D+01
     40  0.152491D-01 -0.455094D-02 -0.268480D+01  0.843776D+00 -0.868033D+00
     41  0.853146D-01 -0.429624D-01  0.893987D+00 -0.311921D+01 -0.741887D+00
     42 -0.608459D-01 -0.165174D-01 -0.842934D+00 -0.677469D+00 -0.308697D+01
     43  0.101898D-02 -0.626716D-02  0.136398D+00 -0.734286D-01 -0.371760D-01
     44 -0.132500D-02  0.110187D-01 -0.128999D+00 -0.708857D-01  0.339168D-01
     45  0.416251D-02 -0.889364D-02 -0.736391D-01  0.215289D-01 -0.347522D-01
     46  0.558244D-02  0.119932D-02  0.731370D-02  0.660674D-02  0.407961D-03
     47 -0.107296D-02 -0.765037D-03  0.212176D-01 -0.149812D-02 -0.235414D-03
     48  0.331986D-02 -0.797735D-02  0.603653D-02  0.155686D-02 -0.888466D-02
     49  0.203405D-02 -0.221138D-02  0.195370D-01 -0.148375D-02 -0.157978D-02
     50 -0.167754D-02 -0.840049D-03  0.841896D-02 -0.486411D-02 -0.352477D-03
     51  0.150373D-02 -0.388301D-02  0.850313D-02 -0.169904D-02 -0.478090D-02
               16            17            18            19            20 
     16  0.688730D+01
     17  0.312649D+00  0.188933D+02
     18  0.155465D+01 -0.379298D+01  0.257976D+02
     19 -0.116328D+01  0.321177D+01  0.738574D+00  0.722973D+01
     20  0.319406D+01 -0.917895D+01  0.193937D+01  0.781016D+00  0.178406D+02
     21  0.703841D+00  0.192332D+01 -0.131128D+02  0.111073D+01 -0.392237D+01
     22  0.122100D+00 -0.273130D-01 -0.960607D-01  0.536339D-01  0.458301D-03
     23 -0.185544D-01 -0.692840D-01  0.137564D-01 -0.250981D-02 -0.158574D-01
     24 -0.142193D+00  0.194970D-01  0.105842D-01 -0.363769D-01 -0.300572D-03
     25  0.534392D-02 -0.240020D-01  0.119571D-01  0.598626D-02 -0.610059D-02
     26 -0.413747D-01  0.115058D-01 -0.183148D-01 -0.242687D-01 -0.329432D-02
     27  0.255980D-01 -0.223046D-01 -0.106559D-01  0.196576D-01 -0.667429D-02
     28  0.218557D-01 -0.138172D-01 -0.458908D-02  0.220016D-01 -0.461594D-02
     29 -0.135210D-01 -0.406822D-02  0.190157D-02 -0.964416D-02 -0.442953D-02
     30 -0.782444D-02  0.311849D-02 -0.723210D-02 -0.788485D-02  0.114438D-02
     31  0.241596D-01 -0.382965D-02  0.984348D-02  0.179787D-01  0.157378D-02
     32  0.578540D-02 -0.108450D-01  0.247360D-02  0.787506D-02 -0.508777D-02
     33  0.184004D-01 -0.178348D-02 -0.620611D-02  0.143256D-01  0.932104D-03
     34  0.292902D-01  0.382462D-01  0.286375D-01  0.166633D-01  0.118440D-01
     35  0.370112D-01 -0.304691D-02  0.156959D-01  0.134132D-01 -0.299457D-02
     36  0.417111D-01  0.265166D-01 -0.331409D-02  0.244327D-01  0.105124D-01
     37 -0.611764D-01 -0.259361D-01  0.502196D-01 -0.144215D-02  0.121280D-01
     38  0.276200D-01  0.420663D-01  0.529211D-01  0.482267D-01  0.149720D-01
     39  0.353399D-01  0.319056D-01 -0.385544D-01  0.377541D-02  0.985171D-03
     40  0.576184D-01  0.465968D-01 -0.212377D-01  0.175178D-01  0.108016D-01
     41  0.542307D-01  0.252435D-02 -0.150451D-01  0.149040D-01  0.131546D-02
     42 -0.259768D-01 -0.173415D-01 -0.156188D-01 -0.101063D-01 -0.464828D-02
     43 -0.455590D+01  0.897170D-01  0.197991D-01 -0.127070D+00 -0.240861D+00
     44  0.193504D+00 -0.202460D+01  0.107793D+01 -0.230685D+00 -0.118011D+00
     45  0.698919D-01  0.111856D+01 -0.401257D+01 -0.126575D+00 -0.114148D+00
     46  0.104941D+00 -0.556699D+00 -0.187240D+00 -0.454492D+01  0.353506D+00
     47 -0.524142D+00 -0.195225D+00 -0.214834D+00  0.171977D+00 -0.195903D+01
     48 -0.176938D+00 -0.217023D+00  0.385669D+00  0.808565D-01  0.112938D+01
     49  0.279826D+00  0.346089D-01  0.763062D-01 -0.167533D+00 -0.129215D+00
     50  0.348880D-01 -0.599731D-01  0.655203D-02 -0.141937D-01  0.113837D+00
     51  0.100387D+00  0.779481D-02 -0.475666D-01  0.542330D-03 -0.174293D-01
               21            22            23            24            25 
     21  0.249150D+02
     22 -0.798651D-02  0.409717D+01
     23  0.168239D-02  0.145605D+00  0.451221D+01
     24 -0.922404D-02  0.122814D+01 -0.890334D-01  0.136378D+01
     25  0.505508D-02 -0.237614D-01 -0.233898D-02  0.235350D-02  0.349842D+01
     26 -0.658330D-02  0.433625D-02  0.756558D-02 -0.605678D-01 -0.567109D+00
     27 -0.486132D-02 -0.552090D-02 -0.435876D-01  0.601954D-01  0.397708D+00
     28 -0.103829D-02 -0.142282D-01  0.292766D-01 -0.234040D-01 -0.634410D-01
     29  0.195169D-03  0.299077D-01 -0.531835D-02  0.214535D-01 -0.463539D-01
     30 -0.422642D-02 -0.277664D-01  0.255105D-01 -0.512262D-02  0.137934D+00
     31  0.586191D-02 -0.838130D-02 -0.107748D-02  0.583152D-01 -0.166262D-01
     32  0.161447D-02 -0.164257D-02 -0.267558D-01  0.124878D-02 -0.145716D+00
     33 -0.237517D-02  0.348305D-01 -0.188171D-02  0.841332D-01 -0.174080D-01
     34  0.931351D-02 -0.352869D-01  0.311358D-02  0.485532D-02 -0.678984D-02
     35  0.432850D-02 -0.729931D-02  0.117196D-01  0.875856D-01 -0.882808D-03
     36 -0.571202D-03 -0.127030D-01  0.748081D-01  0.102703D+00  0.205820D-02
     37  0.225176D-02  0.596463D-02 -0.722443D-02 -0.133020D-01 -0.194626D-02
     38  0.253148D-02 -0.834819D-02  0.611747D-02  0.121286D-01  0.521898D-02
     39 -0.197817D-01 -0.364482D-02  0.523753D-02  0.236723D-02 -0.700083D-03
     40 -0.295969D-02  0.307176D-01 -0.289183D-01 -0.904735D-02  0.786050D-03
     41 -0.140208D-02 -0.260903D-01 -0.806876D-01 -0.473613D-01  0.213055D-02
     42 -0.466063D-02 -0.906561D-02 -0.430391D-01  0.171290D-01 -0.198810D-02
     43 -0.131253D+00 -0.753136D-02  0.344355D-02  0.665143D-02  0.548193D-02
     44 -0.115566D+00 -0.172036D-02  0.132051D-02  0.657195D-02 -0.103754D-01
     45  0.326787D-01  0.299307D-02 -0.126666D-02  0.718600D-03  0.105378D-02
     46  0.160627D+00  0.201458D-02  0.750378D-03 -0.353692D-02  0.400413D-02
     47  0.114481D+01  0.444499D-02 -0.650570D-03 -0.551520D-02  0.331148D-03
     48 -0.414700D+01  0.125687D-02  0.355253D-03 -0.269228D-02  0.209246D-02
     49 -0.698189D-01  0.370065D-02 -0.311347D-03 -0.524034D-02  0.715777D-04
     50  0.163476D-01  0.144737D-02 -0.421402D-03 -0.170621D-02 -0.247259D-03
     51  0.112067D+00  0.163321D-02 -0.147474D-03 -0.281545D-02  0.165256D-04
               26            27            28            29            30 
     26  0.252576D+01
     27  0.104621D+01  0.316837D+01
     28 -0.436054D-01  0.163404D+00  0.236990D+01
     29  0.105649D+00  0.448217D-01  0.856744D+00  0.311950D+01
     30  0.362167D-01 -0.515522D-01  0.855663D+00 -0.560261D+00  0.327940D+01
[...]
   zy        -0.362438D+01     -0.537077D+00     -0.597579D+00
   zz         0.587047D+02      0.869914D+01      0.967910D+01

 ----------------------------------------------------------------------

 Test job not archived.
 1\1\GINC-C0144\Freq\RM062X\CC-pVTZ\C5H10O2\HARMS.N\29-Sep-2019\0\\#P G
 eom=AllCheck Guess=TCheck SCRF=Check Test GenChk RM062X/CC-pVTZ Freq\\
 Gaussian input prepared by ASE\\0,1\O,-0.0271919739,-1.534935765,2.046
 3464738\O,2.8602743572,-1.1485941076,-0.0564775307\C,-1.0451596281,-0.
 5930415161,2.4032414849\C,-2.0811025184,-0.4307803253,1.3012440377\C,-
 0.439311499,0.7329864191,2.8286342318\C,0.759308053,-1.1931663082,0.98
 29452579\C,2.0740894062,-1.3270787206,1.05056358\H,-1.5216009299,-1.06
 34553292,3.2635060235\H,-2.4182447379,-1.4052172955,0.9502440192\H,-2.
 9413866401,0.1172006611,1.6849511306\H,-1.6846765358,0.1312023313,0.45
 52667986\H,0.0423213007,1.2245005564,1.9824440745\H,0.3076017044,0.577
 5687484,3.6062297817\H,-1.2150023384,1.3945391556,3.2139820188\H,0.273
 4779321,-0.8867482081,0.0628386013\H,2.5543722078,-1.641776904,1.96940
 54632\H,3.7661768586,-1.0019315965,0.2185459424\\Version=EM64L-G16RevA
 .03\State=1-A\HF=-346.9382522\RMSD=4.434e-09\RMSF=7.074e-07\ZeroPoint=
 0.1466051\Thermal=0.1555182\Dipole=0.1714819,0.5119903,0.3555351\Dipol
 eDeriv=-1.2891869,0.2461873,0.3152681,-0.0020243,-0.4838186,0.0144409,
 0.6676696,-0.147633,-0.742513,-1.0383166,0.0920699,0.4010976,-0.021227
 2,-0.3766226,0.0803829,0.9247427,-0.0138385,-0.7656298,0.9044113,-0.21
 86711,-0.1056781,-0.3335012,0.5768463,0.2086391,-0.0142313,0.1462157,0
 .4083834,-0.1004421,0.0453157,-0.0636828,0.0436028,0.0135662,-0.044107
 5,-0.1128419,0.0090543,-0.0407759,-0.0419826,-0.0740444,-0.0259988,0.0
 384093,-0.1240799,-0.0765425,-0.0342312,-0.0572096,0.0238596,0.5083827
 ,-0.0141322,-0.1456028,0.3034767,-0.1776015,-0.2322805,-0.6728777,0.03
 57023,0.5042213,0.7261853,-0.0893762,-0.337799,0.0777156,-0.0781094,-0
 .1532372,-0.8120947,-0.0974591,0.5793599,-0.0504574,-0.0147119,0.04788
 3,-0.0212478,-0.0301706,0.0566744,0.069744,0.0411451,-0.0892531,0.0517
 603,-0.0353847,-0.0363393,-0.0711619,-0.0713844,-0.0598361,-0.0467604,
 -0.0393409,0.0207202,-0.0649803,0.0713955,0.0375853,0.0912015,0.023982
 9,-0.0329861,0.0653584,-0.0437315,0.038129,0.0305474,-0.0586239,0.0652
 399,-0.048886,0.0195212,0.0738515,0.0190318,0.0551649,-0.0498461,0.035
 1012,-0.0510005,0.0270857,-0.0449791,0.0346378,0.0270939,0.0629007,0.0
 620466,-0.0608825,-0.0317383,-0.0208803,-0.1095203,0.0042619,0.0392534
 ,0.02954,-0.0903423,-0.0010275,-0.0219284,-0.0403294,0.0994458,0.06095
 44,0.0789706,-0.0051877,-0.0509832,0.0473606,-0.0485241,0.0464853,0.02
 66505,0.0205526,-0.0467339,-0.0735359,0.152679,0.092193,-0.0125858,0.0
 492253,-0.0410981,0.0212398,0.0176056,-0.0128808,0.0458463,0.1443983,0
 .0612782,0.0078291,0.0606014,-0.05649,0.3531551,-0.0157471,-0.0708783,
 -0.0669212,0.3420895,0.0058792,-0.0686716,-0.0103917,0.2472582\Polar=8
 7.6968005,-5.0457498,55.8067118,-5.9280415,2.6981639,62.9266029\Quadru
 pole=6.6350726,-3.5681974,-3.0668753,-0.6738452,0.6031099,-0.1290297\P
 G=C01 [X(C5H10O2)]\NImag=0\\0.36433230,-0.08125253,0.24633649,-0.18989
 383,-0.05299072,0.33103419,-0.01659613,-0.00009329,0.00755807,0.690991
 14,0.00237439,0.00921570,0.00117270,0.10152169,0.03688578,0.01111594,0
 .00762353,-0.00758618,0.00245329,-0.02152558,0.36346018,-0.12772591,0.
 05494458,0.02500058,0.00494649,-0.00055604,-0.00676242,0.50183841,0.07
 062431,-0.13707470,-0.01183693,-0.00435469,-0.00007114,0.00246499,0.05
 371607,0.50149337,0.01794214,0.00295165,-0.08299005,-0.00003481,0.0009
 4812,0.00116432,-0.04569476,-0.06184092,0.58670777,-0.03282552,0.01558
 804,-0.01463735,-0.00049826,-0.00000094,0.00051360,-0.12382744,0.00100
 836,-0.05317170,0.52993343,0.02761586,-0.00923952,0.01254524,0.0006404
 5,0.00000496,-0.00054255,0.00018219,-0.07927860,0.00803916,0.00690549,
 0.59052007,0.00958653,-0.00292288,0.00982557,0.00035931,-0.00003622,-0
 .00035018,-0.06017378,0.01014302,-0.15587782,-0.04847348,0.01171948,0.
 53211967,0.00196766,0.03444783,0.01372673,-0.00089282,-0.00025212,0.00
 083828,-0.10589874,-0.05696674,-0.01515876,-0.01018500,-0.02357256,-0.
 00931737,0.57434406,0.00500929,-0.03235603,-0.01386951,0.00108877,-0.0
 0017425,-0.00127156,-0.04964955,-0.16445853,-0.02440505,-0.00422962,0.
 00361712,-0.00075079,-0.03850404,0.50558896,0.00153181,-0.01681116,-0.
 00311780,-0.00022588,0.00017860,0.00009932,-0.01171406,-0.01990199,-0.
 09083047,-0.01540165,-0.02413336,-0.01000016,-0.00719492,-0.02388067,0
 .57401586,-0.15534707,-0.01115464,0.09643598,-0.02563056,-0.00191032,0
 .00951122,-0.03564636,-0.00186998,0.03185580,-0.00001671,-0.00044894,-
 0.00050891,0.00378545,0.00030374,-0.00197882,0.90593573,-0.02866971,-0
 .08201795,0.07784392,-0.00409518,0.00636026,-0.00662059,0.00688983,0.0
 1031998,-0.01954216,0.00149303,-0.00038655,-0.00108095,0.00451728,-0.0
 0230257,-0.00250191,-0.08822023,0.18996347,0.10472200,0.06073710,-0.21
 631627,0.04370547,-0.00347525,0.00930616,0.02529834,-0.01199850,-0.018
 67411,-0.00376106,0.00084060,0.00576794,-0.00311604,0.00105291,0.00077
 147,0.01903432,-0.14509760,0.58645086,-0.02795136,-0.00126265,0.014376
 98,-0.18113754,-0.01580598,0.07837341,0.00119427,-0.00216075,-0.002007
 85,0.00010733,-0.00008930,0.00037923,0.00055008,-0.00121248,0.00042469
 ,-0.56029951,0.05816958,-0.05176956,0.92610626,-0.01745203,0.00286559,
 0.00352777,-0.01949062,-0.03897221,0.03107141,0.00225907,-0.00272126,-
 0.00065241,-0.00000487,-0.00011135,0.00015552,0.00001406,0.00018197,0.
 00036421,0.06528294,-0.06533179,0.02113235,-0.07777782,0.16311015,0.03
 705492,-0.00776320,0.00422884,0.12465270,0.03995443,-0.25184916,0.0058
 4264,0.00304346,-0.00250510,-0.00030071,0.00070601,-0.00051229,-0.0004
 5835,0.00064876,0.00036229,-0.04680466,0.02668004,-0.11938185,0.027272
 32,-0.13304480,0.61213195,-0.02264287,-0.00258761,0.02767870,-0.000931
 88,-0.00017884,0.00036827,-0.09266202,-0.05028230,0.08264647,0.0091398
 9,0.01083715,-0.02025800,-0.00544346,-0.00823647,0.01007552,-0.0020069
 8,0.00372024,-0.00107631,0.00041659,-0.00017739,0.00079039,0.11505395,
 0.01966251,0.00568429,-0.02393773,0.00062213,0.00016412,-0.00014067,-0
 .05727396,-0.10207142,0.09865685,-0.00088798,-0.00050929,0.00218745,-0
 .01367494,-0.01483537,0.02258382,0.00306481,-0.00207911,-0.00071657,-0
 .00004846,0.00028510,-0.00076918,0.04862364,0.11486071,0.01083955,-0.0
 0022727,-0.00934178,0.00050667,0.00010333,-0.00027241,0.08789191,0.091
 27176,-0.21365234,0.00763072,0.01238438,-0.02103004,-0.00544096,-0.005
 00549,0.00910466,0.00013448,-0.00192292,0.00215964,-0.00009272,0.00003
 407,-0.00016611,-0.09708285,-0.09533709,0.23274895,0.00268883,-0.00014
 649,0.00120709,0.00018237,0.00002294,-0.00019131,-0.00871443,-0.021849
 70,-0.00702677,-0.07137774,-0.07407336,-0.02484105,-0.00313779,0.00188
 501,-0.00373600,-0.00068887,-0.00008059,0.00039903,-0.00001985,0.00004
 343,0.00026838,0.00061009,0.00051661,0.00045251,0.07538059,-0.00056306
 ,0.00121705,0.00060645,-0.00009966,0.00003185,0.00012024,0.00237413,0.
 00337960,0.00150811,-0.07577497,-0.26751998,-0.07691409,0.00063893,0.0
 0080126,0.00000347,-0.00017046,0.00017741,-0.00019494,0.00009289,0.000
 01310,-0.00000201,-0.00037397,0.00039455,-0.00054983,0.08216739,0.2874
 1234,0.00247658,0.00073990,0.00163895,0.00003020,-0.00003937,-0.000022
 41,-0.00628332,-0.02444227,-0.00821199,-0.02569076,-0.07510846,-0.0750
 2316,-0.00329001,0.00203219,-0.00324305,-0.00044148,-0.00011050,0.0005
 1354,0.00006383,0.00005483,-0.00009044,0.00073776,-0.00008697,0.000440
 76,0.03077510,0.08423492,0.07911643,-0.00471004,0.00126203,-0.00289422
 ,-0.00038537,0.00000755,0.00039927,-0.01557694,0.01023508,0.01207322,-
 0.21503777,0.10677916,0.07567872,0.00048972,-0.00001763,0.00061481,0.0
 0134057,0.00052074,-0.00170158,0.00001678,-0.00001374,-0.00027655,0.00
 102054,0.00015437,-0.00008967,0.00952295,-0.00509452,-0.00409117,0.232
 19087,0.00207912,0.00073338,0.00103117,0.00017007,-0.00000333,-0.00015
 083,0.00160529,-0.00387873,-0.00195998,0.10747700,-0.11391757,-0.04912
 594,-0.00013105,-0.00016983,-0.00008281,-0.00085578,-0.00009124,0.0011
 6970,0.00005756,0.00008623,-0.00014493,-0.00003558,-0.00003172,0.00014
 496,0.02347660,-0.01288294,-0.00938495,-0.11864070,0.12101670,-0.00682
 937,0.00237761,-0.00246149,-0.00011957,-0.00000671,0.00003310,-0.01721
 286,0.01191149,0.01031016,0.07734928,-0.05022535,-0.08112004,0.0006025
 2,-0.00033653,0.00022909,0.00088621,0.00052224,-0.00241448,-0.00022488
 ,-0.00015718,0.00065978,0.00085597,0.00034980,0.00095350,0.00792488,-0
 .00366669,-0.00449093,-0.08248528,0.05324144,0.08657636,0.00091178,-0.
 00064009,0.00150390,0.00023407,-0.00000397,-0.00025665,0.01093471,0.01
 190158,-0.01934746,-0.08450126,-0.05287697,0.07714038,0.00137855,0.001
 16302,0.00028339,-0.00069711,0.00000721,0.00122585,-0.00024012,-0.0000
 0347,0.00014121,-0.00268290,0.00041129,-0.00380289,-0.00448866,-0.0034
 3253,0.00698636,-0.00952979,-0.01450463,0.01914461,0.09145846,0.000480
 67,0.00018051,-0.00057328,-0.00013512,-0.00002164,0.00014788,-0.001372
 23,-0.00273161,0.00274913,-0.05264020,-0.11940723,0.10625423,0.0004911
 5,0.00054136,-0.00118591,-0.00032870,-0.00037924,0.00151158,0.00021362
 ,0.00015355,-0.00072361,0.00044123,0.00091361,0.00001156,-0.01046927,-
 0.01320248,0.02314008,0.00569364,0.00901051,-0.01363120,0.05666601,0.1
 2458904,-0.00068527,-0.00026614,0.00154645,-0.00004121,-0.00004844,-0.
 00004998,0.01162087,0.01188853,-0.02166928,0.07611404,0.10584331,-0.20
 580774,0.00124631,0.00079944,0.00114267,0.00081364,0.00000769,-0.00106
 549,-0.00020355,-0.00018908,0.00061895,-0.00424434,0.00017992,-0.00231
 539,-0.00455223,-0.00544355,0.00943517,0.00363595,0.00563228,-0.008809
 54,-0.08371835,-0.11710660,0.22550987,0.00024860,0.00046452,-0.0004245
 7,0.00001149,-0.00002327,0.00007150,-0.00803554,-0.00626596,0.01172016
 ,0.00029024,0.00026469,0.00126103,-0.09804633,-0.05253515,0.09073613,0
 .00028941,0.00066861,0.00028911,-0.00016964,0.00021306,-0.00022918,-0.
 00021461,-0.00228510,-0.00136893,0.00025008,0.00026253,-0.00024857,-0.
 00003768,-0.00008793,0.00001791,-0.00012677,-0.00007085,-0.00069694,0.
 10445314,0.00087427,0.00237715,-0.00068049,-0.00027011,-0.00010196,0.0
 0029470,-0.01559832,-0.01503120,0.02580205,0.00156118,0.00096391,0.000
 97952,-0.05183516,-0.09855341,0.09250617,-0.00014707,-0.00044047,0.000
 19252,0.00102141,0.00018615,-0.00057813,-0.00218163,-0.00458205,-0.002
 55868,0.00034487,0.00013361,-0.00013414,0.00011204,0.00001630,-0.00006
 987,-0.00029306,0.00047948,-0.00078080,0.06012818,0.10781205,-0.000123
 16,0.00164556,0.00066149,0.00015815,-0.00007452,-0.00025506,-0.0050426
 4,-0.00389652,0.00758435,-0.00010402,-0.00030082,0.00163666,0.09104409
 ,0.09367913,-0.21160202,0.00140163,-0.00106571,-0.00062965,-0.00057139
 ,-0.00048212,-0.00022216,-0.00101767,-0.00224551,0.00044860,0.00006147
 ,0.00005207,0.00011571,-0.00008067,0.00004531,-0.00003929,0.00040562,0
 .00012297,0.00006715,-0.10039145,-0.10122976,0.22770841,0.00139113,0.0
 0054190,0.00141809,0.00010106,-0.00001782,-0.00007220,-0.01104734,0.00
 368970,-0.00929959,-0.00008928,-0.00332494,-0.00001835,-0.17305916,0.0
 2741146,-0.13189480,0.00041084,-0.00035030,-0.00037830,-0.00025462,-0.
 00017930,-0.00017308,0.00001769,0.00020008,0.00028618,-0.00033017,0.00
 010261,-0.00095533,0.00038236,0.00001636,0.00022743,0.00006165,0.00011
 169,-0.00009721,0.01090898,-0.00184350,0.01090645,0.18603691,0.0000733
 6,0.00254216,0.00201234,-0.00017743,-0.00003995,0.00024351,-0.02152900
 ,0.00489101,-0.02313784,-0.00135681,-0.00570564,-0.00125932,0.02953663
 ,-0.05337918,0.03131698,0.00043767,0.00013243,-0.00053786,0.00005085,0
 .00001169,-0.00032997,0.00049441,0.00125750,0.00055999,-0.00135408,0.0
 0021424,-0.00136699,-0.00009774,0.00001812,0.00022542,0.00012684,-0.00
 007789,-0.00011210,0.01038069,-0.00282243,0.00907240,-0.02853674,0.056
 13350,0.00096382,0.00065493,0.00069101,0.00005301,0.00002184,0.0000589
 0,-0.00598919,0.00184828,-0.00739410,-0.00041517,-0.00244557,0.0003910
 7,-0.13186307,0.02981870,-0.18627580,-0.00014961,0.00015557,-0.0002884
 8,0.00010848,0.00005272,0.00004298,0.00034851,-0.00039388,0.00059613,-
 0.00071386,0.00008441,-0.00009873,-0.00019196,0.00016786,0.00005053,0.
 00021026,-0.00003336,0.00050749,-0.01763342,0.00311928,-0.01696143,0.1
 4613871,-0.03174934,0.19889071,0.00123189,-0.00406448,-0.00133526,-0.0
 0009801,0.00002964,0.00016327,0.00908884,-0.00664388,-0.00515446,-0.00
 022020,0.00021175,0.00001182,-0.18569559,0.11743159,0.06866090,-0.0007
 0702,-0.00002148,0.00036151,0.00050069,0.00021812,-0.00010709,0.000514
 68,0.00070533,0.00042506,0.00027293,0.00004549,0.00016525,-0.00005175,
 -0.00036434,-0.00039717,-0.00002466,0.00014692,-0.00003080,-0.00981005
 ,0.00810556,0.00336087,-0.01450569,0.01191595,0.00903410,0.19944728,-0
 .00037440,-0.00769101,-0.00442086,0.00034884,0.00005949,-0.00034829,0.
 02343800,-0.01294793,-0.00866702,0.00040702,0.00094466,0.00033372,0.11
 557972,-0.14472032,-0.05837309,-0.00235764,-0.00037144,0.00246616,0.00
 038688,0.00032830,0.00035212,0.00004986,0.00065248,0.00096722,-0.00014
 021,0.00009483,0.00039042,-0.00066990,0.00016425,-0.00032691,-0.000077
 08,-0.00005209,-0.00001878,-0.01113292,0.00979473,0.00450994,0.0020904
 2,-0.00309083,-0.00110017,-0.12752853,0.15685893,0.00016139,-0.0019731
 7,0.00013087,0.00026992,-0.00002555,-0.00022876,0.00712113,-0.00246887
 ,-0.00467841,0.00009825,0.00035760,0.00018070,0.06779512,-0.05836830,-
 0.08043008,-0.00019408,-0.00046831,0.00057640,-0.00049152,-0.00004349,
 0.00007523,-0.00024038,0.00004831,0.00029561,-0.00005878,0.00020616,0.
 00010164,-0.00059607,-0.00030266,-0.00012886,0.00012131,-0.00007000,-0
 .00012488,0.01703505,-0.01649557,-0.00844457,-0.01608489,0.01494164,0.
 00970118,-0.07500599,0.06457093,0.08291690,0.01036188,-0.00730865,0.02
 226733,0.00268477,-0.00093383,-0.00002273,0.00255766,-0.00099843,0.000
 28476,-0.00088846,0.00085350,-0.00066032,-0.00031739,0.00037005,-0.000
 05596,-0.12403638,0.03839133,-0.11024654,-0.00724829,0.00877674,-0.027
 68086,-0.00016879,0.00011796,-0.00026197,-0.00016130,-0.00021136,-0.00
 021191,0.00030702,-0.00017048,0.00012972,-0.00260604,0.00090483,0.0007
 0119,0.00001266,-0.00003404,0.00003301,-0.00003086,-0.00008962,-0.0000
 3227,-0.00001521,0.00007729,0.00008210,0.12460101,0.00020290,0.0008813
 5,0.01236576,-0.00098074,-0.00494689,0.00028647,0.00051861,-0.00046906
 ,-0.00062156,0.00045350,0.00010905,0.00020910,-0.00035749,0.00016504,-
 0.00008255,0.03825994,-0.06039234,0.06630230,0.00154249,0.00776174,0.0
 0234108,-0.00013373,0.00000153,0.00014972,-0.00026882,-0.00020135,0.00
 008326,-0.00021506,-0.00006734,-0.00020534,0.00151274,-0.00002522,-0.0
 0046036,-0.00004714,-0.00017740,-0.00004245,-0.00000763,-0.00009862,0.
 00001654,-0.00005018,0.00007135,0.00009394,-0.04099359,0.05016564,-0.0
 0034303,0.00873710,-0.02773768,-0.00096622,-0.00165832,0.00069191,-0.0
 0392116,0.00356801,0.00080439,0.00011757,0.00035427,-0.00006170,0.0004
 8183,-0.00015499,-0.00026290,-0.11190798,0.06907600,-0.24272183,0.0005
 1393,0.00186637,0.00040500,0.00032661,-0.00032185,0.00007346,0.0000619
 9,-0.00003542,-0.00017440,-0.00003531,-0.00025791,0.00061391,-0.000015
 27,-0.00058699,0.00099754,-0.00011949,-0.00036434,-0.00009573,0.000036
 46,0.00011113,0.00014503,-0.00011281,-0.00028749,0.00006282,0.11506733
 ,-0.08237352,0.26605580,0.00319136,-0.00040970,-0.00041248,0.00796086,
 -0.00695767,0.02487981,-0.00045481,0.00010173,0.00011195,-0.00006745,0
 .00018182,-0.00014206,0.00004334,-0.00005403,-0.00016126,-0.00686989,0
 .00996977,-0.02778709,-0.12476975,0.03996975,-0.11153525,-0.00004538,0
 .00004563,0.00002155,0.00004208,0.00001663,-0.00002187,-0.00000998,-0.
 00006673,0.00014799,-0.00002993,-0.00017874,0.00016466,-0.00000685,-0.
 00003265,0.00000352,0.00002401,0.00007889,0.00010627,0.00001976,-0.000
 05126,0.00003472,-0.00527142,0.00085239,0.00086973,0.12289259,-0.00027
 108,-0.00554889,-0.00379490,-0.00000936,0.00267514,0.00270269,-0.00009
 235,0.00045601,-0.00038753,-0.00004146,-0.00004622,0.00011199,0.000203
 73,0.00006693,0.00004099,0.00010785,0.00713154,0.00715876,0.04191244,-
 0.06307664,0.07323303,0.00011614,-0.00011240,-0.00007353,-0.00006019,-
 0.00004558,0.00000916,-0.00001494,-0.00000907,-0.00000367,0.00002283,0
 .00001834,0.00006956,0.00001838,-0.00001929,0.00018686,0.00008256,-0.0
 0000543,-0.00021488,-0.00013788,-0.00011397,-0.00001807,0.00129750,0.0
 0794658,0.00236712,-0.04342034,0.05021709,0.00003505,-0.00182752,0.000
 02622,-0.00220888,0.00941902,-0.02529652,-0.00014509,-0.00005823,0.000
 03396,0.00012704,-0.00001703,-0.00009502,0.00007460,0.00001515,-0.0000
 0781,0.00065743,0.00260981,0.00132024,-0.11110912,0.07046311,-0.247741
 48,0.00001451,0.00001271,-0.00000565,-0.00002999,-0.00000663,0.0000033
 5,0.00003907,-0.00001751,0.00001306,-0.00002753,-0.00001236,0.00000491
 ,-0.00003555,0.00001892,0.00001367,-0.00004520,0.00001299,0.00000047,-
 0.00000526,-0.00003813,0.00000182,0.00052306,0.00205384,0.00101249,0.1
 1326024,-0.08183945,0.27060147,0.00147346,0.00167125,-0.00157574,-0.48
 094167,-0.07731540,-0.12138256,-0.00097086,0.00011558,0.00026165,0.000
 06418,-0.00008599,-0.00002371,0.00011741,-0.00022396,0.00003609,0.0001
 8447,-0.00291014,0.00480085,-0.02680133,-0.00167795,-0.00845683,0.0000
 2546,0.00004609,-0.00004863,-0.00003111,0.00001994,-0.00000067,0.00006
 850,-0.00002479,-0.00001740,-0.00005197,0.00004536,-0.00002676,-0.0000
 1714,0.00008804,-0.00004382,-0.00001752,0.00004613,0.00002537,0.000052
 12,-0.00004608,-0.00004729,0.00021915,-0.00028818,-0.00005418,0.003351
 46,0.00028617,-0.00112438,0.50327538,-0.00041387,0.00189443,0.00099906
 ,-0.07468575,-0.01106592,-0.01435538,0.00014369,0.00019424,0.00055939,
 0.00004323,-0.00003782,-0.00000383,-0.00013523,-0.00001317,-0.00004080
 ,0.00000682,-0.00029240,-0.00054325,-0.00509027,-0.00477032,-0.0036031
 0,-0.00009516,0.00000747,0.00004783,-0.00001413,-0.00001750,-0.0000111
 1,-0.00000041,0.00000626,0.00000146,0.00002029,0.00001099,0.00000513,0
 .00004766,-0.00003518,0.00002318,0.00001347,0.00001932,-0.00000293,0.0
 0000041,0.00001856,0.00001542,-0.00004918,-0.00072406,-0.00003917,-0.0
 0004549,0.00046585,-0.00078870,0.08025393,0.01433926,0.00144493,-0.000
 68533,-0.00023233,-0.17615022,-0.02490808,-0.08890320,0.00016379,0.000
 30469,-0.00012126,0.00000538,-0.00001690,-0.00004344,0.00002999,-0.000
 00337,0.00004475,0.00125481,0.00151539,-0.00537409,0.04495772,0.005846
 71,0.00394357,0.00007685,-0.00006942,-0.00003757,-0.00000048,-0.000002
 67,-0.00001043,0.00000144,-0.00000519,0.00002512,0.00000526,-0.0000141
 2,0.00001210,0.00001721,-0.00002138,0.00001388,0.00000565,-0.00000298,
 -0.00005695,-0.00003394,-0.00000978,-0.00000760,0.00008404,-0.00011624
 ,0.00019190,0.00045956,0.00045186,0.00011483,0.12767800,0.01773680,0.0
 9044072\\0.00000014,-0.00000029,-0.00000073,0.00000010,0.00000182,-0.0
 0000029,0.00000031,-0.00000082,-0.00000043,-0.00000001,-0.00000022,-0.
 00000006,-0.00000048,-0.00000104,0.00000077,0.00000014,0.00000078,-0.0
 0000013,0.00000021,0.00000083,-0.00000044,-0.00000007,-0.00000145,-0.0
 0000055,0.00000024,-0.00000003,-0.00000089,-0.00000017,-0.00000058,0.0
 0000015,0.00000006,0.00000050,0.00000017,-0.00000033,-0.00000019,0.000
 00118,-0.00000036,-0.00000134,0.00000083,-0.00000060,-0.00000127,0.000
 00124,0.00000019,0.00000121,-0.00000036,0.00000019,0.00000032,-0.00000
 058,0.00000045,0.00000176,0.00000014\\\@


 THE RARE EARTHS PERPLEX US IN OUR RESEARCHES,
 BAFFLE US IN OUR SPECULATIONS, AND HAUNT US IN OUR
 VERY DREAMS.  THEY STRETCH LIKE AN UNKNOWN BEFORE US,
 MOCKING, MYSTIFYING, AND MURMURING STRANGE REVELATIONS
 AND POSSIBILITIES.  -- SIR WILLIAM CROOKE, 1832-1919
 Job cpu time:       0 days  2 hours 36 minutes 36.9 seconds.
 Elapsed time:       0 days  1 hours 18 minutes 19.2 seconds.
 File lengths (MBytes):  RWF=   1392 Int=      0 D2E=      0 Chk=     32 Scr=     32
 Normal termination of Gaussian 16 at Sun Sep 29 18:49:25 2019.
