 Entering Gaussian System, Link 0=g16
 Input=loose/species/CC(C)OC=CO/conformers/CC(C)OC=CO_121.com
 Output=loose/species/CC(C)OC=CO/conformers/CC(C)OC=CO_121.log
 Initial command:
 /shared/centos7/gaussian/g16/l1.exe "/scratch/harms.n/gauss_scrdir/Gau-41366.inp" -scrdir="/scratch/harms.n/gauss_scrdir/"
 Entering Link 1 = /shared/centos7/gaussian/g16/l1.exe PID=     41367.
  
 Copyright (c) 1988,1990,1992,1993,1995,1998,2003,2009,2016,
            Gaussian, Inc.  All Rights Reserved.
  
 This is part of the Gaussian(R) 16 program.  It is based on
 the Gaussian(R) 09 system (copyright 2009, Gaussian, Inc.),
 the Gaussian(R) 03 system (copyright 2003, Gaussian, Inc.),
 the Gaussian(R) 98 system (copyright 1998, Gaussian, Inc.),
 the Gaussian(R) 94 system (copyright 1995, Gaussian, Inc.),
 the Gaussian 92(TM) system (copyright 1992, Gaussian, Inc.),
 the Gaussian 90(TM) system (copyright 1990, Gaussian, Inc.),
 the Gaussian 88(TM) system (copyright 1988, Gaussian, Inc.),
 the Gaussian 86(TM) system (copyright 1986, Carnegie Mellon
 University), and the Gaussian 82(TM) system (copyright 1983,
 Carnegie Mellon University). Gaussian is a federally registered
 trademark of Gaussian, Inc.
  
 This software contains proprietary and confidential information,
 including trade secrets, belonging to Gaussian, Inc.
  
 This software is provided under written license and may be
 used, copied, transmitted, or stored only in accord with that
 written license.
  
 The following legend is applicable only to US Government
 contracts under FAR:
  
                    RESTRICTED RIGHTS LEGEND
  
 Use, reproduction and disclosure by the US Government is
 subject to restrictions as set forth in subparagraphs (a)
 and (c) of the Commercial Computer Software - Restricted
 Rights clause in FAR 52.227-19.
  
 Gaussian, Inc.
 340 Quinnipiac St., Bldg. 40, Wallingford CT 06492
  
  
 ---------------------------------------------------------------
 Warning -- This program may not be used in any manner that
 competes with the business of Gaussian, Inc. or will provide
 assistance to any competitor of Gaussian, Inc.  The licensee
 of this program is prohibited from giving any competitor of
 Gaussian, Inc. access to this program.  By using this program,
 the user acknowledges that Gaussian, Inc. is engaged in the
 business of creating and licensing software in the field of
 computational chemistry and represents and warrants to the
 licensee that it is not a competitor of Gaussian, Inc. and that
 it will not use this program in any manner prohibited above.
 ---------------------------------------------------------------
  

 Cite this work as:
 Gaussian 16, Revision A.03,
 M. J. Frisch, G. W. Trucks, H. B. Schlegel, G. E. Scuseria, 
 M. A. Robb, J. R. Cheeseman, G. Scalmani, V. Barone, 
 G. A. Petersson, H. Nakatsuji, X. Li, M. Caricato, A. V. Marenich, 
 J. Bloino, B. G. Janesko, R. Gomperts, B. Mennucci, H. P. Hratchian, 
 J. V. Ortiz, A. F. Izmaylov, J. L. Sonnenberg, D. Williams-Young, 
 F. Ding, F. Lipparini, F. Egidi, J. Goings, B. Peng, A. Petrone, 
 T. Henderson, D. Ranasinghe, V. G. Zakrzewski, J. Gao, N. Rega, 
 G. Zheng, W. Liang, M. Hada, M. Ehara, K. Toyota, R. Fukuda, 
 J. Hasegawa, M. Ishida, T. Nakajima, Y. Honda, O. Kitao, H. Nakai, 
 T. Vreven, K. Throssell, J. A. Montgomery, Jr., J. E. Peralta, 
 F. Ogliaro, M. J. Bearpark, J. J. Heyd, E. N. Brothers, K. N. Kudin, 
 V. N. Staroverov, T. A. Keith, R. Kobayashi, J. Normand, 
 K. Raghavachari, A. P. Rendell, J. C. Burant, S. S. Iyengar, 
 J. Tomasi, M. Cossi, J. M. Millam, M. Klene, C. Adamo, R. Cammi, 
 J. W. Ochterski, R. L. Martin, K. Morokuma, O. Farkas, 
 J. B. Foresman, and D. J. Fox, Gaussian, Inc., Wallingford CT, 2016.
 
 ******************************************
 Gaussian 16:  EM64L-G16RevA.03 25-Dec-2016
                26-Sep-2019 
 ******************************************
 %nprocshared=20
 Will use up to   20 processors via shared memory.
 %mem=5GB
 ----------------------------------------------------------------------
 #p m062x/cc-pVTZ opt=(calcfc,maxcycles=900,Tight) freq IOP(7/33=1,2/16
 =3) scf=(maxcycle=900)
 ----------------------------------------------------------------------
 1/6=900,7=10,10=4,18=20,19=15,26=3,38=1/1,3;
 2/9=110,12=2,16=3,17=6,18=5,40=1/2;
 3/5=16,6=1,11=2,25=1,30=1,71=2,74=-55,140=1/1,2,3;
 4//1;
 5/5=2,7=900,38=5/2;
 8/6=4,10=90,11=11/1;
 11/6=1,8=1,9=11,15=111,16=1/1,2,10;
 10/6=1,13=1/2;
 6/7=2,8=2,9=2,10=2,28=1/1;
 7/10=1,18=20,25=1,33=1/1,2,3,16;
 1/6=900,7=10,10=4,18=20,19=15,26=3/3(2);
 2/9=110,16=3/2;
 99//99;
 2/9=110,16=3/2;
 3/5=16,6=1,11=2,25=1,30=1,71=1,74=-55/1,2,3;
 4/5=5,16=3,69=1/1;
 5/5=2,7=900,38=5/2;
 7/33=1/1,2,3,16;
 1/6=900,7=10,18=20,19=15,26=3/3(-5);
 2/9=110,16=3/2;
 6/7=2,8=2,9=2,10=2,19=2,28=1/1;
 99/9=1/99;
 Leave Link    1 at Thu Sep 26 01:51:45 2019, MaxMem=   671088640 cpu:               4.2 elap:               2.1
 (Enter /shared/centos7/gaussian/g16/l101.exe)
 ------------------------------
 Gaussian input prepared by ASE
 ------------------------------
 Symbolic Z-matrix:
 Charge =  0 Multiplicity = 1
 O                     0.93781   0.2756    3.13199 
 O                     2.35036  -2.14639   3.06864 
 C                     1.36662   1.50283   3.68327 
 C                     1.92936   1.29802   5.08982 
 C                     0.25807   2.50317   3.70575 
 C                     1.65715  -0.13971   2.03474 
 C                     2.27256  -1.28546   1.98405 
 H                     2.19275   1.90388   3.03287 
 H                     1.74269   0.26431   5.44871 
 H                     3.01813   1.48332   5.13167 
 H                     1.42977   2.00799   5.80324 
 H                    -0.11761   2.64737   4.76157 
 H                    -0.60736   2.20007   3.08027 
 H                     0.6178    3.50407   3.33378 
 H                     1.60517   0.50688   1.14425 
 H                     2.75009  -1.65854   1.09007 
 H                     2.88653  -2.93854   2.77402 
 
 ITRead=  0  0  0  0  0  0  0  0  0  0  0  0  0  0  0  0  0
 MicOpt= -1 -1 -1 -1 -1 -1 -1 -1 -1 -1 -1 -1 -1 -1 -1 -1 -1
 NAtoms=     17 NQM=       17 NQMF=       0 NMMI=      0 NMMIF=      0
                NMic=       0 NMicF=      0.
                    Isotopes and Nuclear Properties:
 (Nuclear quadrupole moments (NQMom) in fm**2, nuclear magnetic moments (NMagM)
  in nuclear magnetons)

  Atom         1           2           3           4           5           6           7           8           9          10
 IAtWgt=          16          16          12          12          12          12          12           1           1           1
 AtmWgt=  15.9949146  15.9949146  12.0000000  12.0000000  12.0000000  12.0000000  12.0000000   1.0078250   1.0078250   1.0078250
 NucSpn=           0           0           0           0           0           0           0           1           1           1
 AtZEff=  -0.0000000  -0.0000000  -0.0000000  -0.0000000  -0.0000000  -0.0000000  -0.0000000  -0.0000000  -0.0000000  -0.0000000
 NQMom=    0.0000000   0.0000000   0.0000000   0.0000000   0.0000000   0.0000000   0.0000000   0.0000000   0.0000000   0.0000000
 NMagM=    0.0000000   0.0000000   0.0000000   0.0000000   0.0000000   0.0000000   0.0000000   2.7928460   2.7928460   2.7928460
 AtZNuc=   8.0000000   8.0000000   6.0000000   6.0000000   6.0000000   6.0000000   6.0000000   1.0000000   1.0000000   1.0000000

  Atom        11          12          13          14          15          16          17
 IAtWgt=           1           1           1           1           1           1           1
 AtmWgt=   1.0078250   1.0078250   1.0078250   1.0078250   1.0078250   1.0078250   1.0078250
 NucSpn=           1           1           1           1           1           1           1
 AtZEff=  -0.0000000  -0.0000000  -0.0000000  -0.0000000  -0.0000000  -0.0000000  -0.0000000
 NQMom=    0.0000000   0.0000000   0.0000000   0.0000000   0.0000000   0.0000000   0.0000000
 NMagM=    2.7928460   2.7928460   2.7928460   2.7928460   2.7928460   2.7928460   2.7928460
 AtZNuc=   1.0000000   1.0000000   1.0000000   1.0000000   1.0000000   1.0000000   1.0000000
 Leave Link  101 at Thu Sep 26 01:51:47 2019, MaxMem=   671088640 cpu:               2.4 elap:               1.2
 (Enter /shared/centos7/gaussian/g16/l103.exe)

 GradGradGradGradGradGradGradGradGradGradGradGradGradGradGradGradGradGrad
 Berny optimization.
 Initialization pass.
                           ----------------------------
                           !    Initial Parameters    !
                           ! (Angstroms and Degrees)  !
 --------------------------                            --------------------------
 ! Name  Definition              Value          Derivative Info.                !
 --------------------------------------------------------------------------------
 ! R1    R(1,3)                  1.412          calculate D2E/DX2 analytically  !
 ! R2    R(1,6)                  1.3762         calculate D2E/DX2 analytically  !
 ! R3    R(2,7)                  1.3869         calculate D2E/DX2 analytically  !
 ! R4    R(2,17)                 1.0009         calculate D2E/DX2 analytically  !
 ! R5    R(3,4)                  1.5287         calculate D2E/DX2 analytically  !
 ! R6    R(3,5)                  1.4933         calculate D2E/DX2 analytically  !
 ! R7    R(3,8)                  1.1253         calculate D2E/DX2 analytically  !
 ! R8    R(4,9)                  1.1101         calculate D2E/DX2 analytically  !
 ! R9    R(4,10)                 1.1052         calculate D2E/DX2 analytically  !
 ! R10   R(4,11)                 1.1237         calculate D2E/DX2 analytically  !
 ! R11   R(5,12)                 1.1299         calculate D2E/DX2 analytically  !
 ! R12   R(5,13)                 1.11           calculate D2E/DX2 analytically  !
 ! R13   R(5,14)                 1.1267         calculate D2E/DX2 analytically  !
 ! R14   R(6,7)                  1.3016         calculate D2E/DX2 analytically  !
 ! R15   R(6,15)                 1.1017         calculate D2E/DX2 analytically  !
 ! R16   R(7,16)                 1.08           calculate D2E/DX2 analytically  !
 ! A1    A(3,1,6)              114.5084         calculate D2E/DX2 analytically  !
 ! A2    A(7,2,17)             106.9262         calculate D2E/DX2 analytically  !
 ! A3    A(1,3,4)              110.7665         calculate D2E/DX2 analytically  !
 ! A4    A(1,3,5)              111.2624         calculate D2E/DX2 analytically  !
 ! A5    A(1,3,8)              107.8807         calculate D2E/DX2 analytically  !
 ! A6    A(4,3,5)              110.4357         calculate D2E/DX2 analytically  !
 ! A7    A(4,3,8)              108.0154         calculate D2E/DX2 analytically  !
 ! A8    A(5,3,8)              108.3568         calculate D2E/DX2 analytically  !
 ! A9    A(3,4,9)              111.1205         calculate D2E/DX2 analytically  !
 ! A10   A(3,4,10)             112.0252         calculate D2E/DX2 analytically  !
 ! A11   A(3,4,11)             109.6243         calculate D2E/DX2 analytically  !
 ! A12   A(9,4,10)             108.032          calculate D2E/DX2 analytically  !
 ! A13   A(9,4,11)             107.9589         calculate D2E/DX2 analytically  !
 ! A14   A(10,4,11)            107.9399         calculate D2E/DX2 analytically  !
 ! A15   A(3,5,12)             110.2653         calculate D2E/DX2 analytically  !
 ! A16   A(3,5,13)             112.791          calculate D2E/DX2 analytically  !
 ! A17   A(3,5,14)             110.6759         calculate D2E/DX2 analytically  !
 ! A18   A(12,5,13)            107.588          calculate D2E/DX2 analytically  !
 ! A19   A(12,5,14)            107.5338         calculate D2E/DX2 analytically  !
 ! A20   A(13,5,14)            107.7863         calculate D2E/DX2 analytically  !
 ! A21   A(1,6,7)              122.9466         calculate D2E/DX2 analytically  !
 ! A22   A(1,6,15)             116.2746         calculate D2E/DX2 analytically  !
 ! A23   A(7,6,15)             120.496          calculate D2E/DX2 analytically  !
 ! A24   A(2,7,6)              122.8541         calculate D2E/DX2 analytically  !
 ! A25   A(2,7,16)             114.0839         calculate D2E/DX2 analytically  !
 ! A26   A(6,7,16)             123.0513         calculate D2E/DX2 analytically  !
 ! D1    D(6,1,3,4)           -114.5625         calculate D2E/DX2 analytically  !
 ! D2    D(6,1,3,5)            122.1908         calculate D2E/DX2 analytically  !
 ! D3    D(6,1,3,8)              3.4643         calculate D2E/DX2 analytically  !
 ! D4    D(3,1,6,7)            122.573          calculate D2E/DX2 analytically  !
 ! D5    D(3,1,6,15)           -63.5176         calculate D2E/DX2 analytically  !
 ! D6    D(17,2,7,6)          -178.8954         calculate D2E/DX2 analytically  !
 ! D7    D(17,2,7,16)            2.2621         calculate D2E/DX2 analytically  !
 ! D8    D(1,3,4,9)             -8.8045         calculate D2E/DX2 analytically  !
 ! D9    D(1,3,4,10)           112.1415         calculate D2E/DX2 analytically  !
 ! D10   D(1,3,4,11)          -128.0567         calculate D2E/DX2 analytically  !
 ! D11   D(5,3,4,9)            114.9182         calculate D2E/DX2 analytically  !
 ! D12   D(5,3,4,10)          -124.1358         calculate D2E/DX2 analytically  !
 ! D13   D(5,3,4,11)            -4.334          calculate D2E/DX2 analytically  !
 ! D14   D(8,3,4,9)           -126.7492         calculate D2E/DX2 analytically  !
 ! D15   D(8,3,4,10)            -5.8032         calculate D2E/DX2 analytically  !
 ! D16   D(8,3,4,11)           113.9986         calculate D2E/DX2 analytically  !
 ! D17   D(1,3,5,12)           106.5584         calculate D2E/DX2 analytically  !
 ! D18   D(1,3,5,13)           -13.7416         calculate D2E/DX2 analytically  !
 ! D19   D(1,3,5,14)          -134.5866         calculate D2E/DX2 analytically  !
 ! D20   D(4,3,5,12)           -16.8774         calculate D2E/DX2 analytically  !
 ! D21   D(4,3,5,13)          -137.1774         calculate D2E/DX2 analytically  !
 ! D22   D(4,3,5,14)           101.9777         calculate D2E/DX2 analytically  !
 ! D23   D(8,3,5,12)          -135.001          calculate D2E/DX2 analytically  !
 ! D24   D(8,3,5,13)           104.699          calculate D2E/DX2 analytically  !
 ! D25   D(8,3,5,14)           -16.146          calculate D2E/DX2 analytically  !
 ! D26   D(1,6,7,2)             -5.3377         calculate D2E/DX2 analytically  !
 ! D27   D(1,6,7,16)           173.4016         calculate D2E/DX2 analytically  !
 ! D28   D(15,6,7,2)          -178.9986         calculate D2E/DX2 analytically  !
 ! D29   D(15,6,7,16)           -0.2593         calculate D2E/DX2 analytically  !
 --------------------------------------------------------------------------------
 Trust Radius=3.00D-01 FncErr=1.00D-07 GrdErr=1.00D-06 EigMax=2.50D+02 EigMin=1.00D-04
 Number of steps in this run=    102 maximum allowed number of steps=    102.
 GradGradGradGradGradGradGradGradGradGradGradGradGradGradGradGradGradGrad

 Leave Link  103 at Thu Sep 26 01:51:47 2019, MaxMem=   671088640 cpu:               1.5 elap:               0.8
 (Enter /shared/centos7/gaussian/g16/l202.exe)
                          Input orientation:                          
 ---------------------------------------------------------------------
 Center     Atomic      Atomic             Coordinates (Angstroms)
 Number     Number       Type             X           Y           Z
 ---------------------------------------------------------------------
      1          8           0        0.937808    0.275601    3.131985
      2          8           0        2.350360   -2.146386    3.068642
      3          6           0        1.366617    1.502830    3.683266
      4          6           0        1.929364    1.298021    5.089815
      5          6           0        0.258070    2.503173    3.705746
      6          6           0        1.657152   -0.139707    2.034735
      7          6           0        2.272564   -1.285461    1.984048
      8          1           0        2.192749    1.903879    3.032873
      9          1           0        1.742689    0.264311    5.448713
     10          1           0        3.018125    1.483316    5.131665
     11          1           0        1.429772    2.007992    5.803243
     12          1           0       -0.117610    2.647369    4.761567
     13          1           0       -0.607364    2.200068    3.080265
     14          1           0        0.617800    3.504071    3.333778
     15          1           0        1.605172    0.506881    1.144253
     16          1           0        2.750095   -1.658544    1.090071
     17          1           0        2.886534   -2.938535    2.774023
 ---------------------------------------------------------------------
                    Distance matrix (angstroms):
                    1          2          3          4          5
     1  O    0.000000
     2  O    2.804521   0.000000
     3  C    1.412047   3.829137   0.000000
     4  C    2.421079   4.015759   1.528729   0.000000
     5  C    2.398608   5.138286   1.493342   2.482190   0.000000
     6  C    1.376189   2.361411   2.345206   3.387429   3.425569
     7  C    2.352923   1.386935   3.388605   4.054374   4.623438
     8  H    2.058152   4.053488   1.125320   2.160428   2.134221
     9  H    2.452588   3.441724   2.189101   1.110050   3.202270
    10  H    3.128101   4.228086   2.196752   1.105209   3.269750
    11  H    3.221618   5.058100   2.180248   1.123668   2.453077
    12  H    3.065082   5.651280   2.162321   2.473579   1.129905
    13  H    2.468563   5.257369   2.178612   3.359609   1.109989
    14  H    3.250560   5.916056   2.165140   3.109746   1.126748
    15  H    2.109489   3.361310   2.737774   4.037135   3.515837
    16  H    3.345851   2.076661   4.316591   5.041114   5.511065
    17  H    3.775757   1.000891   4.781484   4.922141   6.114665
                    6          7          8          9         10
     6  C    0.000000
     7  C    1.301558   0.000000
     8  H    2.336533   3.358317   0.000000
     9  H    3.438865   3.832292   2.954153   0.000000
    10  H    3.751990   4.257872   2.294133   1.792548   0.000000
    11  H    4.343496   5.113059   2.875400   1.806663   1.802545
    12  H    4.284062   5.375378   2.979752   3.100299   3.365238
    13  H    3.419900   4.652374   2.816134   3.857389   4.226837
    14  H    4.005606   5.244008   2.265309   4.029190   3.616270
    15  H    1.101697   2.088817   2.421515   4.313482   4.341580
    16  H    2.096134   1.080011   4.095848   4.869291   5.126169
    17  H    3.145054   1.932272   4.898705   4.326727   5.012839
                   11         12         13         14         15
    11  H    0.000000
    12  H    1.971873   0.000000
    13  H    3.406086   1.807405   0.000000
    14  H    2.999301   1.820260   1.807130   0.000000
    15  H    4.897988   4.542535   3.392689   3.840842   0.000000
    16  H    6.115613   6.343855   5.488377   6.019426   2.450071
    17  H    5.980506   6.646619   6.221442   6.853294   4.021061
                   16         17
    16  H    0.000000
    17  H    2.119596   0.000000
 Stoichiometry    C5H10O2
 Framework group  C1[X(C5H10O2)]
 Deg. of freedom    45
 Full point group                 C1      NOp   1
 Largest Abelian subgroup         C1      NOp   1
 Largest concise Abelian subgroup C1      NOp   1
                         Standard orientation:                         
 ---------------------------------------------------------------------
 Center     Atomic      Atomic             Coordinates (Angstroms)
 Number     Number       Type             X           Y           Z
 ---------------------------------------------------------------------
      1          8           0        0.090613   -0.380660   -0.497224
      2          8           0       -2.472292    0.749488   -0.357133
      3          6           0        1.227743   -0.020579    0.258525
      4          6           0        1.426688    1.495124    0.249746
      5          6           0        2.453013   -0.710207   -0.244660
      6          6           0       -0.930743   -0.937377    0.238162
      7          6           0       -2.134429   -0.442956    0.265374
      8          1           0        1.051616   -0.342321    1.322390
      9          1           0        0.738127    1.984755   -0.470224
     10          1           0        1.254079    1.941582    1.245922
     11          1           0        2.479797    1.735733   -0.059608
     12          1           0        3.114497    0.020590   -0.796983
     13          1           0        2.222146   -1.544723   -0.939180
     14          1           0        3.052735   -1.130832    0.611477
     15          1           0       -0.709041   -1.896636    0.732537
     16          1           0       -2.961698   -0.933413    0.756801
     17          1           0       -3.442465    0.910612   -0.171164
 ---------------------------------------------------------------------
 Rotational constants (GHZ):           5.4137300           1.4502519           1.2351173
 Leave Link  202 at Thu Sep 26 01:51:49 2019, MaxMem=   671088640 cpu:               3.6 elap:               1.8
 (Enter /shared/centos7/gaussian/g16/l301.exe)
 Standard basis: CC-pVTZ (5D, 7F)
 Ernie: Thresh=  0.10000D-02 Tol=  0.10000D-05 Strict=F.
 Ernie:  21 primitive shells out of 262 were deleted.
 There are   395 symmetry adapted cartesian basis functions of A   symmetry.
 There are   350 symmetry adapted basis functions of A   symmetry.
   350 basis functions,   534 primitive gaussians,   395 cartesian basis functions
    28 alpha electrons       28 beta electrons
       nuclear repulsion energy       312.7073682344 Hartrees.
 IExCor= 4336 DFT=T Ex+Corr=M062X ExCW=0 ScaHFX=  0.540000
 ScaDFX=  1.000000  1.000000  1.000000  1.000000 ScalE2=  1.000000  1.000000
 IRadAn=      5 IRanWt=     -1 IRanGd=            0 ICorTp=0 IEmpDi=  4
 NAtoms=   17 NActive=   17 NUniq=   17 SFac= 1.00D+00 NAtFMM=   60 NAOKFM=F Big=F
 Integral buffers will be    131072 words long.
 Raffenetti 2 integral format.
 Two-electron integral symmetry is turned on.
 Leave Link  301 at Thu Sep 26 01:51:50 2019, MaxMem=   671088640 cpu:               1.6 elap:               0.8
 (Enter /shared/centos7/gaussian/g16/l302.exe)
 NPDir=0 NMtPBC=     1 NCelOv=     1 NCel=       1 NClECP=     1 NCelD=      1
         NCelK=      1 NCelE2=     1 NClLst=     1 CellRange=     0.0.
 One-electron integrals computed using PRISM.
 One-electron integral symmetry used in STVInt
 NBasis=   350 RedAO= T EigKep=  2.74D-04  NBF=   350
 NBsUse=   350 1.00D-06 EigRej= -1.00D+00 NBFU=   350
 Precomputing XC quadrature grid using
 IXCGrd= 4 IRadAn=           5 IRanWt=          -1 IRanGd=           0 AccXCQ= 0.00D+00.
 Generated NRdTot=       0 NPtTot=           0 NUsed=           0 NTot=          32
 NSgBfM=   395   395   395   395   395 MxSgAt=    17 MxSgA2=    17.
 Leave Link  302 at Thu Sep 26 01:52:58 2019, MaxMem=   671088640 cpu:             135.6 elap:              67.8
 (Enter /shared/centos7/gaussian/g16/l303.exe)
 DipDrv:  MaxL=1.
 Leave Link  303 at Thu Sep 26 01:53:02 2019, MaxMem=   671088640 cpu:               8.6 elap:               4.3
 (Enter /shared/centos7/gaussian/g16/l401.exe)
 ExpMin= 1.03D-01 ExpMax= 1.53D+04 ExpMxC= 5.22D+02 IAcc=3 IRadAn=         5 AccDes= 0.00D+00
 Harris functional with IExCor= 1009 and IRadAn=       5 diagonalized for initial guess.
 HarFok:  IExCor= 1009 AccDes= 0.00D+00 IRadAn=         5 IDoV= 1 UseB2=F ITyADJ=14
 ICtDFT=  3500011 ScaDFX=  1.000000  1.000000  1.000000  1.000000
 FoFCou: FMM=F IPFlag=           0 FMFlag=      100000 FMFlg1=           0
         NFxFlg=           0 DoJE=T BraDBF=F KetDBF=T FulRan=T
         wScrn=  0.000000 ICntrl=       500 IOpCl=  0 I1Cent=   200000004 NGrid=           0
         NMat0=    1 NMatS0=      1 NMatT0=    0 NMatD0=    1 NMtDS0=    0 NMtDT0=    0
 Petite list used in FoFCou.
 Harris En= -346.806214469653    
 JPrj=0 DoOrth=F DoCkMO=F.
 Leave Link  401 at Thu Sep 26 01:53:30 2019, MaxMem=   671088640 cpu:              55.8 elap:              27.9
 (Enter /shared/centos7/gaussian/g16/l502.exe)
 Integral symmetry usage will be decided dynamically.
 Closed shell SCF:
 Using DIIS extrapolation, IDIIS=  1040.
 NGot=   671088640 LenX=   670765141 LenY=   670608675
 Requested convergence on RMS density matrix=1.00D-08 within 900 cycles.
 Requested convergence on MAX density matrix=1.00D-06.
 Requested convergence on             energy=1.00D-06.
 No special actions if energy rises.
 Fock matrices will be formed incrementally for  20 cycles.
 Integral accuracy reduced to 1.0D-05 until final iterations.

 Cycle   1  Pass 0  IDiag  1:
 FoFJK:  IHMeth= 1 ICntrl=       0 DoSepK=F KAlg= 0 I1Cent=           0 FoldK=F
 IRaf= 940000000 NMat=       1 IRICut=       1 DoRegI=T DoRafI=F ISym2E= 0 IDoP0=0 IntGTp=1.
 FoFCou: FMM=F IPFlag=           0 FMFlag=      100000 FMFlg1=           0
         NFxFlg=           0 DoJE=F BraDBF=F KetDBF=F FulRan=T
         wScrn=  0.000000 ICntrl=         0 IOpCl=  0 I1Cent=           0 NGrid=           0
         NMat0=    1 NMatS0=      1 NMatT0=    0 NMatD0=    1 NMtDS0=    0 NMtDT0=    0
 Symmetry not used in FoFCou.
 E= -346.679609545296    
 DIIS: error= 3.17D-02 at cycle   1 NSaved=   1.
 NSaved= 1 IEnMin= 1 EnMin= -346.679609545296     IErMin= 1 ErrMin= 3.17D-02
 ErrMax= 3.17D-02  0.00D+00 EMaxC= 1.00D-01 BMatC= 2.93D-01 BMatP= 2.93D-01
 IDIUse=3 WtCom= 6.83D-01 WtEn= 3.17D-01
 Coeff-Com:  0.100D+01
 Coeff-En:   0.100D+01
 Coeff:      0.100D+01
 Gap=     0.351 Goal=   None    Shift=    0.000
 GapD=    0.351 DampG=1.000 DampE=0.500 DampFc=0.5000 IDamp=-1.
 Damping current iteration by 5.00D-01
 RMSDP=2.37D-03 MaxDP=1.35D-01              OVMax= 1.44D-01

 Cycle   2  Pass 0  IDiag  1:
 RMSU=  1.18D-03    CP:  1.00D+00
 E= -346.801431061238     Delta-E=       -0.121821515942 Rises=F Damp=T
 DIIS: error= 4.82D-03 at cycle   2 NSaved=   2.
 NSaved= 2 IEnMin= 2 EnMin= -346.801431061238     IErMin= 2 ErrMin= 4.82D-03
 ErrMax= 4.82D-03  0.00D+00 EMaxC= 1.00D-01 BMatC= 2.10D-02 BMatP= 2.93D-01
 IDIUse=3 WtCom= 9.52D-01 WtEn= 4.82D-02
 Coeff-Com: -0.113D+00 0.111D+01
 Coeff-En:   0.000D+00 0.100D+01
 Coeff:     -0.107D+00 0.111D+01
 Gap=     0.332 Goal=   None    Shift=    0.000
 RMSDP=4.89D-04 MaxDP=1.70D-02 DE=-1.22D-01 OVMax= 7.74D-02

 Cycle   3  Pass 0  IDiag  1:
 RMSU=  4.64D-04    CP:  1.00D+00  8.74D-01
 E= -346.913256825777     Delta-E=       -0.111825764539 Rises=F Damp=F
 DIIS: error= 2.37D-03 at cycle   3 NSaved=   3.
 NSaved= 3 IEnMin= 3 EnMin= -346.913256825777     IErMin= 3 ErrMin= 2.37D-03
 ErrMax= 2.37D-03  0.00D+00 EMaxC= 1.00D-01 BMatC= 4.38D-03 BMatP= 2.10D-02
 IDIUse=3 WtCom= 9.76D-01 WtEn= 2.37D-02
 Coeff-Com: -0.815D-01 0.327D+00 0.754D+00
 Coeff-En:   0.000D+00 0.000D+00 0.100D+01
 Coeff:     -0.796D-01 0.319D+00 0.760D+00
 Gap=     0.329 Goal=   None    Shift=    0.000
 RMSDP=2.07D-04 MaxDP=1.27D-02 DE=-1.12D-01 OVMax= 1.29D-02

 Cycle   4  Pass 0  IDiag  1:
 RMSU=  1.39D-04    CP:  1.00D+00  9.95D-01  8.78D-01
 E= -346.915547207306     Delta-E=       -0.002290381529 Rises=F Damp=F
 DIIS: error= 1.40D-03 at cycle   4 NSaved=   4.
 NSaved= 4 IEnMin= 4 EnMin= -346.915547207306     IErMin= 4 ErrMin= 1.40D-03
 ErrMax= 1.40D-03  0.00D+00 EMaxC= 1.00D-01 BMatC= 1.29D-03 BMatP= 4.38D-03
 IDIUse=3 WtCom= 9.86D-01 WtEn= 1.40D-02
 Coeff-Com: -0.287D-01 0.751D-01 0.392D+00 0.562D+00
 Coeff-En:   0.000D+00 0.000D+00 0.193D+00 0.807D+00
 Coeff:     -0.283D-01 0.740D-01 0.389D+00 0.565D+00
 Gap=     0.325 Goal=   None    Shift=    0.000
 RMSDP=7.48D-05 MaxDP=4.71D-03 DE=-2.29D-03 OVMax= 5.04D-03

 Cycle   5  Pass 0  IDiag  1:
 RMSU=  2.74D-05    CP:  1.00D+00  9.65D-01  9.35D-01  6.10D-01
 E= -346.916478482741     Delta-E=       -0.000931275434 Rises=F Damp=F
 DIIS: error= 2.07D-04 at cycle   5 NSaved=   5.
 NSaved= 5 IEnMin= 5 EnMin= -346.916478482741     IErMin= 5 ErrMin= 2.07D-04
 ErrMax= 2.07D-04  0.00D+00 EMaxC= 1.00D-01 BMatC= 2.22D-05 BMatP= 1.29D-03
 IDIUse=3 WtCom= 9.98D-01 WtEn= 2.07D-03
 Coeff-Com: -0.452D-02 0.812D-02 0.888D-01 0.186D+00 0.721D+00
 Coeff-En:   0.000D+00 0.000D+00 0.000D+00 0.000D+00 0.100D+01
 Coeff:     -0.451D-02 0.811D-02 0.886D-01 0.186D+00 0.722D+00
 Gap=     0.325 Goal=   None    Shift=    0.000
 RMSDP=9.89D-06 MaxDP=3.08D-04 DE=-9.31D-04 OVMax= 7.38D-04

 Initial convergence to 1.0D-05 achieved.  Increase integral accuracy.
 Cycle   6  Pass 1  IDiag  1:
 E= -346.916483601456     Delta-E=       -0.000005118715 Rises=F Damp=F
 DIIS: error= 5.74D-05 at cycle   1 NSaved=   1.
 NSaved= 1 IEnMin= 1 EnMin= -346.916483601456     IErMin= 1 ErrMin= 5.74D-05
 ErrMax= 5.74D-05  0.00D+00 EMaxC= 1.00D-01 BMatC= 1.98D-06 BMatP= 1.98D-06
 IDIUse=1 WtCom= 1.00D+00 WtEn= 0.00D+00
 Coeff-Com:  0.100D+01
 Coeff:      0.100D+01
 Gap=     0.326 Goal=   None    Shift=    0.000
 RMSDP=9.89D-06 MaxDP=3.08D-04 DE=-5.12D-06 OVMax= 5.28D-04

 Cycle   7  Pass 1  IDiag  1:
 RMSU=  8.90D-06    CP:  1.00D+00
 E= -346.916484020056     Delta-E=       -0.000000418601 Rises=F Damp=F
 DIIS: error= 5.34D-05 at cycle   2 NSaved=   2.
 NSaved= 2 IEnMin= 2 EnMin= -346.916484020056     IErMin= 2 ErrMin= 5.34D-05
 ErrMax= 5.34D-05  0.00D+00 EMaxC= 1.00D-01 BMatC= 1.62D-06 BMatP= 1.98D-06
 IDIUse=1 WtCom= 1.00D+00 WtEn= 0.00D+00
 Coeff-Com:  0.473D+00 0.527D+00
 Coeff:      0.473D+00 0.527D+00
 Gap=     0.326 Goal=   None    Shift=    0.000
 RMSDP=2.17D-06 MaxDP=1.20D-04 DE=-4.19D-07 OVMax= 2.36D-04

 Cycle   8  Pass 1  IDiag  1:
 RMSU=  2.10D-06    CP:  1.00D+00  9.40D-01
 E= -346.916485371308     Delta-E=       -0.000001351252 Rises=F Damp=F
 DIIS: error= 6.23D-06 at cycle   3 NSaved=   3.
 NSaved= 3 IEnMin= 3 EnMin= -346.916485371308     IErMin= 3 ErrMin= 6.23D-06
 ErrMax= 6.23D-06  0.00D+00 EMaxC= 1.00D-01 BMatC= 2.37D-08 BMatP= 1.62D-06
 IDIUse=1 WtCom= 1.00D+00 WtEn= 0.00D+00
 Coeff-Com: -0.222D-01 0.754D-01 0.947D+00
 Coeff:     -0.222D-01 0.754D-01 0.947D+00
 Gap=     0.326 Goal=   None    Shift=    0.000
 RMSDP=5.44D-07 MaxDP=1.51D-05 DE=-1.35D-06 OVMax= 5.86D-05

 Cycle   9  Pass 1  IDiag  1:
 RMSU=  4.32D-07    CP:  1.00D+00  9.77D-01  1.02D+00
 E= -346.916485394561     Delta-E=       -0.000000023252 Rises=F Damp=F
 DIIS: error= 2.65D-06 at cycle   4 NSaved=   4.
 NSaved= 4 IEnMin= 4 EnMin= -346.916485394561     IErMin= 4 ErrMin= 2.65D-06
 ErrMax= 2.65D-06  0.00D+00 EMaxC= 1.00D-01 BMatC= 4.89D-09 BMatP= 2.37D-08
 IDIUse=1 WtCom= 1.00D+00 WtEn= 0.00D+00
 Coeff-Com: -0.296D-01 0.113D-01 0.431D+00 0.588D+00
 Coeff:     -0.296D-01 0.113D-01 0.431D+00 0.588D+00
 Gap=     0.326 Goal=   None    Shift=    0.000
 RMSDP=1.33D-07 MaxDP=7.19D-06 DE=-2.33D-08 OVMax= 1.17D-05

 Cycle  10  Pass 1  IDiag  1:
 RMSU=  1.26D-07    CP:  1.00D+00  9.81D-01  1.03D+00  9.70D-01
 E= -346.916485398525     Delta-E=       -0.000000003964 Rises=F Damp=F
 DIIS: error= 6.57D-07 at cycle   5 NSaved=   5.
 NSaved= 5 IEnMin= 5 EnMin= -346.916485398525     IErMin= 5 ErrMin= 6.57D-07
 ErrMax= 6.57D-07  0.00D+00 EMaxC= 1.00D-01 BMatC= 2.10D-10 BMatP= 4.89D-09
 IDIUse=1 WtCom= 1.00D+00 WtEn= 0.00D+00
 Coeff-Com: -0.468D-02-0.735D-02-0.956D-02 0.127D+00 0.895D+00
 Coeff:     -0.468D-02-0.735D-02-0.956D-02 0.127D+00 0.895D+00
 Gap=     0.326 Goal=   None    Shift=    0.000
 RMSDP=6.64D-08 MaxDP=1.69D-06 DE=-3.96D-09 OVMax= 6.90D-06

 Cycle  11  Pass 1  IDiag  1:
 RMSU=  3.87D-08    CP:  1.00D+00  9.81D-01  1.04D+00  1.08D+00  1.09D+00
 E= -346.916485398794     Delta-E=       -0.000000000269 Rises=F Damp=F
 DIIS: error= 2.08D-07 at cycle   6 NSaved=   6.
 NSaved= 6 IEnMin= 6 EnMin= -346.916485398794     IErMin= 6 ErrMin= 2.08D-07
 ErrMax= 2.08D-07  0.00D+00 EMaxC= 1.00D-01 BMatC= 5.25D-11 BMatP= 2.10D-10
 IDIUse=1 WtCom= 1.00D+00 WtEn= 0.00D+00
 Coeff-Com:  0.121D-02-0.468D-02-0.518D-01-0.155D-01 0.377D+00 0.694D+00
 Coeff:      0.121D-02-0.468D-02-0.518D-01-0.155D-01 0.377D+00 0.694D+00
 Gap=     0.326 Goal=   None    Shift=    0.000
 RMSDP=2.40D-08 MaxDP=1.53D-06 DE=-2.69D-10 OVMax= 1.92D-06

 Cycle  12  Pass 1  IDiag  1:
 RMSU=  2.03D-08    CP:  1.00D+00  9.81D-01  1.04D+00  1.10D+00  1.16D+00
                    CP:  8.89D-01
 E= -346.916485398827     Delta-E=       -0.000000000033 Rises=F Damp=F
 DIIS: error= 9.86D-08 at cycle   7 NSaved=   7.
 NSaved= 7 IEnMin= 7 EnMin= -346.916485398827     IErMin= 7 ErrMin= 9.86D-08
 ErrMax= 9.86D-08  0.00D+00 EMaxC= 1.00D-01 BMatC= 3.66D-12 BMatP= 5.25D-11
 IDIUse=1 WtCom= 1.00D+00 WtEn= 0.00D+00
 Coeff-Com:  0.777D-03-0.145D-02-0.199D-01-0.150D-01 0.993D-01 0.291D+00
 Coeff-Com:  0.645D+00
 Coeff:      0.777D-03-0.145D-02-0.199D-01-0.150D-01 0.993D-01 0.291D+00
 Coeff:      0.645D+00
 Gap=     0.326 Goal=   None    Shift=    0.000
 RMSDP=5.22D-09 MaxDP=1.66D-07 DE=-3.27D-11 OVMax= 5.03D-07

 SCF Done:  E(RM062X) =  -346.916485399     A.U. after   12 cycles
            NFock= 12  Conv=0.52D-08     -V/T= 2.0062
 KE= 3.447676552528D+02 PE=-1.435771493467D+03 EE= 4.313799845813D+02
 Leave Link  502 at Thu Sep 26 02:02:38 2019, MaxMem=   671088640 cpu:            1095.6 elap:             547.8
 (Enter /shared/centos7/gaussian/g16/l801.exe)
 DoSCS=F DFT=T ScalE2(SS,OS)=  1.000000  1.000000
 Range of M.O.s used for correlation:     1   350
 NBasis=   350 NAE=    28 NBE=    28 NFC=     0 NFV=     0
 NROrb=    350 NOA=    28 NOB=    28 NVA=   322 NVB=   322

 **** Warning!!: The largest alpha MO coefficient is  0.11038439D+02

 Leave Link  801 at Thu Sep 26 02:02:39 2019, MaxMem=   671088640 cpu:               1.3 elap:               0.7
 (Enter /shared/centos7/gaussian/g16/l1101.exe)
 Using compressed storage, NAtomX=    17.
 Will process     18 centers per pass.
 Leave Link 1101 at Thu Sep 26 02:03:05 2019, MaxMem=   671088640 cpu:              52.1 elap:              26.0
 (Enter /shared/centos7/gaussian/g16/l1102.exe)
 Symmetrizing basis deriv contribution to polar:
 IMax=3 JMax=2 DiffMx= 0.00D+00
 Leave Link 1102 at Thu Sep 26 02:03:07 2019, MaxMem=   671088640 cpu:               5.5 elap:               2.8
 (Enter /shared/centos7/gaussian/g16/l1110.exe)
 Forming Gx(P) for the SCF density, NAtomX=    17.
 Integral derivatives from FoFJK, PRISM(SPDF).
 Do as many integral derivatives as possible in FoFJK.
 G2DrvN: MDV=     671087280.
 G2DrvN: will do    18 centers at a time, making    1 passes.
 Calling FoFCou, ICntrl=  3107 FMM=F I1Cent=   0 AccDes= 0.00D+00.
 FoFJK:  IHMeth= 1 ICntrl=    3107 DoSepK=F KAlg= 0 I1Cent=           0 FoldK=F
 IRaf=         0 NMat=       1 IRICut=       1 DoRegI=T DoRafI=F ISym2E= 0 IDoP0=0 IntGTp=1.
 FoFCou: FMM=F IPFlag=           0 FMFlag=      100000 FMFlg1=           0
         NFxFlg=           0 DoJE=F BraDBF=F KetDBF=F FulRan=T
         wScrn=  0.000000 ICntrl=      3107 IOpCl=  0 I1Cent=           0 NGrid=           0
         NMat0=    1 NMatS0=      1 NMatT0=    0 NMatD0=    1 NMtDS0=    0 NMtDT0=    0
 Symmetry not used in FoFCou.
 End of G2Drv F.D. properties file   721 does not exist.
 End of G2Drv F.D. properties file   722 does not exist.
 End of G2Drv F.D. properties file   788 does not exist.
 Leave Link 1110 at Thu Sep 26 02:19:46 2019, MaxMem=   671088640 cpu:            1997.3 elap:             998.7
 (Enter /shared/centos7/gaussian/g16/l1002.exe)
 Minotr:  Closed shell wavefunction.
          IDoAtm=11111111111111111
          Direct CPHF calculation.
          Differentiating once with respect to nuclear coordinates.
          Requested convergence is 1.0D-08 RMS, and 1.0D-07 maximum.
          Secondary convergence is 1.0D-12 RMS, and 1.0D-12 maximum.
          NewPWx=T KeepS1=F KeepF1=F KeepIn=T MapXYZ=F SortEE=F KeepMc=T.
         5123 words used for storage of precomputed grid.
 Two-electron integrals replicated using symmetry.
          MDV=     671088640 using IRadAn=       1.
          Solving linear equations simultaneously, MaxMat=     380.
 FoF2E skips out because all densities are zero.
 CalDSu exits because no D1Ps are significant.
 FoFJK:  IHMeth= 1 ICntrl=       0 DoSepK=F KAlg= 0 I1Cent=           0 FoldK=F
 IRaf= 920000000 NMat=      51 IRICut=     127 DoRegI=T DoRafI=T ISym2E= 2 IDoP0=3 IntGTp=3.
 FoFCou: FMM=F IPFlag=           0 FMFlag=      100000 FMFlg1=           0
         NFxFlg=           0 DoJE=F BraDBF=F KetDBF=F FulRan=T
         wScrn=  0.000000 ICntrl=         0 IOpCl=  0 I1Cent=           0 NGrid=           0
         NMat0=   51 NMatS0=     51 NMatT0=    0 NMatD0=   51 NMtDS0=    0 NMtDT0=    0
 Integrals replicated using symmetry in FoFCou.
 Raff kept on since  88.96% of shell-pairs survive, threshold=   0.20 IRatSp=89.
          There are    54 degrees of freedom in the 1st order CPHF.  IDoFFX=6 NUNeed=     0.
     48 vectors produced by pass  0 Test12= 1.67D-14 1.85D-09 XBig12= 7.08D-02 6.05D-02.
 AX will form    48 AO Fock derivatives at one time.
     48 vectors produced by pass  1 Test12= 1.67D-14 1.85D-09 XBig12= 8.40D-03 1.84D-02.
     48 vectors produced by pass  2 Test12= 1.67D-14 1.85D-09 XBig12= 2.07D-04 2.25D-03.
     48 vectors produced by pass  3 Test12= 1.67D-14 1.85D-09 XBig12= 2.05D-06 1.64D-04.
     48 vectors produced by pass  4 Test12= 1.67D-14 1.85D-09 XBig12= 1.74D-08 1.66D-05.
     48 vectors produced by pass  5 Test12= 1.67D-14 1.85D-09 XBig12= 8.32D-11 8.95D-07.
     26 vectors produced by pass  6 Test12= 1.67D-14 1.85D-09 XBig12= 3.00D-13 6.39D-08.
      4 vectors produced by pass  7 Test12= 1.67D-14 1.85D-09 XBig12= 1.22D-15 4.51D-09.
 InvSVY:  IOpt=1 It=  1 EMax= 4.44D-16
 Solved reduced A of dimension   318 with    54 vectors.
 End of Minotr F.D. properties file   721 does not exist.
 End of Minotr F.D. properties file   722 does not exist.
 End of Minotr F.D. properties file   788 does not exist.
 Leave Link 1002 at Thu Sep 26 02:48:03 2019, MaxMem=   671088640 cpu:            3393.9 elap:            1697.0
 (Enter /shared/centos7/gaussian/g16/l601.exe)
 Copying SCF densities to generalized density rwf, IOpCl= 0 IROHF=0.

 **********************************************************************

            Population analysis using the SCF density.

 **********************************************************************

 Orbital symmetries:
       Occupied  (A) (A) (A) (A) (A) (A) (A) (A) (A) (A) (A) (A)
                 (A) (A) (A) (A) (A) (A) (A) (A) (A) (A) (A) (A)
                 (A) (A) (A) (A)
       Virtual   (A) (A) (A) (A) (A) (A) (A) (A) (A) (A) (A) (A)
                 (A) (A) (A) (A) (A) (A) (A) (A) (A) (A) (A) (A)
                 (A) (A) (A) (A) (A) (A) (A) (A) (A) (A) (A) (A)
                 (A) (A) (A) (A) (A) (A) (A) (A) (A) (A) (A) (A)
                 (A) (A) (A) (A) (A) (A) (A) (A) (A) (A) (A) (A)
                 (A) (A) (A) (A) (A) (A) (A) (A) (A) (A) (A) (A)
                 (A) (A) (A) (A) (A) (A) (A) (A) (A) (A) (A) (A)
                 (A) (A) (A) (A) (A) (A) (A) (A) (A) (A) (A) (A)
                 (A) (A) (A) (A) (A) (A) (A) (A) (A) (A) (A) (A)
                 (A) (A) (A) (A) (A) (A) (A) (A) (A) (A) (A) (A)
                 (A) (A) (A) (A) (A) (A) (A) (A) (A) (A) (A) (A)
                 (A) (A) (A) (A) (A) (A) (A) (A) (A) (A) (A) (A)
                 (A) (A) (A) (A) (A) (A) (A) (A) (A) (A) (A) (A)
                 (A) (A) (A) (A) (A) (A) (A) (A) (A) (A) (A) (A)
                 (A) (A) (A) (A) (A) (A) (A) (A) (A) (A) (A) (A)
                 (A) (A) (A) (A) (A) (A) (A) (A) (A) (A) (A) (A)
                 (A) (A) (A) (A) (A) (A) (A) (A) (A) (A) (A) (A)
                 (A) (A) (A) (A) (A) (A) (A) (A) (A) (A) (A) (A)
                 (A) (A) (A) (A) (A) (A) (A) (A) (A) (A) (A) (A)
                 (A) (A) (A) (A) (A) (A) (A) (A) (A) (A) (A) (A)
                 (A) (A) (A) (A) (A) (A) (A) (A) (A) (A) (A) (A)
                 (A) (A) (A) (A) (A) (A) (A) (A) (A) (A) (A) (A)
                 (A) (A) (A) (A) (A) (A) (A) (A) (A) (A) (A) (A)
                 (A) (A) (A) (A) (A) (A) (A) (A) (A) (A) (A) (A)
                 (A) (A) (A) (A) (A) (A) (A) (A) (A) (A) (A) (A)
                 (A) (A) (A) (A) (A) (A) (A) (A) (A) (A) (A) (A)
                 (A) (A) (A) (A) (A) (A) (A) (A) (A) (A)
 The electronic state is 1-A.
 Alpha  occ. eigenvalues --  -19.64769 -19.62870 -10.58838 -10.58415 -10.57372
 Alpha  occ. eigenvalues --  -10.52666 -10.52264  -1.17547  -1.15485  -0.89152
 Alpha  occ. eigenvalues --   -0.83437  -0.76960  -0.68267  -0.65153  -0.61650
 Alpha  occ. eigenvalues --   -0.56828  -0.53641  -0.52296  -0.49222  -0.46500
 Alpha  occ. eigenvalues --   -0.45155  -0.44651  -0.44254  -0.42814  -0.39879
 Alpha  occ. eigenvalues --   -0.37441  -0.34672  -0.27806
 Alpha virt. eigenvalues --    0.04754   0.07237   0.08333   0.10045   0.10977
 Alpha virt. eigenvalues --    0.12129   0.12592   0.13567   0.16156   0.17452
 Alpha virt. eigenvalues --    0.18111   0.18399   0.21996   0.23881   0.25397
 Alpha virt. eigenvalues --    0.27089   0.29253   0.30926   0.32300   0.33935
 Alpha virt. eigenvalues --    0.34847   0.36185   0.38535   0.38844   0.40763
 Alpha virt. eigenvalues --    0.42069   0.42538   0.43888   0.45509   0.46992
 Alpha virt. eigenvalues --    0.47699   0.48381   0.49288   0.49843   0.49977
 Alpha virt. eigenvalues --    0.50826   0.52409   0.53652   0.54894   0.55339
 Alpha virt. eigenvalues --    0.56013   0.57193   0.58170   0.58561   0.60812
 Alpha virt. eigenvalues --    0.62861   0.66327   0.67647   0.69198   0.71597
 Alpha virt. eigenvalues --    0.72305   0.76128   0.79107   0.80799   0.82626
 Alpha virt. eigenvalues --    0.85773   0.87002   0.88246   0.88811   0.89815
 Alpha virt. eigenvalues --    0.91875   0.93111   0.97001   1.00842   1.01188
 Alpha virt. eigenvalues --    1.02072   1.03332   1.04305   1.04795   1.06572
 Alpha virt. eigenvalues --    1.06920   1.07323   1.10936   1.11523   1.11821
 Alpha virt. eigenvalues --    1.13722   1.15085   1.17722   1.18305   1.19613
 Alpha virt. eigenvalues --    1.21657   1.22872   1.24814   1.26560   1.27299
 Alpha virt. eigenvalues --    1.28130   1.30904   1.31583   1.33436   1.36110
 Alpha virt. eigenvalues --    1.36838   1.37419   1.38204   1.39113   1.39940
 Alpha virt. eigenvalues --    1.41808   1.43880   1.45949   1.49073   1.51260
 Alpha virt. eigenvalues --    1.52848   1.53789   1.56462   1.56731   1.57118
 Alpha virt. eigenvalues --    1.60119   1.62288   1.67757   1.70395   1.86388
 Alpha virt. eigenvalues --    1.87648   1.95798   2.00467   2.03851   2.05439
 Alpha virt. eigenvalues --    2.08417   2.09221   2.13150   2.14562   2.17001
 Alpha virt. eigenvalues --    2.20346   2.22044   2.25106   2.29731   2.32111
 Alpha virt. eigenvalues --    2.35625   2.36309   2.39445   2.42005   2.44576
 Alpha virt. eigenvalues --    2.45263   2.48729   2.50987   2.55223   2.56568
 Alpha virt. eigenvalues --    2.59489   2.61693   2.62586   2.65319   2.66153
 Alpha virt. eigenvalues --    2.71842   2.74198   2.76394   2.78426   2.78881
 Alpha virt. eigenvalues --    2.81702   2.82850   2.84380   2.86023   2.86965
 Alpha virt. eigenvalues --    2.88431   2.89609   2.93175   2.93696   2.95427
 Alpha virt. eigenvalues --    2.96668   2.97969   2.99276   3.00341   3.00512
 Alpha virt. eigenvalues --    3.01865   3.02361   3.02928   3.05943   3.07665
 Alpha virt. eigenvalues --    3.08221   3.09113   3.10283   3.12083   3.13436
 Alpha virt. eigenvalues --    3.16418   3.17902   3.19250   3.19958   3.21681
 Alpha virt. eigenvalues --    3.22944   3.25791   3.27507   3.27982   3.29786
 Alpha virt. eigenvalues --    3.30716   3.31398   3.33032   3.34380   3.36272
 Alpha virt. eigenvalues --    3.36820   3.38208   3.40728   3.41978   3.43648
 Alpha virt. eigenvalues --    3.46457   3.47227   3.47590   3.49684   3.51836
 Alpha virt. eigenvalues --    3.53114   3.55032   3.56432   3.58094   3.60338
 Alpha virt. eigenvalues --    3.61207   3.63508   3.68695   3.69754   3.70627
 Alpha virt. eigenvalues --    3.72066   3.74479   3.75555   3.76678   3.78581
 Alpha virt. eigenvalues --    3.79801   3.80790   3.82609   3.82685   3.84506
 Alpha virt. eigenvalues --    3.86522   3.87831   3.89578   3.92311   3.92553
 Alpha virt. eigenvalues --    3.94935   3.97446   3.97843   3.98765   4.02031
 Alpha virt. eigenvalues --    4.02510   4.04244   4.05320   4.06273   4.08697
 Alpha virt. eigenvalues --    4.09445   4.10456   4.11323   4.14184   4.16640
 Alpha virt. eigenvalues --    4.18162   4.21451   4.23722   4.25400   4.26296
 Alpha virt. eigenvalues --    4.27664   4.30828   4.35175   4.37756   4.40344
 Alpha virt. eigenvalues --    4.42116   4.47087   4.48051   4.50807   4.52693
 Alpha virt. eigenvalues --    4.54885   4.57997   4.62558   4.66177   4.68246
 Alpha virt. eigenvalues --    4.68704   4.71386   4.76343   4.77077   4.79202
 Alpha virt. eigenvalues --    4.84991   4.86367   4.90937   4.91426   4.93201
 Alpha virt. eigenvalues --    4.95318   4.95823   4.99693   5.02671   5.05732
 Alpha virt. eigenvalues --    5.06719   5.07315   5.10828   5.12097   5.15233
 Alpha virt. eigenvalues --    5.20003   5.22134   5.23710   5.25979   5.26745
 Alpha virt. eigenvalues --    5.28389   5.29513   5.37492   5.40284   5.43131
 Alpha virt. eigenvalues --    5.50804   5.55303   5.61180   5.67567   5.74334
 Alpha virt. eigenvalues --    5.77081   5.78130   5.79795   5.81321   5.82031
 Alpha virt. eigenvalues --    5.92909   6.00522   6.04856   6.20524   6.24807
 Alpha virt. eigenvalues --    6.32923   6.49365   6.55341   6.57542   6.67150
 Alpha virt. eigenvalues --    6.72725   6.75733   6.77665   6.81767   7.03047
 Alpha virt. eigenvalues --    7.12232   7.17852   7.27018   7.32455   7.40103
 Alpha virt. eigenvalues --   10.01189  10.63261  11.58712  11.83726  13.02741
 Alpha virt. eigenvalues --   13.36503  14.36288
          Condensed to atoms (all electrons):
               1          2          3          4          5          6
     1  O    7.896163   0.004157   0.269587  -0.041296  -0.045657   0.323948
     2  O    0.004157   7.768752   0.003043  -0.000386   0.000013  -0.091902
     3  C    0.269587   0.003043   4.927828   0.318527   0.328544  -0.089172
     4  C   -0.041296  -0.000386   0.318527   4.993071  -0.061182   0.003314
     5  C   -0.045657   0.000013   0.328544  -0.061182   5.001400  -0.004055
     6  C    0.323948  -0.091902  -0.089172   0.003314  -0.004055   5.064018
     7  C   -0.061506   0.367085  -0.002888   0.001558  -0.000570   0.484762
     8  H   -0.054584  -0.000272   0.400400  -0.049596  -0.065485   0.009176
     9  H    0.002933   0.002845  -0.038651   0.383226   0.003295  -0.000875
    10  H    0.002715  -0.000106  -0.037722   0.397226   0.007576   0.000329
    11  H    0.003915   0.000052  -0.051118   0.408907  -0.013586  -0.001046
    12  H    0.002494  -0.000002  -0.048448  -0.017702   0.407514  -0.000187
    13  H    0.004823   0.000001  -0.041435   0.007877   0.383491   0.001964
    14  H    0.004141   0.000000  -0.043167   0.005002   0.398042   0.000389
    15  H   -0.046756   0.002923   0.005533  -0.000787   0.000342   0.436061
    16  H    0.005175  -0.052359   0.000225   0.000036   0.000054  -0.091662
    17  H   -0.000209   0.325781  -0.000115   0.000021   0.000000   0.016452
               7          8          9         10         11         12
     1  O   -0.061506  -0.054584   0.002933   0.002715   0.003915   0.002494
     2  O    0.367085  -0.000272   0.002845  -0.000106   0.000052  -0.000002
     3  C   -0.002888   0.400400  -0.038651  -0.037722  -0.051118  -0.048448
     4  C    0.001558  -0.049596   0.383226   0.397226   0.408907  -0.017702
     5  C   -0.000570  -0.065485   0.003295   0.007576  -0.013586   0.407514
     6  C    0.484762   0.009176  -0.000875   0.000329  -0.001046  -0.000187
     7  C    4.914841  -0.002232   0.000018  -0.000267  -0.000165   0.000050
     8  H   -0.002232   0.663974   0.008104  -0.011385   0.004161   0.007476
     9  H    0.000018   0.008104   0.557763  -0.027337  -0.027751   0.001918
    10  H   -0.000267  -0.011385  -0.027337   0.597235  -0.037430   0.000798
    11  H   -0.000165   0.004161  -0.027751  -0.037430   0.618216  -0.003909
    12  H    0.000050   0.007476   0.001918   0.000798  -0.003909   0.611816
    13  H    0.000093   0.005507  -0.000333  -0.000531   0.000959  -0.027939
    14  H    0.000085  -0.011056  -0.000263  -0.000488  -0.000206  -0.035302
    15  H   -0.100989   0.005298   0.000259   0.000091   0.000092  -0.000131
    16  H    0.438753  -0.000355   0.000129  -0.000019   0.000003  -0.000002
    17  H   -0.042267   0.000007  -0.000139   0.000011  -0.000001   0.000000
              13         14         15         16         17
     1  O    0.004823   0.004141  -0.046756   0.005175  -0.000209
     2  O    0.000001   0.000000   0.002923  -0.052359   0.325781
     3  C   -0.041435  -0.043167   0.005533   0.000225  -0.000115
     4  C    0.007877   0.005002  -0.000787   0.000036   0.000021
     5  C    0.383491   0.398042   0.000342   0.000054   0.000000
     6  C    0.001964   0.000389   0.436061  -0.091662   0.016452
     7  C    0.000093   0.000085  -0.100989   0.438753  -0.042267
     8  H    0.005507  -0.011056   0.005298  -0.000355   0.000007
     9  H   -0.000333  -0.000263   0.000259   0.000129  -0.000139
    10  H   -0.000531  -0.000488   0.000091  -0.000019   0.000011
    11  H    0.000959  -0.000206   0.000092   0.000003  -0.000001
    12  H   -0.027939  -0.035302  -0.000131  -0.000002   0.000000
    13  H    0.569027  -0.026235  -0.000188  -0.000008   0.000000
    14  H   -0.026235   0.604715  -0.000077  -0.000006   0.000000
    15  H   -0.000188  -0.000077   0.582590  -0.003609  -0.000382
    16  H   -0.000008  -0.000006  -0.003609   0.616085  -0.014618
    17  H    0.000000   0.000000  -0.000382  -0.014618   0.454144
 Mulliken charges:
               1
     1  O   -0.270044
     2  O   -0.329625
     3  C    0.099027
     4  C   -0.347815
     5  C   -0.339734
     6  C   -0.061512
     7  C    0.003639
     8  H    0.090862
     9  H    0.134859
    10  H    0.109304
    11  H    0.098909
    12  H    0.101556
    13  H    0.122926
    14  H    0.104427
    15  H    0.119730
    16  H    0.102177
    17  H    0.261315
 Sum of Mulliken charges =  -0.00000
 Mulliken charges with hydrogens summed into heavy atoms:
               1
     1  O   -0.270044
     2  O   -0.068310
     3  C    0.189889
     4  C   -0.004743
     5  C   -0.010826
     6  C    0.058218
     7  C    0.105816
 APT charges:
               1
     1  O   -0.207949
     2  O   -0.926615
     3  C    0.028540
     4  C   -1.123096
     5  C   -1.280118
     6  C   -0.478742
     7  C   -0.289437
     8  H    0.268180
     9  H    0.245654
    10  H    0.354400
    11  H    0.458018
    12  H    0.401573
    13  H    0.315381
    14  H    0.437507
    15  H    0.374398
    16  H    0.519191
    17  H    0.903115
 Sum of APT charges =  -0.00000
 APT charges with hydrogens summed into heavy atoms:
               1
     1  O   -0.207949
     2  O   -0.023500
     3  C    0.296720
     4  C   -0.065024
     5  C   -0.125656
     6  C   -0.104344
     7  C    0.229753
 Electronic spatial extent (au):  <R**2>=            993.7388
 Charge=             -0.0000 electrons
 Dipole moment (field-independent basis, Debye):
    X=             -1.2024    Y=             -0.4608    Z=              1.8311  Tot=              2.2385
 Quadrupole moment (field-independent basis, Debye-Ang):
   XX=            -31.6525   YY=            -43.4912   ZZ=            -45.7399
   XY=             -0.2576   XZ=             -1.8974   YZ=             -1.0907
 Traceless Quadrupole moment (field-independent basis, Debye-Ang):
   XX=              8.6421   YY=             -3.1967   ZZ=             -5.4454
   XY=             -0.2576   XZ=             -1.8974   YZ=             -1.0907
 Octapole moment (field-independent basis, Debye-Ang**2):
  XXX=            -63.0179  YYY=             -0.1923  ZZZ=             -2.4407  XYY=             -5.5998
  XXY=              7.3057  XXZ=              3.7115  XZZ=             -1.2253  YZZ=              0.5081
  YYZ=              0.4632  XYZ=              0.4172
 Hexadecapole moment (field-independent basis, Debye-Ang**3):
 XXXX=           -740.1537 YYYY=           -280.5236 ZZZZ=           -100.2229 XXXY=            -40.3687
 XXXZ=             -9.8636 YYYX=            -14.3839 YYYZ=             -4.3233 ZZZX=              5.3770
 ZZZY=              0.4821 XXYY=           -196.8332 XXZZ=           -176.9395 YYZZ=            -60.5593
 XXYZ=             -7.3176 YYXZ=             -2.3028 ZZXY=             -3.2136
 N-N= 3.127073682344D+02 E-N=-1.435771511637D+03  KE= 3.447676552528D+02
  Exact polarizability:   0.000   0.000   0.000   0.000   0.000   0.000
 Approx polarizability:  92.429  -5.343  75.910  -1.276  -4.164  70.071
 No NMR shielding tensors so no spin-rotation constants.
 Leave Link  601 at Thu Sep 26 02:48:32 2019, MaxMem=   671088640 cpu:              56.8 elap:              28.4
 (Enter /shared/centos7/gaussian/g16/l701.exe)
 SCFChk:  SCF convergence  5.22D-09 required  1.00D-08
 ... and contract with generalized density number  0.
 Compute integral second derivatives.
 Entering OneElI...
 Calculate overlap and kinetic energy integrals
    NBasis = 395  MinDer = 2  MaxDer = 2
 Requested accuracy = 0.1000D-12
 PrmmSu-InSpLW:  IPartL=    0 NPrtUS=   20 NPrtUL=    1 DoSpLW=F IThBeg=    0 IThEnd=   19 NThAct=   20.
 PrsmSu:  NPrtUS=  20 ThrOK=T IAlg=1 NPAlg=1 LenDen=           0 ISkipM=0 DoSpLW=F IThBeg=    0 IThEnd=   19.
 Prism:   IPart=     0 DynPar=F LinDyn=F Incr=           4.
 PRISM was handed    33315180 working-precision words and  8377 shell-pairs
 PRISM was handed    33315180 working-precision words and  8377 shell-pairs
 PRISM was handed    33315180 working-precision words and  8377 shell-pairs
 PRISM was handed    33315180 working-precision words and  8377 shell-pairs
 PRISM was handed    33315180 working-precision words and  8377 shell-pairs
 PRISM was handed    33315180 working-precision words and  8377 shell-pairs
 PRISM was handed    33315180 working-precision words and  8377 shell-pairs
 PRISM was handed    33315180 working-precision words and  8377 shell-pairs
 PRISM was handed    33315180 working-precision words and  8377 shell-pairs
 PRISM was handed    33315180 working-precision words and  8377 shell-pairs
 PRISM was handed    33315180 working-precision words and  8377 shell-pairs
 IPart=  2 NShTot=         451 NBatch=          75 AvBLen=         6.0
 PRISM was handed    33315180 working-precision words and  8377 shell-pairs
 IPart=  3 NShTot=         445 NBatch=          70 AvBLen=         6.4
 PRISM was handed    33315180 working-precision words and  8377 shell-pairs
 PRISM was handed    33315180 working-precision words and  8377 shell-pairs
 PRISM was handed    33315180 working-precision words and  8377 shell-pairs
 PRISM was handed    33315180 working-precision words and  8377 shell-pairs
 IPart=  0 NShTot=         463 NBatch=          82 AvBLen=         5.6
 IPart=  8 NShTot=         417 NBatch=          51 AvBLen=         8.2
 PRISM was handed    33315180 working-precision words and  8377 shell-pairs
 IPart= 15 NShTot=         398 NBatch=          38 AvBLen=        10.5
 IPart=  7 NShTot=         424 NBatch=          53 AvBLen=         8.0
 PRISM was handed    33315180 working-precision words and  8377 shell-pairs
 IPart=  5 NShTot=         437 NBatch=          62 AvBLen=         7.0
 IPart= 17 NShTot=         393 NBatch=          37 AvBLen=        10.6
 PRISM was handed    33315180 working-precision words and  8377 shell-pairs
 PRISM was handed    33315180 working-precision words and  8377 shell-pairs
 IPart= 11 NShTot=         410 NBatch=          46 AvBLen=         8.9
 IPart=  9 NShTot=         414 NBatch=          49 AvBLen=         8.4
 IPart= 14 NShTot=         399 NBatch=          39 AvBLen=        10.2
 IPart= 12 NShTot=         403 NBatch=          43 AvBLen=         9.4
 IPart=  4 NShTot=         440 NBatch=          65 AvBLen=         6.8
 IPart=  1 NShTot=         459 NBatch=          79 AvBLen=         5.8
 IPart=  6 NShTot=         434 NBatch=          60 AvBLen=         7.2
 IPart= 10 NShTot=         411 NBatch=          47 AvBLen=         8.7
 IPart= 19 NShTot=         391 NBatch=          36 AvBLen=        10.9
 IPart= 18 NShTot=         393 NBatch=          37 AvBLen=        10.6
 IPart= 13 NShTot=         401 NBatch=          41 AvBLen=         9.8
 IPart= 16 NShTot=         394 NBatch=          37 AvBLen=        10.6
 PrSmSu:  NxtVal=             81.
 Entering OneElI...
 Calculate potential energy integrals
    NBasis = 395  MinDer = 2  MaxDer = 2
 Requested accuracy = 0.1000D-12
 PrmmSu-InSpLW:  IPartL=    0 NPrtUS=   20 NPrtUL=    1 DoSpLW=F IThBeg=    0 IThEnd=   19 NThAct=   20.
 PrsmSu:  NPrtUS=  20 ThrOK=T IAlg=1 NPAlg=1 LenDen=           0 ISkipM=0 DoSpLW=F IThBeg=    0 IThEnd=   19.
 Prism:   IPart=     0 DynPar=F LinDyn=F Incr=          64.
 PRISM was handed    33360917 working-precision words and  7532 shell-pairs
 PRISM was handed    33360917 working-precision words and  7532 shell-pairs
 PRISM was handed    33360917 working-precision words and  7532 shell-pairs
 PRISM was handed    33360917 working-precision words and  7532 shell-pairs
 PRISM was handed    33360917 working-precision words and  7532 shell-pairs
 PRISM was handed    33360917 working-precision words and  7532 shell-pairs
 PRISM was handed    33360917 working-precision words and  7532 shell-pairs
 PRISM was handed    33360917 working-precision words and  7532 shell-pairs
 PRISM was handed    33360917 working-precision words and  7532 shell-pairs
 PRISM was handed    33360917 working-precision words and  7532 shell-pairs
 PRISM was handed    33360917 working-precision words and  7532 shell-pairs
 PRISM was handed    33360917 working-precision words and  7532 shell-pairs
 PRISM was handed    33360917 working-precision words and  7532 shell-pairs
 PRISM was handed    33360917 working-precision words and  7532 shell-pairs
 PRISM was handed    33360917 working-precision words and  7532 shell-pairs
 PRISM was handed    33360917 working-precision words and  7532 shell-pairs
 PRISM was handed    33360917 working-precision words and  7532 shell-pairs
 PRISM was handed    33360917 working-precision words and  7532 shell-pairs
 PRISM was handed    33360917 working-precision words and  7532 shell-pairs
 PRISM was handed    33360917 working-precision words and  7532 shell-pairs
 IPart= 18 NShTot=        6052 NBatch=         356 AvBLen=        17.0
 IPart=  5 NShTot=        6613 NBatch=         389 AvBLen=        17.0
 IPart=  8 NShTot=        6375 NBatch=         375 AvBLen=        17.0
 IPart=  7 NShTot=        6409 NBatch=         377 AvBLen=        17.0
 IPart= 17 NShTot=        6069 NBatch=         357 AvBLen=        17.0
 IPart=  4 NShTot=        6681 NBatch=         393 AvBLen=        17.0
 IPart= 12 NShTot=        6154 NBatch=         362 AvBLen=        17.0
 IPart=  2 NShTot=        6868 NBatch=         404 AvBLen=        17.0
 IPart= 11 NShTot=        6273 NBatch=         369 AvBLen=        17.0
 IPart= 16 NShTot=        6137 NBatch=         361 AvBLen=        17.0
 IPart= 19 NShTot=        6001 NBatch=         353 AvBLen=        17.0
 IPart= 10 NShTot=        6290 NBatch=         370 AvBLen=        17.0
 IPart=  9 NShTot=        6307 NBatch=         371 AvBLen=        17.0
 IPart= 13 NShTot=        6154 NBatch=         362 AvBLen=        17.0
 IPart=  6 NShTot=        6579 NBatch=         387 AvBLen=        17.0
 IPart= 14 NShTot=        6154 NBatch=         362 AvBLen=        17.0
 IPart=  0 NShTot=        7072 NBatch=         416 AvBLen=        17.0
 IPart= 15 NShTot=        6137 NBatch=         361 AvBLen=        17.0
 IPart=  3 NShTot=        6749 NBatch=         397 AvBLen=        17.0
 IPart=  1 NShTot=        6970 NBatch=         410 AvBLen=        17.0
 PrSmSu:  NxtVal=           1281.
 Polarizability after L701:
                1             2             3 
      1  0.000000D+00
      2  0.000000D+00  0.000000D+00
      3  0.000000D+00  0.000000D+00  0.000000D+00
 Dipole Derivatives after L701:
                 1             2             3             4             5 
      1  -0.236359D+00 -0.386878D-01  0.711454D-02 -0.215238D+01  0.642417D-01
      2  -0.125157D+00 -0.282388D+00  0.121472D-01  0.464026D+00 -0.315714D+00
      3  -0.682789D-01 -0.367663D-01 -0.105099D+00 -0.774951D-01 -0.881964D-01
                 6             7             8             9            10 
      1   0.427102D+00  0.358891D+00  0.163052D+00 -0.636403D+00 -0.102599D+01
      2  -0.158997D+00 -0.458762D-01  0.225104D+00  0.142614D+00 -0.120765D+00
      3  -0.311756D+00 -0.955299D-01  0.161316D+00 -0.498377D+00 -0.461598D-02
                11            12            13            14            15 
      1  -0.825948D+00  0.297739D-01 -0.192860D+01  0.512227D+00  0.393430D+00
      2  -0.141301D+01  0.388840D-02  0.244352D+00 -0.100863D+01 -0.452176D-01
      3  -0.181613D+00 -0.930288D+00 -0.296273D-01  0.515925D-01 -0.903122D+00
                16            17            18            19            20 
      1  -0.711528D+00  0.527580D-01  0.317121D+00 -0.214001D+00 -0.396235D+00
      2  -0.187552D-01 -0.472668D+00  0.359450D+00  0.988401D-02 -0.511330D+00
      3   0.267567D+00  0.306455D+00 -0.252029D+00  0.174732D+00  0.317857D+00
                21            22            23            24            25 
      1   0.322470D+00  0.109090D+00 -0.100812D+00  0.342716D+00 -0.152964D-01
      2   0.321105D+00 -0.574570D-03  0.153728D+00 -0.104032D+00 -0.442106D+00
      3  -0.142979D+00 -0.148207D-01 -0.111188D+00  0.541722D+00  0.145801D+00
                26            27            28            29            30 
      1   0.118403D+00 -0.119594D+00  0.416362D-01  0.205206D+00  0.366380D+00
      2   0.495936D+00 -0.480385D+00 -0.810393D-01  0.420792D+00  0.628806D+00
      3  -0.118346D+00  0.256322D+00 -0.847901D-01  0.209556D+00  0.600771D+00
                31            32            33            34            35 
      1   0.103919D+01  0.166983D+00 -0.305200D+00  0.792634D+00  0.809211D+00
      2   0.589963D+00  0.238888D+00 -0.176625D+00  0.131425D-01  0.176363D+00
      3  -0.544123D-01  0.103291D-01  0.959730D-01 -0.203143D+00 -0.233252D+00
                36            37            38            39            40 
      1  -0.505865D+00  0.103533D-01 -0.594212D+00 -0.499407D+00  0.711449D+00
      2  -0.331763D-01  0.978366D-01  0.582796D+00  0.410531D+00 -0.233282D+00
      3   0.235723D+00  0.582061D-01  0.312422D+00  0.352994D+00  0.143778D+00
                41            42            43            44            45 
      1  -0.455985D+00  0.837234D+00  0.109720D+00  0.217432D+00 -0.176752D+00
      2   0.253019D+00 -0.333388D+00 -0.167805D+00  0.787548D+00 -0.390338D+00
      3  -0.120881D+00  0.348054D+00  0.156783D-01 -0.281731D+00  0.225925D+00
                46            47            48            49            50 
      1   0.107807D+01  0.497073D+00 -0.559447D+00  0.203312D+01 -0.394707D+00
      2   0.266829D+00  0.272488D+00 -0.203721D+00 -0.450673D+00  0.397076D+00
      3  -0.247117D+00 -0.164301D+00  0.207017D+00  0.740680D-01 -0.332530D-01
                51 
      1  -0.240677D+00
      2   0.473376D-01
      3   0.279150D+00
 Hessian after L701:
                1             2             3             4             5 
      1  0.435164D+01
      2 -0.432079D+01  0.158106D+02
      3  0.361774D+00  0.457056D+00  0.148121D+02
      4  0.640854D+00 -0.567125D+00 -0.101095D+00  0.744695D+01
      5 -0.611828D+00 -0.176448D+00  0.156651D-01  0.400183D+01  0.808521D+01
      6 -0.906373D-01  0.490144D-02 -0.494618D+00 -0.594318D+00  0.323578D+01
      7 -0.251558D+01  0.200733D+01  0.327866D+01  0.283433D+00 -0.135269D+00
      8  0.198200D+01 -0.800892D+01  0.100015D+01 -0.104965D+00 -0.109774D+00
      9  0.311611D+01  0.954839D+00 -0.687812D+01  0.563310D-01 -0.193524D-01
     10 -0.252877D+00  0.251559D+00  0.434647D-01  0.191428D+00  0.606955D-01
     11  0.188947D+00  0.404355D+00  0.947245D-01  0.252886D-01 -0.120540D+00
     12  0.614821D-01  0.165655D+00 -0.190329D+00  0.584244D-01  0.101329D-01
     13  0.436270D+00 -0.281149D+00 -0.103499D+00  0.749096D-01 -0.456833D-01
     14 -0.213164D+00 -0.157307D+00  0.431646D-01 -0.380680D-01 -0.471197D-01
     15 -0.717449D-02  0.131846D-01 -0.229484D+00  0.126360D-01 -0.517038D-02
     16 -0.359344D+01  0.345959D+01 -0.378543D+01  0.359590D+00  0.108494D+00
     17  0.356008D+01 -0.817396D+01 -0.207655D+01  0.294170D+00 -0.551313D+00
     18 -0.363093D+01 -0.197038D+01 -0.683946D+01 -0.748885D-01  0.509195D+00
     19  0.411705D+00 -0.421530D+00  0.223441D+00 -0.825699D+01 -0.221947D+01
     20 -0.466848D+00 -0.134633D+00  0.317816D+00 -0.238933D+01 -0.149496D+01
     21  0.230278D+00  0.309396D+00 -0.985919D-01  0.123187D+01 -0.383821D+01
     22  0.133709D-01 -0.410732D-01 -0.252707D+00  0.137835D-01 -0.827043D-02
     23 -0.358562D-01  0.241525D+00 -0.947866D-01 -0.132171D-01 -0.105118D-01
     24 -0.255189D+00 -0.947253D-01  0.190813D+00  0.337879D-01 -0.125599D-01
     25 -0.623727D-01  0.996789D-02  0.260119D-01  0.610137D-01  0.273123D-01
     26  0.654659D-01  0.621918D-01  0.826460D-01  0.591639D-01 -0.193330D-01
     27  0.105642D-01  0.176012D-01 -0.707836D-01 -0.184366D-01 -0.843881D-02
     28 -0.287788D-01  0.391945D-01  0.330909D-01  0.135303D-01  0.933334D-02
     29  0.450057D-01  0.472924D-01  0.812416D-01  0.173976D-01 -0.847254D-02
     30  0.405895D-01  0.889453D-01  0.364355D-01  0.271962D-01  0.971552D-02
     31  0.105061D+00  0.104136D+00  0.193036D-01  0.259030D-01  0.572613D-02
     32  0.952099D-01  0.122533D-01  0.117639D-01  0.750502D-02 -0.673820D-02
     33  0.491739D-02  0.180243D-02 -0.508211D-01 -0.160336D-02 -0.231391D-03
     34  0.127729D+00  0.414780D-01 -0.166539D-01  0.164577D-01 -0.412495D-02
     35  0.613282D-01 -0.326521D-01 -0.605787D-02  0.499766D-02 -0.693577D-02
     36 -0.313333D-01 -0.704097D-02 -0.451219D-01 -0.519200D-02  0.811272D-03
     37  0.617105D-01 -0.397818D-01  0.321055D-01  0.877536D-02 -0.898817D-02
     38 -0.101208D+00 -0.455232D-01 -0.875453D-02 -0.165955D-01  0.397824D-02
     39 -0.232108D-01  0.117228D-01 -0.896275D-01 -0.829970D-02  0.661834D-02
     40  0.112111D+00 -0.396144D-01  0.825677D-01  0.112196D-01 -0.742565D-02
     41 -0.493159D-01 -0.379490D-01 -0.254897D-01 -0.746170D-02 -0.188881D-02
     42  0.863435D-01 -0.232003D-01 -0.219034D-02  0.758744D-02 -0.440433D-02
     43 -0.316843D-01 -0.229177D+00  0.253606D+00 -0.267352D-02 -0.674995D-01
     44 -0.234662D+00  0.235173D+00  0.124199D+00 -0.746163D-01  0.874211D-01
     45  0.228488D+00  0.876308D-01 -0.287487D-01  0.349760D-01 -0.569261D-01
     46  0.153011D+00  0.511428D-01 -0.825453D-01  0.266576D+00  0.464665D-02
     47  0.642945D-01 -0.377007D-01 -0.196680D-01  0.405303D-01 -0.116284D+00
     48 -0.934507D-01 -0.184917D-01 -0.688128D-02 -0.427331D-01  0.178399D+00
     49  0.712654D-01 -0.241606D-01 -0.120955D-01 -0.115476D+01 -0.110948D+01
     50 -0.286624D-01 -0.824843D-02  0.287954D-02 -0.123950D+01 -0.550629D+01
     51 -0.862592D-02  0.110862D-02 -0.146102D-01 -0.616244D+00 -0.210257D-01
                6             7             8             9            10 
      6  0.134669D+02
      7  0.773506D-01  0.151825D+02
      8 -0.175866D-01 -0.145380D+01  0.194360D+02
      9 -0.145184D+00 -0.210475D+01 -0.852057D+00  0.202714D+02
     10  0.582628D-01 -0.596357D+01  0.723078D+00 -0.237558D-02  0.145211D+02
     11  0.113059D-02  0.646923D+00 -0.169597D+01  0.160204D+00 -0.795956D+00
     12 -0.118747D+00 -0.122218D-02  0.156368D+00 -0.591401D+01 -0.114896D+00
     13  0.377842D-02 -0.315401D+01 -0.173464D+01 -0.108724D+01 -0.356392D-01
     14 -0.723603D-03 -0.172852D+01 -0.535619D+01  0.511699D+00 -0.196555D+00
     15 -0.575627D-01 -0.109734D+01  0.513877D+00 -0.586583D+01 -0.197080D-01
     16  0.747006D-01  0.265992D+00  0.259503D+00  0.545278D-01  0.296661D-01
     17  0.471951D+00  0.236195D+00  0.154105D+00  0.533357D-01  0.262642D+00
     18  0.942868D-01  0.855982D-01  0.504581D-01  0.950674D-01 -0.749737D-02
     19  0.112063D+01  0.229219D+00  0.149643D+00  0.340240D-01  0.145967D+00
     20 -0.384315D+01  0.105877D+00 -0.101569D+00  0.233679D-01  0.120250D+00
     21 -0.687637D+01  0.655172D-01  0.855246D-02 -0.121588D+00 -0.885599D-02
     22  0.193085D-01 -0.460878D+01  0.597322D-01 -0.128541D+00  0.144281D+00
     23 -0.874558D-02  0.100096D+00 -0.447838D+01 -0.707880D+00 -0.316523D-01
     24  0.602973D-02 -0.295521D+00 -0.721793D+00 -0.190684D+01  0.491676D-02
     25  0.448243D-02  0.101534D+00  0.558056D-02  0.728534D-02 -0.316341D+01
     26  0.254829D-02  0.558439D-01 -0.362481D-01  0.622280D-01 -0.896386D+00
     27 -0.380452D-01  0.582871D-02  0.171306D-01  0.883934D-01  0.102157D+01
     28  0.129120D-01  0.787350D-01 -0.297218D-01 -0.254473D-01 -0.394088D+01
     29  0.984793D-02 -0.924894D-02 -0.701038D-01 -0.577608D-01 -0.218208D+00
     30  0.368391D-02 -0.174491D-01 -0.417303D-01  0.992771D-01 -0.339534D+00
     31  0.322825D-02  0.782876D-01 -0.824457D-01  0.574643D-02 -0.168168D+01
     32  0.703059D-03 -0.124605D+00 -0.159202D-01  0.217831D-01  0.759809D+00
     33 -0.917924D-02 -0.117128D-01 -0.262243D-02  0.111338D+00 -0.652670D+00
     34 -0.101954D-02 -0.379160D-01  0.148542D-01  0.874206D-01 -0.199092D-02
     35  0.612104D-04  0.627338D-01  0.139763D+00 -0.395317D-01  0.420132D-01
     36 -0.617817D-02  0.652563D-01 -0.180690D-01  0.674096D-01  0.189089D-01
     37 -0.141703D-02  0.706824D-01  0.882399D-01  0.750003D-01 -0.458429D-01
     38  0.135680D-02  0.473231D-01  0.402248D-01 -0.630584D-01 -0.335716D-01
     39 -0.722436D-02  0.358685D-01 -0.417293D-01  0.370245D-01 -0.150870D-01
     40  0.490615D-02 -0.108090D+00  0.558993D-01 -0.346607D-01  0.110846D-01
     41 -0.268264D-02  0.627938D-01  0.828705D-01  0.118887D-01 -0.786263D-01
     42 -0.157639D-02 -0.177162D-01 -0.517841D-02  0.113915D+00  0.254353D-01
     43  0.271188D-01  0.337479D-01  0.570613D-01 -0.366218D-01 -0.568187D-02
     44 -0.475391D-01  0.116525D+00  0.305889D-01 -0.549866D-01  0.182617D-01
     45 -0.120394D-01 -0.557835D-01 -0.423408D-01 -0.395630D-01 -0.475989D-02
     46 -0.186214D-01  0.355469D-01  0.131219D-01 -0.114065D-01  0.175338D-01
     47  0.176396D+00  0.169827D-01 -0.604433D-02 -0.617267D-02  0.147309D-01
     48  0.725400D-01 -0.115422D-01 -0.330947D-02 -0.744489D-02 -0.653511D-02
     49 -0.700667D+00  0.282541D-01 -0.314339D-02 -0.541205D-02  0.304688D-01
     50  0.157575D-01 -0.718540D-02 -0.446402D-02  0.145491D-02 -0.208494D-02
     51 -0.587674D+01 -0.104510D-02 -0.122152D-03 -0.520304D-02 -0.637649D-03
               11            12            13            14            15 
     11  0.119233D+02
     12 -0.423728D+00  0.153190D+02
     13 -0.587600D-01 -0.190335D-01  0.121618D+02
     14  0.177584D+00  0.844852D-01  0.131701D+01  0.140643D+02
     15  0.140011D-01 -0.918216D-01  0.521588D+00 -0.225163D+00  0.150364D+02
     16  0.242970D+00  0.258778D-02  0.233746D+00  0.285880D-01 -0.227935D-01
     17  0.131652D+00 -0.686303D-03 -0.159929D-02 -0.133399D+00  0.148949D-01
     18 -0.734234D-02 -0.176296D+00 -0.495738D-01  0.212776D-02 -0.131695D+00
     19  0.105766D+00 -0.315561D-02  0.867908D-01  0.555312D-02 -0.175206D-02
     20 -0.491658D-01  0.314236D-02 -0.169005D-01 -0.610177D-01  0.860813D-03
     21 -0.709362D-03 -0.940526D-01 -0.140784D-01  0.144238D-02 -0.551240D-01
     22 -0.170497D-01 -0.236594D-02 -0.460192D-01  0.931049D-01  0.216974D+00
     23 -0.167421D+00  0.112266D+00  0.891299D-01  0.185475D+00 -0.977738D-01
     24  0.140853D+00  0.125466D+00  0.281471D+00 -0.123574D+00  0.133744D-02
     25 -0.688435D+00  0.939433D+00  0.385802D-02 -0.632819D-01  0.139873D-01
     26 -0.348136D+01 -0.906570D+00 -0.609320D-01  0.497828D-01 -0.145743D-01
     27 -0.751544D+00 -0.299303D+01  0.100677D-01 -0.183311D-01 -0.308891D-01
     28 -0.155153D+00 -0.251402D+00 -0.270652D-01 -0.530069D-01 -0.345267D-01
     29 -0.350572D+01  0.104609D+01 -0.602058D-01  0.804302D-01  0.820811D-01
     30  0.940753D+00 -0.206043D+01 -0.400355D-01  0.931186D-01  0.104277D-01
     31  0.595542D+00 -0.703068D+00  0.108839D-01  0.340519D-01 -0.143834D-02
     32 -0.379183D+01 -0.248717D+00  0.810264D-02 -0.239021D-01 -0.461631D-02
     33 -0.182125D+00 -0.372028D+01 -0.270315D-02 -0.128170D-01 -0.521775D-02
     34  0.294903D-01  0.341591D-01 -0.288967D+01  0.112147D+01 -0.830623D+00
     35 -0.157310D-01 -0.467320D-01  0.941226D+00 -0.293816D+01 -0.737748D+00
     36 -0.313923D-01 -0.122340D-01 -0.768604D+00 -0.816397D+00 -0.324759D+01
     37 -0.407926D-01 -0.152858D-01 -0.390459D+01  0.214459D+00  0.177860D+00
     38  0.124368D+00  0.754621D-01  0.390986D+00 -0.248767D+01  0.120209D+01
     39  0.795305D-01 -0.149094D-01  0.322507D+00  0.116783D+01 -0.289462D+01
     40 -0.798339D-01  0.148817D-01 -0.299429D+01 -0.541903D+00  0.108802D+01
     41  0.658388D-01 -0.220058D-01 -0.520330D+00 -0.334615D+01 -0.743442D+00
     42 -0.306486D-01 -0.350954D-01  0.977060D+00 -0.690863D+00 -0.241598D+01
     43  0.223680D-02 -0.107032D-02  0.198620D-01  0.176230D-01 -0.165675D-01
     44  0.864417D-02 -0.345248D-02  0.335907D-01 -0.341933D-03 -0.115962D-01
     45 -0.382648D-02 -0.101847D-01 -0.249817D-01 -0.141162D-01 -0.134917D-01
     46  0.552484D-02 -0.249286D-02  0.132170D-01  0.424478D-02 -0.228109D-02
     47 -0.342844D-02 -0.146866D-02  0.376535D-02 -0.369460D-02 -0.417753D-04
     48 -0.673611D-03 -0.675847D-02 -0.591409D-02 -0.184908D-02 -0.545909D-02
     49 -0.670918D-02  0.302308D-02  0.999315D-02 -0.161067D-02  0.314501D-02
     50 -0.459987D-02 -0.242477D-03 -0.361675D-02 -0.266759D-02 -0.868206D-03
     51  0.793069D-03 -0.630338D-02 -0.809878D-03 -0.302719D-04 -0.336486D-02
               16            17            18            19            20 
     16  0.903322D+01
     17  0.547838D+00  0.199288D+02
     18  0.438167D+01  0.438965D+01  0.233937D+02
     19 -0.179584D+01 -0.423799D+01 -0.121854D+01  0.120384D+02
     20 -0.378178D+01 -0.943324D+01 -0.160775D+01  0.490189D+01  0.150332D+02
     21 -0.138960D+01 -0.153098D+01 -0.126365D+02  0.102930D+01  0.569235D+01
     22  0.757344D-01 -0.142436D-01  0.747449D-02  0.136494D-01 -0.764175D-02
     23 -0.193446D-01 -0.109444D+00 -0.260915D-01 -0.129200D-01 -0.140348D-01
     24  0.803666D-01 -0.173217D-01 -0.768387D-01  0.886166D-02 -0.529235D-02
     25 -0.148458D-01  0.573674D-02 -0.195434D-02 -0.338992D-02  0.870947D-02
     26  0.235436D-01  0.332893D-01 -0.138919D-01  0.275445D-01  0.413252D-02
     27 -0.109431D-01 -0.253313D-01 -0.117667D-01 -0.187609D-01 -0.122968D-01
     28  0.431303D-02  0.257677D-01  0.584946D-02  0.733035D-02  0.105942D-01
     29  0.323000D-01  0.215713D-01  0.105125D-01  0.201791D-01  0.356843D-03
     30  0.183510D-01  0.236084D-01 -0.666243D-02  0.199506D-01  0.110054D-01
     31  0.880158D-02  0.804467D-02 -0.678557D-04  0.172260D-01  0.669924D-02
     32  0.453790D-02 -0.471208D-02  0.108576D-04  0.822714D-02 -0.366619D-02
     33 -0.243251D-02 -0.983429D-03 -0.725128D-02 -0.404774D-02 -0.350795D-03
     34  0.186149D-01  0.763739D-02 -0.704375D-02  0.206566D-01  0.112001D-03
     35  0.156979D-01 -0.510066D-02 -0.337297D-02  0.108910D-01 -0.525330D-02
     36 -0.896606D-02 -0.234072D-02 -0.756711D-02 -0.882704D-02  0.225036D-03
     37  0.368289D-01 -0.188403D-01 -0.265736D-01  0.151116D-01 -0.610578D-02
     38 -0.392842D-01 -0.146487D-01  0.165918D-01 -0.198338D-01 -0.222766D-02
     39 -0.431648D-01  0.148193D-01 -0.955369D-02 -0.188491D-01  0.642717D-02
     40  0.381190D-01 -0.272481D-02  0.594800D-02  0.212985D-01 -0.578281D-02
     41 -0.741811D-02 -0.134421D-01 -0.120228D-02 -0.788236D-02 -0.431764D-02
     42  0.182805D-01 -0.232918D-02 -0.886125D-02  0.112620D-01 -0.276540D-02
     43 -0.443629D+01 -0.406319D+00  0.258690D+00  0.181473D-01  0.398893D+00
     44 -0.588036D+00 -0.223066D+01 -0.132484D+01  0.484944D+00 -0.127749D+00
     45  0.347178D+00 -0.128328D+01 -0.383546D+01 -0.114635D+00  0.995058D-01
     46 -0.494032D+00 -0.534728D-01  0.237096D+00 -0.277895D+01  0.102459D+01
     47 -0.932675D-01  0.348992D+00 -0.378048D-02  0.996788D+00 -0.364229D+01
     48  0.256069D+00 -0.112886D-01  0.243139D+00 -0.989914D+00 -0.693063D+00
     49  0.229820D+00 -0.212930D+00  0.347418D-01 -0.190329D+00  0.967673D-01
     50 -0.193931D+00  0.514842D-01 -0.198916D-01  0.208190D+00  0.364709D-01
     51  0.295956D-01 -0.171671D-01 -0.783096D-01 -0.689810D-01  0.997496D-02
               21            22            23            24            25 
     21  0.232665D+02
     22 -0.165128D-01  0.439762D+01
     23 -0.331387D-02 -0.134943D+00  0.436140D+01
     24 -0.192545D-01  0.220714D+00  0.911348D+00  0.152756D+01
     25 -0.436806D-02 -0.301976D-01 -0.153791D-01  0.146716D-01  0.321088D+01
     26 -0.855888D-02 -0.147608D-01  0.586588D-01 -0.857230D-01  0.695761D+00
     27 -0.825697D-02  0.100998D-01 -0.673665D-01  0.326474D-01 -0.817953D+00
     28  0.383868D-02  0.289796D-01 -0.143974D-01  0.114256D-02  0.882046D-01
     29  0.502974D-02 -0.932512D-02 -0.775402D-01  0.133088D-02 -0.998198D-02
     30 -0.412829D-02 -0.383354D-03  0.232607D-02  0.270467D-01 -0.829783D-01
     31 -0.172574D-02  0.486523D-02  0.346208D-01 -0.335365D-01 -0.211817D+00
     32  0.407520D-03  0.287705D-01  0.233843D-01 -0.360175D-01  0.429820D-01
     33 -0.514515D-02 -0.189819D-01 -0.272513D-01  0.676287D-02 -0.919966D-01
     34 -0.504518D-02  0.330991D-01  0.170144D-01 -0.790151D-01  0.212584D-01
     35 -0.204956D-02  0.142353D-01 -0.241020D-01 -0.206159D-01 -0.138622D-01
     36 -0.366214D-02 -0.578551D-01 -0.161545D-01  0.470200D-01 -0.726977D-02
     37 -0.835279D-02 -0.815822D-02 -0.151570D-01 -0.355286D-01 -0.539602D-03
     38  0.637063D-02 -0.170974D-01 -0.637607D-02  0.458469D-01 -0.415892D-02
     39 -0.281537D-02 -0.277598D-01  0.274180D-01  0.489568D-01 -0.245520D-02
     40  0.177922D-02 -0.476126D-01  0.296755D-01  0.228490D-01  0.200321D-02
     41 -0.514344D-03  0.283478D-01  0.146851D-01 -0.811139D-02 -0.330998D-02
     42 -0.446776D-02  0.252182D-01 -0.869933D-02  0.159652D-01  0.353245D-02
     43 -0.827039D-01  0.125726D-01  0.272375D-01  0.172122D-01 -0.121433D-02
     44  0.789908D-01  0.403350D-01  0.411263D-02  0.259153D-01  0.335712D-03
     45  0.330834D+00  0.574936D-02  0.445391D-02 -0.228576D-01  0.215549D-03
     46 -0.102626D+01 -0.117856D-02 -0.175525D-02  0.484229D-02  0.974558D-03
     47 -0.699179D+00  0.115907D-02 -0.139544D-02  0.256547D-02  0.193711D-02
     48 -0.374555D+01 -0.987454D-03  0.323488D-03 -0.296271D-02 -0.692556D-03
     49 -0.507942D-02  0.398478D-02 -0.315255D-02  0.795553D-02 -0.194084D-02
     50 -0.190225D-01 -0.127999D-02 -0.390389D-04 -0.212535D-02  0.858707D-04
     51  0.780913D-01  0.556751D-03 -0.725518D-04 -0.854826D-03  0.478304D-04
               26            27            28            29            30 
     26  0.308120D+01
     27  0.857667D+00  0.315627D+01
     28 -0.500713D-02 -0.113730D+00  0.381330D+01
     29  0.117399D+00  0.718726D-02  0.144041D+00  0.325126D+01
     30  0.220902D-01 -0.214821D+00  0.166971D+00 -0.115558D+01  0.218585D+01
     31  0.654151D-01 -0.720537D-01 -0.462203D-01  0.507201D-01  0.212721D+00
     32  0.105562D+00 -0.209454D-02  0.288961D-01  0.135415D+00 -0.129034D-01
     33  0.648308D-02  0.998640D-01  0.209962D+00 -0.356880D-01 -0.774518D-01
     34 -0.282412D-01  0.125372D-02  0.435877D-02 -0.123148D-01 -0.144142D-01
     35  0.397207D-02  0.281544D-02 -0.401465D-02 -0.930544D-03  0.336330D-02
     36  0.605277D-02 -0.103499D-01 -0.990591D-02  0.122701D-01  0.883596D-02
     37  0.109091D-02  0.782229D-03 -0.351898D-03  0.253513D-02  0.973557D-03
     38  0.352760D-02 -0.375496D-02  0.895334D-03 -0.232577D-02  0.191175D-02
     39  0.306860D-02 -0.291158D-02 -0.157673D-03 -0.394575D-03  0.234559D-02
[...]
   yy         0.847995D+02      0.125660D+02      0.139815D+02
   zx        -0.441280D+01     -0.653909D+00     -0.727572D+00
   zy         0.948273D+01      0.140519D+01      0.156349D+01
   zz         0.645040D+02      0.955851D+01      0.106353D+02

 ----------------------------------------------------------------------

 Test job not archived.
 1\1\GINC-C0305\Freq\RM062X\CC-pVTZ\C5H10O2\HARMS.N\26-Sep-2019\0\\#P G
 eom=AllCheck Guess=TCheck SCRF=Check Test GenChk RM062X/CC-pVTZ Freq\\
 Gaussian input prepared by ASE\\0,1\O,1.043205718,0.4461042549,2.90621
 19557\O,1.5942575178,-2.2899687119,2.8777184135\C,1.2913971665,1.70596
 16055,3.5275383522\C,2.2142076796,1.5356342152,4.7216346288\C,-0.05995
 83045,2.2660555187,3.9149001692\C,2.1060273245,-0.0790130931,2.2422660
 26\C,2.3557906012,-1.3799959397,2.2034517911\H,1.7659641674,2.36427869
 79,2.7882996935\H,1.7475965878,0.8740030179,5.4520649468\H,3.164188390
 5,1.0962268224,4.4183611365\H,2.411970598,2.4981143287,5.1933022667\H,
 -0.5442178009,1.5949640488,4.6243987712\H,-0.6986428625,2.3615582513,3
 .0387317977\H,0.0525384447,3.2446414231,4.3802595648\H,2.7385652394,0.
 6113151324,1.6942567927\H,3.1754660065,-1.750083967,1.6028951301\H,1.9
 315398379,-3.170918001,2.7123990137\\Version=EM64L-G16RevA.03\State=1-
 A\HF=-346.9414281\RMSD=2.048e-09\RMSF=3.988e-07\ZeroPoint=0.1467831\Th
 ermal=0.1556428\Dipole=0.726317,-0.0282017,-0.1468853\DipoleDeriv=-0.7
 396194,0.6859117,0.3367083,0.2631749,-1.2181175,-0.4362053,0.2686305,-
 0.5954059,-0.6747582,-0.3989683,-0.6517149,0.0683266,-0.1473708,-1.156
 8765,0.1226226,0.0569461,0.5711587,-0.3982494,0.3996181,0.0110085,0.07
 22105,-0.1640006,0.9621771,0.3204565,0.0039746,0.2550854,0.5800677,-0.
 054917,-0.0167448,-0.1174285,0.0864007,-0.0042728,-0.0033424,-0.064976
 ,-0.0441232,-0.0839562,-0.0589655,0.0698803,0.0272225,0.0493726,0.0311
 689,-0.0319921,0.0074725,-0.0299443,0.032949,0.4551735,-0.7448463,-0.5
 484265,-0.2703983,0.3373612,0.1642592,-0.3741224,0.3577526,0.1979933,0
 .1169489,0.620114,-0.1839331,0.2193362,0.8547025,-0.2175969,-0.2137879
 ,-0.6008512,0.0260131,-0.0450905,-0.0725059,0.0433899,-0.0035418,-0.08
 70825,0.0208242,0.0698724,0.0902683,-0.1301474,0.0113573,-0.0505277,0.
 0673876,-0.0370465,0.0097274,0.0841522,0.0111985,0.0471993,-0.0143735,
 -0.0837278,0.0768033,0.0227663,0.0772806,0.046027,0.0074417,0.0433355,
 -0.0014298,0.0358872,0.0775107,-0.0215937,-0.0200191,-0.0359442,-0.097
 6735,-0.089441,-0.0138576,-0.0727422,0.0117338,0.0195951,0.0008883,0.0
 32008,-0.0596598,-0.0011385,0.0895524,0.059272,0.0581291,-0.0086997,-0
 .0293071,0.0304781,-0.0613936,0.0100266,0.0759453,0.0082441,-0.098305,
 0.0266346,-0.0495143,0.0384064,-0.0323353,-0.0110166,0.0053848,-0.0931
 33,-0.0793442,0.0082014,-0.0850408,0.0299325,0.007046,0.0480902,0.1154
 892,-0.0534569,-0.0103201,0.0681847,0.0725072,0.0518739,0.0775632,0.01
 53741,-0.0004029,0.1087952,0.0262587,-0.0042358,-0.0138676,0.1169345,0
 .0056504,0.0629007,0.2695654,0.0474971,0.0479134,0.0341836,0.3557407,-
 0.0139479,0.0467038,-0.0342148,0.3046583\Polar=62.1050721,-7.5286881,8
 5.8609493,-4.4887335,7.1805488,60.9292211\Quadrupole=-2.5317844,4.8981
 508,-2.3663664,-3.0724331,-2.0854718,2.1299794\PG=C01 [X(C5H10O2)]\NIm
 ag=0\\0.35660745,-0.04330937,0.39072348,-0.13031190,0.16667985,0.21794
 928,0.00878104,-0.00789928,-0.01038338,0.24626377,0.00796120,-0.001181
 91,-0.00691322,-0.06159716,0.70423593,-0.01274587,0.00430205,0.0003589
 9,-0.16977727,-0.02429131,0.14713974,-0.09294481,-0.05176643,-0.012043
 95,0.00052025,-0.00008924,0.00011988,0.55164154,-0.02760189,-0.1772226
 9,-0.05082940,0.00461789,0.00509201,-0.00351064,0.00948967,0.50473154,
 0.00034664,-0.04395725,-0.08490427,-0.00010669,0.00150689,-0.00101787,
 -0.05020483,-0.05487689,0.54117364,-0.00293963,-0.00545790,-0.00965566
 ,-0.00034307,-0.00043102,0.00068026,-0.12425920,0.01323528,-0.05282754
 ,0.55036183,-0.02196324,-0.01299861,-0.04069810,-0.00084083,-0.0006578
 4,0.00059920,0.01940998,-0.07973218,0.02677470,0.00528248,0.58818340,-
 0.01278051,-0.01296829,-0.01851487,-0.00013939,-0.00031893,0.00006043,
 -0.05388132,0.02004354,-0.15566215,-0.04743432,0.01270520,0.51676691,0
 .00562229,0.00086318,-0.00033167,-0.00031807,-0.00024573,0.00028235,-0
 .19295002,0.04436229,0.03365703,-0.02528889,0.00887150,0.00182097,0.51
 323121,0.03608280,-0.02857951,-0.02191943,-0.00041731,-0.00021597,0.00
 030678,0.03021445,-0.08753512,-0.00376190,0.00730174,-0.00007415,0.001
 83166,0.02808728,0.57899837,0.01760514,-0.01511858,-0.00852564,-0.0001
 7874,-0.00034489,0.00012070,0.02862513,-0.00679834,-0.08822813,-0.0264
 9104,0.01209900,0.00813809,0.02814258,-0.00347305,0.58326153,-0.230035
 65,0.07032814,0.11646853,0.00053130,-0.04576575,0.01239669,0.00025987,
 0.01992842,0.00716643,0.00109900,-0.00683687,-0.00244331,-0.00067481,-
 0.00198882,-0.00015793,0.46163591,0.04193746,-0.12668516,-0.04273870,-
 0.00278687,-0.04087648,0.00963264,0.03523455,-0.03079673,-0.02395673,-
 0.00117845,0.00185467,-0.00000369,-0.00166979,-0.00554052,-0.00319643,
 -0.04900796,0.93240719,0.10057829,-0.05167164,-0.11027567,0.00810995,0
 .03886372,0.00363320,0.01472854,-0.01796192,-0.02029888,0.00009089,-0.
 00015858,-0.00057988,-0.00021527,0.00033012,-0.00038668,-0.24020199,-0
 .02687502,0.30384345,-0.02486158,0.05506820,0.02061915,-0.15305244,-0.
 09868306,0.10220252,-0.00485199,-0.01010721,-0.00127124,0.00043071,0.0
 0166100,0.00032291,0.00101208,0.00206346,0.00074091,-0.09211185,0.0752
 5921,0.02160094,0.47431982,0.01229004,-0.01477198,-0.00429548,-0.06118
 295,-0.20975772,0.06352592,-0.00002690,0.00024507,0.00092441,0.0009977
 7,0.00042591,0.00029784,0.00003144,0.00050129,-0.00004312,0.09980978,-
 0.55146591,-0.02246724,-0.10218009,0.91812553,0.02149724,-0.03311057,-
 0.00094138,0.09743348,0.09324771,-0.11615574,0.00353002,0.00412373,0.0
 0009217,-0.00098908,-0.00086817,0.00013986,-0.00075518,-0.00163785,-0.
 00052512,0.02105949,-0.00809191,-0.07165231,-0.26486339,-0.00669713,0.
 31629540,-0.00263786,-0.01058341,0.00211097,-0.00016660,-0.00007309,0.
 00000358,-0.09548749,-0.05867172,0.07159433,0.00846785,0.01259205,-0.0
 1601887,-0.01437047,-0.01643438,0.02125743,0.00022091,0.00297088,-0.00
 048438,0.00035452,-0.00011630,-0.00021832,0.10639772,-0.01496118,-0.04
 036154,0.00755956,-0.00004533,0.00004593,0.00006008,-0.05607058,-0.127
 23328,0.09648333,-0.00119477,-0.00036445,0.00471565,0.00614861,0.00934
 570,-0.00886249,-0.00674867,0.00211841,0.00484413,0.00106837,-0.000221
 07,-0.00071870,0.06820796,0.15501032,-0.00605875,-0.01562648,0.0101926
 7,0.00019454,-0.00018576,0.00022072,0.07368913,0.10021475,-0.16937671,
 0.01085121,0.01603173,-0.01949724,0.00349652,0.00469182,-0.00531495,-0
 .00267072,-0.00122372,0.00263713,-0.00026135,0.00006089,-0.00007180,-0
 .07665111,-0.10310249,0.18177667,0.00056437,0.00066415,0.00209886,0.00
 019730,0.00032104,-0.00029305,0.00839237,0.01384786,-0.01496058,-0.098
 94961,-0.07203205,0.07956592,0.00186290,0.00051033,-0.00057886,0.00014
 303,-0.00011518,0.00006901,-0.00020323,-0.00026512,0.00029458,-0.00204
 750,0.00044580,-0.00372284,0.10489299,0.00024441,0.00174957,-0.0003146
 8,-0.00006086,-0.00004750,0.00012408,-0.00242716,-0.00452884,0.0028138
 1,-0.07057465,-0.14603496,0.10876483,-0.00039867,-0.00003983,-0.000206
 39,0.00045473,-0.00021020,0.00003630,0.00002383,0.00007286,-0.00000495
 ,0.00077571,0.00099610,0.00030557,0.07721417,0.15454022,0.00069068,-0.
 00081765,0.00316454,-0.00015045,-0.00018308,0.00028039,0.01184534,0.01
 906981,-0.02157562,0.07831161,0.10748044,-0.16444220,0.00145256,-0.000
 72489,0.00092621,0.00033389,-0.00019047,-0.00039968,0.00010043,0.00032
 100,-0.00031343,-0.00392388,0.00015430,-0.00345313,-0.08355982,-0.1210
 6869,0.17993725,0.00136807,-0.00021298,0.00061231,0.00015742,0.0003964
 8,-0.00034593,-0.01824841,0.00799313,0.00731246,-0.25125943,0.09351702
 ,0.06739105,-0.00119209,0.00010903,-0.00469122,-0.00015948,0.00049350,
 0.00038363,0.00022887,-0.00088600,0.00038763,0.00084764,-0.00026254,-0
 .00022184,-0.01129288,0.00561027,0.00314103,0.27303545,-0.00021881,0.0
 0010070,0.00033569,0.00002805,0.00000090,0.00010404,0.00298144,-0.0033
 0336,-0.00167098,0.09469297,-0.09063743,-0.03024612,0.00009901,0.00030
 473,0.00098925,-0.00037813,0.00022232,-0.00069469,-0.00004722,-0.00030
 537,-0.00005963,0.00005848,-0.00014861,-0.00011826,-0.01807894,0.00887
 006,0.00517175,-0.10462499,0.09456195,0.00217869,0.00069780,0.00177073
 ,0.00026712,0.00054233,-0.00019193,-0.02528392,0.01189488,0.00925073,0
 .06928273,-0.03127366,-0.06997883,-0.00254650,-0.00021317,-0.00460289,
 -0.00066960,-0.00070251,-0.00058726,0.00000058,-0.00063845,-0.00020007
 ,0.00096672,-0.00010746,0.00122288,0.01764109,-0.00991757,-0.00622303,
 -0.07216673,0.03345554,0.07445476,-0.00190347,-0.00143886,-0.00591027,
 -0.00019803,-0.00013673,-0.00000855,-0.00303978,-0.01821423,-0.0040826
 6,-0.05486706,-0.04168060,-0.02093483,0.00045302,-0.00029499,0.0005390
 2,-0.00132155,0.00112509,0.00098164,0.00056822,-0.00043724,0.00001880,
 0.00063038,0.00039730,0.00022794,-0.00329252,-0.01153476,-0.00712087,0
 .00692912,0.02511650,0.01203043,0.05633022,0.00107438,0.00180787,0.000
 38706,-0.00004253,-0.00014543,0.00001465,0.00117421,0.00266622,0.00248
 273,-0.04321938,-0.25941141,-0.10288277,0.00020197,-0.00025711,0.00000
 672,-0.00029898,0.00014246,0.00032914,-0.00005492,0.00019855,-0.000032
 03,-0.00051853,0.00027632,-0.00059029,-0.00207440,-0.01548931,-0.00884
 675,-0.00280046,-0.01044503,-0.00417101,0.04645374,0.27994186,-0.00365
 222,-0.00230067,-0.00653298,-0.00032637,-0.00039931,0.00029164,-0.0006
 8471,-0.02376069,-0.00752484,-0.02140130,-0.10120113,-0.09694970,0.000
 75694,-0.00034892,0.00067497,-0.00208814,0.00096300,0.00106121,0.00065
 611,0.00023474,-0.00030647,0.00096987,0.00061873,0.00033845,0.00308545
 ,0.01947707,0.01102152,-0.00196782,-0.00708182,-0.00476793,0.02460269,
 0.11315166,0.10249060,0.00199165,-0.00061572,-0.00174213,0.00005181,0.
 00012958,-0.00010153,-0.01685710,-0.02123059,0.02196580,0.00162711,-0.
 00119788,0.00098582,-0.09776008,-0.07192773,0.07505210,-0.00008796,0.0
 0008292,0.00000279,0.00006934,-0.00003688,-0.00000481,-0.00477200,0.00
 313495,0.00123126,-0.00027544,0.00058911,-0.00085435,0.00045848,0.0003
 0417,-0.00022374,-0.00005971,0.00004829,-0.00004402,0.10841635,-0.0006
 1890,0.00175977,0.00087462,0.00003755,0.00005434,-0.00003273,0.0062152
 0,0.00689904,-0.00876349,-0.00040104,0.00050841,-0.00078394,-0.0741952
 6,-0.15130317,0.11027415,0.00053291,0.00004408,-0.00045597,-0.00020434
 ,-0.00002999,0.00013494,0.00242352,-0.00022257,-0.00096326,-0.00034498
 ,0.00004266,0.00004587,-0.00003578,0.00005196,-0.00015856,-0.00005706,
 0.00000960,0.00012215,0.07907607,0.16037347,-0.00065837,0.00019526,0.0
 0051548,-0.00011737,-0.00009707,0.00006336,0.00533115,0.00596124,-0.00
 774707,-0.00108780,-0.00062819,0.00064433,0.07577737,0.10928886,-0.161
 62488,-0.00006447,-0.00027423,-0.00005813,0.00004225,0.00011700,-0.000
 05459,0.00140450,-0.00113292,0.00064846,0.00014349,0.00008923,0.000612
 86,-0.00007087,-0.00014375,-0.00001442,-0.00005600,-0.00011853,-0.0000
 0467,-0.08530721,-0.12032351,0.17235223,0.00261386,-0.00165488,0.00012
 343,-0.00002446,-0.00004308,0.00006100,-0.01866587,0.00196152,-0.02720
 285,-0.00495997,0.00268319,0.00358759,-0.13805549,0.01392413,-0.126351
 15,-0.00003023,-0.00000572,0.00039622,0.00017814,-0.00007468,-0.000080
 15,0.00104645,-0.00072386,0.00005101,0.00010771,0.00012066,0.00003201,
 -0.00110558,0.00041179,-0.00165643,0.00024693,-0.00012953,0.00025915,0
 .00908928,-0.00038887,0.01228620,0.15163632,-0.00092845,0.00092323,0.0
 0055493,0.00003714,0.00008743,-0.00010456,0.00689761,-0.00283510,0.010
 48449,0.00203928,-0.00080421,-0.00125871,0.01262160,-0.04919595,0.0188
 2209,0.00023999,-0.00008901,-0.00025058,-0.00017500,0.00000620,0.00015
 681,-0.00057152,0.00018381,-0.00039719,-0.00016527,0.00017405,-0.00038
 159,0.00067140,0.00039660,0.00048405,0.00016301,0.00026352,0.00023336,
 0.01278202,-0.00169331,0.01595186,-0.01601890,0.04831793,-0.00014860,0
 .00097043,0.00071955,0.00008035,0.00009940,-0.00004081,0.00667243,-0.0
 0156485,0.00771701,0.00113729,-0.00094748,0.00019047,-0.12939726,0.020
 04009,-0.22835543,0.00018342,0.00016029,0.00011767,-0.00008100,-0.0000
 7112,0.00011255,-0.00069918,0.00031453,0.00084605,0.00018194,-0.000300
 31,0.00023558,0.00033780,-0.00021204,0.00046602,0.00015174,0.00004363,
 -0.00006510,-0.01192650,0.00040268,-0.01595280,0.13963817,-0.02094974,
 0.24404159,-0.00640194,0.00404471,0.00346289,0.00023098,0.00018870,-0.
 00014420,0.00757318,0.02512914,0.01027134,0.00086709,-0.00021381,-0.00
 012283,-0.05189532,-0.02791715,-0.01344323,0.00091888,0.00162269,-0.00
 007326,-0.00067810,-0.00014184,0.00055020,0.00094429,-0.00095345,0.000
 12513,-0.00002791,-0.00000961,-0.00009888,0.00020811,-0.00025951,0.000
 18168,-0.00063818,0.00011896,-0.00033881,-0.00213940,-0.01192201,-0.00
 745497,-0.00199740,-0.01755393,-0.00610828,0.05320321,0.00368544,-0.00
 062851,-0.00176778,-0.00014470,-0.00022378,0.00013696,-0.00521028,-0.0
 1028755,-0.00306860,-0.00081441,0.00001402,-0.00003920,-0.02494521,-0.
 26599329,-0.10383650,-0.00080305,0.00000514,0.00039348,0.00041489,0.00
 007647,-0.00031196,0.00035285,0.00042665,-0.00017063,0.00007401,-0.000
 05788,-0.00008243,0.00007447,0.00034620,0.00011644,0.00048179,0.000435
 93,0.00034939,-0.00110302,-0.01627189,-0.00894624,-0.00003604,0.004258
 02,0.00201996,0.02781100,0.28796982,0.00282439,-0.00126905,-0.00055602
 ,-0.00010639,-0.00013393,0.00014182,-0.00335711,-0.00652317,-0.0052825
 3,-0.00049332,0.00012179,0.00001010,-0.01191278,-0.10398119,-0.0956350
 9,-0.00054775,-0.00049825,0.00087130,0.00038050,0.00005317,-0.00032493
 ,-0.00012846,0.00032580,-0.00013707,0.00009291,0.00012662,0.00000546,0
 .00014068,0.00014353,-0.00009843,-0.00026778,0.00022052,0.00031749,0.0
 0116142,0.01955087,0.01045079,-0.00098827,-0.02345573,-0.00998912,0.01
 317815,0.11533047,0.10030296,-0.02278812,-0.00935781,0.02187462,0.0036
 0519,0.00315422,0.00300358,-0.00045323,-0.00486667,-0.00228594,0.00019
 268,0.00061778,0.00011850,0.00024337,0.00052855,-0.00015122,-0.1333443
 9,-0.10194619,0.08785476,0.00394883,0.00401594,-0.00370602,0.00052642,
 0.00148496,-0.00020397,-0.00010856,-0.00000246,-0.00016484,-0.00000789
 ,-0.00002338,-0.00000836,0.00013142,0.00005232,0.00018385,0.00023280,-
 0.00010662,-0.00016873,-0.00003640,-0.00005935,-0.00000057,-0.00009149
 ,0.00015385,0.00004719,0.14852508,0.00929963,0.00900012,-0.00824520,0.
 00368229,-0.00386972,-0.00215258,0.00252525,0.00427582,-0.00223230,-0.
 00037401,-0.00037444,0.00009458,0.00031197,0.00006737,-0.00009470,-0.1
 0116807,-0.17895893,0.09142665,-0.01980121,-0.01167108,0.01728598,-0.0
 0042105,0.00029881,0.00118296,0.00004195,-0.00003323,0.00008369,0.0000
 6159,0.00000341,0.00006927,0.00005354,-0.00003332,-0.00006122,-0.00001
 987,-0.00023517,0.00004976,0.00000665,0.00000341,-0.00000351,-0.000073
 29,-0.00003281,0.00004116,0.10642377,0.18278241,0.01528955,0.00385430,
 -0.00976653,0.00420103,0.00015738,0.00491304,0.00126616,0.00391774,0.0
 0154546,0.00019354,-0.00022977,-0.00019295,-0.00024088,-0.00047217,0.0
 0005814,0.08905150,0.09302443,-0.10646859,-0.00266575,-0.00122099,0.00
 206133,-0.00018483,-0.00091972,0.00012658,-0.00008600,0.00006169,0.000
 17700,-0.00027354,0.00010887,-0.00046538,-0.00019122,0.00001580,-0.000
 03435,-0.00018447,0.00004727,0.00013168,-0.00009484,0.00007133,-0.0000
 1985,0.00006901,-0.00011318,-0.00003194,-0.10458537,-0.09782530,0.1094
 4084,0.00655546,0.00055901,0.00359832,-0.01252463,-0.00105830,0.012175
 40,-0.00066078,0.00014529,0.00076221,-0.00016772,0.00012163,-0.0000348
 2,0.00006578,0.00013680,0.00009473,-0.00315593,0.00015967,0.00276855,-
 0.20873370,0.08098976,0.12924439,0.00005488,-0.00004588,-0.00012025,0.
 00000756,-0.00000920,-0.00001302,0.00004091,-0.00004525,-0.00003723,0.
 00003907,-0.00000162,-0.00000071,0.00000130,-0.00000211,0.00000237,-0.
 00003053,0.00001314,-0.00001376,-0.00007048,0.00000871,-0.00002684,-0.
 00145465,0.00030727,-0.00258794,0.21963356,-0.00089141,-0.00592153,0.0
 0012577,-0.02378522,0.00420964,0.01819107,0.00155925,0.00066254,0.0010
 3078,-0.00000783,-0.00004839,-0.00001763,-0.00020645,-0.00058890,-0.00
 025582,0.02370719,-0.00195493,-0.01764729,0.08317266,-0.10027692,-0.05
 659328,-0.00004932,-0.00024308,-0.00007498,-0.00001587,0.00002116,-0.0
 0001209,-0.00002201,0.00001788,-0.00003142,-0.00001707,-0.00001300,-0.
 00006012,-0.00001801,0.00003997,0.00000998,-0.00003543,0.00002765,0.00
 001606,0.00016913,-0.00008684,-0.00008830,-0.00042123,-0.00042752,-0.0
 0029730,-0.08197254,0.10069251,0.00538283,0.00085699,0.00571712,0.0136
 6127,0.00032013,-0.00819741,-0.00034187,0.00030120,0.00154440,-0.00014
 959,0.00020696,-0.00010855,0.00003266,0.00007358,0.00001864,-0.0009777
 3,0.00184575,0.00069755,0.13043480,-0.05733287,-0.12577929,0.00005233,
 -0.00014921,-0.00015770,-0.00000828,0.00001250,0.00002906,0.00004920,-
 0.00007814,-0.00006150,0.00004511,-0.00001525,0.00001239,-0.00000708,0
 .00001456,0.00002523,-0.00004639,0.00002506,-0.00001317,-0.00006297,0.
 00000450,-0.00004067,-0.00257186,-0.00040010,-0.00282932,-0.14582765,0
 .05509431,0.12867216,0.00040888,0.00076926,-0.00059011,-0.09371176,0.1
 9597195,0.05249112,0.00003146,-0.00001816,-0.00013392,-0.00001167,0.00
 000864,-0.00000256,0.00001459,0.00002180,-0.00001366,-0.00388706,-0.00
 217582,0.00340970,0.00338237,-0.03278674,-0.00339890,-0.00000914,0.000
 11832,0.00004407,0.00002943,-0.00001551,-0.00002143,-0.00000831,-0.000
 01617,0.00004346,-0.00000808,0.00001648,-0.00000997,0.00001358,-0.0000
 0827,-0.00000153,-0.00001274,0.00000724,-0.00000798,-0.00000553,-0.000
 00029,0.00000345,0.00087895,-0.00085640,0.00102408,0.00039992,-0.00116
 585,0.00033520,0.09249512,-0.00208210,0.00228670,0.00120451,0.15040011
 ,-0.45674982,-0.06690562,-0.00011102,-0.00109740,-0.00021299,0.0001039
 4,0.00015166,0.00006600,0.00006227,0.00010606,0.00003910,-0.00200486,-
 0.00021641,0.00195938,0.01252144,-0.03115184,-0.00682299,0.00005789,0.
 00009253,-0.00003466,-0.00002748,-0.00002493,-0.00001925,-0.00008212,-
 0.00003689,-0.00004652,0.00002058,0.00005228,0.00006378,0.00000259,-0.
 00002721,0.00000126,0.00000307,-0.00002427,-0.00001801,-0.00003974,0.0
 0005030,0.00003569,0.00035232,-0.00079512,-0.00018037,0.00069361,0.003
 88974,-0.00077997,-0.15987048,0.48349461,-0.00003723,-0.00071649,-0.00
 037098,0.05733831,-0.10187006,-0.03162027,-0.00001009,0.00029902,0.000
 29466,-0.00001791,-0.00001394,-0.00002382,-0.00001946,-0.00003035,0.00
 000054,0.00316169,0.00212555,-0.00215444,-0.00795837,0.02723144,-0.002
 37618,-0.00005071,-0.00008311,-0.00000101,0.00003618,0.00000089,0.0000
 1722,-0.00001783,-0.00000323,0.00002656,-0.00002518,0.00000471,-0.0000
 2222,-0.00000335,0.00001434,0.00001213,-0.00001470,0.00001413,-0.00001
 019,0.00000903,-0.00001469,-0.00000412,0.00076438,0.00078088,0.0013548
 5,0.00001624,0.00061026,0.00047108,-0.05317101,0.07165066,0.03440620\\
 -0.00000024,-0.00000039,-0.00000007,0.00000080,0.00000005,-0.00000030,
 -0.00000080,0.00000093,-0.00000030,0.00000003,0.00000013,0.00000038,-0
 .00000020,-0.00000056,-0.00000028,0.00000050,0.00000015,-0.00000038,0.
 00000034,-0.00000069,0.00000041,-0.00000035,-0.00000003,0.00000016,-0.
 00000023,0.00000002,-0.00000002,-0.00000011,0.00000042,0.00000054,-0.0
 0000059,-0.00000004,-0.00000002,-0.00000027,-0.00000028,-0.00000041,-0
 .00000023,-0.00000032,-0.00000029,-0.00000042,-0.00000035,-0.00000033,
 0.00000026,0.00000025,0.00000028,0.00000076,0.00000037,0.00000038,0.00
 000075,0.00000032,0.00000025\\\@


 THE PROGRESS OF RIVERS TO THE SEA IS NOT AS RAPID
 AS THAT OF MAN TO ERROR.
                                              -- VOLTAIRE
 Job cpu time:       0 days  2 hours 33 minutes 21.5 seconds.
 Elapsed time:       0 days  1 hours 16 minutes 41.0 seconds.
 File lengths (MBytes):  RWF=   1392 Int=      0 D2E=      0 Chk=     32 Scr=     32
 Normal termination of Gaussian 16 at Thu Sep 26 08:02:42 2019.
