 Entering Gaussian System, Link 0=g16
 Input=loose/species/CC(C)OC=CO/conformers/CC(C)OC=CO_136.com
 Output=loose/species/CC(C)OC=CO/conformers/CC(C)OC=CO_136.log
 Initial command:
 /shared/centos7/gaussian/g16/l1.exe "/scratch/harms.n/gauss_scrdir/Gau-6216.inp" -scrdir="/scratch/harms.n/gauss_scrdir/"
 Entering Link 1 = /shared/centos7/gaussian/g16/l1.exe PID=      6217.
  
 Copyright (c) 1988,1990,1992,1993,1995,1998,2003,2009,2016,
            Gaussian, Inc.  All Rights Reserved.
  
 This is part of the Gaussian(R) 16 program.  It is based on
 the Gaussian(R) 09 system (copyright 2009, Gaussian, Inc.),
 the Gaussian(R) 03 system (copyright 2003, Gaussian, Inc.),
 the Gaussian(R) 98 system (copyright 1998, Gaussian, Inc.),
 the Gaussian(R) 94 system (copyright 1995, Gaussian, Inc.),
 the Gaussian 92(TM) system (copyright 1992, Gaussian, Inc.),
 the Gaussian 90(TM) system (copyright 1990, Gaussian, Inc.),
 the Gaussian 88(TM) system (copyright 1988, Gaussian, Inc.),
 the Gaussian 86(TM) system (copyright 1986, Carnegie Mellon
 University), and the Gaussian 82(TM) system (copyright 1983,
 Carnegie Mellon University). Gaussian is a federally registered
 trademark of Gaussian, Inc.
  
 This software contains proprietary and confidential information,
 including trade secrets, belonging to Gaussian, Inc.
  
 This software is provided under written license and may be
 used, copied, transmitted, or stored only in accord with that
 written license.
  
 The following legend is applicable only to US Government
 contracts under FAR:
  
                    RESTRICTED RIGHTS LEGEND
  
 Use, reproduction and disclosure by the US Government is
 subject to restrictions as set forth in subparagraphs (a)
 and (c) of the Commercial Computer Software - Restricted
 Rights clause in FAR 52.227-19.
  
 Gaussian, Inc.
 340 Quinnipiac St., Bldg. 40, Wallingford CT 06492
  
  
 ---------------------------------------------------------------
 Warning -- This program may not be used in any manner that
 competes with the business of Gaussian, Inc. or will provide
 assistance to any competitor of Gaussian, Inc.  The licensee
 of this program is prohibited from giving any competitor of
 Gaussian, Inc. access to this program.  By using this program,
 the user acknowledges that Gaussian, Inc. is engaged in the
 business of creating and licensing software in the field of
 computational chemistry and represents and warrants to the
 licensee that it is not a competitor of Gaussian, Inc. and that
 it will not use this program in any manner prohibited above.
 ---------------------------------------------------------------
  

 Cite this work as:
 Gaussian 16, Revision A.03,
 M. J. Frisch, G. W. Trucks, H. B. Schlegel, G. E. Scuseria, 
 M. A. Robb, J. R. Cheeseman, G. Scalmani, V. Barone, 
 G. A. Petersson, H. Nakatsuji, X. Li, M. Caricato, A. V. Marenich, 
 J. Bloino, B. G. Janesko, R. Gomperts, B. Mennucci, H. P. Hratchian, 
 J. V. Ortiz, A. F. Izmaylov, J. L. Sonnenberg, D. Williams-Young, 
 F. Ding, F. Lipparini, F. Egidi, J. Goings, B. Peng, A. Petrone, 
 T. Henderson, D. Ranasinghe, V. G. Zakrzewski, J. Gao, N. Rega, 
 G. Zheng, W. Liang, M. Hada, M. Ehara, K. Toyota, R. Fukuda, 
 J. Hasegawa, M. Ishida, T. Nakajima, Y. Honda, O. Kitao, H. Nakai, 
 T. Vreven, K. Throssell, J. A. Montgomery, Jr., J. E. Peralta, 
 F. Ogliaro, M. J. Bearpark, J. J. Heyd, E. N. Brothers, K. N. Kudin, 
 V. N. Staroverov, T. A. Keith, R. Kobayashi, J. Normand, 
 K. Raghavachari, A. P. Rendell, J. C. Burant, S. S. Iyengar, 
 J. Tomasi, M. Cossi, J. M. Millam, M. Klene, C. Adamo, R. Cammi, 
 J. W. Ochterski, R. L. Martin, K. Morokuma, O. Farkas, 
 J. B. Foresman, and D. J. Fox, Gaussian, Inc., Wallingford CT, 2016.
 
 ******************************************
 Gaussian 16:  EM64L-G16RevA.03 25-Dec-2016
                25-Sep-2019 
 ******************************************
 %nprocshared=20
 Will use up to   20 processors via shared memory.
 %mem=5GB
 ----------------------------------------------------------------------
 #p m062x/cc-pVTZ opt=(calcfc,maxcycles=900,Tight) freq IOP(7/33=1,2/16
 =3) scf=(maxcycle=900)
 ----------------------------------------------------------------------
 1/6=900,7=10,10=4,18=20,19=15,26=3,38=1/1,3;
 2/9=110,12=2,16=3,17=6,18=5,40=1/2;
 3/5=16,6=1,11=2,25=1,30=1,71=2,74=-55,140=1/1,2,3;
 4//1;
 5/5=2,7=900,38=5/2;
 8/6=4,10=90,11=11/1;
 11/6=1,8=1,9=11,15=111,16=1/1,2,10;
 10/6=1,13=1/2;
 6/7=2,8=2,9=2,10=2,28=1/1;
 7/10=1,18=20,25=1,33=1/1,2,3,16;
 1/6=900,7=10,10=4,18=20,19=15,26=3/3(2);
 2/9=110,16=3/2;
 99//99;
 2/9=110,16=3/2;
 3/5=16,6=1,11=2,25=1,30=1,71=1,74=-55/1,2,3;
 4/5=5,16=3,69=1/1;
 5/5=2,7=900,38=5/2;
 7/33=1/1,2,3,16;
 1/6=900,7=10,18=20,19=15,26=3/3(-5);
 2/9=110,16=3/2;
 6/7=2,8=2,9=2,10=2,19=2,28=1/1;
 99/9=1/99;
 Leave Link    1 at Wed Sep 25 12:53:34 2019, MaxMem=   671088640 cpu:               6.8 elap:               3.4
 (Enter /shared/centos7/gaussian/g16/l101.exe)
 ------------------------------
 Gaussian input prepared by ASE
 ------------------------------
 Symbolic Z-matrix:
 Charge =  0 Multiplicity = 1
 O                     2.94738   1.82865   0.56457 
 O                     0.54329   0.39429   2.38348 
 C                     2.38838   3.06806   0.94571 
 C                     0.96347   3.08447   1.49922 
 C                     2.47492   3.99193  -0.22436 
 C                     2.52647   0.56703   0.91817 
 C                     1.60411  -0.04316   1.60445 
 H                     3.05704   3.4818    1.75073 
 H                     0.68501   2.16416   2.05392 
 H                     0.87054   3.96875   2.15564 
 H                     0.23354   3.19575   0.65219 
 H                     1.49867   4.0596   -0.7892 
 H                     3.24487   3.64629  -0.94532 
 H                     2.73528   5.04137   0.09258 
 H                     3.23118  -0.13329   0.44207 
 H                     1.64056  -1.12077   1.54243 
 H                     0.92709   0.7517    3.23597 
 
 ITRead=  0  0  0  0  0  0  0  0  0  0  0  0  0  0  0  0  0
 MicOpt= -1 -1 -1 -1 -1 -1 -1 -1 -1 -1 -1 -1 -1 -1 -1 -1 -1
 NAtoms=     17 NQM=       17 NQMF=       0 NMMI=      0 NMMIF=      0
                NMic=       0 NMicF=      0.
                    Isotopes and Nuclear Properties:
 (Nuclear quadrupole moments (NQMom) in fm**2, nuclear magnetic moments (NMagM)
  in nuclear magnetons)

  Atom         1           2           3           4           5           6           7           8           9          10
 IAtWgt=          16          16          12          12          12          12          12           1           1           1
 AtmWgt=  15.9949146  15.9949146  12.0000000  12.0000000  12.0000000  12.0000000  12.0000000   1.0078250   1.0078250   1.0078250
 NucSpn=           0           0           0           0           0           0           0           1           1           1
 AtZEff=  -0.0000000  -0.0000000  -0.0000000  -0.0000000  -0.0000000  -0.0000000  -0.0000000  -0.0000000  -0.0000000  -0.0000000
 NQMom=    0.0000000   0.0000000   0.0000000   0.0000000   0.0000000   0.0000000   0.0000000   0.0000000   0.0000000   0.0000000
 NMagM=    0.0000000   0.0000000   0.0000000   0.0000000   0.0000000   0.0000000   0.0000000   2.7928460   2.7928460   2.7928460
 AtZNuc=   8.0000000   8.0000000   6.0000000   6.0000000   6.0000000   6.0000000   6.0000000   1.0000000   1.0000000   1.0000000

  Atom        11          12          13          14          15          16          17
 IAtWgt=           1           1           1           1           1           1           1
 AtmWgt=   1.0078250   1.0078250   1.0078250   1.0078250   1.0078250   1.0078250   1.0078250
 NucSpn=           1           1           1           1           1           1           1
 AtZEff=  -0.0000000  -0.0000000  -0.0000000  -0.0000000  -0.0000000  -0.0000000  -0.0000000
 NQMom=    0.0000000   0.0000000   0.0000000   0.0000000   0.0000000   0.0000000   0.0000000
 NMagM=    2.7928460   2.7928460   2.7928460   2.7928460   2.7928460   2.7928460   2.7928460
 AtZNuc=   1.0000000   1.0000000   1.0000000   1.0000000   1.0000000   1.0000000   1.0000000
 Leave Link  101 at Wed Sep 25 12:53:39 2019, MaxMem=   671088640 cpu:               7.4 elap:               3.7
 (Enter /shared/centos7/gaussian/g16/l103.exe)

 GradGradGradGradGradGradGradGradGradGradGradGradGradGradGradGradGradGrad
 Berny optimization.
 Initialization pass.
                           ----------------------------
                           !    Initial Parameters    !
                           ! (Angstroms and Degrees)  !
 --------------------------                            --------------------------
 ! Name  Definition              Value          Derivative Info.                !
 --------------------------------------------------------------------------------
 ! R1    R(1,3)                  1.412          calculate D2E/DX2 analytically  !
 ! R2    R(1,6)                  1.3762         calculate D2E/DX2 analytically  !
 ! R3    R(2,7)                  1.3869         calculate D2E/DX2 analytically  !
 ! R4    R(2,17)                 1.0009         calculate D2E/DX2 analytically  !
 ! R5    R(3,4)                  1.5287         calculate D2E/DX2 analytically  !
 ! R6    R(3,5)                  1.4933         calculate D2E/DX2 analytically  !
 ! R7    R(3,8)                  1.1253         calculate D2E/DX2 analytically  !
 ! R8    R(4,9)                  1.1101         calculate D2E/DX2 analytically  !
 ! R9    R(4,10)                 1.1052         calculate D2E/DX2 analytically  !
 ! R10   R(4,11)                 1.1237         calculate D2E/DX2 analytically  !
 ! R11   R(5,12)                 1.1299         calculate D2E/DX2 analytically  !
 ! R12   R(5,13)                 1.11           calculate D2E/DX2 analytically  !
 ! R13   R(5,14)                 1.1267         calculate D2E/DX2 analytically  !
 ! R14   R(6,7)                  1.3016         calculate D2E/DX2 analytically  !
 ! R15   R(6,15)                 1.1017         calculate D2E/DX2 analytically  !
 ! R16   R(7,16)                 1.08           calculate D2E/DX2 analytically  !
 ! A1    A(3,1,6)              127.8965         calculate D2E/DX2 analytically  !
 ! A2    A(7,2,17)             107.3219         calculate D2E/DX2 analytically  !
 ! A3    A(1,3,4)              118.4339         calculate D2E/DX2 analytically  !
 ! A4    A(1,3,5)              107.9744         calculate D2E/DX2 analytically  !
 ! A5    A(1,3,8)              106.2948         calculate D2E/DX2 analytically  !
 ! A6    A(4,3,5)              109.3333         calculate D2E/DX2 analytically  !
 ! A7    A(4,3,8)              106.9104         calculate D2E/DX2 analytically  !
 ! A8    A(5,3,8)              107.3746         calculate D2E/DX2 analytically  !
 ! A9    A(3,4,9)              113.9443         calculate D2E/DX2 analytically  !
 ! A10   A(3,4,10)             107.5786         calculate D2E/DX2 analytically  !
 ! A11   A(3,4,11)             109.4881         calculate D2E/DX2 analytically  !
 ! A12   A(9,4,10)             110.2098         calculate D2E/DX2 analytically  !
 ! A13   A(9,4,11)             107.2074         calculate D2E/DX2 analytically  !
 ! A14   A(10,4,11)            108.2917         calculate D2E/DX2 analytically  !
 ! A15   A(3,5,12)             112.2515         calculate D2E/DX2 analytically  !
 ! A16   A(3,5,13)             110.8836         calculate D2E/DX2 analytically  !
 ! A17   A(3,5,14)             111.6671         calculate D2E/DX2 analytically  !
 ! A18   A(12,5,13)            107.0539         calculate D2E/DX2 analytically  !
 ! A19   A(12,5,14)            106.5276         calculate D2E/DX2 analytically  !
 ! A20   A(13,5,14)            108.2061         calculate D2E/DX2 analytically  !
 ! A21   A(1,6,7)              141.4447         calculate D2E/DX2 analytically  !
 ! A22   A(1,6,15)             106.0259         calculate D2E/DX2 analytically  !
 ! A23   A(7,6,15)             112.5294         calculate D2E/DX2 analytically  !
 ! A24   A(2,7,6)              133.6562         calculate D2E/DX2 analytically  !
 ! A25   A(2,7,16)             111.8871         calculate D2E/DX2 analytically  !
 ! A26   A(6,7,16)             114.4293         calculate D2E/DX2 analytically  !
 ! D1    D(6,1,3,4)            -17.7929         calculate D2E/DX2 analytically  !
 ! D2    D(6,1,3,5)           -142.645          calculate D2E/DX2 analytically  !
 ! D3    D(6,1,3,8)            102.3995         calculate D2E/DX2 analytically  !
 ! D4    D(3,1,6,7)              1.3114         calculate D2E/DX2 analytically  !
 ! D5    D(3,1,6,15)          -178.6769         calculate D2E/DX2 analytically  !
 ! D6    D(17,2,7,6)           -73.5495         calculate D2E/DX2 analytically  !
 ! D7    D(17,2,7,16)          108.5133         calculate D2E/DX2 analytically  !
 ! D8    D(1,3,4,9)             31.2937         calculate D2E/DX2 analytically  !
 ! D9    D(1,3,4,10)           153.7859         calculate D2E/DX2 analytically  !
 ! D10   D(1,3,4,11)           -88.7398         calculate D2E/DX2 analytically  !
 ! D11   D(5,3,4,9)            155.4787         calculate D2E/DX2 analytically  !
 ! D12   D(5,3,4,10)           -82.029          calculate D2E/DX2 analytically  !
 ! D13   D(5,3,4,11)            35.4452         calculate D2E/DX2 analytically  !
 ! D14   D(8,3,4,9)            -88.5812         calculate D2E/DX2 analytically  !
 ! D15   D(8,3,4,10)            33.9111         calculate D2E/DX2 analytically  !
 ! D16   D(8,3,4,11)           151.3853         calculate D2E/DX2 analytically  !
 ! D17   D(1,3,5,12)            99.3363         calculate D2E/DX2 analytically  !
 ! D18   D(1,3,5,13)           -20.3498         calculate D2E/DX2 analytically  !
 ! D19   D(1,3,5,14)          -141.1073         calculate D2E/DX2 analytically  !
 ! D20   D(4,3,5,12)           -30.778          calculate D2E/DX2 analytically  !
 ! D21   D(4,3,5,13)          -150.4641         calculate D2E/DX2 analytically  !
 ! D22   D(4,3,5,14)            88.7784         calculate D2E/DX2 analytically  !
 ! D23   D(8,3,5,12)          -146.4218         calculate D2E/DX2 analytically  !
 ! D24   D(8,3,5,13)            93.8921         calculate D2E/DX2 analytically  !
 ! D25   D(8,3,5,14)           -26.8654         calculate D2E/DX2 analytically  !
 ! D26   D(1,6,7,2)             -1.6965         calculate D2E/DX2 analytically  !
 ! D27   D(1,6,7,16)           176.2012         calculate D2E/DX2 analytically  !
 ! D28   D(15,6,7,2)           178.2912         calculate D2E/DX2 analytically  !
 ! D29   D(15,6,7,16)           -3.8111         calculate D2E/DX2 analytically  !
 --------------------------------------------------------------------------------
 Trust Radius=3.00D-01 FncErr=1.00D-07 GrdErr=1.00D-06 EigMax=2.50D+02 EigMin=1.00D-04
 Number of steps in this run=    102 maximum allowed number of steps=    102.
 GradGradGradGradGradGradGradGradGradGradGradGradGradGradGradGradGradGrad

 Leave Link  103 at Wed Sep 25 12:53:40 2019, MaxMem=   671088640 cpu:               1.7 elap:               0.9
 (Enter /shared/centos7/gaussian/g16/l202.exe)
                          Input orientation:                          
 ---------------------------------------------------------------------
 Center     Atomic      Atomic             Coordinates (Angstroms)
 Number     Number       Type             X           Y           Z
 ---------------------------------------------------------------------
      1          8           0        2.947377    1.828650    0.564571
      2          8           0        0.543286    0.394289    2.383477
      3          6           0        2.388382    3.068060    0.945709
      4          6           0        0.963471    3.084471    1.499219
      5          6           0        2.474919    3.991926   -0.224355
      6          6           0        2.526470    0.567025    0.918174
      7          6           0        1.604110   -0.043159    1.604452
      8          1           0        3.057039    3.481801    1.750732
      9          1           0        0.685010    2.164157    2.053920
     10          1           0        0.870538    3.968755    2.155643
     11          1           0        0.233543    3.195749    0.652193
     12          1           0        1.498675    4.059601   -0.789203
     13          1           0        3.244869    3.646291   -0.945319
     14          1           0        2.735280    5.041369    0.092576
     15          1           0        3.231185   -0.133290    0.442071
     16          1           0        1.640564   -1.120771    1.542430
     17          1           0        0.927088    0.751696    3.235967
 ---------------------------------------------------------------------
                    Distance matrix (angstroms):
                    1          2          3          4          5
     1  O    0.000000
     2  O    3.338483   0.000000
     3  C    1.412047   3.552549   0.000000
     4  C    2.527160   2.862787   1.528729   0.000000
     5  C    2.350614   4.845100   1.493342   2.465494   0.000000
     6  C    1.376189   2.471836   2.504995   3.019622   3.610814
     7  C    2.527724   1.386935   3.275470   3.194302   4.514949
     8  H    2.037624   4.031383   1.125320   2.145729   2.121335
     9  H    2.729291   1.805859   2.224105   1.110050   3.425646
    10  H    3.380062   3.596639   2.139869   1.105209   2.870360
    11  H    3.039989   3.307788   2.178482   1.123668   2.534957
    12  H    2.984725   4.940969   2.187385   2.544444   1.129905
    13  H    2.381614   5.380981   2.154973   3.390602   1.109989
    14  H    3.254124   5.625693   2.177642   2.991220   1.126748
    15  H    1.986142   3.357409   3.348523   4.076036   4.246583
    16  H    3.370913   2.051045   4.296697   4.259623   5.473331
    17  H    3.518204   1.000891   3.570182   2.908515   4.986853
                    6          7          8          9         10
     6  C    0.000000
     7  C    1.301558   0.000000
     8  H    3.077429   3.815461   0.000000
     9  H    2.689186   2.432902   2.730316   0.000000
    10  H    3.980603   4.115506   2.276370   1.816959   0.000000
    11  H    3.498349   3.643593   3.043147   1.798010   1.806561
    12  H    4.021142   4.751141   3.035394   3.512564   3.012462
    13  H    3.670229   4.775507   2.707587   4.212485   3.918851
    14  H    4.554664   5.423812   2.298970   4.040894   2.980606
    15  H    1.101697   2.001655   3.848610   3.789369   5.033463
    16  H    2.005788   1.080011   4.820110   3.459112   5.183844
    17  H    2.822108   1.937007   3.767769   1.857655   3.394078
                   11         12         13         14         15
    11  H    0.000000
    12  H    2.103431   0.000000
    13  H    3.438476   1.801219   0.000000
    14  H    3.158824   1.808478   1.811946   0.000000
    15  H    4.484696   4.700846   4.026198   5.210101   0.000000
    16  H    4.626507   5.682684   5.611379   6.424364   2.171632
    17  H    3.623573   5.241273   5.588733   5.617095   3.727991
                   16         17
    16  H    0.000000
    17  H    2.623594   0.000000
 Stoichiometry    C5H10O2
 Framework group  C1[X(C5H10O2)]
 Deg. of freedom    45
 Full point group                 C1      NOp   1
 Largest Abelian subgroup         C1      NOp   1
 Largest concise Abelian subgroup C1      NOp   1
                         Standard orientation:                         
 ---------------------------------------------------------------------
 Center     Atomic      Atomic             Coordinates (Angstroms)
 Number     Number       Type             X           Y           Z
 ---------------------------------------------------------------------
      1          8           0        0.435537   -1.095281    0.189016
      2          8           0       -2.199686    0.934588   -0.095062
      3          6           0        1.211529    0.067651    0.387264
      4          6           0        0.621553    1.415755   -0.026930
      5          6           0        2.522475   -0.130406   -0.299951
      6          6           0       -0.921425   -1.179881   -0.024037
      7          6           0       -1.979897   -0.433580   -0.153358
      8          1           0        1.416729    0.125746    1.492191
      9          1           0       -0.483154    1.471813    0.066297
     10          1           0        1.097351    2.194162    0.596917
     11          1           0        0.875292    1.621572   -1.102051
     12          1           0        2.556822    0.375103   -1.309885
     13          1           0        2.721616   -1.209225   -0.468970
     14          1           0        3.375522    0.295165    0.300684
     15          1           0       -1.149743   -2.254401   -0.107785
     16          1           0       -2.884311   -0.977192   -0.383454
     17          1           0       -2.138350    1.205562    0.866496
 ---------------------------------------------------------------------
 Rotational constants (GHZ):           4.7750088           1.7374712           1.3460799
 Leave Link  202 at Wed Sep 25 12:53:42 2019, MaxMem=   671088640 cpu:               4.1 elap:               2.1
 (Enter /shared/centos7/gaussian/g16/l301.exe)
 Standard basis: CC-pVTZ (5D, 7F)
 Ernie: Thresh=  0.10000D-02 Tol=  0.10000D-05 Strict=F.
 Ernie:  21 primitive shells out of 262 were deleted.
 There are   395 symmetry adapted cartesian basis functions of A   symmetry.
 There are   350 symmetry adapted basis functions of A   symmetry.
   350 basis functions,   534 primitive gaussians,   395 cartesian basis functions
    28 alpha electrons       28 beta electrons
       nuclear repulsion energy       317.9181027528 Hartrees.
 IExCor= 4336 DFT=T Ex+Corr=M062X ExCW=0 ScaHFX=  0.540000
 ScaDFX=  1.000000  1.000000  1.000000  1.000000 ScalE2=  1.000000  1.000000
 IRadAn=      5 IRanWt=     -1 IRanGd=            0 ICorTp=0 IEmpDi=  4
 NAtoms=   17 NActive=   17 NUniq=   17 SFac= 1.00D+00 NAtFMM=   60 NAOKFM=F Big=F
 Integral buffers will be    131072 words long.
 Raffenetti 2 integral format.
 Two-electron integral symmetry is turned on.
 Leave Link  301 at Wed Sep 25 12:53:43 2019, MaxMem=   671088640 cpu:               2.0 elap:               1.0
 (Enter /shared/centos7/gaussian/g16/l302.exe)
 NPDir=0 NMtPBC=     1 NCelOv=     1 NCel=       1 NClECP=     1 NCelD=      1
         NCelK=      1 NCelE2=     1 NClLst=     1 CellRange=     0.0.
 One-electron integrals computed using PRISM.
 One-electron integral symmetry used in STVInt
 NBasis=   350 RedAO= T EigKep=  3.61D-04  NBF=   350
 NBsUse=   350 1.00D-06 EigRej= -1.00D+00 NBFU=   350
 Precomputing XC quadrature grid using
 IXCGrd= 4 IRadAn=           5 IRanWt=          -1 IRanGd=           0 AccXCQ= 0.00D+00.
 Generated NRdTot=       0 NPtTot=           0 NUsed=           0 NTot=          32
 NSgBfM=   395   395   395   395   395 MxSgAt=    17 MxSgA2=    17.
 Leave Link  302 at Wed Sep 25 12:54:55 2019, MaxMem=   671088640 cpu:             143.8 elap:              71.9
 (Enter /shared/centos7/gaussian/g16/l303.exe)
 DipDrv:  MaxL=1.
 Leave Link  303 at Wed Sep 25 12:54:59 2019, MaxMem=   671088640 cpu:               8.4 elap:               4.2
 (Enter /shared/centos7/gaussian/g16/l401.exe)
 ExpMin= 1.03D-01 ExpMax= 1.53D+04 ExpMxC= 5.22D+02 IAcc=3 IRadAn=         5 AccDes= 0.00D+00
 Harris functional with IExCor= 1009 and IRadAn=       5 diagonalized for initial guess.
 HarFok:  IExCor= 1009 AccDes= 0.00D+00 IRadAn=         5 IDoV= 1 UseB2=F ITyADJ=14
 ICtDFT=  3500011 ScaDFX=  1.000000  1.000000  1.000000  1.000000
 FoFCou: FMM=F IPFlag=           0 FMFlag=      100000 FMFlg1=           0
         NFxFlg=           0 DoJE=T BraDBF=F KetDBF=T FulRan=T
         wScrn=  0.000000 ICntrl=       500 IOpCl=  0 I1Cent=   200000004 NGrid=           0
         NMat0=    1 NMatS0=      1 NMatT0=    0 NMatD0=    1 NMtDS0=    0 NMtDT0=    0
 Petite list used in FoFCou.
 Harris En= -346.788710695953    
 JPrj=0 DoOrth=F DoCkMO=F.
 Leave Link  401 at Wed Sep 25 12:55:33 2019, MaxMem=   671088640 cpu:              68.2 elap:              34.1
 (Enter /shared/centos7/gaussian/g16/l502.exe)
 Integral symmetry usage will be decided dynamically.
 Closed shell SCF:
 Using DIIS extrapolation, IDIIS=  1040.
 NGot=   671088640 LenX=   670765141 LenY=   670608675
 Requested convergence on RMS density matrix=1.00D-08 within 900 cycles.
 Requested convergence on MAX density matrix=1.00D-06.
 Requested convergence on             energy=1.00D-06.
 No special actions if energy rises.
 Fock matrices will be formed incrementally for  20 cycles.
 Integral accuracy reduced to 1.0D-05 until final iterations.

 Cycle   1  Pass 0  IDiag  1:
 FoFJK:  IHMeth= 1 ICntrl=       0 DoSepK=F KAlg= 0 I1Cent=           0 FoldK=F
 IRaf= 960000000 NMat=       1 IRICut=       1 DoRegI=T DoRafI=F ISym2E= 0 IDoP0=0 IntGTp=1.
 FoFCou: FMM=F IPFlag=           0 FMFlag=      100000 FMFlg1=           0
         NFxFlg=           0 DoJE=F BraDBF=F KetDBF=F FulRan=T
         wScrn=  0.000000 ICntrl=         0 IOpCl=  0 I1Cent=           0 NGrid=           0
         NMat0=    1 NMatS0=      1 NMatT0=    0 NMatD0=    1 NMtDS0=    0 NMtDT0=    0
 Symmetry not used in FoFCou.
 E= -346.670730128526    
 DIIS: error= 2.27D-02 at cycle   1 NSaved=   1.
 NSaved= 1 IEnMin= 1 EnMin= -346.670730128526     IErMin= 1 ErrMin= 2.27D-02
 ErrMax= 2.27D-02  0.00D+00 EMaxC= 1.00D-01 BMatC= 2.86D-01 BMatP= 2.86D-01
 IDIUse=3 WtCom= 7.73D-01 WtEn= 2.27D-01
 Coeff-Com:  0.100D+01
 Coeff-En:   0.100D+01
 Coeff:      0.100D+01
 Gap=     0.359 Goal=   None    Shift=    0.000
 GapD=    0.359 DampG=1.000 DampE=0.500 DampFc=0.5000 IDamp=-1.
 Damping current iteration by 5.00D-01
 RMSDP=2.11D-03 MaxDP=1.28D-01              OVMax= 1.38D-01

 Cycle   2  Pass 0  IDiag  1:
 RMSU=  1.05D-03    CP:  1.00D+00
 E= -346.790520237788     Delta-E=       -0.119790109262 Rises=F Damp=T
 DIIS: error= 3.50D-03 at cycle   2 NSaved=   2.
 NSaved= 2 IEnMin= 2 EnMin= -346.790520237788     IErMin= 2 ErrMin= 3.50D-03
 ErrMax= 3.50D-03  0.00D+00 EMaxC= 1.00D-01 BMatC= 2.15D-02 BMatP= 2.86D-01
 IDIUse=3 WtCom= 9.65D-01 WtEn= 3.50D-02
 Coeff-Com: -0.142D+00 0.114D+01
 Coeff-En:   0.000D+00 0.100D+01
 Coeff:     -0.137D+00 0.114D+01
 Gap=     0.335 Goal=   None    Shift=    0.000
 RMSDP=4.26D-04 MaxDP=1.59D-02 DE=-1.20D-01 OVMax= 7.13D-02

 Cycle   3  Pass 0  IDiag  1:
 RMSU=  4.21D-04    CP:  1.01D+00  9.51D-01
 E= -346.897472416782     Delta-E=       -0.106952178993 Rises=F Damp=F
 DIIS: error= 2.66D-03 at cycle   3 NSaved=   3.
 NSaved= 3 IEnMin= 3 EnMin= -346.897472416782     IErMin= 3 ErrMin= 2.66D-03
 ErrMax= 2.66D-03  0.00D+00 EMaxC= 1.00D-01 BMatC= 3.41D-03 BMatP= 2.15D-02
 IDIUse=3 WtCom= 9.73D-01 WtEn= 2.66D-02
 Coeff-Com: -0.830D-01 0.309D+00 0.774D+00
 Coeff-En:   0.000D+00 0.000D+00 0.100D+01
 Coeff:     -0.808D-01 0.301D+00 0.780D+00
 Gap=     0.334 Goal=   None    Shift=    0.000
 RMSDP=1.61D-04 MaxDP=9.46D-03 DE=-1.07D-01 OVMax= 1.24D-02

 Cycle   4  Pass 0  IDiag  1:
 RMSU=  1.17D-04    CP:  1.01D+00  1.04D+00  8.62D-01
 E= -346.899456753314     Delta-E=       -0.001984336532 Rises=F Damp=F
 DIIS: error= 1.23D-03 at cycle   4 NSaved=   4.
 NSaved= 4 IEnMin= 4 EnMin= -346.899456753314     IErMin= 4 ErrMin= 1.23D-03
 ErrMax= 1.23D-03  0.00D+00 EMaxC= 1.00D-01 BMatC= 8.51D-04 BMatP= 3.41D-03
 IDIUse=3 WtCom= 9.88D-01 WtEn= 1.23D-02
 Coeff-Com: -0.268D-01 0.713D-01 0.377D+00 0.579D+00
 Coeff-En:   0.000D+00 0.000D+00 0.132D+00 0.868D+00
 Coeff:     -0.265D-01 0.704D-01 0.374D+00 0.582D+00
 Gap=     0.330 Goal=   None    Shift=    0.000
 RMSDP=6.91D-05 MaxDP=3.69D-03 DE=-1.98D-03 OVMax= 6.34D-03

 Cycle   5  Pass 0  IDiag  1:
 RMSU=  3.34D-05    CP:  1.01D+00  1.02D+00  9.27D-01  5.71D-01
 E= -346.900068717739     Delta-E=       -0.000611964425 Rises=F Damp=F
 DIIS: error= 2.44D-04 at cycle   5 NSaved=   5.
 NSaved= 5 IEnMin= 5 EnMin= -346.900068717739     IErMin= 5 ErrMin= 2.44D-04
 ErrMax= 2.44D-04  0.00D+00 EMaxC= 1.00D-01 BMatC= 3.80D-05 BMatP= 8.51D-04
 IDIUse=3 WtCom= 9.98D-01 WtEn= 2.44D-03
 Coeff-Com: -0.522D-02 0.982D-02 0.105D+00 0.247D+00 0.644D+00
 Coeff-En:   0.000D+00 0.000D+00 0.000D+00 0.000D+00 0.100D+01
 Coeff:     -0.520D-02 0.980D-02 0.104D+00 0.247D+00 0.645D+00
 Gap=     0.331 Goal=   None    Shift=    0.000
 RMSDP=1.41D-05 MaxDP=4.29D-04 DE=-6.12D-04 OVMax= 1.90D-03

 Cycle   6  Pass 0  IDiag  1:
 RMSU=  8.69D-06    CP:  1.01D+00  1.02D+00  9.30D-01  6.35D-01  7.65D-01
 E= -346.900098029731     Delta-E=       -0.000029311992 Rises=F Damp=F
 DIIS: error= 4.92D-05 at cycle   6 NSaved=   6.
 NSaved= 6 IEnMin= 6 EnMin= -346.900098029731     IErMin= 6 ErrMin= 4.92D-05
 ErrMax= 4.92D-05  0.00D+00 EMaxC= 1.00D-01 BMatC= 1.80D-06 BMatP= 3.80D-05
 IDIUse=1 WtCom= 1.00D+00 WtEn= 0.00D+00
 Coeff-Com: -0.182D-03-0.853D-03 0.156D-01 0.583D-01 0.224D+00 0.703D+00
 Coeff:     -0.182D-03-0.853D-03 0.156D-01 0.583D-01 0.224D+00 0.703D+00
 Gap=     0.331 Goal=   None    Shift=    0.000
 RMSDP=4.23D-06 MaxDP=1.50D-04 DE=-2.93D-05 OVMax= 5.18D-04

 Initial convergence to 1.0D-05 achieved.  Increase integral accuracy.
 Cycle   7  Pass 1  IDiag  1:
 E= -346.900088583910     Delta-E=        0.000009445821 Rises=F Damp=F
 DIIS: error= 3.39D-05 at cycle   1 NSaved=   1.
 NSaved= 1 IEnMin= 1 EnMin= -346.900088583910     IErMin= 1 ErrMin= 3.39D-05
 ErrMax= 3.39D-05  0.00D+00 EMaxC= 1.00D-01 BMatC= 8.22D-07 BMatP= 8.22D-07
 IDIUse=1 WtCom= 1.00D+00 WtEn= 0.00D+00
 Coeff-Com:  0.100D+01
 Coeff:      0.100D+01
 Gap=     0.331 Goal=   None    Shift=    0.000
 RMSDP=4.23D-06 MaxDP=1.50D-04 DE= 9.45D-06 OVMax= 5.03D-04

 Cycle   8  Pass 1  IDiag  1:
 RMSU=  6.71D-06    CP:  1.00D+00
 E= -346.900088595976     Delta-E=       -0.000000012066 Rises=F Damp=F
 DIIS: error= 2.40D-05 at cycle   2 NSaved=   2.
 NSaved= 2 IEnMin= 2 EnMin= -346.900088595976     IErMin= 2 ErrMin= 2.40D-05
 ErrMax= 2.40D-05  0.00D+00 EMaxC= 1.00D-01 BMatC= 6.52D-07 BMatP= 8.22D-07
 IDIUse=1 WtCom= 1.00D+00 WtEn= 0.00D+00
 Coeff-Com:  0.464D+00 0.536D+00
 Coeff:      0.464D+00 0.536D+00
 Gap=     0.331 Goal=   None    Shift=    0.000
 RMSDP=2.16D-06 MaxDP=8.93D-05 DE=-1.21D-08 OVMax= 3.42D-04

 Cycle   9  Pass 1  IDiag  1:
 RMSU=  2.02D-06    CP:  1.00D+00  8.88D-01
 E= -346.900089078877     Delta-E=       -0.000000482901 Rises=F Damp=F
 DIIS: error= 9.05D-06 at cycle   3 NSaved=   3.
 NSaved= 3 IEnMin= 3 EnMin= -346.900089078877     IErMin= 3 ErrMin= 9.05D-06
 ErrMax= 9.05D-06  0.00D+00 EMaxC= 1.00D-01 BMatC= 6.35D-08 BMatP= 6.52D-07
 IDIUse=1 WtCom= 1.00D+00 WtEn= 0.00D+00
 Coeff-Com:  0.141D-02 0.232D+00 0.767D+00
 Coeff:      0.141D-02 0.232D+00 0.767D+00
 Gap=     0.331 Goal=   None    Shift=    0.000
 RMSDP=5.50D-07 MaxDP=1.97D-05 DE=-4.83D-07 OVMax= 9.31D-05

 Cycle  10  Pass 1  IDiag  1:
 RMSU=  2.85D-07    CP:  1.00D+00  9.32D-01  8.19D-01
 E= -346.900089127571     Delta-E=       -0.000000048695 Rises=F Damp=F
 DIIS: error= 1.98D-06 at cycle   4 NSaved=   4.
 NSaved= 4 IEnMin= 4 EnMin= -346.900089127571     IErMin= 4 ErrMin= 1.98D-06
 ErrMax= 1.98D-06  0.00D+00 EMaxC= 1.00D-01 BMatC= 3.48D-09 BMatP= 6.35D-08
 IDIUse=1 WtCom= 1.00D+00 WtEn= 0.00D+00
 Coeff-Com: -0.136D-01 0.904D-01 0.360D+00 0.563D+00
 Coeff:     -0.136D-01 0.904D-01 0.360D+00 0.563D+00
 Gap=     0.331 Goal=   None    Shift=    0.000
 RMSDP=1.07D-07 MaxDP=5.89D-06 DE=-4.87D-08 OVMax= 9.15D-06

 Cycle  11  Pass 1  IDiag  1:
 RMSU=  1.01D-07    CP:  1.00D+00  9.33D-01  8.35D-01  9.40D-01
 E= -346.900089130273     Delta-E=       -0.000000002701 Rises=F Damp=F
 DIIS: error= 3.45D-07 at cycle   5 NSaved=   5.
 NSaved= 5 IEnMin= 5 EnMin= -346.900089130273     IErMin= 5 ErrMin= 3.45D-07
 ErrMax= 3.45D-07  0.00D+00 EMaxC= 1.00D-01 BMatC= 8.34D-11 BMatP= 3.48D-09
 IDIUse=1 WtCom= 1.00D+00 WtEn= 0.00D+00
 Coeff-Com: -0.216D-02-0.972D-02-0.963D-02 0.696D-01 0.952D+00
 Coeff:     -0.216D-02-0.972D-02-0.963D-02 0.696D-01 0.952D+00
 Gap=     0.331 Goal=   None    Shift=    0.000
 RMSDP=4.38D-08 MaxDP=1.50D-06 DE=-2.70D-09 OVMax= 3.08D-06

 Cycle  12  Pass 1  IDiag  1:
 RMSU=  2.48D-08    CP:  1.00D+00  9.33D-01  8.44D-01  1.04D+00  1.14D+00
 E= -346.900089130387     Delta-E=       -0.000000000114 Rises=F Damp=F
 DIIS: error= 1.75D-07 at cycle   6 NSaved=   6.
 NSaved= 6 IEnMin= 6 EnMin= -346.900089130387     IErMin= 6 ErrMin= 1.75D-07
 ErrMax= 1.75D-07  0.00D+00 EMaxC= 1.00D-01 BMatC= 1.76D-11 BMatP= 8.34D-11
 IDIUse=1 WtCom= 1.00D+00 WtEn= 0.00D+00
 Coeff-Com:  0.607D-03-0.134D-01-0.401D-01-0.345D-01 0.362D+00 0.725D+00
 Coeff:      0.607D-03-0.134D-01-0.401D-01-0.345D-01 0.362D+00 0.725D+00
 Gap=     0.331 Goal=   None    Shift=    0.000
 RMSDP=1.88D-08 MaxDP=8.86D-07 DE=-1.14D-10 OVMax= 1.48D-06

 Cycle  13  Pass 1  IDiag  1:
 RMSU=  1.22D-08    CP:  1.00D+00  9.32D-01  8.47D-01  1.07D+00  1.23D+00
                    CP:  8.84D-01
 E= -346.900089130408     Delta-E=       -0.000000000021 Rises=F Damp=F
 DIIS: error= 5.06D-08 at cycle   7 NSaved=   7.
 NSaved= 7 IEnMin= 7 EnMin= -346.900089130408     IErMin= 7 ErrMin= 5.06D-08
 ErrMax= 5.06D-08  0.00D+00 EMaxC= 1.00D-01 BMatC= 1.98D-12 BMatP= 1.76D-11
 IDIUse=1 WtCom= 1.00D+00 WtEn= 0.00D+00
 Coeff-Com:  0.422D-03-0.539D-02-0.172D-01-0.211D-01 0.887D-01 0.323D+00
 Coeff-Com:  0.631D+00
 Coeff:      0.422D-03-0.539D-02-0.172D-01-0.211D-01 0.887D-01 0.323D+00
 Coeff:      0.631D+00
 Gap=     0.331 Goal=   None    Shift=    0.000
 RMSDP=3.69D-09 MaxDP=2.27D-07 DE=-2.11D-11 OVMax= 4.13D-07

 SCF Done:  E(RM062X) =  -346.900089130     A.U. after   13 cycles
            NFock= 13  Conv=0.37D-08     -V/T= 2.0061
 KE= 3.447887292715D+02 PE=-1.445788769757D+03 EE= 4.361818486021D+02
 Leave Link  502 at Wed Sep 25 13:11:33 2019, MaxMem=   671088640 cpu:            1917.6 elap:             959.7
 (Enter /shared/centos7/gaussian/g16/l801.exe)
 DoSCS=F DFT=T ScalE2(SS,OS)=  1.000000  1.000000
 Range of M.O.s used for correlation:     1   350
 NBasis=   350 NAE=    28 NBE=    28 NFC=     0 NFV=     0
 NROrb=    350 NOA=    28 NOB=    28 NVA=   322 NVB=   322

 **** Warning!!: The largest alpha MO coefficient is  0.10934507D+02

 Leave Link  801 at Wed Sep 25 13:11:34 2019, MaxMem=   671088640 cpu:               2.2 elap:               1.1
 (Enter /shared/centos7/gaussian/g16/l1101.exe)
 Using compressed storage, NAtomX=    17.
 Will process     18 centers per pass.
 Leave Link 1101 at Wed Sep 25 13:12:03 2019, MaxMem=   671088640 cpu:              59.3 elap:              29.7
 (Enter /shared/centos7/gaussian/g16/l1102.exe)
 Symmetrizing basis deriv contribution to polar:
 IMax=3 JMax=2 DiffMx= 0.00D+00
 Leave Link 1102 at Wed Sep 25 13:12:06 2019, MaxMem=   671088640 cpu:               5.5 elap:               2.8
 (Enter /shared/centos7/gaussian/g16/l1110.exe)
 Forming Gx(P) for the SCF density, NAtomX=    17.
 Integral derivatives from FoFJK, PRISM(SPDF).
 Do as many integral derivatives as possible in FoFJK.
 G2DrvN: MDV=     671087280.
 G2DrvN: will do    18 centers at a time, making    1 passes.
 Calling FoFCou, ICntrl=  3107 FMM=F I1Cent=   0 AccDes= 0.00D+00.
 FoFJK:  IHMeth= 1 ICntrl=    3107 DoSepK=F KAlg= 0 I1Cent=           0 FoldK=F
 IRaf=         0 NMat=       1 IRICut=       1 DoRegI=T DoRafI=F ISym2E= 0 IDoP0=0 IntGTp=1.
 FoFCou: FMM=F IPFlag=           0 FMFlag=      100000 FMFlg1=           0
         NFxFlg=           0 DoJE=F BraDBF=F KetDBF=F FulRan=T
         wScrn=  0.000000 ICntrl=      3107 IOpCl=  0 I1Cent=           0 NGrid=           0
         NMat0=    1 NMatS0=      1 NMatT0=    0 NMatD0=    1 NMtDS0=    0 NMtDT0=    0
 Symmetry not used in FoFCou.
 End of G2Drv F.D. properties file   721 does not exist.
 End of G2Drv F.D. properties file   722 does not exist.
 End of G2Drv F.D. properties file   788 does not exist.
 Leave Link 1110 at Wed Sep 25 13:37:31 2019, MaxMem=   671088640 cpu:            3048.6 elap:            1524.5
 (Enter /shared/centos7/gaussian/g16/l1002.exe)
 Minotr:  Closed shell wavefunction.
          IDoAtm=11111111111111111
          Direct CPHF calculation.
          Differentiating once with respect to nuclear coordinates.
          Requested convergence is 1.0D-08 RMS, and 1.0D-07 maximum.
          Secondary convergence is 1.0D-12 RMS, and 1.0D-12 maximum.
          NewPWx=T KeepS1=F KeepF1=F KeepIn=T MapXYZ=F SortEE=F KeepMc=T.
         5095 words used for storage of precomputed grid.
 Two-electron integrals replicated using symmetry.
          MDV=     671088640 using IRadAn=       1.
          Solving linear equations simultaneously, MaxMat=     380.
 FoF2E skips out because all densities are zero.
 CalDSu exits because no D1Ps are significant.
 FoFJK:  IHMeth= 1 ICntrl=       0 DoSepK=F KAlg= 0 I1Cent=           0 FoldK=F
 IRaf= 950000000 NMat=      51 IRICut=     127 DoRegI=T DoRafI=T ISym2E= 2 IDoP0=3 IntGTp=3.
 FoFCou: FMM=F IPFlag=           0 FMFlag=      100000 FMFlg1=           0
         NFxFlg=           0 DoJE=F BraDBF=F KetDBF=F FulRan=T
         wScrn=  0.000000 ICntrl=         0 IOpCl=  0 I1Cent=           0 NGrid=           0
         NMat0=   51 NMatS0=     51 NMatT0=    0 NMatD0=   51 NMtDS0=    0 NMtDT0=    0
 Integrals replicated using symmetry in FoFCou.
 Raff kept on since  91.76% of shell-pairs survive, threshold=   0.20 IRatSp=92.
          There are    54 degrees of freedom in the 1st order CPHF.  IDoFFX=6 NUNeed=     0.
     48 vectors produced by pass  0 Test12= 1.67D-14 1.85D-09 XBig12= 7.64D-02 5.41D-02.
 AX will form    48 AO Fock derivatives at one time.
     48 vectors produced by pass  1 Test12= 1.67D-14 1.85D-09 XBig12= 8.55D-03 2.91D-02.
     48 vectors produced by pass  2 Test12= 1.67D-14 1.85D-09 XBig12= 2.32D-04 2.18D-03.
     48 vectors produced by pass  3 Test12= 1.67D-14 1.85D-09 XBig12= 2.72D-06 1.87D-04.
     48 vectors produced by pass  4 Test12= 1.67D-14 1.85D-09 XBig12= 1.64D-08 1.38D-05.
     48 vectors produced by pass  5 Test12= 1.67D-14 1.85D-09 XBig12= 7.25D-11 8.04D-07.
     25 vectors produced by pass  6 Test12= 1.67D-14 1.85D-09 XBig12= 3.29D-13 6.33D-08.
      6 vectors produced by pass  7 Test12= 1.67D-14 1.85D-09 XBig12= 1.29D-15 3.57D-09.
 InvSVY:  IOpt=1 It=  1 EMax= 3.61D-16
 Solved reduced A of dimension   319 with    54 vectors.
 End of Minotr F.D. properties file   721 does not exist.
 End of Minotr F.D. properties file   722 does not exist.
 End of Minotr F.D. properties file   788 does not exist.
 Leave Link 1002 at Wed Sep 25 14:19:55 2019, MaxMem=   671088640 cpu:            5088.6 elap:            2544.7
 (Enter /shared/centos7/gaussian/g16/l601.exe)
 Copying SCF densities to generalized density rwf, IOpCl= 0 IROHF=0.

 **********************************************************************

            Population analysis using the SCF density.

 **********************************************************************

 Orbital symmetries:
       Occupied  (A) (A) (A) (A) (A) (A) (A) (A) (A) (A) (A) (A)
                 (A) (A) (A) (A) (A) (A) (A) (A) (A) (A) (A) (A)
                 (A) (A) (A) (A)
       Virtual   (A) (A) (A) (A) (A) (A) (A) (A) (A) (A) (A) (A)
                 (A) (A) (A) (A) (A) (A) (A) (A) (A) (A) (A) (A)
                 (A) (A) (A) (A) (A) (A) (A) (A) (A) (A) (A) (A)
                 (A) (A) (A) (A) (A) (A) (A) (A) (A) (A) (A) (A)
                 (A) (A) (A) (A) (A) (A) (A) (A) (A) (A) (A) (A)
                 (A) (A) (A) (A) (A) (A) (A) (A) (A) (A) (A) (A)
                 (A) (A) (A) (A) (A) (A) (A) (A) (A) (A) (A) (A)
                 (A) (A) (A) (A) (A) (A) (A) (A) (A) (A) (A) (A)
                 (A) (A) (A) (A) (A) (A) (A) (A) (A) (A) (A) (A)
                 (A) (A) (A) (A) (A) (A) (A) (A) (A) (A) (A) (A)
                 (A) (A) (A) (A) (A) (A) (A) (A) (A) (A) (A) (A)
                 (A) (A) (A) (A) (A) (A) (A) (A) (A) (A) (A) (A)
                 (A) (A) (A) (A) (A) (A) (A) (A) (A) (A) (A) (A)
                 (A) (A) (A) (A) (A) (A) (A) (A) (A) (A) (A) (A)
                 (A) (A) (A) (A) (A) (A) (A) (A) (A) (A) (A) (A)
                 (A) (A) (A) (A) (A) (A) (A) (A) (A) (A) (A) (A)
                 (A) (A) (A) (A) (A) (A) (A) (A) (A) (A) (A) (A)
                 (A) (A) (A) (A) (A) (A) (A) (A) (A) (A) (A) (A)
                 (A) (A) (A) (A) (A) (A) (A) (A) (A) (A) (A) (A)
                 (A) (A) (A) (A) (A) (A) (A) (A) (A) (A) (A) (A)
                 (A) (A) (A) (A) (A) (A) (A) (A) (A) (A) (A) (A)
                 (A) (A) (A) (A) (A) (A) (A) (A) (A) (A) (A) (A)
                 (A) (A) (A) (A) (A) (A) (A) (A) (A) (A) (A) (A)
                 (A) (A) (A) (A) (A) (A) (A) (A) (A) (A) (A) (A)
                 (A) (A) (A) (A) (A) (A) (A) (A) (A) (A) (A) (A)
                 (A) (A) (A) (A) (A) (A) (A) (A) (A) (A) (A) (A)
                 (A) (A) (A) (A) (A) (A) (A) (A) (A) (A)
 The electronic state is 1-A.
 Alpha  occ. eigenvalues --  -19.65049 -19.64872 -10.59769 -10.59539 -10.58018
 Alpha  occ. eigenvalues --  -10.53097 -10.52326  -1.18260  -1.16483  -0.90114
 Alpha  occ. eigenvalues --   -0.84788  -0.77550  -0.72030  -0.64411  -0.59890
 Alpha  occ. eigenvalues --   -0.58324  -0.54624  -0.53293  -0.50133  -0.47084
 Alpha  occ. eigenvalues --   -0.46746  -0.44954  -0.43721  -0.42440  -0.38737
 Alpha  occ. eigenvalues --   -0.37910  -0.36360  -0.28672
 Alpha virt. eigenvalues --    0.04413   0.08005   0.08458   0.09513   0.10552
 Alpha virt. eigenvalues --    0.12295   0.13639   0.14530   0.15879   0.16824
 Alpha virt. eigenvalues --    0.17695   0.20376   0.21979   0.23465   0.26512
 Alpha virt. eigenvalues --    0.27327   0.28399   0.30313   0.32775   0.33348
 Alpha virt. eigenvalues --    0.35816   0.36602   0.36969   0.37910   0.39076
 Alpha virt. eigenvalues --    0.39866   0.40732   0.41515   0.44394   0.45850
 Alpha virt. eigenvalues --    0.47019   0.47491   0.48402   0.48717   0.50132
 Alpha virt. eigenvalues --    0.50356   0.51527   0.52872   0.53728   0.53996
 Alpha virt. eigenvalues --    0.55051   0.56747   0.58725   0.61082   0.62380
 Alpha virt. eigenvalues --    0.64051   0.68806   0.71281   0.71882   0.71947
 Alpha virt. eigenvalues --    0.73996   0.76189   0.79944   0.81230   0.81439
 Alpha virt. eigenvalues --    0.84084   0.86063   0.88204   0.90006   0.91951
 Alpha virt. eigenvalues --    0.92169   0.94562   0.97066   0.98019   0.99594
 Alpha virt. eigenvalues --    1.01719   1.04176   1.04423   1.06698   1.06952
 Alpha virt. eigenvalues --    1.08106   1.10364   1.11118   1.12169   1.13849
 Alpha virt. eigenvalues --    1.14114   1.14595   1.18787   1.19100   1.19794
 Alpha virt. eigenvalues --    1.22329   1.23511   1.26611   1.27490   1.28045
 Alpha virt. eigenvalues --    1.29479   1.31231   1.31810   1.33191   1.33509
 Alpha virt. eigenvalues --    1.34440   1.37242   1.38076   1.39678   1.42877
 Alpha virt. eigenvalues --    1.43464   1.45081   1.46632   1.47456   1.49687
 Alpha virt. eigenvalues --    1.51450   1.52493   1.53987   1.56446   1.60010
 Alpha virt. eigenvalues --    1.61624   1.67923   1.69113   1.76471   1.82890
 Alpha virt. eigenvalues --    1.91400   1.96546   1.99477   2.01402   2.09404
 Alpha virt. eigenvalues --    2.12363   2.15755   2.16574   2.18982   2.21090
 Alpha virt. eigenvalues --    2.25079   2.26349   2.28924   2.31824   2.32165
 Alpha virt. eigenvalues --    2.35173   2.38016   2.41666   2.43973   2.46265
 Alpha virt. eigenvalues --    2.48418   2.51985   2.53697   2.56526   2.57342
 Alpha virt. eigenvalues --    2.59045   2.60259   2.63032   2.63531   2.65144
 Alpha virt. eigenvalues --    2.69150   2.70929   2.73246   2.76917   2.77409
 Alpha virt. eigenvalues --    2.80372   2.81440   2.82992   2.84746   2.86548
 Alpha virt. eigenvalues --    2.89199   2.89660   2.90436   2.92128   2.93031
 Alpha virt. eigenvalues --    2.95135   2.96498   2.96874   2.99728   3.01823
 Alpha virt. eigenvalues --    3.02275   3.03308   3.04547   3.06109   3.08587
 Alpha virt. eigenvalues --    3.09147   3.10102   3.12401   3.12508   3.14065
 Alpha virt. eigenvalues --    3.14298   3.17355   3.18227   3.19804   3.22470
 Alpha virt. eigenvalues --    3.23208   3.25716   3.27500   3.28633   3.31547
 Alpha virt. eigenvalues --    3.32206   3.33471   3.34150   3.35401   3.37058
 Alpha virt. eigenvalues --    3.38553   3.39551   3.40344   3.42877   3.43111
 Alpha virt. eigenvalues --    3.45659   3.47256   3.49498   3.49975   3.53609
 Alpha virt. eigenvalues --    3.54071   3.58112   3.58738   3.61018   3.62220
 Alpha virt. eigenvalues --    3.63590   3.65087   3.69439   3.70889   3.72452
 Alpha virt. eigenvalues --    3.74313   3.75067   3.76211   3.77548   3.78975
 Alpha virt. eigenvalues --    3.80454   3.80881   3.82949   3.85677   3.87312
 Alpha virt. eigenvalues --    3.88295   3.89864   3.91187   3.93133   3.94998
 Alpha virt. eigenvalues --    3.96790   3.98658   3.99391   3.99620   4.02866
 Alpha virt. eigenvalues --    4.03581   4.04086   4.05844   4.07681   4.09051
 Alpha virt. eigenvalues --    4.09403   4.12785   4.14694   4.15281   4.19361
 Alpha virt. eigenvalues --    4.20151   4.22865   4.24051   4.25380   4.27285
 Alpha virt. eigenvalues --    4.30545   4.32174   4.33176   4.38080   4.40815
 Alpha virt. eigenvalues --    4.43281   4.47692   4.53152   4.54037   4.55255
 Alpha virt. eigenvalues --    4.57901   4.61857   4.64851   4.66191   4.68582
 Alpha virt. eigenvalues --    4.72056   4.72848   4.75213   4.78119   4.78775
 Alpha virt. eigenvalues --    4.82850   4.84404   4.88564   4.89867   4.90451
 Alpha virt. eigenvalues --    4.92634   4.97972   5.00079   5.04213   5.06201
 Alpha virt. eigenvalues --    5.08508   5.10934   5.13168   5.13850   5.16122
 Alpha virt. eigenvalues --    5.18464   5.21227   5.24084   5.25680   5.26925
 Alpha virt. eigenvalues --    5.28934   5.31644   5.36810   5.41931   5.43899
 Alpha virt. eigenvalues --    5.49875   5.55442   5.60607   5.63778   5.66058
 Alpha virt. eigenvalues --    5.76115   5.79004   5.80532   5.83000   5.84466
 Alpha virt. eigenvalues --    5.91182   6.07804   6.16440   6.22804   6.35881
 Alpha virt. eigenvalues --    6.41396   6.50701   6.53433   6.62231   6.64535
 Alpha virt. eigenvalues --    6.72499   6.84132   6.94922   6.97960   7.01323
 Alpha virt. eigenvalues --    7.06200   7.10413   7.27688   7.41179   7.42499
 Alpha virt. eigenvalues --    9.80532  10.79960  11.59357  12.49716  13.16653
 Alpha virt. eigenvalues --   13.45846  14.20853
          Condensed to atoms (all electrons):
               1          2          3          4          5          6
     1  O    7.797932   0.002415   0.283909  -0.044472  -0.051599   0.377025
     2  O    0.002415   7.819940   0.003878  -0.058223  -0.000119  -0.068079
     3  C    0.283909   0.003878   4.865562   0.295856   0.331125  -0.051039
     4  C   -0.044472  -0.058223   0.295856   5.199846  -0.064343   0.002456
     5  C   -0.051599  -0.000119   0.331125  -0.064343   5.004529   0.002034
     6  C    0.377025  -0.068079  -0.051039   0.002456   0.002034   5.032486
     7  C   -0.057225   0.305674  -0.006758   0.005378  -0.000977   0.407270
     8  H   -0.046664  -0.000323   0.412563  -0.071122  -0.059316   0.004293
     9  H    0.000949   0.042158  -0.029875   0.373163   0.005330  -0.005597
    10  H    0.003592   0.001207  -0.028766   0.378158  -0.001184   0.000312
    11  H    0.002532   0.001391  -0.037628   0.392637  -0.016432  -0.000014
    12  H    0.001709  -0.000012  -0.042548  -0.016795   0.406106   0.000147
    13  H    0.003428  -0.000004  -0.040825   0.010142   0.390536   0.000415
    14  H    0.004583   0.000003  -0.035833   0.001907   0.385249  -0.000059
    15  H   -0.042125   0.004506   0.005602  -0.000522  -0.000100   0.415679
    16  H    0.003619  -0.043315   0.000158  -0.001453   0.000028  -0.097237
    17  H    0.000428   0.320644  -0.000366   0.007947   0.000151  -0.011204
               7          8          9         10         11         12
     1  O   -0.057225  -0.046664   0.000949   0.003592   0.002532   0.001709
     2  O    0.305674  -0.000323   0.042158   0.001207   0.001391  -0.000012
     3  C   -0.006758   0.412563  -0.029875  -0.028766  -0.037628  -0.042548
     4  C    0.005378  -0.071122   0.373163   0.378158   0.392637  -0.016795
     5  C   -0.000977  -0.059316   0.005330  -0.001184  -0.016432   0.406106
     6  C    0.407270   0.004293  -0.005597   0.000312  -0.000014   0.000147
     7  C    5.161704   0.001700  -0.011462  -0.000686  -0.000022  -0.000091
     8  H    0.001700   0.653480   0.000323  -0.009534   0.009001   0.008167
     9  H   -0.011462   0.000323   0.541945  -0.017701  -0.028241   0.000512
    10  H   -0.000686  -0.009534  -0.017701   0.588364  -0.030588  -0.000315
    11  H   -0.000022   0.009001  -0.028241  -0.030588   0.585451   0.005292
    12  H   -0.000091   0.008167   0.000512  -0.000315   0.005292   0.606480
    13  H    0.000495  -0.000203  -0.000451  -0.000451   0.000545  -0.031320
    14  H    0.000005  -0.006528  -0.000127   0.000322   0.000370  -0.037354
    15  H   -0.079606  -0.000220  -0.000268   0.000056   0.000018   0.000017
    16  H    0.441775   0.000012   0.003300   0.000015   0.000029  -0.000002
    17  H   -0.041084  -0.000759  -0.016980  -0.000480   0.000018   0.000001
              13         14         15         16         17
     1  O    0.003428   0.004583  -0.042125   0.003619   0.000428
     2  O   -0.000004   0.000003   0.004506  -0.043315   0.320644
     3  C   -0.040825  -0.035833   0.005602   0.000158  -0.000366
     4  C    0.010142   0.001907  -0.000522  -0.001453   0.007947
     5  C    0.390536   0.385249  -0.000100   0.000028   0.000151
     6  C    0.000415  -0.000059   0.415679  -0.097237  -0.011204
     7  C    0.000495   0.000005  -0.079606   0.441775  -0.041084
     8  H   -0.000203  -0.006528  -0.000220   0.000012  -0.000759
     9  H   -0.000451  -0.000127  -0.000268   0.003300  -0.016980
    10  H   -0.000451   0.000322   0.000056   0.000015  -0.000480
    11  H    0.000545   0.000370   0.000018   0.000029   0.000018
    12  H   -0.031320  -0.037354   0.000017  -0.000002   0.000001
    13  H    0.568590  -0.023884  -0.000368  -0.000007  -0.000001
    14  H   -0.023884   0.605293   0.000032  -0.000001  -0.000016
    15  H   -0.000368   0.000032   0.563585  -0.009157  -0.000366
    16  H   -0.000007  -0.000001  -0.009157   0.546782   0.001229
    17  H   -0.000001  -0.000016  -0.000366   0.001229   0.475826
 Mulliken charges:
               1
     1  O   -0.240037
     2  O   -0.331741
     3  C    0.074986
     4  C   -0.410561
     5  C   -0.331019
     6  C   -0.008888
     7  C   -0.126092
     8  H    0.105131
     9  H    0.143021
    10  H    0.117682
    11  H    0.115640
    12  H    0.100008
    13  H    0.123361
    14  H    0.106037
    15  H    0.143238
    16  H    0.154223
    17  H    0.265012
 Sum of Mulliken charges =  -0.00000
 Mulliken charges with hydrogens summed into heavy atoms:
               1
     1  O   -0.240037
     2  O   -0.066729
     3  C    0.180117
     4  C   -0.034218
     5  C   -0.001613
     6  C    0.134349
     7  C    0.028131
 APT charges:
               1
     1  O   -0.197076
     2  O   -0.461349
     3  C   -0.178008
     4  C   -0.932940
     5  C   -1.241085
     6  C   -0.456185
     7  C   -0.541561
     8  H    0.363719
     9  H    0.211707
    10  H    0.418228
    11  H    0.322220
    12  H    0.326619
    13  H    0.360305
    14  H    0.481457
    15  H    0.495215
    16  H    0.568466
    17  H    0.460268
 Sum of APT charges =  -0.00000
 APT charges with hydrogens summed into heavy atoms:
               1
     1  O   -0.197076
     2  O   -0.001081
     3  C    0.185712
     4  C    0.019215
     5  C   -0.072704
     6  C    0.039030
     7  C    0.026905
 Electronic spatial extent (au):  <R**2>=            909.9327
 Charge=             -0.0000 electrons
 Dipole moment (field-independent basis, Debye):
    X=              0.1525    Y=              0.4010    Z=              1.3847  Tot=              1.4497
 Quadrupole moment (field-independent basis, Debye-Ang):
   XX=            -43.0336   YY=            -44.0060   ZZ=            -43.5566
   XY=              2.6669   XZ=             -2.4297   YZ=              2.8936
 Traceless Quadrupole moment (field-independent basis, Debye-Ang):
   XX=              0.4985   YY=             -0.4739   ZZ=             -0.0246
   XY=              2.6669   XZ=             -2.4297   YZ=              2.8936
 Octapole moment (field-independent basis, Debye-Ang**2):
  XXX=             -5.2726  YYY=             -3.9483  ZZZ=              3.1064  XYY=             -6.2641
  XXY=             -4.3985  XXZ=              6.8470  XZZ=             -2.9371  YZZ=              3.9768
  YYZ=              2.4338  XYZ=             -4.9476
 Hexadecapole moment (field-independent basis, Debye-Ang**3):
 XXXX=           -812.7999 YYYY=           -299.2329 ZZZZ=            -83.6547 XXXY=              4.3508
 XXXZ=             -3.6658 YYYX=             -5.9939 YYYZ=              7.8653 ZZZX=             -3.6212
 ZZZY=              0.1888 XXYY=           -183.2432 XXZZ=           -144.7228 YYZZ=            -65.2611
 XXYZ=             15.0668 YYXZ=             -4.7213 ZZXY=             -7.7151
 N-N= 3.179181027528D+02 E-N=-1.445788760320D+03  KE= 3.447887292715D+02
  Exact polarizability:   0.000   0.000   0.000   0.000   0.000   0.000
 Approx polarizability:  89.726  -5.551  81.300   3.681   1.196  70.974
 No NMR shielding tensors so no spin-rotation constants.
 Leave Link  601 at Wed Sep 25 14:20:24 2019, MaxMem=   671088640 cpu:              57.7 elap:              28.9
 (Enter /shared/centos7/gaussian/g16/l701.exe)
 SCFChk:  SCF convergence  3.69D-09 required  1.00D-08
 ... and contract with generalized density number  0.
 Compute integral second derivatives.
 Entering OneElI...
 Calculate overlap and kinetic energy integrals
    NBasis = 395  MinDer = 2  MaxDer = 2
 Requested accuracy = 0.1000D-12
 PrmmSu-InSpLW:  IPartL=    0 NPrtUS=   20 NPrtUL=    1 DoSpLW=F IThBeg=    0 IThEnd=   19 NThAct=   20.
 PrsmSu:  NPrtUS=  20 ThrOK=T IAlg=1 NPAlg=1 LenDen=           0 ISkipM=0 DoSpLW=F IThBeg=    0 IThEnd=   19.
 Prism:   IPart=     0 DynPar=F LinDyn=F Incr=           4.
 PRISM was handed    33311963 working-precision words and  8455 shell-pairs
 PRISM was handed    33311963 working-precision words and  8455 shell-pairs
 PRISM was handed    33311963 working-precision words and  8455 shell-pairs
 PRISM was handed    33311963 working-precision words and  8455 shell-pairs
 PRISM was handed    33311963 working-precision words and  8455 shell-pairs
 PRISM was handed    33311963 working-precision words and  8455 shell-pairs
 PRISM was handed    33311963 working-precision words and  8455 shell-pairs
 PRISM was handed    33311963 working-precision words and  8455 shell-pairs
 PRISM was handed    33311963 working-precision words and  8455 shell-pairs
 PRISM was handed    33311963 working-precision words and  8455 shell-pairs
 PRISM was handed    33311963 working-precision words and  8455 shell-pairs
 PRISM was handed    33311963 working-precision words and  8455 shell-pairs
 PRISM was handed    33311963 working-precision words and  8455 shell-pairs
 PRISM was handed    33311963 working-precision words and  8455 shell-pairs
 PRISM was handed    33311963 working-precision words and  8455 shell-pairs
 PRISM was handed    33311963 working-precision words and  8455 shell-pairs
 IPart=  6 NShTot=         435 NBatch=          60 AvBLen=         7.3
 PRISM was handed    33311963 working-precision words and  8455 shell-pairs
 PRISM was handed    33311963 working-precision words and  8455 shell-pairs
 PRISM was handed    33311963 working-precision words and  8455 shell-pairs
 PRISM was handed    33311963 working-precision words and  8455 shell-pairs
 IPart=  0 NShTot=         468 NBatch=          84 AvBLen=         5.6
 IPart=  2 NShTot=         451 NBatch=          73 AvBLen=         6.2
 IPart=  9 NShTot=         419 NBatch=          50 AvBLen=         8.4
 IPart= 11 NShTot=         413 NBatch=          46 AvBLen=         9.0
 IPart= 14 NShTot=         407 NBatch=          42 AvBLen=         9.7
 IPart= 15 NShTot=         402 NBatch=          41 AvBLen=         9.8
 IPart=  8 NShTot=         421 NBatch=          52 AvBLen=         8.1
 IPart= 13 NShTot=         409 NBatch=          43 AvBLen=         9.5
 IPart= 16 NShTot=         400 NBatch=          40 AvBLen=        10.0
 IPart= 10 NShTot=         416 NBatch=          48 AvBLen=         8.7
 IPart= 18 NShTot=         396 NBatch=          39 AvBLen=        10.2
 IPart= 19 NShTot=         394 NBatch=          37 AvBLen=        10.6
 IPart= 17 NShTot=         398 NBatch=          40 AvBLen=         9.9
 IPart=  1 NShTot=         465 NBatch=          81 AvBLen=         5.7
 IPart=  3 NShTot=         445 NBatch=          68 AvBLen=         6.5
 IPart=  7 NShTot=         427 NBatch=          52 AvBLen=         8.2
 IPart=  4 NShTot=         440 NBatch=          64 AvBLen=         6.9
 IPart= 12 NShTot=         411 NBatch=          44 AvBLen=         9.3
 IPart=  5 NShTot=         438 NBatch=          62 AvBLen=         7.1
 PrSmSu:  NxtVal=             81.
 Entering OneElI...
 Calculate potential energy integrals
    NBasis = 395  MinDer = 2  MaxDer = 2
 Requested accuracy = 0.1000D-12
 PrmmSu-InSpLW:  IPartL=    0 NPrtUS=   20 NPrtUL=    1 DoSpLW=F IThBeg=    0 IThEnd=   19 NThAct=   20.
 PrsmSu:  NPrtUS=  20 ThrOK=T IAlg=1 NPAlg=1 LenDen=           0 ISkipM=0 DoSpLW=F IThBeg=    0 IThEnd=   19.
 Prism:   IPart=     0 DynPar=F LinDyn=F Incr=          65.
 PRISM was handed    33355188 working-precision words and  7744 shell-pairs
 PRISM was handed    33355188 working-precision words and  7744 shell-pairs
 PRISM was handed    33355188 working-precision words and  7744 shell-pairs
 PRISM was handed    33355188 working-precision words and  7744 shell-pairs
 PRISM was handed    33355188 working-precision words and  7744 shell-pairs
 PRISM was handed    33355188 working-precision words and  7744 shell-pairs
 PRISM was handed    33355188 working-precision words and  7744 shell-pairs
 PRISM was handed    33355188 working-precision words and  7744 shell-pairs
 PRISM was handed    33355188 working-precision words and  7744 shell-pairs
 PRISM was handed    33355188 working-precision words and  7744 shell-pairs
 PRISM was handed    33355188 working-precision words and  7744 shell-pairs
 PRISM was handed    33355188 working-precision words and  7744 shell-pairs
 PRISM was handed    33355188 working-precision words and  7744 shell-pairs
 PRISM was handed    33355188 working-precision words and  7744 shell-pairs
 PRISM was handed    33355188 working-precision words and  7744 shell-pairs
 PRISM was handed    33355188 working-precision words and  7744 shell-pairs
 PRISM was handed    33355188 working-precision words and  7744 shell-pairs
 PRISM was handed    33355188 working-precision words and  7744 shell-pairs
 PRISM was handed    33355188 working-precision words and  7744 shell-pairs
 PRISM was handed    33355188 working-precision words and  7744 shell-pairs
 IPart= 16 NShTot=        6273 NBatch=         369 AvBLen=        17.0
 IPart= 12 NShTot=        6426 NBatch=         378 AvBLen=        17.0
 IPart=  0 NShTot=        7276 NBatch=         428 AvBLen=        17.0
 IPart= 18 NShTot=        6205 NBatch=         365 AvBLen=        17.0
 IPart=  9 NShTot=        6494 NBatch=         382 AvBLen=        17.0
 IPart=  2 NShTot=        7004 NBatch=         412 AvBLen=        17.0
 IPart=  5 NShTot=        6783 NBatch=         399 AvBLen=        17.0
 IPart=  7 NShTot=        6579 NBatch=         387 AvBLen=        17.0
 IPart=  8 NShTot=        6562 NBatch=         386 AvBLen=        17.0
 IPart= 14 NShTot=        6375 NBatch=         375 AvBLen=        17.0
 IPart=  4 NShTot=        6834 NBatch=         402 AvBLen=        17.0
 IPart= 19 NShTot=        6154 NBatch=         362 AvBLen=        17.0
 IPart= 10 NShTot=        6477 NBatch=         381 AvBLen=        17.0
 IPart= 17 NShTot=        6239 NBatch=         367 AvBLen=        17.0
 IPart= 13 NShTot=        6375 NBatch=         375 AvBLen=        17.0
 IPart= 15 NShTot=        6358 NBatch=         374 AvBLen=        17.0
 IPart= 11 NShTot=        6443 NBatch=         379 AvBLen=        17.0
 IPart=  1 NShTot=        7106 NBatch=         418 AvBLen=        17.0
 IPart=  6 NShTot=        6766 NBatch=         398 AvBLen=        17.0
 IPart=  3 NShTot=        6919 NBatch=         407 AvBLen=        17.0
 PrSmSu:  NxtVal=           1301.
 Polarizability after L701:
                1             2             3 
      1  0.000000D+00
      2  0.000000D+00  0.000000D+00
      3  0.000000D+00  0.000000D+00  0.000000D+00
 Dipole Derivatives after L701:
                 1             2             3             4             5 
      1  -0.189412D+00  0.317808D-01  0.591988D-01 -0.918430D-01  0.193262D+00
      2  -0.270484D+00 -0.162998D+00 -0.607292D-01  0.175458D-01 -0.437058D+00
      3   0.424681D-01  0.116118D-01 -0.238818D+00  0.122759D-01 -0.257054D+00
                 6             7             8             9            10 
      1   0.104303D+01  0.222902D-01 -0.160068D+00 -0.771078D+00 -0.552078D+00
      2  -0.612793D+00 -0.201752D+00  0.271066D-01 -0.584061D-01  0.108379D+00
      3  -0.855147D+00 -0.141608D+00  0.274277D-01 -0.583420D+00  0.801573D-01
                11            12            13            14            15 
      1  -0.473036D+00  0.180096D+00 -0.197923D+01  0.226658D+00  0.571117D+00
      2  -0.133492D+01  0.111401D+00 -0.336785D-01 -0.835486D+00  0.524730D-02
      3  -0.154605D+00 -0.911817D+00 -0.548443D-02  0.861142D-02 -0.908535D+00
                16            17            18            19            20 
      1  -0.553642D+00 -0.945442D-01 -0.177262D+00 -0.103385D+01 -0.738431D+00
      2   0.228060D-01 -0.875883D+00 -0.762140D-01 -0.108377D+00 -0.565954D+00
      3  -0.102502D+00 -0.419960D-02  0.609699D-01 -0.170844D+00 -0.869641D-02
                21            22            23            24            25 
      1  -0.156593D+00  0.285842D+00  0.821388D-01  0.465562D+00  0.365848D+00
      2  -0.268514D-02  0.335139D-01  0.176872D+00  0.175132D-01 -0.586762D+00
      3  -0.248832D-01  0.127516D+00  0.350709D-01  0.628445D+00 -0.992444D-01
                26            27            28            29            30 
      1   0.271352D-01 -0.840871D-01  0.262081D+00  0.323738D+00  0.268238D+00
      2   0.142076D+00  0.492953D-01  0.314186D+00  0.717335D+00  0.479391D+00
      3   0.139354D-01  0.127195D+00  0.120563D+00  0.184134D+00  0.275269D+00
                31            32            33            34            35 
      1   0.192342D+00  0.462708D-01 -0.319895D+00  0.228123D+00  0.426528D+00
      2   0.150998D+00  0.214461D+00 -0.564072D+00 -0.786737D-02  0.173680D+00
      3  -0.129596D+00 -0.796498D-01  0.559857D+00 -0.372835D-01 -0.265868D+00
                36            37            38            39            40 
      1  -0.786321D+00  0.313455D+00 -0.972533D+00 -0.243591D+00  0.109662D+01
      2  -0.152940D+00 -0.108955D+00  0.624344D+00  0.108610D+00  0.120134D+00
      3   0.578055D+00 -0.357489D-01  0.166678D+00  0.143115D+00  0.123865D+00
                41            42            43            44            45 
      1   0.463727D+00  0.639292D+00  0.328032D+00  0.414864D+00  0.422493D-01
      2   0.138036D+00  0.802484D-01  0.198739D+00  0.106371D+01  0.501908D-01
      3   0.658533D-01  0.209720D+00  0.295781D-01  0.499613D-01  0.939061D-01
                46            47            48            49            50 
      1   0.116833D+01  0.611193D+00  0.275044D+00  0.137102D+00 -0.408683D+00
      2   0.287597D+00  0.410090D+00  0.987206D-01  0.639780D-01  0.524597D+00
      3   0.140057D+00  0.953624D-01  0.126983D+00  0.458301D-01  0.111426D+00
                51 
      1  -0.100500D+01
      2   0.527222D+00
      3   0.719105D+00
 Hessian after L701:
                1             2             3             4             5 
      1  0.431546D+01
      2 -0.439903D+01  0.123151D+02
      3 -0.166422D+01 -0.313021D+00  0.186788D+02
      4  0.303043D+00 -0.432750D+00  0.802157D-01  0.134166D+02
      5 -0.416101D+00  0.699976D-01 -0.584441D-01  0.222633D+01  0.648544D+01
      6  0.109165D+00 -0.808764D-01 -0.297218D+00 -0.376929D+00 -0.217907D+01
      7 -0.517720D+01  0.446300D+01  0.575553D+00  0.324531D+00 -0.151442D+00
      8  0.428688D+01 -0.327961D+01  0.845105D+00 -0.133212D+00 -0.157818D+00
      9  0.599462D+00  0.802813D+00 -0.861110D+01  0.437171D-01 -0.179525D-01
     10 -0.145706D+00 -0.277654D-01 -0.314023D-01  0.171305D+00  0.142120D+00
     11 -0.100728D+00  0.525725D+00 -0.280551D+00 -0.310240D-01 -0.477393D-01
     12 -0.174684D-01 -0.209705D+00 -0.140599D+00 -0.978980D-01 -0.215522D-01
     13  0.272843D+00  0.919536D-02 -0.322510D+00  0.956758D-01 -0.378958D-01
     14  0.112910D+00 -0.178732D+00 -0.161383D+00 -0.328321D-01 -0.588607D-01
     15 -0.279082D+00 -0.108738D+00 -0.168572D+00  0.787362D-02 -0.231154D-02
     16  0.395157D+00  0.101333D+01  0.164277D+01  0.534253D+00 -0.414298D+00
     17  0.121438D+01 -0.976122D+01  0.177094D+00 -0.327707D+00 -0.229125D+00
     18  0.158149D+01  0.162033D+00 -0.100301D+02  0.826850D-04 -0.118933D+00
     19  0.141792D+00 -0.316341D+00 -0.759302D-01 -0.866188D+01 -0.138411D+01
     20 -0.399793D+00  0.794528D-01 -0.635709D-01 -0.150523D+01 -0.788329D-01
     21 -0.510981D-01 -0.604726D-01  0.225127D+00 -0.221668D+00  0.772078D+00
     22 -0.652124D-01 -0.299548D+00 -0.698660D-01  0.226039D-01 -0.761379D-02
     23 -0.289285D+00 -0.172866D+00 -0.956520D-01 -0.386401D-02 -0.108774D-01
     24 -0.983874D-01 -0.110347D+00  0.430670D+00  0.382663D-01 -0.853996D-02
     25 -0.176875D-01 -0.967461D-01  0.194849D-03 -0.238747D+00 -0.190595D-01
     26 -0.264882D-01  0.639966D-01  0.924904D-02  0.304378D-01 -0.357999D+00
     27 -0.350341D-02  0.431689D-02 -0.510756D-01  0.184496D+00  0.396055D-01
     28 -0.349352D-01  0.476434D-01  0.996508D-02  0.594816D-01  0.371564D-01
     29  0.423723D-01  0.137690D+00  0.348563D-01  0.511916D-01 -0.552081D-02
     30  0.106720D-01  0.512060D-01 -0.333234D-01  0.341153D-01  0.145398D-01
     31 -0.448661D-01  0.370059D-01 -0.178671D-01  0.774717D-01  0.245992D-01
     32  0.173545D-01  0.905879D-01 -0.571547D-01  0.347530D-01 -0.304225D-01
     33 -0.104015D-01 -0.917576D-01 -0.436312D-02 -0.709635D-01 -0.166311D-01
     34  0.254121D-01  0.523130D-01 -0.524121D-01  0.183161D-01 -0.341950D-02
     35  0.579245D-01  0.107173D-02 -0.493307D-01  0.629551D-02 -0.990966D-02
     36 -0.668696D-01 -0.553779D-01  0.123321D-01 -0.224074D-01  0.149194D-02
     37  0.274816D-01  0.657752D-01 -0.644507D-01  0.133643D-01 -0.994259D-02
     38 -0.199456D-01 -0.748184D-01  0.111382D-01 -0.204496D-01  0.273241D-02
     39 -0.671127D-01 -0.187551D-01 -0.491396D-01 -0.463007D-02  0.193118D-02
     40  0.128940D+00  0.102218D+00  0.350577D-01  0.230921D-01 -0.166559D-02
     41  0.870501D-01 -0.516100D-02  0.164758D-01  0.217223D-02 -0.608968D-02
     42  0.414052D-01  0.213371D-01 -0.444729D-01  0.771412D-02 -0.511577D-03
     43 -0.292874D+00 -0.186908D+00 -0.809118D-01 -0.366371D-01 -0.343576D-01
     44 -0.153015D+00  0.206586D+00 -0.188514D-01 -0.673470D-01  0.177437D+00
     45 -0.807152D-01 -0.276678D-01  0.127708D+00 -0.217352D-02  0.217161D-02
     46  0.162222D+00  0.207118D-02  0.337326D-01  0.281934D+00  0.501593D-01
     47  0.363877D-01 -0.431233D-01  0.620956D-02  0.608924D-01 -0.297773D+00
     48  0.412655D-01  0.436802D-03 -0.271857D-01  0.218334D-01 -0.755885D-01
     49  0.612072D-02 -0.334564D-01  0.208466D-02 -0.640444D+01 -0.453697D-03
     50 -0.508725D-01  0.252934D-01 -0.216859D-02  0.142350D+00 -0.544463D+01
     51 -0.446046D-01  0.345744D-01 -0.175454D-01  0.378354D+00  0.166771D+01
                6             7             8             9            10 
      6  0.104317D+02
      7  0.108547D+00  0.169894D+02
      8 -0.296042D-01 -0.294888D+01  0.164172D+02
      9 -0.199631D+00 -0.930254D-01 -0.358905D+00  0.218350D+02
     10 -0.482746D-01 -0.570069D+01 -0.138235D+01  0.315161D+00  0.141697D+02
     11 -0.380412D-01 -0.143499D+01 -0.210154D+01 -0.100157D+01  0.464836D+00
     12 -0.117316D+00  0.321859D+00 -0.987587D+00 -0.579319D+01  0.212143D-01
     13 -0.107105D-02 -0.259422D+01 -0.299082D+00 -0.175899D+01  0.186547D+00
     14  0.215308D-03 -0.326491D+00 -0.643270D+01  0.147223D+00 -0.166075D+00
     15 -0.716485D-01 -0.172140D+01  0.149017D+00 -0.552840D+01 -0.922661D-02
     16  0.136727D-01  0.289986D+00  0.186563D+00  0.187841D-01 -0.167099D+00
     17 -0.116102D+00  0.923680D-01  0.360577D-01 -0.115891D-01  0.238698D+00
     18  0.130490D+00  0.552162D-01  0.130747D-01  0.227201D-02  0.331576D-01
     19 -0.146857D+00  0.121980D+00  0.671708D-01  0.488737D-02  0.292652D+00
     20  0.622236D+00  0.231706D-01 -0.995673D-01  0.226171D-02  0.300570D+00
     21 -0.791899D+01  0.466670D-01  0.380546D-02 -0.105907D+00  0.113054D+00
     22  0.254083D-01 -0.444560D+01  0.979299D-01  0.741229D+00  0.185829D+00
     23 -0.431973D-02  0.100943D+00 -0.457009D+01  0.283347D+00  0.972527D-01
     24  0.103549D-01  0.662526D+00  0.249977D+00 -0.185143D+01 -0.111891D+00
     25  0.170459D+00 -0.128182D-01  0.485291D-01 -0.598218D-01 -0.148712D+01
     26  0.705456D-01  0.141695D+00  0.196044D-01  0.307942D-01 -0.440571D+00
     27 -0.328771D+00 -0.478841D-01  0.145249D-01  0.554039D-01 -0.150517D+00
     28  0.339777D-01  0.582953D-01 -0.319878D-01  0.178896D-01 -0.368580D+01
     29  0.215116D-01 -0.638563D-01 -0.777445D-01  0.125687D-01  0.721899D+00
     30 -0.142452D-01  0.706042D-02  0.323066D-01  0.530035D-01  0.486967D+00
     31 -0.396364D-01  0.804646D-01  0.362211D-01 -0.475237D-01 -0.402269D+01
     32 -0.111890D-01  0.380283D-01 -0.667632D-01  0.133717D+00  0.162012D+00
     33 -0.159984D-01 -0.385317D-01  0.777873D-01  0.590263D-01 -0.532306D+00
     34 -0.423351D-02  0.111769D-01 -0.191710D-01  0.134685D+00 -0.121248D-01
     35  0.945605D-04 -0.113845D-03  0.102930D+00 -0.228151D-01  0.177414D-01
     36 -0.839556D-02  0.778669D-01 -0.170930D-01  0.646532D-03  0.109011D-02
     37  0.104292D-02  0.446870D-01  0.809744D-01  0.526453D-01  0.276255D-01
     38 -0.332744D-02  0.112658D-01  0.760428D-01 -0.451536D-01 -0.115901D+00
     39 -0.842317D-02  0.189651D-01 -0.488648D-01  0.464599D-01 -0.223756D-01
     40  0.810910D-02 -0.855904D-01 -0.884063D-01  0.167951D-01  0.924273D-01
     41  0.160420D-02 -0.544279D-01  0.562470D-01  0.243010D-01 -0.263715D-01
     42 -0.326026D-02  0.295466D-01  0.208678D-01  0.853204D-01  0.372420D-01
     43 -0.362342D-02  0.482356D-01  0.973972D-01  0.165651D-01 -0.257305D-02
     44 -0.507363D-02  0.117890D+00  0.842607D-01  0.166616D-01  0.178021D-01
     45 -0.384007D-01  0.206479D-01  0.224900D-01 -0.384087D-01  0.232932D-03
     46  0.324327D-02  0.321910D-01  0.139892D-01  0.000000D+00  0.960691D-02
     47 -0.906687D-01  0.185692D-01 -0.527394D-02 -0.754144D-03  0.904992D-02
     48  0.108306D+00  0.913184D-02  0.290044D-02 -0.985390D-02  0.230419D-02
     49  0.146999D+00  0.151228D-01 -0.125688D-01 -0.245712D-02  0.880961D-01
     50  0.184206D+01 -0.267257D-01 -0.118154D-02  0.505195D-02 -0.129482D-01
     51 -0.165854D+01 -0.327413D-01  0.101982D-01  0.796650D-03 -0.104429D+00
               11            12            13            14            15 
     11  0.126899D+02
     12  0.320369D+00  0.160853D+02
     13 -0.105343D+00 -0.846601D-01  0.116492D+02
     14  0.489235D-02  0.558255D-01  0.307734D-01  0.150368D+02
     15 -0.135730D-01 -0.752079D-01  0.127968D+01  0.141668D-01  0.148250D+02
     16  0.202648D+00  0.389133D-01  0.261916D+00  0.130081D+00 -0.293250D-01
     17  0.282442D+00  0.823419D-01  0.947256D-01 -0.111951D+00 -0.645277D-02
     18  0.853065D-01 -0.199087D+00 -0.356526D-01 -0.623922D-02 -0.125805D+00
     19  0.289640D+00  0.101433D+00  0.766399D-01  0.190505D-01  0.946473D-02
     20 -0.857448D-01  0.612185D-01 -0.365468D-02 -0.661450D-01 -0.558742D-03
     21  0.730139D-01 -0.186399D+00 -0.100795D-02  0.101910D-02 -0.581608D-01
     22  0.122669D+00 -0.118863D+00  0.535056D-02  0.237375D-02  0.216023D+00
     23 -0.532613D-03  0.237191D+00  0.283044D-02  0.182395D+00  0.139533D-02
     24  0.289029D+00 -0.544583D-02  0.262073D+00  0.719272D-02 -0.522717D-01
     25 -0.103276D+00 -0.108105D+00  0.116978D+00 -0.797935D-01 -0.167832D-01
     26 -0.455939D+01  0.347870D-01 -0.790556D-01 -0.766224D-02  0.115922D-01
     27  0.282718D-01 -0.451806D+01 -0.169783D-01  0.883941D-02 -0.405896D-01
     28  0.690705D+00  0.492693D+00 -0.170444D-01 -0.245450D-01 -0.134975D-01
     29 -0.268362D+01  0.105787D+01 -0.280783D-01  0.475434D-01  0.346588D-01
     30  0.979514D+00 -0.325137D+01 -0.185400D-01  0.472673D-01 -0.958771D-02
     31  0.124633D+00 -0.546213D+00 -0.266583D-01  0.287365D-01 -0.234746D-01
     32 -0.406076D+01 -0.640772D+00  0.416344D-01 -0.972632D-02  0.168266D-01
     33 -0.451472D+00 -0.168594D+01 -0.187221D-01 -0.126487D-02  0.219647D-01
     34  0.169964D-01  0.223133D-01 -0.398173D+01  0.192374D+00 -0.353828D+00
     35  0.271394D-02 -0.206909D-01  0.879419D-01 -0.342946D+01 -0.101183D+01
     36 -0.121667D-01  0.143788D-01 -0.152002D+00 -0.106415D+01 -0.176936D+01
     37 -0.126027D+00 -0.204346D-01 -0.388695D+01 -0.643842D+00 -0.102092D+00
     38  0.104669D+00  0.309087D-01 -0.409717D+00 -0.163718D+01  0.467573D+00
     39  0.330920D-01 -0.517569D-01 -0.560979D-01  0.507881D+00 -0.385225D+01
     40 -0.309682D-01  0.260994D-01 -0.219398D+01  0.742074D+00  0.103270D+01
     41 -0.315151D-01 -0.765789D-02  0.676185D+00 -0.334332D+01  0.441184D+00
     42 -0.903812D-02 -0.319469D-01  0.938092D+00  0.439368D+00 -0.307361D+01
     43  0.827807D-02  0.196746D-02  0.126571D-01  0.149529D-01  0.175052D-02
     44  0.160100D-01  0.499327D-02  0.218561D-01  0.978910D-02  0.401491D-02
     45 -0.640073D-03 -0.115057D-01 -0.924463D-03 -0.535241D-03 -0.115578D-01
     46 -0.422667D-02  0.365701D-02  0.131452D-01  0.497600D-02  0.433572D-02
     47 -0.713515D-02  0.233982D-02  0.620002D-02 -0.197615D-02  0.254086D-02
     48 -0.101104D-02 -0.723458D-02  0.112576D-02  0.580839D-03 -0.484410D-02
     49  0.161828D-01 -0.365082D-01  0.966316D-02 -0.472369D-02 -0.310941D-02
     50 -0.483374D-01  0.123837D-03 -0.851608D-02 -0.366152D-02  0.498786D-03
     51 -0.534033D-03 -0.246396D-01 -0.138110D-01  0.399834D-02 -0.507314D-02
               16            17            18            19            20 
     16  0.666076D+01
     17  0.251123D+01  0.175551D+02
     18 -0.315793D+01  0.102101D+00  0.277671D+02
     19 -0.328406D+01 -0.474596D+01  0.159501D+01  0.133221D+02
     20 -0.441787D+01 -0.640584D+01 -0.355647D+00  0.447368D+01  0.105982D+02
     21  0.156585D+01 -0.412057D+00 -0.134353D+02 -0.192012D+01 -0.579297D+00
     22  0.451269D-01  0.444475D-01  0.584756D-01  0.587014D-01  0.895181D-02
     23  0.489639D-01 -0.204034D-01  0.271741D-01  0.131904D-01 -0.185405D-01
     24  0.960098D-01  0.458804D-01  0.227308D-01  0.367604D-01 -0.129807D-02
     25 -0.209326D-01 -0.199438D-01 -0.159490D-01  0.307974D-02 -0.158743D-01
     26  0.373147D-01  0.777870D-01 -0.870682D-01  0.253524D-01 -0.640695D-02
     27 -0.149746D-01 -0.635267D-01 -0.298921D-01 -0.350086D-01 -0.356090D-01
     28  0.879146D-03  0.239832D-01  0.454884D-02  0.373184D-02  0.980446D-02
     29  0.298466D-01  0.253373D-01  0.819359D-02  0.156737D-01 -0.516324D-03
     30  0.731003D-02  0.116094D-01 -0.100039D-01  0.737930D-02  0.436183D-02
     31 -0.598818D-02  0.257367D-01 -0.997254D-02  0.205898D-01  0.262380D-01
     32  0.226243D-01  0.208016D-01 -0.140545D-01  0.301608D-01  0.126343D-02
     33 -0.190846D-01 -0.284599D-01 -0.378855D-02 -0.334246D-01 -0.191587D-01
     34  0.214687D-01  0.130492D-01 -0.896923D-02  0.144959D-01  0.681243D-03
     35  0.238807D-01 -0.423254D-02 -0.785723D-02  0.109983D-01 -0.827528D-02
     36 -0.254796D-01 -0.850631D-02 -0.390258D-02 -0.176656D-01  0.939728D-03
     37  0.307210D-01 -0.402991D-02 -0.784427D-02  0.316662D-01 -0.840132D-02
     38 -0.234461D-01 -0.128360D-01  0.417738D-02 -0.197146D-01 -0.176608D-02
     39 -0.130154D-01  0.164525D-02 -0.143301D-01 -0.661068D-02  0.209363D-02
     40  0.226290D-01  0.769062D-02  0.288888D-02  0.180880D-01 -0.105300D-02
     41  0.121169D-01 -0.531156D-02  0.140575D-02  0.552068D-02 -0.615908D-02
     42  0.737844D-02  0.245818D-02 -0.692005D-02  0.560989D-02 -0.488625D-03
     43 -0.427215D+01  0.707027D+00  0.565883D-01  0.185456D+00  0.258661D+00
     44  0.603981D+00 -0.172048D+01  0.149331D+00  0.316906D+00 -0.343284D+00
     45  0.529215D-01  0.167200D+00 -0.442971D+01  0.909336D-02  0.849257D-02
     46 -0.535178D+00  0.781866D-01 -0.130062D+00 -0.239969D+01  0.124489D+01
     47  0.259421D-01  0.369849D+00  0.115121D-01  0.124705D+01 -0.366495D+01
     48 -0.139988D+00  0.179712D-01  0.300455D+00  0.507108D+00  0.306311D+00
     49  0.225175D-01  0.461236D-01 -0.210821D-01  0.547084D-01  0.523519D-02
     50  0.710379D-02 -0.959918D-01  0.254894D-01 -0.482648D-01  0.107117D+00
     51 -0.438115D-01  0.383920D-01  0.657633D-01 -0.411218D-01  0.477123D-01
               21            22            23            24            25 
     21  0.255182D+02
     22  0.130595D-01  0.424489D+01
     23  0.159705D-02  0.331525D-01  0.468237D+01
     24 -0.137188D-01 -0.886782D+00 -0.425319D+00  0.124028D+01
     25 -0.554974D-01  0.114283D-01 -0.669813D-02  0.204390D-01  0.187777D+01
     26 -0.611088D-01 -0.820449D-02 -0.113554D-02 -0.783281D-02  0.438691D+00
     27 -0.103322D-01  0.686802D-02 -0.421694D-02  0.140100D-02 -0.564329D-01
     28  0.436031D-02  0.251973D-01  0.135797D-01 -0.753602D-02 -0.148493D+00
     29  0.495984D-02  0.142242D-01 -0.631907D-01  0.350483D-01 -0.116705D+00
     30 -0.544852D-02 -0.606958D-02  0.359850D-01  0.961640D-02 -0.795252D-01
     31 -0.179051D-01 -0.303239D-01 -0.815352D-02  0.192521D-01 -0.602441D-01
     32 -0.128732D-01 -0.160276D-01  0.123151D-02 -0.781596D-01 -0.360295D-01
     33 -0.245556D-02  0.311438D-01 -0.607506D-01  0.103166D+00  0.166050D+00
     34 -0.517218D-02 -0.152258D-01  0.448934D-02 -0.552242D-01  0.145165D-01
     35 -0.275087D-02  0.546386D-02 -0.285880D-01 -0.199345D-01 -0.682776D-03
     36 -0.282284D-02 -0.350590D-01 -0.811142D-02  0.105060D+00 -0.167653D-01
     37 -0.141907D-02 -0.220756D-02 -0.464349D-02 -0.880302D-02  0.278011D-03
     38  0.548712D-03 -0.123137D-02  0.369813D-02  0.156457D-01 -0.555998D-02
     39 -0.880638D-02 -0.265628D-02  0.611861D-02  0.746956D-02 -0.177836D-02
     40  0.218766D-02 -0.375054D-01 -0.588491D-02  0.235612D-01  0.968946D-02
     41  0.774110D-03 -0.373507D-02  0.151578D-01 -0.560798D-03  0.126016D-02
     42 -0.366960D-02  0.302865D-01  0.341934D-02 -0.271562D-02  0.397400D-02
     43  0.577449D-02  0.208319D-03  0.499283D-03  0.368132D-02 -0.371097D-02
     44  0.146054D-01  0.419336D-02  0.161891D-02  0.837614D-02 -0.947931D-02
     45  0.255021D+00  0.112679D-02  0.611248D-03  0.144815D-03 -0.425708D-03
     46  0.514051D+00  0.438443D-02  0.132510D-02  0.671968D-02  0.139309D-01
     47  0.308652D+00  0.278347D-02 -0.152525D-04  0.373180D-02  0.272660D-01
     48 -0.433466D+01  0.233160D-02  0.978063D-03  0.129092D-02  0.461768D-02
     49  0.888926D-02 -0.765300D-02  0.230338D-02 -0.665533D-03 -0.579249D-01
     50 -0.524951D-01  0.170452D-03 -0.235429D-03 -0.289025D-02 -0.589776D-02
     51  0.883308D-01 -0.665743D-02  0.552882D-03 -0.660270D-02  0.453488D-01
               26            27            28            29            30 
     26  0.456511D+01
     27 -0.827468D-03  0.488859D+01
     28 -0.120102D+00 -0.100909D+00  0.361589D+01
     29  0.436954D-01 -0.340824D-01 -0.646026D+00  0.246912D+01
     30 -0.245661D-01  0.621336D-01 -0.392942D+00 -0.105614D+01  0.342046D+01
[...]
   yx         0.630219D+01      0.933888D+00      0.103909D+01
   yy         0.627366D+02      0.929660D+01      0.103439D+02
   zx        -0.307464D+01     -0.455615D+00     -0.506940D+00
   zy         0.996985D+01      0.147738D+01      0.164381D+01
   zz         0.837457D+02      0.124098D+02      0.138078D+02

 ----------------------------------------------------------------------

 Test job not archived.
 1\1\GINC-C0179\Freq\RM062X\CC-pVTZ\C5H10O2\HARMS.N\26-Sep-2019\0\\#P G
 eom=AllCheck Guess=TCheck SCRF=Check Test GenChk RM062X/CC-pVTZ Freq\\
 Gaussian input prepared by ASE\\0,1\O,2.2604106834,1.7662422668,0.9228
 063983\O,3.7628776021,-0.2203074656,2.0760708171\C,1.6007416379,3.0297
 083671,1.0411953612\C,0.4038590789,3.0935274874,0.1074575879\C,2.63452
 79635,4.0853825046,0.7107913788\C,1.6512660484,0.7211069194,1.57006378
 2\C,2.4058753864,-0.230014359,2.1031046947\H,1.2716480464,3.1464163996
 ,2.0791547081\H,-0.3250247075,2.3157191217,0.3310997985\H,-0.094906743
 8,4.0582286899,0.1986517904\H,0.7369865972,2.9675187924,-0.922975692\H
 ,3.0010373253,3.934414142,-0.3049746494\H,3.4773063614,4.0250152364,1.
 3972135072\H,2.1972547613,5.0807972386,0.7781185018\H,0.5715069277,0.6
 870002531,1.5941001173\H,1.9836195205,-1.097962122,2.5843269443\H,4.03
 28186936,0.5838265494,1.6160527498\\Version=EM64L-G16RevA.03\State=1-A
 \HF=-346.9479196\RMSD=6.159e-09\RMSF=8.150e-07\ZeroPoint=0.1475351\The
 rmal=0.156027\Dipole=-0.5975109,0.7491245,-0.0855441\DipoleDeriv=-0.50
 0111,-0.0738433,0.0666149,0.3208154,-1.6067264,0.5147113,-0.1126677,0.
 495762,-0.5168627,-1.2900325,0.4835295,-0.2085032,-0.0822981,-0.311524
 3,-0.0035966,0.0713125,-0.0161656,-0.3130795,0.5449144,-0.3351166,0.18
 13532,-0.1922491,1.0224571,-0.1752094,0.085129,-0.0168851,0.3551728,-0
 .0950253,0.0606015,-0.1071661,-0.0389323,-0.0146123,0.0136825,-0.09729
 03,0.0195943,0.0047353,-0.0310901,-0.0751801,-0.0128212,-0.033864,-0.0
 510847,0.0472439,-0.011155,0.0343398,0.0661525,-0.0855261,0.4522902,-0
 .1728323,0.0575459,0.6339227,-0.4621136,0.0046894,-0.5837653,0.1273832
 ,1.1322429,-0.4429905,0.1608261,-0.0139132,0.0511562,-0.0957803,0.0086
 964,-0.0822491,-0.046536,-0.0348812,0.0473759,0.0086419,-0.016143,-0.0
 221253,0.0458285,0.0509441,-0.0573245,-0.1459917,-0.0259974,-0.0988821
 ,0.009705,-0.1139096,-0.0264186,0.0196002,0.0179495,0.0312351,0.041698
 7,0.0336377,0.0687265,-0.0173489,0.0937268,-0.0941798,-0.0001435,0.000
 6321,-0.0161901,0.0488861,0.0260295,0.0049094,0.0818146,0.0059693,0.06
 8368,-0.0221284,0.0119691,-0.0060784,-0.08494,0.0401952,-0.0249764,0.0
 275718,0.0092441,0.0529368,-0.055755,0.0619125,-0.0035704,-0.0873345,-
 0.0677002,-0.0300517,-0.0751452,0.0088117,0.0633508,0.0210307,-0.09131
 5,0.0049184,-0.0072846,0.0241285,0.0799252,0.0159832,0.0465324,-0.0998
 417,0.0095075,0.0108865,-0.0004109,0.0657569,-0.0504037,-0.0563339,0.0
 201725,0.0034245,0.0765913,0.0369175,-0.0243453,0.0993178,0.1035393,0.
 0210132,-0.0200651,0.0159683,-0.0475868,0.0211558,0.0693614,0.0256524,
 0.0601739,0.1188148,0.3586059,-0.0399185,0.0051653,-0.007174,0.2365742
 ,0.0368433,-0.0130001,0.037298,0.2698893\Polar=69.253754,-6.4742904,79
 .4552054,4.9471729,-11.4982564,57.2818807\Quadrupole=0.8581507,0.17677
 85,-1.0349292,2.4337636,-1.2526751,-0.2385046\PG=C01 [X(C5H10O2)]\NIma
 g=0\\0.27074413,-0.01525422,0.50911439,-0.09716883,-0.12036085,0.16904
 695,0.01207893,0.01169890,-0.00651065,0.48478642,0.00428530,0.00278283
 ,-0.00781446,0.09077631,0.44489686,-0.00266005,-0.00571789,-0.00235362
 ,-0.05986794,-0.23517620,0.16829420,-0.11966925,0.06928178,0.01981175,
 0.00496811,0.00142965,-0.00156860,0.51402889,0.04720610,-0.16332797,-0
 .00451913,-0.00553866,0.00087527,-0.00117016,0.03014881,0.47548043,0.0
 2615432,-0.02259345,-0.07147536,0.00104349,0.00063181,-0.00091965,-0.0
 4316361,-0.00312784,0.60604552,-0.01934918,0.01568743,-0.01037801,-0.0
 0054599,0.00038599,0.00004004,-0.14745503,-0.00518563,-0.05587702,0.52
 852461,0.03761165,-0.02113233,0.02228928,0.00001888,-0.00051498,0.0005
 5759,-0.01064568,-0.07474352,-0.00289763,0.00695054,0.58830361,0.00188
 269,0.00111390,0.00635639,0.00026467,-0.00009411,0.00011442,-0.0623859
 2,0.00083082,-0.13674933,-0.04986411,0.00622347,0.53999268,0.01215202,
 0.01713746,-0.00499132,-0.00093097,-0.00020435,0.00021750,-0.14741799,
 -0.07109216,0.02413512,-0.02546379,-0.02156213,0.00379512,0.54736626,-
 0.02050505,-0.04739759,0.01185728,0.00075234,0.00005479,-0.00026401,-0
 .05746920,-0.12755441,0.01677652,-0.00539343,0.00233103,-0.00203065,-0
 .04744982,0.54742121,-0.00196340,-0.00202539,0.00308866,-0.00061217,-0
 .00023277,-0.00021725,0.02487132,0.02325913,-0.09125520,-0.01708006,-0
 .01656567,0.00475290,0.02093972,0.01509375,0.57747276,-0.14175823,-0.0
 6975586,0.06342854,-0.07077638,0.02878476,-0.01469336,0.01418782,0.001
 50545,-0.01158925,0.00001793,0.00514980,0.00054086,-0.00200420,0.00269
 948,-0.00017021,0.78067148,-0.04999057,-0.20193152,0.08384259,-0.00453
 021,0.00817523,0.00593293,-0.01290965,-0.04977360,0.01863852,-0.000020
 70,0.00395639,0.00082120,0.00214301,-0.00357480,0.00061354,-0.14275504
 ,0.62449799,0.06032744,0.10548235,-0.10206731,0.00532747,0.00344762,0.
 01106135,-0.00635618,0.00733908,-0.00494749,-0.00088303,-0.00102212,-0
 .00037956,0.00145896,-0.00276935,-0.00001884,0.05655572,-0.27738066,0.
 26629493,0.00590090,-0.03533678,0.01860674,-0.33716977,-0.01986030,0.0
 1716458,-0.00941044,0.00387699,0.00169565,-0.00002316,-0.00037569,-0.0
 0022917,0.00174655,-0.00196397,0.00059635,-0.24283466,0.20405825,-0.11
 401850,0.71247483,0.01077033,-0.04730295,0.03287656,0.02504271,-0.0963
 8362,0.02782081,-0.00508228,0.00359771,0.00261878,-0.00025257,-0.00082
 191,-0.00037083,0.00100397,-0.00096914,-0.00031327,0.17610628,-0.32961
 084,0.15179583,-0.07667030,0.71670822,-0.00496421,0.03796135,-0.010379
 29,-0.00864937,0.03041853,-0.05987396,0.00385750,-0.00396035,-0.000354
 00,-0.00003548,0.00035513,0.00010288,-0.00080390,0.00067827,0.00051447
 ,-0.09679981,0.14711206,-0.13715259,0.03489736,-0.33196720,0.30662705,
 -0.00797177,0.01310061,0.01676177,-0.00052370,-0.00008694,-0.00006921,
 -0.07169323,0.00509499,0.06556697,0.00751348,-0.00268214,-0.02742699,-
 0.00756097,0.00031252,0.02214137,-0.00037381,-0.00309402,0.00050156,0.
 00044653,0.00033691,-0.00065317,0.08323419,0.01887517,-0.02395041,-0.0
 3027101,-0.00054492,-0.00027190,-0.00010148,0.00126920,-0.05019700,-0.
 01480349,-0.00137498,0.00223795,0.00030508,-0.00813562,0.00301557,0.02
 339074,0.00246627,0.00511897,-0.00421550,0.00082466,-0.00064648,0.0011
 5431,-0.01078139,0.06581827,0.00375119,-0.00574120,0.00046723,0.000370
 23,0.00025695,-0.00000256,0.06845629,-0.02070785,-0.27947763,0.0045866
 3,-0.00090051,-0.01997185,0.00171924,0.00042041,-0.00523019,0.00096094
 ,0.00136429,0.00175764,-0.00117273,-0.00085407,0.00043921,-0.07540305,
 0.02486974,0.30071860,0.00222402,0.00026478,0.00085569,0.00080886,-0.0
 0011309,0.00005004,-0.01700618,-0.01975156,0.00775672,-0.16610256,-0.1
 2839965,0.03852643,-0.00342691,0.00158250,-0.00454990,-0.00095460,-0.0
 0033552,0.00034213,-0.00007874,0.00057178,-0.00023510,0.00095638,0.000
 51787,0.00005225,0.17939621,-0.00076926,0.00095451,-0.00078820,-0.0000
 0247,-0.00005271,-0.00006137,0.00271462,0.00051381,-0.00088281,-0.1298
 5723,-0.18621279,0.04155596,0.00037118,0.00054597,-0.00032221,-0.00000
 115,-0.00079760,0.00078690,0.00027236,0.00016369,-0.00005751,-0.000380
 94,0.00001232,-0.00037515,0.14196977,0.20111400,0.00208896,0.00004706,
 0.00055867,0.00021493,0.00002634,0.00011524,-0.01362677,-0.01818388,0.
 00547845,0.03880058,0.04272069,-0.06082147,-0.00306436,0.00109313,-0.0
 0254139,-0.00020847,0.00016671,-0.00021683,-0.00008619,0.00005608,-0.0
 0015333,0.00097743,-0.00024727,0.00080927,-0.03977960,-0.04712745,0.06
 257621,-0.00549654,0.00364365,-0.00484180,-0.00002397,0.00005298,-0.00
 012533,-0.00855222,0.02182154,0.00690638,-0.10237323,0.10812192,0.0096
 3838,0.00077383,0.00030981,0.00070744,-0.00143329,-0.00174189,0.000916
 81,0.00032724,0.00054467,-0.00022412,0.00087932,-0.00035762,-0.0002792
 2,0.01112313,-0.01952265,-0.00236775,0.10976342,0.00003385,0.00076422,
 0.00106683,0.00042904,-0.00006128,0.00002165,-0.00097150,-0.00224386,-
 0.00079711,0.11011786,-0.25979165,-0.02113184,-0.00041641,-0.00031948,
 -0.00020244,0.00011321,0.00060673,-0.00033952,-0.00020153,0.00009368,-
 0.00000643,0.00029742,0.00022421,0.00044670,0.01085533,-0.01930366,-0.
 00222809,-0.11988603,0.28114716,-0.00522108,0.00299237,-0.00213958,-0.
 00014549,0.00015086,-0.00008112,-0.00600179,0.01830260,0.00277606,0.01
 037149,-0.02231994,-0.04958671,0.00057095,0.00006805,0.00039159,-0.000
 77698,-0.00088483,0.00055252,0.00006827,0.00010382,-0.00004043,0.00108
 531,-0.00018178,0.00009071,-0.00373914,0.00644146,-0.00064976,-0.00976
 787,0.02332881,0.04909536,0.00202316,-0.00144267,0.00193492,0.00011027
 ,-0.00002901,0.00003815,0.00721045,-0.00388079,-0.02809566,-0.07401538
 ,0.00979938,0.08214205,0.00191860,0.00056201,-0.00075357,-0.00006996,0
 .00013794,0.00012398,0.00001207,-0.00006922,0.00002170,-0.00410937,0.0
 0034662,-0.00342395,-0.00670204,0.00397191,0.01936986,-0.00521405,0.00
 013081,0.01321050,0.07908042,-0.00075686,0.00104984,0.00008146,-0.0000
 1757,-0.00002192,-0.00001655,0.00058467,-0.00122375,0.00163072,0.00880
 588,-0.05084173,-0.02971107,0.00022212,-0.00013922,-0.00062336,-0.0004
 4401,-0.00074524,0.00040044,0.00018280,0.00006982,-0.00009866,0.000129
 92,0.00075087,0.00037845,-0.00669629,0.00323828,0.02300168,0.00786222,
 -0.00199331,-0.02760805,-0.00963567,0.04958072,0.00076578,0.00048940,0
 .00275153,-0.00016885,0.00002249,0.00000997,0.00663234,-0.00382691,-0.
 02418139,0.08034187,-0.02897114,-0.28493263,0.00121516,0.00052792,0.00
 099284,0.00006462,0.00021111,-0.00010607,0.00008281,-0.00014212,0.0000
 9711,-0.00399219,0.00031257,-0.00106546,0.00140926,-0.00072343,-0.0052
 8838,-0.00008119,0.00001057,-0.00059969,-0.08536206,0.03258069,0.31150
 144,0.00104705,0.00116000,-0.00145592,0.00008608,0.00000514,0.00005510
 ,-0.01027853,0.00396688,0.02437441,0.00112249,0.00097839,0.00125022,-0
 .07650410,0.01270404,0.08111471,0.00005840,-0.00001960,-0.00025639,-0.
 00003458,0.00006330,-0.00007960,-0.00244467,-0.00372399,0.00035709,0.0
 0034241,-0.00000787,-0.00041175,-0.00009005,-0.00002900,-0.00000433,-0
 .00035716,-0.00034931,-0.00073937,0.08229908,0.00059081,0.00264595,-0.
 00081533,0.00009163,0.00002068,-0.00000550,-0.00964193,0.00195142,0.02
 440715,0.00137506,0.00056768,0.00066125,0.01411350,-0.05202815,-0.0381
 5868,-0.00007493,-0.00043129,0.00011714,0.00000554,0.00016087,-0.00017
 099,-0.00326636,-0.00309022,0.00078104,0.00022576,-0.00007416,-0.00001
 783,0.00001972,0.00002690,-0.00013714,0.00000755,0.00017879,-0.0005447
 1,-0.01139355,0.05354442,-0.00069719,0.00011441,0.00083032,-0.00017841
 ,0.00002336,0.00009264,0.00373186,-0.00093628,-0.00959836,-0.00088161,
 -0.00012808,0.00106404,0.08229854,-0.03667567,-0.28130791,-0.00037304,
 0.00011108,0.00027073,0.00017461,-0.00004065,0.00001747,0.00090958,0.0
 0124419,0.00124750,-0.00011751,0.00011670,0.00021188,-0.00005534,0.000
 12096,0.00001961,0.00048926,-0.00014251,0.00054881,-0.09214542,0.03949
 239,0.30445223,0.00209952,0.00132217,0.00064841,0.00013193,0.00007177,
 0.00005281,-0.01926911,0.00337865,-0.01583358,-0.00236743,-0.00426730,
 0.00243543,-0.20763963,0.01226282,-0.13247870,0.00002456,-0.00004684,0
 .00020004,-0.00010096,-0.00003803,-0.00000992,0.00060666,0.00056021,0.
 00030573,-0.00107617,-0.00007517,-0.00118191,0.00036943,0.00000453,0.0
 0020122,0.00014066,-0.00001700,-0.00001864,0.00971203,-0.00103883,0.00
 735725,0.22638234,0.00076490,0.00235703,-0.00006859,0.00014516,0.00017
 729,0.00005436,-0.01867006,0.00017890,-0.01666711,-0.00245253,-0.00352
 601,0.00154705,0.01474876,-0.04800845,0.01175888,-0.00010563,-0.000177
 94,0.00023694,-0.00014022,0.00005801,-0.00005246,0.00093033,0.00077379
 ,0.00003760,-0.00131020,0.00026470,-0.00066854,-0.00020513,0.00025244,
 0.00008092,0.00016049,-0.00009257,0.00018878,-0.00420047,-0.00076536,-
 0.00308786,-0.01200434,0.04893423,0.00024873,-0.00088259,0.00010122,0.
 00028368,0.00006872,-0.00005228,0.00761713,-0.00035576,0.00505804,0.00
 075787,0.00106814,0.00032367,-0.13439424,0.01067570,-0.15926222,0.0002
 3984,-0.00021258,-0.00003278,-0.00033708,0.00001048,-0.00001569,-0.000
 12812,-0.00080092,0.00073721,0.00025181,0.00024713,0.00058804,-0.00005
 388,0.00014996,-0.00015410,0.00024190,0.00022078,0.00045840,-0.0235426
 0,0.00260148,-0.01749966,0.14539854,-0.01283727,0.16821118,-0.00243148
 ,-0.00543993,0.00173713,0.00036079,0.00010378,-0.00007545,0.01057425,-
 0.01797505,-0.00358777,0.00034260,0.00028275,-0.00011731,-0.09328493,0
 .10171767,0.00737373,0.00101222,-0.00096022,-0.00049167,-0.00067243,-0
 .00031030,0.00020641,0.00069432,0.00086235,0.00022029,0.00025923,0.000
 13085,0.00014469,-0.00061387,-0.00042149,-0.00016032,-0.00000088,0.000
 04738,-0.00011635,-0.00500825,0.00882589,-0.00056160,-0.00911424,0.022
 23756,0.00345703,0.09796724,-0.00416147,-0.00506923,0.00275957,0.00045
 298,-0.00000452,-0.00005234,0.01338658,-0.01734625,-0.00357370,0.00110
 247,0.00046528,-0.00016668,0.09845058,-0.27295182,-0.01580209,0.000957
 86,0.00012852,-0.00117113,-0.00073993,-0.00037286,0.00023093,-0.000047
 95,0.00059081,0.00053914,-0.00012030,0.00042857,0.00019870,-0.00071455
 ,0.00045691,-0.00015938,-0.00009554,-0.00004410,0.00005151,0.00074421,
 -0.00280189,-0.00006012,-0.00006384,-0.00023600,0.00021883,-0.10893168
 ,0.29691506,0.00133072,0.00212114,0.00031888,-0.00012743,0.00004326,0.
 00008031,-0.00430935,0.00630579,-0.00145192,-0.00020263,-0.00019209,0.
 00004900,0.00740795,-0.01608088,-0.04742231,-0.00014623,0.00021379,0.0
 0071640,0.00013823,0.00005426,-0.00012023,-0.00037345,-0.00035705,-0.0
 0009997,-0.00000359,0.00007175,-0.00017263,-0.00028186,-0.00017148,0.0
 0024603,0.00010481,-0.00012995,-0.00002322,0.01149275,-0.02828362,-0.0
 0015625,-0.00690883,0.01970052,0.00143704,-0.00817835,0.01676855,0.046
 74501,-0.01159644,-0.00846625,0.00342475,0.00181422,0.00228836,-0.0008
 3344,-0.00100393,0.00350810,0.00093136,-0.00007457,-0.00033376,-0.0003
 7647,0.00028368,-0.00036680,-0.00021847,-0.34551101,0.00004919,0.00230
 978,-0.01243719,-0.00427846,0.00193645,0.00020517,-0.00046697,-0.00047
 385,0.00036204,0.00115815,-0.00081012,0.00037263,0.00004246,0.00016284
 ,0.00000901,0.00004694,-0.00005782,0.00005426,0.00015334,-0.00002456,0
 .00008332,0.00007738,0.00004942,-0.00006290,-0.00016103,0.00003135,0.3
 6673091,-0.02842741,-0.00693906,0.00470027,0.00162321,-0.00083508,0.00
 654253,-0.00311081,0.00352270,0.00003079,0.00018388,-0.00030947,0.0004
 0021,0.00033976,-0.00043358,-0.00020972,-0.00034722,-0.04876471,0.0123
 5934,0.02244852,0.00691124,-0.00386610,0.00003345,-0.00059261,-0.00038
 193,0.00088294,-0.00076933,0.00120347,0.00010049,0.00016295,-0.0001358
 2,0.00003488,0.00021356,-0.00017392,0.00009123,0.00012985,-0.00017024,
 0.00011007,0.00011777,0.00005539,0.00003103,-0.00017660,0.00002028,0.0
 0663649,0.04965261,0.01945892,0.00423054,-0.00116709,-0.00264706,0.006
 21746,0.00791133,0.00078190,-0.00144814,0.00093348,0.00031259,0.000149
 79,-0.00027095,-0.00026782,0.00019406,-0.00021144,0.00022237,0.0134585
 4,-0.03410760,-0.01088515,-0.00330449,0.00083479,-0.00028763,-0.000067
 98,-0.00011977,-0.00084112,0.00106742,-0.00044453,-0.00020785,-0.00027
 145,0.00006674,0.00001379,-0.00001481,-0.00008239,0.00005290,-0.000024
 45,0.00001190,-0.00009208,-0.00011005,0.00000351,0.00000688,0.00014013
 ,-0.00002104,-0.00586116,-0.01860396,0.03095888,-0.00225437,0.00388806
 ,-0.00122027,-0.01991059,-0.03051595,0.01721503,0.00071782,-0.00027979
 ,-0.00076230,-0.00002675,0.00018661,0.00003359,-0.00023466,0.00026887,
 0.00004328,0.01270646,0.01215040,-0.00710238,-0.09394941,-0.08408830,0
 .04654368,-0.00004331,0.00004093,0.00006939,-0.00000647,-0.00001311,-0
 .00000696,-0.00006087,0.00001329,-0.00003368,0.00000566,-0.00001428,0.
 00000266,-0.00001688,-0.00002343,-0.00000545,0.00001062,0.00000652,0.0
 0002424,0.00008357,0.00008535,-0.00000504,0.00008665,-0.00022407,0.000
 17379,0.10895229,0.00220176,-0.00038150,0.00439968,-0.00125331,0.00399
 180,-0.00154021,-0.00011064,0.00139568,0.00116444,0.00003642,-0.000355
 82,-0.00005522,0.00003671,-0.00004068,-0.00003363,-0.01214626,-0.01017
 662,0.00620721,-0.08854944,-0.24967351,0.12038464,0.00009856,-0.000008
 21,-0.00017643,0.00000900,0.00003229,-0.00001938,0.00010601,-0.0000077
 3,0.00004253,-0.00002508,0.00001491,-0.00002127,0.00001685,0.00002901,
 -0.00002573,-0.00000446,0.00002045,0.00000801,-0.00000532,-0.00002122,
 -0.00002789,0.00059434,-0.00109452,-0.00200809,0.09768122,0.25443667,-
 0.00381232,0.00299220,0.00887264,0.00191260,-0.00071743,0.00166953,0.0
 0112585,0.00146474,0.00000987,-0.00002655,-0.00011170,-0.00001197,-0.0
 0036063,0.00042872,0.00006962,0.00693537,0.00757098,-0.00357220,0.0492
 9325,0.11862598,-0.10054327,0.00012621,0.00011221,-0.00020094,-0.00001
 820,0.00001196,-0.00004364,0.00003409,-0.00000869,-0.00002081,-0.00001
 957,0.00001369,-0.00002588,0.00001138,-0.00001456,-0.00003575,0.000002
 88,-0.00001655,0.00001001,0.00011970,0.00011273,-0.00006506,-0.0003448
 7,-0.00181902,-0.00338802,-0.05448222,-0.12830721,0.09494477,0.0022575
 4,-0.00148911,-0.00064290,-0.07526422,-0.07737440,0.04506014,0.0000685
 8,0.00319613,0.00034478,0.00027597,-0.00083359,-0.00010947,0.00022722,
 -0.00002377,0.00003857,-0.00296275,-0.00213453,0.00104425,-0.02419677,
 -0.04365048,0.02499155,0.00018480,-0.00037779,-0.00009646,-0.00011859,
 0.00004100,-0.00005258,0.00024910,-0.00011183,0.00018010,-0.00004145,0
 .00004906,0.00002198,0.00001242,0.00003025,0.00007903,0.00000647,0.000
 01747,-0.00011426,-0.00010523,-0.00014375,0.00003095,0.00068414,-0.000
 40644,0.00006672,-0.00605974,0.00131364,-0.00049700,0.10478252,-0.0024
 7502,-0.00223621,0.00076404,-0.11914400,-0.36282874,0.20317584,-0.0002
 0355,-0.00110556,-0.00055557,-0.00010847,0.00038829,0.00010147,0.00029
 345,0.00004874,0.00037321,0.00784695,0.00350032,-0.00127457,-0.0078309
 5,-0.00198193,0.00188447,0.00000502,0.00021406,0.00004283,-0.00015312,
 -0.00005790,-0.00002142,-0.00015514,-0.00001423,-0.00008447,0.00002641
 ,0.00000504,0.00000847,-0.00000623,-0.00006450,0.00004405,-0.00015443,
 -0.00032829,-0.00023549,-0.00019526,0.00003936,-0.00005635,-0.00048148
 ,-0.00079572,0.00039546,0.00083766,0.00183900,-0.00033805,0.12189815,0
 .36337826,0.00047832,-0.00022335,-0.00281023,0.06949032,0.20272759,-0.
 12584854,0.00052628,0.00073414,0.00010890,0.00001743,-0.00025521,-0.00
 003151,0.00012400,0.00000677,0.00018392,-0.00419090,-0.00157926,0.0019
 4768,0.00401097,0.00303001,-0.00000018,0.00026362,-0.00034235,-0.00009
 901,0.00003984,0.00003885,-0.00000580,0.00008311,0.00001156,0.00003359
 ,-0.00003610,0.00003706,-0.00005500,-0.00007320,0.00011236,-0.00016920
 ,-0.00007867,-0.00009662,0.00008840,0.00002294,-0.00003463,-0.00006006
 ,0.00015482,0.00004843,-0.00090779,-0.00048737,0.00000855,0.00233108,-
 0.07034541,-0.20422390,0.12529375\\0.00000045,0.00000024,-0.00000013,-
 0.00000062,-0.00000049,0.00000054,-0.00000032,0.00000040,0.00000022,0.
 00000066,0.00000027,-0.00000074,0.00000005,0.00000018,0.00000146,-0.00
 000055,-0.00000079,-0.00000046,-0.00000053,-0.00000029,-0.00000077,-0.
 00000087,-0.00000057,-0.00000006,0.00000054,0.00000003,-0.00000177,0.0
 0000053,0.00000011,-0.00000073,0.00000147,0.00000072,-0.00000061,0.000
 00092,0.00000077,0.00000167,-0.00000045,0.00000002,0.00000211,-0.00000
 008,0.00000012,0.00000156,-0.00000023,-0.00000035,-0.00000180,-0.00000
 080,-0.00000056,-0.00000143,-0.00000018,0.00000018,0.00000094\\\@


 "TIGER, TIGER BURNING BRIGHT
 IN THE FOREST OF THE NIGHT.
 WHAT IMMORTAL HAND OR EYE
 CAN FRAME THY FEARFUL SYMMETRYE?"
                     - WILLIAM BLAKE
 Job cpu time:       0 days  2 hours 51 minutes 39.9 seconds.
 Elapsed time:       0 days  1 hours 25 minutes 50.7 seconds.
 File lengths (MBytes):  RWF=   1392 Int=      0 D2E=      0 Chk=     32 Scr=     32
 Normal termination of Gaussian 16 at Thu Sep 26 11:49:32 2019.
